[Molden Format]
[Atoms] (Angs)
  C      1    6      0.51932475      1.23303451     -0.03194925
  C      2    6      1.94454413      1.26916358     -0.03672882
  C      3    6      2.62037793      0.09283428     -0.02499003
  C      4    6     -0.19603352      0.03013062      0.00102732
  H      5    1     -0.02069420      2.17423764     -0.04336646
  H      6    1      2.48281698      2.20891057     -0.03611879
  H      7    1     -1.27770137      0.03990295      0.01166953
  N      8    7      4.09213475      0.09594076      0.03662979
  O      9    8      4.63930696     -1.02169275      0.14459220
  O     10    8      4.66489883      1.19839699     -0.02327545
  C     11    6      0.49428518     -1.16712649      0.02099746
  H     12    1     -0.03251071     -2.11492669      0.05447935
  C     13    6      1.96291176     -1.21653219     -0.02111314
  H     14    1      2.44359113     -1.96306433      0.61513886
 Br     15   35      2.17304025     -1.94912156     -1.90618750
[GTO]
1    0
S    6    1.000000
   4.56324000E+03    1.96665000E-03 
   6.82024000E+02    1.52306000E-02 
   1.54973000E+02    7.61269000E-02 
   4.44553000E+01    2.60801000E-01 
   1.30290000E+01    6.16462000E-01 
   1.82773000E+00    2.21006000E-01 
SP   3    1.000000
   2.09642000E+01    1.14660000E-01   4.02487000E-02 
   4.80331000E+00    9.19999000E-01   2.37594000E-01 
   1.45933000E+00   -3.03068000E-03   8.15854000E-01 
SP   1    1.000000
   4.83456000E-01    1.00000000E+00   1.00000000E+00 
SP   1    1.000000
   1.45585000E-01    1.00000000E+00   1.00000000E+00 
SP   1    1.000000
   4.38000000E-02    1.00000000E+00   1.00000000E+00 
D    1    1.000000
   6.26000000E-01    1.00000000E+00 

2    0
S    6    1.000000
   4.56324000E+03    1.96665000E-03 
   6.82024000E+02    1.52306000E-02 
   1.54973000E+02    7.61269000E-02 
   4.44553000E+01    2.60801000E-01 
   1.30290000E+01    6.16462000E-01 
   1.82773000E+00    2.21006000E-01 
SP   3    1.000000
   2.09642000E+01    1.14660000E-01   4.02487000E-02 
   4.80331000E+00    9.19999000E-01   2.37594000E-01 
   1.45933000E+00   -3.03068000E-03   8.15854000E-01 
SP   1    1.000000
   4.83456000E-01    1.00000000E+00   1.00000000E+00 
SP   1    1.000000
   1.45585000E-01    1.00000000E+00   1.00000000E+00 
SP   1    1.000000
   4.38000000E-02    1.00000000E+00   1.00000000E+00 
D    1    1.000000
   6.26000000E-01    1.00000000E+00 

3    0
S    6    1.000000
   4.56324000E+03    1.96665000E-03 
   6.82024000E+02    1.52306000E-02 
   1.54973000E+02    7.61269000E-02 
   4.44553000E+01    2.60801000E-01 
   1.30290000E+01    6.16462000E-01 
   1.82773000E+00    2.21006000E-01 
SP   3    1.000000
   2.09642000E+01    1.14660000E-01   4.02487000E-02 
   4.80331000E+00    9.19999000E-01   2.37594000E-01 
   1.45933000E+00   -3.03068000E-03   8.15854000E-01 
SP   1    1.000000
   4.83456000E-01    1.00000000E+00   1.00000000E+00 
SP   1    1.000000
   1.45585000E-01    1.00000000E+00   1.00000000E+00 
SP   1    1.000000
   4.38000000E-02    1.00000000E+00   1.00000000E+00 
D    1    1.000000
   6.26000000E-01    1.00000000E+00 

4    0
S    6    1.000000
   4.56324000E+03    1.96665000E-03 
   6.82024000E+02    1.52306000E-02 
   1.54973000E+02    7.61269000E-02 
   4.44553000E+01    2.60801000E-01 
   1.30290000E+01    6.16462000E-01 
   1.82773000E+00    2.21006000E-01 
SP   3    1.000000
   2.09642000E+01    1.14660000E-01   4.02487000E-02 
   4.80331000E+00    9.19999000E-01   2.37594000E-01 
   1.45933000E+00   -3.03068000E-03   8.15854000E-01 
SP   1    1.000000
   4.83456000E-01    1.00000000E+00   1.00000000E+00 
SP   1    1.000000
   1.45585000E-01    1.00000000E+00   1.00000000E+00 
SP   1    1.000000
   4.38000000E-02    1.00000000E+00   1.00000000E+00 
D    1    1.000000
   6.26000000E-01    1.00000000E+00 

5    0
S    3    1.000000
   3.38650000E+01    2.54938000E-02 
   5.09479000E+00    1.90373000E-01 
   1.15879000E+00    8.52161000E-01 
S    1    1.000000
   3.25840000E-01    1.00000000E+00 
S    1    1.000000
   1.02741000E-01    1.00000000E+00 

6    0
S    3    1.000000
   3.38650000E+01    2.54938000E-02 
   5.09479000E+00    1.90373000E-01 
   1.15879000E+00    8.52161000E-01 
S    1    1.000000
   3.25840000E-01    1.00000000E+00 
S    1    1.000000
   1.02741000E-01    1.00000000E+00 

7    0
S    3    1.000000
   3.38650000E+01    2.54938000E-02 
   5.09479000E+00    1.90373000E-01 
   1.15879000E+00    8.52161000E-01 
S    1    1.000000
   3.25840000E-01    1.00000000E+00 
S    1    1.000000
   1.02741000E-01    1.00000000E+00 

8    0
S    6    1.000000
   6.29348000E+03    1.96979000E-03 
   9.49044000E+02    1.49613000E-02 
   2.18776000E+02    7.35006000E-02 
   6.36916000E+01    2.48937000E-01 
   1.88282000E+01    6.02460000E-01 
   2.72023000E+00    2.56202000E-01 
SP   3    1.000000
   3.06331000E+01    1.11906000E-01   3.83119000E-02 
   7.02614000E+00    9.21666000E-01   2.37403000E-01 
   2.11205000E+00   -2.56919000E-03   8.17592000E-01 
SP   1    1.000000
   6.84009000E-01    1.00000000E+00   1.00000000E+00 
SP   1    1.000000
   2.00878000E-01    1.00000000E+00   1.00000000E+00 
SP   1    1.000000
   6.39000000E-02    1.00000000E+00   1.00000000E+00 
D    1    1.000000
   9.13000000E-01    1.00000000E+00 

9    0
S    6    1.000000
   8.58850000E+03    1.89515000E-03 
   1.29723000E+03    1.43859000E-02 
   2.99296000E+02    7.07320000E-02 
   8.73771000E+01    2.40001000E-01 
   2.56789000E+01    5.94797000E-01 
   3.74004000E+00    2.80802000E-01 
SP   3    1.000000
   4.21175000E+01    1.13889000E-01   3.65114000E-02 
   9.62837000E+00    9.20811000E-01   2.37153000E-01 
   2.85332000E+00   -3.27447000E-03   8.19702000E-01 
SP   1    1.000000
   9.05661000E-01    1.00000000E+00   1.00000000E+00 
SP   1    1.000000
   2.55611000E-01    1.00000000E+00   1.00000000E+00 
SP   1    1.000000
   8.45000000E-02    1.00000000E+00   1.00000000E+00 
D    1    1.000000
   1.29200000E+00    1.00000000E+00 

10    0
S    6    1.000000
   8.58850000E+03    1.89515000E-03 
   1.29723000E+03    1.43859000E-02 
   2.99296000E+02    7.07320000E-02 
   8.73771000E+01    2.40001000E-01 
   2.56789000E+01    5.94797000E-01 
   3.74004000E+00    2.80802000E-01 
SP   3    1.000000
   4.21175000E+01    1.13889000E-01   3.65114000E-02 
   9.62837000E+00    9.20811000E-01   2.37153000E-01 
   2.85332000E+00   -3.27447000E-03   8.19702000E-01 
SP   1    1.000000
   9.05661000E-01    1.00000000E+00   1.00000000E+00 
SP   1    1.000000
   2.55611000E-01    1.00000000E+00   1.00000000E+00 
SP   1    1.000000
   8.45000000E-02    1.00000000E+00   1.00000000E+00 
D    1    1.000000
   1.29200000E+00    1.00000000E+00 

11    0
S    6    1.000000
   4.56324000E+03    1.96665000E-03 
   6.82024000E+02    1.52306000E-02 
   1.54973000E+02    7.61269000E-02 
   4.44553000E+01    2.60801000E-01 
   1.30290000E+01    6.16462000E-01 
   1.82773000E+00    2.21006000E-01 
SP   3    1.000000
   2.09642000E+01    1.14660000E-01   4.02487000E-02 
   4.80331000E+00    9.19999000E-01   2.37594000E-01 
   1.45933000E+00   -3.03068000E-03   8.15854000E-01 
SP   1    1.000000
   4.83456000E-01    1.00000000E+00   1.00000000E+00 
SP   1    1.000000
   1.45585000E-01    1.00000000E+00   1.00000000E+00 
SP   1    1.000000
   4.38000000E-02    1.00000000E+00   1.00000000E+00 
D    1    1.000000
   6.26000000E-01    1.00000000E+00 

12    0
S    3    1.000000
   3.38650000E+01    2.54938000E-02 
   5.09479000E+00    1.90373000E-01 
   1.15879000E+00    8.52161000E-01 
S    1    1.000000
   3.25840000E-01    1.00000000E+00 
S    1    1.000000
   1.02741000E-01    1.00000000E+00 

13    0
S    6    1.000000
   4.56324000E+03    1.96665000E-03 
   6.82024000E+02    1.52306000E-02 
   1.54973000E+02    7.61269000E-02 
   4.44553000E+01    2.60801000E-01 
   1.30290000E+01    6.16462000E-01 
   1.82773000E+00    2.21006000E-01 
SP   3    1.000000
   2.09642000E+01    1.14660000E-01   4.02487000E-02 
   4.80331000E+00    9.19999000E-01   2.37594000E-01 
   1.45933000E+00   -3.03068000E-03   8.15854000E-01 
SP   1    1.000000
   4.83456000E-01    1.00000000E+00   1.00000000E+00 
SP   1    1.000000
   1.45585000E-01    1.00000000E+00   1.00000000E+00 
SP   1    1.000000
   4.38000000E-02    1.00000000E+00   1.00000000E+00 
D    1    1.000000
   6.26000000E-01    1.00000000E+00 

14    0
S    3    1.000000
   3.38650000E+01    2.54938000E-02 
   5.09479000E+00    1.90373000E-01 
   1.15879000E+00    8.52161000E-01 
S    1    1.000000
   3.25840000E-01    1.00000000E+00 
S    1    1.000000
   1.02741000E-01    1.00000000E+00 

15    0
S    6    1.000000
   4.39700000E+05    8.13000000E-04 
   6.60300000E+04    6.28500000E-03 
   1.51400000E+04    3.19200000E-02 
   4.31700000E+03    1.28800000E-01 
   1.41400000E+03    3.94600000E-01 
   5.23900000E+02    5.41300000E-01 
S    3    1.000000
   5.23900000E+02    1.83100000E-01 
   2.07700000E+02    6.17600000E-01 
   8.65400000E+01    2.53800000E-01 
S    1    1.000000
   3.05200000E+01    1.00000000E+00 
S    1    1.000000
   1.29800000E+01    1.00000000E+00 
S    1    1.000000
   4.41200000E+00    1.00000000E+00 
S    1    1.000000
   1.86200000E+00    1.00000000E+00 
S    1    1.000000
   3.93200000E-01    1.00000000E+00 
S    1    1.000000
   1.40000000E-01    1.00000000E+00 
P    3    1.000000
   2.95700000E+03    2.22600000E-02 
   7.00300000E+02    1.80200000E-01 
   2.24600000E+02    8.62400000E-01 
P    3    1.000000
   8.25900000E+01    3.44000000E-01 
   3.31900000E+01    5.07100000E-01 
   1.42000000E+01    2.59000000E-01 
P    3    1.000000
   1.42000000E+01    7.96500000E-02 
   7.43800000E+00    3.73400000E-01 
   3.52600000E+00    6.04900000E-01 
P    1    1.000000
   1.59500000E+00    1.00000000E+00 
P    1    1.000000
   8.46200000E-01    1.00000000E+00 
P    1    1.000000
   3.18600000E-01    1.00000000E+00 
P    1    1.000000
   1.09600000E-01    1.00000000E+00 
D    4    1.000000
   1.34800000E+02    1.83100000E-02 
   3.63900000E+01    1.35000000E-01 
   1.21600000E+01    4.26100000E-01 
   4.34100000E+00    6.04300000E-01 
D    1    1.000000
   1.53500000E+00    1.00000000E+00 
SP   1    1.000000
   3.90000000E-02    1.00000000E+00   1.00000000E+00 
D    1    1.000000
   4.15000000E-01    1.00000000E+00 

[MO]
Sym=X
Ene= -0.131290
Spin=Alpha
Occup=1
     1   -6.648234521430e-03
     2   -1.079381685755e-02
     3   -2.917000270464e-02
     4    2.047174846735e-02
     5    1.663741673743e-02
     6    3.125521679194e-02
     7   -4.641604010026e-02
     8    3.272856958094e-02
     9    2.708258221938e-02
    10    3.325894337607e-02
    11   -2.335473320590e-02
    12    2.540822618161e-02
    13    2.497397595217e-02
    14    4.441648407548e-01
    15    8.680533727458e-02
    16   -6.710991865975e-03
    17   -1.059262370125e-03
    18   -4.164091219024e-04
    19    9.631978026638e-04
    20   -9.006432393582e-05
    21   -6.483059147585e-03
    22   -8.343888714847e-04
    23    1.089388234052e-02
    24    1.707466373082e-02
    25    1.762027720144e-02
    26    3.443766832299e-02
    27    8.106944034285e-03
    28   -4.672117012679e-02
    29    2.650122202271e-02
    30    4.981930464639e-02
    31    1.265238873181e-02
    32   -1.296914311126e-02
    33    7.229499877058e-03
    34    1.871946034676e-02
    35    1.545980602486e-02
    36   -7.354650372608e-01
    37    1.079740771026e-01
    38    6.706602827582e-02
    39    6.689319001258e-04
    40   -4.735189417066e-05
    41   -3.544183052255e-03
    42    2.817379311479e-03
    43    4.622901697778e-03
    44   -2.052179065783e-03
    45   -7.170126145626e-03
    46   -1.152200795487e-02
    47    7.052981135874e-02
    48   -4.378952559344e-03
    49   -3.092958507021e-02
    50    3.479825357887e-02
    51    1.086767581906e-01
    52   -4.554122845756e-03
    53   -5.282769221934e-02
    54   -2.646675959414e-02
    55    7.628180067356e-02
    56    1.814724865685e-02
    57   -9.042954563382e-03
    58    2.267274072532e-01
    59   -1.404025894947e-01
    60    1.903921974596e-01
    61   -5.187291035753e-03
    62   -1.662397522532e-03
    63   -2.198731302591e-03
    64    9.422252545768e-03
    65    8.053084095395e-03
    66    2.950977288014e-03
    67    2.468906627614e-03
    68    3.940452227696e-03
    69    1.482016120454e-02
    70    3.939715375965e-03
    71    1.956232910448e-03
    72   -8.892007559235e-03
    73    2.460172241669e-02
    74    5.186457543195e-03
    75    2.492281002321e-03
    76   -9.281657335342e-03
    77    1.351577963652e-02
    78    1.510276770680e-03
    79    7.724577760654e-03
    80   -1.197108298965e-01
    81   -5.269694688470e-02
    82   -2.227842802335e-02
    83    4.756258893875e-03
    84    7.282230217337e-04
    85   -6.235281927449e-04
    86    4.229402663025e-03
    87   -5.294858026343e-03
    88   -1.748837020123e-03
    89    2.986914912764e-02
    90    3.249787862251e-02
    91   -3.893689155487e-03
    92    1.762618690722e-02
    93    2.114060828242e-02
    94    9.858545023811e-03
    95   -1.608188072818e-02
    96   -2.240853387674e-02
    97   -3.237020656450e-03
    98    2.382524027644e-02
    99    3.884168627008e-02
   100   -1.245759966433e-01
   101    2.035773137767e-03
   102   -6.624379619391e-02
   103   -1.280240131205e-01
   104   -1.970810240623e-01
   105    3.494036608032e-03
   106   -1.050906342050e-01
   107   -1.602852229843e-01
   108   -1.197769655468e-01
   109   -3.948059216876e-03
   110   -7.596220731287e-02
   111   -4.972049535000e-02
   112    8.448443370152e-03
   113   -5.716088947776e-02
   114    2.093796828183e-04
   115    1.561988293611e-03
   116   -7.467249939619e-04
   117    2.564579941286e-03
   118    9.332345969368e-04
   119   -1.751409089674e-04
   120   -3.075539445517e-02
   121   -4.998255779209e-02
   122    3.558627841123e-03
   123   -1.037281940973e-01
   124   -3.042842692577e-02
   125    1.476048757800e-01
   126    3.216157097728e-03
   127   -1.521400765714e-01
   128   -4.677069521955e-02
   129    2.053519793707e-01
   130   -7.151960871122e-03
   131   -7.517789570963e-02
   132   -3.545242355828e-02
   133    1.951197435960e-02
   134    2.039522130181e-04
   135    8.977636174283e-03
   136    2.211166754619e-03
   137    5.969676630714e-03
   138    3.248465694901e-03
   139   -3.634510944254e-03
   140    1.125706197419e-02
   141    2.724325824716e-03
   142   -2.591675121343e-02
   143   -4.208815488801e-02
   144   -4.461422079734e-04
   145    8.968936813905e-02
   146   -3.175344738863e-02
   147    1.235673083766e-01
   148   -2.314606630435e-03
   149    1.314207995055e-01
   150   -4.897299379037e-02
   151    1.803638191791e-01
   152   -1.262062476482e-02
   153    5.951565127858e-02
   154   -2.563475846578e-02
   155    8.640951820106e-02
   156   -4.168750582253e-03
   157   -1.864897313762e-02
   158    3.715778751429e-03
   159    3.928907653806e-03
   160    2.794930349019e-03
   161    5.761398208395e-03
   162    1.068248422102e-02
   163   -1.980355691190e-03
   164   -7.233057688108e-03
   165   -1.135445148820e-02
   166    7.251646506490e-03
   167   -1.215058110338e-04
   168   -3.208913750997e-02
   169    3.122064187526e-02
   170    7.015208585543e-03
   171   -1.234538781199e-03
   172   -5.405631651442e-02
   173    1.304450809870e-02
   174    5.840674051419e-03
   175   -8.961759581477e-03
   176   -2.306837528992e-02
   177    4.309274371646e-01
   178    1.293412210027e-01
   179   -1.778156422034e-02
   180   -1.228716135587e-02
   181    2.370282009313e-03
   182   -8.974856054779e-03
   183    1.925636824622e-03
   184   -2.080353446621e-03
   185    7.832305157612e-04
   186    2.483408946280e-03
   187   -6.676374425035e-04
   188   -9.496307852437e-03
   189    9.844820020182e-03
   190    1.602627275973e-02
   191   -2.301478381743e-02
   192    5.492913515183e-03
   193   -9.387396705408e-02
   194   -5.142897695602e-02
   195   -3.695489857508e-02
   196    8.402393909723e-03
   197   -1.567680920180e-01
   198    2.222354962593e-02
   199   -2.348306722770e-02
   200    3.848974620357e-02
   201   -1.450002326957e-01
   202   -2.522711386697e-01
   203    1.865427308095e-01
   204    4.810862082986e-02
   205    6.433039405223e-03
   206    4.269663459026e-03
   207   -2.897041472069e-03
   208    7.329211505406e-03
   209    9.098337896348e-03
   210    6.961853486837e-03
   211   -6.452232341733e-02
   212   -7.212920818571e-02
   213    9.798690838778e-03
   214    2.966709421582e-03
   215    9.600439905729e-03
   216   -2.591084293307e-02
   217   -3.212205469890e-02
   218    6.412653247414e-02
   219    7.901718853909e-02
   220   -1.534804064630e-01
   221   -1.152054523509e-01
   222   -6.830920332959e-04
   223    1.818068707097e-03
   224    3.975372557078e-03
   225   -5.642156221299e-03
   226    1.499914661947e-02
   227    3.279494628885e-02
   228    1.474277984283e-02
   229   -3.895125101573e-02
   230   -8.522718524461e-02
   231    5.298591190933e-03
   232   -1.476280020159e-02
   233   -3.305155929066e-02
   234   -1.134290432551e-02
   235    3.125218930332e-02
   236    7.085144472994e-02
   237   -2.949141064105e-02
   238    7.328737201216e-02
   239    1.595691964350e-01
   240   -2.537897594565e-03
   241    1.338301941846e-02
   242    4.892194692258e-02
   243   -5.211355766396e-03
   244    2.897094657649e-03
   245   -8.182057971977e-03
   246    1.384104462456e-03
   247    1.245441956764e-03
   248   -1.300033675166e-04
   249    2.576646671241e-04
   250   -7.559575260602e-04
   251    2.687913402382e-05
   252    2.308715778772e-05
   253    4.470854304340e-03
   254    5.500361488682e-03
   255   -1.558580215568e-03
   256    2.949491260538e-03
   257    9.247092313990e-03
   258   -6.055806746112e-03
   259    1.348258717312e-02
   260   -4.657952430956e-04
   261   -1.713126785098e-03
Sym=X
Ene= -0.295504
Spin=Alpha
Occup=1
     1    2.281963725336e-05
     2    5.701248667931e-05
     3    9.358631731665e-03
     4   -3.000377749236e-03
     5   -4.413161595983e-02
     6   -6.364813200597e-04
     7    1.384141673290e-02
     8   -4.708917036255e-03
     9   -7.345946850833e-02
    10    4.918307723342e-03
    11    9.236607573134e-03
    12   -1.714612689693e-02
    13   -5.542258700718e-02
    14    8.938851992021e-02
    15   -4.409777561500e-04
    16   -2.755303689317e-02
    17    7.279503223128e-03
    18   -8.917357883243e-04
    19    1.623105642476e-02
    20    1.305499824655e-02
    21    2.751008546759e-03
    22    2.130811620785e-03
    23   -1.317756272781e-04
    24   -2.690563054457e-04
    25   -1.015816224513e-02
    26    4.134195403922e-03
    27    7.847958507452e-02
    28    1.472215683969e-03
    29   -1.375601554951e-02
    30    5.603648685184e-03
    31    1.299782718985e-01
    32   -2.039141800846e-02
    33   -1.970053616653e-02
    34    1.037839868927e-02
    35    1.098330176724e-01
    36   -4.161434543270e-01
    37   -5.877540901786e-02
    38    6.510611913749e-02
    39   -8.593417838177e-03
    40    2.165629228713e-04
    41    9.563285198540e-03
    42   -1.079916307213e-02
    43    1.202699987366e-03
    44    1.852962838470e-04
    45    3.542230356113e-03
    46    5.847409173381e-03
    47    7.574846093587e-03
    48    3.967116807090e-03
    49    1.035894887581e-01
    50   -1.986177521383e-02
    51    1.079804975829e-02
    52    6.056368538314e-03
    53    1.738477716416e-01
    54   -4.570408005952e-03
    55    1.337634428375e-02
    56    3.008967416469e-02
    57    1.431320384327e-01
    58    1.667130802823e-01
    59   -9.500698459743e-03
    60    2.546786578411e-01
    61    3.860744420263e-03
    62    1.020508635773e-03
    63   -3.980575246216e-03
    64    8.516715442751e-03
    65    4.644477947131e-03
    66    2.102837546912e-03
    67    2.530225558059e-03
    68    4.031001343420e-03
    69   -1.602062337962e-02
    70    7.552696456500e-03
    71   -1.236923286631e-01
    72   -1.181082446633e-02
    73   -2.434396670133e-02
    74    9.972887177338e-03
    75   -2.040556901448e-01
    76   -2.461880215280e-02
    77   -2.944742428574e-02
    78    5.807976466793e-03
    79   -1.776061256912e-01
    80   -1.612774109394e-01
    81   -2.485608990096e-02
    82    2.507140130578e-03
    83   -7.482996753702e-03
    84   -7.280677858738e-04
    85   -9.188235850415e-03
    86    4.391847859073e-03
    87    3.764724748420e-03
    88   -3.762437441771e-04
    89   -7.080500561889e-03
    90   -8.030626461269e-03
    91   -1.390048630533e-04
    92   -1.370282463776e-03
    93   -1.467254367126e-03
    94    4.082029937250e-03
    95    1.233665030869e-02
    96    1.687839220231e-02
    97    7.029426223651e-03
    98   -8.248825117856e-04
    99   -1.304041166632e-03
   100   -9.120603606273e-03
   101    9.708277813626e-04
   102   -3.855368200250e-03
   103    3.322061922620e-03
   104   -1.385358058682e-02
   105    1.723172968993e-03
   106   -4.147368955652e-03
   107    5.901713912593e-03
   108    7.219321444654e-04
   109   -1.334412479850e-03
   110   -1.143588114430e-02
   111    3.782237138872e-02
   112    2.481845027668e-03
   113   -9.485966607638e-02
   114   -2.209462223660e-02
   115    2.289947363892e-03
   116   -1.135555539071e-02
   117   -1.273754267140e-02
   118    4.367098102297e-03
   119   -3.058661861948e-03
   120    6.316849281401e-04
   121    1.031988465769e-03
   122    2.344889256068e-02
   123    9.824756011780e-03
   124    2.779443685051e-02
   125   -3.321595948593e-03
   126    3.446245768634e-02
   127    1.427875008883e-02
   128    4.151742889353e-02
   129   -5.041525617316e-03
   130    3.465001698925e-02
   131    1.426439359671e-02
   132    3.992590955920e-02
   133   -7.092082887096e-02
   134    6.626226263189e-03
   135   -1.106703638349e-02
   136    1.161585377323e-02
   137    3.742104293351e-04
   138   -1.466645286104e-03
   139    1.783843978294e-03
   140   -1.121741562369e-03
   141    1.007007005286e-03
   142    2.122956801405e-04
   143    3.319992697234e-04
   144    7.054571862857e-04
   145    4.208126751439e-03
   146   -8.369764233496e-02
   147   -1.214611986775e-03
   148    6.768865674799e-04
   149    5.968782673884e-03
   150   -1.246482667223e-01
   151   -5.410155019759e-03
   152    1.370189403324e-03
   153    5.652666734068e-03
   154   -1.168791106859e-01
   155    4.267029537882e-02
   156   -4.365885032371e-03
   157   -4.155022108827e-03
   158    5.297362791397e-04
   159   -3.735637894801e-04
   160    3.099989354381e-03
   161    5.858099443361e-03
   162    4.106312909256e-04
   163    1.702249457548e-04
   164   -6.701915810752e-03
   165   -1.108728372455e-02
   166    2.778853964465e-02
   167   -1.568341675086e-02
   168   -8.770982411119e-02
   169    3.835756196466e-02
   170    4.191849698086e-02
   171   -2.480239461261e-02
   172   -1.465240563873e-01
   173    3.711209461757e-02
   174    2.366540219463e-02
   175    5.097316013757e-03
   176   -1.053311883814e-01
   177    1.482316087899e-02
   178   -2.732931986703e-02
   179    3.850261216198e-02
   180    3.649139646809e-03
   181   -3.146770346456e-03
   182    8.998982274143e-03
   183   -1.635834646867e-02
   184    3.848698095259e-03
   185    3.080051092200e-03
   186    4.213626872032e-03
   187    1.069837721493e-02
   188    1.437787094267e-02
   189   -1.228483234650e-03
   190   -1.874933618585e-03
   191   -3.133225506937e-02
   192    7.429099970741e-03
   193    5.073738259231e-03
   194    5.616029615943e-03
   195   -4.913490296629e-02
   196    1.251733070915e-02
   197    9.328522706342e-03
   198    1.789937081413e-02
   199   -1.329983108621e-02
   200    1.307680551683e-02
   201    3.882460381169e-03
   202    2.776350378110e-01
   203    8.592151348818e-03
   204    1.783336201834e-02
   205    8.568725167814e-03
   206   -2.449677322376e-03
   207    5.047009310288e-03
   208    8.268783502203e-03
   209    6.611367437873e-03
   210   -2.038887475191e-03
   211   -1.501153975636e-02
   212   -2.819495926654e-02
   213   -1.002534238126e-02
   214   -3.197526796779e-04
   215   -1.036626339723e-03
   216    2.816783230147e-03
   217    3.389696742802e-03
   218   -6.676886261162e-03
   219   -9.181725438120e-03
   220    2.067086395746e-02
   221    6.929747678376e-03
   222    8.451085323373e-03
   223    1.655781733842e-03
   224   -1.324079244347e-04
   225    6.978516409258e-02
   226    1.366968158314e-02
   227   -1.096243140025e-03
   228   -1.825852777348e-01
   229   -3.577713886925e-02
   230    2.832271031012e-03
   231   -6.742458943041e-02
   232   -1.346889725544e-02
   233    7.382065222992e-04
   234    1.504387376534e-01
   235    3.016847529728e-02
   236   -1.301151374919e-03
   237    3.636196243730e-01
   238    7.066636887248e-02
   239   -5.479815910292e-03
   240    2.141026324335e-01
   241    4.624393293997e-02
   242   -4.135623042806e-03
   243    8.215308793409e-04
   244    2.070717362344e-03
   245    9.846116686375e-04
   246   -2.110154879609e-03
   247    1.605287956742e-03
   248    2.149053181409e-04
   249    8.540326648136e-05
   250    1.256704523724e-04
   251   -7.951990042813e-05
   252    1.656593721881e-04
   253    3.230669757550e-03
   254   -9.012621566096e-03
   255   -3.246094104466e-03
   256    8.294813361206e-04
   257   -1.470399284531e-03
   258    1.622006534314e-03
   259   -8.709016983367e-04
   260    1.855177749542e-03
   261   -1.204427827828e-03
Sym=X
Ene= -0.345642
Spin=Alpha
Occup=1
     1    4.123489747515e-03
     2    6.671865636725e-03
     3    8.004137172034e-02
     4   -1.103521558841e-02
     5   -1.280823900640e-02
     6   -1.819571884124e-02
     7    1.186785215549e-01
     8   -2.054568956865e-02
     9   -2.118780803455e-02
    10   -2.734843307553e-02
    11    8.141738588622e-02
    12   -3.601196945841e-02
    13   -1.714615356744e-02
    14    2.278217180473e-01
    15    9.928025865831e-02
    16    2.998770777517e-02
    17    4.446580476185e-03
    18   -1.935923879636e-04
    19   -2.287057396238e-03
    20    1.748328728232e-04
    21    2.009811110747e-02
    22    1.328660021198e-02
    23   -2.251181308430e-03
    24   -3.573162541252e-03
    25   -8.557880421686e-02
    26    2.852825927247e-02
    27   -1.632206635537e-02
    28    1.065894013206e-02
    29   -1.206907474520e-01
    30    3.581254365897e-02
    31   -2.687028296025e-02
    32    1.521472255990e-02
    33   -6.644884012071e-02
    34    1.670423912131e-02
    35   -2.456190087094e-02
    36    2.333731596635e-01
    37    2.040661347099e-01
    38   -9.409200830837e-02
    39   -4.492898755287e-03
    40   -5.518311380153e-05
    41    1.231247430247e-03
    42    4.640791008768e-04
    43    4.998036462877e-03
    44    4.897523670601e-03
    45    9.289386320197e-03
    46    1.501084671492e-02
    47    1.374391510196e-02
    48   -4.866859327114e-02
    49    1.160336529335e-04
    50   -4.079049677533e-02
    51    1.755920981142e-02
    52   -7.124072876085e-02
    53   -2.747353730957e-04
    54   -7.565318652045e-02
    55   -5.724351309322e-03
    56   -4.369379636531e-02
    57   -1.328445092598e-03
    58    1.089678509603e-01
    59   -1.253567456702e-02
    60   -3.832974077994e-01
    61    1.701140544865e-02
    62   -1.993185490539e-03
    63    4.633878839003e-04
    64   -4.544218430687e-03
    65    2.188810824466e-02
    66    7.837382591585e-03
    67    2.003346573159e-03
    68    2.904328957883e-03
    69   -1.159366233501e-01
    70    4.261379826544e-02
    71    1.368992054123e-03
    72   -1.179408009835e-02
    73   -1.787050492757e-01
    74    6.012086585823e-02
    75    2.039528660702e-03
    76    5.854539689554e-02
    77   -1.495065443343e-01
    78    2.713173890559e-02
    79    6.427124116414e-03
    80   -1.618077765194e-01
    81   -3.981423558977e-02
    82    7.051814037507e-02
    83   -1.141698363035e-02
    84   -1.732576045339e-03
    85   -2.854396665811e-04
    86   -1.710596466770e-03
    87    2.929717869185e-02
    88    2.537932253287e-03
    89   -5.309048966747e-02
    90   -7.082692488192e-02
    91   -1.383106359999e-02
    92   -8.688766225887e-03
    93   -6.736779970909e-03
    94   -1.295227772995e-03
    95    1.050400723128e-01
    96    1.317040711614e-01
    97    2.179730427897e-02
    98   -5.308842129183e-03
    99   -8.561738507086e-03
   100   -5.276667000262e-02
   101    9.391590221870e-03
   102   -4.340004892237e-03
   103    2.574119420374e-02
   104   -7.828108837008e-02
   105    1.429976907642e-02
   106   -6.874968878071e-03
   107    2.281595362088e-02
   108   -8.680622993886e-02
   109    9.813771407258e-03
   110   -6.388803326560e-03
   111   -1.313832982108e-01
   112   -3.370906486746e-02
   113    6.973688337541e-02
   114   -3.944715263620e-03
   115    9.258351758889e-04
   116   -3.216320320338e-05
   117    2.298137443897e-03
   118   -7.748155846840e-03
   119    7.459916591851e-04
   120   -7.494522041751e-03
   121   -1.223170437694e-02
   122   -8.529010177231e-03
   123   -3.114464342704e-02
   124   -9.704822886763e-03
   125    3.688753297267e-02
   126   -1.191164828864e-02
   127   -4.604673178395e-02
   128   -1.454698848808e-02
   129    5.464598015056e-02
   130   -1.448769477987e-02
   131   -2.213089329130e-02
   132   -1.529167731863e-02
   133    1.110409705807e-01
   134   -6.410545780768e-03
   135    2.341777266358e-02
   136   -4.371630273471e-03
   137    1.641390900336e-03
   138    5.147938597509e-04
   139   -4.449433390723e-04
   140    3.493616619258e-03
   141   -8.421563638903e-04
   142   -2.000358300910e-03
   143   -3.210586185829e-03
   144   -4.237663898543e-02
   145    2.875512503553e-02
   146    9.113282112147e-03
   147    8.914283853240e-03
   148   -6.302812903989e-02
   149    4.322094258291e-02
   150    1.350912658221e-02
   151    2.290046775603e-02
   152   -5.377772482848e-02
   153    2.580768997882e-02