[Molden Format]
[Atoms] (Angs)
  C      1    6      0.51932475      1.23303451     -0.03194925
  C      2    6      1.94454413      1.26916358     -0.03672882
  C      3    6      2.62037793      0.09283428     -0.02499003
  C      4    6     -0.19603352      0.03013062      0.00102732
  H      5    1     -0.02069420      2.17423764     -0.04336646
  H      6    1      2.48281698      2.20891057     -0.03611879
  H      7    1     -1.27770137      0.03990295      0.01166953
  N      8    7      4.09213475      0.09594076      0.03662979
  O      9    8      4.63930696     -1.02169275      0.14459220
  O     10    8      4.66489883      1.19839699     -0.02327545
  C     11    6      0.49428518     -1.16712649      0.02099746
  H     12    1     -0.03251071     -2.11492669      0.05447935
  C     13    6      1.96291176     -1.21653219     -0.02111314
  H     14    1      2.44359113     -1.96306433      0.61513886
 Br     15   35      2.17304025     -1.94912156     -1.90618750
[GTO]
1    0
S    6    1.000000
   4.56324000E+03    1.96665000E-03 
   6.82024000E+02    1.52306000E-02 
   1.54973000E+02    7.61269000E-02 
   4.44553000E+01    2.60801000E-01 
   1.30290000E+01    6.16462000E-01 
   1.82773000E+00    2.21006000E-01 
SP   3    1.000000
   2.09642000E+01    1.14660000E-01   4.02487000E-02 
   4.80331000E+00    9.19999000E-01   2.37594000E-01 
   1.45933000E+00   -3.03068000E-03   8.15854000E-01 
SP   1    1.000000
   4.83456000E-01    1.00000000E+00   1.00000000E+00 
SP   1    1.000000
   1.45585000E-01    1.00000000E+00   1.00000000E+00 
SP   1    1.000000
   4.38000000E-02    1.00000000E+00   1.00000000E+00 
D    1    1.000000
   6.26000000E-01    1.00000000E+00 

2    0
S    6    1.000000
   4.56324000E+03    1.96665000E-03 
   6.82024000E+02    1.52306000E-02 
   1.54973000E+02    7.61269000E-02 
   4.44553000E+01    2.60801000E-01 
   1.30290000E+01    6.16462000E-01 
   1.82773000E+00    2.21006000E-01 
SP   3    1.000000
   2.09642000E+01    1.14660000E-01   4.02487000E-02 
   4.80331000E+00    9.19999000E-01   2.37594000E-01 
   1.45933000E+00   -3.03068000E-03   8.15854000E-01 
SP   1    1.000000
   4.83456000E-01    1.00000000E+00   1.00000000E+00 
SP   1    1.000000
   1.45585000E-01    1.00000000E+00   1.00000000E+00 
SP   1    1.000000
   4.38000000E-02    1.00000000E+00   1.00000000E+00 
D    1    1.000000
   6.26000000E-01    1.00000000E+00 

3    0
S    6    1.000000
   4.56324000E+03    1.96665000E-03 
   6.82024000E+02    1.52306000E-02 
   1.54973000E+02    7.61269000E-02 
   4.44553000E+01    2.60801000E-01 
   1.30290000E+01    6.16462000E-01 
   1.82773000E+00    2.21006000E-01 
SP   3    1.000000
   2.09642000E+01    1.14660000E-01   4.02487000E-02 
   4.80331000E+00    9.19999000E-01   2.37594000E-01 
   1.45933000E+00   -3.03068000E-03   8.15854000E-01 
SP   1    1.000000
   4.83456000E-01    1.00000000E+00   1.00000000E+00 
SP   1    1.000000
   1.45585000E-01    1.00000000E+00   1.00000000E+00 
SP   1    1.000000
   4.38000000E-02    1.00000000E+00   1.00000000E+00 
D    1    1.000000
   6.26000000E-01    1.00000000E+00 

4    0
S    6    1.000000
   4.56324000E+03    1.96665000E-03 
   6.82024000E+02    1.52306000E-02 
   1.54973000E+02    7.61269000E-02 
   4.44553000E+01    2.60801000E-01 
   1.30290000E+01    6.16462000E-01 
   1.82773000E+00    2.21006000E-01 
SP   3    1.000000
   2.09642000E+01    1.14660000E-01   4.02487000E-02 
   4.80331000E+00    9.19999000E-01   2.37594000E-01 
   1.45933000E+00   -3.03068000E-03   8.15854000E-01 
SP   1    1.000000
   4.83456000E-01    1.00000000E+00   1.00000000E+00 
SP   1    1.000000
   1.45585000E-01    1.00000000E+00   1.00000000E+00 
SP   1    1.000000
   4.38000000E-02    1.00000000E+00   1.00000000E+00 
D    1    1.000000
   6.26000000E-01    1.00000000E+00 

5    0
S    3    1.000000
   3.38650000E+01    2.54938000E-02 
   5.09479000E+00    1.90373000E-01 
   1.15879000E+00    8.52161000E-01 
S    1    1.000000
   3.25840000E-01    1.00000000E+00 
S    1    1.000000
   1.02741000E-01    1.00000000E+00 

6    0
S    3    1.000000
   3.38650000E+01    2.54938000E-02 
   5.09479000E+00    1.90373000E-01 
   1.15879000E+00    8.52161000E-01 
S    1    1.000000
   3.25840000E-01    1.00000000E+00 
S    1    1.000000
   1.02741000E-01    1.00000000E+00 

7    0
S    3    1.000000
   3.38650000E+01    2.54938000E-02 
   5.09479000E+00    1.90373000E-01 
   1.15879000E+00    8.52161000E-01 
S    1    1.000000
   3.25840000E-01    1.00000000E+00 
S    1    1.000000
   1.02741000E-01    1.00000000E+00 

8    0
S    6    1.000000
   6.29348000E+03    1.96979000E-03 
   9.49044000E+02    1.49613000E-02 
   2.18776000E+02    7.35006000E-02 
   6.36916000E+01    2.48937000E-01 
   1.88282000E+01    6.02460000E-01 
   2.72023000E+00    2.56202000E-01 
SP   3    1.000000
   3.06331000E+01    1.11906000E-01   3.83119000E-02 
   7.02614000E+00    9.21666000E-01   2.37403000E-01 
   2.11205000E+00   -2.56919000E-03   8.17592000E-01 
SP   1    1.000000
   6.84009000E-01    1.00000000E+00   1.00000000E+00 
SP   1    1.000000
   2.00878000E-01    1.00000000E+00   1.00000000E+00 
SP   1    1.000000
   6.39000000E-02    1.00000000E+00   1.00000000E+00 
D    1    1.000000
   9.13000000E-01    1.00000000E+00 

9    0
S    6    1.000000
   8.58850000E+03    1.89515000E-03 
   1.29723000E+03    1.43859000E-02 
   2.99296000E+02    7.07320000E-02 
   8.73771000E+01    2.40001000E-01 
   2.56789000E+01    5.94797000E-01 
   3.74004000E+00    2.80802000E-01 
SP   3    1.000000
   4.21175000E+01    1.13889000E-01   3.65114000E-02 
   9.62837000E+00    9.20811000E-01   2.37153000E-01 
   2.85332000E+00   -3.27447000E-03   8.19702000E-01 
SP   1    1.000000
   9.05661000E-01    1.00000000E+00   1.00000000E+00 
SP   1    1.000000
   2.55611000E-01    1.00000000E+00   1.00000000E+00 
SP   1    1.000000
   8.45000000E-02    1.00000000E+00   1.00000000E+00 
D    1    1.000000
   1.29200000E+00    1.00000000E+00 

10    0
S    6    1.000000
   8.58850000E+03    1.89515000E-03 
   1.29723000E+03    1.43859000E-02 
   2.99296000E+02    7.07320000E-02 
   8.73771000E+01    2.40001000E-01 
   2.56789000E+01    5.94797000E-01 
   3.74004000E+00    2.80802000E-01 
SP   3    1.000000
   4.21175000E+01    1.13889000E-01   3.65114000E-02 
   9.62837000E+00    9.20811000E-01   2.37153000E-01 
   2.85332000E+00   -3.27447000E-03   8.19702000E-01 
SP   1    1.000000
   9.05661000E-01    1.00000000E+00   1.00000000E+00 
SP   1    1.000000
   2.55611000E-01    1.00000000E+00   1.00000000E+00 
SP   1    1.000000
   8.45000000E-02    1.00000000E+00   1.00000000E+00 
D    1    1.000000
   1.29200000E+00    1.00000000E+00 

11    0
S    6    1.000000
   4.56324000E+03    1.96665000E-03 
   6.82024000E+02    1.52306000E-02 
   1.54973000E+02    7.61269000E-02 
   4.44553000E+01    2.60801000E-01 
   1.30290000E+01    6.16462000E-01 
   1.82773000E+00    2.21006000E-01 
SP   3    1.000000
   2.09642000E+01    1.14660000E-01   4.02487000E-02 
   4.80331000E+00    9.19999000E-01   2.37594000E-01 
   1.45933000E+00   -3.03068000E-03   8.15854000E-01 
SP   1    1.000000
   4.83456000E-01    1.00000000E+00   1.00000000E+00 
SP   1    1.000000
   1.45585000E-01    1.00000000E+00   1.00000000E+00 
SP   1    1.000000
   4.38000000E-02    1.00000000E+00   1.00000000E+00 
D    1    1.000000
   6.26000000E-01    1.00000000E+00 

12    0
S    3    1.000000
   3.38650000E+01    2.54938000E-02 
   5.09479000E+00    1.90373000E-01 
   1.15879000E+00    8.52161000E-01 
S    1    1.000000
   3.25840000E-01    1.00000000E+00 
S    1    1.000000
   1.02741000E-01    1.00000000E+00 

13    0
S    6    1.000000
   4.56324000E+03    1.96665000E-03 
   6.82024000E+02    1.52306000E-02 
   1.54973000E+02    7.61269000E-02 
   4.44553000E+01    2.60801000E-01 
   1.30290000E+01    6.16462000E-01 
   1.82773000E+00    2.21006000E-01 
SP   3    1.000000
   2.09642000E+01    1.14660000E-01   4.02487000E-02 
   4.80331000E+00    9.19999000E-01   2.37594000E-01 
   1.45933000E+00   -3.03068000E-03   8.15854000E-01 
SP   1    1.000000
   4.83456000E-01    1.00000000E+00   1.00000000E+00 
SP   1    1.000000
   1.45585000E-01    1.00000000E+00   1.00000000E+00 
SP   1    1.000000
   4.38000000E-02    1.00000000E+00   1.00000000E+00 
D    1    1.000000
   6.26000000E-01    1.00000000E+00 

14    0
S    3    1.000000
   3.38650000E+01    2.54938000E-02 
   5.09479000E+00    1.90373000E-01 
   1.15879000E+00    8.52161000E-01 
S    1    1.000000
   3.25840000E-01    1.00000000E+00 
S    1    1.000000
   1.02741000E-01    1.00000000E+00 

15    0
S    6    1.000000
   4.39700000E+05    8.13000000E-04 
   6.60300000E+04    6.28500000E-03 
   1.51400000E+04    3.19200000E-02 
   4.31700000E+03    1.28800000E-01 
   1.41400000E+03    3.94600000E-01 
   5.23900000E+02    5.41300000E-01 
S    3    1.000000
   5.23900000E+02    1.83100000E-01 
   2.07700000E+02    6.17600000E-01 
   8.65400000E+01    2.53800000E-01 
S    1    1.000000
   3.05200000E+01    1.00000000E+00 
S    1    1.000000
   1.29800000E+01    1.00000000E+00 
S    1    1.000000
   4.41200000E+00    1.00000000E+00 
S    1    1.000000
   1.86200000E+00    1.00000000E+00 
S    1    1.000000
   3.93200000E-01    1.00000000E+00 
S    1    1.000000
   1.40000000E-01    1.00000000E+00 
P    3    1.000000
   2.95700000E+03    2.22600000E-02 
   7.00300000E+02    1.80200000E-01 
   2.24600000E+02    8.62400000E-01 
P    3    1.000000
   8.25900000E+01    3.44000000E-01 
   3.31900000E+01    5.07100000E-01 
   1.42000000E+01    2.59000000E-01 
P    3    1.000000
   1.42000000E+01    7.96500000E-02 
   7.43800000E+00    3.73400000E-01 
   3.52600000E+00    6.04900000E-01 
P    1    1.000000
   1.59500000E+00    1.00000000E+00 
P    1    1.000000
   8.46200000E-01    1.00000000E+00 
P    1    1.000000
   3.18600000E-01    1.00000000E+00 
P    1    1.000000
   1.09600000E-01    1.00000000E+00 
D    4    1.000000
   1.34800000E+02    1.83100000E-02 
   3.63900000E+01    1.35000000E-01 
   1.21600000E+01    4.26100000E-01 
   4.34100000E+00    6.04300000E-01 
D    1    1.000000
   1.53500000E+00    1.00000000E+00 
SP   1    1.000000
   3.90000000E-02    1.00000000E+00   1.00000000E+00 
D    1    1.000000
   4.15000000E-01    1.00000000E+00 

[MO]
Sym=X
Ene= -0.184771
Spin=Alpha
Occup=1
     1    9.506773297723e-06
     2   -8.557724642949e-05
     3   -4.360199170762e-03
     4    5.350790756769e-04
     5   -1.557468606190e-03
     6    2.000886711318e-03
     7   -6.286260374339e-03
     8    2.942786773493e-04
     9   -3.133469648142e-03
    10   -2.446604066670e-02
    11   -1.166902022534e-02
    12    1.618340438764e-02
    13    4.404040543440e-03
    14   -2.570131558772e-02
    15    5.946835658742e-02
    16    5.572839350727e-02
    17   -3.340142657509e-03
    18    1.044302943245e-03
    19   -1.732772609340e-02
    20   -7.586890610971e-03
    21   -2.501708961646e-03
    22   -1.003921179100e-03
    23    4.380735749761e-04
    24    6.369351512569e-04
    25    6.069387473616e-03
    26    2.836216878149e-03
    27   -1.090834616368e-01
    28   -1.597145590941e-03
    29    8.489430136732e-03
    30    3.497799389749e-03
    31   -1.789042877793e-01
    32    3.688776901587e-02
    33    2.372314054146e-04
    34   -8.564405586193e-03
    35   -1.470542837857e-01
    36    3.411511038401e-01
    37    1.398324032311e-01
    38   -7.500912010827e-02
    39    1.579913359251e-02
    40   -1.084465437739e-04
    41   -5.392674169905e-03
    42    1.270800924482e-02
    43   -2.175225236185e-04
    44    9.225824959300e-05
    45   -4.469539177521e-03
    46   -7.465752710174e-03
    47    6.772447251848e-03
    48   -6.272802907825e-03
    49   -1.135643562684e-01
    50    2.473205975792e-02
    51    1.332560306886e-02
    52   -8.575528674974e-03
    53   -1.884851485415e-01
    54    2.710855604163e-02
    55    4.249781202401e-02
    56   -3.153086630976e-02
    57   -1.583059650040e-01
    58    1.987988769683e-01
    59   -3.531917756942e-02
    60   -4.201529760412e-01
    61   -3.257632062779e-02
    62   -4.198931451451e-04
    63    7.517708426717e-03
    64   -1.527527021525e-02
    65   -2.583542053518e-03
    66   -1.303430212780e-03
    67   -1.456455068169e-03
    68   -2.357405728014e-03
    69    1.704771580708e-02
    70   -8.366730904697e-03
    71    7.655876218052e-02
    72    7.724730952217e-03
    73    2.661561589398e-02
    74   -1.165819426971e-02
    75    1.266198985107e-01
    76    3.050716544415e-02
    77    3.524481466381e-02
    78   -7.134173156374e-03
    79    1.207949852863e-01
    80    1.507476068736e-01
    81    2.160796111771e-02
    82    4.697142343180e-02
    83   -1.492037018159e-03
    84    1.388605225193e-03
    85    3.882952988320e-03
    86   -5.840452799249e-03
    87   -3.230422796113e-03
    88    1.853348177065e-04
    89    3.106119132684e-03
    90    2.794418656905e-03
    91   -2.646800878987e-03
    92    3.065324115965e-03
    93    4.268593444814e-03
    94    1.252833723558e-04
    95   -1.403624532746e-02
    96   -1.722373217555e-02
    97   -7.604300716212e-03
    98    1.220274142455e-03
    99    1.897114058094e-03
   100   -2.168489479766e-04
   101    2.105132686489e-03
   102    1.604999995660e-02
   103   -4.130635838340e-03
   104   -1.387041642920e-03
   105    3.102396758477e-03
   106    2.277253454786e-02
   107   -2.331609430642e-02
   108    1.268943189351e-02
   109    8.021101935233e-03
   110    2.907212122041e-02
   111   -1.230329704810e-01
   112    2.816283465609e-02
   113    1.028618061771e-01
   114    4.453310973703e-02
   115    1.082110522265e-03
   116    1.288108841097e-02
   117   -5.170016514993e-03
   118    3.118735285235e-03
   119    2.593515412501e-03
   120   -1.255140951578e-03
   121   -2.080589549261e-03
   122    1.523998727086e-03
   123   -5.539123001720e-04
   124    5.491144614253e-02
   125    6.381245292767e-03
   126    2.464752931795e-03
   127   -1.799585620316e-04
   128    8.108696199642e-02
   129    9.949510757386e-03
   130   -3.636596212408e-03
   131    3.812140318803e-04
   132    7.443570301384e-02
   133    7.716933098690e-02
   134   -1.036554514639e-02
   135    1.334308338018e-02
   136   -1.029507593017e-02
   137   -1.002934361223e-03
   138   -2.777570854772e-03
   139    4.143154500639e-03
   140   -1.228937058507e-04
   141   -2.226106815416e-04
   142    3.014873836048e-05
   143    4.511526490803e-05
   144    1.648042803144e-02
   145   -6.883657295028e-03
   146    2.152746643640e-02
   147   -1.055982807902e-04
   148    2.443956893744e-02
   149   -1.011308987211e-02
   150    3.285208061092e-02
   151   -3.255593235278e-04
   152    2.166407100747e-02
   153   -9.375764109636e-03
   154    2.614149975432e-02
   155   -3.399446196156e-02
   156    1.096171606557e-03
   157    3.519791160071e-03
   158   -1.462100588028e-02
   159    2.683742906574e-04
   160   -3.665149384338e-04
   161   -2.342451100722e-03
   162   -9.260057025813e-04
   163   -6.901704426004e-04
   164    6.057134001906e-03
   165    1.011143281477e-02
   166   -2.328046693493e-02
   167    1.579271813765e-02
   168    5.845324925962e-02
   169   -3.628798508845e-02
   170   -3.673105728075e-02
   171    2.474953980345e-02
   172    9.999970957206e-02
   173   -6.291129119317e-02
   174   -2.941158780651e-02
   175   -1.601951223038e-02
   176    6.335866587479e-02
   177    9.378591149450e-02
   178    5.997325669152e-03
   179   -3.308146315654e-03
   180    6.021077433627e-03
   181    4.298455967682e-03
   182   -5.751692261865e-03
   183    1.010279811864e-02
   184   -3.102012253782e-03
   185   -3.665353196399e-03
   186   -6.551803046753e-03
   187   -1.719179682318e-02
   188   -1.783615630124e-02
   189    5.426417022901e-05
   190    8.130208883369e-05
   191    2.857202004678e-02
   192   -1.098377465980e-02
   193    1.074474626792e-02
   194   -1.392835611656e-03
   195    4.705464733882e-02
   196   -1.878833810757e-02
   197    1.705556971528e-02
   198   -6.559177743850e-03
   199   -2.140255025907e-02
   200    1.242912523049e-02
   201    1.996581358649e-02
   202   -6.529321589022e-01
   203   -5.280474238573e-02
   204   -1.029230472323e-01
   205   -1.505164599670e-02
   206    2.553612669216e-03
   207    1.033807474895e-03
   208   -1.428059220093e-02
   209   -4.952346425683e-03
   210    2.603722010762e-03
   211    2.869667842767e-02
   212    5.798840067293e-02
   213    4.540956351556e-02
   214    3.098101018673e-04
   215    1.004110675853e-03
   216   -2.725094166421e-03
   217   -3.288712647165e-03
   218    6.453859244893e-03
   219    8.752205093995e-03
   220   -1.848003907012e-02
   221   -1.666570268996e-03
   222   -9.852033469429e-03
   223    2.225966848802e-04
   224   -2.041823030014e-03
   225   -8.134429067097e-02
   226    1.840290554066e-03
   227   -1.684950917002e-02
   228    2.127017350845e-01
   229   -4.789893193602e-03
   230    4.396634363834e-02
   231    7.887610359569e-02
   232   -1.337225812912e-03
   233    1.691756917841e-02
   234   -1.754701793582e-01
   235    2.623824563395e-03
   236   -3.730254011233e-02
   237   -4.200632843630e-01
   238    1.087107697877e-02
   239   -8.521237743268e-02
   240   -2.495677695709e-01
   241   -6.023594605336e-03
   242   -4.126911230659e-02
   243    1.968734798656e-03
   244   -3.525051131927e-04
   245    1.711999680704e-04
   246    2.254154633557e-03
   247   -5.941029513506e-04
   248    4.053096509124e-05
   249    3.095094746074e-04
   250    2.018139399047e-04
   251    2.476342705345e-04
   252    1.857406628087e-04
   253   -2.681779642388e-02
   254    7.275684418918e-03
   255   -4.120328871901e-03
   256   -5.921823392007e-03
   257   -3.821711207720e-03
   258   -4.207046786042e-03
   259   -1.195226764888e-03
   260   -2.611258205261e-03
   261   -2.143919044382e-03
Sym=X
Ene= -0.274318
Spin=Alpha
Occup=1
     1    8.598549791271e-04
     2    1.487199694070e-03
     3   -2.371848444486e-02
     4   -3.148637952256e-03
     5   -6.590197810801e-02
     6   -6.608582693219e-03
     7   -3.511044110480e-02
     8   -3.854894404953e-03
     9   -1.100086594740e-01
    10    4.159835927461e-02
    11    3.139709581960e-03
    12    1.925507941501e-02
    13   -7.829888309227e-02
    14    2.128890597020e-01
    15    3.505298524939e-02
    16   -4.159382213279e-02
    17    1.930059478162e-03
    18   -7.199649745120e-04
    19   -7.930026406263e-03
    20    3.642057178940e-03
    21   -1.557593928265e-03
    22   -3.784132507574e-03
    23    2.377203292583e-04
    24    5.790427420661e-04
    25    1.801600526009e-02
    26   -2.361586591154e-02
    27   -7.924072712521e-02
    28   -3.872901153833e-03
    29    2.301177000998e-02
    30   -3.357576035741e-02
    31   -1.306842195877e-01
    32    3.271644224709e-03
    33    9.177790834828e-02
    34   -4.257916110191e-02
    35   -8.963619681725e-02
    36   -4.867499778597e-01
    37   -2.633761925703e-02
    38    7.030071744395e-02
    39   -1.807799921391e-03
    40   -2.720087778671e-04
    41    4.631751740518e-03
    42    7.060520487741e-03
    43   -3.960582691739e-03
    44    3.276379062367e-03
    45    1.529319617552e-02
    46    2.548713918435e-02
    47   -7.607163512636e-02
    48    7.013918314852e-03
    49   -5.918101727514e-02
    50   -8.082582574308e-02
    51   -1.317891451622e-01
    52    1.319903250189e-02
    53   -9.335199437635e-02
    54   -2.853669680836e-01
    55   -1.551866489381e-01
    56   -2.235202485321e-02
    57   -9.801040035069e-02
    58   -1.294513097134e-01
    59    5.582681251614e-02
    60    2.888692332568e-01
    61   -4.224958334251e-03
    62    1.556065183157e-03
    63    4.502436865636e-03
    64   -1.115827216177e-02
    65   -1.047724260190e-02
    66    4.084860607828e-04
    67    3.849084088841e-03
    68    6.226732305598e-03
    69    2.612724750834e-03
    70    1.104962955687e-02
    71   -2.953126482936e-02
    72   -1.973960220508e-02
    73    4.364792751241e-03
    74    1.503263867853e-02
    75   -4.730260314014e-02
    76    8.368808103832e-03
    77    1.634276989664e-02
    78    1.170268718233e-02
    79   -4.279325475687e-02
    80   -2.187544522940e-01
    81   -1.862099996385e-02
    82    3.643240833337e-02
    83    2.413016007581e-03
    84   -5.619269036002e-04
    85   -4.157057348829e-03
    86   -7.305412265256e-03
    87   -3.552438844923e-03
    88   -6.975739562789e-05
    89    9.785960386641e-03
    90    1.030537816530e-02
    91   -8.748139738643e-04
    92   -4.148054428959e-04
    93    3.957783807203e-04
    94    1.341565078415e-02
    95   -7.128572464093e-03
    96   -8.728003932922e-03
    97    6.577907958318e-03
    98    3.808540580342e-04
    99    7.025171326928e-04
   100    4.310213837690e-02
   101   -2.347324667426e-03
   102    1.966798369180e-02
   103   -2.110502901653e-03
   104    7.103460816147e-02
   105   -4.814254817788e-03
   106    3.010208697708e-02
   107    2.392862764155e-03
   108   -7.007985637086e-02
   109    1.869235103053e-02
   110    2.608101537767e-02
   111    1.760280528602e-02
   112   -1.593871187921e-01
   113   -1.019651720213e-01
   114    2.164149731761e-02
   115   -2.180543175881e-03
   116    5.118611289737e-03
   117   -7.695092479197e-03
   118   -4.195517421380e-02
   119   -3.451277924421e-03
   120    2.100038399584e-03
   121    3.574199779170e-03
   122   -1.353135161782e-01
   123    5.198886110730e-03
   124    2.868339592237e-02
   125   -1.060962219142e-02
   126   -1.982799223330e-01
   127    5.903508027476e-03
   128    4.334266094481e-02
   129    1.780466245093e-02
   130   -1.811213789755e-01
   131    1.455752009426e-02
   132    3.631796469437e-02
   133   -3.270679288409e-03
   134    1.903088144187e-02
   135    6.416622679721e-03
   136   -4.041650664755e-03
   137   -2.278288505613e-03
   138   -8.604097001258e-04
   139    3.001902224954e-03
   140    3.606069651944e-03
   141   -6.630489889120e-03
   142    1.494035942052e-03
   143    2.538635381068e-03
   144   -1.586567501957e-01
   145    3.087236318053e-02
   146   -2.735125963887e-03
   147   -7.162553757469e-03
   148   -2.326245558655e-01
   149    4.716024190107e-02
   150   -3.423559929078e-03
   151    2.119068462339e-03
   152   -2.117864368729e-01
   153    3.745599289228e-02
   154   -7.317407041362e-03
   155    1.246178850287e-01
   156    8.520281836635e-03
   157   -2.713146336079e-02
   158   -6.990918199376e-03
   159   -1.562650975465e-03
   160   -4.301696792340e-04
   161   -7.657941977330e-04
   162    6.775522774074e-03
   163    6.780923957430e-03
   164   -5.821853807713e-03
   165   -9.602342937977e-03
   166   -3.168068063971e-03
   167   -1.809296903895e-02
   168    1.753205499630e-02
   169    3.262733546222e-02
   170   -4.199801509063e-03
   171   -2.910792782152e-02
   172    2.945578153822e-02
   173    3.551770359921e-02
   174   -6.462190287798e-03
   175   -3.477882546340e-02
   176    3.483567765077e-02
   177   -6.474920604756e-02
   178   -9.213980204272e-02
   179    4.678493678609e-02
   180    3.439912619155e-03
   181   -2.959292858776e-03
   182    6.322815429846e-03
   183   -7.526730060074e-03
   184   -1.825058588559e-03
   185    7.673213183583e-03
   186    2.333229047539e-02
   187    3.005763672318e-02
   188    2.598866814292e-03
   189   -9.843774504956e-04
   190   -1.435055207025e-03
   191    2.406671869547e-03
   192    2.019325377627e-02
   193    3.024761103900e-02
   194    2.492027590369e-03
   195   -1.377948102606e-03
   196    3.123089507002e-02
   197    5.318069514673e-02
   198   -5.937199585512e-03
   199    4.525715830961e-02
   200    4.803092720430e-02
   201    4.431898766147e-02
   202    5.850539287628e-01
   203   -3.784047868965e-02
   204    4.989929974341e-02
   205    5.279239953967e-03
   206   -3.642487845661e-03
   207   -7.136116493160e-03
   208   -1.301386924748e-02
   209    5.601527482728e-04
   210   -4.933824558721e-03
   211    1.402567252442e-02
   212    2.337325026619e-02
   213    1.512893731402e-02
   214   -5.405614855414e-04
   215   -1.749140583776e-03
   216    4.721122348472e-03
   217    5.921121140848e-03
   218   -1.198610190818e-02
   219   -1.448347741517e-02
   220    3.226402934935e-02
   221    1.423650887136e-02
   222    4.724583864138e-03
   223    2.115048915412e-03
   224   -3.183960075396e-03
   225    3.901646278445e-02
   226    1.745409034970e-02
   227   -2.628512364553e-02
   228   -1.019610564920e-01
   229   -4.559373381685e-02
   230    6.849278010883e-02
   231   -3.666958008607e-02
   232   -1.730310303381e-02
   233    2.520236835442e-02
   234    8.062910233898e-02
   235    3.847294953408e-02
   236   -5.420226403885e-02
   237    2.036854087432e-01
   238    8.767610208287e-02
   239   -1.365075178333e-01
   240    9.930892457521e-02
   241    5.577428362214e-02
   242   -5.484860606167e-02
   243    5.207642206948e-03
   244   -4.259633612607e-03
   245    1.234512338708e-03
   246    1.639833293837e-03
   247   -9.366973255849e-04
   248    5.708486513580e-04
   249   -8.174936694693e-04
   250    7.687291780315e-05
   251    4.345083589848e-04
   252    1.915481558504e-05
   253    3.637064549460e-02
   254   -7.587372837687e-04
   255    1.091076522303e-02
   256    1.085775866467e-02
   257   -1.085402095316e-02
   258    1.122629249932e-02
   259   -3.194924141043e-03
   260   -4.152492766155e-03
   261    2.794837841475e-03
Sym=X
Ene= -0.380134
Spin=Alpha
Occup=1
     1    1.056301879206e-03
     2    1.643262493497e-03
     3   -2.491914407961e-02
     4   -1.668463582635e-03
     5   -9.893945271239e-03
     6   -4.248609071245e-03
     7   -3.684926958189e-02
     8   -2.133383275021e-03
     9   -1.684562322764e-02
    10   -1.968284683322e-02
    11   -4.144449462930e-02
    12    1.537244708645e-03
    13   -7.400154565049e-03
    14    5.311554491070e-02
    15   -8.263975650591e-02
    16   -6.814620998192e-02
    17    1.401148308942e-02
    18   -4.110997885798e-04
    19    1.199453782427e-02
    20    8.458862096077e-03
    21   -3.708086807446e-03
    22   -1.777204818333e-03
    23   -1.621461005509e-03
    24   -2.636446243293e-03
    25    2.353968534241e-02
    26   -7.319418829425e-04
    27    6.259118858188e-02
    28    6.822030987909e-03
    29    3.481465931910e-02
    30    3.506210946088e-04
    31    1.064420560749e-01
    32    2.555720909609e-02
    33    3.686637223634e-03
    34    4.302260104220e-03
    35    7.082358654309e-02
    36    3.360628060120e-01
    37   -4.999341376395e-02
    38    3.069602187285e-02
    39   -1.843518365692e-04
    40    3.791813568384e-04
    41    4.015901653026e-03
    42   -7.908183178572e-03
    43   -5.455122886593e-03
    44    3.580506597529e-03
    45    4.469857327187e-03
    46    7.357398260691e-03
    47   -3.931980403606e-02
    48   -4.289208123744e-03
    49    7.785249961707e-02
    50   -2.076551906228e-02
    51   -6.933794866162e-02
    52   -4.917666761200e-03
    53    1.259302846377e-01
    54   -1.077675324831e-01
    55   -3.979894617456e-02
    56    3.254319562988e-02
    57    1.233395118414e-01
    58    5.328400159988e-01
    59    2.275630624050e-02
    60   -3.545939256440e-01
    61   -1.024994276695e-02
    62    8.062584992456e-04
    63   -2.987977455978e-03
    64    2.025600700333e-03
    65   -9.470209525936e-03
    66   -1.584679322311e-03
    67    7.907039239543e-04
    68    1.254474472392e-03
    69    1.903530296115e-02
    70   -1.948219443009e-03
    71   -7.902702758338e-02
    72   -1.395458358807e-03
    73    2.858763088062e-02
    74   -1.826139268240e-03
    75   -1.313017148484e-01
    76   -7.134467544752e-03
    77    2.273300351685e-02
    78   -1.266305785317e-02
    79   -9.281568768982e-02
    80   -1.682663317458e-01
    81   -2.912720925823e-02
    82   -8.311119407744e-02
    83   -2.110049378340e-02
    84    9.515959559040e-04
    85   -6.528973288797e-03
    86    7.298842698443e-03
    87   -6.705593479769e-03
    88    8.030264391736e-04
    89    9.997860394251e-03
    90    1.426743726943e-02
    91    3.040665099087e-04
    92    1.323035775091e-02
    93    1.940365284323e-02
    94   -1.033437123052e-03
    95   -2.026719921549e-02
    96   -2.688453571250e-02
    97   -1.158194748606e-02
    98    1.775120552440e-03
    99    2.886285517627e-03
   100    2.611786647177e-02
   101    4.665181573293e-03
   102   -1.808386993782e-02
   103   -8.125666001660e-03
   104    4.174469981435e-02
   105    1.001266451675e-02
   106   -2.810529360599e-02
   107   -2.864186737594e-02
   108   -1.905059349277e-02
   109   -3.947305077433e-02
   110   -3.031252012581e-02
   111   -2.990105332278e-01
   112   -3.776701074008e-02
   113    1.449548921159e-01
   114   -1.278941526337e-02
   115   -3.886064543994e-04
   116   -1.146611675853e-02
   117   -2.191133532035e-02
   118   -1.663318551330e-02
   119    1.350727783111e-02
   120    1.669884984955e-04
   121    2.787873782315e-04
   122   -1.161751560778e-01
   123   -4.182253567471e-02
   124    5.517610164668e-02
   125   -7.732180522819e-04
   126   -1.708867437460e-01
   127   -6.180456866472e-02
   128    8.057095598039e-02
   129   -1.265291995779e-02
   130   -1.578683020431e-01
   131   -5.742100731783e-02
   132    8.371113998664e-02
   133    1.792667839328e-01
   134   -1.540590215618e-02
   135    4.621426672823e-02
   136    6.044173215707e-03
   137   -1.653997785523e-03
   138   -2.251894469112e-03
   139    2.604844836859e-03
   140    6.227268778871e-03
   141   -4.692321426608e-03
   142   -7.561876789849e-05
   143   -5.746969698306e-05
   144   -1.809848083467e-02
   145   -4.381015755983e-02
   146   -1.077685660883e-01
   147    1.225588021294e-03
   148   -2.535147012956e-02
   149   -6.346082297886e-02
   150   -1.604956196369e-01
   151    2.881527952615e-02
   152   -2.689045998428e-02
   153   -6.798108552779e-02