[Molden Format]
[Atoms] (Angs)
  C      1    6      0.51932475      1.23303451     -0.03194925
  C      2    6      1.94454413      1.26916358     -0.03672882
  C      3    6      2.62037793      0.09283428     -0.02499003
  C      4    6     -0.19603352      0.03013062      0.00102732
  H      5    1     -0.02069420      2.17423764     -0.04336646
  H      6    1      2.48281698      2.20891057     -0.03611879
  H      7    1     -1.27770137      0.03990295      0.01166953
  N      8    7      4.09213475      0.09594076      0.03662979
  O      9    8      4.63930696     -1.02169275      0.14459220
  O     10    8      4.66489883      1.19839699     -0.02327545
  C     11    6      0.49428518     -1.16712649      0.02099746
  H     12    1     -0.03251071     -2.11492669      0.05447935
  C     13    6      1.96291176     -1.21653219     -0.02111314
  H     14    1      2.44359113     -1.96306433      0.61513886
 Br     15   35      2.17304025     -1.94912156     -1.90618750
[GTO]
1    0
S    6    1.000000
   4.56324000E+03    1.96665000E-03 
   6.82024000E+02    1.52306000E-02 
   1.54973000E+02    7.61269000E-02 
   4.44553000E+01    2.60801000E-01 
   1.30290000E+01    6.16462000E-01 
   1.82773000E+00    2.21006000E-01 
SP   3    1.000000
   2.09642000E+01    1.14660000E-01   4.02487000E-02 
   4.80331000E+00    9.19999000E-01   2.37594000E-01 
   1.45933000E+00   -3.03068000E-03   8.15854000E-01 
SP   1    1.000000
   4.83456000E-01    1.00000000E+00   1.00000000E+00 
SP   1    1.000000
   1.45585000E-01    1.00000000E+00   1.00000000E+00 
SP   1    1.000000
   4.38000000E-02    1.00000000E+00   1.00000000E+00 
D    1    1.000000
   6.26000000E-01    1.00000000E+00 

2    0
S    6    1.000000
   4.56324000E+03    1.96665000E-03 
   6.82024000E+02    1.52306000E-02 
   1.54973000E+02    7.61269000E-02 
   4.44553000E+01    2.60801000E-01 
   1.30290000E+01    6.16462000E-01 
   1.82773000E+00    2.21006000E-01 
SP   3    1.000000
   2.09642000E+01    1.14660000E-01   4.02487000E-02 
   4.80331000E+00    9.19999000E-01   2.37594000E-01 
   1.45933000E+00   -3.03068000E-03   8.15854000E-01 
SP   1    1.000000
   4.83456000E-01    1.00000000E+00   1.00000000E+00 
SP   1    1.000000
   1.45585000E-01    1.00000000E+00   1.00000000E+00 
SP   1    1.000000
   4.38000000E-02    1.00000000E+00   1.00000000E+00 
D    1    1.000000
   6.26000000E-01    1.00000000E+00 

3    0
S    6    1.000000
   4.56324000E+03    1.96665000E-03 
   6.82024000E+02    1.52306000E-02 
   1.54973000E+02    7.61269000E-02 
   4.44553000E+01    2.60801000E-01 
   1.30290000E+01    6.16462000E-01 
   1.82773000E+00    2.21006000E-01 
SP   3    1.000000
   2.09642000E+01    1.14660000E-01   4.02487000E-02 
   4.80331000E+00    9.19999000E-01   2.37594000E-01 
   1.45933000E+00   -3.03068000E-03   8.15854000E-01 
SP   1    1.000000
   4.83456000E-01    1.00000000E+00   1.00000000E+00 
SP   1    1.000000
   1.45585000E-01    1.00000000E+00   1.00000000E+00 
SP   1    1.000000
   4.38000000E-02    1.00000000E+00   1.00000000E+00 
D    1    1.000000
   6.26000000E-01    1.00000000E+00 

4    0
S    6    1.000000
   4.56324000E+03    1.96665000E-03 
   6.82024000E+02    1.52306000E-02 
   1.54973000E+02    7.61269000E-02 
   4.44553000E+01    2.60801000E-01 
   1.30290000E+01    6.16462000E-01 
   1.82773000E+00    2.21006000E-01 
SP   3    1.000000
   2.09642000E+01    1.14660000E-01   4.02487000E-02 
   4.80331000E+00    9.19999000E-01   2.37594000E-01 
   1.45933000E+00   -3.03068000E-03   8.15854000E-01 
SP   1    1.000000
   4.83456000E-01    1.00000000E+00   1.00000000E+00 
SP   1    1.000000
   1.45585000E-01    1.00000000E+00   1.00000000E+00 
SP   1    1.000000
   4.38000000E-02    1.00000000E+00   1.00000000E+00 
D    1    1.000000
   6.26000000E-01    1.00000000E+00 

5    0
S    3    1.000000
   3.38650000E+01    2.54938000E-02 
   5.09479000E+00    1.90373000E-01 
   1.15879000E+00    8.52161000E-01 
S    1    1.000000
   3.25840000E-01    1.00000000E+00 
S    1    1.000000
   1.02741000E-01    1.00000000E+00 

6    0
S    3    1.000000
   3.38650000E+01    2.54938000E-02 
   5.09479000E+00    1.90373000E-01 
   1.15879000E+00    8.52161000E-01 
S    1    1.000000
   3.25840000E-01    1.00000000E+00 
S    1    1.000000
   1.02741000E-01    1.00000000E+00 

7    0
S    3    1.000000
   3.38650000E+01    2.54938000E-02 
   5.09479000E+00    1.90373000E-01 
   1.15879000E+00    8.52161000E-01 
S    1    1.000000
   3.25840000E-01    1.00000000E+00 
S    1    1.000000
   1.02741000E-01    1.00000000E+00 

8    0
S    6    1.000000
   6.29348000E+03    1.96979000E-03 
   9.49044000E+02    1.49613000E-02 
   2.18776000E+02    7.35006000E-02 
   6.36916000E+01    2.48937000E-01 
   1.88282000E+01    6.02460000E-01 
   2.72023000E+00    2.56202000E-01 
SP   3    1.000000
   3.06331000E+01    1.11906000E-01   3.83119000E-02 
   7.02614000E+00    9.21666000E-01   2.37403000E-01 
   2.11205000E+00   -2.56919000E-03   8.17592000E-01 
SP   1    1.000000
   6.84009000E-01    1.00000000E+00   1.00000000E+00 
SP   1    1.000000
   2.00878000E-01    1.00000000E+00   1.00000000E+00 
SP   1    1.000000
   6.39000000E-02    1.00000000E+00   1.00000000E+00 
D    1    1.000000
   9.13000000E-01    1.00000000E+00 

9    0
S    6    1.000000
   8.58850000E+03    1.89515000E-03 
   1.29723000E+03    1.43859000E-02 
   2.99296000E+02    7.07320000E-02 
   8.73771000E+01    2.40001000E-01 
   2.56789000E+01    5.94797000E-01 
   3.74004000E+00    2.80802000E-01 
SP   3    1.000000
   4.21175000E+01    1.13889000E-01   3.65114000E-02 
   9.62837000E+00    9.20811000E-01   2.37153000E-01 
   2.85332000E+00   -3.27447000E-03   8.19702000E-01 
SP   1    1.000000
   9.05661000E-01    1.00000000E+00   1.00000000E+00 
SP   1    1.000000
   2.55611000E-01    1.00000000E+00   1.00000000E+00 
SP   1    1.000000
   8.45000000E-02    1.00000000E+00   1.00000000E+00 
D    1    1.000000
   1.29200000E+00    1.00000000E+00 

10    0
S    6    1.000000
   8.58850000E+03    1.89515000E-03 
   1.29723000E+03    1.43859000E-02 
   2.99296000E+02    7.07320000E-02 
   8.73771000E+01    2.40001000E-01 
   2.56789000E+01    5.94797000E-01 
   3.74004000E+00    2.80802000E-01 
SP   3    1.000000
   4.21175000E+01    1.13889000E-01   3.65114000E-02 
   9.62837000E+00    9.20811000E-01   2.37153000E-01 
   2.85332000E+00   -3.27447000E-03   8.19702000E-01 
SP   1    1.000000
   9.05661000E-01    1.00000000E+00   1.00000000E+00 
SP   1    1.000000
   2.55611000E-01    1.00000000E+00   1.00000000E+00 
SP   1    1.000000
   8.45000000E-02    1.00000000E+00   1.00000000E+00 
D    1    1.000000
   1.29200000E+00    1.00000000E+00 

11    0
S    6    1.000000
   4.56324000E+03    1.96665000E-03 
   6.82024000E+02    1.52306000E-02 
   1.54973000E+02    7.61269000E-02 
   4.44553000E+01    2.60801000E-01 
   1.30290000E+01    6.16462000E-01 
   1.82773000E+00    2.21006000E-01 
SP   3    1.000000
   2.09642000E+01    1.14660000E-01   4.02487000E-02 
   4.80331000E+00    9.19999000E-01   2.37594000E-01 
   1.45933000E+00   -3.03068000E-03   8.15854000E-01 
SP   1    1.000000
   4.83456000E-01    1.00000000E+00   1.00000000E+00 
SP   1    1.000000
   1.45585000E-01    1.00000000E+00   1.00000000E+00 
SP   1    1.000000
   4.38000000E-02    1.00000000E+00   1.00000000E+00 
D    1    1.000000
   6.26000000E-01    1.00000000E+00 

12    0
S    3    1.000000
   3.38650000E+01    2.54938000E-02 
   5.09479000E+00    1.90373000E-01 
   1.15879000E+00    8.52161000E-01 
S    1    1.000000
   3.25840000E-01    1.00000000E+00 
S    1    1.000000
   1.02741000E-01    1.00000000E+00 

13    0
S    6    1.000000
   4.56324000E+03    1.96665000E-03 
   6.82024000E+02    1.52306000E-02 
   1.54973000E+02    7.61269000E-02 
   4.44553000E+01    2.60801000E-01 
   1.30290000E+01    6.16462000E-01 
   1.82773000E+00    2.21006000E-01 
SP   3    1.000000
   2.09642000E+01    1.14660000E-01   4.02487000E-02 
   4.80331000E+00    9.19999000E-01   2.37594000E-01 
   1.45933000E+00   -3.03068000E-03   8.15854000E-01 
SP   1    1.000000
   4.83456000E-01    1.00000000E+00   1.00000000E+00 
SP   1    1.000000
   1.45585000E-01    1.00000000E+00   1.00000000E+00 
SP   1    1.000000
   4.38000000E-02    1.00000000E+00   1.00000000E+00 
D    1    1.000000
   6.26000000E-01    1.00000000E+00 

14    0
S    3    1.000000
   3.38650000E+01    2.54938000E-02 
   5.09479000E+00    1.90373000E-01 
   1.15879000E+00    8.52161000E-01 
S    1    1.000000
   3.25840000E-01    1.00000000E+00 
S    1    1.000000
   1.02741000E-01    1.00000000E+00 

15    0
S    6    1.000000
   4.39700000E+05    8.13000000E-04 
   6.60300000E+04    6.28500000E-03 
   1.51400000E+04    3.19200000E-02 
   4.31700000E+03    1.28800000E-01 
   1.41400000E+03    3.94600000E-01 
   5.23900000E+02    5.41300000E-01 
S    3    1.000000
   5.23900000E+02    1.83100000E-01 
   2.07700000E+02    6.17600000E-01 
   8.65400000E+01    2.53800000E-01 
S    1    1.000000
   3.05200000E+01    1.00000000E+00 
S    1    1.000000
   1.29800000E+01    1.00000000E+00 
S    1    1.000000
   4.41200000E+00    1.00000000E+00 
S    1    1.000000
   1.86200000E+00    1.00000000E+00 
S    1    1.000000
   3.93200000E-01    1.00000000E+00 
S    1    1.000000
   1.40000000E-01    1.00000000E+00 
P    3    1.000000
   2.95700000E+03    2.22600000E-02 
   7.00300000E+02    1.80200000E-01 
   2.24600000E+02    8.62400000E-01 
P    3    1.000000
   8.25900000E+01    3.44000000E-01 
   3.31900000E+01    5.07100000E-01 
   1.42000000E+01    2.59000000E-01 
P    3    1.000000
   1.42000000E+01    7.96500000E-02 
   7.43800000E+00    3.73400000E-01 
   3.52600000E+00    6.04900000E-01 
P    1    1.000000
   1.59500000E+00    1.00000000E+00 
P    1    1.000000
   8.46200000E-01    1.00000000E+00 
P    1    1.000000
   3.18600000E-01    1.00000000E+00 
P    1    1.000000
   1.09600000E-01    1.00000000E+00 
D    4    1.000000
   1.34800000E+02    1.83100000E-02 
   3.63900000E+01    1.35000000E-01 
   1.21600000E+01    4.26100000E-01 
   4.34100000E+00    6.04300000E-01 
D    1    1.000000
   1.53500000E+00    1.00000000E+00 
SP   1    1.000000
   3.90000000E-02    1.00000000E+00   1.00000000E+00 
D    1    1.000000
   4.15000000E-01    1.00000000E+00 

[MO]
Sym=X
Ene= -0.072468
Spin=Alpha
Occup=1
     1   -3.333815220396e-03
     2   -5.402577257332e-03
     3   -6.328171487220e-02
     4    1.561410875951e-02
     5    1.029153557239e-01
     6    1.300590384257e-02
     7   -9.458951960594e-02
     8    2.775180970438e-02
     9    1.716453499694e-01
    10    4.479252261565e-02
    11   -5.985728376197e-02
    12    1.653863050611e-02
    13    1.193017177292e-01
    14   -3.189620079320e-01
    15   -1.475445872731e-01
    16   -4.306112675709e-02
    17    3.121733255830e-03
    18   -3.272323229460e-04
    19    9.075805400692e-03
    20   -9.508553891299e-03
    21   -1.132094159306e-02
    22   -1.139038574527e-02
    23    2.033654880327e-03
    24    3.391202947133e-03
    25    6.236194904794e-02
    26   -4.529553275332e-02
    27    1.060390164324e-01
    28   -9.922804368088e-03
    29    8.930365755994e-02
    30   -6.201502722145e-02
    31    1.755713314670e-01
    32   -5.643663252650e-02
    33    4.090423018015e-02
    34   -1.301169467910e-02
    35    1.223232694928e-01
    36    1.800359780711e-01
    37   -2.244738223169e-01
    38    5.498399366575e-02
    39   -1.487664525791e-02
    40    6.009158743024e-04
    41   -7.859168555549e-03
    42   -1.077854736085e-02
    43   -3.998135889143e-03
    44   -8.592826051935e-03
    45   -1.173119464811e-02
    46   -1.870926641680e-02
    47   -1.469491661649e-02
    48    5.904028304560e-02
    49    7.827138382541e-02
    50    4.941642147943e-02
    51   -2.020854653315e-02
    52    8.461857167051e-02
    53    1.269815117553e-01
    54    1.297577228989e-01
    55   -4.630354450295e-02
    56    3.963246583688e-02
    57    9.531935578888e-02
    58   -5.199799666423e-03
    59    5.084342913520e-02
    60    1.658570829779e-01
    61    1.822474084255e-02
    62   -1.712029394406e-04
    63   -1.120482652590e-02
    64    9.644843633735e-03
    65   -7.328577513716e-03
    66   -5.919058890251e-03
    67    3.222232091006e-03
    68    5.312046296282e-03
    69    5.529139875656e-02
    70   -5.805461498346e-03
    71    7.581832107322e-02
    72   -1.307304951591e-02
    73    8.470051018132e-02
    74   -5.252433198745e-03
    75    1.251201355404e-01
    76   -7.893033556322e-02
    77    5.122083712834e-02
    78   -7.683366231169e-03
    79    8.340081346912e-02
    80    1.298125886654e-01
    81    3.520712075848e-02
    82   -9.928272056495e-02
    83    2.327401949074e-03
    84    5.354901736118e-04
    85    1.090880934975e-02
    86    4.381181820538e-03
    87   -1.527713358761e-02
    88   -1.601055786987e-03
    89    4.462554609394e-02
    90    6.016328878604e-02
    91    1.495338776926e-02
    92   -1.198640086832e-02
    93   -1.783570895141e-02
    94   -1.312616835908e-02
    95   -5.282054828831e-02
    96   -6.682985986193e-02
    97   -1.628175947048e-02
    98    2.944191814685e-03
    99    4.841573877798e-03
   100    2.264229422543e-02
   101   -1.769869574259e-02
   102   -3.482246892235e-02
   103   -1.612915927189e-02
   104    3.414719638795e-02
   105   -2.715591844354e-02
   106   -5.353079735435e-02
   107   -1.303784162720e-03
   108    3.587417826499e-02
   109   -2.959519425024e-02
   110   -4.804297251819e-02
   111   -6.151887119589e-03
   112    1.687268519349e-02
   113    2.496458312330e-02
   114   -3.987782431747e-02
   115   -4.984675462029e-04
   116   -9.805575012022e-03
   117   -4.495955156171e-03
   118    5.988881662925e-03
   119    2.742291515473e-03
   120    4.514817367103e-03
   121    7.297046434174e-03
   122   -2.194789757254e-02
   123    1.118560566272e-03
   124   -1.388791033801e-02
   125   -2.143051913313e-02
   126   -3.300039536342e-02
   127    1.527168835685e-03
   128   -2.126200505299e-02
   129   -4.626055963483e-02
   130   -2.596020479270e-02
   131   -1.302326143201e-02
   132   -1.056535611064e-02
   133    1.662417190891e-02
   134   -9.236593899190e-03
   135    6.533273781318e-03
   136    1.219785861218e-02
   137   -6.169943424950e-04
   138    1.327084680684e-03
   139   -2.848265724027e-03
   140    2.057783749442e-04
   141   -9.442922295880e-04
   142   -1.496918766768e-03
   143   -2.436598086927e-03
   144    5.910573692424e-02
   145   -2.747066969079e-02
   146   -5.338981060167e-02
   147    7.787949904413e-03
   148    8.788223870195e-02
   149   -4.106631305880e-02
   150   -8.030757167320e-02
   151    1.395211212578e-02
   152    7.468281115637e-02
   153   -3.810069875369e-02
   154   -6.743928815883e-02
   155   -3.992063188878e-02
   156    8.430198805504e-04
   157    1.247119784498e-02
   158    9.522375002798e-03
   159    1.807707700896e-04
   160    3.014902106121e-03
   161    5.295127476080e-03
   162   -4.849876947802e-03
   163   -3.476225207241e-03
   164   -5.745084585244e-03
   165   -9.403990195199e-03
   166   -3.058133099453e-02
   167    1.584190127406e-02
   168    4.878663152039e-02
   169    2.709178675118e-02
   170   -4.074882660016e-02
   171    2.090040270886e-02
   172    7.844109996139e-02
   173    8.737990414287e-02
   174   -5.365403195042e-03
   175    4.447495282137e-02
   176    4.780247401681e-02
   177   -1.328645758762e-01
   178    6.791651656626e-02
   179   -6.566675463415e-02
   180   -1.200762248962e-02
   181   -1.464491753211e-03
   182   -7.753092852063e-04
   183    9.293106532414e-03
   184   -7.945019936335e-03
   185    3.558470325354e-04
   186    8.342825738918e-03
   187    1.618950025058e-02
   188    1.286585740128e-02
   189    1.021418106986e-02
   190    1.594468802670e-02
   191    1.928095171603e-02
   192   -3.022970356513e-02
   193    2.913683887683e-02
   194   -4.057171839159e-02
   195    2.596244280448e-02
   196   -4.666847943225e-02
   197    4.414120277826e-02
   198   -9.238618873401e-02
   199    6.578852351163e-02
   200   -8.975904385326e-02
   201    4.889646025271e-02
   202    1.915558687977e-01
   203    9.199678864752e-02
   204    5.662573001556e-02
   205    9.227120473902e-03
   206    2.276185170577e-03
   207   -3.454467029341e-03
   208    8.418026989282e-03
   209   -3.340399768539e-03
   210   -6.876694190474e-03
   211    2.256367210161e-02
   212    1.021123343452e-02
   213   -4.225519878084e-02
   214   -2.708816392513e-03
   215   -8.768618698763e-03
   216    2.369108405788e-02
   217    2.917066074649e-02
   218   -5.790266615291e-02
   219   -7.276164113515e-02
   220    1.365743173228e-01
   221    1.001320827832e-01
   222    2.251863972542e-03
   223   -1.104764045779e-03
   224    7.437533626674e-04
   225    1.858242478329e-02
   226   -9.092660331613e-03
   227    6.166706624066e-03
   228   -4.839171995113e-02
   229    2.335333529925e-02
   230   -1.641989666456e-02
   231   -1.801078248378e-02
   232    9.654367179583e-03
   233   -4.810182415193e-03
   234    3.916249261017e-02
   235   -1.999600179517e-02
   236    1.126578887819e-02
   237    9.295567142329e-02
   238   -3.798187199864e-02
   239    4.224148187572e-02
   240    4.340340724663e-02
   241   -6.237639657380e-03
   242    3.006107517282e-02
   243   -2.572990929044e-03
   244   -2.520387543202e-03
   245    4.954733309143e-03
   246   -2.482125993102e-03
   247   -2.370464525242e-03
   248   -5.969104408801e-04
   249   -2.242692161722e-04
   250    5.937294379293e-04
   251   -5.266805131489e-04
   252   -6.533055367366e-04
   253   -2.624862946400e-02
   254    2.116563615781e-04
   255   -7.022370960436e-03
   256   -1.051577831408e-02
   257    4.127550149928e-03
   258    4.102181672452e-03
   259   -3.202752817550e-03
   260    1.750662217334e-03
   261    3.365658716369e-03
Sym=X
Ene= -0.152607
Spin=Alpha
Occup=1
     1   -4.021776702692e-04
     2   -6.015139073220e-04
     3    2.862131776041e-03
     4   -6.555849793560e-03
     5   -1.126142368904e-02
     6    1.545092538068e-03
     7    4.634550455970e-03
     8   -1.050730639967e-02
     9   -1.945912219275e-02
    10    2.184689616230e-02
    11    1.502979721813e-02
    12   -1.559811599862e-02
    13   -9.471267845287e-03
    14    3.751622909762e-01
    15    1.933282746024e-01
    16    5.995628956960e-02
    17    7.319810877918e-03
    18   -3.987837276742e-04
    19    1.290963525156e-02
    20    8.508610088730e-03
    21   -5.994972730239e-04
    22    2.244352069826e-03
    23    2.856223961207e-03
    24    4.554153816457e-03
    25   -5.981574824298e-03
    26    1.474348579791e-02
    27    6.852625584708e-02
    28   -1.255128669776e-02
    29   -1.053488899015e-02
    30    2.115173008182e-02
    31    1.165708775086e-01
    32   -5.305743173154e-02
    33    6.411105394181e-03
    34    3.013858435096e-02
    35    7.781469244591e-02
    36   -2.680260111414e-01
    37    2.760509308198e-01
    38   -4.687816590177e-02
    39    4.757976602507e-03
    40    1.103978242276e-04
    41    4.093985764935e-03
    42   -9.008823223795e-03
    43   -1.998273452583e-04
    44    3.554231825950e-03
    45   -2.572219067251e-03
    46   -4.218942263323e-03
    47   -4.854845687370e-03
    48   -2.731614297129e-02
    49    8.517283560709e-02
    50    1.377668763054e-02
    51   -9.545240699549e-03
    52   -4.553747313370e-02
    53    1.385353630541e-01
    54    4.436437699793e-02
    55   -1.011300934347e-02
    56    8.692335413454e-03
    57    1.327254016943e-01
    58    7.306357545366e-01
    59   -8.452957669344e-02
    60   -3.803041461900e-01
    61   -3.214478601327e-02
    62   -7.800001351124e-04
    63   -3.383643303076e-03
    64    3.397155060402e-03
    65   -2.241482677064e-03
    66    2.497205594710e-03
    67   -2.122796575348e-03
    68   -3.443427851377e-03
    69    4.671696206622e-03
    70   -4.240171393833e-03
    71   -8.097949673115e-02
    72    1.130864637716e-02
    73    5.875453763637e-03
    74   -7.659408201184e-03
    75   -1.347766434381e-01
    76   -1.279481658996e-02
    77   -1.265197375050e-03
    78    1.419788401642e-03
    79   -1.006484770679e-01
    80   -1.601272496085e-01
    81   -3.791552623949e-02
    82    1.342882915136e-01
    83   -1.919291568848e-02
    84    1.445932035134e-04
    85   -6.405229837064e-03
    86    6.909827513240e-03
    87   -1.948753217565e-03
    88    1.369208727350e-03
    89   -5.753902242943e-03
    90   -5.880256230276e-03
    91    1.463865930528e-03
    92    8.583741569037e-03
    93    1.160729277505e-02
    94    1.040769452259e-02
    95   -3.965510845168e-03
    96   -5.744814673468e-03
    97   -7.979141711518e-03
    98    6.345192205066e-04
    99    1.028884132955e-03
   100    1.959690096741e-03
   101   -7.413107258419e-03
   102   -1.796520844962e-02
   103   -3.216628161331e-03
   104    3.046040968943e-03
   105   -1.320289328246e-02
   106   -2.716865889455e-02
   107   -9.668827250803e-03
   108    1.691105631099e-03
   109    9.072116944697e-03
   110   -3.273005792226e-02
   111   -1.817853851389e-01
   112    2.193546308566e-02
   113   -3.039513766740e-02
   114   -7.219379994197e-03
   115    3.196598298406e-03
   116   -9.703615068359e-03
   117   -3.365733760765e-02
   118    2.392500521115e-03
   119   -1.135882128173e-02
   120   -8.810535968208e-04
   121   -1.442554937828e-03
   122    4.894015320070e-02
   123    5.124729143254e-02
   124    1.027152493240e-01
   125    5.628614026532e-03
   126    7.324335377295e-02
   127    7.510717505481e-02
   128    1.514998468308e-01
   129    1.150221625411e-02
   130    6.656591583366e-02
   131    7.223346778141e-02
   132    1.499457234787e-01
   133   -3.428810229968e-03
   134   -4.397968578519e-03
   135    1.545103841644e-03
   136    1.708387925471e-02
   137   -1.120595831860e-03
   138   -5.165750476630e-03
   139    5.487308927998e-03
   140   -4.700865136659e-03
   141    1.142230589104e-03
   142    2.168763503625e-04
   143    3.224469635136e-04
   144   -4.872308983224e-02
   145    3.251676498403e-02
   146   -1.668593925172e-01
   147   -1.680366910938e-03
   148   -7.269467817436e-02
   149    4.761869440537e-02
   150   -2.481237549203e-01
   151   -8.427687602652e-03
   152   -6.797237285447e-02
   153    4.178871153988e-02
   154   -2.303093681609e-01
   155    8.395854119374e-02
   156   -1.391686415933e-02
   157   -1.661311920672e-02
   158   -1.013696014404e-02
   159   -1.181147688630e-03
   160    7.292435090904e-03
   161    1.207552122848e-02
   162    3.422222892032e-03
   163    1.747410521885e-03
   164    6.457399953268e-03
   165    1.056537346178e-02
   166   -2.688269744429e-02
   167    3.076239832660e-05
   168   -9.045754328222e-02
   169   -3.644542904715e-02
   170   -4.143782291956e-02
   171    1.012756718498e-04
   172   -1.478797282288e-01
   173   -1.674600155012e-02
   174   -2.766689280253e-02
   175   -6.721141346230e-04
   176   -1.369003122128e-01
   177    3.373560725139e-01
   178   -6.038138569957e-02
   179    1.237034184509e-01
   180    6.254143096901e-03
   181    1.828058530165e-03
   182    1.559567452263e-03
   183   -6.525782753867e-03
   184   -1.413388088963e-03
   185    6.327373541075e-04
   186    4.153591045200e-03
   187    3.561630114011e-03
   188    1.146932189941e-02
   189   -2.671363247833e-03
   190   -4.403658031084e-03
   191    2.790637907941e-02
   192    1.355949024167e-02
   193   -8.462092862580e-03
   194    1.411419676888e-02
   195    4.832553470663e-02
   196    2.046008024952e-02
   197   -1.743061411842e-02
   198    2.748278526749e-02
   199    3.714001088485e-03
   200    4.546655022109e-03
   201   -2.873400033615e-03
   202   -9.292294344392e-01
   203   -1.429839446978e-01
   204   -2.355872801376e-01
   205    2.291499009224e-02
   206    8.409131033805e-04
   207    1.807698770843e-02
   208    1.044964878807e-02
   209   -5.827132672152e-03
   210    3.222853752579e-03
   211   -2.624556711825e-04
   212   -4.863345877797e-03
   213    1.346815201214e-02
   214    9.898915017700e-05
   215    3.183451665727e-04
   216   -8.405817338258e-04
   217   -1.186724436095e-03
   218    2.558620843326e-03
   219    2.126465548481e-03
   220   -5.515562327351e-03
   221    7.820103483380e-03
   222   -3.541509442962e-03
   223   -2.190198257877e-03
   224    1.392659149552e-03
   225   -2.923469897071e-02
   226   -1.807042053893e-02
   227    1.150347659106e-02
   228    7.625390227265e-02
   229    4.715959103039e-02
   230   -3.003219763538e-02
   231    2.792166134706e-02
   232    1.836106390588e-02
   233   -1.049277954237e-02
   234   -6.075258757789e-02
   235   -4.063148093023e-02
   236    2.250756792343e-02
   237   -1.479981704897e-01
   238   -8.878528883896e-02
   239    6.335746324493e-02
   240   -8.175933582836e-02
   241   -6.190441070154e-02
   242    2.145055871764e-02
   243   -1.953864970304e-03
   244    4.167099123693e-03
   245    3.869517435214e-05
   246   -2.449370081637e-03
   247    2.292077134187e-03
   248   -3.416865399893e-04
   249    8.794577464556e-04
   250    1.658909757877e-04
   251   -3.638010397170e-04
   252    4.610848079234e-04
   253   -2.033163784737e-02
   254   -2.470305929928e-04
   255   -9.086020931750e-03
   256   -5.061301984916e-03
   257    4.457551437748e-03
   258   -1.174839105497e-02
   259   -1.560907163257e-03
   260    4.952743093611e-03
   261   -6.392640510456e-03
Sym=X
Ene= -0.204447
Spin=Alpha
Occup=1
     1   -1.132949884356e-03
     2   -1.804922514014e-03
     3    1.495315270926e-02
     4   -2.614743961532e-04
     5   -6.108808944041e-03
     6    4.881213904430e-03
     7    2.271469278888e-02
     8   -8.514158713764e-04
     9   -1.112311501905e-02
    10    2.820390390538e-02
    11    3.517281539892e-02
    12    1.925786270528e-03
    13   -4.429527401804e-03
    14    2.996086473673e-01
    15    1.611045839734e-01
    16    3.349856299152e-02
    17    1.290772048993e-04
    18    2.184985360860e-04
    19   -6.933836652758e-03
    20   -3.594877597077e-03
    21    2.798600307704e-03
    22   -1.760656715253e-04
    23    3.398106605801e-04
    24    5.759923285533e-04
    25   -1.377551860683e-02
    26   -1.037183762417e-02
    27   -4.375831442820e-02
    28    3.091729655224e-04
    29   -2.185423272915e-02
    30   -1.611287666565e-02
    31   -7.087695217067e-02
    32   -3.480882021291e-02
    33    1.756266828218e-02
    34   -1.147508634569e-02
    35   -4.987949963932e-02
    36   -1.088560974556e+00
    37    1.008177471572e-01
    38    9.456655036753e-02
    39   -2.783881646637e-03
    40    3.121435582492e-04
    41   -2.304746917417e-03
    42    4.412888498393e-03
    43    4.403679844456e-03
    44   -2.013051498827e-03
    45    5.361297330361e-03
    46    8.910993720077e-03
    47    1.084707992108e-02
    48    1.849058293278e-02
    49   -5.041406553478e-02
    50   -3.323817692039e-02
    51    1.771386414545e-02
    52    2.782400093124e-02
    53   -7.828466227418e-02
    54    9.977858771660e-03
    55    1.222453244740e-03
    56   -1.795222073530e-02
    57   -9.293865312291e-02
    58    6.142887939758e-01
    59   -1.442439706876e-01
    60    3.083695856842e-01
    61   -3.732111485715e-02
    62    1.282581871556e-03
    63    2.185954004350e-03
    64   -5.595824888178e-03
    65    4.114914650305e-03
    66    7.643665608874e-04
    67    1.309039349033e-03
    68    2.110876818173e-03
    69   -1.339125399489e-02
    70    3.722008562672e-03
    71    3.380337378739e-02
    72   -7.777415655275e-03
    73   -1.983486636146e-02
    74    4.341869277879e-03
    75    5.747604081903e-02
    76   -4.252318693894e-03
    77   -1.254771995724e-02
    78    1.365142530860e-02
    79    2.900275547505e-02
    80   -1.020660688732e-01
    81   -1.326387183782e-02
    82    1.272174710518e-01
    83    5.310944736933e-03
    84   -7.773071897305e-04
    85    2.921687940731e-03
    86   -5.873760991587e-03
    87    3.606840768551e-03
    88   -3.947297463074e-04
    89   -5.716176048767e-03
    90   -8.096381041218e-03
    91   -1.496962146056e-03
    92   -1.324877879422e-02
    93   -1.954292934270e-02
    94    1.139048781184e-02
    95    1.202405862369e-02
    96    1.800212172030e-02
    97    7.201915312678e-03
    98   -1.384445329337e-03
    99   -2.266333983666e-03
   100   -7.397774771883e-03
   101   -7.372261906295e-03
   102    1.633427467462e-02
   103    7.458053027276e-03
   104   -1.139571962215e-02
   105   -1.432078415343e-02
   106    2.552777127121e-02
   107    6.902919098352e-03
   108    3.449139156359e-04
   109    4.265940901201e-02
   110    2.623234203621e-02
   111    1.022602392308e-01
   112   -1.327111564885e-03
   113   -1.964851317328e-01
   114    2.697626476708e-02
   115    6.172995838448e-03
   116    6.625905019147e-03
   117   -3.259893407761e-02
   118    3.281354468162e-03
   119   -1.420132090979e-02
   120    5.836156685424e-04
   121    1.007283284398e-03
   122    5.222263809119e-02
   123    6.006263181648e-02
   124    1.465329138919e-01
   125   -3.042258233291e-03
   126    7.715260383462e-02
   127    8.811805151898e-02
   128    2.183023614774e-01
   129    1.784703143323e-02
   130    7.110558734543e-02
   131    8.652513472792e-02
   132    2.027754331386e-01
   133   -1.550590321471e-01
   134    1.483022266097e-02
   135   -3.183440428897e-02
   136    1.204327320709e-02
   137   -1.478069139643e-03
   138   -6.693236914878e-03
   139    1.047172036099e-02
   140   -5.359984162601e-03
   141    7.088786610053e-04
   142    8.125371031203e-04
   143    1.277585349419e-03
   144   -4.004477059964e-02
   145    4.208121096868e-02
   146   -1.150420115488e-01
   147   -4.551728251020e-03
   148   -5.959522564209e-02
   149    6.147752408670e-02
   150   -1.701060394559e-01
   151   -2.815683966080e-02
   152   -5.241423523935e-02
   153    6.046608464098e-02