[Molden Format]
[Atoms] (Angs)
  C      1    6      0.51932475      1.23303451     -0.03194925
  C      2    6      1.94454413      1.26916358     -0.03672882
  C      3    6      2.62037793      0.09283428     -0.02499003
  C      4    6     -0.19603352      0.03013062      0.00102732
  H      5    1     -0.02069420      2.17423764     -0.04336646
  H      6    1      2.48281698      2.20891057     -0.03611879
  H      7    1     -1.27770137      0.03990295      0.01166953
  N      8    7      4.09213475      0.09594076      0.03662979
  O      9    8      4.63930696     -1.02169275      0.14459220
  O     10    8      4.66489883      1.19839699     -0.02327545
  C     11    6      0.49428518     -1.16712649      0.02099746
  H     12    1     -0.03251071     -2.11492669      0.05447935
  C     13    6      1.96291176     -1.21653219     -0.02111314
  H     14    1      2.44359113     -1.96306433      0.61513886
 Br     15   35      2.17304025     -1.94912156     -1.90618750
[GTO]
1    0
S    6    1.000000
   4.56324000E+03    1.96665000E-03 
   6.82024000E+02    1.52306000E-02 
   1.54973000E+02    7.61269000E-02 
   4.44553000E+01    2.60801000E-01 
   1.30290000E+01    6.16462000E-01 
   1.82773000E+00    2.21006000E-01 
SP   3    1.000000
   2.09642000E+01    1.14660000E-01   4.02487000E-02 
   4.80331000E+00    9.19999000E-01   2.37594000E-01 
   1.45933000E+00   -3.03068000E-03   8.15854000E-01 
SP   1    1.000000
   4.83456000E-01    1.00000000E+00   1.00000000E+00 
SP   1    1.000000
   1.45585000E-01    1.00000000E+00   1.00000000E+00 
SP   1    1.000000
   4.38000000E-02    1.00000000E+00   1.00000000E+00 
D    1    1.000000
   6.26000000E-01    1.00000000E+00 

2    0
S    6    1.000000
   4.56324000E+03    1.96665000E-03 
   6.82024000E+02    1.52306000E-02 
   1.54973000E+02    7.61269000E-02 
   4.44553000E+01    2.60801000E-01 
   1.30290000E+01    6.16462000E-01 
   1.82773000E+00    2.21006000E-01 
SP   3    1.000000
   2.09642000E+01    1.14660000E-01   4.02487000E-02 
   4.80331000E+00    9.19999000E-01   2.37594000E-01 
   1.45933000E+00   -3.03068000E-03   8.15854000E-01 
SP   1    1.000000
   4.83456000E-01    1.00000000E+00   1.00000000E+00 
SP   1    1.000000
   1.45585000E-01    1.00000000E+00   1.00000000E+00 
SP   1    1.000000
   4.38000000E-02    1.00000000E+00   1.00000000E+00 
D    1    1.000000
   6.26000000E-01    1.00000000E+00 

3    0
S    6    1.000000
   4.56324000E+03    1.96665000E-03 
   6.82024000E+02    1.52306000E-02 
   1.54973000E+02    7.61269000E-02 
   4.44553000E+01    2.60801000E-01 
   1.30290000E+01    6.16462000E-01 
   1.82773000E+00    2.21006000E-01 
SP   3    1.000000
   2.09642000E+01    1.14660000E-01   4.02487000E-02 
   4.80331000E+00    9.19999000E-01   2.37594000E-01 
   1.45933000E+00   -3.03068000E-03   8.15854000E-01 
SP   1    1.000000
   4.83456000E-01    1.00000000E+00   1.00000000E+00 
SP   1    1.000000
   1.45585000E-01    1.00000000E+00   1.00000000E+00 
SP   1    1.000000
   4.38000000E-02    1.00000000E+00   1.00000000E+00 
D    1    1.000000
   6.26000000E-01    1.00000000E+00 

4    0
S    6    1.000000
   4.56324000E+03    1.96665000E-03 
   6.82024000E+02    1.52306000E-02 
   1.54973000E+02    7.61269000E-02 
   4.44553000E+01    2.60801000E-01 
   1.30290000E+01    6.16462000E-01 
   1.82773000E+00    2.21006000E-01 
SP   3    1.000000
   2.09642000E+01    1.14660000E-01   4.02487000E-02 
   4.80331000E+00    9.19999000E-01   2.37594000E-01 
   1.45933000E+00   -3.03068000E-03   8.15854000E-01 
SP   1    1.000000
   4.83456000E-01    1.00000000E+00   1.00000000E+00 
SP   1    1.000000
   1.45585000E-01    1.00000000E+00   1.00000000E+00 
SP   1    1.000000
   4.38000000E-02    1.00000000E+00   1.00000000E+00 
D    1    1.000000
   6.26000000E-01    1.00000000E+00 

5    0
S    3    1.000000
   3.38650000E+01    2.54938000E-02 
   5.09479000E+00    1.90373000E-01 
   1.15879000E+00    8.52161000E-01 
S    1    1.000000
   3.25840000E-01    1.00000000E+00 
S    1    1.000000
   1.02741000E-01    1.00000000E+00 

6    0
S    3    1.000000
   3.38650000E+01    2.54938000E-02 
   5.09479000E+00    1.90373000E-01 
   1.15879000E+00    8.52161000E-01 
S    1    1.000000
   3.25840000E-01    1.00000000E+00 
S    1    1.000000
   1.02741000E-01    1.00000000E+00 

7    0
S    3    1.000000
   3.38650000E+01    2.54938000E-02 
   5.09479000E+00    1.90373000E-01 
   1.15879000E+00    8.52161000E-01 
S    1    1.000000
   3.25840000E-01    1.00000000E+00 
S    1    1.000000
   1.02741000E-01    1.00000000E+00 

8    0
S    6    1.000000
   6.29348000E+03    1.96979000E-03 
   9.49044000E+02    1.49613000E-02 
   2.18776000E+02    7.35006000E-02 
   6.36916000E+01    2.48937000E-01 
   1.88282000E+01    6.02460000E-01 
   2.72023000E+00    2.56202000E-01 
SP   3    1.000000
   3.06331000E+01    1.11906000E-01   3.83119000E-02 
   7.02614000E+00    9.21666000E-01   2.37403000E-01 
   2.11205000E+00   -2.56919000E-03   8.17592000E-01 
SP   1    1.000000
   6.84009000E-01    1.00000000E+00   1.00000000E+00 
SP   1    1.000000
   2.00878000E-01    1.00000000E+00   1.00000000E+00 
SP   1    1.000000
   6.39000000E-02    1.00000000E+00   1.00000000E+00 
D    1    1.000000
   9.13000000E-01    1.00000000E+00 

9    0
S    6    1.000000
   8.58850000E+03    1.89515000E-03 
   1.29723000E+03    1.43859000E-02 
   2.99296000E+02    7.07320000E-02 
   8.73771000E+01    2.40001000E-01 
   2.56789000E+01    5.94797000E-01 
   3.74004000E+00    2.80802000E-01 
SP   3    1.000000
   4.21175000E+01    1.13889000E-01   3.65114000E-02 
   9.62837000E+00    9.20811000E-01   2.37153000E-01 
   2.85332000E+00   -3.27447000E-03   8.19702000E-01 
SP   1    1.000000
   9.05661000E-01    1.00000000E+00   1.00000000E+00 
SP   1    1.000000
   2.55611000E-01    1.00000000E+00   1.00000000E+00 
SP   1    1.000000
   8.45000000E-02    1.00000000E+00   1.00000000E+00 
D    1    1.000000
   1.29200000E+00    1.00000000E+00 

10    0
S    6    1.000000
   8.58850000E+03    1.89515000E-03 
   1.29723000E+03    1.43859000E-02 
   2.99296000E+02    7.07320000E-02 
   8.73771000E+01    2.40001000E-01 
   2.56789000E+01    5.94797000E-01 
   3.74004000E+00    2.80802000E-01 
SP   3    1.000000
   4.21175000E+01    1.13889000E-01   3.65114000E-02 
   9.62837000E+00    9.20811000E-01   2.37153000E-01 
   2.85332000E+00   -3.27447000E-03   8.19702000E-01 
SP   1    1.000000
   9.05661000E-01    1.00000000E+00   1.00000000E+00 
SP   1    1.000000
   2.55611000E-01    1.00000000E+00   1.00000000E+00 
SP   1    1.000000
   8.45000000E-02    1.00000000E+00   1.00000000E+00 
D    1    1.000000
   1.29200000E+00    1.00000000E+00 

11    0
S    6    1.000000
   4.56324000E+03    1.96665000E-03 
   6.82024000E+02    1.52306000E-02 
   1.54973000E+02    7.61269000E-02 
   4.44553000E+01    2.60801000E-01 
   1.30290000E+01    6.16462000E-01 
   1.82773000E+00    2.21006000E-01 
SP   3    1.000000
   2.09642000E+01    1.14660000E-01   4.02487000E-02 
   4.80331000E+00    9.19999000E-01   2.37594000E-01 
   1.45933000E+00   -3.03068000E-03   8.15854000E-01 
SP   1    1.000000
   4.83456000E-01    1.00000000E+00   1.00000000E+00 
SP   1    1.000000
   1.45585000E-01    1.00000000E+00   1.00000000E+00 
SP   1    1.000000
   4.38000000E-02    1.00000000E+00   1.00000000E+00 
D    1    1.000000
   6.26000000E-01    1.00000000E+00 

12    0
S    3    1.000000
   3.38650000E+01    2.54938000E-02 
   5.09479000E+00    1.90373000E-01 
   1.15879000E+00    8.52161000E-01 
S    1    1.000000
   3.25840000E-01    1.00000000E+00 
S    1    1.000000
   1.02741000E-01    1.00000000E+00 

13    0
S    6    1.000000
   4.56324000E+03    1.96665000E-03 
   6.82024000E+02    1.52306000E-02 
   1.54973000E+02    7.61269000E-02 
   4.44553000E+01    2.60801000E-01 
   1.30290000E+01    6.16462000E-01 
   1.82773000E+00    2.21006000E-01 
SP   3    1.000000
   2.09642000E+01    1.14660000E-01   4.02487000E-02 
   4.80331000E+00    9.19999000E-01   2.37594000E-01 
   1.45933000E+00   -3.03068000E-03   8.15854000E-01 
SP   1    1.000000
   4.83456000E-01    1.00000000E+00   1.00000000E+00 
SP   1    1.000000
   1.45585000E-01    1.00000000E+00   1.00000000E+00 
SP   1    1.000000
   4.38000000E-02    1.00000000E+00   1.00000000E+00 
D    1    1.000000
   6.26000000E-01    1.00000000E+00 

14    0
S    3    1.000000
   3.38650000E+01    2.54938000E-02 
   5.09479000E+00    1.90373000E-01 
   1.15879000E+00    8.52161000E-01 
S    1    1.000000
   3.25840000E-01    1.00000000E+00 
S    1    1.000000
   1.02741000E-01    1.00000000E+00 

15    0
S    6    1.000000
   4.39700000E+05    8.13000000E-04 
   6.60300000E+04    6.28500000E-03 
   1.51400000E+04    3.19200000E-02 
   4.31700000E+03    1.28800000E-01 
   1.41400000E+03    3.94600000E-01 
   5.23900000E+02    5.41300000E-01 
S    3    1.000000
   5.23900000E+02    1.83100000E-01 
   2.07700000E+02    6.17600000E-01 
   8.65400000E+01    2.53800000E-01 
S    1    1.000000
   3.05200000E+01    1.00000000E+00 
S    1    1.000000
   1.29800000E+01    1.00000000E+00 
S    1    1.000000
   4.41200000E+00    1.00000000E+00 
S    1    1.000000
   1.86200000E+00    1.00000000E+00 
S    1    1.000000
   3.93200000E-01    1.00000000E+00 
S    1    1.000000
   1.40000000E-01    1.00000000E+00 
P    3    1.000000
   2.95700000E+03    2.22600000E-02 
   7.00300000E+02    1.80200000E-01 
   2.24600000E+02    8.62400000E-01 
P    3    1.000000
   8.25900000E+01    3.44000000E-01 
   3.31900000E+01    5.07100000E-01 
   1.42000000E+01    2.59000000E-01 
P    3    1.000000
   1.42000000E+01    7.96500000E-02 
   7.43800000E+00    3.73400000E-01 
   3.52600000E+00    6.04900000E-01 
P    1    1.000000
   1.59500000E+00    1.00000000E+00 
P    1    1.000000
   8.46200000E-01    1.00000000E+00 
P    1    1.000000
   3.18600000E-01    1.00000000E+00 
P    1    1.000000
   1.09600000E-01    1.00000000E+00 
D    4    1.000000
   1.34800000E+02    1.83100000E-02 
   3.63900000E+01    1.35000000E-01 
   1.21600000E+01    4.26100000E-01 
   4.34100000E+00    6.04300000E-01 
D    1    1.000000
   1.53500000E+00    1.00000000E+00 
SP   1    1.000000
   3.90000000E-02    1.00000000E+00   1.00000000E+00 
D    1    1.000000
   4.15000000E-01    1.00000000E+00 

[MO]
Sym=X
Ene= -0.130557
Spin=Alpha
Occup=1
     1    5.980004630823e-03
     2    9.558040179223e-03
     3   -1.689771987826e-02
     4    2.102844021066e-02
     5    3.373378027534e-02
     6   -2.738094547858e-02
     7   -2.552187618972e-02
     8    3.251270512567e-02
     9    5.705146914254e-02
    10   -2.242786782925e-02
    11   -3.106481072018e-02
    12    2.695974065557e-02
    13    3.821663994578e-02
    14   -2.323691031858e-01
    15   -1.815233095606e-01
    16   -6.984379366594e-02
    17   -1.106204035076e-03
    18    2.751180935280e-04
    19   -1.166927853665e-03
    20   -4.269489064107e-03
    21   -2.954497137115e-03
    22   -2.495505003619e-03
    23   -4.320720199758e-03
    24   -6.924898958708e-03
    25    2.234785237161e-02
    26    1.306802864551e-02
    27    8.596451271517e-03
    28    1.643379233348e-02
    29    3.387129170193e-02
    30    2.264003601582e-02
    31    1.271860068711e-02
    32    5.448016411774e-02
    33    2.360764185418e-02
    34    8.049663983393e-03
    35    3.414249670620e-03
    36    8.674747737925e-01
    37   -1.480623567632e-01
    38   -3.525192079959e-02
    39   -1.083660198198e-03
    40   -9.039280729594e-04
    41   -3.204888443024e-03
    42    3.633036793645e-04
    43   -6.698856391522e-03
    44    2.981368531888e-03
    45   -3.263635314068e-03
    46   -5.035487272501e-03
    47   -3.717034652864e-02
    48   -2.488762499019e-02
    49   -1.330096633029e-03
    50    1.765482440278e-02
    51   -6.352749094747e-02
    52   -3.540473908645e-02
    53   -6.775469729555e-03
    54   -9.334913335762e-02
    55   -7.119008123989e-02
    56   -9.950316925207e-03
    57    1.022802350391e-02
    58   -5.791802399661e-01
    59    1.466681176944e-01
    60   -1.725052674052e-01
    61    3.957915182288e-02
    62   -1.569470644121e-03
    63   -2.390827025078e-03
    64    1.268444148396e-03
    65   -1.025496371250e-02
    66   -6.884852379291e-04
    67    1.493086031702e-03
    68    2.315279763584e-03
    69    8.393923771933e-03
    70   -2.064585968149e-02
    71    3.951290433671e-02
    72   -5.020902927642e-03
    73    1.236809996993e-02
    74   -2.876311166520e-02
    75    6.416001215949e-02
    76    1.247896628522e-02
    77    1.845342849964e-02
    78   -2.228481970456e-02
    79    6.414539128671e-02
    80    5.774853750685e-02
    81    1.328043798594e-02
    82   -1.480855525303e-01
    83    1.794485856541e-03
    84    8.994437547757e-04
    85    3.467931972159e-03
    86    2.173984513765e-03
    87   -5.199649146244e-03
    88   -1.752873745504e-03
    89    1.722969793625e-02
    90    2.175427066219e-02
    91    1.501756010016e-03
    92    2.417471862112e-02
    93    3.001289191150e-02
    94   -1.060367506530e-02
    95   -1.150336224126e-02
    96   -1.754797222204e-02
    97   -6.127746640922e-03
    98    8.762117724569e-05
    99    2.877299037213e-04
   100    2.275560404641e-02
   101    1.023800799165e-02
   102   -2.290750051507e-02
   103   -2.033338450757e-03
   104    3.652691250630e-02
   105    1.826161622310e-02
   106   -3.673816757253e-02
   107    1.098072685893e-04
   108   -2.838226388560e-02
   109   -3.220846178925e-02
   110   -3.019033088158e-02
   111   -1.099994766544e-01
   112   -5.487595953562e-02
   113    1.790204383741e-01
   114   -1.978386345153e-02
   115   -7.594512546046e-03
   116   -2.106705070691e-03
   117    3.166864399725e-02
   118   -1.929450963591e-02
   119    1.570849021235e-02
   120    1.399420871456e-03
   121    2.269556216752e-03
   122   -1.109056213343e-01
   123   -6.668442523123e-02
   124   -1.426887878573e-01
   125   -6.891449325806e-03
   126   -1.633233004435e-01
   127   -9.854955662688e-02
   128   -2.126039419131e-01
   129   -1.422278349873e-02
   130   -1.507363433339e-01
   131   -9.080368497209e-02
   132   -1.963502983767e-01
   133    1.756991180849e-01
   134   -1.041982966733e-02
   135    3.761646166794e-02
   136   -1.359829691029e-02
   137    7.973274977131e-04
   138    7.167414910397e-03
   139   -1.040475389053e-02
   140    7.622147198082e-03
   141   -3.240366939306e-03
   142    2.331862474677e-04
   143    4.482798360550e-04
   144   -1.751949597053e-02
   145   -3.899243874183e-02
   146    1.233594954065e-01
   147   -3.008931719602e-04
   148   -2.460496285261e-02
   149   -5.618089578053e-02
   150    1.824076018913e-01
   151    2.464963393557e-02
   152   -2.282461168624e-02
   153   -5.542191147961e-02
   154    1.794214305720e-01
   155   -6.842073509974e-02
   156    8.093992841437e-03
   157    5.072633548451e-03
   158    1.590739614379e-02
   159   -5.376138312384e-04
   160   -5.145998491238e-03
   161   -7.090577039650e-03
   162   -2.159147196566e-03
   163    1.491211019973e-03
   164    6.539571273942e-03
   165    1.092191379198e-02
   166   -3.777789538602e-02
   167    1.713753376066e-02
   168    7.777297900628e-03
   169   -3.977551173367e-02
   170   -5.751052785825e-02
   171    2.709546379120e-02
   172    1.439169113491e-02
   173    1.722432534852e-02
   174   -1.178768564074e-04
   175   -1.397204371190e-02
   176   -5.853350912497e-03
   177    2.132991362492e-02
   178    1.478276461747e-01
   179   -9.250026914062e-02
   180    1.246057508615e-02
   181    3.262311789446e-03
   182   -3.574018965711e-03
   183    7.555974914461e-03
   184   -3.376474337448e-03
   185    4.742953529810e-05
   186   -1.170793373881e-03
   187   -8.902881004042e-03
   188   -1.055432227339e-02
   189    1.559884752020e-03
   190    2.598023524725e-03
   191    4.083794878338e-02
   192    2.439172979912e-02
   193    3.260869600818e-03
   194   -8.464917549580e-03
   195    5.998652997607e-02
   196    3.888981016664e-02
   197    8.611374517472e-03
   198   -3.352545794876e-02
   199    8.312540974835e-02
   200    3.967026094505e-02
   201   -1.965694998455e-03
   202   -8.564486368825e-02
   203    1.270032549984e-01
   204    9.820217519335e-02
   205   -5.204117364390e-02
   206   -1.741634246074e-03
   207    7.004655410145e-03
   208    1.830756990427e-03
   209   -6.759497920588e-03
   210    3.071214722049e-03
   211    4.755612062453e-03
   212    1.362387744475e-02
   213    2.282713515071e-04
   214    2.449225683982e-04
   215    7.970702186105e-04
   216   -2.195437880029e-03
   217   -2.475420854606e-03
   218    4.691458482023e-03
   219    7.982644006969e-03
   220   -1.904664827860e-02
   221   -1.049450046873e-02
   222   -7.952038629360e-03
   223   -2.420166396501e-03
   224   -2.468462579034e-04
   225   -6.566823547410e-02
   226   -1.998689677911e-02
   227   -2.032808341611e-03
   228    1.718291164893e-01
   229    5.227552597169e-02
   230    5.259537710780e-03
   231    6.295446940735e-02
   232    1.879129721576e-02
   233    2.207395467147e-03
   234   -1.400845676195e-01
   235   -4.141452881039e-02
   236   -4.534287030077e-03
   237   -3.453946863960e-01
   238   -1.072120834995e-01
   239   -1.269657158631e-02
   240   -1.888465942189e-01
   241   -5.138157186579e-02
   242    7.387201398176e-03
   243    1.707290418129e-03
   244   -8.330334746324e-04
   245    7.481122061245e-04
   246   -1.655391864179e-03
   247   -2.683226755737e-04
   248    9.671675475296e-05
   249    2.296085103966e-05
   250   -2.429999135184e-05
   251   -7.093042913788e-04
   252   -1.636555389753e-04
   253    2.935556883151e-04
   254    1.528910036742e-03
   255    4.868598059595e-03
   256    1.116258522400e-03
   257   -3.167849496826e-03
   258   -2.423221479234e-03
   259   -2.222018377644e-03
   260    6.407694470256e-03
   261   -8.126551554191e-04
Sym=X
Ene= -0.175196
Spin=Alpha
Occup=1
     1    1.690442116419e-03
     2    2.614100420481e-03
     3    1.237362916938e-02
     4    1.099501351098e-02
     5    2.438239084649e-02
     6   -6.128397009057e-03
     7    1.860220498983e-02
     8    1.623790649743e-02
     9    3.986767130061e-02
    10   -7.378944694587e-03
    11    1.559502836608e-02
    12    1.176173718104e-02
    13    3.423948982479e-02
    14    8.002175116328e-02
    15    1.281238510008e-01
    16    8.012171978354e-02
    17   -6.488651479811e-03
    18    1.200338291761e-03
    19   -1.939062798454e-02
    20   -1.273068498817e-02
    21    1.323705374967e-04
    22    1.476075562076e-03
    23    1.015458520621e-03
    24    1.427764846829e-03
    25   -8.734727293018e-03
    26    2.585326900667e-02
    27   -1.070318740413e-01
    28   -2.596499325224e-03
    29   -1.212803789634e-02
    30    3.831262269448e-02
    31   -1.760351239204e-01
    32    3.021503627417e-03
    33   -2.060633253466e-03
    34    2.752498259743e-02
    35   -1.435485397334e-01
    36   -9.430999417512e-02
    37    1.990762619360e-01
    38   -4.824946032338e-02
    39    1.056492435034e-02
    40   -3.921726243553e-04
    41   -9.134200448866e-03
    42    1.316965245020e-02
    43    1.893535120497e-03
    44    5.957918165169e-04
    45   -5.534128617788e-03
    46   -9.234656274338e-03
    47    2.923926127502e-02
    48   -2.396169395915e-02
    49   -1.274472009123e-01
    50    2.856436541560e-02
    51    5.137972880093e-02
    52   -3.554521027920e-02
    53   -2.106160526216e-01
    54    1.245443402444e-01
    55    4.704597105805e-02
    56   -5.145379948769e-02
    57   -1.833941416601e-01
    58    3.665792406438e-01
    59   -1.205772179876e-01
    60   -2.661646445378e-01
    61   -3.447127861490e-02
    62   -1.068354908148e-03
    63    5.134916712637e-03
    64   -1.284237472077e-02
    65    1.954835141682e-03
    66    2.085439755213e-03
    67   -1.747197544610e-04
    68   -3.027106988163e-04
    69    1.399690961324e-03
    70   -1.348892032940e-02
    71    1.217809931862e-01
    72    9.602673347784e-04
    73    2.814904156924e-03
    74   -2.057810335952e-02
    75    2.015114252059e-01
    76    1.703458560074e-02
    77    1.319566770864e-02
    78   -2.335177190169e-03
    79    1.688370036539e-01
    80    1.620047079931e-01
    81    2.310436972564e-02
    82    9.796618927648e-02
    83    7.140186131886e-03
    84    6.742702238714e-04
    85    8.747708736822e-03
    86   -7.643325802522e-03
    87    9.157462122207e-05
    88   -1.452281282292e-03
    89   -6.318076628093e-04
    90   -2.210822712154e-03
    91   -1.193465188139e-03
    92    1.162378951386e-02
    93    1.137484802927e-02
    94    9.830220968395e-04
    95   -6.344258750739e-04
    96    5.990365270878e-04
    97   -2.385702840113e-03
    98    6.228643817973e-04
    99    9.138784903042e-04
   100   -1.171429955566e-02
   101   -3.419654151365e-03
   102    2.192966225097e-03
   103   -1.670014275661e-03
   104   -1.989313919480e-02
   105   -7.537880797726e-03
   106    1.233716279555e-03
   107   -7.969634933635e-03
   108    2.619088783381e-02
   109    2.216432087288e-02
   110    1.524749928746e-02
   111    1.233984513348e-02
   112    5.840085756314e-02
   113    5.524271078277e-03
   114    4.121876378106e-02
   115    3.353484590879e-03
   116    1.466132261057e-02
   117   -1.050343061419e-02
   118    1.422027830375e-02
   119   -4.934361684556e-03
   120   -3.218824204119e-04
   121   -5.587194894552e-04
   122    7.340561695529e-02
   123    3.361300944416e-02
   124    7.505706662196e-02
   125    2.087228488827e-03
   126    1.082975280186e-01
   127    5.006171411422e-02
   128    1.111822173208e-01
   129    8.491649811345e-03
   130    9.585860915149e-02
   131    4.666984002837e-02
   132    1.051310779379e-01
   133   -3.067788397619e-02
   134   -3.740433283432e-03
   135   -1.369246523595e-02
   136   -2.491836849476e-03
   137   -4.548818914454e-04
   138   -3.366353746332e-03
   139    4.901242641699e-03
   140   -4.475005602811e-03
   141    2.526879712557e-03
   142   -1.771441177039e-03
   143   -2.933349266843e-03
   144    2.474162805237e-02
   145    1.624700445032e-02
   146   -1.049130343486e-02
   147    7.978455372321e-03
   148    3.586030364115e-02
   149    2.314647578914e-02
   150   -1.505588380396e-02
   151   -7.110126625217e-03
   152    3.160738750095e-02
   153    2.516900922161e-02
   154   -1.620233663077e-02
   155   -1.304543579209e-02
   156   -3.821211257272e-03
   157    3.214734676900e-03
   158   -1.350891809528e-02
   159    5.141266916100e-04
   160    1.492026694881e-03
   161    3.884316600044e-04
   162    2.692527369463e-04
   163   -1.484648273246e-03
   164   -6.748878432303e-04
   165   -9.783706105870e-04
   166   -1.030817928409e-02
   167    1.072224815358e-02
   168    1.054276048644e-01
   169    1.552411832622e-03
   170   -1.416254053202e-02
   171    1.610622788117e-02
   172    1.752305754469e-01
   173   -4.420042751760e-02
   174   -2.868984652649e-02
   175    5.525849104994e-03
   176    1.370432674442e-01
   177   -4.417181395483e-02
   178   -6.984738707220e-02
   179    1.809768990729e-02
   180   -1.303082933926e-02
   181    8.725917086184e-04
   182   -7.438869611205e-03
   183    1.427792413472e-02
   184   -5.243695590824e-04
   185   -1.803295204139e-03
   186   -1.625644209891e-03
   187   -3.803765504980e-03
   188   -8.572331633741e-03
   189   -2.096509793673e-03
   190   -3.572536246787e-03
   191    1.267528290393e-02
   192    2.108552380546e-03
   193   -2.165512580052e-03
   194    1.321582122363e-02
   195    2.231047565997e-02
   196    2.836293164443e-03
   197   -6.264232049745e-03
   198   -7.364544746273e-03
   199   -4.517919925863e-02
   200   -2.007862450137e-02
   201    9.749457987020e-03
   202   -4.563171617527e-01
   203   -1.206671362133e-01
   204   -1.303353800016e-01
   205    2.655379902045e-02
   206    1.413620101935e-03
   207   -1.237461932102e-02
   208   -1.106748672238e-02
   209   -2.919111427574e-03
   210    3.735472568663e-03
   211    3.630739596120e-03
   212    8.203135384120e-03
   213    8.716170525396e-03
   214   -1.093194714588e-04
   215   -3.539799474181e-04
   216    9.576755220927e-04
   217    1.179506673246e-03
   218   -2.353769151073e-03
   219   -3.030090936912e-03
   220    5.592925131560e-03
   221    1.517231307163e-02
   222   -4.361532916014e-03
   223   -1.289577280503e-03
   224   -2.889308578697e-04
   225   -3.601226039885e-02
   226   -1.063941941123e-02
   227   -2.379633030483e-03
   228    9.423842158800e-02
   229    2.780877605102e-02
   230    6.155471578350e-03
   231    3.531090360207e-02
   232    1.122359415906e-02
   233    2.648693008793e-03
   234   -7.925424175217e-02
   235   -2.540593303919e-02
   236   -5.816446610390e-03
   237   -1.850178168523e-01
   238   -5.144217668148e-02
   239   -9.234584029824e-03
   240   -1.230510017932e-01
   241   -4.406056220774e-02
   242   -4.339956957641e-03
   243    1.865405374791e-05
   244   -1.912267253591e-03
   245   -1.158173304799e-03
   246    3.815706029909e-03
   247   -2.108275589010e-03
   248   -1.272892319759e-04
   249    4.055163340481e-05
   250   -5.069158916078e-05
   251    5.943831255881e-04
   252   -1.513584561558e-04
   253   -4.862875474292e-03
   254    1.008525426222e-02
   255    1.323183705891e-03
   256   -1.952678378771e-03
   257    6.500793882743e-04
   258    8.547407857270e-04
   259    1.420870847811e-03
   260   -7.201837551000e-03
   261    2.990642798698e-03
Sym=X
Ene= -0.330617
Spin=Alpha
Occup=1
     1   -4.032234386843e-03
     2   -6.495127706470e-03
     3   -5.101161516351e-02
     4    2.209709392874e-02
     5    1.218840032617e-02
     6    1.548770533599e-02
     7   -7.773893493644e-02
     8    3.598448911580e-02
     9    2.051137462591e-02
    10    6.070370699208e-02
    11   -3.229770381571e-02
    12    4.014104360453e-02
    13    1.213178724379e-02
    14   -4.141726248907e-01
    15   -1.150533810010e-01
    16    3.989347820488e-03
    17   -1.974842656166e-03
    18   -1.255532695884e-03
    19   -2.260047034378e-04
    20   -2.507153078281e-03
    21   -5.886436184448e-03
    22   -1.529841119380e-02
    23    2.034810341406e-02
    24    3.274248581223e-02
    25    2.462212579330e-02
    26   -1.136127601951e-01
    27    7.007313357571e-03
    28   -9.013834241215e-02
    29    3.017645536421e-02
    30   -1.759327043315e-01
    31    1.187426465196e-02
    32   -9.929706662609e-02
    33    3.365827431255e-02
    34   -1.109111896445e-01
    35    3.175834598402e-03
    36   -2.017404247161e-01
    37   -2.687935930477e-01
    38    5.183106907133e-02
    39    8.239936447319e-04
    40    2.287710169639e-03
    41   -2.146002732172e-04
    42   -2.158684577537e-03
    43   -3.186291652056e-03
    44   -1.980718164651e-02
    45   -2.649108254898e-02
    46   -4.192714398013e-02
    47   -5.183661097225e-02
    48    6.211563470754e-02
    49    1.727008053840e-02
    50    1.174767013291e-01
    51   -7.171760121420e-02
    52    8.324168750467e-02
    53    2.962790244292e-02
    54    9.421405987527e-02
    55   -5.518407553564e-02
    56   -2.457498778967e-02
    57    9.329542513129e-03
    58   -2.948469189240e-01
    59    7.806413684474e-02
    60    5.871490881084e-01
    61   -2.488379040794e-03
    62    2.507651739934e-04
    63    2.021265704555e-03
    64   -2.112558151084e-03
    65    3.091515604135e-03
    66    4.994356338376e-03
    67   -2.156217490754e-03
    68   -3.359953325147e-03
    69   -9.706687395635e-03
    70    8.194156217983e-03
    71    2.052651149353e-02
    72    7.364621362769e-03
    73   -1.726580271832e-02
    74    1.552532141921e-02
    75    3.406608895453e-02
    76   -2.013107852207e-02
    77   -2.260863413676e-02
    78    1.918047396856e-03
    79    2.512885989459e-02
    80    2.142512952489e-01
    81    3.647550604872e-02
    82   -6.253946745410e-02
    83    1.640588461517e-03
    84   -1.637269723964e-03
    85    2.521012535699e-03
    86   -1.245627214006e-03
    87   -1.983184036635e-03
    88   -1.152402927781e-03
    89    4.578827555622e-02
    90    5.841858690859e-02
    91    1.392689717281e-02
    92   -8.867267303530e-02
    93   -1.054500641498e-01
    94    1.408356948544e-03
    95    9.061516856194e-03
    96    8.856173211458e-03
    97   -5.179916928472e-03
    98    4.354703448558e-03
    99    7.038762653722e-03
   100    2.402269259162e-02
   101    1.167213135101e-01
   102    4.282944528922e-02
   103   -2.112525089164e-02
   104    3.795654500894e-02
   105    1.859546577310e-01
   106    6.790518354162e-02
   107   -1.354411081528e-03
   108    2.490695539895e-02
   109    1.888891873653e-01
   110    4.583269381204e-02
   111    4.778318141585e-02
   112   -6.547101432513e-03
   113   -1.668012103367e-01
   114    2.606264187466e-03
   115    1.401145285296e-04
   116    1.189138509237e-03
   117   -7.497583943745e-05
   118    1.599299940052e-03
   119   -4.891064638884e-04
   120   -3.269897673397e-02
   121   -5.329285749642e-02
   122    7.611980761931e-02
   123   -6.651848189649e-02
   124    3.521129905931e-02
   125    1.573006109472e-01
   126    1.117994301337e-01
   127   -9.485944862279e-02
   128    5.311391078862e-02
   129    2.468616930110e-01
   130    5.530674684063e-02
   131   -3.510345606354e-02
   132    3.198409378982e-02
   133   -6.296499564032e-02
   134    3.188648831935e-04
   135   -1.853424343768e-03
   136    7.275234539050e-04
   137    4.985936620880e-03
   138   -3.609901888990e-03
   139    5.131628427638e-03
   140   -1.096466636253e-03
   141    9.384157218967e-03
   142    2.996833377991e-02
   143    4.877327347905e-02
   144   -5.734910461813e-02
   145   -8.476551046990e-02
   146    3.117234943929e-02
   147   -1.413254638443e-01
   148   -8.415812222803e-02
   149   -1.221235991775e-01
   150    4.765695649296e-02
   151   -2.482254201019e-01
   152   -2.936846079855e-02
   153   -4.732874684249e-02