[Molden Format]
[Atoms] (Angs)
  C      1    6      0.51932475      1.23303451     -0.03194925
  C      2    6      1.94454413      1.26916358     -0.03672882
  C      3    6      2.62037793      0.09283428     -0.02499003
  C      4    6     -0.19603352      0.03013062      0.00102732
  H      5    1     -0.02069420      2.17423764     -0.04336646
  H      6    1      2.48281698      2.20891057     -0.03611879
  H      7    1     -1.27770137      0.03990295      0.01166953
  N      8    7      4.09213475      0.09594076      0.03662979
  O      9    8      4.63930696     -1.02169275      0.14459220
  O     10    8      4.66489883      1.19839699     -0.02327545
  C     11    6      0.49428518     -1.16712649      0.02099746
  H     12    1     -0.03251071     -2.11492669      0.05447935
  C     13    6      1.96291176     -1.21653219     -0.02111314
  H     14    1      2.44359113     -1.96306433      0.61513886
 Br     15   35      2.17304025     -1.94912156     -1.90618750
[GTO]
1    0
S    6    1.000000
   4.56324000E+03    1.96665000E-03 
   6.82024000E+02    1.52306000E-02 
   1.54973000E+02    7.61269000E-02 
   4.44553000E+01    2.60801000E-01 
   1.30290000E+01    6.16462000E-01 
   1.82773000E+00    2.21006000E-01 
SP   3    1.000000
   2.09642000E+01    1.14660000E-01   4.02487000E-02 
   4.80331000E+00    9.19999000E-01   2.37594000E-01 
   1.45933000E+00   -3.03068000E-03   8.15854000E-01 
SP   1    1.000000
   4.83456000E-01    1.00000000E+00   1.00000000E+00 
SP   1    1.000000
   1.45585000E-01    1.00000000E+00   1.00000000E+00 
SP   1    1.000000
   4.38000000E-02    1.00000000E+00   1.00000000E+00 
D    1    1.000000
   6.26000000E-01    1.00000000E+00 

2    0
S    6    1.000000
   4.56324000E+03    1.96665000E-03 
   6.82024000E+02    1.52306000E-02 
   1.54973000E+02    7.61269000E-02 
   4.44553000E+01    2.60801000E-01 
   1.30290000E+01    6.16462000E-01 
   1.82773000E+00    2.21006000E-01 
SP   3    1.000000
   2.09642000E+01    1.14660000E-01   4.02487000E-02 
   4.80331000E+00    9.19999000E-01   2.37594000E-01 
   1.45933000E+00   -3.03068000E-03   8.15854000E-01 
SP   1    1.000000
   4.83456000E-01    1.00000000E+00   1.00000000E+00 
SP   1    1.000000
   1.45585000E-01    1.00000000E+00   1.00000000E+00 
SP   1    1.000000
   4.38000000E-02    1.00000000E+00   1.00000000E+00 
D    1    1.000000
   6.26000000E-01    1.00000000E+00 

3    0
S    6    1.000000
   4.56324000E+03    1.96665000E-03 
   6.82024000E+02    1.52306000E-02 
   1.54973000E+02    7.61269000E-02 
   4.44553000E+01    2.60801000E-01 
   1.30290000E+01    6.16462000E-01 
   1.82773000E+00    2.21006000E-01 
SP   3    1.000000
   2.09642000E+01    1.14660000E-01   4.02487000E-02 
   4.80331000E+00    9.19999000E-01   2.37594000E-01 
   1.45933000E+00   -3.03068000E-03   8.15854000E-01 
SP   1    1.000000
   4.83456000E-01    1.00000000E+00   1.00000000E+00 
SP   1    1.000000
   1.45585000E-01    1.00000000E+00   1.00000000E+00 
SP   1    1.000000
   4.38000000E-02    1.00000000E+00   1.00000000E+00 
D    1    1.000000
   6.26000000E-01    1.00000000E+00 

4    0
S    6    1.000000
   4.56324000E+03    1.96665000E-03 
   6.82024000E+02    1.52306000E-02 
   1.54973000E+02    7.61269000E-02 
   4.44553000E+01    2.60801000E-01 
   1.30290000E+01    6.16462000E-01 
   1.82773000E+00    2.21006000E-01 
SP   3    1.000000
   2.09642000E+01    1.14660000E-01   4.02487000E-02 
   4.80331000E+00    9.19999000E-01   2.37594000E-01 
   1.45933000E+00   -3.03068000E-03   8.15854000E-01 
SP   1    1.000000
   4.83456000E-01    1.00000000E+00   1.00000000E+00 
SP   1    1.000000
   1.45585000E-01    1.00000000E+00   1.00000000E+00 
SP   1    1.000000
   4.38000000E-02    1.00000000E+00   1.00000000E+00 
D    1    1.000000
   6.26000000E-01    1.00000000E+00 

5    0
S    3    1.000000
   3.38650000E+01    2.54938000E-02 
   5.09479000E+00    1.90373000E-01 
   1.15879000E+00    8.52161000E-01 
S    1    1.000000
   3.25840000E-01    1.00000000E+00 
S    1    1.000000
   1.02741000E-01    1.00000000E+00 

6    0
S    3    1.000000
   3.38650000E+01    2.54938000E-02 
   5.09479000E+00    1.90373000E-01 
   1.15879000E+00    8.52161000E-01 
S    1    1.000000
   3.25840000E-01    1.00000000E+00 
S    1    1.000000
   1.02741000E-01    1.00000000E+00 

7    0
S    3    1.000000
   3.38650000E+01    2.54938000E-02 
   5.09479000E+00    1.90373000E-01 
   1.15879000E+00    8.52161000E-01 
S    1    1.000000
   3.25840000E-01    1.00000000E+00 
S    1    1.000000
   1.02741000E-01    1.00000000E+00 

8    0
S    6    1.000000
   6.29348000E+03    1.96979000E-03 
   9.49044000E+02    1.49613000E-02 
   2.18776000E+02    7.35006000E-02 
   6.36916000E+01    2.48937000E-01 
   1.88282000E+01    6.02460000E-01 
   2.72023000E+00    2.56202000E-01 
SP   3    1.000000
   3.06331000E+01    1.11906000E-01   3.83119000E-02 
   7.02614000E+00    9.21666000E-01   2.37403000E-01 
   2.11205000E+00   -2.56919000E-03   8.17592000E-01 
SP   1    1.000000
   6.84009000E-01    1.00000000E+00   1.00000000E+00 
SP   1    1.000000
   2.00878000E-01    1.00000000E+00   1.00000000E+00 
SP   1    1.000000
   6.39000000E-02    1.00000000E+00   1.00000000E+00 
D    1    1.000000
   9.13000000E-01    1.00000000E+00 

9    0
S    6    1.000000
   8.58850000E+03    1.89515000E-03 
   1.29723000E+03    1.43859000E-02 
   2.99296000E+02    7.07320000E-02 
   8.73771000E+01    2.40001000E-01 
   2.56789000E+01    5.94797000E-01 
   3.74004000E+00    2.80802000E-01 
SP   3    1.000000
   4.21175000E+01    1.13889000E-01   3.65114000E-02 
   9.62837000E+00    9.20811000E-01   2.37153000E-01 
   2.85332000E+00   -3.27447000E-03   8.19702000E-01 
SP   1    1.000000
   9.05661000E-01    1.00000000E+00   1.00000000E+00 
SP   1    1.000000
   2.55611000E-01    1.00000000E+00   1.00000000E+00 
SP   1    1.000000
   8.45000000E-02    1.00000000E+00   1.00000000E+00 
D    1    1.000000
   1.29200000E+00    1.00000000E+00 

10    0
S    6    1.000000
   8.58850000E+03    1.89515000E-03 
   1.29723000E+03    1.43859000E-02 
   2.99296000E+02    7.07320000E-02 
   8.73771000E+01    2.40001000E-01 
   2.56789000E+01    5.94797000E-01 
   3.74004000E+00    2.80802000E-01 
SP   3    1.000000
   4.21175000E+01    1.13889000E-01   3.65114000E-02 
   9.62837000E+00    9.20811000E-01   2.37153000E-01 
   2.85332000E+00   -3.27447000E-03   8.19702000E-01 
SP   1    1.000000
   9.05661000E-01    1.00000000E+00   1.00000000E+00 
SP   1    1.000000
   2.55611000E-01    1.00000000E+00   1.00000000E+00 
SP   1    1.000000
   8.45000000E-02    1.00000000E+00   1.00000000E+00 
D    1    1.000000
   1.29200000E+00    1.00000000E+00 

11    0
S    6    1.000000
   4.56324000E+03    1.96665000E-03 
   6.82024000E+02    1.52306000E-02 
   1.54973000E+02    7.61269000E-02 
   4.44553000E+01    2.60801000E-01 
   1.30290000E+01    6.16462000E-01 
   1.82773000E+00    2.21006000E-01 
SP   3    1.000000
   2.09642000E+01    1.14660000E-01   4.02487000E-02 
   4.80331000E+00    9.19999000E-01   2.37594000E-01 
   1.45933000E+00   -3.03068000E-03   8.15854000E-01 
SP   1    1.000000
   4.83456000E-01    1.00000000E+00   1.00000000E+00 
SP   1    1.000000
   1.45585000E-01    1.00000000E+00   1.00000000E+00 
SP   1    1.000000
   4.38000000E-02    1.00000000E+00   1.00000000E+00 
D    1    1.000000
   6.26000000E-01    1.00000000E+00 

12    0
S    3    1.000000
   3.38650000E+01    2.54938000E-02 
   5.09479000E+00    1.90373000E-01 
   1.15879000E+00    8.52161000E-01 
S    1    1.000000
   3.25840000E-01    1.00000000E+00 
S    1    1.000000
   1.02741000E-01    1.00000000E+00 

13    0
S    6    1.000000
   4.56324000E+03    1.96665000E-03 
   6.82024000E+02    1.52306000E-02 
   1.54973000E+02    7.61269000E-02 
   4.44553000E+01    2.60801000E-01 
   1.30290000E+01    6.16462000E-01 
   1.82773000E+00    2.21006000E-01 
SP   3    1.000000
   2.09642000E+01    1.14660000E-01   4.02487000E-02 
   4.80331000E+00    9.19999000E-01   2.37594000E-01 
   1.45933000E+00   -3.03068000E-03   8.15854000E-01 
SP   1    1.000000
   4.83456000E-01    1.00000000E+00   1.00000000E+00 
SP   1    1.000000
   1.45585000E-01    1.00000000E+00   1.00000000E+00 
SP   1    1.000000
   4.38000000E-02    1.00000000E+00   1.00000000E+00 
D    1    1.000000
   6.26000000E-01    1.00000000E+00 

14    0
S    3    1.000000
   3.38650000E+01    2.54938000E-02 
   5.09479000E+00    1.90373000E-01 
   1.15879000E+00    8.52161000E-01 
S    1    1.000000
   3.25840000E-01    1.00000000E+00 
S    1    1.000000
   1.02741000E-01    1.00000000E+00 

15    0
S    6    1.000000
   4.39700000E+05    8.13000000E-04 
   6.60300000E+04    6.28500000E-03 
   1.51400000E+04    3.19200000E-02 
   4.31700000E+03    1.28800000E-01 
   1.41400000E+03    3.94600000E-01 
   5.23900000E+02    5.41300000E-01 
S    3    1.000000
   5.23900000E+02    1.83100000E-01 
   2.07700000E+02    6.17600000E-01 
   8.65400000E+01    2.53800000E-01 
S    1    1.000000
   3.05200000E+01    1.00000000E+00 
S    1    1.000000
   1.29800000E+01    1.00000000E+00 
S    1    1.000000
   4.41200000E+00    1.00000000E+00 
S    1    1.000000
   1.86200000E+00    1.00000000E+00 
S    1    1.000000
   3.93200000E-01    1.00000000E+00 
S    1    1.000000
   1.40000000E-01    1.00000000E+00 
P    3    1.000000
   2.95700000E+03    2.22600000E-02 
   7.00300000E+02    1.80200000E-01 
   2.24600000E+02    8.62400000E-01 
P    3    1.000000
   8.25900000E+01    3.44000000E-01 
   3.31900000E+01    5.07100000E-01 
   1.42000000E+01    2.59000000E-01 
P    3    1.000000
   1.42000000E+01    7.96500000E-02 
   7.43800000E+00    3.73400000E-01 
   3.52600000E+00    6.04900000E-01 
P    1    1.000000
   1.59500000E+00    1.00000000E+00 
P    1    1.000000
   8.46200000E-01    1.00000000E+00 
P    1    1.000000
   3.18600000E-01    1.00000000E+00 
P    1    1.000000
   1.09600000E-01    1.00000000E+00 
D    4    1.000000
   1.34800000E+02    1.83100000E-02 
   3.63900000E+01    1.35000000E-01 
   1.21600000E+01    4.26100000E-01 
   4.34100000E+00    6.04300000E-01 
D    1    1.000000
   1.53500000E+00    1.00000000E+00 
SP   1    1.000000
   3.90000000E-02    1.00000000E+00   1.00000000E+00 
D    1    1.000000
   4.15000000E-01    1.00000000E+00 

[MO]
Sym=X
Ene= -0.089728
Spin=Alpha
Occup=1
     1   -1.869783678054e-03
     2   -3.066503127158e-03
     3   -5.150473139958e-02
     4    8.233485379748e-03
     5    1.169663818381e-01
     6    7.798004173282e-03
     7   -7.658469498561e-02
     8    1.548899191034e-02
     9    1.948198243171e-01
    10    1.530897657115e-02
    11   -5.887064067010e-02
    12    3.870946818549e-03
    13    1.379012610476e-01
    14   -3.027456824639e-01
    15   -1.918719416134e-01
    16   -7.455761983265e-02
    17    3.995575954906e-03
    18    1.504546129099e-04
    19    7.775244299544e-03
    20   -1.116993766720e-02
    21   -7.436902070514e-03
    22   -7.976710514473e-03
    23    1.940901554297e-03
    24    3.114754909942e-03
    25    5.034256726883e-02
    26   -4.023312429720e-02
    27    1.041810508209e-01
    28   -7.391131960904e-03
    29    7.392061201682e-02
    30   -5.647233089510e-02
    31    1.721194305153e-01
    32   -3.798077797545e-02
    33    6.718564526924e-03
    34   -7.216086440928e-03
    35    1.220886565464e-01
    36    8.315845711230e-02
    37   -2.787792716276e-01
    38    1.023329596078e-01
    39   -1.773529626581e-02
    40    1.053440160178e-03
    41   -1.029636698999e-02
    42   -9.006037566223e-03
    43   -3.326475669754e-03
    44   -8.362990315290e-03
    45   -1.201422559984e-02
    46   -1.920434345875e-02
    47   -2.528052266435e-04
    48    5.553811306974e-02
    49    5.872355437859e-02
    50    5.094015603320e-02
    51    4.315747482166e-03
    52    8.197724718198e-02
    53    9.453776705061e-02
    54    1.397045147804e-01
    55   -8.910827295214e-03
    56    4.190734384130e-02
    57    7.650865268101e-02
    58    1.912671310062e-01
    59   -9.997512600499e-03
    60    2.088900627112e-01
    61    2.120599166288e-02
    62    3.002881577179e-04
    63   -9.408502133504e-03
    64    1.386647327347e-02
    65   -2.559708222897e-03
    66   -5.006906683314e-03
    67    1.767908287041e-03
    68    2.903590313802e-03
    69    3.317318886170e-02
    70    6.823442845641e-03
    71    9.279970324361e-02
    72   -6.742068956205e-03
    73    5.080393434671e-02
    74    1.287180363768e-02
    75    1.530324751084e-01
    76   -5.931668548998e-02
    77    2.547390311322e-02
    78   -2.287252185414e-03
    79    1.070105879643e-01
    80    8.514863107321e-02
    81    1.911151702214e-02
    82   -1.509962132882e-01
    83    5.333652015011e-03
    84   -5.166493785000e-06
    85    1.191763899418e-02
    86    5.576950795651e-03
    87   -1.015648179889e-02
    88   -4.185957839379e-04
    89    3.099660410271e-02
    90    4.257213827490e-02
    91    1.066379174044e-02
    92   -1.466040917190e-02
    93   -2.038553636112e-02
    94   -1.552251667731e-02
    95   -3.158149262848e-02
    96   -4.085653900520e-02
    97   -1.236495999667e-02
    98    2.951938758623e-03
    99    4.809164813321e-03
   100    7.437604213638e-03
   101   -6.202043044910e-03
   102   -2.833473517250e-02
   103   -1.568982110536e-02
   104    1.000615948583e-02
   105   -7.976816004337e-03
   106   -4.330800310830e-02
   107   -6.709155016331e-03
   108    3.559921085810e-02
   109   -3.339222883714e-02
   110   -3.710033915364e-02
   111    1.960605565094e-02
   112    3.774705208643e-02
   113    4.421679597409e-02
   114   -3.906495775191e-02
   115    6.048712428123e-04
   116   -7.758282666386e-03
   117   -3.969320930511e-03
   118    1.077828088762e-02
   119    9.856657322483e-03
   120    2.086479684650e-03
   121    3.356611102285e-03
   122   -2.570734148494e-02
   123   -2.845949982016e-02
   124   -1.900315025383e-03
   125   -1.034930664604e-02
   126   -3.931229113448e-02
   127   -4.148525278208e-02
   128   -3.246782528383e-03
   129   -3.581251397205e-02
   130   -3.311388816862e-02
   131   -4.886073403011e-02
   132    4.160108373552e-03
   133    2.391238969608e-02
   134   -1.202169436848e-02
   135    6.824116217891e-03
   136    1.161277990597e-02
   137    1.022109015944e-04
   138    9.651584063804e-04
   139   -1.427242292244e-03
   140    2.380054202183e-03
   141   -5.058468086658e-04
   142   -1.852185069579e-03
   143   -3.041996842738e-03
   144    9.520979180021e-02
   145   -4.983027449491e-02
   146   -4.417057723624e-02
   147    1.003149401355e-02
   148    1.412315676514e-01
   149   -7.393443153931e-02
   150   -6.650684988900e-02
   151    1.846206731336e-02
   152    1.250595355209e-01
   153   -6.866338319382e-02
   154   -5.616432224098e-02
   155   -7.214836011927e-02
   156    3.203095919045e-03
   157    2.100044154281e-02
   158    8.355284912122e-03
   159    3.906891519836e-04
   160    2.597092008210e-03
   161    4.273025709406e-03
   162   -6.937903315778e-03
   163   -4.252508425967e-03
   164   -5.854464435309e-03
   165   -9.507417676871e-03
   166   -1.099343388707e-02
   167    1.692464074339e-03
   168    4.955666369997e-02
   169    2.717663913034e-02
   170   -1.373437973549e-02
   171    1.004346475839e-04
   172    7.898563262325e-02
   173    8.147141125771e-02
   174    1.397947337512e-02
   175    2.756252756173e-02
   176    5.966752655841e-02
   177    1.292480516081e-03
   178    1.419373821810e-01
   179   -8.921740379983e-02
   180   -1.552237316832e-02
   181   -1.176565410859e-03
   182   -5.914113447056e-03
   183    1.173477056157e-02
   184   -5.342963065550e-03
   185    6.957549856872e-04
   186    9.489306739353e-03
   187    1.642457765484e-02
   188    1.050187052028e-02
   189    1.203229231965e-02
   190    1.912924095897e-02
   191   -4.398991483663e-03
   192   -2.172211731792e-02
   193   -1.708738977602e-02
   194   -5.213819621383e-02
   195   -1.150412540205e-02
   196   -3.389676438904e-02
   197   -3.355145579617e-02
   198   -8.657500323629e-02
   199    4.159159544416e-02
   200   -6.512886094608e-02
   201   -2.167265300586e-02
   202   -2.236725969744e-02
   203    1.774222558544e-01
   204    6.350806694545e-02
   205    7.982673181491e-03
   206    4.236406285531e-03
   207   -7.829550795904e-03
   208    1.149412165350e-02
   209    6.976132017064e-04
   210   -2.787238326221e-03
   211   -1.493993073023e-02
   212   -3.290541969722e-02
   213   -3.407055305017e-02
   214   -1.522941512759e-03
   215   -4.931139186808e-03
   216    1.333349905816e-02
   217    1.628322992390e-02
   218   -3.208023993490e-02
   219   -4.115086285007e-02
   220    7.481563179515e-02
   221    5.380422322209e-02
   222    2.686562413299e-03
   223    2.627483994024e-04
   224    2.467419154562e-03
   225    2.217220283119e-02
   226    2.189231783986e-03
   227    2.038438572053e-02
   228   -5.783945966303e-02
   229   -5.912152034957e-03
   230   -5.330741369292e-02
   231   -2.167455356391e-02
   232   -1.189450037469e-03
   233   -1.903586795153e-02
   234    4.766080012120e-02
   235    2.974579359390e-03
   236    4.151662638742e-02
   237    1.118943204648e-01
   238    1.789012981064e-02
   239    1.114891311594e-01
   240    6.039662767678e-02
   241    1.016256500576e-02
   242    4.979971231897e-02
   243   -4.554002595659e-03
   244   -1.006763772165e-03
   245    2.595719398364e-04
   246   -8.581362126685e-04
   247   -1.221983112691e-03
   248   -5.156489801318e-04
   249   -5.846863933041e-05
   250    3.560456303801e-05
   251   -2.624432370244e-04
   252   -3.842502633019e-04
   253   -2.924818677316e-02
   254   -1.444615078844e-05
   255   -8.221057195676e-03
   256   -1.114366107584e-02
   257    8.633660598908e-03
   258    1.428465926345e-03
   259    4.266159371209e-03
   260   -3.854781114048e-05
   261    2.789337634480e-03
Sym=X
Ene= -0.181586
Spin=Alpha
Occup=1
     1   -1.609498180128e-03
     2   -2.569578587877e-03
     3    8.436595710400e-03
     4   -5.129635276495e-03
     5    1.360294727308e-02
     6    7.462564921225e-03
     7    1.303738939125e-02
     8   -8.424930648157e-03
     9    2.156775362362e-02
    10    3.019324834406e-02
    11    2.629892743611e-02
    12   -1.317408866581e-02
    13    2.191583906989e-02
    14    4.227134258453e-01
    15    2.623727020511e-01
    16    9.732883406007e-02
    17    5.106986821596e-03
    18    2.525897875250e-05
    19    6.486655720968e-03
    20    1.966742113207e-03
    21   -1.885122135741e-04
    22    1.879980004444e-03
    23    4.332933568935e-03
    24    6.911163075048e-03
    25   -1.177985875814e-02
    26    1.152442040819e-02
    27    4.189260171771e-02
    28   -1.805480914160e-02
    29   -1.953779593492e-02
    30    1.564162799934e-02
    31    7.305487296691e-02
    32   -6.886791052923e-02
    33    5.226354000227e-03
    34    2.855805285174e-02
    35    4.128454223686e-02
    36   -5.193166579679e-01
    37    3.460441067454e-01
    38   -4.446851082983e-02
    39    5.424509046098e-03
    40    3.345503813736e-04
    41   -8.010370107149e-04
    42   -5.390764006803e-03
    43    2.098298395288e-03
    44    1.557362447633e-03
    45   -4.774600045920e-03
    46   -7.840197569510e-03
    47    1.108096860410e-02
    48   -2.147766852993e-02
    49    4.452188106207e-02
    50    2.287722865889e-02
    51    1.869463190163e-02
    52   -3.743591600341e-02
    53    7.215897941130e-02
    54    1.081601356521e-01
    55    1.439832154681e-02
    56   -7.018993397562e-03
    57    6.748383447273e-02
    58    9.558882345132e-01
    59   -1.502992775809e-01
    60   -3.738422999246e-01
    61   -4.743904660202e-02
    62   -8.003236811335e-04
    63   -2.355964328898e-03
    64    3.253884450557e-04
    65    8.843196495538e-04
    66    2.692399082709e-03
    67   -1.985883538638e-03
    68   -3.230008678652e-03
    69    3.969568572916e-03
    70   -3.796249711961e-03
    71   -2.057857125625e-02
    72    1.045341687813e-02
    73    5.181327905029e-03
    74   -7.084832461529e-03
    75   -3.456152607598e-02
    76   -1.400417565134e-02
    77   -1.305984670691e-03
    78    5.856411301211e-03
    79   -2.378448542616e-02
    80   -1.041781718296e-01
    81   -2.938006478450e-02
    82    1.909467345459e-01
    83   -1.561097142537e-02
    84    1.474811513516e-04
    85   -1.166539138866e-03
    86    4.155605805889e-03
    87   -1.010025462764e-03
    88    1.270936864565e-03
    89   -6.351911275746e-03
    90   -7.089557296091e-03
    91    1.368286234716e-03
    92    1.179312761535e-03
    93    1.102809875957e-03
    94    1.174348027688e-02
    95   -2.438652460653e-03
    96   -2.705251471393e-03
    97   -8.176766840900e-03
    98    1.170128644173e-04
    99    1.641181664358e-04
   100   -6.956769580512e-03
   101   -1.028837748299e-02
   102   -1.332259487292e-02
   103   -1.610628294681e-04
   104   -1.151757756427e-02
   105   -1.894917827981e-02
   106   -2.032302672644e-02
   107   -8.086965442141e-03
   108    1.498228346260e-02
   109    2.776968665834e-02
   110   -2.271107568541e-02
   111   -1.495732940969e-01
   112    4.997608571757e-02
   113   -7.351656797765e-02
   114    6.549506689402e-03
   115    5.765853024930e-03
   116   -4.414780730506e-03
   117   -4.307820862770e-02
   118    1.061813256016e-02
   119   -1.672228807891e-02
   120   -1.292597201139e-03
   121   -2.113181142945e-03
   122    9.395154065921e-02
   123    7.584571428037e-02
   124    1.546631229049e-01
   125    7.730486134950e-03
   126    1.395352586650e-01
   127    1.115805796588e-01
   128    2.287630862794e-01
   129    1.914330050059e-02
   130    1.260226139096e-01
   131    1.065179440091e-01
   132    2.219419523127e-01
   133   -5.214665818731e-02
   134   -3.354039181716e-03
   135   -1.088134094743e-02
   136    1.997816019905e-02
   137   -1.402835357211e-03
   138   -7.587336945170e-03
   139    9.069480195913e-03
   140   -7.679192498608e-03
   141    2.524314761824e-03
   142    3.140239825270e-04
   143    4.480673502761e-04
   144   -3.854244950924e-02
   145    4.564501890289e-02
   146   -1.935869765255e-01
   147   -2.422308125407e-03
   148   -5.810657854770e-02
   149    6.647253247081e-02
   150   -2.874966274491e-01
   151   -2.177583469568e-02
   152   -5.370825438509e-02
   153    6.256903287961e-02
   154   -2.695465695460e-01
   155    9.456550697795e-02
   156   -1.632452171816e-02
   157   -1.650115132359e-02
   158   -1.616798665445e-02
   159   -9.485023336298e-04
   160    8.758065578791e-03
   161    1.355767510732e-02
   162    4.012113661102e-03
   163    1.090585737830e-03
   164    5.626762813365e-03
   165    9.160593641218e-03
   166   -2.054702772495e-02
   167    1.892698541826e-03
   168   -3.664975747703e-02
   169   -3.053431574752e-02
   170   -3.067896932355e-02
   171    2.671944794711e-03
   172   -5.945628849633e-02
   173   -3.470845818555e-02
   174   -3.551777679905e-02
   175    1.006722881396e-02
   176   -6.408239408504e-02
   177    2.969470047980e-01
   178   -1.123900985176e-01
   179    1.415379537731e-01
   180   -3.916068083900e-03
   181    1.437144652836e-03
   182   -1.389419118772e-03
   183   -1.493147671239e-04
   184   -7.012261263202e-04
   185   -4.901771345605e-04
   186    1.301556078237e-03
   187    2.141750968512e-03
   188    9.885286802164e-03
   189   -2.867689314880e-03
   190   -4.820819670207e-03
   191    2.149227230355e-02
   192    5.572273075125e-03
   193   -8.477750593276e-03
   194    1.707110604884e-02
   195    3.972288656799e-02
   196    7.573810003988e-03
   197   -1.978612896675e-02
   198    2.219824459920e-02
   199   -2.902559075656e-02
   200   -1.954102398244e-02
   201    2.523857437770e-03
   202   -9.656524198825e-01
   203   -1.959667771311e-01
   204   -2.827564259488e-01
   205    4.266284995123e-02
   206    2.608485447452e-03
   207    9.853618086848e-03
   208    6.638541935719e-03
   209   -5.438947211391e-03
   210    3.041183291942e-03
   211    2.527946704661e-04
   212   -5.325488083281e-03
   213    9.864130615943e-03
   214   -1.313846927863e-04
   215   -4.282022457536e-04
   216    1.185010590320e-03
   217    1.278058265760e-03
   218   -2.324035404526e-03
   219   -4.414581306062e-03
   220    7.558828505643e-03
   221    2.231112457110e-02
   222   -3.042938345797e-03
   223   -1.674514957909e-03
   224    1.384517243769e-03
   225   -2.511775221350e-02
   226   -1.380560639995e-02
   227    1.144099723687e-02
   228    6.552028432055e-02
   229    3.595843981930e-02
   230   -2.991828254319e-02
   231    2.422743028907e-02
   232    1.478435055702e-02
   233   -1.019544600175e-02
   234   -5.295789611910e-02
   235   -3.283076470071e-02
   236    2.183817897285e-02
   237   -1.256275294165e-01
   238   -6.363110025871e-02
   239    6.595947389119e-02
   240   -7.811670641343e-02
   241   -5.389444432067e-02
   242    1.996208586854e-02
   243   -2.499624288601e-03
   244    3.138026030915e-03
   245   -2.858988699164e-04
   246   -7.305883999313e-04
   247    1.378240003638e-03
   248   -4.157963796612e-04
   249    8.099513604400e-04
   250    1.612703425459e-04
   251   -3.512389663376e-05
   252    4.141632362876e-04
   253   -2.803825533954e-02
   254    3.950165353445e-03
   255   -1.083971709699e-02
   256   -8.293993928334e-03
   257    5.964791604533e-03
   258   -9.927476332696e-03
   259    1.209083941261e-04
   260    3.819893156842e-04
   261   -4.516970703816e-03
Sym=X
Ene= -0.261410
Spin=Alpha
Occup=1
     1   -1.105582108315e-03
     2   -1.761651735720e-03
     3    1.067195233075e-02
     4    2.469321770644e-03
     5    4.447593784175e-04
     6    4.803242408254e-03
     7    1.616702594406e-02
     8    3.626424475833e-03
     9   -4.051956878042e-05
    10    2.005466978592e-02
    11    2.700354439338e-02
    12    1.014072668393e-02
    13    3.173413746238e-03
    14    1.772251036482e-01
    15    1.082682275730e-01
    16    2.530782245700e-02
    17   -3.541340322935e-03
    18    4.420045536603e-04
    19   -1.529113576321e-02
    20   -8.596222790109e-03
    21    2.111151070338e-03
    22   -8.793687620674e-04
    23    2.837440061565e-05
    24    6.388430933552e-05
    25   -9.530620784671e-03
    26   -1.039389777688e-02
    27   -9.063337509532e-02
    28    1.422163375070e-03
    29   -1.507915059720e-02
    30   -1.579985083271e-02
    31   -1.492609199765e-01
    32   -1.331371967258e-02
    33    2.069640510647e-02
    34   -1.687793980637e-02
    35   -1.097623155295e-01
    36   -8.367592889509e-01
    37    5.341076387564e-02
    38    8.057136411349e-02
    39   -6.339749914121e-04
    40    1.328118409492e-04
    41   -5.212892944134e-03
    42    1.030884074024e-02
    43    3.762968583025e-03
    44   -2.255342198670e-03
    45    5.293701028220e-03
    46    8.780187262137e-03
    47    9.596498780766e-03
    48    1.889893729678e-02
    49   -1.043341181426e-01
    50   -3.191521994774e-02
    51    1.611864823366e-02
    52    2.991351467451e-02
    53   -1.676231630576e-01
    54   -5.563763298193e-03
    55   -2.577237878072e-03
    56   -3.038204309964e-02
    57   -1.703110354174e-01
    58    3.801345702923e-01
    59   -1.164524864771e-01
    60    2.892161092622e-01
    61   -3.010047397677e-02
    62    1.005001865179e-03
    63    4.862787731221e-03
    64   -9.972556888437e-03
    65    3.519556339411e-03
    66    2.668476991702e-04
    67    1.470732640302e-03
    68    2.388723587370e-03
    69   -1.021254122557e-02
    70    3.949781377458e-03
    71    8.201655169575e-02
    72   -8.860597314806e-03
    73   -1.464069897910e-02
    74    5.214446348694e-03
    75    1.372562650915e-01
    76    6.729307303097e-03
    77   -4.129193457112e-03
    78    1.175371135891e-02
    79    9.679626395264e-02
    80   -1.994891006667e-02
    81    2.858364670479e-03
    82    8.892864653340e-02
    83    1.156998717246e-02
    84   -5.549752361894e-04
    85    6.246427143119e-03
    86   -9.255301085024e-03
    87    3.244971552607e-03
    88   -8.084853127527e-04
    89   -1.929871795477e-03
    90   -4.160196198067e-03
    91   -2.010949844823e-03
    92   -1.171597682094e-02
    93   -1.769050531900e-02
    94    7.379315292976e-03
    95    9.515275357130e-03
    96    1.477044778227e-02
    97    7.633511830812e-03
    98   -1.279970386545e-03
    99   -2.099710302397e-03
   100   -6.531450441668e-03
   101   -4.407009082573e-03
   102    2.404922484303e-02
   103    7.068924676346e-03
   104   -9.973981199316e-03
   105   -9.183196452600e-03
   106    3.675944765501e-02
   107    7.281137880069e-03
   108   -4.720169742229e-03
   109    3.821228294749e-02
   110    4.053158658168e-02
   111    1.243418871223e-01
   112   -1.083093013950e-02
   113   -1.484213170197e-01
   114    3.652130918563e-02
   115    4.576466489529e-03
   116    1.260748428231e-02
   117   -1.990123595082e-02
   118    5.785930461620e-04
   119   -9.159534529023e-03
   120    4.570681995766e-04
   121    8.005121301225e-04
   122    2.716956456961e-02
   123    3.923219336286e-02
   124    1.120014762830e-01
   125   -2.716285457455e-03
   126    3.998903070786e-02
   127    5.758122311644e-02
   128    1.672246054708e-01
   129    1.688343401190e-02
   130    3.623617568262e-02
   131    5.801543249160e-02
   132    1.520948690351e-01
   133   -1.203660102558e-01
   134    1.317378734695e-02
   135   -2.603050276512e-02
   136    3.222260702504e-03
   137   -1.279974098728e-03
   138   -4.966175491964e-03
   139    8.665332331926e-03
   140   -3.297255285576e-03
   141   -5.589822365025e-05
   142    5.022272184141e-04
   143    7.913176141802e-04
   144   -2.825017575300e-02
   145    3.066092581289e-02
   146   -4.443107173649e-02
   147   -2.865278568031e-03
   148   -4.181874436708e-02
   149    4.490532222826e-02
   150   -6.500152866041e-02
   151   -2.099249422022e-02
   152   -3.622231407840e-02
   153    4.442276579622e-02