[Molden Format]
[Atoms] (Angs)
  C      1    6      0.51932475      1.23303451     -0.03194925
  C      2    6      1.94454413      1.26916358     -0.03672882
  C      3    6      2.62037793      0.09283428     -0.02499003
  C      4    6     -0.19603352      0.03013062      0.00102732
  H      5    1     -0.02069420      2.17423764     -0.04336646
  H      6    1      2.48281698      2.20891057     -0.03611879
  H      7    1     -1.27770137      0.03990295      0.01166953
  N      8    7      4.09213475      0.09594076      0.03662979
  O      9    8      4.63930696     -1.02169275      0.14459220
  O     10    8      4.66489883      1.19839699     -0.02327545
  C     11    6      0.49428518     -1.16712649      0.02099746
  H     12    1     -0.03251071     -2.11492669      0.05447935
  C     13    6      1.96291176     -1.21653219     -0.02111314
  H     14    1      2.44359113     -1.96306433      0.61513886
 Br     15   35      2.17304025     -1.94912156     -1.90618750
[GTO]
1    0
S    6    1.000000
   4.56324000E+03    1.96665000E-03 
   6.82024000E+02    1.52306000E-02 
   1.54973000E+02    7.61269000E-02 
   4.44553000E+01    2.60801000E-01 
   1.30290000E+01    6.16462000E-01 
   1.82773000E+00    2.21006000E-01 
SP   3    1.000000
   2.09642000E+01    1.14660000E-01   4.02487000E-02 
   4.80331000E+00    9.19999000E-01   2.37594000E-01 
   1.45933000E+00   -3.03068000E-03   8.15854000E-01 
SP   1    1.000000
   4.83456000E-01    1.00000000E+00   1.00000000E+00 
SP   1    1.000000
   1.45585000E-01    1.00000000E+00   1.00000000E+00 
SP   1    1.000000
   4.38000000E-02    1.00000000E+00   1.00000000E+00 
D    1    1.000000
   6.26000000E-01    1.00000000E+00 

2    0
S    6    1.000000
   4.56324000E+03    1.96665000E-03 
   6.82024000E+02    1.52306000E-02 
   1.54973000E+02    7.61269000E-02 
   4.44553000E+01    2.60801000E-01 
   1.30290000E+01    6.16462000E-01 
   1.82773000E+00    2.21006000E-01 
SP   3    1.000000
   2.09642000E+01    1.14660000E-01   4.02487000E-02 
   4.80331000E+00    9.19999000E-01   2.37594000E-01 
   1.45933000E+00   -3.03068000E-03   8.15854000E-01 
SP   1    1.000000
   4.83456000E-01    1.00000000E+00   1.00000000E+00 
SP   1    1.000000
   1.45585000E-01    1.00000000E+00   1.00000000E+00 
SP   1    1.000000
   4.38000000E-02    1.00000000E+00   1.00000000E+00 
D    1    1.000000
   6.26000000E-01    1.00000000E+00 

3    0
S    6    1.000000
   4.56324000E+03    1.96665000E-03 
   6.82024000E+02    1.52306000E-02 
   1.54973000E+02    7.61269000E-02 
   4.44553000E+01    2.60801000E-01 
   1.30290000E+01    6.16462000E-01 
   1.82773000E+00    2.21006000E-01 
SP   3    1.000000
   2.09642000E+01    1.14660000E-01   4.02487000E-02 
   4.80331000E+00    9.19999000E-01   2.37594000E-01 
   1.45933000E+00   -3.03068000E-03   8.15854000E-01 
SP   1    1.000000
   4.83456000E-01    1.00000000E+00   1.00000000E+00 
SP   1    1.000000
   1.45585000E-01    1.00000000E+00   1.00000000E+00 
SP   1    1.000000
   4.38000000E-02    1.00000000E+00   1.00000000E+00 
D    1    1.000000
   6.26000000E-01    1.00000000E+00 

4    0
S    6    1.000000
   4.56324000E+03    1.96665000E-03 
   6.82024000E+02    1.52306000E-02 
   1.54973000E+02    7.61269000E-02 
   4.44553000E+01    2.60801000E-01 
   1.30290000E+01    6.16462000E-01 
   1.82773000E+00    2.21006000E-01 
SP   3    1.000000
   2.09642000E+01    1.14660000E-01   4.02487000E-02 
   4.80331000E+00    9.19999000E-01   2.37594000E-01 
   1.45933000E+00   -3.03068000E-03   8.15854000E-01 
SP   1    1.000000
   4.83456000E-01    1.00000000E+00   1.00000000E+00 
SP   1    1.000000
   1.45585000E-01    1.00000000E+00   1.00000000E+00 
SP   1    1.000000
   4.38000000E-02    1.00000000E+00   1.00000000E+00 
D    1    1.000000
   6.26000000E-01    1.00000000E+00 

5    0
S    3    1.000000
   3.38650000E+01    2.54938000E-02 
   5.09479000E+00    1.90373000E-01 
   1.15879000E+00    8.52161000E-01 
S    1    1.000000
   3.25840000E-01    1.00000000E+00 
S    1    1.000000
   1.02741000E-01    1.00000000E+00 

6    0
S    3    1.000000
   3.38650000E+01    2.54938000E-02 
   5.09479000E+00    1.90373000E-01 
   1.15879000E+00    8.52161000E-01 
S    1    1.000000
   3.25840000E-01    1.00000000E+00 
S    1    1.000000
   1.02741000E-01    1.00000000E+00 

7    0
S    3    1.000000
   3.38650000E+01    2.54938000E-02 
   5.09479000E+00    1.90373000E-01 
   1.15879000E+00    8.52161000E-01 
S    1    1.000000
   3.25840000E-01    1.00000000E+00 
S    1    1.000000
   1.02741000E-01    1.00000000E+00 

8    0
S    6    1.000000
   6.29348000E+03    1.96979000E-03 
   9.49044000E+02    1.49613000E-02 
   2.18776000E+02    7.35006000E-02 
   6.36916000E+01    2.48937000E-01 
   1.88282000E+01    6.02460000E-01 
   2.72023000E+00    2.56202000E-01 
SP   3    1.000000
   3.06331000E+01    1.11906000E-01   3.83119000E-02 
   7.02614000E+00    9.21666000E-01   2.37403000E-01 
   2.11205000E+00   -2.56919000E-03   8.17592000E-01 
SP   1    1.000000
   6.84009000E-01    1.00000000E+00   1.00000000E+00 
SP   1    1.000000
   2.00878000E-01    1.00000000E+00   1.00000000E+00 
SP   1    1.000000
   6.39000000E-02    1.00000000E+00   1.00000000E+00 
D    1    1.000000
   9.13000000E-01    1.00000000E+00 

9    0
S    6    1.000000
   8.58850000E+03    1.89515000E-03 
   1.29723000E+03    1.43859000E-02 
   2.99296000E+02    7.07320000E-02 
   8.73771000E+01    2.40001000E-01 
   2.56789000E+01    5.94797000E-01 
   3.74004000E+00    2.80802000E-01 
SP   3    1.000000
   4.21175000E+01    1.13889000E-01   3.65114000E-02 
   9.62837000E+00    9.20811000E-01   2.37153000E-01 
   2.85332000E+00   -3.27447000E-03   8.19702000E-01 
SP   1    1.000000
   9.05661000E-01    1.00000000E+00   1.00000000E+00 
SP   1    1.000000
   2.55611000E-01    1.00000000E+00   1.00000000E+00 
SP   1    1.000000
   8.45000000E-02    1.00000000E+00   1.00000000E+00 
D    1    1.000000
   1.29200000E+00    1.00000000E+00 

10    0
S    6    1.000000
   8.58850000E+03    1.89515000E-03 
   1.29723000E+03    1.43859000E-02 
   2.99296000E+02    7.07320000E-02 
   8.73771000E+01    2.40001000E-01 
   2.56789000E+01    5.94797000E-01 
   3.74004000E+00    2.80802000E-01 
SP   3    1.000000
   4.21175000E+01    1.13889000E-01   3.65114000E-02 
   9.62837000E+00    9.20811000E-01   2.37153000E-01 
   2.85332000E+00   -3.27447000E-03   8.19702000E-01 
SP   1    1.000000
   9.05661000E-01    1.00000000E+00   1.00000000E+00 
SP   1    1.000000
   2.55611000E-01    1.00000000E+00   1.00000000E+00 
SP   1    1.000000
   8.45000000E-02    1.00000000E+00   1.00000000E+00 
D    1    1.000000
   1.29200000E+00    1.00000000E+00 

11    0
S    6    1.000000
   4.56324000E+03    1.96665000E-03 
   6.82024000E+02    1.52306000E-02 
   1.54973000E+02    7.61269000E-02 
   4.44553000E+01    2.60801000E-01 
   1.30290000E+01    6.16462000E-01 
   1.82773000E+00    2.21006000E-01 
SP   3    1.000000
   2.09642000E+01    1.14660000E-01   4.02487000E-02 
   4.80331000E+00    9.19999000E-01   2.37594000E-01 
   1.45933000E+00   -3.03068000E-03   8.15854000E-01 
SP   1    1.000000
   4.83456000E-01    1.00000000E+00   1.00000000E+00 
SP   1    1.000000
   1.45585000E-01    1.00000000E+00   1.00000000E+00 
SP   1    1.000000
   4.38000000E-02    1.00000000E+00   1.00000000E+00 
D    1    1.000000
   6.26000000E-01    1.00000000E+00 

12    0
S    3    1.000000
   3.38650000E+01    2.54938000E-02 
   5.09479000E+00    1.90373000E-01 
   1.15879000E+00    8.52161000E-01 
S    1    1.000000
   3.25840000E-01    1.00000000E+00 
S    1    1.000000
   1.02741000E-01    1.00000000E+00 

13    0
S    6    1.000000
   4.56324000E+03    1.96665000E-03 
   6.82024000E+02    1.52306000E-02 
   1.54973000E+02    7.61269000E-02 
   4.44553000E+01    2.60801000E-01 
   1.30290000E+01    6.16462000E-01 
   1.82773000E+00    2.21006000E-01 
SP   3    1.000000
   2.09642000E+01    1.14660000E-01   4.02487000E-02 
   4.80331000E+00    9.19999000E-01   2.37594000E-01 
   1.45933000E+00   -3.03068000E-03   8.15854000E-01 
SP   1    1.000000
   4.83456000E-01    1.00000000E+00   1.00000000E+00 
SP   1    1.000000
   1.45585000E-01    1.00000000E+00   1.00000000E+00 
SP   1    1.000000
   4.38000000E-02    1.00000000E+00   1.00000000E+00 
D    1    1.000000
   6.26000000E-01    1.00000000E+00 

14    0
S    3    1.000000
   3.38650000E+01    2.54938000E-02 
   5.09479000E+00    1.90373000E-01 
   1.15879000E+00    8.52161000E-01 
S    1    1.000000
   3.25840000E-01    1.00000000E+00 
S    1    1.000000
   1.02741000E-01    1.00000000E+00 

15    0
S    6    1.000000
   4.39700000E+05    8.13000000E-04 
   6.60300000E+04    6.28500000E-03 
   1.51400000E+04    3.19200000E-02 
   4.31700000E+03    1.28800000E-01 
   1.41400000E+03    3.94600000E-01 
   5.23900000E+02    5.41300000E-01 
S    3    1.000000
   5.23900000E+02    1.83100000E-01 
   2.07700000E+02    6.17600000E-01 
   8.65400000E+01    2.53800000E-01 
S    1    1.000000
   3.05200000E+01    1.00000000E+00 
S    1    1.000000
   1.29800000E+01    1.00000000E+00 
S    1    1.000000
   4.41200000E+00    1.00000000E+00 
S    1    1.000000
   1.86200000E+00    1.00000000E+00 
S    1    1.000000
   3.93200000E-01    1.00000000E+00 
S    1    1.000000
   1.40000000E-01    1.00000000E+00 
P    3    1.000000
   2.95700000E+03    2.22600000E-02 
   7.00300000E+02    1.80200000E-01 
   2.24600000E+02    8.62400000E-01 
P    3    1.000000
   8.25900000E+01    3.44000000E-01 
   3.31900000E+01    5.07100000E-01 
   1.42000000E+01    2.59000000E-01 
P    3    1.000000
   1.42000000E+01    7.96500000E-02 
   7.43800000E+00    3.73400000E-01 
   3.52600000E+00    6.04900000E-01 
P    1    1.000000
   1.59500000E+00    1.00000000E+00 
P    1    1.000000
   8.46200000E-01    1.00000000E+00 
P    1    1.000000
   3.18600000E-01    1.00000000E+00 
P    1    1.000000
   1.09600000E-01    1.00000000E+00 
D    4    1.000000
   1.34800000E+02    1.83100000E-02 
   3.63900000E+01    1.35000000E-01 
   1.21600000E+01    4.26100000E-01 
   4.34100000E+00    6.04300000E-01 
D    1    1.000000
   1.53500000E+00    1.00000000E+00 
SP   1    1.000000
   3.90000000E-02    1.00000000E+00   1.00000000E+00 
D    1    1.000000
   4.15000000E-01    1.00000000E+00 

[MO]
Sym=X
Ene= -0.269805
Spin=Alpha
Occup=1
     1    6.169254531609e-03
     2    1.001679885586e-02
     3    1.139573797377e-01
     4   -3.307281868571e-02
     5   -3.448092866666e-02
     6   -2.515552098357e-02
     7    1.715434169764e-01
     8   -5.641813952414e-02
     9   -5.743455465550e-02
    10   -7.963512683560e-02
    11    9.366878892420e-02
    12   -6.014700183010e-02
    13   -4.036150947666e-02
    14    4.594931119639e-01
    15    1.621183692105e-01
    16    1.582899063075e-02
    17    4.417101214285e-03
    18    1.175309210853e-03
    19    2.098138073421e-04
    20    4.882043327285e-03
    21    1.919118132558e-02
    22    1.852740114986e-02
    23   -2.152276645886e-02
    24   -3.441132173558e-02
    25   -8.892486249538e-02
    26    7.527282658725e-02
    27   -1.415789593739e-02
    28    9.662604455149e-02
    29   -1.247004359042e-01
    30    1.125786219896e-01
    31   -2.276676581710e-02
    32    7.985973026898e-02
    33   -9.129718737190e-02
    34    6.551633030561e-02
    35   -1.569061052722e-02
    36    2.856722626843e-01
    37    3.379513314896e-01
    38   -9.682157521888e-02
    39   -4.936649128853e-04
    40   -1.255267832886e-03
    41    3.613539243679e-03
    42    5.619207573099e-04
    43    8.331098540967e-03
    44    1.588577630458e-02
    45    3.113837661875e-02
    46    4.953212891791e-02
    47    4.390657113641e-02
    48   -5.116433881076e-02
    49    3.399684496053e-03
    50   -1.394664343499e-01
    51    6.013080555709e-02
    52   -6.946320909600e-02
    53    5.407077063010e-03
    54   -1.168431829247e-01
    55    4.617617572992e-02
    56    1.801549444438e-02
    57    5.183455072004e-03
    58    4.172681041130e-01
    59   -7.013027905258e-02
    60   -7.355534441360e-01
    61    4.831181875613e-04
    62   -3.202766867263e-04
    63    2.461361680882e-03
    64   -2.631139251338e-03
    65    1.112521689075e-02
    66   -4.844708321334e-03
    67   -1.492492065464e-03
    68   -2.563266963265e-03
    69   -6.282882189103e-02
    70    3.364476478251e-03
    71   -4.005123321909e-02
    72    5.786268638375e-03
    73   -9.594670309458e-02
    74    1.997431668809e-03
    75   -6.619729601727e-02
    76    5.939523650928e-02
    77   -7.439798588459e-02
    78    4.143900271846e-03
    79   -4.946756004497e-02
    80   -2.728572392977e-01
    81   -5.153482394840e-02
    82    1.100433395301e-01
    83   -1.032364383784e-02
    84   -1.680371473596e-04
    85   -4.522635286251e-03
    86   -1.618197135996e-04
    87    2.190523012808e-02
    88    2.927826982066e-03
    89   -8.259350561584e-02
    90   -1.038853403562e-01
    91   -1.857423529184e-02
    92    3.816154901295e-02
    93    4.726594378547e-02
    94   -3.591718941069e-03
    95    6.150027817555e-02
    96    8.003706303486e-02
    97    1.824885008252e-02
    98   -1.346186483492e-02
    99   -2.186557304137e-02
   100   -3.049673428029e-02
   101   -9.949908305049e-02
   102    1.186430039703e-02
   103    6.883144082667e-02
   104   -4.503770834049e-02
   105   -1.584504848202e-01
   106    1.908553916720e-02
   107    5.760787276922e-02
   108   -4.314444787856e-02
   109   -1.551622011667e-01
   110    1.583629920695e-02
   111   -1.094440001390e-01
   112   -6.563058398931e-03
   113    1.758342524885e-01
   114    1.012354718141e-03
   115    1.827845373338e-03
   116    5.269200959992e-05
   117   -6.953331718907e-03
   118   -2.576033124457e-03
   119   -1.486435963221e-03
   120    3.192804643906e-02
   121    5.200338871020e-02
   122   -6.465651582171e-02
   123    7.490392889382e-02
   124    2.062771213434e-02
   125   -1.533719729874e-01
   126   -9.433556176809e-02
   127    1.074083821831e-01
   128    3.097969115912e-02
   129   -2.362609022938e-01
   130   -4.342051867262e-02
   131    4.762667304498e-02
   132    3.465621179725e-02
   133    9.256900065311e-02
   134   -2.419740882319e-03
   135    1.044980329574e-02
   136   -2.340438219502e-03
   137   -5.763357996541e-03
   138   -3.583858798232e-04
   139    1.050877479318e-03
   140   -4.462885827189e-04
   141   -9.656764321034e-03
   142   -2.038185689707e-02
   143   -3.316362220131e-02
   144    3.755839740514e-02
   145    7.403430337566e-02
   146   -2.805652713302e-02
   147    9.545032803997e-02
   148    5.492006729038e-02
   149    1.072375673015e-01
   150   -4.143203274666e-02
   151    1.820832368329e-01
   152    1.419119830637e-02
   153    4.703112036237e-02
   154   -3.741479658713e-02
   155   -1.949734230226e-02
   156    2.148759210579e-03
   157   -9.661920977096e-03
   158   -6.445645045688e-03
   159    4.515946921116e-03
   160    1.181495865773e-03
   161    1.909049550222e-03
   162    2.783105800251e-03
   163   -5.898444654871e-03
   164    2.491212893339e-03
   165    3.975032599240e-03
   166    4.586012579831e-02
   167   -2.311963072247e-02
   168   -2.725141426093e-02
   169   -1.091609268416e-02
   170    6.559454646352e-02
   171   -3.269727128189e-02
   172   -4.437320540595e-02
   173   -3.572302798053e-02
   174    4.026734692656e-02
   175   -2.934465309391e-02
   176   -3.513699400851e-02
   177    2.588073769507e-01
   178   -8.132646844976e-02
   179    1.179796112549e-01
   180    1.180805839973e-02
   181   -5.419379396326e-04
   182    1.503321962210e-03
   183   -4.530977873533e-03
   184    9.986438236818e-03
   185   -4.306094776165e-03
   186   -8.962340960766e-03
   187   -1.621215911012e-02
   188   -4.205183017403e-03
   189   -9.335920080757e-03
   190   -1.492646445061e-02
   191   -3.561404365537e-02
   192   -1.419793048418e-02
   193    1.442339848235e-03
   194    4.192769465285e-02
   195   -5.059787485136e-02
   196   -2.145544096468e-02
   197    2.573096960494e-03
   198    8.414392468216e-02
   199   -3.894906001258e-02
   200    2.351200039236e-02
   201    3.252709202133e-03
   202   -1.117559475253e+00
   203   -1.897804639684e-01
   204   -2.574999188282e-01
   205   -5.593046549879e-03
   206   -8.481812846468e-04
   207    4.113548442567e-03
   208   -8.613560642413e-04
   209    6.895131615400e-03
   210    2.090650881305e-03
   211    1.783016103086e-03
   212   -1.908787227293e-03
   213    2.179625867625e-02
   214    1.067537880498e-04
   215    3.452886764186e-04
   216   -9.320225293441e-04
   217   -1.215065367317e-03
   218    2.533593298763e-03
   219    3.041848712254e-03
   220   -7.468222999524e-03
   221   -2.253553371746e-03
   222    1.161872107252e-05
   223    2.199562097146e-04
   224   -3.782284530845e-04
   225    1.055216102796e-04
   226    1.818898571126e-03
   227   -3.126848487809e-03
   228   -4.358786346879e-04
   229   -4.749187912349e-03
   230    8.254563243143e-03
   231    6.322212628816e-05
   232   -1.333586946867e-03
   233    3.164781291040e-03
   234    5.549533112299e-04
   235    2.800091960600e-03
   236   -7.532990788787e-03
   237    3.941824047242e-03
   238    1.007919870875e-02
   239   -1.732648269400e-02
   240    7.382600100965e-03
   241    1.315905522366e-03
   242   -1.137908281068e-02
   243   -8.392660175543e-04
   244    3.451617387486e-03
   245   -1.817659485615e-04
   246   -9.580104412110e-04
   247    1.403611753966e-03
   248   -1.487486440996e-04
   249    5.555700497137e-04
   250   -1.035790698556e-05
   251   -1.713012832650e-04
   252    2.356115175661e-04
   253   -1.091701877007e-03
   254   -5.090432654857e-03
   255   -3.225883029272e-04
   256    9.255332150901e-04
   257    4.108439249742e-04
   258   -4.433005496219e-03
   259    2.610415760389e-04
   260    1.142519725867e-03
   261   -1.823427005543e-03
Sym=X
Ene= -0.295805
Spin=Alpha
Occup=1
     1    1.698543248701e-03
     2    2.798998247725e-03
     3   -1.358754199041e-02
     4    7.846098857450e-03
     5   -3.890166910251e-02
     6   -1.108166568957e-02
     7   -2.053164882989e-02
     8    1.373214539982e-02
     9   -6.438930022280e-02
    10    4.255456328895e-02
    11    9.901535685581e-04
    12   -1.039205529605e-02
    13   -5.242189077588e-02
    14    4.684114818508e-02
    15   -5.683533403492e-02
    16   -5.547136836708e-02
    17    1.968612937826e-03
    18   -1.619717074157e-03
    19    1.377540623299e-02
    20    1.041933903782e-02
    21   -1.452050737550e-03
    22   -1.218975289055e-03
    23    8.034148968352e-04
    24    1.342979115245e-03
    25    1.149954369506e-02
    26    6.185556968862e-04
    27    6.738664027344e-02
    28   -4.926040321664e-03
    29    1.702345910954e-02
    30    3.735239316043e-03
    31    1.104126744773e-01
    32   -6.374042725685e-02
    33    2.761958617793e-02
    34    2.761623525044e-02
    35    9.259232731849e-02
    36   -2.697484884372e-01
    37   -1.145956859091e-01
    38    6.576720393520e-02
    39   -8.568747483221e-03
    40   -6.727475289866e-04
    41    8.722468360209e-03
    42   -9.569990867177e-03
    43   -3.088913982290e-03
    44    4.404430506164e-04
    45   -6.559353148241e-04
    46   -8.391725175892e-04
    47   -2.343937815149e-02
    48   -4.196277695803e-03
    49    9.246619167273e-02
    50    1.069113937730e-03
    51   -3.959434112453e-02
    52   -8.800137211328e-03
    53    1.531856515385e-01
    54    5.624319089055e-03
    55   -9.888817858479e-02
    56    2.474950280618e-02
    57    1.316133971502e-01
    58   -1.339184424356e-01
    59    3.348813767621e-02
    60    3.391483427491e-01
    61    2.040687591571e-02
    62   -1.077486732588e-03
    63   -4.192534934442e-03
    64    8.590050997235e-03
    65   -1.732792492261e-03
    66    3.396011299459e-03
    67    2.498044726270e-03
    68    4.082790825147e-03
    69    1.324781283696e-03
    70   -2.612664421013e-03
    71   -1.011919693233e-01
    72   -1.224388011115e-02
    73    1.068426574909e-03
    74   -4.346654648024e-03
    75   -1.676132109638e-01
    76   -4.883779691241e-02
    77   -1.499581409914e-02
    78    8.571583938555e-05
    79   -1.471450433352e-01
    80   -1.435406540713e-01
    81   -1.750736399729e-02
    82   -5.005184189808e-02
    83    2.626351409804e-03
    84   -1.118327217385e-03
    85   -7.190026038181e-03
    86    2.905907932737e-03
    87   -1.286955962222e-03
    88   -2.234576528911e-03
    89    1.035022920098e-02
    90    1.552194073884e-02
    91    9.437879074763e-03
    92    6.884462170304e-03
    93    6.849873837237e-03
    94    4.534723498888e-04
    95   -3.588236522550e-03
    96   -4.615156323643e-03
    97    5.113248038654e-03
    98    1.150137165441e-03
    99    1.968845028936e-03
   100    1.220767223292e-02
   101    1.052578249117e-02
   102   -4.691514994238e-03
   103   -8.349171448915e-03
   104    2.052995610542e-02
   105    1.673969226673e-02
   106   -5.230078788643e-03
   107    2.559704715352e-02
   108   -1.747009150701e-02
   109    5.098292119303e-03
   110   -1.502812408169e-02
   111    1.094080554632e-01
   112   -4.438726599508e-02
   113   -1.087789201524e-01
   114   -3.437831361487e-02
   115   -1.249622265154e-03
   116   -1.038387607718e-02
   117    8.962467128779e-04
   118   -5.934873999447e-03
   119   -1.509451347451e-03
   120   -5.439722488691e-04
   121   -8.573028146923e-04
   122   -4.653591904741e-03
   123   -2.951504293733e-03
   124   -2.962572833059e-02
   125    2.500611363451e-03
   126   -6.894978427147e-03
   127   -5.046592397899e-03
   128   -4.340495942843e-02
   129    7.598197912224e-03
   130   -4.323962518740e-03
   131    2.545637654065e-04
   132   -4.170355399673e-02
   133   -6.924805145610e-02
   134    9.676675056211e-03
   135   -9.921227318246e-03
   136    9.272656890137e-03
   137    9.262277399883e-04
   138    1.313673020914e-03
   139   -1.825922262181e-03
   140   -7.621588404057e-07
   141    8.589562435258e-04
   142    2.334763158549e-03
   143    3.816918981472e-03
   144   -3.545261817612e-02
   145   -1.853389375034e-03
   146   -2.513053409180e-02
   147   -1.113414711597e-02
   148   -5.205983420241e-02
   149   -2.174937653965e-03
   150   -3.778502983387e-02
   151   -1.743798552618e-02
   152   -4.450276325735e-02
   153    1.949119649916e-03
   154   -3.419198281224e-02
   155    5.223558795979e-02
   156   -1.227536405505e-03
   157   -6.352798699778e-03
   158    1.049571344814e-02
   159   -1.061201065608e-03
   160    3.943343754035e-04
   161    1.920414228311e-03
   162    9.124293935252e-04
   163    1.922075605120e-03
   164   -7.476817474591e-03
   165   -1.233467295512e-02
   166    9.795394656917e-03
   167   -1.490368507392e-03
   168   -6.678622362582e-02
   169    4.215112080367e-02
   170    1.855939317034e-02
   171   -2.802722307045e-03
   172   -1.128120956946e-01
   173    8.914251551893e-02
   174    2.746935999055e-02
   175    3.319639352680e-02
   176   -7.680284761871e-02
   177   -9.171900238313e-02
   178   -1.346363011746e-03
   179    1.078537429539e-02
   180   -4.553631404919e-03
   181   -5.083638317167e-03
   182    7.631193600209e-03
   183   -1.264594056656e-02
   184    7.015148352196e-04
   185    5.195656688351e-03
   186    5.356366388196e-03
   187    1.737075480543e-02
   188    2.887826594767e-02
   189   -6.860613142778e-04
   190   -1.083060061774e-03
   191   -1.407763837630e-02
   192    2.703522568746e-02
   193   -3.628991113717e-03
   194    6.173397359124e-03
   195   -2.576596903957e-02
   196    4.558134295488e-02
   197   -4.540144600152e-03
   198   -1.500393156612e-02
   199    5.317617314136e-02
   200   -2.937088595908e-02
   201    3.997663502718e-04
   202    4.332005615224e-01
   203    3.103397712931e-02
   204    5.687375181415e-02
   205    3.319029842950e-02
   206   -7.391099784805e-03
   207    3.926936347844e-04
   208    1.419589945997e-02
   209    9.803883176110e-04
   210   -3.181097033278e-03
   211   -2.690346339707e-02
   212   -6.508719391032e-02
   213   -5.005189963319e-02
   214   -1.831895407721e-04
   215   -5.937586218357e-04
   216    1.613084219725e-03
   217    1.979142708834e-03
   218   -3.976374970723e-03
   219   -5.362246943506e-03
   220    1.391811083330e-02
   221    2.912972915685e-03
   222    9.421156757942e-03
   223   -4.512640088200e-03
   224    2.673072964054e-03
   225    7.778842085122e-02
   226   -3.726023142620e-02
   227    2.206008128513e-02
   228   -2.034052478970e-01
   229    9.735207763759e-02
   230   -5.764773885120e-02
   231   -7.531242708025e-02
   232    3.556921244256e-02
   233   -2.213645254157e-02
   234    1.674926100619e-01
   235   -7.829581258867e-02
   236    4.935774863287e-02
   237    4.021260239906e-01
   238   -1.940094920170e-01
   239    1.119127216619e-01
   240    2.325690872983e-01
   241   -9.489999525784e-02
   242    6.231033661585e-02
   243   -9.640881119637e-04
   244   -2.757126646930e-04
   245    1.634853641491e-03
   246   -2.272307293999e-03
   247    1.090067043913e-04
   248    5.151943245739e-05
   249   -2.095882032792e-04
   250    1.703176509848e-04
   251   -2.130854115375e-04
   252   -2.268001806576e-04
   253    5.708644340029e-02
   254   -9.545942926271e-03
   255    1.275040137874e-02
   256    1.476020989082e-02
   257    3.136407890912e-03
   258    4.540972674774e-03
   259   -4.231500509492e-03
   260    4.088033801533e-03
   261    3.228543403683e-03
Sym=X
Ene= -0.403898
Spin=Alpha
Occup=1
     1    2.784165600307e-05
     2    5.650526931144e-05
     3    3.788690263406e-03
     4   -1.185474795406e-04
     5   -4.940353342759e-03
     6   -1.010785756479e-03
     7    6.427390227002e-03
     8    1.056459574344e-03
     9   -9.347733830217e-03
    10    2.200410707503e-02
    11    1.533118615304e-02
    12   -2.199539903900e-02
    13   -2.320950968011e-03
    14    1.856939756220e-01
    15    8.929108505931e-02
    16    2.895187945926e-02
    17   -2.162872707196e-03
    18   -1.246069053720e-04
    19   -1.098155388635e-02
    20   -5.795431894005e-03
    21    2.331933631437e-04
    22    2.687630410097e-03
    23    2.319515177035e-03
    24    3.570146177069e-03
    25   -5.209740303169e-03
    26    2.165055971526e-02
    27   -6.934549386541e-02
    28   -7.715615792612e-03
    29   -5.802302804410e-03
    30    3.352560610044e-02
    31   -1.128465309238e-01
    32   -7.021664282491e-02
    33   -5.104105626075e-03
    34    6.469978706340e-02
    35   -9.560181127793e-02
    36   -3.966172514867e-01
    37    1.366124885639e-01
    38    3.381242365662e-02
    39    6.561009414785e-03
    40   -4.737405957279e-04
    41   -3.712709020099e-03
    42    7.059740996886e-03
    43    5.097696282238e-04
    44    7.797990993039e-04
    45   -8.469900455404e-03
    46   -1.395394561025e-02
    47    2.536077991999e-02
    48   -2.209618019543e-02
    49   -6.970033565558e-02
    50    4.117618403822e-02
    51    4.566692657159e-02
    52   -3.468635194287e-02
    53   -1.153646490644e-01
    54    2.129459739073e-01
    55   -2.205976078951e-02
    56   -2.681791555510e-02
    57   -1.005869721136e-01
    58    8.807620857732e-01
    59   -1.945898782185e-01
    60   -1.711026750271e-01
    61   -4.359704444740e-02
    62   -2.563516153403e-03
    63    4.436643298343e-03
    64   -8.824511895828e-03
    65    4.381714125523e-03
    66    4.369227215622e-03
    67   -1.146132354281e-03
    68   -1.772405953948e-03
    69    2.372130802401e-03
    70    8.199385168156e-04
    71    5.390625332043e-02
    72    4.175230837291e-03
    73    2.785317290452e-03
    74    4.191822834088e-04
    75    8.897781585561e-02
    76   -2.313603555261e-02
    77   -4.825410855799e-03
    78    5.907728385014e-03
    79    7.130991245804e-02
    80    9.369565732453e-03
    81   -3.277252976020e-03
    82    4.652851243916e-02
    83    7.347432431560e-03
    84   -5.701937988463e-04
    85    3.637362718801e-03
    86   -6.141792332877e-03
    87    9.965198494199e-04
    88   -9.276110959349e-04
    89   -3.497613095782e-03
    90   -2.721139198302e-03
    91    6.889814666259e-03
    92    9.767515195798e-03
    93    7.929753976426e-03
    94   -1.748612398607e-03
    95    5.363265900347e-04
    96    2.524957464298e-03
    97    1.486547956435e-04
    98    3.152191462123e-04
    99    4.943006791128e-04
   100   -1.324433270070e-02
   101    1.211288032429e-02
   102    1.290462515680e-02
   103   -2.057396991539e-03
   104   -2.119805978910e-02
   105    1.783772730787e-02
   106    1.978888172264e-02
   107    1.921984009617e-02
   108    1.711671094427e-02
   109    2.628777323622e-02
   110    2.292091285494e-02
   111    3.778537192539e-02
   112    5.330217091463e-02
   113   -5.701345570719e-02
   114    2.451346387675e-02
   115    6.186752290307e-03
   116    8.601943533288e-03
   117   -3.129043548836e-02
   118    1.847846187531e-02
   119   -1.534836207175e-03
   120   -2.896717853840e-03
   121   -4.759905670929e-03
   122    7.832653046865e-02
   123    2.438368837825e-02
   124    1.545410362932e-01
   125    1.415935255326e-02
   126    1.149413701072e-01
   127    3.639617118044e-02
   128    2.297073107269e-01
   129    1.981931551590e-02
   130    1.023613556546e-01
   131    3.905121136547e-02
   132    2.144080874826e-01
   133   -6.577904573543e-02
   134   -3.599866247339e-03
   135   -1.571719118144e-02
   136    1.069617558281e-02
   137   -5.137941434848e-04
   138   -7.183094837051e-03
   139    1.101698256466e-02
   140   -4.351493237531e-03
   141    3.435330298882e-03
   142    2.503776883319e-03
   143    4.034890801346e-03
   144    3.674622071253e-02
   145   -1.016420398733e-02
   146   -1.028540764402e-01
   147   -1.236179868920e-02
   148    5.404700274668e-02
   149   -1.514882544047e-02
   150   -1.520083881753e-01
   151   -3.456773500041e-02
   152    5.176546712210e-02
   153   -6.340904434274e-03