[Molden Format]
[Atoms] (Angs)
  C      1    6      0.51932475      1.23303451     -0.03194925
  C      2    6      1.94454413      1.26916358     -0.03672882
  C      3    6      2.62037793      0.09283428     -0.02499003
  C      4    6     -0.19603352      0.03013062      0.00102732
  H      5    1     -0.02069420      2.17423764     -0.04336646
  H      6    1      2.48281698      2.20891057     -0.03611879
  H      7    1     -1.27770137      0.03990295      0.01166953
  N      8    7      4.09213475      0.09594076      0.03662979
  O      9    8      4.63930696     -1.02169275      0.14459220
  O     10    8      4.66489883      1.19839699     -0.02327545
  C     11    6      0.49428518     -1.16712649      0.02099746
  H     12    1     -0.03251071     -2.11492669      0.05447935
  C     13    6      1.96291176     -1.21653219     -0.02111314
  H     14    1      2.44359113     -1.96306433      0.61513886
 Br     15   35      2.17304025     -1.94912156     -1.90618750
[GTO]
1    0
S    6    1.000000
   4.56324000E+03    1.96665000E-03 
   6.82024000E+02    1.52306000E-02 
   1.54973000E+02    7.61269000E-02 
   4.44553000E+01    2.60801000E-01 
   1.30290000E+01    6.16462000E-01 
   1.82773000E+00    2.21006000E-01 
SP   3    1.000000
   2.09642000E+01    1.14660000E-01   4.02487000E-02 
   4.80331000E+00    9.19999000E-01   2.37594000E-01 
   1.45933000E+00   -3.03068000E-03   8.15854000E-01 
SP   1    1.000000
   4.83456000E-01    1.00000000E+00   1.00000000E+00 
SP   1    1.000000
   1.45585000E-01    1.00000000E+00   1.00000000E+00 
SP   1    1.000000
   4.38000000E-02    1.00000000E+00   1.00000000E+00 
D    1    1.000000
   6.26000000E-01    1.00000000E+00 

2    0
S    6    1.000000
   4.56324000E+03    1.96665000E-03 
   6.82024000E+02    1.52306000E-02 
   1.54973000E+02    7.61269000E-02 
   4.44553000E+01    2.60801000E-01 
   1.30290000E+01    6.16462000E-01 
   1.82773000E+00    2.21006000E-01 
SP   3    1.000000
   2.09642000E+01    1.14660000E-01   4.02487000E-02 
   4.80331000E+00    9.19999000E-01   2.37594000E-01 
   1.45933000E+00   -3.03068000E-03   8.15854000E-01 
SP   1    1.000000
   4.83456000E-01    1.00000000E+00   1.00000000E+00 
SP   1    1.000000
   1.45585000E-01    1.00000000E+00   1.00000000E+00 
SP   1    1.000000
   4.38000000E-02    1.00000000E+00   1.00000000E+00 
D    1    1.000000
   6.26000000E-01    1.00000000E+00 

3    0
S    6    1.000000
   4.56324000E+03    1.96665000E-03 
   6.82024000E+02    1.52306000E-02 
   1.54973000E+02    7.61269000E-02 
   4.44553000E+01    2.60801000E-01 
   1.30290000E+01    6.16462000E-01 
   1.82773000E+00    2.21006000E-01 
SP   3    1.000000
   2.09642000E+01    1.14660000E-01   4.02487000E-02 
   4.80331000E+00    9.19999000E-01   2.37594000E-01 
   1.45933000E+00   -3.03068000E-03   8.15854000E-01 
SP   1    1.000000
   4.83456000E-01    1.00000000E+00   1.00000000E+00 
SP   1    1.000000
   1.45585000E-01    1.00000000E+00   1.00000000E+00 
SP   1    1.000000
   4.38000000E-02    1.00000000E+00   1.00000000E+00 
D    1    1.000000
   6.26000000E-01    1.00000000E+00 

4    0
S    6    1.000000
   4.56324000E+03    1.96665000E-03 
   6.82024000E+02    1.52306000E-02 
   1.54973000E+02    7.61269000E-02 
   4.44553000E+01    2.60801000E-01 
   1.30290000E+01    6.16462000E-01 
   1.82773000E+00    2.21006000E-01 
SP   3    1.000000
   2.09642000E+01    1.14660000E-01   4.02487000E-02 
   4.80331000E+00    9.19999000E-01   2.37594000E-01 
   1.45933000E+00   -3.03068000E-03   8.15854000E-01 
SP   1    1.000000
   4.83456000E-01    1.00000000E+00   1.00000000E+00 
SP   1    1.000000
   1.45585000E-01    1.00000000E+00   1.00000000E+00 
SP   1    1.000000
   4.38000000E-02    1.00000000E+00   1.00000000E+00 
D    1    1.000000
   6.26000000E-01    1.00000000E+00 

5    0
S    3    1.000000
   3.38650000E+01    2.54938000E-02 
   5.09479000E+00    1.90373000E-01 
   1.15879000E+00    8.52161000E-01 
S    1    1.000000
   3.25840000E-01    1.00000000E+00 
S    1    1.000000
   1.02741000E-01    1.00000000E+00 

6    0
S    3    1.000000
   3.38650000E+01    2.54938000E-02 
   5.09479000E+00    1.90373000E-01 
   1.15879000E+00    8.52161000E-01 
S    1    1.000000
   3.25840000E-01    1.00000000E+00 
S    1    1.000000
   1.02741000E-01    1.00000000E+00 

7    0
S    3    1.000000
   3.38650000E+01    2.54938000E-02 
   5.09479000E+00    1.90373000E-01 
   1.15879000E+00    8.52161000E-01 
S    1    1.000000
   3.25840000E-01    1.00000000E+00 
S    1    1.000000
   1.02741000E-01    1.00000000E+00 

8    0
S    6    1.000000
   6.29348000E+03    1.96979000E-03 
   9.49044000E+02    1.49613000E-02 
   2.18776000E+02    7.35006000E-02 
   6.36916000E+01    2.48937000E-01 
   1.88282000E+01    6.02460000E-01 
   2.72023000E+00    2.56202000E-01 
SP   3    1.000000
   3.06331000E+01    1.11906000E-01   3.83119000E-02 
   7.02614000E+00    9.21666000E-01   2.37403000E-01 
   2.11205000E+00   -2.56919000E-03   8.17592000E-01 
SP   1    1.000000
   6.84009000E-01    1.00000000E+00   1.00000000E+00 
SP   1    1.000000
   2.00878000E-01    1.00000000E+00   1.00000000E+00 
SP   1    1.000000
   6.39000000E-02    1.00000000E+00   1.00000000E+00 
D    1    1.000000
   9.13000000E-01    1.00000000E+00 

9    0
S    6    1.000000
   8.58850000E+03    1.89515000E-03 
   1.29723000E+03    1.43859000E-02 
   2.99296000E+02    7.07320000E-02 
   8.73771000E+01    2.40001000E-01 
   2.56789000E+01    5.94797000E-01 
   3.74004000E+00    2.80802000E-01 
SP   3    1.000000
   4.21175000E+01    1.13889000E-01   3.65114000E-02 
   9.62837000E+00    9.20811000E-01   2.37153000E-01 
   2.85332000E+00   -3.27447000E-03   8.19702000E-01 
SP   1    1.000000
   9.05661000E-01    1.00000000E+00   1.00000000E+00 
SP   1    1.000000
   2.55611000E-01    1.00000000E+00   1.00000000E+00 
SP   1    1.000000
   8.45000000E-02    1.00000000E+00   1.00000000E+00 
D    1    1.000000
   1.29200000E+00    1.00000000E+00 

10    0
S    6    1.000000
   8.58850000E+03    1.89515000E-03 
   1.29723000E+03    1.43859000E-02 
   2.99296000E+02    7.07320000E-02 
   8.73771000E+01    2.40001000E-01 
   2.56789000E+01    5.94797000E-01 
   3.74004000E+00    2.80802000E-01 
SP   3    1.000000
   4.21175000E+01    1.13889000E-01   3.65114000E-02 
   9.62837000E+00    9.20811000E-01   2.37153000E-01 
   2.85332000E+00   -3.27447000E-03   8.19702000E-01 
SP   1    1.000000
   9.05661000E-01    1.00000000E+00   1.00000000E+00 
SP   1    1.000000
   2.55611000E-01    1.00000000E+00   1.00000000E+00 
SP   1    1.000000
   8.45000000E-02    1.00000000E+00   1.00000000E+00 
D    1    1.000000
   1.29200000E+00    1.00000000E+00 

11    0
S    6    1.000000
   4.56324000E+03    1.96665000E-03 
   6.82024000E+02    1.52306000E-02 
   1.54973000E+02    7.61269000E-02 
   4.44553000E+01    2.60801000E-01 
   1.30290000E+01    6.16462000E-01 
   1.82773000E+00    2.21006000E-01 
SP   3    1.000000
   2.09642000E+01    1.14660000E-01   4.02487000E-02 
   4.80331000E+00    9.19999000E-01   2.37594000E-01 
   1.45933000E+00   -3.03068000E-03   8.15854000E-01 
SP   1    1.000000
   4.83456000E-01    1.00000000E+00   1.00000000E+00 
SP   1    1.000000
   1.45585000E-01    1.00000000E+00   1.00000000E+00 
SP   1    1.000000
   4.38000000E-02    1.00000000E+00   1.00000000E+00 
D    1    1.000000
   6.26000000E-01    1.00000000E+00 

12    0
S    3    1.000000
   3.38650000E+01    2.54938000E-02 
   5.09479000E+00    1.90373000E-01 
   1.15879000E+00    8.52161000E-01 
S    1    1.000000
   3.25840000E-01    1.00000000E+00 
S    1    1.000000
   1.02741000E-01    1.00000000E+00 

13    0
S    6    1.000000
   4.56324000E+03    1.96665000E-03 
   6.82024000E+02    1.52306000E-02 
   1.54973000E+02    7.61269000E-02 
   4.44553000E+01    2.60801000E-01 
   1.30290000E+01    6.16462000E-01 
   1.82773000E+00    2.21006000E-01 
SP   3    1.000000
   2.09642000E+01    1.14660000E-01   4.02487000E-02 
   4.80331000E+00    9.19999000E-01   2.37594000E-01 
   1.45933000E+00   -3.03068000E-03   8.15854000E-01 
SP   1    1.000000
   4.83456000E-01    1.00000000E+00   1.00000000E+00 
SP   1    1.000000
   1.45585000E-01    1.00000000E+00   1.00000000E+00 
SP   1    1.000000
   4.38000000E-02    1.00000000E+00   1.00000000E+00 
D    1    1.000000
   6.26000000E-01    1.00000000E+00 

14    0
S    3    1.000000
   3.38650000E+01    2.54938000E-02 
   5.09479000E+00    1.90373000E-01 
   1.15879000E+00    8.52161000E-01 
S    1    1.000000
   3.25840000E-01    1.00000000E+00 
S    1    1.000000
   1.02741000E-01    1.00000000E+00 

15    0
S    6    1.000000
   4.39700000E+05    8.13000000E-04 
   6.60300000E+04    6.28500000E-03 
   1.51400000E+04    3.19200000E-02 
   4.31700000E+03    1.28800000E-01 
   1.41400000E+03    3.94600000E-01 
   5.23900000E+02    5.41300000E-01 
S    3    1.000000
   5.23900000E+02    1.83100000E-01 
   2.07700000E+02    6.17600000E-01 
   8.65400000E+01    2.53800000E-01 
S    1    1.000000
   3.05200000E+01    1.00000000E+00 
S    1    1.000000
   1.29800000E+01    1.00000000E+00 
S    1    1.000000
   4.41200000E+00    1.00000000E+00 
S    1    1.000000
   1.86200000E+00    1.00000000E+00 
S    1    1.000000
   3.93200000E-01    1.00000000E+00 
S    1    1.000000
   1.40000000E-01    1.00000000E+00 
P    3    1.000000
   2.95700000E+03    2.22600000E-02 
   7.00300000E+02    1.80200000E-01 
   2.24600000E+02    8.62400000E-01 
P    3    1.000000
   8.25900000E+01    3.44000000E-01 
   3.31900000E+01    5.07100000E-01 
   1.42000000E+01    2.59000000E-01 
P    3    1.000000
   1.42000000E+01    7.96500000E-02 
   7.43800000E+00    3.73400000E-01 
   3.52600000E+00    6.04900000E-01 
P    1    1.000000
   1.59500000E+00    1.00000000E+00 
P    1    1.000000
   8.46200000E-01    1.00000000E+00 
P    1    1.000000
   3.18600000E-01    1.00000000E+00 
P    1    1.000000
   1.09600000E-01    1.00000000E+00 
D    4    1.000000
   1.34800000E+02    1.83100000E-02 
   3.63900000E+01    1.35000000E-01 
   1.21600000E+01    4.26100000E-01 
   4.34100000E+00    6.04300000E-01 
D    1    1.000000
   1.53500000E+00    1.00000000E+00 
SP   1    1.000000
   3.90000000E-02    1.00000000E+00   1.00000000E+00 
D    1    1.000000
   4.15000000E-01    1.00000000E+00 

[MO]
Sym=X
Ene= -0.305417
Spin=Alpha
Occup=1
     1    7.744425945304e-03
     2    1.223318302315e-02
     3    5.102756128548e-02
     4    9.045433043918e-02
     5   -7.432653547957e-02
     6   -3.612330758588e-02
     7    7.120132957443e-02
     8    1.331579912433e-01
     9   -1.232953345560e-01
    10    1.787944966292e-03
    11    3.905206643887e-02
    12    1.012849700797e-01
    13   -8.644161439680e-02
    14    2.919767735008e-01
    15    2.392744325441e-02
    16   -3.760888103818e-02
    17   -6.554600813200e-03
    18   -1.198956304939e-03
    19   -1.491753326247e-03
    20    8.999262642346e-03
    21    9.960319208396e-05
    22   -1.432400774272e-02
    23   -3.856607738824e-03
    24   -6.053708369904e-03
    25   -3.184795393815e-02
    26   -4.133385455520e-02
    27   -4.704446793599e-02
    28    1.836926122840e-02
    29   -5.064157474628e-02
    30   -6.259421727561e-02
    31   -7.864065839510e-02
    32   -2.477759637554e-02
    33   -2.721040264714e-02
    34   -7.486952568366e-02
    35   -4.957873793385e-02
    36   -7.111093241295e-01
    37   -1.483019112894e-02
    38    9.050462786201e-02
    39    1.451464582867e-02
    40   -2.658492777930e-04
    41    6.970814307197e-03
    42    5.012322617945e-03
    43    7.679156081107e-03
    44   -1.409290563477e-02
    45    1.038998740865e-02
    46    1.661763960678e-02
    47    5.436147895126e-03
    48    5.242912709506e-02
    49   -3.194757040308e-02
    50   -4.494875789859e-02
    51    6.186316713657e-03
    52    7.360642144969e-02
    53   -5.236190922013e-02
    54   -1.269777375660e-01
    55   -1.053904735140e-03
    56    7.727429844247e-02
    57   -2.609741030974e-02
    58   -1.217310427106e-01
    59   -4.317608399805e-02
    60    4.047576591635e-01
    61   -2.219382656258e-02
    62    3.185937163994e-04
    63    6.311474575075e-03
    64   -1.132263839598e-03
    65    6.215087739021e-03
    66   -6.703326536727e-03
    67   -2.978328727776e-03
    68   -4.780292513139e-03
    69   -2.882144495104e-02
    70   -1.127650823226e-01
    71   -7.379227088289e-02
    72    1.257104971040e-02
    73   -4.510204719411e-02
    74   -1.606800752964e-01
    75   -1.225276866990e-01
    76    1.909251111938e-02
    77   -3.926992844605e-02
    78   -7.740046536322e-02
    79   -9.043642012737e-02
    80   -9.590460665716e-02
    81   -3.266424758668e-02
    82   -2.913482456580e-02
    83    7.957526236292e-03
    84   -4.535694265423e-04
    85   -9.085610958976e-03
    86   -3.882973813807e-04
    87    8.644416570714e-03
    88   -1.376073846932e-02
    89    4.202927911064e-02
    90    5.547647054154e-02
    91    7.719292846656e-03
    92   -4.473464239439e-02
    93   -5.682872788941e-02
    94    5.262342859806e-03
    95    2.856910848922e-02
    96    3.539743589932e-02
    97    9.279130726929e-03
    98   -1.892650531949e-03
    99   -3.036218592058e-03
   100   -2.001921132549e-02
   101   -1.503609001248e-02
   102    1.546527062120e-02
   103    8.613360474786e-03
   104   -2.994254529097e-02
   105   -2.295433591926e-02
   106    2.430601164148e-02
   107    1.247528534085e-02
   108   -4.611468749692e-02
   109   -1.426292601233e-02
   110    1.800024032627e-02
   111    1.043142498498e-01
   112   -3.715465632447e-02
   113   -1.004693081078e-01
   114    1.826830912931e-02
   115   -9.776561578614e-04
   116    3.558123907025e-03
   117    9.141507827524e-03
   118   -8.902102379006e-03
   119   -7.516215150389e-03
   120    2.176572868259e-04
   121    4.107743852596e-04
   122   -2.449924353675e-02
   123    5.889229202788e-03
   124   -3.134183305434e-02
   125   -1.401961155465e-03
   126   -3.625211164059e-02
   127    7.798952582950e-03
   128   -4.602456601025e-02
   129    3.775699524485e-03
   130   -2.683501911754e-02
   131    8.928928409269e-03
   132   -4.700244976543e-02
   133   -6.850706616363e-02
   134    1.323915264768e-02
   135   -1.229508791800e-02
   136   -6.466491421380e-03
   137   -3.305990953466e-04
   138    1.444085766092e-03
   139   -1.151041392201e-03
   140    1.305293912569e-03
   141   -2.058600523367e-03
   142   -4.972693707686e-03
   143   -8.111681988523e-03
   144   -3.023264315932e-02
   145    4.271125581262e-02
   146    4.720622858197e-02
   147    2.372385476991e-02
   148   -4.511089337920e-02
   149    6.280488348519e-02
   150    7.040892079998e-02
   151    4.002664643614e-02
   152   -4.290131304389e-02
   153    4.303382630534e-02
   154    6.492373813381e-02
   155    5.620074159487e-02
   156    2.894466423542e-03
   157   -1.109914745448e-02
   158    4.488797368796e-04
   159    1.435750041481e-03
   160   -2.530695467511e-03
   161   -3.733456491755e-03
   162    4.314405669652e-03
   163    5.629789816867e-04
   164   -2.821110558365e-04
   165   -2.797247947074e-04
   166    3.918643035489e-03
   167    1.008685359087e-01
   168   -6.361375788295e-02
   169    4.488108064693e-03
   170    9.489553036562e-03
   171    1.527427975563e-01
   172   -1.051622246453e-01
   173   -5.722008481926e-02
   174    2.445648825317e-03
   175    1.223028976878e-01
   176   -6.551001580475e-02
   177    2.039049623405e-02
   178    4.446779620077e-02
   179   -2.514185359239e-02
   180   -5.089365480845e-03
   181    2.297754301712e-03
   182    4.926147698449e-04
   183   -8.365143747844e-03
   184    1.107150098811e-02
   185   -2.178941327801e-02
   186   -8.247421637687e-02
   187   -1.035093796179e-01
   188   -1.277695742934e-02
   189   -5.371574597879e-03
   190   -8.372006458531e-03
   191   -1.520693001385e-02
   192   -5.586941052771e-02
   193   -3.969147050454e-02
   194    1.429891261871e-02
   195   -1.828121474708e-02
   196   -8.637607760758e-02
   197   -6.634399494495e-02
   198    1.320234166884e-01
   199   -1.023408196408e-02
   200   -6.055851479069e-02
   201   -6.297926611588e-02
   202    4.804711427748e-01
   203    1.019252789616e-01
   204    1.375628509803e-01
   205    3.102961072395e-02
   206    4.591138467840e-03
   207    5.298723740645e-03
   208   -5.099183772940e-04
   209   -9.200781659541e-04
   210   -1.507969443806e-02
   211    1.968771750495e-02
   212    2.049661055504e-02
   213    1.103548720320e-02
   214    1.320209780608e-03
   215    4.269137577843e-03
   216   -1.149542166274e-02
   217   -1.454186925134e-02
   218    2.948616511564e-02
   219    3.463834696826e-02
   220   -6.753159595010e-02
   221   -7.759181239624e-02
   222    1.202027424751e-03
   223   -1.036530992227e-03
   224    3.768108922531e-03
   225    9.927321900425e-03
   226   -8.577331210561e-03
   227    3.107221887668e-02
   228   -2.604443851367e-02
   229    2.267117076262e-02
   230   -8.063470890021e-02
   231   -9.710186011055e-03
   232    7.143060820517e-03
   233   -3.184302344063e-02
   234    2.208408199628e-02
   235   -1.665396727451e-02
   236    6.803199452621e-02
   237    5.186056227627e-02
   238   -5.114034132867e-02
   239    1.486104143423e-01
   240    3.960434461730e-02
   241   -3.398049426673e-02
   242    4.697122266478e-02
   243   -7.771116859148e-03
   244    1.880672804665e-03
   245   -3.533561253835e-03
   246    1.530893828868e-04
   247    1.655695585308e-03
   248   -4.372426146619e-04
   249    1.242838587926e-04
   250   -6.716769033998e-05
   251   -1.077794255550e-04
   252    1.542189493134e-04
   253    5.252977012541e-02
   254   -9.810402603540e-04
   255    8.308323707366e-03
   256    1.642386137629e-02
   257    1.307080045059e-02
   258   -2.508721943342e-03
   259    4.108816420145e-03
   260    9.050369914956e-04
   261   -2.427157043998e-03
Sym=X
Ene= -0.339110
Spin=Alpha
Occup=1
     1    3.982650952878e-03
     2    6.419866845196e-03
     3    3.422811662227e-02
     4    3.492761897285e-02
     5   -1.625430638755e-03
     6   -2.118530089682e-02
     7    4.818463303109e-02
     8    5.163155085079e-02
     9   -1.945249654791e-03
    10    2.586242680608e-02
    11    4.578410027851e-02
    12    2.067444240076e-02
    13   -7.500048179108e-03
    14   -8.879451135303e-02
    15    6.514809375435e-02
    16    6.652581165467e-02
    17    1.559777691334e-03
    18   -1.192767089226e-03
    19   -6.978318915342e-04
    20   -1.875069440066e-03
    21    1.174019236353e-02
    22   -4.462138031224e-03
    23    2.354701894421e-04
    24    7.368938093536e-04
    25   -3.979755368045e-02
    26   -5.971504068112e-02
    27    4.996313753019e-04
    28   -2.114283119609e-03
    29   -5.924411597055e-02
    30   -9.262296961126e-02
    31    7.952499310474e-04
    32   -6.285594532091e-02
    33   -2.504546810475e-02
    34   -5.925499439951e-02
    35   -8.752930318466e-03
    36    6.243263018824e-01
    37    1.347107672446e-01
    38   -1.588490337060e-01
    39   -3.471356814281e-03
    40    6.345178126206e-04
    41    1.459560257032e-03
    42   -2.815859547183e-03
    43    2.683561530950e-03
    44   -1.120239232379e-02
    45   -3.478031558364e-03
    46   -5.382363847335e-03
    47   -2.763720046501e-02
    48    3.076304642668e-02
    49    2.761566833837e-02
    50    1.661822707485e-02
    51   -4.288620412087e-02
    52    3.893965016938e-02
    53    4.467023624871e-02
    54    1.509911525963e-02
    55   -6.695408160015e-02
    56    8.443656652257e-03
    57    2.394787743910e-02
    58   -3.990470429406e-01
    59    1.029475955047e-01
    60   -3.449701124152e-01
    61    2.041906625173e-02
    62   -2.050879596505e-03
    63   -4.048627463300e-03
    64   -7.923215449036e-03
    65    1.663291940105e-02
    66   -1.581952007958e-03
    67    6.028024050056e-03
    68    9.331540029506e-03
    69   -9.923395794075e-02
    70    1.144811877017e-02
    71    1.653492096299e-02
    72   -2.916034902251e-02
    73   -1.537890176861e-01
    74    1.828235630270e-02
    75    2.713776984667e-02
    76    7.677610570350e-03
    77   -1.347854930636e-01
    78    4.256019617262e-03
    79    2.047965003240e-02
    80    3.362322216559e-02
    81    7.659986865069e-03
    82    9.216676729958e-02
    83   -1.057069747473e-02
    84   -1.558374799628e-03
    85    2.539876546506e-03
    86   -3.187509544046e-03
    87    2.049144620702e-02
    88   -2.304235336818e-03
    89    5.293904838644e-03
    90    6.292517211322e-03
    91    4.017239538001e-03
    92   -5.751899650077e-02
    93   -6.736468968609e-02
    94   -1.017254298567e-02
    95    8.397684052580e-02
    96    1.043151411848e-01
    97    1.407593563523e-02
    98   -6.419058797574e-03
    99   -1.038642737553e-02
   100   -4.259816988551e-03
   101   -3.805370557882e-02
   102   -1.813530024410e-02
   103    3.230697994450e-02
   104   -2.424035931482e-03
   105   -6.136199259178e-02
   106   -2.831965292090e-02
   107    5.174515928412e-02
   108   -3.761616362137e-02
   109   -2.924500638393e-02
   110   -2.713134974820e-02
   111   -6.027712513116e-02
   112   -3.434116842443e-02
   113    7.990946889755e-02
   114   -1.514024983820e-02
   115   -1.090332423961e-03
   116   -3.166297910250e-03
   117    7.782171919524e-03
   118   -6.358977038674e-03
   119   -8.941302340504e-03
   120    6.155989079622e-03
   121    9.999796670103e-03
   122   -1.557689201975e-02
   123    3.551259824487e-02
   124   -5.544402589907e-02
   125   -2.778203556561e-02
   126   -2.165276267547e-02
   127    5.113107433089e-02
   128   -8.266556779040e-02
   129   -4.921699845570e-02
   130   -1.195412449874e-02
   131    3.202244761683e-02
   132   -7.258710489151e-02
   133    8.420445572862e-02
   134   -9.318338087528e-03
   135    1.570610444087e-02
   136   -2.974338291126e-03
   137   -1.068169311402e-03
   138    2.679157807749e-03
   139   -5.044444255305e-03
   140   -1.728649007202e-03
   141   -3.422377087382e-03
   142   -5.101276041118e-03
   143   -8.345566745070e-03
   144   -1.348874725588e-02
   145    4.125141633849e-02
   146    1.782016242643e-02
   147    2.437238903293e-02
   148   -2.017853737408e-02
   149    6.043931057843e-02
   150    2.606487665086e-02
   151    4.293167783157e-02
   152   -2.499092821403e-02
   153    4.263481909638e-02
   154    3.062858407353e-02
   155   -7.930685857868e-03
   156    5.098720998004e-03
   157   -6.654402405834e-03
   158    7.475360746126e-03
   159    1.500356241301e-03
   160   -4.397304094657e-04
   161    1.209564558558e-05
   162    2.423629500514e-03
   163   -8.895975280437e-04
   164    2.487735052286e-04
   165    6.009753178325e-04
   166    1.031978105962e-01
   167   -1.755564311505e-02
   168    3.741586743982e-02
   169   -2.698081109981e-03
   170    1.530833106563e-01
   171   -2.013173870238e-02
   172    6.334364479396e-02
   173    2.740338174580e-02
   174    1.106787651996e-01
   175    2.196002473911e-02
   176    2.630997819829e-02
   177   -6.828458049079e-02
   178   -1.075490439863e-01
   179    7.030975584870e-02
   180    1.952887912093e-02
   181   -1.985575180751e-03
   182    5.470566252981e-03
   183    2.432559386028e-03
   184    1.799583349945e-02
   185   -2.460082919568e-03
   186   -3.300012268753e-02
   187   -4.273712835155e-02
   188    4.881048119154e-03
   189   -1.543919757481e-03
   190   -2.645397552925e-03
   191   -1.057143316707e-01
   192    2.235205461676e-02
   193    8.171230823825e-02
   194    2.025725320249e-02
   195   -1.614817057501e-01
   196    4.427073267552e-02
   197    1.396159382913e-01
   198   -1.056576918227e-01
   199   -1.001309881529e-01
   200   -4.047902373846e-03
   201    1.299259412567e-01
   202   -1.333263763915e-01
   203   -1.354829931891e-01
   204   -8.567889750043e-02
   205   -1.092870721445e-02
   206   -1.231780451505e-02
   207    8.079906344790e-04
   208    1.129448053275e-03
   209    3.746899390199e-03
   210   -2.305062400701e-04
   211   -1.086380749227e-02
   212   -9.714980359866e-03
   213   -2.053607287807e-02
   214   -2.476183314370e-03
   215   -8.007797348248e-03
   216    2.156559488992e-02
   217    2.715300460654e-02
   218   -5.482100901030e-02
   219   -6.478897037276e-02
   220    1.262643962235e-01
   221    1.187707049226e-01
   222   -1.861796515900e-03
   223   -4.319199179813e-03
   224   -4.755675765319e-03
   225   -1.536501483507e-02
   226   -3.564793947495e-02
   227   -3.922424324179e-02
   228    4.010551492214e-02
   229    9.286700376130e-02
   230    1.017672919159e-01
   231    1.496041533231e-02
   232    3.470687599917e-02
   233    3.963756291004e-02
   234   -3.277409458135e-02
   235   -7.510147624458e-02
   236   -8.401426512474e-02
   237   -7.879172833173e-02
   238   -1.805488046851e-01
   239   -1.915806278070e-01
   240   -3.972287709081e-02
   241   -6.705718170141e-02
   242   -4.343806658328e-02
   243    1.033330085618e-02
   244    2.401786616674e-03
   245    9.778595766497e-03
   246   -2.943262554149e-03
   247    5.755898228262e-04
   248    6.091672136367e-04
   249    2.512087380350e-04
   250    7.646541352408e-04
   251   -4.384862937817e-04
   252    9.725237516671e-06
   253    3.453602516349e-02
   254   -8.078833643285e-03
   255    8.544555800302e-03
   256    8.979569970959e-03
   257   -1.684502572683e-02
   258   -3.816388956116e-03
   259   -1.759923587534e-02
   260    5.813100780426e-03
   261   -6.514879153446e-04
Sym=X
Ene= -0.357775
Spin=Alpha
Occup=1
     1    3.849107206079e-03
     2    5.984318742677e-03
     3    2.441315012724e-02
     4    4.141985760367e-02
     5    5.890322517974e-03
     6   -1.557689859479e-02
     7    3.486525930689e-02
     8    6.052328569806e-02
     9    8.759154190777e-03
    10   -3.760905462170e-02
    11   -1.791391857006e-04
    12    4.612130520527e-02
    13    1.598298663050e-02
    14    1.780622291512e-01
    15    1.490146129440e-03
    16   -4.049533857933e-02
    17    1.145147193389e-02
    18    2.329824311028e-04
    19   -2.989327961596e-03
    20   -1.603907121225e-03
    21    3.030266459961e-03
    22   -6.422004382600e-03
    23   -3.789854612027e-03
    24   -6.151225086582e-03
    25   -1.555855447855e-02
    26   -2.907528093036e-02
    27   -1.908840504252e-02
    28    2.102897524603e-02
    29   -2.259059264255e-02
    30   -4.491550129818e-02
    31   -2.772667597611e-02
    32    1.777481511813e-02
    33   -4.996826399262e-02
    34   -3.883279241107e-02
    35   -3.019252166427e-02
    36   -4.885019459370e-01
    37   -1.618015804080e-02
    38    1.212700482068e-01
    39    1.095727270208e-03
    40    1.219588277626e-03
    41   -2.976128471666e-03
    42    1.993610490807e-03
    43    3.536318335342e-03
    44   -8.179178907883e-03
    45    4.381793741753e-03
    46    7.297583557891e-03
    47    6.767346339310e-03
    48    3.937918793646e-02
    49   -2.476515964464e-02
    50   -2.598268845407e-02
    51    1.030723487573e-02
    52    6.075806764596e-02
    53   -3.928938698541e-02
    54   -1.906344457247e-02
    55    5.329579156899e-02
    56    3.257267675067e-02
    57   -4.136634712124e-02
    58    1.100614527566e+00
    59   -1.459850466735e-01
    60   -1.091684107017e-01
    61   -5.020235182447e-02
    62    1.870182525940e-03
    63    1.669644655680e-03
    64   -6.654236585781e-03
    65    5.342253595231e-03
    66   -4.661904699337e-03
    67    4.512347676791e-04
    68    5.680025104942e-04
    69   -3.257374860479e-02
    70   -3.678759646074e-02
    71    1.866525248364e-02
    72   -1.844922890720e-03
    73   -4.999698247340e-02
    74   -5.089408534782e-02
    75    3.161588254933e-02
    76    1.949862380527e-02
    77   -3.417395735576e-02
    78   -3.217119053073e-02
    79    2.571665760904e-02
    80   -1.209186652372e-01
    81   -2.747174782993e-02
    82   -2.158132126392e-02
    83   -1.159665486585e-02
    84    8.110958353913e-05
    85    1.112811978059e-03
    86   -4.959470264549e-04
    87    6.713010133026e-03
    88   -4.986524467073e-03
    89    1.687338505714e-02
    90    2.228882363249e-02
    91   -1.669178508854e-03
    92   -2.889735963533e-02
    93   -3.590209536835e-02
    94   -1.469354061165e-03
    95    2.817638911800e-02
    96    3.672115669032e-02
    97   -6.884316001461e-05
    98   -1.915517717887e-03
    99   -3.167134277785e-03
   100   -9.957020900725e-03
   101   -9.500195944743e-03
   102    5.652196030183e-04
   103    1.181458092107e-02
   104   -1.534483533860e-02
   105   -1.357546471020e-02
   106    6.005222114096e-05
   107   -1.984939934491e-02
   108   -1.979963294919e-03
   109   -2.256517679404e-02
   110    6.178167088190e-03
   111   -1.883188687811e-01
   112    2.150992778707e-02
   113    4.488923509451e-02
   114    2.687833346277e-02
   115    6.790844945709e-03
   116    1.217195822171e-03
   117   -4.406577089181e-02
   118    2.337040406673e-03
   119    6.188784259019e-03
   120    1.720508217961e-03
   121    2.806520843194e-03
   122   -4.832572155669e-02
   123   -4.113770363152e-03
   124    1.826677289809e-01
   125   -8.801445771966e-03
   126   -7.157060784662e-02
   127   -5.802909706182e-03
   128    2.704471804952e-01
   129   -1.984837328685e-02
   130   -6.478909908294e-02
   131   -8.678185338284e-03
   132    2.594939703669e-01
   133    6.846343306316e-02
   134   -1.134668035922e-02
   135    1.931938280625e-02
   136    9.690710968688e-03
   137   -2.738999887088e-03
   138   -7.912704007197e-03
   139    1.192180167752e-02
   140    2.252290523191e-03
   141   -3.634461281707e-03
   142   -3.028574637537e-03
   143   -4.951542758878e-03
   144    4.054932489288e-02
   145   -2.265491466439e-02
   146   -1.660645226464e-01
   147    1.516822217021e-02
   148    6.036373304548e-02
   149   -3.354228736292e-02
   150   -2.461945162959e-01
   151    2.961334169918e-02
   152    5.098444269648e-02
   153   -4.126871435717e-02