[Molden Format]
[Atoms] (Angs)
  C      1    6      0.51932475      1.23303451     -0.03194925
  C      2    6      1.94454413      1.26916358     -0.03672882
  C      3    6      2.62037793      0.09283428     -0.02499003
  C      4    6     -0.19603352      0.03013062      0.00102732
  H      5    1     -0.02069420      2.17423764     -0.04336646
  H      6    1      2.48281698      2.20891057     -0.03611879
  H      7    1     -1.27770137      0.03990295      0.01166953
  N      8    7      4.09213475      0.09594076      0.03662979
  O      9    8      4.63930696     -1.02169275      0.14459220
  O     10    8      4.66489883      1.19839699     -0.02327545
  C     11    6      0.49428518     -1.16712649      0.02099746
  H     12    1     -0.03251071     -2.11492669      0.05447935
  C     13    6      1.96291176     -1.21653219     -0.02111314
  H     14    1      2.44359113     -1.96306433      0.61513886
 Br     15   35      2.17304025     -1.94912156     -1.90618750
[GTO]
1    0
S    6    1.000000
   4.56324000E+03    1.96665000E-03 
   6.82024000E+02    1.52306000E-02 
   1.54973000E+02    7.61269000E-02 
   4.44553000E+01    2.60801000E-01 
   1.30290000E+01    6.16462000E-01 
   1.82773000E+00    2.21006000E-01 
SP   3    1.000000
   2.09642000E+01    1.14660000E-01   4.02487000E-02 
   4.80331000E+00    9.19999000E-01   2.37594000E-01 
   1.45933000E+00   -3.03068000E-03   8.15854000E-01 
SP   1    1.000000
   4.83456000E-01    1.00000000E+00   1.00000000E+00 
SP   1    1.000000
   1.45585000E-01    1.00000000E+00   1.00000000E+00 
SP   1    1.000000
   4.38000000E-02    1.00000000E+00   1.00000000E+00 
D    1    1.000000
   6.26000000E-01    1.00000000E+00 

2    0
S    6    1.000000
   4.56324000E+03    1.96665000E-03 
   6.82024000E+02    1.52306000E-02 
   1.54973000E+02    7.61269000E-02 
   4.44553000E+01    2.60801000E-01 
   1.30290000E+01    6.16462000E-01 
   1.82773000E+00    2.21006000E-01 
SP   3    1.000000
   2.09642000E+01    1.14660000E-01   4.02487000E-02 
   4.80331000E+00    9.19999000E-01   2.37594000E-01 
   1.45933000E+00   -3.03068000E-03   8.15854000E-01 
SP   1    1.000000
   4.83456000E-01    1.00000000E+00   1.00000000E+00 
SP   1    1.000000
   1.45585000E-01    1.00000000E+00   1.00000000E+00 
SP   1    1.000000
   4.38000000E-02    1.00000000E+00   1.00000000E+00 
D    1    1.000000
   6.26000000E-01    1.00000000E+00 

3    0
S    6    1.000000
   4.56324000E+03    1.96665000E-03 
   6.82024000E+02    1.52306000E-02 
   1.54973000E+02    7.61269000E-02 
   4.44553000E+01    2.60801000E-01 
   1.30290000E+01    6.16462000E-01 
   1.82773000E+00    2.21006000E-01 
SP   3    1.000000
   2.09642000E+01    1.14660000E-01   4.02487000E-02 
   4.80331000E+00    9.19999000E-01   2.37594000E-01 
   1.45933000E+00   -3.03068000E-03   8.15854000E-01 
SP   1    1.000000
   4.83456000E-01    1.00000000E+00   1.00000000E+00 
SP   1    1.000000
   1.45585000E-01    1.00000000E+00   1.00000000E+00 
SP   1    1.000000
   4.38000000E-02    1.00000000E+00   1.00000000E+00 
D    1    1.000000
   6.26000000E-01    1.00000000E+00 

4    0
S    6    1.000000
   4.56324000E+03    1.96665000E-03 
   6.82024000E+02    1.52306000E-02 
   1.54973000E+02    7.61269000E-02 
   4.44553000E+01    2.60801000E-01 
   1.30290000E+01    6.16462000E-01 
   1.82773000E+00    2.21006000E-01 
SP   3    1.000000
   2.09642000E+01    1.14660000E-01   4.02487000E-02 
   4.80331000E+00    9.19999000E-01   2.37594000E-01 
   1.45933000E+00   -3.03068000E-03   8.15854000E-01 
SP   1    1.000000
   4.83456000E-01    1.00000000E+00   1.00000000E+00 
SP   1    1.000000
   1.45585000E-01    1.00000000E+00   1.00000000E+00 
SP   1    1.000000
   4.38000000E-02    1.00000000E+00   1.00000000E+00 
D    1    1.000000
   6.26000000E-01    1.00000000E+00 

5    0
S    3    1.000000
   3.38650000E+01    2.54938000E-02 
   5.09479000E+00    1.90373000E-01 
   1.15879000E+00    8.52161000E-01 
S    1    1.000000
   3.25840000E-01    1.00000000E+00 
S    1    1.000000
   1.02741000E-01    1.00000000E+00 

6    0
S    3    1.000000
   3.38650000E+01    2.54938000E-02 
   5.09479000E+00    1.90373000E-01 
   1.15879000E+00    8.52161000E-01 
S    1    1.000000
   3.25840000E-01    1.00000000E+00 
S    1    1.000000
   1.02741000E-01    1.00000000E+00 

7    0
S    3    1.000000
   3.38650000E+01    2.54938000E-02 
   5.09479000E+00    1.90373000E-01 
   1.15879000E+00    8.52161000E-01 
S    1    1.000000
   3.25840000E-01    1.00000000E+00 
S    1    1.000000
   1.02741000E-01    1.00000000E+00 

8    0
S    6    1.000000
   6.29348000E+03    1.96979000E-03 
   9.49044000E+02    1.49613000E-02 
   2.18776000E+02    7.35006000E-02 
   6.36916000E+01    2.48937000E-01 
   1.88282000E+01    6.02460000E-01 
   2.72023000E+00    2.56202000E-01 
SP   3    1.000000
   3.06331000E+01    1.11906000E-01   3.83119000E-02 
   7.02614000E+00    9.21666000E-01   2.37403000E-01 
   2.11205000E+00   -2.56919000E-03   8.17592000E-01 
SP   1    1.000000
   6.84009000E-01    1.00000000E+00   1.00000000E+00 
SP   1    1.000000
   2.00878000E-01    1.00000000E+00   1.00000000E+00 
SP   1    1.000000
   6.39000000E-02    1.00000000E+00   1.00000000E+00 
D    1    1.000000
   9.13000000E-01    1.00000000E+00 

9    0
S    6    1.000000
   8.58850000E+03    1.89515000E-03 
   1.29723000E+03    1.43859000E-02 
   2.99296000E+02    7.07320000E-02 
   8.73771000E+01    2.40001000E-01 
   2.56789000E+01    5.94797000E-01 
   3.74004000E+00    2.80802000E-01 
SP   3    1.000000
   4.21175000E+01    1.13889000E-01   3.65114000E-02 
   9.62837000E+00    9.20811000E-01   2.37153000E-01 
   2.85332000E+00   -3.27447000E-03   8.19702000E-01 
SP   1    1.000000
   9.05661000E-01    1.00000000E+00   1.00000000E+00 
SP   1    1.000000
   2.55611000E-01    1.00000000E+00   1.00000000E+00 
SP   1    1.000000
   8.45000000E-02    1.00000000E+00   1.00000000E+00 
D    1    1.000000
   1.29200000E+00    1.00000000E+00 

10    0
S    6    1.000000
   8.58850000E+03    1.89515000E-03 
   1.29723000E+03    1.43859000E-02 
   2.99296000E+02    7.07320000E-02 
   8.73771000E+01    2.40001000E-01 
   2.56789000E+01    5.94797000E-01 
   3.74004000E+00    2.80802000E-01 
SP   3    1.000000
   4.21175000E+01    1.13889000E-01   3.65114000E-02 
   9.62837000E+00    9.20811000E-01   2.37153000E-01 
   2.85332000E+00   -3.27447000E-03   8.19702000E-01 
SP   1    1.000000
   9.05661000E-01    1.00000000E+00   1.00000000E+00 
SP   1    1.000000
   2.55611000E-01    1.00000000E+00   1.00000000E+00 
SP   1    1.000000
   8.45000000E-02    1.00000000E+00   1.00000000E+00 
D    1    1.000000
   1.29200000E+00    1.00000000E+00 

11    0
S    6    1.000000
   4.56324000E+03    1.96665000E-03 
   6.82024000E+02    1.52306000E-02 
   1.54973000E+02    7.61269000E-02 
   4.44553000E+01    2.60801000E-01 
   1.30290000E+01    6.16462000E-01 
   1.82773000E+00    2.21006000E-01 
SP   3    1.000000
   2.09642000E+01    1.14660000E-01   4.02487000E-02 
   4.80331000E+00    9.19999000E-01   2.37594000E-01 
   1.45933000E+00   -3.03068000E-03   8.15854000E-01 
SP   1    1.000000
   4.83456000E-01    1.00000000E+00   1.00000000E+00 
SP   1    1.000000
   1.45585000E-01    1.00000000E+00   1.00000000E+00 
SP   1    1.000000
   4.38000000E-02    1.00000000E+00   1.00000000E+00 
D    1    1.000000
   6.26000000E-01    1.00000000E+00 

12    0
S    3    1.000000
   3.38650000E+01    2.54938000E-02 
   5.09479000E+00    1.90373000E-01 
   1.15879000E+00    8.52161000E-01 
S    1    1.000000
   3.25840000E-01    1.00000000E+00 
S    1    1.000000
   1.02741000E-01    1.00000000E+00 

13    0
S    6    1.000000
   4.56324000E+03    1.96665000E-03 
   6.82024000E+02    1.52306000E-02 
   1.54973000E+02    7.61269000E-02 
   4.44553000E+01    2.60801000E-01 
   1.30290000E+01    6.16462000E-01 
   1.82773000E+00    2.21006000E-01 
SP   3    1.000000
   2.09642000E+01    1.14660000E-01   4.02487000E-02 
   4.80331000E+00    9.19999000E-01   2.37594000E-01 
   1.45933000E+00   -3.03068000E-03   8.15854000E-01 
SP   1    1.000000
   4.83456000E-01    1.00000000E+00   1.00000000E+00 
SP   1    1.000000
   1.45585000E-01    1.00000000E+00   1.00000000E+00 
SP   1    1.000000
   4.38000000E-02    1.00000000E+00   1.00000000E+00 
D    1    1.000000
   6.26000000E-01    1.00000000E+00 

14    0
S    3    1.000000
   3.38650000E+01    2.54938000E-02 
   5.09479000E+00    1.90373000E-01 
   1.15879000E+00    8.52161000E-01 
S    1    1.000000
   3.25840000E-01    1.00000000E+00 
S    1    1.000000
   1.02741000E-01    1.00000000E+00 

15    0
S    6    1.000000
   4.39700000E+05    8.13000000E-04 
   6.60300000E+04    6.28500000E-03 
   1.51400000E+04    3.19200000E-02 
   4.31700000E+03    1.28800000E-01 
   1.41400000E+03    3.94600000E-01 
   5.23900000E+02    5.41300000E-01 
S    3    1.000000
   5.23900000E+02    1.83100000E-01 
   2.07700000E+02    6.17600000E-01 
   8.65400000E+01    2.53800000E-01 
S    1    1.000000
   3.05200000E+01    1.00000000E+00 
S    1    1.000000
   1.29800000E+01    1.00000000E+00 
S    1    1.000000
   4.41200000E+00    1.00000000E+00 
S    1    1.000000
   1.86200000E+00    1.00000000E+00 
S    1    1.000000
   3.93200000E-01    1.00000000E+00 
S    1    1.000000
   1.40000000E-01    1.00000000E+00 
P    3    1.000000
   2.95700000E+03    2.22600000E-02 
   7.00300000E+02    1.80200000E-01 
   2.24600000E+02    8.62400000E-01 
P    3    1.000000
   8.25900000E+01    3.44000000E-01 
   3.31900000E+01    5.07100000E-01 
   1.42000000E+01    2.59000000E-01 
P    3    1.000000
   1.42000000E+01    7.96500000E-02 
   7.43800000E+00    3.73400000E-01 
   3.52600000E+00    6.04900000E-01 
P    1    1.000000
   1.59500000E+00    1.00000000E+00 
P    1    1.000000
   8.46200000E-01    1.00000000E+00 
P    1    1.000000
   3.18600000E-01    1.00000000E+00 
P    1    1.000000
   1.09600000E-01    1.00000000E+00 
D    4    1.000000
   1.34800000E+02    1.83100000E-02 
   3.63900000E+01    1.35000000E-01 
   1.21600000E+01    4.26100000E-01 
   4.34100000E+00    6.04300000E-01 
D    1    1.000000
   1.53500000E+00    1.00000000E+00 
SP   1    1.000000
   3.90000000E-02    1.00000000E+00   1.00000000E+00 
D    1    1.000000
   4.15000000E-01    1.00000000E+00 

[MO]
Sym=X
Ene= -0.220593
Spin=Alpha
Occup=1
     1   -7.585426542645e-04
     2   -1.060378323011e-03
     3    1.854707592886e-02
     4   -1.749180645892e-02
     5    1.173318780585e-02
     6    2.119547797838e-03
     7    2.841438773859e-02
     8   -2.646198603043e-02
     9    1.995101977714e-02
    10    1.285697404032e-02
    11    1.956168009630e-02
    12   -4.459365383320e-02
    13    7.934120296418e-03
    14   -3.757488789271e-02
    15   -8.856152966611e-02
    16   -5.821641603074e-02
    17    2.578006089885e-03
    18   -3.878756829541e-04
    19    1.524530006688e-02
    20    5.027107067872e-03
    21    5.275281442939e-03
    22    2.589445115930e-03
    23   -1.280266937254e-03
    24   -1.931785255788e-03
    25   -1.900960276276e-02
    26   -1.837253364626e-02
    27    1.017857855150e-01
    28    6.776906316791e-03
    29   -2.710773818831e-02
    30   -2.728527172521e-02
    31    1.673178513293e-01
    32   -6.054421898223e-02
    33   -3.603061312494e-02
    34    1.229235818943e-02
    35    1.317043805015e-01
    36   -7.562284421094e-02
    37   -1.357060594465e-01
    38    5.213100593805e-02
    39   -1.284897684658e-02
    40    6.872794559865e-04
    41    3.682856294031e-03
    42   -1.213482985786e-02
    43    2.195958770187e-03
    44   -2.014203387953e-03
    45   -3.369001990540e-03
    46   -5.417458097583e-03
    47    1.232132542494e-02
    48    1.309158722923e-02
    49    1.069244658802e-01
    50    1.423115820008e-02
    51    2.121537801161e-02
    52    1.757742114113e-02
    53    1.760115531462e-01
    54    1.029340738786e-01
    55   -3.159826693271e-02
    56    3.510297047380e-02
    57    1.486239848561e-01
    58   -4.510671622250e-02
    59    2.526541277397e-04
    60    2.285603532626e-01
    61    2.298193602228e-02
    62   -1.104537743428e-03
    63   -7.545504193060e-03
    64    1.310583897708e-02
    65    6.273879810627e-03
    66   -2.421607563599e-03
    67   -1.468752371342e-03
    68   -2.319915217063e-03
    69   -2.262258773525e-02
    70    1.566594435512e-02
    71   -5.355886515943e-02
    72    5.134522791784e-03
    73   -3.630134143659e-02
    74    2.308357840626e-02
    75   -8.891197725056e-02
    76   -3.191157963468e-02
    77   -4.586451940240e-02
    78    9.695809141096e-03
    79   -8.887669800894e-02
    80   -8.181865159087e-02
    81   -1.596499465285e-02
    82   -8.122121368962e-02
    83    3.758492862589e-03
    84   -1.734642492004e-03
    85   -1.879186886203e-03
    86    4.879250015642e-03
    87    4.949742338994e-03
    88    2.872313359369e-03
    89   -2.033844326419e-02
    90   -2.212805034504e-02
    91    4.447567935458e-03
    92   -2.037875176806e-02
    93   -2.495965111511e-02
    94   -9.527999506401e-03
    95    2.178093254400e-02
    96    2.662317627598e-02
    97    6.742606378319e-03
    98    5.976475317233e-04
    99    1.040842596390e-03
   100   -1.492168549061e-02
   101   -4.230663078666e-03
   102   -2.031717985270e-02
   103   -5.654750183054e-03
   104   -2.294529459378e-02
   105   -5.773505406949e-03
   106   -2.961840356654e-02
   107    2.303299496190e-02
   108   -1.531781644600e-03
   109   -2.348294562160e-02
   110   -3.210798821381e-02
   111    1.124964265169e-01
   112    1.200678194252e-02
   113   -3.337602977532e-02
   114   -4.502744905563e-02
   115    7.154055467005e-04
   116   -1.215319882047e-02
   117    1.456514046815e-04
   118    9.915271658360e-03
   119    2.418795435315e-03
   120    1.295446671420e-03
   121    2.098931215670e-03
   122    1.963977399588e-02
   123   -1.034202737678e-02
   124   -2.808137901113e-02
   125   -6.748908765757e-03
   126    2.806385074066e-02
   127   -1.553029237716e-02
   128   -4.150071069079e-02
   129   -2.243626170391e-02
   130    3.265696149325e-02
   131   -1.665268897921e-02
   132   -3.557744239046e-02
   133   -4.240006696271e-02
   134    1.089636572737e-03
   135   -7.176505399435e-03
   136    1.212346352418e-02
   137    1.126881921057e-03
   138    1.632952879954e-03
   139   -2.525736197835e-03
   140    5.098181214522e-04
   141    1.397278513941e-03
   142   -3.598367120979e-03
   143   -5.887588915891e-03
   144    5.015518576872e-02
   145   -9.789068280259e-03
   146   -4.159929053205e-02
   147    1.774106734807e-02
   148    7.377288444494e-02
   149   -1.489768137306e-02
   150   -6.267107318122e-02
   151    2.303091726975e-02
   152    6.507288402278e-02
   153   -1.758948470612e-02
   154   -5.367319453322e-02
   155   -2.024610029634e-02
   156    1.140188635852e-04
   157    7.870692262272e-03
   158    1.177985203262e-02
   159    6.178481996593e-04
   160    1.700098428365e-03
   161    3.857602672812e-03
   162   -2.290605386421e-03
   163   -2.314753175497e-03
   164   -2.668956177092e-03
   165   -4.791079705763e-03
   166    1.449151338068e-02
   167   -2.903831369991e-02
   168   -3.868255024741e-02
   169    2.001213017082e-02
   170    2.413376754831e-02
   171   -4.422835016030e-02
   172   -6.740106867887e-02
   173    8.065835476616e-02
   174    3.417956212849e-02
   175    1.739818530585e-02
   176   -4.424076905611e-02
   177   -3.513463220570e-02
   178    4.989495797610e-02
   179   -1.877793562213e-02
   180   -1.075151970838e-02
   181   -5.234478441482e-03
   182    4.648045869632e-03
   183   -6.497729707704e-03
   184    1.447316879874e-03
   185    2.390407516816e-03
   186    1.543577705981e-02
   187    2.919702475458e-02
   188    2.712881382433e-02
   189    2.260631926603e-03
   190    3.407333652339e-03
   191   -1.830269523380e-02
   192   -9.627310923911e-03
   193   -4.486703987555e-03
   194   -5.764201175693e-03
   195   -3.082515697628e-02
   196   -1.238877139958e-02
   197   -8.564335438233e-03
   198   -2.811798619098e-02
   199    3.818967171560e-02
   200   -7.709871577395e-02
   201   -1.556990409613e-03
   202    1.679768553620e-01
   203    8.071743340560e-02
   204    3.984340295749e-02
   205    3.309893299292e-02
   206   -3.852199031920e-03
   207   -1.848167951600e-03
   208    1.576500130261e-02
   209    2.317410573905e-03
   210   -1.718308882956e-03
   211   -1.621207808287e-02
   212   -5.644558160552e-02
   213   -5.759282871592e-02
   214   -3.328250721789e-04
   215   -1.078495331202e-03
   216    2.925392545342e-03
   217    3.552215617614e-03
   218   -7.011826064000e-03
   219   -9.406675344437e-03
   220    1.918907026767e-02
   221    1.365117769446e-02
   222    9.268192885190e-03
   223   -3.425390238249e-03
   224    3.366346232609e-03
   225    7.652299515401e-02
   226   -2.827362219363e-02
   227    2.778823254711e-02
   228   -2.000873442544e-01
   229    7.377731843516e-02
   230   -7.258347400311e-02
   231   -7.424131843158e-02
   232    2.741625908020e-02
   233   -2.724184706876e-02
   234    1.650461810299e-01
   235   -6.009774057397e-02
   236    6.001610620000e-02
   237    3.952361812275e-01
   238   -1.439939492156e-01
   239    1.440702330653e-01
   240    2.292008347841e-01
   241   -6.755649378619e-02
   242    7.141588535991e-02
   243   -3.790999027502e-03
   244    1.073524287524e-04
   245    1.788605782546e-03
   246   -2.638017300335e-03
   247   -5.106941879816e-04
   248   -3.116383016704e-04
   249   -1.201876720611e-04
   250    8.722229780571e-05
   251   -2.900912275448e-04
   252   -3.620670917484e-04
   253    3.135495186635e-02
   254   -8.841388438687e-03
   255    5.442685911187e-03
   256    6.746601127499e-03
   257    7.865262445206e-03
   258    3.263137449409e-03
   259   -2.331743980126e-03
   260    3.800991560183e-03
   261    3.973185481773e-03
Sym=X
Ene= -0.280628
Spin=Alpha
Occup=1
     1    7.194341557663e-04
     2    1.276078190333e-03
     3   -1.718391060314e-02
     4   -8.839178148528e-03
     5   -3.635318409499e-02
     6   -5.903489145631e-03
     7   -2.490478050635e-02
     8   -1.280882147531e-02
     9   -6.092120123518e-02
    10    4.512187537847e-02
    11    1.004375372378e-02
    12    8.564066164902e-03
    13   -4.310141028386e-02
    14    2.555250506724e-01
    15    1.411235417951e-02
    16   -6.921806217280e-02
    17    4.025741638931e-03
    18   -5.541819744824e-04
    19   -4.753151047564e-03
    20    1.481886255630e-03
    21    2.027568259980e-04
    22   -3.797080080115e-03
    23   -2.666167070725e-04
    24   -2.025896442586e-04
    25    1.187351972087e-02
    26   -3.578857652558e-02
    27   -4.531659426372e-02
    28   -6.253615176820e-04
    29    1.390862413197e-02
    30   -5.196331976895e-02
    31   -7.439043788900e-02
    32   -1.444684007355e-02
    33    8.326917466713e-02
    34   -4.673926321739e-02
    35   -4.796583129379e-02
    36   -6.852624815482e-01
    37   -7.341002657624e-02
    38    1.199043539647e-01
    39   -8.571462972403e-03
    40    2.217876179254e-04
    41    2.159992210509e-03
    42    3.998149094777e-03
    43   -2.927735500077e-03
    44    2.122305797605e-03
    45    1.662659721190e-02
    46    2.769620828427e-02
    47   -7.604324014288e-02
    48    1.852422980302e-02
    49   -3.866521050166e-02
    50   -8.929814534466e-02
    51   -1.319407043124e-01
    52    3.045190395123e-02
    53   -5.970839270157e-02
    54   -2.770246393775e-01
    55   -1.678522160411e-01
    56   -1.152783962810e-02
    57   -7.114500186170e-02
    58    6.231200714219e-02
    59    2.216241198847e-02
    60    3.861140107491e-01
    61   -1.099036521930e-03
    62    1.788652446998e-03
    63    2.167823501506e-03
    64   -5.982131169327e-03
    65   -8.521387854051e-03
    66   -9.483403871452e-04
    67    3.793234463309e-03
    68    6.162443026467e-03
    69   -3.274937812713e-03
    70    1.644977138780e-02
    71   -1.203321041086e-02
    72   -1.999174410748e-02
    73   -4.901084767901e-03
    74    2.321662253447e-02
    75   -1.839424014128e-02
    76   -1.292026913919e-03
    77    3.307925833849e-03
    78    1.512187970458e-02
    79   -2.635594038225e-02
    80   -2.743658450813e-01
    81   -2.922794864588e-02
    82    1.027071818195e-02
    83    3.750690382757e-03
    84   -1.064141062245e-03
    85   -1.575132992840e-03
    86   -5.387332085566e-03
    87   -2.047867277939e-03
    88    8.881910181901e-04
    89    3.230750688021e-03
    90    3.190176131164e-03
    91   -3.693428589487e-04
    92   -1.111918189111e-02
    93   -1.290317803069e-02
    94    1.130282938586e-02
    95   -1.298443539458e-03
    96   -1.440761217121e-03
    97    7.373535763542e-03
    98    1.229505124447e-04
    99    2.833008544526e-04
   100    4.004860992161e-02
   101   -4.185563653687e-03
   102    1.581272991221e-02
   103   -1.017765496266e-03
   104    6.656235997582e-02
   105   -7.452647085986e-03
   106    2.472419473547e-02
   107    7.962539362657e-03
   108   -7.517730201325e-02
   109    1.318809484020e-02
   110    1.984260396666e-02
   111    3.297011028254e-02
   112   -1.624793384445e-01
   113   -1.191070986395e-01
   114    9.958612072870e-03
   115   -1.083799702647e-03
   116    2.603558015682e-03
   117   -1.439581005428e-02
   118   -4.176592617876e-02
   119   -2.306762973815e-03
   120    2.856973180085e-03
   121    4.803466696671e-03
   122   -1.454417738499e-01
   123    2.033774334786e-03
   124    5.034480699631e-02
   125   -1.436933819566e-02
   126   -2.135233845360e-01
   127    1.099319135347e-03
   128    7.559736292672e-02
   129    1.157325314561e-02
   130   -1.931097228264e-01
   131    9.968590212302e-03
   132    6.775721142809e-02
   133   -1.172945151290e-02
   134    1.926047601029e-02
   135    5.886370795388e-03
   136    1.989035457774e-03
   137   -2.461887252348e-03
   138   -1.582883639074e-03
   139    4.345164360346e-03
   140    4.274131913307e-03
   141   -7.203880784071e-03
   142    7.646715309108e-04
   143    1.335969333186e-03
   144   -1.507615780379e-01
   145    2.670620252979e-02
   146   -3.750173922653e-02
   147   -3.351867440701e-03
   148   -2.208548542624e-01
   149    4.098580953659e-02
   150   -5.520325944299e-02
   151    8.439960049741e-03
   152   -2.015673463925e-01
   153    2.984013960758e-02
   154   -5.528557471327e-02
   155    1.292315518624e-01
   156    9.377097479630e-03
   157   -2.614287313638e-02
   158   -6.259495062426e-03
   159   -1.554812084741e-03
   160    1.094187972434e-03
   161    1.739824776622e-03
   162    6.252534500879e-03
   163    6.522473187732e-03
   164   -7.036751274445e-03
   165   -1.165508984739e-02
   166    2.897367201770e-03
   167   -2.629072242788e-02
   168    2.528936184475e-02
   169    3.974745558430e-02
   170    5.344888017284e-03
   171   -4.204126282749e-02
   172    4.094309061791e-02
   173    5.747162283694e-02
   174    3.882388114637e-03
   175   -3.058779673742e-02
   176    4.794075093618e-02
   177   -2.739425210093e-03
   178   -6.386458516150e-02
   179    4.390831092224e-02
   180   -3.490918199815e-03
   181   -4.154641051690e-03
   182    4.520081342659e-03
   183   -5.498374813636e-03
   184   -1.315300317508e-03
   185    8.017056964013e-03
   186    2.739895751138e-02
   187    3.765926436619e-02
   188    8.598398145635e-03
   189    1.076211452158e-03
   190    1.844985454964e-03
   191   -8.003214462945e-03
   192    1.477048912478e-02
   193    1.512625987109e-02
   194   -6.431150068084e-03
   195   -1.835269540612e-02
   196    2.265417245035e-02
   197    2.586128981090e-02
   198   -1.688919638705e-02
   199    5.098420008999e-02
   200    2.844240703866e-02
   201    2.396206859791e-02
   202    5.276083497438e-01
   203    6.942019632626e-03
   204    4.465990524582e-02
   205    1.863265446336e-02
   206   -2.270007209744e-03
   207   -1.067332167004e-02
   208   -8.380868045784e-03
   209    2.010285627061e-03
   210   -5.592512437355e-03
   211    1.628737257048e-03
   212   -1.665631276380e-06
   213    3.515461204870e-03
   214   -5.499643031275e-04
   215   -1.780728780905e-03
   216    4.817186130523e-03
   217    5.951841916570e-03
   218   -1.191960132371e-02
   219   -1.507701893120e-02
   220    3.278226525660e-02
   221    1.585502594938e-02
   222    7.191677674360e-03
   223    2.398672923908e-03
   224   -1.787903746144e-03
   225    5.938629068947e-02
   226    1.980136641008e-02
   227   -1.475948791044e-02
   228   -1.552305064635e-01
   229   -5.176136792497e-02
   230    3.843180240327e-02
   231   -5.638257623165e-02
   232   -1.921261238410e-02
   233    1.410132524819e-02
   234    1.244264663814e-01
   235    4.262364649828e-02
   236   -3.016192209974e-02
   237    3.092663552403e-01
   238    1.018408729823e-01
   239   -7.594243360548e-02
   240    1.581542349839e-01
   241    5.981693230484e-02
   242   -3.185681341872e-02
   243    3.058893400083e-03
   244   -4.049618129671e-03
   245    3.299109072369e-04
   246    1.718250340315e-03
   247   -1.176054402478e-03
   248    4.409478990128e-04
   249   -7.599081981640e-04
   250   -1.125618937891e-05
   251    4.707476773350e-04
   252   -8.580100238357e-05
   253    3.433166014446e-02
   254   -1.442657631080e-03
   255    9.445134406104e-03
   256    9.273530005419e-03
   257   -6.379583558472e-03
   258    1.157402763856e-02
   259   -3.064134386970e-04
   260   -4.958335182698e-03
   261    3.645176067136e-03
Sym=X
Ene= -0.434878
Spin=Alpha
Occup=1
     1   -4.544705700779e-03
     2   -7.175533495616e-03
     3    1.739576940025e-02
     4   -1.134366378387e-03
     5    2.812300364536e-03
     6    1.873479465015e-02
     7    2.577175846526e-02
     8   -2.131564570946e-03
     9    4.234460375907e-03
    10    9.058122523692e-02
    11    7.010463302972e-02
    12    1.941383712886e-03
    13    3.784265113014e-03
    14    4.752228371419e-01
    15    4.262487078244e-01
    16    1.975002217734e-01
    17   -1.054471269142e-02
    18   -1.343327083828e-04
    19   -2.735520291157e-03
    20   -2.287326477381e-03
    21   -2.348683820156e-04
    22    2.527729861275e-04
    23    8.104040281656e-03
    24    1.315317787333e-02
    25   -2.421018654781e-02
    26    4.502748573605e-03
    27   -1.487892236230e-02
    28   -3.763316879319e-02
    29   -4.183017191639e-02
    30    4.099003005436e-03
    31   -2.384426562680e-02
    32   -1.047823654255e-01
    33    5.974849344029e-02
    34    1.114477675608e-03
    35   -2.112483998083e-02
    36   -9.003791293771e-01
    37    4.866354338756e-01
    38   -1.240493313010e-01
    39    8.875901477816e-03
    40   -4.981395599733e-04
    41   -1.487136575588e-03
    42    1.254648517106e-03
    43    5.607593889873e-03
    44   -1.244085430294e-04
    45   -4.302000419021e-03
    46   -7.105978255433e-03
    47    1.030696911158e-02
    48   -2.331529529901e-02
    49   -1.570125965507e-02
    50    2.120188633930e-02
    51    1.905696857011e-02
    52   -4.420875929767e-02
    53   -2.503303155711e-02
    54    8.137333018410e-02
    55   -1.405020065917e-02
    56   -4.829273180127e-02
    57   -2.746532624396e-02
    58    6.932088200062e-02
    59   -9.330616406847e-02
    60    9.177648030014e-03
    61   -3.074469801872e-02
    62   -1.167639599235e-03
    63    5.622419348961e-04
    64   -2.223593364662e-03
    65    2.488145713549e-03
    66    5.042921487162e-03
    67    6.056826241695e-05
    68    1.012823757046e-04
    69    4.018571160293e-03
    70   -6.796926775565e-03
    71    2.006706329620e-02
    72   -2.026189662624e-04
    73    6.229658660953e-03
    74   -1.327076709087e-02
    75    3.306715960744e-02
    76   -1.571605999714e-02
    77    2.342095315136e-03
    78    1.953758501105e-02
    79    2.353472933321e-02
    80    3.318139437074e-02
    81   -6.231403798511e-04
    82    3.456971865345e-01
    83    1.175660300628e-03
    84   -2.249500375997e-04
    85    1.726327771694e-03
    86   -1.912797055475e-03
    87   -7.494935881423e-04
    88    8.169945810772e-04
    89   -3.981764614832e-03
    90   -7.056577121926e-03
    91    2.287527858175e-03
    92   -9.479348100365e-03
    93   -1.388028829667e-02
    94    2.336302986275e-02
    95   -3.352236301514e-03
    96   -3.204171599205e-03
    97   -6.551022432997e-04
    98   -3.196391426366e-04
    99   -5.218016146580e-04
   100   -7.726457170085e-03
   101   -1.306173300525e-02
   102    5.929026360070e-03
   103    1.154727949111e-03
   104   -1.241547695287e-02
   105   -2.724075217964e-02
   106    9.757676307479e-03
   107    1.558912322086e-02
   108    7.885605589125e-03
   109    9.306729920526e-02
   110    2.284070887689e-03
   111    1.201361598915e-01
   112    2.144315128209e-02
   113   -2.708240153070e-01
   114    1.731345140397e-02
   115    2.647527700467e-03
   116    5.096434204968e-03
   117   -1.386279478152e-02
   118    7.049061792320e-03
   119   -3.941552764279e-02
   120   -2.796168078391e-03
   121   -4.512170691980e-03
   122    1.842224247069e-01
   123    1.366040503102e-01
   124    5.431217202853e-02
   125    1.566130949299e-02
   126    2.734902166461e-01
   127    2.004920816735e-01
   128    8.112486425635e-02
   129    6.185524575250e-02
   130    2.465274592684e-01
   131    1.962270745869e-01
   132    7.397468491299e-02
   133   -2.374248795525e-01
   134    2.098861528235e-02
   135   -5.598219332268e-02
   136    1.125710046051e-02
   137    1.270992467707e-04
   138   -3.611616179483e-03
   139    3.380074855122e-03
   140   -1.463828400347e-02
   141    6.120545906684e-03
   142    2.528682967782e-03
   143    4.028378623481e-03
   144   -1.288716170933e-01
   145    1.248553223514e-01
   146   -5.901473070928e-02
   147   -1.419968527706e-02
   148   -1.927413029920e-01
   149    1.827552440688e-01
   150   -8.719630455127e-02
   151   -6.712716959008e-02
   152   -1.696781454843e-01
   153    1.815388080789e-01