 Entering Gaussian System, Link 0=g16
 Initial command:
 /software/gaussian/g16-c01/sse4/g16/l1.exe "/local_scratch/24657540/Gau-10377.inp" -scrdir="/local_scratch/24657540/"
 Entering Link 1 = /software/gaussian/g16-c01/sse4/g16/l1.exe PID=     10383.
  
 Copyright (c) 1988-2019, Gaussian, Inc.  All Rights Reserved.
  
 This is part of the Gaussian(R) 16 program.  It is based on
 the Gaussian(R) 09 system (copyright 2009, Gaussian, Inc.),
 the Gaussian(R) 03 system (copyright 2003, Gaussian, Inc.),
 the Gaussian(R) 98 system (copyright 1998, Gaussian, Inc.),
 the Gaussian(R) 94 system (copyright 1995, Gaussian, Inc.),
 the Gaussian 92(TM) system (copyright 1992, Gaussian, Inc.),
 the Gaussian 90(TM) system (copyright 1990, Gaussian, Inc.),
 the Gaussian 88(TM) system (copyright 1988, Gaussian, Inc.),
 the Gaussian 86(TM) system (copyright 1986, Carnegie Mellon
 University), and the Gaussian 82(TM) system (copyright 1983,
 Carnegie Mellon University). Gaussian is a federally registered
 trademark of Gaussian, Inc.
  
 This software contains proprietary and confidential information,
 including trade secrets, belonging to Gaussian, Inc.
  
 This software is provided under written license and may be
 used, copied, transmitted, or stored only in accord with that
 written license.
  
 The following legend is applicable only to US Government
 contracts under FAR:
  
                    RESTRICTED RIGHTS LEGEND
  
 Use, reproduction and disclosure by the US Government is
 subject to restrictions as set forth in subparagraphs (a)
 and (c) of the Commercial Computer Software - Restricted
 Rights clause in FAR 52.227-19.
  
 Gaussian, Inc.
 340 Quinnipiac St., Bldg. 40, Wallingford CT 06492
  
  
 ---------------------------------------------------------------
 Warning -- This program may not be used in any manner that
 competes with the business of Gaussian, Inc. or will provide
 assistance to any competitor of Gaussian, Inc.  The licensee
 of this program is prohibited from giving any competitor of
 Gaussian, Inc. access to this program.  By using this program,
 the user acknowledges that Gaussian, Inc. is engaged in the
 business of creating and licensing software in the field of
 computational chemistry and represents and warrants to the
 licensee that it is not a competitor of Gaussian, Inc. and that
 it will not use this program in any manner prohibited above.
 ---------------------------------------------------------------
  

 Cite this work as:
 Gaussian 16, Revision C.01,
 M. J. Frisch, G. W. Trucks, H. B. Schlegel, G. E. Scuseria, 
 M. A. Robb, J. R. Cheeseman, G. Scalmani, V. Barone, 
 G. A. Petersson, H. Nakatsuji, X. Li, M. Caricato, A. V. Marenich, 
 J. Bloino, B. G. Janesko, R. Gomperts, B. Mennucci, H. P. Hratchian, 
 J. V. Ortiz, A. F. Izmaylov, J. L. Sonnenberg, D. Williams-Young, 
 F. Ding, F. Lipparini, F. Egidi, J. Goings, B. Peng, A. Petrone, 
 T. Henderson, D. Ranasinghe, V. G. Zakrzewski, J. Gao, N. Rega, 
 G. Zheng, W. Liang, M. Hada, M. Ehara, K. Toyota, R. Fukuda, 
 J. Hasegawa, M. Ishida, T. Nakajima, Y. Honda, O. Kitao, H. Nakai, 
 T. Vreven, K. Throssell, J. A. Montgomery, Jr., J. E. Peralta, 
 F. Ogliaro, M. J. Bearpark, J. J. Heyd, E. N. Brothers, K. N. Kudin, 
 V. N. Staroverov, T. A. Keith, R. Kobayashi, J. Normand, 
 K. Raghavachari, A. P. Rendell, J. C. Burant, S. S. Iyengar, 
 J. Tomasi, M. Cossi, J. M. Millam, M. Klene, C. Adamo, R. Cammi, 
 J. W. Ochterski, R. L. Martin, K. Morokuma, O. Farkas, 
 J. B. Foresman, and D. J. Fox, Gaussian, Inc., Wallingford CT, 2019.
 
 ******************************************
 Gaussian 16:  ES64L-G16RevC.01  3-Jul-2019
                 1-May-2024 
 ******************************************
 %chk=geometry.chk
 %mem=9GB
 %nprocshared=12
 Will use up to   12 processors via shared memory.
 ----------------------------------------
 #P wB97XD/6-311+G* NoSymm #P Field=Z-204
 ----------------------------------------
 1/38=1,172=1/1;
 2/12=2,15=1,17=6,18=5,40=1/2;
 3/5=4,6=6,7=11,11=2,14=3,15=-204,25=1,30=1,74=-58/1,2,3;
 4//1;
 5/5=2,38=5/2;
 6/7=2,8=2,9=2,10=2,28=1/1;
 99/5=1,9=1/99;
 Leave Link    1 at Wed May  1 14:58:59 2024, MaxMem=  1207959552 cpu:               1.1 elap:               1.1
 (Enter /software/gaussian/g16-c01/sse4/g16/l101.exe)
 -------
 TitleMe
 -------
 Symbolic Z-matrix:
 Charge =  1 Multiplicity = 1
 C                     0.0295    1.3397    0.0682 
 C                     1.4348    1.2867    0.0064 
 C                     2.1118    0.0511   -0.0054 
 C                     1.4451   -1.1372    0.0312 
 C                    -0.6879    0.1682    0.11 
 H                    -0.4713    2.2984    0.0781 
 H                     2.0273    2.1965   -0.0322 
 H                     1.9897   -2.0764    0.0232 
 H                    -1.7716    0.1804    0.1582 
 N                     3.5864    0.051    -0.0675 
 O                     4.1471   -1.0597   -0.0881 
 O                     4.145     1.1639   -0.0901 
 C                    -0.0236   -1.1458    0.0835 
 H                    -0.4367   -1.8725    0.7889 
 Br                   -0.5359   -1.8697   -1.7408 
 
 ITRead=  0  0  0  0  0  0  0  0  0  0  0  0  0  0  0
 MicOpt= -1 -1 -1 -1 -1 -1 -1 -1 -1 -1 -1 -1 -1 -1 -1
 NAtoms=     15 NQM=       15 NQMF=       0 NMMI=      0 NMMIF=      0
                NMic=       0 NMicF=      0.
                    Isotopes and Nuclear Properties:
 (Nuclear quadrupole moments (NQMom) in fm**2, nuclear magnetic moments (NMagM)
  in nuclear magnetons)

  Atom         1           2           3           4           5           6           7           8           9          10
 IAtWgt=          12          12          12          12          12           1           1           1           1          14
 AtmWgt=  12.0000000  12.0000000  12.0000000  12.0000000  12.0000000   1.0078250   1.0078250   1.0078250   1.0078250  14.0030740
 NucSpn=           0           0           0           0           0           1           1           1           1           2
 AtZEff=  -0.0000000  -0.0000000  -0.0000000  -0.0000000  -0.0000000  -0.0000000  -0.0000000  -0.0000000  -0.0000000  -0.0000000
 NQMom=    0.0000000   0.0000000   0.0000000   0.0000000   0.0000000   0.0000000   0.0000000   0.0000000   0.0000000   2.0440000
 NMagM=    0.0000000   0.0000000   0.0000000   0.0000000   0.0000000   2.7928460   2.7928460   2.7928460   2.7928460   0.4037610
 AtZNuc=   6.0000000   6.0000000   6.0000000   6.0000000   6.0000000   1.0000000   1.0000000   1.0000000   1.0000000   7.0000000

  Atom        11          12          13          14          15
 IAtWgt=          16          16          12           1          79
 AtmWgt=  15.9949146  15.9949146  12.0000000   1.0078250  78.9183361
 NucSpn=           0           0           0           1           3
 AtZEff=  -0.0000000  -0.0000000  -0.0000000  -0.0000000  -0.0000000
 NQMom=    0.0000000   0.0000000   0.0000000   0.0000000  31.3000000
 NMagM=    0.0000000   0.0000000   0.0000000   2.7928460   2.1063990
 AtZNuc=   8.0000000   8.0000000   6.0000000   1.0000000  35.0000000
 Leave Link  101 at Wed May  1 14:59:00 2024, MaxMem=  1207959552 cpu:               1.4 elap:               1.4
 (Enter /software/gaussian/g16-c01/sse4/g16/l202.exe)
                          Input orientation:                          
 ---------------------------------------------------------------------
 Center     Atomic      Atomic             Coordinates (Angstroms)
 Number     Number       Type             X           Y           Z
 ---------------------------------------------------------------------
      1          6           0        0.029500    1.339700    0.068200
      2          6           0        1.434800    1.286700    0.006400
      3          6           0        2.111800    0.051100   -0.005400
      4          6           0        1.445100   -1.137200    0.031200
      5          6           0       -0.687900    0.168200    0.110000
      6          1           0       -0.471300    2.298400    0.078100
      7          1           0        2.027300    2.196500   -0.032200
      8          1           0        1.989700   -2.076400    0.023200
      9          1           0       -1.771600    0.180400    0.158200
     10          7           0        3.586400    0.051000   -0.067500
     11          8           0        4.147100   -1.059700   -0.088100
     12          8           0        4.145000    1.163900   -0.090100
     13          6           0       -0.023600   -1.145800    0.083500
     14          1           0       -0.436700   -1.872500    0.788900
     15         35           0       -0.535900   -1.869700   -1.740800
 ---------------------------------------------------------------------
                    Distance matrix (angstroms):
                    1          2          3          4          5
     1  C    0.000000
     2  C    1.407656   0.000000
     3  C    2.449874   1.408963   0.000000
     4  C    2.853126   2.424049   1.363043   0.000000
     5  C    1.374344   2.401589   2.804523   2.501993   0.000000
     6  H    1.081667   2.159142   3.424870   3.934226   2.141421
     7  H    2.176095   1.086408   2.147231   3.384750   3.392128
     8  H    3.938800   3.408612   2.131193   1.085702   3.495040
     9  H    2.143837   3.395283   3.888995   3.478413   1.084840
    10  N    3.785591   2.482297   1.475907   2.450862   4.279589
    11  O    4.768247   3.587631   2.320164   2.705743   4.992415
    12  O    4.122294   2.714696   2.319353   3.549540   4.938459
    13  C    2.486114   2.837240   2.449573   1.469656   1.472614
    14  H    3.324903   3.754379   3.290289   2.157764   2.165286
    15  Br   3.727252   4.110867   3.702891   2.756973   2.757100
                    6          7          8          9         10
     6  H    0.000000
     7  H    2.503108   0.000000
     8  H    5.019802   4.273425   0.000000
     9  H    2.486588   4.304945   4.388479   0.000000
    10  N    4.640790   2.652397   2.661486   5.364313   0.000000
    11  O    5.712624   3.885809   2.387560   6.052233   1.244373
    12  O    4.756638   2.356750   3.893289   6.002923   1.245428
    13  C    3.473180   3.923079   2.218790   2.195425   3.806210
    14  H    4.231175   4.827242   2.552506   2.528663   4.540772
    15  Br   4.548146   5.101303   3.087568   3.055498   4.845862
                   11         12         13         14         15
    11  O    0.000000
    12  O    2.223602   0.000000
    13  C    4.175117   4.768865   0.000000
    14  H    4.737193   5.566358   1.093770   0.000000
    15  Br   5.031700   5.817075   2.028436   2.531646   0.000000
 Symmetry turned off by external request.
 Stoichiometry    C6H5BrNO2(1+)
 Framework group  C1[X(C6H5BrNO2)]
 Deg. of freedom    39
 Full point group                 C1      NOp   1
 Rotational constants (GHZ):           1.8252210           0.5518633           0.4576002
 Leave Link  202 at Wed May  1 14:59:02 2024, MaxMem=  1207959552 cpu:               1.4 elap:               1.4
 (Enter /software/gaussian/g16-c01/sse4/g16/l301.exe)
 Standard basis: 6-311+G(d) (5D, 7F)
 Ernie: Thresh=  0.10000D-02 Tol=  0.10000D-05 Strict=F.
 The following finite field(s) will be applied:
 An electric field of              0.0000  0.0000 -0.0204
   261 basis functions,   443 primitive gaussians,   273 cartesian basis functions
    49 alpha electrons       49 beta electrons
       nuclear repulsion energy       739.2122215416 Hartrees.
 IExCor= 4639 DFT=T Ex+Corr=wB97XD ExCW=0 ScaHFX=  1.000000
 ScaDFX=  1.000000  1.000000  1.000000  1.000000 ScalE2=  1.000000  1.000000
 IRadAn=      5 IRanWt=     -1 IRanGd=            0 ICorTp=0 IEmpDi=121
 HFx  wShort=  0.000000 wLong=  0.200000 cFull=  0.222036 cShort=  0.000000 cLong=  0.777964
 DFx  wShort=  0.000000 wLong=  0.200000 cFull=  0.000000 cShort=  0.000000 cLong=  1.000000
 NAtoms=   15 NActive=   15 NUniq=   15 SFac= 1.00D+00 NAtFMM=   60 NAOKFM=F Big=F
 Integral buffers will be    131072 words long.
 Raffenetti 2 integral format.
 Two-electron integral symmetry is turned off.
 R6Disp:  Grimme-D2 Dispersion energy=       -0.0077368520 Hartrees.
 Nuclear repulsion after empirical dispersion term =      739.2044846896 Hartrees.
 Leave Link  301 at Wed May  1 14:59:03 2024, MaxMem=  1207959552 cpu:               0.9 elap:               1.0
 (Enter /software/gaussian/g16-c01/sse4/g16/l302.exe)
 NPDir=0 NMtPBC=     1 NCelOv=     1 NCel=       1 NClECP=     1 NCelD=      1
         NCelK=      1 NCelE2=     1 NClLst=     1 CellRange=     0.0.
 One-electron integrals computed using PRISM.
 NBasis=   261 RedAO= T EigKep=  2.35D-06  NBF=   261
 NBsUse=   261 1.00D-06 EigRej= -1.00D+00 NBFU=   261
 Precomputing XC quadrature grid using
 IXCGrd= 4 IRadAn=           5 IRanWt=          -1 IRanGd=           0 AccXCQ= 0.00D+00.
 Generated NRdTot=       0 NPtTot=           0 NUsed=           0 NTot=          32
 NSgBfM=   273   273   273   273   273 MxSgAt=    15 MxSgA2=    15.
 Leave Link  302 at Wed May  1 14:59:24 2024, MaxMem=  1207959552 cpu:              21.3 elap:              21.3
 (Enter /software/gaussian/g16-c01/sse4/g16/l303.exe)
 DipDrv:  MaxL=1.
 The nuclear repulsion energy is now       741.5193020602 hartrees.
 Leave Link  303 at Wed May  1 14:59:27 2024, MaxMem=  1207959552 cpu:               3.3 elap:               3.3
 (Enter /software/gaussian/g16-c01/sse4/g16/l401.exe)
 ExpMin= 3.50D-02 ExpMax= 4.40D+05 ExpMxC= 1.51D+04 IAcc=3 IRadAn=         5 AccDes= 0.00D+00
 Harris functional with IExCor= 4639 and IRadAn=       5 diagonalized for initial guess.
 HarFok:  IExCor= 4639 AccDes= 0.00D+00 IRadAn=         5 IDoV= 1 UseB2=F ITyADJ=14
 ICtDFT=  3500011 ScaDFX=  1.000000  1.000000  1.000000  1.000000
 FoFCou: FMM=F IPFlag=           0 FMFlag=      100000 FMFlg1=           0
         NFxFlg=           0 DoJE=T BraDBF=F KetDBF=T FulRan=T
         wScrn=  0.000000 ICntrl=       500 IOpCl=  0 I1Cent=   200000004 NGrid=           0
         NMat0=    1 NMatS0=      1 NMatT0=    0 NMatD0=    1 NMtDS0=    0 NMtDT0=    0
 Symmetry not used in FoFCou.
 Harris En= -2970.63959961048    
 JPrj=0 DoOrth=F DoCkMO=F.
 Leave Link  401 at Wed May  1 14:59:58 2024, MaxMem=  1207959552 cpu:              30.6 elap:              30.7
 (Enter /software/gaussian/g16-c01/sse4/g16/l502.exe)
 Two-electron integral symmetry not used.
 Closed shell SCF:
 Using DIIS extrapolation, IDIIS=  1040.
 NGot=  1207959552 LenX=  1207804877 LenY=  1207729907
 Requested convergence on RMS density matrix=1.00D-08 within 128 cycles.
 Requested convergence on MAX density matrix=1.00D-06.
 Requested convergence on             energy=1.00D-06.
 No special actions if energy rises.
 Fock matrices will be formed incrementally for  20 cycles.

 Cycle   1  Pass 1  IDiag  1:
 FoFJK:  IHMeth= 1 ICntrl=       0 DoSepK=T KAlg= 0 I1Cent=           0 FoldK=F
 IRaf=         1 NMat=       1 IRICut=       1 DoRegI=T DoRafI=F ISym2E= 0 IDoP0=0 IntGTp=1.
 FoFCou: FMM=F IPFlag=           0 FMFlag=      100000 FMFlg1=           0
         NFxFlg=           0 DoJE=T BraDBF=F KetDBF=F FulRan=T
         wScrn=  0.000000 ICntrl=       500 IOpCl=  0 I1Cent=           0 NGrid=           0
         NMat0=    1 NMatS0=      1 NMatT0=    0 NMatD0=    1 NMtDS0=    0 NMtDT0=    0
 Symmetry not used in FoFCou.
 E= -3009.68999493323    
 DIIS: error= 3.20D-01 at cycle   1 NSaved=   1.
 NSaved= 1 IEnMin= 1 EnMin= -3009.68999493323     IErMin= 1 ErrMin= 3.20D-01
 ErrMax= 3.20D-01  0.00D+00 EMaxC= 1.00D-01 BMatC= 1.19D+01 BMatP= 1.19D+01
 IDIUse=3 WtCom= 0.00D+00 WtEn= 1.00D+00
 Coeff-Com:  0.100D+01
 Coeff-En:   0.100D+01
 Coeff:      0.100D+01
 Gap=     0.452 Goal=   None    Shift=    0.000
 GapD=    0.452 DampG=2.000 DampE=0.250 DampFc=0.5000 IDamp=-1.
 Damping current iteration by 5.00D-01
 RMSDP=7.02D-02 MaxDP=6.64D+00              OVMax= 2.60D-01

 Cycle   2  Pass 1  IDiag  1:
 RMSU=  1.24D-02    CP:  7.21D-01
 E= -3010.13511797295     Delta-E=       -0.445123039723 Rises=F Damp=T
 DIIS: error= 1.42D-01 at cycle   2 NSaved=   2.
 NSaved= 2 IEnMin= 2 EnMin= -3010.13511797295     IErMin= 2 ErrMin= 1.42D-01
 ErrMax= 1.42D-01  0.00D+00 EMaxC= 1.00D-01 BMatC= 1.76D+00 BMatP= 1.19D+01
 IDIUse=3 WtCom= 0.00D+00 WtEn= 1.00D+00
 Coeff-Com: -0.434D+00 0.143D+01
 Coeff-En:   0.000D+00 0.100D+01
 Coeff:      0.000D+00 0.100D+01
 Gap=     0.361 Goal=   None    Shift=    0.000
 RMSDP=3.43D-02 MaxDP=3.30D+00 DE=-4.45D-01 OVMax= 1.40D-01

 Cycle   3  Pass 1  IDiag  1:
 RMSU=  6.90D-03    CP:  4.44D-01  1.60D+00
 E= -3010.53079642697     Delta-E=       -0.395678454023 Rises=F Damp=F
 DIIS: error= 1.11D-02 at cycle   3 NSaved=   3.
 NSaved= 3 IEnMin= 3 EnMin= -3010.53079642697     IErMin= 3 ErrMin= 1.11D-02
 ErrMax= 1.11D-02  0.00D+00 EMaxC= 1.00D-01 BMatC= 4.57D-02 BMatP= 1.76D+00
 IDIUse=3 WtCom= 8.89D-01 WtEn= 1.11D-01
 Coeff-Com:  0.424D-01-0.169D-01 0.975D+00
 Coeff-En:   0.000D+00 0.000D+00 0.100D+01
 Coeff:      0.377D-01-0.150D-01 0.977D+00
 Gap=     0.274 Goal=   None    Shift=    0.000
 RMSDP=4.55D-03 MaxDP=2.99D-01 DE=-3.96D-01 OVMax= 7.16D-02

 Cycle   4  Pass 1  IDiag  1:
 RMSU=  3.14D-03    CP:  4.72D-01  1.59D+00  1.01D+00
 E= -3010.51695120644     Delta-E=        0.013845220536 Rises=F Damp=F
 DIIS: error= 1.88D-02 at cycle   4 NSaved=   4.
 NSaved= 4 IEnMin= 3 EnMin= -3010.53079642697     IErMin= 3 ErrMin= 1.11D-02
 ErrMax= 1.88D-02  0.00D+00 EMaxC= 1.00D-01 BMatC= 5.16D-02 BMatP= 4.57D-02
 IDIUse=2 WtCom= 0.00D+00 WtEn= 1.00D+00
 Coeff-En:   0.000D+00 0.000D+00 0.631D+00 0.369D+00
 Coeff:      0.000D+00 0.000D+00 0.631D+00 0.369D+00
 Gap=     0.250 Goal=   None    Shift=    0.000
 RMSDP=2.93D-03 MaxDP=2.28D-01 DE= 1.38D-02 OVMax= 4.09D-02

 Cycle   5  Pass 1  IDiag  1:
 RMSU=  1.21D-03    CP:  4.56D-01  1.51D+00  1.20D+00  6.35D-01
 E= -3010.54834639554     Delta-E=       -0.031395189105 Rises=F Damp=F
 DIIS: error= 4.40D-03 at cycle   5 NSaved=   5.
 NSaved= 5 IEnMin= 5 EnMin= -3010.54834639554     IErMin= 5 ErrMin= 4.40D-03
 ErrMax= 4.40D-03  0.00D+00 EMaxC= 1.00D-01 BMatC= 3.37D-03 BMatP= 4.57D-02
 IDIUse=3 WtCom= 9.56D-01 WtEn= 4.40D-02
 Coeff-Com: -0.613D-02 0.194D-01 0.227D+00 0.119D+00 0.641D+00
 Coeff-En:   0.000D+00 0.000D+00 0.000D+00 0.000D+00 0.100D+01
 Coeff:     -0.586D-02 0.185D-01 0.217D+00 0.114D+00 0.657D+00
 Gap=     0.254 Goal=   None    Shift=    0.000
 RMSDP=6.93D-04 MaxDP=6.69D-02 DE=-3.14D-02 OVMax= 1.18D-02

 Cycle   6  Pass 1  IDiag  1:
 RMSU=  3.53D-04    CP:  4.52D-01  1.53D+00  1.19D+00  6.07D-01  9.94D-01
 E= -3010.54912604384     Delta-E=       -0.000779648300 Rises=F Damp=F
 DIIS: error= 1.69D-03 at cycle   6 NSaved=   6.
 NSaved= 6 IEnMin= 6 EnMin= -3010.54912604384     IErMin= 6 ErrMin= 1.69D-03
 ErrMax= 1.69D-03  0.00D+00 EMaxC= 1.00D-01 BMatC= 2.46D-04 BMatP= 3.37D-03
 IDIUse=3 WtCom= 9.83D-01 WtEn= 1.69D-02
 Coeff-Com: -0.128D-01 0.263D-01 0.166D-01-0.210D-01 0.446D+00 0.545D+00
 Coeff-En:   0.000D+00 0.000D+00 0.000D+00 0.000D+00 0.000D+00 0.100D+01
 Coeff:     -0.125D-01 0.258D-01 0.163D-01-0.207D-01 0.438D+00 0.553D+00
 Gap=     0.253 Goal=   None    Shift=    0.000
 RMSDP=2.07D-04 MaxDP=1.02D-02 DE=-7.80D-04 OVMax= 7.11D-03

 Cycle   7  Pass 1  IDiag  1:
 RMSU=  1.77D-04    CP:  4.52D-01  1.53D+00  1.20D+00  6.20D-01  1.07D+00
                    CP:  9.84D-01
 E= -3010.54931883584     Delta-E=       -0.000192791998 Rises=F Damp=F
 DIIS: error= 2.73D-04 at cycle   7 NSaved=   7.
 NSaved= 7 IEnMin= 7 EnMin= -3010.54931883584     IErMin= 7 ErrMin= 2.73D-04
 ErrMax= 2.73D-04  0.00D+00 EMaxC= 1.00D-01 BMatC= 1.48D-05 BMatP= 2.46D-04
 IDIUse=3 WtCom= 9.97D-01 WtEn= 2.73D-03
 Coeff-Com: -0.493D-02 0.892D-02-0.331D-01-0.314D-01 0.948D-01 0.248D+00
 Coeff-Com:  0.718D+00
 Coeff-En:   0.000D+00 0.000D+00 0.000D+00 0.000D+00 0.000D+00 0.000D+00
 Coeff-En:   0.100D+01
 Coeff:     -0.492D-02 0.889D-02-0.330D-01-0.313D-01 0.945D-01 0.247D+00
 Coeff:      0.719D+00
 Gap=     0.253 Goal=   None    Shift=    0.000
 RMSDP=1.65D-04 MaxDP=1.16D-02 DE=-1.93D-04 OVMax= 3.70D-03

 Cycle   8  Pass 1  IDiag  1:
 RMSU=  7.27D-05    CP:  4.52D-01  1.52D+00  1.20D+00  6.31D-01  1.16D+00
                    CP:  1.06D+00  9.27D-01
 E= -3010.54934801436     Delta-E=       -0.000029178522 Rises=F Damp=F
 DIIS: error= 1.05D-04 at cycle   8 NSaved=   8.
 NSaved= 8 IEnMin= 8 EnMin= -3010.54934801436     IErMin= 8 ErrMin= 1.05D-04
 ErrMax= 1.05D-04  0.00D+00 EMaxC= 1.00D-01 BMatC= 1.33D-06 BMatP= 1.48D-05
 IDIUse=3 WtCom= 9.99D-01 WtEn= 1.05D-03
 Coeff-Com:  0.872D-03-0.209D-02-0.976D-02-0.332D-02-0.438D-01-0.382D-01
 Coeff-Com:  0.140D+00 0.957D+00
 Coeff-En:   0.000D+00 0.000D+00 0.000D+00 0.000D+00 0.000D+00 0.000D+00
 Coeff-En:   0.000D+00 0.100D+01
 Coeff:      0.871D-03-0.209D-02-0.975D-02-0.332D-02-0.438D-01-0.382D-01
 Coeff:      0.140D+00 0.957D+00
 Gap=     0.253 Goal=   None    Shift=    0.000
 RMSDP=6.23D-05 MaxDP=4.37D-03 DE=-2.92D-05 OVMax= 2.60D-03

 Cycle   9  Pass 1  IDiag  1:
 RMSU=  2.93D-05    CP:  4.52D-01  1.52D+00  1.20D+00  6.32D-01  1.15D+00
                    CP:  1.14D+00  1.11D+00  1.19D+00
 E= -3010.54935467122     Delta-E=       -0.000006656855 Rises=F Damp=F
 DIIS: error= 4.57D-05 at cycle   9 NSaved=   9.
 NSaved= 9 IEnMin= 9 EnMin= -3010.54935467122     IErMin= 9 ErrMin= 4.57D-05
 ErrMax= 4.57D-05  0.00D+00 EMaxC= 1.00D-01 BMatC= 3.11D-07 BMatP= 1.33D-06
 IDIUse=1 WtCom= 1.00D+00 WtEn= 0.00D+00
 Coeff-Com:  0.118D-02-0.230D-02 0.251D-02 0.446D-02-0.329D-01-0.600D-01
 Coeff-Com: -0.804D-01 0.370D+00 0.797D+00
 Coeff:      0.118D-02-0.230D-02 0.251D-02 0.446D-02-0.329D-01-0.600D-01
 Coeff:     -0.804D-01 0.370D+00 0.797D+00
 Gap=     0.253 Goal=   None    Shift=    0.000
 RMSDP=2.12D-05 MaxDP=8.09D-04 DE=-6.66D-06 OVMax= 1.14D-03

 Cycle  10  Pass 1  IDiag  1:
 RMSU=  9.31D-06    CP:  4.52D-01  1.52D+00  1.20D+00  6.32D-01  1.15D+00
                    CP:  1.15D+00  1.15D+00  1.36D+00  1.29D+00
 E= -3010.54935592069     Delta-E=       -0.000001249470 Rises=F Damp=F
 DIIS: error= 1.56D-05 at cycle  10 NSaved=  10.
 NSaved=10 IEnMin=10 EnMin= -3010.54935592069     IErMin=10 ErrMin= 1.56D-05
 ErrMax= 1.56D-05  0.00D+00 EMaxC= 1.00D-01 BMatC= 3.93D-08 BMatP= 3.11D-07
 IDIUse=1 WtCom= 1.00D+00 WtEn= 0.00D+00
 Coeff-Com:  0.317D-04 0.218D-06 0.176D-02 0.109D-02 0.734D-03-0.459D-02
 Coeff-Com: -0.371D-01-0.639D-01 0.176D+00 0.925D+00
 Coeff:      0.317D-04 0.218D-06 0.176D-02 0.109D-02 0.734D-03-0.459D-02
 Coeff:     -0.371D-01-0.639D-01 0.176D+00 0.925D+00
 Gap=     0.253 Goal=   None    Shift=    0.000
 RMSDP=1.54D-05 MaxDP=1.05D-03 DE=-1.25D-06 OVMax= 4.43D-04

 Cycle  11  Pass 1  IDiag  1:
 RMSU=  5.65D-06    CP:  4.52D-01  1.52D+00  1.20D+00  6.31D-01  1.15D+00
                    CP:  1.15D+00  1.15D+00  1.45D+00  1.57D+00  1.23D+00
 E= -3010.54935609037     Delta-E=       -0.000000169682 Rises=F Damp=F
 DIIS: error= 5.82D-06 at cycle  11 NSaved=  11.
 NSaved=11 IEnMin=11 EnMin= -3010.54935609037     IErMin=11 ErrMin= 5.82D-06
 ErrMax= 5.82D-06  0.00D+00 EMaxC= 1.00D-01 BMatC= 8.68D-09 BMatP= 3.93D-08
 IDIUse=1 WtCom= 1.00D+00 WtEn= 0.00D+00
 Coeff-Com: -0.212D-03 0.439D-03 0.243D-03-0.410D-03 0.670D-02 0.926D-02
 Coeff-Com:  0.273D-03-0.977D-01-0.781D-01 0.368D+00 0.792D+00
 Coeff:     -0.212D-03 0.439D-03 0.243D-03-0.410D-03 0.670D-02 0.926D-02
 Coeff:      0.273D-03-0.977D-01-0.781D-01 0.368D+00 0.792D+00
 Gap=     0.253 Goal=   None    Shift=    0.000
 RMSDP=6.16D-06 MaxDP=4.29D-04 DE=-1.70D-07 OVMax= 1.57D-04

 Cycle  12  Pass 1  IDiag  1:
 RMSU=  1.68D-06    CP:  4.52D-01  1.52D+00  1.20D+00  6.30D-01  1.14D+00
                    CP:  1.15D+00  1.14D+00  1.48D+00  1.68D+00  1.44D+00
                    CP:  1.36D+00
 E= -3010.54935611639     Delta-E=       -0.000000026018 Rises=F Damp=F
 DIIS: error= 1.78D-06 at cycle  12 NSaved=  12.
 NSaved=12 IEnMin=12 EnMin= -3010.54935611639     IErMin=12 ErrMin= 1.78D-06
 ErrMax= 1.78D-06  0.00D+00 EMaxC= 1.00D-01 BMatC= 1.11D-09 BMatP= 8.68D-09
 IDIUse=1 WtCom= 1.00D+00 WtEn= 0.00D+00
 Coeff-Com: -0.608D-04 0.119D-03-0.884D-04-0.197D-03 0.194D-02 0.302D-02
 Coeff-Com:  0.501D-02-0.248D-01-0.476D-01 0.504D-02 0.273D+00 0.785D+00
 Coeff:     -0.608D-04 0.119D-03-0.884D-04-0.197D-03 0.194D-02 0.302D-02
 Coeff:      0.501D-02-0.248D-01-0.476D-01 0.504D-02 0.273D+00 0.785D+00
 Gap=     0.253 Goal=   None    Shift=    0.000
 RMSDP=1.70D-06 MaxDP=1.03D-04 DE=-2.60D-08 OVMax= 3.79D-05

 Cycle  13  Pass 1  IDiag  1:
 RMSU=  4.62D-07    CP:  4.52D-01  1.52D+00  1.20D+00  6.30D-01  1.14D+00
                    CP:  1.16D+00  1.14D+00  1.48D+00  1.71D+00  1.50D+00
                    CP:  1.50D+00  1.03D+00
 E= -3010.54935611876     Delta-E=       -0.000000002372 Rises=F Damp=F
 DIIS: error= 4.27D-07 at cycle  13 NSaved=  13.
 NSaved=13 IEnMin=13 EnMin= -3010.54935611876     IErMin=13 ErrMin= 4.27D-07
 ErrMax= 4.27D-07  0.00D+00 EMaxC= 1.00D-01 BMatC= 9.81D-11 BMatP= 1.11D-09
 IDIUse=1 WtCom= 1.00D+00 WtEn= 0.00D+00
 Coeff-Com:  0.835D-05-0.186D-04-0.363D-04 0.111D-04-0.231D-03-0.343D-03
 Coeff-Com:  0.103D-02 0.271D-02-0.123D-02-0.249D-01-0.222D-01 0.163D+00
 Coeff-Com:  0.882D+00
 Coeff:      0.835D-05-0.186D-04-0.363D-04 0.111D-04-0.231D-03-0.343D-03
 Coeff:      0.103D-02 0.271D-02-0.123D-02-0.249D-01-0.222D-01 0.163D+00
 Coeff:      0.882D+00
 Gap=     0.253 Goal=   None    Shift=    0.000
 RMSDP=7.38D-07 MaxDP=5.48D-05 DE=-2.37D-09 OVMax= 1.03D-05

 Cycle  14  Pass 1  IDiag  1:
 RMSU=  2.75D-07    CP:  4.52D-01  1.52D+00  1.20D+00  6.30D-01  1.14D+00
                    CP:  1.16D+00  1.14D+00  1.49D+00  1.72D+00  1.50D+00
                    CP:  1.57D+00  1.19D+00  1.16D+00
 E= -3010.54935611906     Delta-E=       -0.000000000300 Rises=F Damp=F
 DIIS: error= 2.53D-07 at cycle  14 NSaved=  14.
 NSaved=14 IEnMin=14 EnMin= -3010.54935611906     IErMin=14 ErrMin= 2.53D-07
 ErrMax= 2.53D-07  0.00D+00 EMaxC= 1.00D-01 BMatC= 2.21D-11 BMatP= 9.81D-11
 IDIUse=1 WtCom= 1.00D+00 WtEn= 0.00D+00
 Coeff-Com:  0.974D-05-0.198D-04-0.540D-05 0.263D-04-0.339D-03-0.511D-03
 Coeff-Com: -0.408D-03 0.454D-02 0.756D-02-0.792D-02-0.596D-01-0.869D-01
 Coeff-Com:  0.312D+00 0.831D+00
 Coeff:      0.974D-05-0.198D-04-0.540D-05 0.263D-04-0.339D-03-0.511D-03
 Coeff:     -0.408D-03 0.454D-02 0.756D-02-0.792D-02-0.596D-01-0.869D-01
 Coeff:      0.312D+00 0.831D+00
 Gap=     0.253 Goal=   None    Shift=    0.000
 RMSDP=2.96D-07 MaxDP=2.44D-05 DE=-3.00D-10 OVMax= 5.92D-06

 Cycle  15  Pass 1  IDiag  1:
 RMSU=  8.83D-08    CP:  4.52D-01  1.52D+00  1.20D+00  6.30D-01  1.14D+00
                    CP:  1.16D+00  1.14D+00  1.49D+00  1.72D+00  1.51D+00
                    CP:  1.60D+00  1.26D+00  1.31D+00  1.23D+00
 E= -3010.54935611909     Delta-E=       -0.000000000031 Rises=F Damp=F
 DIIS: error= 7.42D-08 at cycle  15 NSaved=  15.
 NSaved=15 IEnMin=15 EnMin= -3010.54935611909     IErMin=15 ErrMin= 7.42D-08
 ErrMax= 7.42D-08  0.00D+00 EMaxC= 1.00D-01 BMatC= 2.51D-12 BMatP= 2.21D-11
 IDIUse=1 WtCom= 1.00D+00 WtEn= 0.00D+00
 Coeff-Com: -0.136D-06 0.461D-06 0.999D-06-0.283D-06-0.220D-04-0.358D-04
 Coeff-Com: -0.223D-03 0.582D-03 0.183D-02 0.158D-02-0.113D-01-0.424D-01
 Coeff-Com: -0.441D-01 0.177D+00 0.917D+00
 Coeff:     -0.136D-06 0.461D-06 0.999D-06-0.283D-06-0.220D-04-0.358D-04
 Coeff:     -0.223D-03 0.582D-03 0.183D-02 0.158D-02-0.113D-01-0.424D-01
 Coeff:     -0.441D-01 0.177D+00 0.917D+00
 Gap=     0.253 Goal=   None    Shift=    0.000
 RMSDP=1.06D-07 MaxDP=8.45D-06 DE=-3.09D-11 OVMax= 2.70D-06

 Cycle  16  Pass 1  IDiag  1:
 RMSU=  4.36D-08    CP:  4.52D-01  1.52D+00  1.20D+00  6.30D-01  1.14D+00
                    CP:  1.16D+00  1.14D+00  1.49D+00  1.72D+00  1.51D+00
                    CP:  1.61D+00  1.27D+00  1.38D+00  1.34D+00  1.15D+00
 E= -3010.54935611913     Delta-E=       -0.000000000035 Rises=F Damp=F
 DIIS: error= 3.74D-08 at cycle  16 NSaved=  16.
 NSaved=16 IEnMin=16 EnMin= -3010.54935611913     IErMin=16 ErrMin= 3.74D-08
 ErrMax= 3.74D-08  0.00D+00 EMaxC= 1.00D-01 BMatC= 3.76D-13 BMatP= 2.51D-12
 IDIUse=1 WtCom= 1.00D+00 WtEn= 0.00D+00
 Coeff-Com: -0.103D-05 0.217D-05 0.199D-05-0.259D-05 0.359D-04 0.488D-04
 Coeff-Com: -0.138D-04-0.437D-03-0.536D-03 0.162D-02 0.549D-02 0.183D-02
 Coeff-Com: -0.493D-01-0.697D-01 0.143D+00 0.968D+00
 Coeff:     -0.103D-05 0.217D-05 0.199D-05-0.259D-05 0.359D-04 0.488D-04
 Coeff:     -0.138D-04-0.437D-03-0.536D-03 0.162D-02 0.549D-02 0.183D-02
 Coeff:     -0.493D-01-0.697D-01 0.143D+00 0.968D+00
 Gap=     0.253 Goal=   None    Shift=    0.000
 RMSDP=4.24D-08 MaxDP=2.41D-06 DE=-3.55D-11 OVMax= 1.33D-06

 Cycle  17  Pass 1  IDiag  1:
 RMSU=  1.11D-08    CP:  4.52D-01  1.52D+00  1.20D+00  6.30D-01  1.14D+00
                    CP:  1.16D+00  1.14D+00  1.49D+00  1.72D+00  1.51D+00
                    CP:  1.61D+00  1.27D+00  1.39D+00  1.39D+00  1.34D+00
                    CP:  1.29D+00
 E= -3010.54935611914     Delta-E=       -0.000000000015 Rises=F Damp=F
 DIIS: error= 1.64D-08 at cycle  17 NSaved=  17.
 NSaved=17 IEnMin=17 EnMin= -3010.54935611914     IErMin=17 ErrMin= 1.64D-08
 ErrMax= 1.64D-08  0.00D+00 EMaxC= 1.00D-01 BMatC= 1.24D-13 BMatP= 3.76D-13
 IDIUse=1 WtCom= 1.00D+00 WtEn= 0.00D+00
 Coeff-Com: -0.285D-06 0.568D-06 0.817D-06-0.682D-06 0.170D-04 0.237D-04
 Coeff-Com:  0.374D-04-0.295D-03-0.594D-03 0.330D-03 0.448D-02 0.879D-02
 Coeff-Com: -0.101D-01-0.589D-01-0.174D+00 0.374D+00 0.857D+00
 Coeff:     -0.285D-06 0.568D-06 0.817D-06-0.682D-06 0.170D-04 0.237D-04
 Coeff:      0.374D-04-0.295D-03-0.594D-03 0.330D-03 0.448D-02 0.879D-02
 Coeff:     -0.101D-01-0.589D-01-0.174D+00 0.374D+00 0.857D+00
 Gap=     0.253 Goal=   None    Shift=    0.000
 RMSDP=2.14D-08 MaxDP=1.05D-06 DE=-1.55D-11 OVMax= 6.65D-07

 Cycle  18  Pass 1  IDiag  1:
 RMSU=  5.18D-09    CP:  4.52D-01  1.52D+00  1.20D+00  6.30D-01  1.14D+00
                    CP:  1.16D+00  1.14D+00  1.49D+00  1.72D+00  1.51D+00
                    CP:  1.61D+00  1.27D+00  1.40D+00  1.43D+00  1.38D+00
                    CP:  1.55D+00  1.20D+00
 E= -3010.54935611916     Delta-E=       -0.000000000023 Rises=F Damp=F
 DIIS: error= 5.68D-09 at cycle  18 NSaved=  18.
 NSaved=18 IEnMin=18 EnMin= -3010.54935611916     IErMin=18 ErrMin= 5.68D-09
 ErrMax= 5.68D-09  0.00D+00 EMaxC= 1.00D-01 BMatC= 8.06D-15 BMatP= 1.24D-13
 IDIUse=1 WtCom= 1.00D+00 WtEn= 0.00D+00
 Coeff-Com:  0.166D-06-0.342D-06-0.343D-07 0.497D-06-0.444D-05-0.520D-05
 Coeff-Com:  0.311D-05 0.389D-04 0.300D-04-0.245D-03-0.229D-03 0.510D-03
 Coeff-Com:  0.598D-02 0.616D-02-0.515D-01-0.674D-01 0.928D-01 0.101D+01
 Coeff:      0.166D-06-0.342D-06-0.343D-07 0.497D-06-0.444D-05-0.520D-05
 Coeff:      0.311D-05 0.389D-04 0.300D-04-0.245D-03-0.229D-03 0.510D-03
 Coeff:      0.598D-02 0.616D-02-0.515D-01-0.674D-01 0.928D-01 0.101D+01
 Gap=     0.253 Goal=   None    Shift=    0.000
 RMSDP=7.39D-09 MaxDP=4.30D-07 DE=-2.27D-11 OVMax= 1.68D-07

 SCF Done:  E(RwB97XD) =  -3010.54935612     A.U. after   18 cycles
            NFock= 18  Conv=0.74D-08     -V/T= 2.0016
 KE= 3.005857914343D+03 PE=-8.634897716896D+03 EE= 1.876971144374D+03
 Leave Link  502 at Wed May  1 15:17:24 2024, MaxMem=  1207959552 cpu:            1046.4 elap:            1046.5
 (Enter /software/gaussian/g16-c01/sse4/g16/l601.exe)
 Copying SCF densities to generalized density rwf, IOpCl= 0 IROHF=0.

 **********************************************************************

            Population analysis using the SCF Density.

 **********************************************************************

 Alpha  occ. eigenvalues -- -483.34513 -62.89581 -56.69211 -56.68726 -56.68726
 Alpha  occ. eigenvalues --  -19.46596 -19.46504 -14.86085 -10.59885 -10.58544
 Alpha  occ. eigenvalues --  -10.58065 -10.57886 -10.57571 -10.53703  -9.05417
 Alpha  occ. eigenvalues --   -6.87924  -6.86317  -6.86308  -2.97869  -2.97437
 Alpha  occ. eigenvalues --   -2.97428  -2.96141  -2.96141  -1.50330  -1.33301
 Alpha  occ. eigenvalues --   -1.23695  -1.15619  -1.12698  -1.06876  -1.01819
 Alpha  occ. eigenvalues --   -0.96483  -0.91799  -0.85977  -0.81575  -0.81373
 Alpha  occ. eigenvalues --   -0.80710  -0.79024  -0.76837  -0.76728  -0.73947
 Alpha  occ. eigenvalues --   -0.70220  -0.68427  -0.65185  -0.62393  -0.60241
 Alpha  occ. eigenvalues --   -0.57841  -0.57540  -0.56754  -0.56279
 Alpha virt. eigenvalues --   -0.31028  -0.22072  -0.18717  -0.16311  -0.14593
 Alpha virt. eigenvalues --   -0.12327  -0.11045  -0.08777  -0.07373  -0.07027
 Alpha virt. eigenvalues --   -0.05039  -0.04265  -0.03384  -0.02408  -0.02032
 Alpha virt. eigenvalues --   -0.00958   0.00146   0.00987   0.01357   0.02574
 Alpha virt. eigenvalues --    0.04069   0.04800   0.05514   0.05711   0.06367
 Alpha virt. eigenvalues --    0.07254   0.07918   0.07976   0.08209   0.09201
 Alpha virt. eigenvalues --    0.10287   0.10936   0.11444   0.12023   0.12690
 Alpha virt. eigenvalues --    0.12819   0.13628   0.14377   0.15084   0.15741
 Alpha virt. eigenvalues --    0.16401   0.17057   0.17990   0.18836   0.18993
 Alpha virt. eigenvalues --    0.20526   0.20619   0.21010   0.22050   0.24279
 Alpha virt. eigenvalues --    0.25051   0.25699   0.26802   0.27749   0.27855
 Alpha virt. eigenvalues --    0.29568   0.31823   0.33544   0.34258   0.35774
 Alpha virt. eigenvalues --    0.37115   0.37509   0.37736   0.39620   0.40262
 Alpha virt. eigenvalues --    0.42329   0.43090   0.44232   0.46267   0.46790
 Alpha virt. eigenvalues --    0.47626   0.48284   0.49149   0.51268   0.52928
 Alpha virt. eigenvalues --    0.53390   0.54340   0.55538   0.56745   0.58767
 Alpha virt. eigenvalues --    0.60300   0.61464   0.62767   0.65136   0.67883
 Alpha virt. eigenvalues --    0.69678   0.70797   0.72182   0.72433   0.73373
 Alpha virt. eigenvalues --    0.73820   0.78774   0.78934   0.80993   0.83955
 Alpha virt. eigenvalues --    0.85096   0.87186   0.91207   0.91910   0.97603
 Alpha virt. eigenvalues --    0.98962   1.00203   1.03596   1.04680   1.05710
 Alpha virt. eigenvalues --    1.07920   1.10501   1.11183   1.11751   1.13580
 Alpha virt. eigenvalues --    1.21392   1.23861   1.26083   1.32084   1.35673
 Alpha virt. eigenvalues --    1.36085   1.37008   1.43930   1.53538   1.56303
 Alpha virt. eigenvalues --    1.57670   1.57898   1.59835   1.61561   1.65315
 Alpha virt. eigenvalues --    1.68320   1.68648   1.72681   1.74572   1.78171
 Alpha virt. eigenvalues --    1.80261   1.84697   1.86276   1.89908   1.92148
 Alpha virt. eigenvalues --    1.96523   2.02054   2.02685   2.04787   2.06899
 Alpha virt. eigenvalues --    2.08493   2.13752   2.19624   2.21936   2.28735
 Alpha virt. eigenvalues --    2.36961   2.40388   2.42049   2.42795   2.51651
 Alpha virt. eigenvalues --    2.55988   2.62247   2.65251   2.67402   2.70985
 Alpha virt. eigenvalues --    2.72627   2.75746   2.76583   2.80169   2.80769
 Alpha virt. eigenvalues --    2.92369   2.95333   2.99945   3.04563   3.07996
 Alpha virt. eigenvalues --    3.12228   3.14091   3.18297   3.22914   3.23537
 Alpha virt. eigenvalues --    3.26648   3.38356   3.46854   3.50420   3.53645
 Alpha virt. eigenvalues --    3.56045   3.69202   3.73409   3.81251   3.86180
 Alpha virt. eigenvalues --    4.05239   4.05492   4.13316   4.18474   4.39395
 Alpha virt. eigenvalues --    4.43651   4.56414   4.59113   4.92501   4.95172
 Alpha virt. eigenvalues --    5.03811   5.07978   5.62110   6.15065   6.61127
 Alpha virt. eigenvalues --    7.43872   7.45479   7.55463  23.20269  23.60364
 Alpha virt. eigenvalues --   23.68066  23.78426  23.95144  24.00464  35.31874
 Alpha virt. eigenvalues --   47.87824  49.84840  49.93652 289.77188 289.78858
 Alpha virt. eigenvalues --  289.913461020.88305
          Condensed to atoms (all electrons):
               1          2          3          4          5          6
     1  C    9.093414  -2.942648   0.670275  -1.947180  -0.880705   0.329881
     2  C   -2.942648  14.577674  -2.891002  -2.234187   1.470331  -0.028136
     3  C    0.670275  -2.891002  13.470988  -2.904667  -1.723354   0.026762
     4  C   -1.947180  -2.234187  -2.904667  14.863599   1.563778   0.018513
     5  C   -0.880705   1.470331  -1.723354   1.563778   8.048782   0.000387
     6  H    0.329881  -0.028136   0.026762   0.018513   0.000387   0.327430
     7  H    0.064732   0.219710   0.087025  -0.026913  -0.018791  -0.001631
     8  H    0.005943  -0.015522   0.075573   0.245668  -0.022113  -0.000003
     9  H    0.025549  -0.018363   0.009571  -0.011709   0.310075  -0.001987
    10  N   -0.174629   0.374958  -1.103647   0.467216   0.045276  -0.000703
    11  O    0.011630   0.009629  -0.213518  -0.090527  -0.047092  -0.000046
    12  O    0.329450  -0.089295  -0.215824  -0.093541  -0.047637   0.000032
    13  C    1.949502  -2.879249   1.367525  -4.198686  -2.752174  -0.013399
    14  H   -0.007895   0.005255  -0.002777  -0.071867  -0.025358  -0.000016
    15  Br   0.092246  -0.137497   0.079382   0.112989   0.014550  -0.000599
               7          8          9         10         11         12
     1  C    0.064732   0.005943   0.025549  -0.174629   0.011630   0.329450
     2  C    0.219710  -0.015522  -0.018363   0.374958   0.009629  -0.089295
     3  C    0.087025   0.075573   0.009571  -1.103647  -0.213518  -0.215824
     4  C   -0.026913   0.245668  -0.011709   0.467216  -0.090527  -0.093541
     5  C   -0.018791  -0.022113   0.310075   0.045276  -0.047092  -0.047637
     6  H   -0.001631  -0.000003  -0.001987  -0.000703  -0.000046   0.000032
     7  H    0.298997  -0.000014   0.000017  -0.028445  -0.001499   0.022838
     8  H   -0.000014   0.285530   0.000056  -0.025551   0.020662  -0.000403
     9  H    0.000017   0.000056   0.311591   0.000228   0.000018   0.000011
    10  N   -0.028445  -0.025551   0.000228   7.488967   0.131716   0.121983
    11  O   -0.001499   0.020662   0.000018   0.131716   7.874162  -0.001640
    12  O    0.022838  -0.000403   0.000011   0.121983  -0.001640   7.893619
    13  C    0.013725   0.052604   0.020308  -0.194946   0.274696   0.047069
    14  H   -0.000009  -0.001958  -0.003399   0.001021  -0.000453  -0.000131
    15  Br  -0.000057  -0.002050  -0.002914   0.004798  -0.002697   0.002868
              13         14         15
     1  C    1.949502  -0.007895   0.092246
     2  C   -2.879249   0.005255  -0.137497
     3  C    1.367525  -0.002777   0.079382
     4  C   -4.198686  -0.071867   0.112989
     5  C   -2.752174  -0.025358   0.014550
     6  H   -0.013399  -0.000016  -0.000599
     7  H    0.013725  -0.000009  -0.000057
     8  H    0.052604  -0.001958  -0.002050
     9  H    0.020308  -0.003399  -0.002914
    10  N   -0.194946   0.001021   0.004798
    11  O    0.274696  -0.000453  -0.002697
    12  O    0.047069  -0.000131   0.002868
    13  C   12.469729   0.397018  -0.083783
    14  H    0.397018   0.256960  -0.020391
    15  Br  -0.083783  -0.020391  34.958909
 Mulliken charges:
               1
     1  C   -0.619565
     2  C    0.578341
     3  C   -0.732313
     4  C    0.307513
     5  C    0.064044
     6  H    0.343515
     7  H    0.370315
     8  H    0.381578
     9  H    0.360948
    10  N   -0.108241
    11  O    0.034957
    12  O    0.030601
    13  C   -0.469939
    14  H    0.474000
    15  Br  -0.015753
 Sum of Mulliken charges =   1.00000
 Mulliken charges with hydrogens summed into heavy atoms:
               1
     1  C   -0.276050
     2  C    0.948656
     3  C   -0.732313
     4  C    0.689090
     5  C    0.424992
    10  N   -0.108241
    11  O    0.034957
    12  O    0.030601
    13  C    0.004060
    15  Br  -0.015753
 Electronic spatial extent (au):  <R**2>=           2801.8026
 Charge=              1.0000 electrons
 Dipole moment (field-independent basis, Debye):
    X=             -0.3330    Y=              0.1641    Z=              3.5187  Tot=              3.5382
 Quadrupole moment (field-independent basis, Debye-Ang):
   XX=            -70.5832   YY=            -53.0771   ZZ=            -66.8067
   XY=              0.7594   XZ=              2.7312   YZ=             -1.3670
 Traceless Quadrupole moment (field-independent basis, Debye-Ang):
   XX=             -7.0942   YY=             10.4118   ZZ=             -3.3177
   XY=              0.7594   XZ=              2.7312   YZ=             -1.3670
 Octapole moment (field-independent basis, Debye-Ang**2):
  XXX=           -295.5099  YYY=             93.1163  ZZZ=             94.3430  XYY=            -74.1790
  XXY=             31.0729  XXZ=             44.1441  XZZ=            -75.9679  YZZ=             24.5076
  YYZ=             36.2045  XYZ=             -1.3349
 Hexadecapole moment (field-independent basis, Debye-Ang**3):
 XXXX=          -2266.3514 YYYY=           -688.9228 ZZZZ=           -387.7758 XXXY=            -70.6188
 XXXZ=             10.7688 YYYX=            -63.2120 YYYZ=           -174.1475 ZZZX=            -20.9995
 ZZZY=           -160.0121 XXYY=           -456.3918 XXZZ=           -376.3173 YYZZ=           -182.2047
 XXYZ=            -57.4978 YYXZ=             -2.3498 ZZXY=            -13.2920
 N-N= 7.415193020602D+02 E-N=-8.634897717438D+03  KE= 3.005857914343D+03
 No NMR shielding tensors so no spin-rotation constants.
 Leave Link  601 at Wed May  1 15:17:32 2024, MaxMem=  1207959552 cpu:               7.5 elap:               7.5
 (Enter /software/gaussian/g16-c01/sse4/g16/l9999.exe)
 Unable to Open any file for archive entry.
 1\1\GINC-BHX0002\SP\RwB97XD\6-311+G(d)\C6H5Br1N1O2(1+)\BWEIGHT\01-May-
 2024\0\\#P wB97XD/6-311+G* NoSymm #P Field=Z-204\\TitleMe\\1,1\C,0,0.0
 295,1.3397,0.0682\C,0,1.4348,1.2867,0.0064\C,0,2.1118,0.0511,-0.0054\C
 ,0,1.4451,-1.1372,0.0312\C,0,-0.6879,0.1682,0.11\H,0,-0.4713,2.2984,0.
 0781\H,0,2.0273,2.1965,-0.0322\H,0,1.9897,-2.0764,0.0232\H,0,-1.7716,0
 .1804,0.1582\N,0,3.5864,0.051,-0.0675\O,0,4.1471,-1.0597,-0.0881\O,0,4
 .145,1.1639,-0.0901\C,0,-0.0236,-1.1458,0.0835\H,0,-0.4367,-1.8725,0.7
 889\Br,0,-0.5359,-1.8697,-1.7408\\Version=ES64L-G16RevC.01\HF=-3010.54
 93561\RMSD=7.391e-09\Dipole=-2.0375317,1.2126472,2.5305468\Quadrupole=
 -5.2743355,7.7409471,-2.4666116,0.5646166,2.0305931,-1.0163264\PG=C01 
 [X(C6H5Br1N1O2)]\\@
 The archive entry for this job was punched.


 WHEN IT COMES TO CASH FLOW, IT SEEMS LIKE THE TIDE IS ALWAYS GOING OUT.
 Job cpu time:       0 days  0 hours 18 minutes 34.9 seconds.
 Elapsed time:       0 days  0 hours 18 minutes 35.0 seconds.
 File lengths (MBytes):  RWF=     40 Int=      0 D2E=      0 Chk=     32 Scr=      1
 Normal termination of Gaussian 16 at Wed May  1 15:17:33 2024.
