 Entering Gaussian System, Link 0=g16
 Initial command:
 /software/gaussian/g16-c01/sse4/g16/l1.exe "/local_scratch/24657413/Gau-6573.inp" -scrdir="/local_scratch/24657413/"
 Entering Link 1 = /software/gaussian/g16-c01/sse4/g16/l1.exe PID=      6585.
  
 Copyright (c) 1988-2019, Gaussian, Inc.  All Rights Reserved.
  
 This is part of the Gaussian(R) 16 program.  It is based on
 the Gaussian(R) 09 system (copyright 2009, Gaussian, Inc.),
 the Gaussian(R) 03 system (copyright 2003, Gaussian, Inc.),
 the Gaussian(R) 98 system (copyright 1998, Gaussian, Inc.),
 the Gaussian(R) 94 system (copyright 1995, Gaussian, Inc.),
 the Gaussian 92(TM) system (copyright 1992, Gaussian, Inc.),
 the Gaussian 90(TM) system (copyright 1990, Gaussian, Inc.),
 the Gaussian 88(TM) system (copyright 1988, Gaussian, Inc.),
 the Gaussian 86(TM) system (copyright 1986, Carnegie Mellon
 University), and the Gaussian 82(TM) system (copyright 1983,
 Carnegie Mellon University). Gaussian is a federally registered
 trademark of Gaussian, Inc.
  
 This software contains proprietary and confidential information,
 including trade secrets, belonging to Gaussian, Inc.
  
 This software is provided under written license and may be
 used, copied, transmitted, or stored only in accord with that
 written license.
  
 The following legend is applicable only to US Government
 contracts under FAR:
  
                    RESTRICTED RIGHTS LEGEND
  
 Use, reproduction and disclosure by the US Government is
 subject to restrictions as set forth in subparagraphs (a)
 and (c) of the Commercial Computer Software - Restricted
 Rights clause in FAR 52.227-19.
  
 Gaussian, Inc.
 340 Quinnipiac St., Bldg. 40, Wallingford CT 06492
  
  
 ---------------------------------------------------------------
 Warning -- This program may not be used in any manner that
 competes with the business of Gaussian, Inc. or will provide
 assistance to any competitor of Gaussian, Inc.  The licensee
 of this program is prohibited from giving any competitor of
 Gaussian, Inc. access to this program.  By using this program,
 the user acknowledges that Gaussian, Inc. is engaged in the
 business of creating and licensing software in the field of
 computational chemistry and represents and warrants to the
 licensee that it is not a competitor of Gaussian, Inc. and that
 it will not use this program in any manner prohibited above.
 ---------------------------------------------------------------
  

 Cite this work as:
 Gaussian 16, Revision C.01,
 M. J. Frisch, G. W. Trucks, H. B. Schlegel, G. E. Scuseria, 
 M. A. Robb, J. R. Cheeseman, G. Scalmani, V. Barone, 
 G. A. Petersson, H. Nakatsuji, X. Li, M. Caricato, A. V. Marenich, 
 J. Bloino, B. G. Janesko, R. Gomperts, B. Mennucci, H. P. Hratchian, 
 J. V. Ortiz, A. F. Izmaylov, J. L. Sonnenberg, D. Williams-Young, 
 F. Ding, F. Lipparini, F. Egidi, J. Goings, B. Peng, A. Petrone, 
 T. Henderson, D. Ranasinghe, V. G. Zakrzewski, J. Gao, N. Rega, 
 G. Zheng, W. Liang, M. Hada, M. Ehara, K. Toyota, R. Fukuda, 
 J. Hasegawa, M. Ishida, T. Nakajima, Y. Honda, O. Kitao, H. Nakai, 
 T. Vreven, K. Throssell, J. A. Montgomery, Jr., J. E. Peralta, 
 F. Ogliaro, M. J. Bearpark, J. J. Heyd, E. N. Brothers, K. N. Kudin, 
 V. N. Staroverov, T. A. Keith, R. Kobayashi, J. Normand, 
 K. Raghavachari, A. P. Rendell, J. C. Burant, S. S. Iyengar, 
 J. Tomasi, M. Cossi, J. M. Millam, M. Klene, C. Adamo, R. Cammi, 
 J. W. Ochterski, R. L. Martin, K. Morokuma, O. Farkas, 
 J. B. Foresman, and D. J. Fox, Gaussian, Inc., Wallingford CT, 2019.
 
 ******************************************
 Gaussian 16:  ES64L-G16RevC.01  3-Jul-2019
                 1-May-2024 
 ******************************************
 %chk=geometry.chk
 %mem=9GB
 %nprocshared=12
 Will use up to   12 processors via shared memory.
 ----------------------------------------
 #P wB97XD/6-311+G* NoSymm #P Field=X-272
 ----------------------------------------
 1/38=1,172=1/1;
 2/12=2,15=1,17=6,18=5,40=1/2;
 3/5=4,6=6,7=11,11=2,14=1,15=-272,25=1,30=1,74=-58/1,2,3;
 4//1;
 5/5=2,38=5/2;
 6/7=2,8=2,9=2,10=2,28=1/1;
 99/5=1,9=1/99;
 Leave Link    1 at Wed May  1 14:27:44 2024, MaxMem=  1207959552 cpu:               1.6 elap:               1.6
 (Enter /software/gaussian/g16-c01/sse4/g16/l101.exe)
 -------
 TitleMe
 -------
 Symbolic Z-matrix:
 Charge =  1 Multiplicity = 1
 C                     0.0295    1.3397    0.0682 
 C                     1.4348    1.2867    0.0064 
 C                     2.1118    0.0511   -0.0054 
 C                     1.4451   -1.1372    0.0312 
 C                    -0.6879    0.1682    0.11 
 H                    -0.4713    2.2984    0.0781 
 H                     2.0273    2.1965   -0.0322 
 H                     1.9897   -2.0764    0.0232 
 H                    -1.7716    0.1804    0.1582 
 N                     3.5864    0.051    -0.0675 
 O                     4.1471   -1.0597   -0.0881 
 O                     4.145     1.1639   -0.0901 
 C                    -0.0236   -1.1458    0.0835 
 H                    -0.4367   -1.8725    0.7889 
 Br                   -0.5359   -1.8697   -1.7408 
 
 ITRead=  0  0  0  0  0  0  0  0  0  0  0  0  0  0  0
 MicOpt= -1 -1 -1 -1 -1 -1 -1 -1 -1 -1 -1 -1 -1 -1 -1
 NAtoms=     15 NQM=       15 NQMF=       0 NMMI=      0 NMMIF=      0
                NMic=       0 NMicF=      0.
                    Isotopes and Nuclear Properties:
 (Nuclear quadrupole moments (NQMom) in fm**2, nuclear magnetic moments (NMagM)
  in nuclear magnetons)

  Atom         1           2           3           4           5           6           7           8           9          10
 IAtWgt=          12          12          12          12          12           1           1           1           1          14
 AtmWgt=  12.0000000  12.0000000  12.0000000  12.0000000  12.0000000   1.0078250   1.0078250   1.0078250   1.0078250  14.0030740
 NucSpn=           0           0           0           0           0           1           1           1           1           2
 AtZEff=  -0.0000000  -0.0000000  -0.0000000  -0.0000000  -0.0000000  -0.0000000  -0.0000000  -0.0000000  -0.0000000  -0.0000000
 NQMom=    0.0000000   0.0000000   0.0000000   0.0000000   0.0000000   0.0000000   0.0000000   0.0000000   0.0000000   2.0440000
 NMagM=    0.0000000   0.0000000   0.0000000   0.0000000   0.0000000   2.7928460   2.7928460   2.7928460   2.7928460   0.4037610
 AtZNuc=   6.0000000   6.0000000   6.0000000   6.0000000   6.0000000   1.0000000   1.0000000   1.0000000   1.0000000   7.0000000

  Atom        11          12          13          14          15
 IAtWgt=          16          16          12           1          79
 AtmWgt=  15.9949146  15.9949146  12.0000000   1.0078250  78.9183361
 NucSpn=           0           0           0           1           3
 AtZEff=  -0.0000000  -0.0000000  -0.0000000  -0.0000000  -0.0000000
 NQMom=    0.0000000   0.0000000   0.0000000   0.0000000  31.3000000
 NMagM=    0.0000000   0.0000000   0.0000000   2.7928460   2.1063990
 AtZNuc=   8.0000000   8.0000000   6.0000000   1.0000000  35.0000000
 Leave Link  101 at Wed May  1 14:27:46 2024, MaxMem=  1207959552 cpu:               1.5 elap:               1.5
 (Enter /software/gaussian/g16-c01/sse4/g16/l202.exe)
                          Input orientation:                          
 ---------------------------------------------------------------------
 Center     Atomic      Atomic             Coordinates (Angstroms)
 Number     Number       Type             X           Y           Z
 ---------------------------------------------------------------------
      1          6           0        0.029500    1.339700    0.068200
      2          6           0        1.434800    1.286700    0.006400
      3          6           0        2.111800    0.051100   -0.005400
      4          6           0        1.445100   -1.137200    0.031200
      5          6           0       -0.687900    0.168200    0.110000
      6          1           0       -0.471300    2.298400    0.078100
      7          1           0        2.027300    2.196500   -0.032200
      8          1           0        1.989700   -2.076400    0.023200
      9          1           0       -1.771600    0.180400    0.158200
     10          7           0        3.586400    0.051000   -0.067500
     11          8           0        4.147100   -1.059700   -0.088100
     12          8           0        4.145000    1.163900   -0.090100
     13          6           0       -0.023600   -1.145800    0.083500
     14          1           0       -0.436700   -1.872500    0.788900
     15         35           0       -0.535900   -1.869700   -1.740800
 ---------------------------------------------------------------------
                    Distance matrix (angstroms):
                    1          2          3          4          5
     1  C    0.000000
     2  C    1.407656   0.000000
     3  C    2.449874   1.408963   0.000000
     4  C    2.853126   2.424049   1.363043   0.000000
     5  C    1.374344   2.401589   2.804523   2.501993   0.000000
     6  H    1.081667   2.159142   3.424870   3.934226   2.141421
     7  H    2.176095   1.086408   2.147231   3.384750   3.392128
     8  H    3.938800   3.408612   2.131193   1.085702   3.495040
     9  H    2.143837   3.395283   3.888995   3.478413   1.084840
    10  N    3.785591   2.482297   1.475907   2.450862   4.279589
    11  O    4.768247   3.587631   2.320164   2.705743   4.992415
    12  O    4.122294   2.714696   2.319353   3.549540   4.938459
    13  C    2.486114   2.837240   2.449573   1.469656   1.472614
    14  H    3.324903   3.754379   3.290289   2.157764   2.165286
    15  Br   3.727252   4.110867   3.702891   2.756973   2.757100
                    6          7          8          9         10
     6  H    0.000000
     7  H    2.503108   0.000000
     8  H    5.019802   4.273425   0.000000
     9  H    2.486588   4.304945   4.388479   0.000000
    10  N    4.640790   2.652397   2.661486   5.364313   0.000000
    11  O    5.712624   3.885809   2.387560   6.052233   1.244373
    12  O    4.756638   2.356750   3.893289   6.002923   1.245428
    13  C    3.473180   3.923079   2.218790   2.195425   3.806210
    14  H    4.231175   4.827242   2.552506   2.528663   4.540772
    15  Br   4.548146   5.101303   3.087568   3.055498   4.845862
                   11         12         13         14         15
    11  O    0.000000
    12  O    2.223602   0.000000
    13  C    4.175117   4.768865   0.000000
    14  H    4.737193   5.566358   1.093770   0.000000
    15  Br   5.031700   5.817075   2.028436   2.531646   0.000000
 Symmetry turned off by external request.
 Stoichiometry    C6H5BrNO2(1+)
 Framework group  C1[X(C6H5BrNO2)]
 Deg. of freedom    39
 Full point group                 C1      NOp   1
 Rotational constants (GHZ):           1.8252210           0.5518633           0.4576002
 Leave Link  202 at Wed May  1 14:27:47 2024, MaxMem=  1207959552 cpu:               1.2 elap:               1.2
 (Enter /software/gaussian/g16-c01/sse4/g16/l301.exe)
 Standard basis: 6-311+G(d) (5D, 7F)
 Ernie: Thresh=  0.10000D-02 Tol=  0.10000D-05 Strict=F.
 The following finite field(s) will be applied:
 An electric field of             -0.0272  0.0000  0.0000
   261 basis functions,   443 primitive gaussians,   273 cartesian basis functions
    49 alpha electrons       49 beta electrons
       nuclear repulsion energy       739.2122215416 Hartrees.
 IExCor= 4639 DFT=T Ex+Corr=wB97XD ExCW=0 ScaHFX=  1.000000
 ScaDFX=  1.000000  1.000000  1.000000  1.000000 ScalE2=  1.000000  1.000000
 IRadAn=      5 IRanWt=     -1 IRanGd=            0 ICorTp=0 IEmpDi=121
 HFx  wShort=  0.000000 wLong=  0.200000 cFull=  0.222036 cShort=  0.000000 cLong=  0.777964
 DFx  wShort=  0.000000 wLong=  0.200000 cFull=  0.000000 cShort=  0.000000 cLong=  1.000000
 NAtoms=   15 NActive=   15 NUniq=   15 SFac= 1.00D+00 NAtFMM=   60 NAOKFM=F Big=F
 Integral buffers will be    131072 words long.
 Raffenetti 2 integral format.
 Two-electron integral symmetry is turned off.
 R6Disp:  Grimme-D2 Dispersion energy=       -0.0077368520 Hartrees.
 Nuclear repulsion after empirical dispersion term =      739.2044846896 Hartrees.
 Leave Link  301 at Wed May  1 14:27:48 2024, MaxMem=  1207959552 cpu:               1.0 elap:               1.0
 (Enter /software/gaussian/g16-c01/sse4/g16/l302.exe)
 NPDir=0 NMtPBC=     1 NCelOv=     1 NCel=       1 NClECP=     1 NCelD=      1
         NCelK=      1 NCelE2=     1 NClLst=     1 CellRange=     0.0.
 One-electron integrals computed using PRISM.
 NBasis=   261 RedAO= T EigKep=  2.35D-06  NBF=   261
 NBsUse=   261 1.00D-06 EigRej= -1.00D+00 NBFU=   261
 Precomputing XC quadrature grid using
 IXCGrd= 4 IRadAn=           5 IRanWt=          -1 IRanGd=           0 AccXCQ= 0.00D+00.
 Generated NRdTot=       0 NPtTot=           0 NUsed=           0 NTot=          32
 NSgBfM=   273   273   273   273   273 MxSgAt=    15 MxSgA2=    15.
 Leave Link  302 at Wed May  1 14:28:10 2024, MaxMem=  1207959552 cpu:              22.0 elap:              22.0
 (Enter /software/gaussian/g16-c01/sse4/g16/l303.exe)
 DipDrv:  MaxL=1.
 The nuclear repulsion energy is now       734.0705617164 hartrees.
 Leave Link  303 at Wed May  1 14:28:13 2024, MaxMem=  1207959552 cpu:               3.2 elap:               3.2
 (Enter /software/gaussian/g16-c01/sse4/g16/l401.exe)
 ExpMin= 3.50D-02 ExpMax= 4.40D+05 ExpMxC= 1.51D+04 IAcc=3 IRadAn=         5 AccDes= 0.00D+00
 Harris functional with IExCor= 4639 and IRadAn=       5 diagonalized for initial guess.
 HarFok:  IExCor= 4639 AccDes= 0.00D+00 IRadAn=         5 IDoV= 1 UseB2=F ITyADJ=14
 ICtDFT=  3500011 ScaDFX=  1.000000  1.000000  1.000000  1.000000
 FoFCou: FMM=F IPFlag=           0 FMFlag=      100000 FMFlg1=           0
         NFxFlg=           0 DoJE=T BraDBF=F KetDBF=T FulRan=T
         wScrn=  0.000000 ICntrl=       500 IOpCl=  0 I1Cent=   200000004 NGrid=           0
         NMat0=    1 NMatS0=      1 NMatT0=    0 NMatD0=    1 NMtDS0=    0 NMtDT0=    0
 Symmetry not used in FoFCou.
 Harris En= -2971.63830332939    
 JPrj=0 DoOrth=F DoCkMO=F.
 Leave Link  401 at Wed May  1 14:28:44 2024, MaxMem=  1207959552 cpu:              30.7 elap:              30.7
 (Enter /software/gaussian/g16-c01/sse4/g16/l502.exe)
 Two-electron integral symmetry not used.
 Closed shell SCF:
 Using DIIS extrapolation, IDIIS=  1040.
 NGot=  1207959552 LenX=  1207804877 LenY=  1207729907
 Requested convergence on RMS density matrix=1.00D-08 within 128 cycles.
 Requested convergence on MAX density matrix=1.00D-06.
 Requested convergence on             energy=1.00D-06.
 No special actions if energy rises.
 Fock matrices will be formed incrementally for  20 cycles.

 Cycle   1  Pass 1  IDiag  1:
 FoFJK:  IHMeth= 1 ICntrl=       0 DoSepK=T KAlg= 0 I1Cent=           0 FoldK=F
 IRaf=         1 NMat=       1 IRICut=       1 DoRegI=T DoRafI=F ISym2E= 0 IDoP0=0 IntGTp=1.
 FoFCou: FMM=F IPFlag=           0 FMFlag=      100000 FMFlg1=           0
         NFxFlg=           0 DoJE=T BraDBF=F KetDBF=F FulRan=T
         wScrn=  0.000000 ICntrl=       500 IOpCl=  0 I1Cent=           0 NGrid=           0
         NMat0=    1 NMatS0=      1 NMatT0=    0 NMatD0=    1 NMtDS0=    0 NMtDT0=    0
 Symmetry not used in FoFCou.
 E= -3001.19769475853    
 DIIS: error= 3.19D-01 at cycle   1 NSaved=   1.
 NSaved= 1 IEnMin= 1 EnMin= -3001.19769475853     IErMin= 1 ErrMin= 3.19D-01
 ErrMax= 3.19D-01  0.00D+00 EMaxC= 1.00D-01 BMatC= 1.46D+01 BMatP= 1.46D+01
 IDIUse=3 WtCom= 0.00D+00 WtEn= 1.00D+00
 Coeff-Com:  0.100D+01
 Coeff-En:   0.100D+01
 Coeff:      0.100D+01
 Gap=     0.468 Goal=   None    Shift=    0.000
 GapD=    0.468 DampG=2.000 DampE=0.250 DampFc=0.5000 IDamp=-1.
 Damping current iteration by 5.00D-01
 RMSDP=1.44D+01 MaxDP=1.49D+03              OVMax= 9.97D-01

 Cycle   2  Pass 1  IDiag  1:
 RMSU=  3.45D-01    CP:  5.08D-01
 E= -2985.70165797360     Delta-E=       15.496036784928 Rises=F Damp=T
 DIIS: error= 1.41D-01 at cycle   2 NSaved=   2.
 NSaved= 2 IEnMin= 1 EnMin= -3001.19769475853     IErMin= 2 ErrMin= 1.41D-01
 ErrMax= 1.41D-01  0.00D+00 EMaxC= 1.00D-01 BMatC= 9.07D+00 BMatP= 1.46D+01
 IDIUse=3 WtCom= 0.00D+00 WtEn= 1.00D+00
 Coeff-Com:  0.356D+00 0.644D+00
 Coeff-En:   0.719D+00 0.281D+00
 Coeff:      0.719D+00 0.281D+00
 Gap=     0.521 Goal=   None    Shift=    0.000
 RMSDP=7.38D+00 MaxDP=7.49D+02 DE= 1.55D+01 OVMax= 9.86D-01

 Cycle   3  Pass 1  IDiag  1:
 RMSU=  5.86D-02    CP:  3.08D-03  1.44D-01
 E= -2998.68257260105     Delta-E=      -12.980914627442 Rises=F Damp=F
 DIIS: error= 1.41D-01 at cycle   3 NSaved=   3.
 NSaved= 3 IEnMin= 1 EnMin= -3001.19769475853     IErMin= 2 ErrMin= 1.41D-01
 ErrMax= 1.41D-01  0.00D+00 EMaxC= 1.00D-01 BMatC= 8.07D+00 BMatP= 9.07D+00
 IDIUse=3 WtCom= 0.00D+00 WtEn= 1.00D+00
 Coeff-Com:  0.374D+00 0.628D-01 0.563D+00
 Coeff-En:   0.541D+00 0.000D+00 0.459D+00
 Coeff:      0.541D+00 0.000D+00 0.459D+00
 Gap=    -0.209 Goal=   None    Shift=    0.000
 RMSDP=2.92D-02 MaxDP=1.65D+00 DE=-1.30D+01 OVMax= 7.88D-01

 Cycle   4  Pass 1  IDiag  1:
 RMSU=  2.71D-02    CP:  3.34D-03  1.20D-01  9.01D-01
 E= -3009.68946213283     Delta-E=      -11.006889531784 Rises=F Damp=F
 DIIS: error= 5.98D-02 at cycle   4 NSaved=   4.
 NSaved= 4 IEnMin= 4 EnMin= -3009.68946213283     IErMin= 4 ErrMin= 5.98D-02
 ErrMax= 5.98D-02  0.00D+00 EMaxC= 1.00D-01 BMatC= 1.16D+00 BMatP= 8.07D+00
 IDIUse=3 WtCom= 4.02D-01 WtEn= 5.98D-01
 Coeff-Com:  0.170D+00 0.589D-02 0.881D-01 0.736D+00
 Coeff-En:   0.612D-01 0.000D+00 0.000D+00 0.939D+00
 Coeff:      0.105D+00 0.237D-02 0.354D-01 0.857D+00
 Gap=     0.374 Goal=   None    Shift=    0.000
 RMSDP=4.74D-02 MaxDP=3.79D+00 DE=-1.10D+01 OVMax= 6.02D-01

 Cycle   5  Pass 1  IDiag  1:
 RMSU=  4.53D-02    CP:  2.95D-03  9.97D-02  7.18D-01  9.61D-01
 E= -3008.88970034028     Delta-E=        0.799761792551 Rises=F Damp=F
 DIIS: error= 6.72D-02 at cycle   5 NSaved=   5.
 NSaved= 5 IEnMin= 4 EnMin= -3009.68946213283     IErMin= 4 ErrMin= 5.98D-02
 ErrMax= 6.72D-02  0.00D+00 EMaxC= 1.00D-01 BMatC= 1.59D+00 BMatP= 1.16D+00
 IDIUse=2 WtCom= 0.00D+00 WtEn= 1.00D+00
 Coeff-En:   0.000D+00 0.000D+00 0.000D+00 0.653D+00 0.347D+00
 Coeff:      0.000D+00 0.000D+00 0.000D+00 0.653D+00 0.347D+00
 Gap=     0.091 Goal=   None    Shift=    0.000
 RMSDP=4.45D-02 MaxDP=2.84D+00 DE= 8.00D-01 OVMax= 8.21D-01

 Cycle   6  Pass 1  IDiag  1:
 RMSU=  2.50D-02    CP:  4.15D-03  8.60D-02  5.64D-01  4.36D-01  3.96D-01
 E= -3009.44162310668     Delta-E=       -0.551922766404 Rises=F Damp=F
 DIIS: error= 5.31D-02 at cycle   6 NSaved=   6.
 NSaved= 6 IEnMin= 4 EnMin= -3009.68946213283     IErMin= 6 ErrMin= 5.31D-02
 ErrMax= 5.31D-02  0.00D+00 EMaxC= 1.00D-01 BMatC= 7.07D-01 BMatP= 1.16D+00
 IDIUse=3 WtCom= 4.69D-01 WtEn= 5.31D-01
 EnCoef did     1 forward-backward iterations
 Coeff-Com:  0.129D-01 0.252D-01 0.313D-01 0.394D+00 0.245D+00 0.292D+00
 Coeff-En:   0.000D+00 0.000D+00 0.000D+00 0.515D+00 0.201D+00 0.284D+00
 Coeff:      0.604D-02 0.118D-01 0.147D-01 0.458D+00 0.222D+00 0.288D+00
 Gap=     0.035 Goal=   None    Shift=    0.000
 RMSDP=3.00D-02 MaxDP=1.60D+00 DE=-5.52D-01 OVMax= 7.94D-01

 Cycle   7  Pass 1  IDiag  1:
 RMSU=  1.67D-02    CP:  3.13D-03  8.43D-02  6.08D-01  7.57D-01  3.70D-01
                    CP:  2.91D-01
 E= -3010.44004992837     Delta-E=       -0.998426821689 Rises=F Damp=F
 DIIS: error= 2.75D-02 at cycle   7 NSaved=   7.
 NSaved= 7 IEnMin= 7 EnMin= -3010.44004992837     IErMin= 7 ErrMin= 2.75D-02
 ErrMax= 2.75D-02  0.00D+00 EMaxC= 1.00D-01 BMatC= 1.53D-01 BMatP= 7.07D-01
 IDIUse=3 WtCom= 7.25D-01 WtEn= 2.75D-01
 Coeff-Com: -0.106D-01 0.134D-01 0.969D-02 0.162D+00 0.686D-01 0.276D+00
 Coeff-Com:  0.481D+00
 Coeff-En:   0.000D+00 0.000D+00 0.000D+00 0.000D+00 0.000D+00 0.123D+00
 Coeff-En:   0.877D+00
 Coeff:     -0.768D-02 0.973D-02 0.703D-02 0.117D+00 0.498D-01 0.234D+00
 Coeff:      0.590D+00
 Gap=     0.121 Goal=   None    Shift=    0.000
 RMSDP=8.19D-03 MaxDP=4.08D-01 DE=-9.98D-01 OVMax= 1.34D-01

 Cycle   8  Pass 1  IDiag  1:
 RMSU=  7.39D-03    CP:  3.30D-03  8.62D-02  5.80D-01  8.02D-01  3.69D-01
                    CP:  2.69D-01  9.40D-01
 E= -3010.55058917301     Delta-E=       -0.110539244640 Rises=F Damp=F
 DIIS: error= 1.09D-02 at cycle   8 NSaved=   8.
 NSaved= 8 IEnMin= 8 EnMin= -3010.55058917301     IErMin= 8 ErrMin= 1.09D-02
 ErrMax= 1.09D-02  0.00D+00 EMaxC= 1.00D-01 BMatC= 1.80D-02 BMatP= 1.53D-01
 IDIUse=3 WtCom= 8.91D-01 WtEn= 1.09D-01
 Coeff-Com: -0.339D-02-0.741D-03-0.859D-02 0.181D-01 0.741D-02 0.909D-01
 Coeff-Com:  0.227D+00 0.669D+00
 Coeff-En:   0.000D+00 0.000D+00 0.000D+00 0.000D+00 0.000D+00 0.000D+00
 Coeff-En:   0.000D+00 0.100D+01
 Coeff:     -0.302D-02-0.661D-03-0.766D-02 0.161D-01 0.661D-02 0.810D-01
 Coeff:      0.203D+00 0.705D+00
 Gap=     0.143 Goal=   None    Shift=    0.000
 RMSDP=3.32D-03 MaxDP=1.29D-01 DE=-1.11D-01 OVMax= 8.09D-02

 Cycle   9  Pass 1  IDiag  1:
 RMSU=  2.97D-03    CP:  3.32D-03  8.50D-02  5.60D-01  8.00D-01  3.68D-01
                    CP:  3.01D-01  9.38D-01  9.65D-01
 E= -3010.55619341840     Delta-E=       -0.005604245392 Rises=F Damp=F
 DIIS: error= 1.48D-02 at cycle   9 NSaved=   9.
 NSaved= 9 IEnMin= 9 EnMin= -3010.55619341840     IErMin= 8 ErrMin= 1.09D-02
 ErrMax= 1.48D-02  0.00D+00 EMaxC= 1.00D-01 BMatC= 1.51D-02 BMatP= 1.80D-02
 IDIUse=3 WtCom= 8.91D-01 WtEn= 1.09D-01
 Coeff-Com:  0.128D-02-0.185D-02-0.493D-02-0.881D-02-0.133D-01 0.443D-01
 Coeff-Com:  0.253D-01 0.474D+00 0.484D+00
 Coeff-En:   0.000D+00 0.000D+00 0.000D+00 0.000D+00 0.000D+00 0.000D+00
 Coeff-En:   0.000D+00 0.376D+00 0.624D+00
 Coeff:      0.114D-02-0.165D-02-0.439D-02-0.786D-02-0.119D-01 0.395D-01
 Coeff:      0.226D-01 0.463D+00 0.500D+00
 Gap=     0.153 Goal=   None    Shift=    0.000
 RMSDP=1.87D-03 MaxDP=1.35D-01 DE=-5.60D-03 OVMax= 4.96D-02

 Cycle  10  Pass 1  IDiag  1:
 RMSU=  1.30D-03    CP:  3.28D-03  8.46D-02  5.52D-01  7.90D-01  3.56D-01
                    CP:  3.03D-01  9.03D-01  1.05D+00  8.42D-01
 E= -3010.56824201494     Delta-E=       -0.012048596535 Rises=F Damp=F
 DIIS: error= 2.63D-03 at cycle  10 NSaved=  10.
 NSaved=10 IEnMin=10 EnMin= -3010.56824201494     IErMin=10 ErrMin= 2.63D-03
 ErrMax= 2.63D-03  0.00D+00 EMaxC= 1.00D-01 BMatC= 1.16D-03 BMatP= 1.51D-02
 IDIUse=3 WtCom= 9.74D-01 WtEn= 2.63D-02
 Coeff-Com: -0.307D-03 0.110D-02-0.230D-02 0.110D-03-0.663D-02 0.134D-01
 Coeff-Com: -0.582D-01-0.789D-01 0.135D+00 0.996D+00
 Coeff-En:   0.000D+00 0.000D+00 0.000D+00 0.000D+00 0.000D+00 0.000D+00
 Coeff-En:   0.000D+00 0.000D+00 0.000D+00 0.100D+01
 Coeff:     -0.299D-03 0.107D-02-0.224D-02 0.107D-03-0.646D-02 0.130D-01
 Coeff:     -0.566D-01-0.768D-01 0.132D+00 0.996D+00
 Gap=     0.148 Goal=   None    Shift=    0.000
 RMSDP=1.06D-03 MaxDP=6.14D-02 DE=-1.20D-02 OVMax= 3.09D-02

 Cycle  11  Pass 1  IDiag  1:
 RMSU=  5.59D-04    CP:  3.30D-03  8.47D-02  5.44D-01  7.93D-01  3.55D-01
                    CP:  3.11D-01  9.12D-01  1.09D+00  1.04D+00  9.83D-01
 E= -3010.57059675892     Delta-E=       -0.002354743985 Rises=F Damp=F
 DIIS: error= 1.01D-03 at cycle  11 NSaved=  11.
 NSaved=11 IEnMin=11 EnMin= -3010.57059675892     IErMin=11 ErrMin= 1.01D-03
 ErrMax= 1.01D-03  0.00D+00 EMaxC= 1.00D-01 BMatC= 1.41D-04 BMatP= 1.16D-03
 IDIUse=3 WtCom= 9.90D-01 WtEn= 1.01D-02
 Coeff-Com: -0.747D-04 0.576D-04 0.432D-03 0.156D-02-0.252D-02 0.125D-02
 Coeff-Com: -0.187D-01-0.758D-01-0.462D-01 0.302D+00 0.838D+00
 Coeff-En:   0.000D+00 0.000D+00 0.000D+00 0.000D+00 0.000D+00 0.000D+00
 Coeff-En:   0.000D+00 0.000D+00 0.000D+00 0.000D+00 0.100D+01
 Coeff:     -0.739D-04 0.570D-04 0.428D-03 0.155D-02-0.250D-02 0.124D-02
 Coeff:     -0.185D-01-0.751D-01-0.458D-01 0.299D+00 0.839D+00
 Gap=     0.152 Goal=   None    Shift=    0.000
 RMSDP=6.06D-04 MaxDP=5.71D-02 DE=-2.35D-03 OVMax= 1.62D-02

 Cycle  12  Pass 1  IDiag  1:
 RMSU=  2.36D-04    CP:  3.29D-03  8.43D-02  5.42D-01  7.94D-01  3.51D-01
                    CP:  3.12D-01  9.03D-01  1.07D+00  1.09D+00  1.22D+00
                    CP:  1.22D+00
 E= -3010.57110894170     Delta-E=       -0.000512182778 Rises=F Damp=F
 DIIS: error= 4.33D-04 at cycle  12 NSaved=  12.
 NSaved=12 IEnMin=12 EnMin= -3010.57110894170     IErMin=12 ErrMin= 4.33D-04
 ErrMax= 4.33D-04  0.00D+00 EMaxC= 1.00D-01 BMatC= 4.33D-05 BMatP= 1.41D-04
 IDIUse=3 WtCom= 9.96D-01 WtEn= 4.33D-03
 Coeff-Com: -0.254D-04-0.454D-04 0.552D-03 0.449D-03 0.334D-03-0.251D-02
 Coeff-Com:  0.116D-01 0.100D-01-0.304D-01-0.561D-01 0.162D+00 0.904D+00
 Coeff-En:   0.000D+00 0.000D+00 0.000D+00 0.000D+00 0.000D+00 0.000D+00
 Coeff-En:   0.000D+00 0.000D+00 0.000D+00 0.000D+00 0.000D+00 0.100D+01
 Coeff:     -0.253D-04-0.452D-04 0.550D-03 0.447D-03 0.332D-03-0.250D-02
 Coeff:      0.115D-01 0.999D-02-0.303D-01-0.559D-01 0.162D+00 0.904D+00
 Gap=     0.154 Goal=   None    Shift=    0.000
 RMSDP=3.04D-04 MaxDP=1.58D-02 DE=-5.12D-04 OVMax= 1.63D-02

 Cycle  13  Pass 1  IDiag  1:
 RMSU=  1.32D-04    CP:  3.28D-03  8.42D-02  5.42D-01  7.93D-01  3.50D-01
                    CP:  3.13D-01  9.03D-01  1.04D+00  1.08D+00  1.29D+00
                    CP:  1.34D+00  1.51D+00
 E= -3010.57130242088     Delta-E=       -0.000193479173 Rises=F Damp=F
 DIIS: error= 3.21D-04 at cycle  13 NSaved=  13.
 NSaved=13 IEnMin=13 EnMin= -3010.57130242088     IErMin=13 ErrMin= 3.21D-04
 ErrMax= 3.21D-04  0.00D+00 EMaxC= 1.00D-01 BMatC= 4.48D-05 BMatP= 4.33D-05
 IDIUse=3 WtCom= 9.97D-01 WtEn= 3.21D-03
 Coeff-Com: -0.184D-03 0.249D-03 0.222D-03-0.875D-03 0.294D-04-0.173D-02
 Coeff-Com:  0.137D-01 0.216D-01 0.454D-02-0.168D-01-0.161D+00 0.195D+00
 Coeff-Com:  0.945D+00
 Coeff-En:   0.000D+00 0.000D+00 0.000D+00 0.000D+00 0.000D+00 0.000D+00
 Coeff-En:   0.000D+00 0.000D+00 0.000D+00 0.000D+00 0.000D+00 0.000D+00
 Coeff-En:   0.100D+01
 Coeff:     -0.184D-03 0.248D-03 0.222D-03-0.873D-03 0.293D-04-0.172D-02
 Coeff:      0.136D-01 0.215D-01 0.453D-02-0.167D-01-0.160D+00 0.195D+00
 Coeff:      0.945D+00
 Gap=     0.155 Goal=   None    Shift=    0.000
 RMSDP=2.92D-04 MaxDP=1.60D-02 DE=-1.93D-04 OVMax= 1.22D-02

 Cycle  14  Pass 1  IDiag  1:
 RMSU=  4.84D-05    CP:  3.27D-03  8.41D-02  5.43D-01  7.92D-01  3.49D-01
                    CP:  3.12D-01  9.02D-01  1.02D+00  1.07D+00  1.36D+00
                    CP:  1.30D+00  2.04D+00  1.77D+00
 E= -3010.57141828831     Delta-E=       -0.000115867436 Rises=F Damp=F
 DIIS: error= 2.84D-04 at cycle  14 NSaved=  14.
 NSaved=14 IEnMin=14 EnMin= -3010.57141828831     IErMin=14 ErrMin= 2.84D-04
 ErrMax= 2.84D-04  0.00D+00 EMaxC= 1.00D-01 BMatC= 2.88D-05 BMatP= 4.33D-05
 IDIUse=3 WtCom= 9.97D-01 WtEn= 2.84D-03
 Coeff-Com: -0.862D-04 0.118D-03 0.316D-04-0.266D-03-0.547D-03-0.843D-03
 Coeff-Com:  0.371D-02-0.143D-02 0.148D-01 0.887D-01-0.116D+00-0.391D+00
 Coeff-Com: -0.208D+00 0.161D+01
 Coeff-En:   0.000D+00 0.000D+00 0.000D+00 0.000D+00 0.000D+00 0.000D+00
 Coeff-En:   0.000D+00 0.000D+00 0.000D+00 0.000D+00 0.000D+00 0.000D+00
 Coeff-En:   0.000D+00 0.100D+01
 Coeff:     -0.860D-04 0.117D-03 0.315D-04-0.265D-03-0.545D-03-0.840D-03
 Coeff:      0.370D-02-0.143D-02 0.148D-01 0.885D-01-0.115D+00-0.390D+00
 Coeff:     -0.208D+00 0.161D+01
 Gap=     0.159 Goal=   None    Shift=    0.000
 RMSDP=4.64D-04 MaxDP=2.23D-02 DE=-1.16D-04 OVMax= 1.55D-02

 Cycle  15  Pass 1  IDiag  1:
 RMSU=  4.56D-05    CP:  3.26D-03  8.39D-02  5.45D-01  7.90D-01  3.48D-01
                    CP:  3.12D-01  9.02D-01  9.78D-01  1.04D+00  1.45D+00
                    CP:  1.22D+00  2.62D+00  3.00D+00  2.22D+00
 E= -3010.57151691831     Delta-E=       -0.000098629998 Rises=F Damp=F
 DIIS: error= 1.17D-04 at cycle  15 NSaved=  15.
 NSaved=15 IEnMin=15 EnMin= -3010.57151691831     IErMin=15 ErrMin= 1.17D-04
 ErrMax= 1.17D-04  0.00D+00 EMaxC= 1.00D-01 BMatC= 5.94D-06 BMatP= 2.88D-05
 IDIUse=3 WtCom= 9.99D-01 WtEn= 1.17D-03
 Coeff-Com: -0.881D-05-0.102D-04 0.397D-04 0.374D-03-0.345D-03-0.318D-03
 Coeff-Com: -0.209D-03-0.694D-02 0.611D-03 0.482D-01-0.955D-03-0.172D+00
 Coeff-Com: -0.583D+00 0.780D+00 0.935D+00
 Coeff-En:   0.000D+00 0.000D+00 0.000D+00 0.000D+00 0.000D+00 0.000D+00
 Coeff-En:   0.000D+00 0.000D+00 0.000D+00 0.000D+00 0.000D+00 0.000D+00
 Coeff-En:   0.000D+00 0.000D+00 0.100D+01
 Coeff:     -0.880D-05-0.102D-04 0.396D-04 0.374D-03-0.345D-03-0.317D-03
 Coeff:     -0.209D-03-0.693D-02 0.611D-03 0.482D-01-0.954D-03-0.172D+00
 Coeff:     -0.582D+00 0.779D+00 0.935D+00
 Gap=     0.161 Goal=   None    Shift=    0.000
 RMSDP=2.61D-04 MaxDP=1.51D-02 DE=-9.86D-05 OVMax= 8.15D-03

 Cycle  16  Pass 1  IDiag  1:
 RMSU=  7.76D-05    CP:  3.26D-03  8.38D-02  5.46D-01  7.89D-01  3.46D-01
                    CP:  3.11D-01  9.00D-01  9.57D-01  1.04D+00  1.51D+00
                    CP:  1.17D+00  2.98D+00  3.00D+00  3.00D+00  1.81D+00
 E= -3010.57153775986     Delta-E=       -0.000020841547 Rises=F Damp=F
 DIIS: error= 5.08D-05 at cycle  16 NSaved=  16.
 NSaved=16 IEnMin=16 EnMin= -3010.57153775986     IErMin=16 ErrMin= 5.08D-05
 ErrMax= 5.08D-05  0.00D+00 EMaxC= 1.00D-01 BMatC= 4.93D-07 BMatP= 5.94D-06
 IDIUse=1 WtCom= 1.00D+00 WtEn= 0.00D+00
 Coeff-Com:  0.999D-06 0.119D-04 0.145D-04 0.116D-03-0.890D-04-0.112D-03
 Coeff-Com: -0.222D-04-0.700D-04-0.414D-02-0.917D-02 0.218D-01 0.881D-01
 Coeff-Com: -0.105D+00-0.161D+00 0.163D+00 0.101D+01
 Coeff:      0.999D-06 0.119D-04 0.145D-04 0.116D-03-0.890D-04-0.112D-03
 Coeff:     -0.222D-04-0.700D-04-0.414D-02-0.917D-02 0.218D-01 0.881D-01
 Coeff:     -0.105D+00-0.161D+00 0.163D+00 0.101D+01
 Gap=     0.161 Goal=   None    Shift=    0.000
 RMSDP=6.09D-05 MaxDP=3.50D-03 DE=-2.08D-05 OVMax= 2.00D-03

 Cycle  17  Pass 1  IDiag  1:
 RMSU=  2.48D-05    CP:  3.26D-03  8.38D-02  5.46D-01  7.89D-01  3.46D-01
                    CP:  3.11D-01  9.00D-01  9.53D-01  1.04D+00  1.52D+00
                    CP:  1.17D+00  3.00D+00  3.00D+00  3.00D+00  2.18D+00
                    CP:  1.22D+00
 E= -3010.57154025618     Delta-E=       -0.000002496326 Rises=F Damp=F
 DIIS: error= 3.05D-05 at cycle  17 NSaved=  17.
 NSaved=17 IEnMin=17 EnMin= -3010.57154025618     IErMin=17 ErrMin= 3.05D-05
 ErrMax= 3.05D-05  0.00D+00 EMaxC= 1.00D-01 BMatC= 8.58D-08 BMatP= 4.93D-07
 IDIUse=1 WtCom= 1.00D+00 WtEn= 0.00D+00
 Coeff-Com:  0.387D-05 0.484D-05-0.118D-05-0.365D-04 0.153D-04-0.686D-04
 Coeff-Com:  0.481D-04 0.781D-03-0.145D-02-0.955D-02 0.477D-02 0.660D-01
 Coeff-Com:  0.483D-01-0.155D+00-0.999D-01 0.317D+00 0.829D+00
 Coeff:      0.387D-05 0.484D-05-0.118D-05-0.365D-04 0.153D-04-0.686D-04
 Coeff:      0.481D-04 0.781D-03-0.145D-02-0.955D-02 0.477D-02 0.660D-01
 Coeff:      0.483D-01-0.155D+00-0.999D-01 0.317D+00 0.829D+00
 Gap=     0.161 Goal=   None    Shift=    0.000
 RMSDP=2.30D-05 MaxDP=8.12D-04 DE=-2.50D-06 OVMax= 1.02D-03

 Cycle  18  Pass 1  IDiag  1:
 RMSU=  9.68D-06    CP:  3.26D-03  8.38D-02  5.46D-01  7.89D-01  3.46D-01
                    CP:  3.11D-01  9.00D-01  9.53D-01  1.04D+00  1.53D+00
                    CP:  1.18D+00  3.00D+00  3.00D+00  3.00D+00  2.26D+00
                    CP:  1.24D+00  1.58D+00
 E= -3010.57154121276     Delta-E=       -0.000000956574 Rises=F Damp=F
 DIIS: error= 2.05D-05 at cycle  18 NSaved=  18.
 NSaved=18 IEnMin=18 EnMin= -3010.57154121276     IErMin=18 ErrMin= 2.05D-05
 ErrMax= 2.05D-05  0.00D+00 EMaxC= 1.00D-01 BMatC= 4.44D-08 BMatP= 8.58D-08
 IDIUse=1 WtCom= 1.00D+00 WtEn= 0.00D+00
 Coeff-Com:  0.138D-05-0.685D-05-0.622D-05-0.563D-04 0.308D-04-0.192D-04
 Coeff-Com: -0.333D-04-0.129D-03 0.127D-02 0.117D-02-0.892D-02-0.150D-01
 Coeff-Com:  0.233D-01 0.513D-01-0.558D-01-0.259D+00 0.156D+00 0.111D+01
 Coeff:      0.138D-05-0.685D-05-0.622D-05-0.563D-04 0.308D-04-0.192D-04
 Coeff:     -0.333D-04-0.129D-03 0.127D-02 0.117D-02-0.892D-02-0.150D-01
 Coeff:      0.233D-01 0.513D-01-0.558D-01-0.259D+00 0.156D+00 0.111D+01
 Gap=     0.161 Goal=   None    Shift=    0.000
 RMSDP=2.69D-05 MaxDP=1.02D-03 DE=-9.57D-07 OVMax= 1.25D-03

 Cycle  19  Pass 1  IDiag  1:
 RMSU=  4.13D-06    CP:  3.26D-03  8.38D-02  5.46D-01  7.89D-01  3.46D-01
                    CP:  3.11D-01  9.00D-01  9.53D-01  1.05D+00  1.53D+00
                    CP:  1.19D+00  3.00D+00  3.00D+00  3.00D+00  2.36D+00
                    CP:  1.28D+00  2.27D+00  1.96D+00
 E= -3010.57154203987     Delta-E=       -0.000000827110 Rises=F Damp=F
 DIIS: error= 1.59D-05 at cycle  19 NSaved=  19.
 NSaved=19 IEnMin=19 EnMin= -3010.57154203987     IErMin=19 ErrMin= 1.59D-05
 ErrMax= 1.59D-05  0.00D+00 EMaxC= 1.00D-01 BMatC= 2.05D-08 BMatP= 4.44D-08
 IDIUse=1 WtCom= 1.00D+00 WtEn= 0.00D+00
 Coeff-Com: -0.137D-05-0.161D-05-0.270D-05 0.240D-04 0.488D-05 0.481D-04
 Coeff-Com: -0.151D-03-0.420D-03 0.688D-03 0.404D-02-0.197D-02-0.273D-01
 Coeff-Com: -0.101D-01 0.568D-01 0.250D-01-0.132D+00-0.356D+00 0.452D-01
 Coeff-Com:  0.140D+01
 Coeff:     -0.137D-05-0.161D-05-0.270D-05 0.240D-04 0.488D-05 0.481D-04
 Coeff:     -0.151D-03-0.420D-03 0.688D-03 0.404D-02-0.197D-02-0.273D-01
 Coeff:     -0.101D-01 0.568D-01 0.250D-01-0.132D+00-0.356D+00 0.452D-01
 Coeff:      0.140D+01
 Gap=     0.161 Goal=   None    Shift=    0.000
 RMSDP=3.07D-05 MaxDP=1.18D-03 DE=-8.27D-07 OVMax= 1.55D-03

 Cycle  20  Pass 1  IDiag  1:
 RMSU=  4.46D-06    CP:  3.26D-03  8.38D-02  5.46D-01  7.90D-01  3.46D-01
                    CP:  3.12D-01  9.00D-01  9.52D-01  1.05D+00  1.53D+00
                    CP:  1.20D+00  3.00D+00  3.00D+00  3.00D+00  2.47D+00
                    CP:  1.35D+00  3.00D+00  3.00D+00  2.52D+00
 E= -3010.57154272767     Delta-E=       -0.000000687799 Rises=F Damp=F
 DIIS: error= 8.39D-06 at cycle  20 NSaved=  20.
 NSaved=20 IEnMin=20 EnMin= -3010.57154272767     IErMin=20 ErrMin= 8.39D-06
 ErrMax= 8.39D-06  0.00D+00 EMaxC= 1.00D-01 BMatC= 1.01D-08 BMatP= 2.05D-08
 IDIUse=1 WtCom= 1.00D+00 WtEn= 0.00D+00
 Coeff-Com:  0.105D-05 0.929D-06-0.176D-05 0.476D-04-0.117D-04 0.327D-04
 Coeff-Com: -0.902D-04-0.185D-03-0.232D-03 0.222D-02 0.355D-02-0.167D-01
 Coeff-Com: -0.198D-01 0.187D-01 0.498D-01 0.314D-01-0.305D+00-0.551D+00
 Coeff-Com:  0.569D+00 0.122D+01
 Coeff:      0.105D-05 0.929D-06-0.176D-05 0.476D-04-0.117D-04 0.327D-04
 Coeff:     -0.902D-04-0.185D-03-0.232D-03 0.222D-02 0.355D-02-0.167D-01
 Coeff:     -0.198D-01 0.187D-01 0.498D-01 0.314D-01-0.305D+00-0.551D+00
 Coeff:      0.569D+00 0.122D+01
 Gap=     0.161 Goal=   None    Shift=    0.000
 RMSDP=3.28D-05 MaxDP=1.25D-03 DE=-6.88D-07 OVMax= 1.72D-03

 Cycle  21  Pass 1  IDiag  1:
 Restarting incremental Fock formation.
 E= -3010.57154313313     Delta-E=       -0.000000405466 Rises=F Damp=F
 DIIS: error= 3.57D-06 at cycle  21 NSaved=  20.
 NSaved=20 IEnMin=20 EnMin= -3010.57154313313     IErMin=20 ErrMin= 3.57D-06
 ErrMax= 3.57D-06  0.00D+00 EMaxC= 1.00D-01 BMatC= 3.51D-09 BMatP= 1.01D-08
 IDIUse=1 WtCom= 1.00D+00 WtEn= 0.00D+00
 Coeff-Com:  0.838D-06-0.953D-06-0.522D-05-0.834D-05 0.111D-04 0.775D-04
 Coeff-Com:  0.345D-03-0.256D-03-0.179D-02 0.248D-02 0.975D-02 0.131D-01
 Coeff-Com: -0.394D-01-0.140D-01 0.706D-01 0.152D+00 0.220D-02-0.704D+00
 Coeff-Com:  0.229D+00 0.128D+01
 Coeff:      0.838D-06-0.953D-06-0.522D-05-0.834D-05 0.111D-04 0.775D-04
 Coeff:      0.345D-03-0.256D-03-0.179D-02 0.248D-02 0.975D-02 0.131D-01
 Coeff:     -0.394D-01-0.140D-01 0.706D-01 0.152D+00 0.220D-02-0.704D+00
 Coeff:      0.229D+00 0.128D+01
 Gap=     0.161 Goal=   None    Shift=    0.000
 RMSDP=1.69D-05 MaxDP=7.41D-04 DE=-4.05D-07 OVMax= 8.96D-04

 Cycle  22  Pass 1  IDiag  1:
 RMSU=  1.69D-05    CP:  1.00D+00
 E= -3010.57154321275     Delta-E=       -0.000000079614 Rises=F Damp=F
 DIIS: error= 2.37D-06 at cycle  22 NSaved=  20.
 NSaved=20 IEnMin=20 EnMin= -3010.57154321275     IErMin=20 ErrMin= 2.37D-06
 ErrMax= 2.37D-06  0.00D+00 EMaxC= 1.00D-01 BMatC= 5.38D-10 BMatP= 3.51D-09
 IDIUse=1 WtCom= 1.00D+00 WtEn= 0.00D+00
 Coeff-Com: -0.286D-06-0.694D-05 0.214D-06 0.292D-05 0.803D-05 0.243D-05
 Coeff-Com:  0.692D-04-0.485D-03-0.497D-03 0.109D-02 0.465D-02-0.504D-02
 Coeff-Com: -0.379D-02 0.281D-02 0.349D-01 0.869D-01-0.104D+00-0.169D+00
 Coeff-Com:  0.761D-02 0.114D+01
 Coeff:     -0.286D-06-0.694D-05 0.214D-06 0.292D-05 0.803D-05 0.243D-05
 Coeff:      0.692D-04-0.485D-03-0.497D-03 0.109D-02 0.465D-02-0.504D-02
 Coeff:     -0.379D-02 0.281D-02 0.349D-01 0.869D-01-0.104D+00-0.169D+00
 Coeff:      0.761D-02 0.114D+01
 Gap=     0.161 Goal=   None    Shift=    0.000
 RMSDP=4.37D-06 MaxDP=2.88D-04 DE=-7.96D-08 OVMax= 2.07D-04

 Cycle  23  Pass 1  IDiag  1:
 RMSU=  1.42D-06    CP:  1.00D+00  1.24D+00
 E= -3010.57154321968     Delta-E=       -0.000000006939 Rises=F Damp=F
 DIIS: error= 6.61D-07 at cycle  23 NSaved=  20.
 NSaved=20 IEnMin=20 EnMin= -3010.57154321968     IErMin=20 ErrMin= 6.61D-07
 ErrMax= 6.61D-07  0.00D+00 EMaxC= 1.00D-01 BMatC= 1.18D-10 BMatP= 5.38D-10
 IDIUse=1 WtCom= 1.00D+00 WtEn= 0.00D+00
 Coeff-Com: -0.123D-05 0.241D-05-0.153D-05-0.214D-04-0.509D-04 0.397D-04
 Coeff-Com:  0.261D-03-0.330D-03-0.158D-02-0.601D-03 0.378D-02 0.281D-02
 Coeff-Com: -0.124D-01-0.162D-01 0.240D-01 0.825D-01-0.521D-01-0.231D+00
 Coeff-Com:  0.153D+00 0.105D+01
 Coeff:     -0.123D-05 0.241D-05-0.153D-05-0.214D-04-0.509D-04 0.397D-04
 Coeff:      0.261D-03-0.330D-03-0.158D-02-0.601D-03 0.378D-02 0.281D-02
 Coeff:     -0.124D-01-0.162D-01 0.240D-01 0.825D-01-0.521D-01-0.231D+00
 Coeff:      0.153D+00 0.105D+01
 Gap=     0.161 Goal=   None    Shift=    0.000
 RMSDP=1.52D-06 MaxDP=1.10D-04 DE=-6.94D-09 OVMax= 5.29D-05

 Cycle  24  Pass 1  IDiag  1:
 RMSU=  4.75D-07    CP:  1.00D+00  1.31D+00  1.58D+00
 E= -3010.57154322107     Delta-E=       -0.000000001384 Rises=F Damp=F
 DIIS: error= 6.57D-07 at cycle  24 NSaved=  20.
 NSaved=20 IEnMin=20 EnMin= -3010.57154322107     IErMin=20 ErrMin= 6.57D-07
 ErrMax= 6.57D-07  0.00D+00 EMaxC= 1.00D-01 BMatC= 5.01D-11 BMatP= 1.18D-10
 IDIUse=1 WtCom= 1.00D+00 WtEn= 0.00D+00
 Coeff-Com: -0.101D-05-0.479D-06-0.527D-05 0.108D-04-0.112D-04 0.179D-03
 Coeff-Com:  0.145D-03-0.394D-03-0.311D-03-0.148D-03 0.123D-02-0.285D-02
 Coeff-Com: -0.856D-02-0.152D-01 0.228D-01 0.455D-01-0.181D-01-0.274D+00
 Coeff-Com:  0.162D+00 0.109D+01
 Coeff:     -0.101D-05-0.479D-06-0.527D-05 0.108D-04-0.112D-04 0.179D-03
 Coeff:      0.145D-03-0.394D-03-0.311D-03-0.148D-03 0.123D-02-0.285D-02
 Coeff:     -0.856D-02-0.152D-01 0.228D-01 0.455D-01-0.181D-01-0.274D+00
 Coeff:      0.162D+00 0.109D+01
 Gap=     0.161 Goal=   None    Shift=    0.000
 RMSDP=8.58D-07 MaxDP=6.99D-05 DE=-1.38D-09 OVMax= 2.69D-05

 Cycle  25  Pass 1  IDiag  1:
 RMSU=  2.37D-07    CP:  1.00D+00  1.34D+00  1.91D+00  1.63D+00
 E= -3010.57154322166     Delta-E=       -0.000000000597 Rises=F Damp=F
 DIIS: error= 4.26D-07 at cycle  25 NSaved=  20.
 NSaved=20 IEnMin=20 EnMin= -3010.57154322166     IErMin=20 ErrMin= 4.26D-07
 ErrMax= 4.26D-07  0.00D+00 EMaxC= 1.00D-01 BMatC= 1.07D-11 BMatP= 5.01D-11
 IDIUse=1 WtCom= 1.00D+00 WtEn= 0.00D+00
 Coeff-Com:  0.114D-05 0.615D-05 0.556D-05-0.313D-05-0.591D-04 0.248D-04
 Coeff-Com:  0.274D-03-0.137D-03-0.304D-03-0.285D-03 0.194D-02 0.873D-03
 Coeff-Com: -0.530D-02-0.846D-02 0.308D-02 0.443D-01-0.248D-01-0.232D+00
 Coeff-Com: -0.112D+00 0.133D+01
 Coeff:      0.114D-05 0.615D-05 0.556D-05-0.313D-05-0.591D-04 0.248D-04
 Coeff:      0.274D-03-0.137D-03-0.304D-03-0.285D-03 0.194D-02 0.873D-03
 Coeff:     -0.530D-02-0.846D-02 0.308D-02 0.443D-01-0.248D-01-0.232D+00
 Coeff:     -0.112D+00 0.133D+01
 Gap=     0.161 Goal=   None    Shift=    0.000
 RMSDP=7.58D-07 MaxDP=6.82D-05 DE=-5.97D-10 OVMax= 2.41D-05

 Cycle  26  Pass 1  IDiag  1:
 RMSU=  2.53D-07    CP:  1.00D+00  1.37D+00  2.19D+00  1.83D+00  1.54D+00
 E= -3010.57154322192     Delta-E=       -0.000000000256 Rises=F Damp=F
 DIIS: error= 3.08D-07 at cycle  26 NSaved=  20.
 NSaved=20 IEnMin=20 EnMin= -3010.57154322192     IErMin=20 ErrMin= 3.08D-07
 ErrMax= 3.08D-07  0.00D+00 EMaxC= 1.00D-01 BMatC= 4.64D-12 BMatP= 1.07D-11
 IDIUse=1 WtCom= 1.00D+00 WtEn= 0.00D+00
 Coeff-Com:  0.250D-05 0.408D-06 0.318D-05-0.980D-04-0.808D-04 0.344D-03
 Coeff-Com:  0.164D-03 0.140D-05-0.102D-02 0.140D-02 0.560D-02 0.672D-02
 Coeff-Com: -0.119D-01-0.211D-01 0.142D-01 0.953D-01-0.642D-01-0.469D+00
 Coeff-Com:  0.399D-01 0.140D+01
 Coeff:      0.250D-05 0.408D-06 0.318D-05-0.980D-04-0.808D-04 0.344D-03
 Coeff:      0.164D-03 0.140D-05-0.102D-02 0.140D-02 0.560D-02 0.672D-02
 Coeff:     -0.119D-01-0.211D-01 0.142D-01 0.953D-01-0.642D-01-0.469D+00
 Coeff:      0.399D-01 0.140D+01
 Gap=     0.161 Goal=   None    Shift=    0.000
 RMSDP=6.21D-07 MaxDP=5.49D-05 DE=-2.56D-10 OVMax= 2.45D-05

 Cycle  27  Pass 1  IDiag  1:
 RMSU=  8.57D-08    CP:  1.00D+00  1.38D+00  2.44D+00  1.98D+00  2.04D+00
                    CP:  1.98D+00
 E= -3010.57154322212     Delta-E=       -0.000000000202 Rises=F Damp=F
 DIIS: error= 1.33D-07 at cycle  27 NSaved=  20.
 NSaved=20 IEnMin=20 EnMin= -3010.57154322212     IErMin=20 ErrMin= 1.33D-07
 ErrMax= 1.33D-07  0.00D+00 EMaxC= 1.00D-01 BMatC= 1.78D-12 BMatP= 4.64D-12
 IDIUse=1 WtCom= 1.00D+00 WtEn= 0.00D+00
 Coeff-Com: -0.103D-05-0.594D-05 0.437D-05 0.123D-05-0.190D-04-0.132D-03
 Coeff-Com:  0.316D-03 0.939D-04 0.554D-03 0.549D-03-0.823D-03-0.655D-03
 Coeff-Com: -0.735D-03-0.292D-02 0.218D-01 0.420D-01-0.342D-01-0.480D+00
 Coeff-Com:  0.223D+00 0.123D+01
 Coeff:     -0.103D-05-0.594D-05 0.437D-05 0.123D-05-0.190D-04-0.132D-03
 Coeff:      0.316D-03 0.939D-04 0.554D-03 0.549D-03-0.823D-03-0.655D-03
 Coeff:     -0.735D-03-0.292D-02 0.218D-01 0.420D-01-0.342D-01-0.480D+00
 Coeff:      0.223D+00 0.123D+01
 Gap=     0.161 Goal=   None    Shift=    0.000
 RMSDP=4.16D-07 MaxDP=3.47D-05 DE=-2.02D-10 OVMax= 1.63D-05

 Cycle  28  Pass 1  IDiag  1:
 RMSU=  8.50D-08    CP:  1.00D+00  1.39D+00  2.60D+00  1.94D+00  2.31D+00
                    CP:  2.82D+00  1.62D+00
 E= -3010.57154322209     Delta-E=        0.000000000036 Rises=F Damp=F
 DIIS: error= 3.73D-08 at cycle  28 NSaved=  20.
 NSaved=20 IEnMin=19 EnMin= -3010.57154322212     IErMin=20 ErrMin= 3.73D-08
 ErrMax= 3.73D-08  0.00D+00 EMaxC= 1.00D-01 BMatC= 2.08D-13 BMatP= 1.78D-12
 IDIUse=1 WtCom= 1.00D+00 WtEn= 0.00D+00
 Coeff-Com:  0.109D-05 0.143D-05 0.277D-05-0.105D-04 0.484D-04-0.465D-04
 Coeff-Com: -0.843D-04-0.369D-03-0.461D-03-0.154D-03 0.200D-02 0.162D-02
 Coeff-Com: -0.377D-02-0.112D-01 0.455D-02 0.821D-01 0.507D-01-0.236D+00
 Coeff-Com: -0.280D+00 0.139D+01
 Coeff:      0.109D-05 0.143D-05 0.277D-05-0.105D-04 0.484D-04-0.465D-04
 Coeff:     -0.843D-04-0.369D-03-0.461D-03-0.154D-03 0.200D-02 0.162D-02
 Coeff:     -0.377D-02-0.112D-01 0.455D-02 0.821D-01 0.507D-01-0.236D+00
 Coeff:     -0.280D+00 0.139D+01
 Gap=     0.161 Goal=   None    Shift=    0.000
 RMSDP=1.03D-07 MaxDP=7.44D-06 DE= 3.64D-11 OVMax= 4.67D-06

 Cycle  29  Pass 1  IDiag  1:
 RMSU=  2.23D-08    CP:  1.00D+00  1.39D+00  2.64D+00  1.92D+00  2.36D+00
                    CP:  3.00D+00  1.80D+00  1.21D+00
 E= -3010.57154322213     Delta-E=       -0.000000000045 Rises=F Damp=F
 DIIS: error= 4.71D-09 at cycle  29 NSaved=  20.
 NSaved=20 IEnMin=20 EnMin= -3010.57154322213     IErMin=20 ErrMin= 4.71D-09
 ErrMax= 4.71D-09  0.00D+00 EMaxC= 1.00D-01 BMatC= 1.53D-14 BMatP= 2.08D-13
 IDIUse=1 WtCom= 1.00D+00 WtEn= 0.00D+00
 Coeff-Com: -0.787D-08 0.323D-05 0.703D-05 0.811D-05-0.426D-04-0.276D-04
 Coeff-Com: -0.589D-04-0.647D-04-0.401D-04 0.506D-04 0.807D-03-0.346D-03
 Coeff-Com: -0.479D-02-0.298D-02 0.210D-01 0.306D-01-0.425D-01-0.106D+00
 Coeff-Com:  0.764D-01 0.103D+01
 Coeff:     -0.787D-08 0.323D-05 0.703D-05 0.811D-05-0.426D-04-0.276D-04
 Coeff:     -0.589D-04-0.647D-04-0.401D-04 0.506D-04 0.807D-03-0.346D-03
 Coeff:     -0.479D-02-0.298D-02 0.210D-01 0.306D-01-0.425D-01-0.106D+00
 Coeff:      0.764D-01 0.103D+01
 Gap=     0.161 Goal=   None    Shift=    0.000
 RMSDP=1.79D-08 MaxDP=1.03D-06 DE=-4.55D-11 OVMax= 5.74D-07

 Cycle  30  Pass 1  IDiag  1:
 RMSU=  4.86D-09    CP:  1.00D+00  1.39D+00  2.65D+00  1.93D+00  2.36D+00
                    CP:  3.00D+00  1.76D+00  1.19D+00  1.34D+00
 E= -3010.57154322213     Delta-E=        0.000000000001 Rises=F Damp=F
 DIIS: error= 1.63D-09 at cycle  30 NSaved=  20.
 NSaved=20 IEnMin=19 EnMin= -3010.57154322213     IErMin=20 ErrMin= 1.63D-09
 ErrMax= 1.63D-09  0.00D+00 EMaxC= 1.00D-01 BMatC= 1.60D-15 BMatP= 1.53D-14
 IDIUse=1 WtCom= 1.00D+00 WtEn= 0.00D+00
 Large coefficients: NSaved= 20 BigCof=    0.00 CofMax=   10.00 Det=-5.37D-15
 Inversion failed.  Reducing to 19 matrices.
 Large coefficients: NSaved= 19 BigCof=    0.00 CofMax=   10.00 Det=-5.65D-15
 Inversion failed.  Reducing to 18 matrices.
 Large coefficients: NSaved= 18 BigCof=    0.00 CofMax=   10.00 Det=-5.81D-15
 Inversion failed.  Reducing to 17 matrices.
 Large coefficients: NSaved= 17 BigCof=    0.00 CofMax=   10.00 Det=-5.84D-15
 Inversion failed.  Reducing to 16 matrices.
 Large coefficients: NSaved= 16 BigCof=    0.00 CofMax=   10.00 Det=-6.31D-15
 Inversion failed.  Reducing to 15 matrices.
 Coeff-Com:  0.434D-04 0.518D-04-0.337D-04-0.272D-03-0.147D-04 0.636D-03
 Coeff-Com:  0.850D-03-0.193D-02-0.651D-02-0.164D-02 0.188D-01 0.222D-01
 Coeff-Com: -0.123D+00-0.486D-01 0.114D+01
 Coeff:      0.434D-04 0.518D-04-0.337D-04-0.272D-03-0.147D-04 0.636D-03
 Coeff:      0.850D-03-0.193D-02-0.651D-02-0.164D-02 0.188D-01 0.222D-01
 Coeff:     -0.123D+00-0.486D-01 0.114D+01
 Gap=     0.161 Goal=   None    Shift=    0.000
 RMSDP=5.49D-09 MaxDP=2.88D-07 DE= 9.09D-13 OVMax= 1.37D-07

 SCF Done:  E(RwB97XD) =  -3010.57154322     A.U. after   30 cycles
            NFock= 30  Conv=0.55D-08     -V/T= 2.0016
 KE= 3.005845504054D+03 PE=-8.627076867583D+03 EE= 1.876589258590D+03
 Leave Link  502 at Wed May  1 14:58:02 2024, MaxMem=  1207959552 cpu:            1758.7 elap:            1758.8
 (Enter /software/gaussian/g16-c01/sse4/g16/l601.exe)
 Copying SCF densities to generalized density rwf, IOpCl= 0 IROHF=0.

 **********************************************************************

            Population analysis using the SCF Density.

 **********************************************************************

 Alpha  occ. eigenvalues -- -483.29421 -62.84479 -56.64113 -56.63628 -56.63618
 Alpha  occ. eigenvalues --  -19.33530 -19.33497 -14.72690 -10.55894 -10.53525
 Alpha  occ. eigenvalues --  -10.51969 -10.51098 -10.50381 -10.50369  -9.00309
 Alpha  occ. eigenvalues --   -6.82822  -6.81217  -6.81181  -2.92765  -2.92341
 Alpha  occ. eigenvalues --   -2.92311  -2.91027  -2.91026  -1.36898  -1.19786
 Alpha  occ. eigenvalues --   -1.18362  -1.09780  -1.07056  -1.01541  -0.94053
 Alpha  occ. eigenvalues --   -0.91109  -0.85452  -0.80141  -0.75725  -0.74774
 Alpha  occ. eigenvalues --   -0.72409  -0.70217  -0.69244  -0.66929  -0.64753
 Alpha  occ. eigenvalues --   -0.64207  -0.61483  -0.59662  -0.56740  -0.55199
 Alpha  occ. eigenvalues --   -0.51903  -0.43814  -0.42301  -0.42024
 Alpha virt. eigenvalues --   -0.25949  -0.18240  -0.14283  -0.13319  -0.13038
 Alpha virt. eigenvalues --   -0.10663  -0.08891  -0.05965  -0.04428  -0.04203
 Alpha virt. eigenvalues --   -0.03253  -0.01610  -0.00263   0.00501   0.00981
 Alpha virt. eigenvalues --    0.02198   0.03080   0.03915   0.04175   0.05238
 Alpha virt. eigenvalues --    0.06736   0.07842   0.08091   0.08858   0.10033
 Alpha virt. eigenvalues --    0.11133   0.11526   0.12807   0.13188   0.14233
 Alpha virt. eigenvalues --    0.16061   0.16366   0.16891   0.17713   0.18662
 Alpha virt. eigenvalues --    0.19523   0.21024   0.21727   0.23198   0.24406
 Alpha virt. eigenvalues --    0.24800   0.26232   0.28148   0.28427   0.29461
 Alpha virt. eigenvalues --    0.30910   0.31687   0.32590   0.33688   0.34094
 Alpha virt. eigenvalues --    0.35054   0.35531   0.36774   0.37721   0.38569
 Alpha virt. eigenvalues --    0.39203   0.40047   0.42009   0.42743   0.43836
 Alpha virt. eigenvalues --    0.44866   0.45389   0.46620   0.48077   0.49395
 Alpha virt. eigenvalues --    0.50492   0.51298   0.51788   0.52260   0.53551
 Alpha virt. eigenvalues --    0.54556   0.55087   0.56585   0.57034   0.59454
 Alpha virt. eigenvalues --    0.60163   0.61941   0.62116   0.63710   0.65761
 Alpha virt. eigenvalues --    0.66924   0.68156   0.68620   0.70179   0.70485
 Alpha virt. eigenvalues --    0.73316   0.75704   0.76751   0.77528   0.79568
 Alpha virt. eigenvalues --    0.82735   0.85568   0.88434   0.89962   0.90386
 Alpha virt. eigenvalues --    0.91162   0.95371   0.98442   1.02452   1.06918
 Alpha virt. eigenvalues --    1.07642   1.09925   1.10668   1.12372   1.15614
 Alpha virt. eigenvalues --    1.17170   1.20639   1.25416   1.26305   1.29434
 Alpha virt. eigenvalues --    1.32072   1.34684   1.36427   1.38586   1.41550
 Alpha virt. eigenvalues --    1.42186   1.42573   1.49546   1.59972   1.62743
 Alpha virt. eigenvalues --    1.63921   1.64210   1.68817   1.70158   1.71589
 Alpha virt. eigenvalues --    1.75292   1.77549   1.79003   1.82883   1.84460
 Alpha virt. eigenvalues --    1.85865   1.93424   1.93474   1.95285   1.98159
 Alpha virt. eigenvalues --    2.04434   2.08319   2.09120   2.12204   2.13962
 Alpha virt. eigenvalues --    2.14863   2.19423   2.25000   2.29631   2.34108
 Alpha virt. eigenvalues --    2.42389   2.48571   2.50130   2.51609   2.56866
 Alpha virt. eigenvalues --    2.61131   2.68205   2.71142   2.73593   2.79908
 Alpha virt. eigenvalues --    2.84044   2.85726   2.87807   2.88714   2.94012
 Alpha virt. eigenvalues --    2.97624   3.01224   3.09460   3.13401   3.14792
 Alpha virt. eigenvalues --    3.17415   3.20708   3.24579   3.29329   3.35828
 Alpha virt. eigenvalues --    3.40543   3.46593   3.52004   3.58321   3.62813
 Alpha virt. eigenvalues --    3.68350   3.82273   3.87003   3.87092   3.92392
 Alpha virt. eigenvalues --    4.10355   4.10600   4.18473   4.23572   4.44514
 Alpha virt. eigenvalues --    4.57695   4.61980   4.71386   5.06502   5.09312
 Alpha virt. eigenvalues --    5.17994   5.22137   5.75606   6.29034   6.66153
 Alpha virt. eigenvalues --    7.49033   7.50601   7.60608  23.25593  23.65738
 Alpha virt. eigenvalues --   23.72481  23.84559  23.99754  24.06984  35.45244
 Alpha virt. eigenvalues --   47.92922  49.97975  50.06788 289.82286 289.83952
 Alpha virt. eigenvalues --  289.964411020.93399
          Condensed to atoms (all electrons):
               1          2          3          4          5          6
     1  C   12.058575  -4.519654   0.334610  -2.727254  -1.671737   0.283221
     2  C   -4.519654  16.800120  -3.154284  -0.855292   0.451887   0.059916
     3  C    0.334610  -3.154284  15.518384  -5.131780  -1.542174   0.030100
     4  C   -2.727254  -0.855292  -5.131780  20.180157   0.768361   0.017694
     5  C   -1.671737   0.451887  -1.542174   0.768361  11.294935  -0.042950
     6  H    0.283221   0.059916   0.030100   0.017694  -0.042950   0.397218
     7  H    0.133955   0.145324   0.075888  -0.045203  -0.013360  -0.001722
     8  H    0.015622  -0.040872   0.113537   0.113084  -0.040040  -0.000007
     9  H    0.115738  -0.094709   0.038479  -0.041878   0.156380  -0.004606
    10  N   -0.346998   0.539011  -1.077515   0.521063  -0.014212  -0.000737
    11  O   -0.013167  -0.196239  -0.238696   0.068689  -0.095677  -0.000029
    12  O    0.523917  -0.036494  -0.234249  -0.281976  -0.046726   0.000150
    13  C    2.319147  -3.563219   1.957125  -6.899145  -3.133911  -0.012976
    14  H   -0.054718   0.039327  -0.031366  -0.092587   0.169981  -0.000010
    15  Br   0.037030   0.088208  -0.094320   0.096487  -0.201317  -0.000080
               7          8          9         10         11         12
     1  C    0.133955   0.015622   0.115738  -0.346998  -0.013167   0.523917
     2  C    0.145324  -0.040872  -0.094709   0.539011  -0.196239  -0.036494
     3  C    0.075888   0.113537   0.038479  -1.077515  -0.238696  -0.234249
     4  C   -0.045203   0.113084  -0.041878   0.521063   0.068689  -0.281976
     5  C   -0.013360  -0.040040   0.156380  -0.014212  -0.095677  -0.046726
     6  H   -0.001722  -0.000007  -0.004606  -0.000737  -0.000029   0.000150
     7  H    0.266342   0.000033   0.000069  -0.031941  -0.001769   0.038304
     8  H    0.000033   0.261189   0.000130  -0.027368   0.035199  -0.000456
     9  H    0.000069   0.000130   0.478949   0.000048   0.000026   0.000018
    10  N   -0.031941  -0.027368   0.000048   7.997782  -0.051861  -0.073448
    11  O   -0.001769   0.035199   0.000026  -0.051861   7.831978   0.026420
    12  O    0.038304  -0.000456   0.000018  -0.073448   0.026420   7.860876
    13  C    0.024664   0.150736   0.141930  -0.314966   0.452746   0.039695
    14  H   -0.000033  -0.002272  -0.009438   0.002102  -0.000566  -0.000099
    15  Br   0.000146   0.010986   0.003366   0.015056  -0.000562   0.002262
              13         14         15
     1  C    2.319147  -0.054718   0.037030
     2  C   -3.563219   0.039327   0.088208
     3  C    1.957125  -0.031366  -0.094320
     4  C   -6.899145  -0.092587   0.096487
     5  C   -3.133911   0.169981  -0.201317
     6  H   -0.012976  -0.000010  -0.000080
     7  H    0.024664  -0.000033   0.000146
     8  H    0.150736  -0.002272   0.010986
     9  H    0.141930  -0.009438   0.003366
    10  N   -0.314966   0.002102   0.015056
    11  O    0.452746  -0.000566  -0.000562
    12  O    0.039695  -0.000099   0.002262
    13  C   14.869815   0.287358   0.157262
    14  H    0.287358   0.394866  -0.060663
    15  Br   0.157262  -0.060663  34.922489
 Mulliken charges:
               1
     1  C   -0.488287
     2  C    0.336971
     3  C   -0.563740
     4  C    0.309578
     5  C   -0.039441
     6  H    0.274817
     7  H    0.409302
     8  H    0.410499
     9  H    0.215497
    10  N   -0.136016
    11  O    0.183507
    12  O    0.181805
    13  C   -0.476260
    14  H    0.358118
    15  Br   0.023650
 Sum of Mulliken charges =   1.00000
 Mulliken charges with hydrogens summed into heavy atoms:
               1
     1  C   -0.213470
     2  C    0.746273
     3  C   -0.563740
     4  C    0.720077
     5  C    0.176056
    10  N   -0.136016
    11  O    0.183507
    12  O    0.181805
    13  C   -0.118142
    15  Br   0.023650
 Electronic spatial extent (au):  <R**2>=           2785.2691
 Charge=              1.0000 electrons
 Dipole moment (field-independent basis, Debye):
    X=              8.1601    Y=              0.3652    Z=              0.6684  Tot=              8.1956
 Quadrupole moment (field-independent basis, Debye-Ang):
   XX=            -49.7798   YY=            -53.3459   ZZ=            -65.1031
   XY=             -0.3477   XZ=             -1.2194   YZ=             -0.3507
 Traceless Quadrupole moment (field-independent basis, Debye-Ang):
   XX=              6.2965   YY=              2.7304   ZZ=             -9.0269
   XY=             -0.3477   XZ=             -1.2194   YZ=             -0.3507
 Octapole moment (field-independent basis, Debye-Ang**2):
  XXX=           -172.2120  YYY=             95.1284  ZZZ=             83.2211  XYY=            -55.6846
  XXY=             34.4273  XXZ=             33.1008  XZZ=            -68.4521  YZZ=             21.3943
  YYZ=             30.0403  XYZ=              0.8364
 Hexadecapole moment (field-independent basis, Debye-Ang**3):
 XXXX=          -1754.3583 YYYY=           -698.1309 ZZZZ=           -367.3321 XXXY=            -70.8785
 XXXZ=            -37.9485 YYYX=            -71.2006 YYYZ=           -169.4179 ZZZX=            -30.5809
 ZZZY=           -148.7566 XXYY=           -419.1838 XXZZ=           -365.3385 YYZZ=           -176.1112
 XXYZ=            -60.7804 YYXZ=            -12.4068 ZZXY=            -17.5950
 N-N= 7.340705617164D+02 E-N=-8.627076867100D+03  KE= 3.005845504054D+03
 No NMR shielding tensors so no spin-rotation constants.
 Leave Link  601 at Wed May  1 14:58:10 2024, MaxMem=  1207959552 cpu:               7.4 elap:               7.4
 (Enter /software/gaussian/g16-c01/sse4/g16/l9999.exe)
 Unable to Open any file for archive entry.
 1\1\GINC-BHX0002\SP\RwB97XD\6-311+G(d)\C6H5Br1N1O2(1+)\BWEIGHT\01-May-
 2024\0\\#P wB97XD/6-311+G* NoSymm #P Field=X-272\\TitleMe\\1,1\C,0,0.0
 295,1.3397,0.0682\C,0,1.4348,1.2867,0.0064\C,0,2.1118,0.0511,-0.0054\C
 ,0,1.4451,-1.1372,0.0312\C,0,-0.6879,0.1682,0.11\H,0,-0.4713,2.2984,0.
 0781\H,0,2.0273,2.1965,-0.0322\H,0,1.9897,-2.0764,0.0232\H,0,-1.7716,0
 .1804,0.1582\N,0,3.5864,0.051,-0.0675\O,0,4.1471,-1.0597,-0.0881\O,0,4
 .145,1.1639,-0.0901\C,0,-0.0236,-1.1458,0.0835\H,0,-0.4367,-1.8725,0.7
 889\Br,0,-0.5359,-1.8697,-1.7408\\Version=ES64L-G16RevC.01\HF=-3010.57
 15432\RMSD=5.488e-09\Dipole=1.3038861,1.2917663,1.4091571\Quadrupole=4
 .6812677,2.0299771,-6.7112449,-0.2585417,-0.9066238,-0.2607061\PG=C01 
 [X(C6H5Br1N1O2)]\\@
 The archive entry for this job was punched.


 A FOOL CAN ASK MORE QUESTIONS THAN
 A WISE MAN CAN ANSWER.
 Job cpu time:       0 days  0 hours 30 minutes 28.2 seconds.
 Elapsed time:       0 days  0 hours 30 minutes 28.3 seconds.
 File lengths (MBytes):  RWF=     40 Int=      0 D2E=      0 Chk=     32 Scr=      1
 Normal termination of Gaussian 16 at Wed May  1 14:58:11 2024.
