 Entering Gaussian System, Link 0=g16
 Initial command:
 /software/gaussian/g16-c01/sse4/g16/l1.exe "/local_scratch/24657534/Gau-29959.inp" -scrdir="/local_scratch/24657534/"
 Entering Link 1 = /software/gaussian/g16-c01/sse4/g16/l1.exe PID=     29960.
  
 Copyright (c) 1988-2019, Gaussian, Inc.  All Rights Reserved.
  
 This is part of the Gaussian(R) 16 program.  It is based on
 the Gaussian(R) 09 system (copyright 2009, Gaussian, Inc.),
 the Gaussian(R) 03 system (copyright 2003, Gaussian, Inc.),
 the Gaussian(R) 98 system (copyright 1998, Gaussian, Inc.),
 the Gaussian(R) 94 system (copyright 1995, Gaussian, Inc.),
 the Gaussian 92(TM) system (copyright 1992, Gaussian, Inc.),
 the Gaussian 90(TM) system (copyright 1990, Gaussian, Inc.),
 the Gaussian 88(TM) system (copyright 1988, Gaussian, Inc.),
 the Gaussian 86(TM) system (copyright 1986, Carnegie Mellon
 University), and the Gaussian 82(TM) system (copyright 1983,
 Carnegie Mellon University). Gaussian is a federally registered
 trademark of Gaussian, Inc.
  
 This software contains proprietary and confidential information,
 including trade secrets, belonging to Gaussian, Inc.
  
 This software is provided under written license and may be
 used, copied, transmitted, or stored only in accord with that
 written license.
  
 The following legend is applicable only to US Government
 contracts under FAR:
  
                    RESTRICTED RIGHTS LEGEND
  
 Use, reproduction and disclosure by the US Government is
 subject to restrictions as set forth in subparagraphs (a)
 and (c) of the Commercial Computer Software - Restricted
 Rights clause in FAR 52.227-19.
  
 Gaussian, Inc.
 340 Quinnipiac St., Bldg. 40, Wallingford CT 06492
  
  
 ---------------------------------------------------------------
 Warning -- This program may not be used in any manner that
 competes with the business of Gaussian, Inc. or will provide
 assistance to any competitor of Gaussian, Inc.  The licensee
 of this program is prohibited from giving any competitor of
 Gaussian, Inc. access to this program.  By using this program,
 the user acknowledges that Gaussian, Inc. is engaged in the
 business of creating and licensing software in the field of
 computational chemistry and represents and warrants to the
 licensee that it is not a competitor of Gaussian, Inc. and that
 it will not use this program in any manner prohibited above.
 ---------------------------------------------------------------
  

 Cite this work as:
 Gaussian 16, Revision C.01,
 M. J. Frisch, G. W. Trucks, H. B. Schlegel, G. E. Scuseria, 
 M. A. Robb, J. R. Cheeseman, G. Scalmani, V. Barone, 
 G. A. Petersson, H. Nakatsuji, X. Li, M. Caricato, A. V. Marenich, 
 J. Bloino, B. G. Janesko, R. Gomperts, B. Mennucci, H. P. Hratchian, 
 J. V. Ortiz, A. F. Izmaylov, J. L. Sonnenberg, D. Williams-Young, 
 F. Ding, F. Lipparini, F. Egidi, J. Goings, B. Peng, A. Petrone, 
 T. Henderson, D. Ranasinghe, V. G. Zakrzewski, J. Gao, N. Rega, 
 G. Zheng, W. Liang, M. Hada, M. Ehara, K. Toyota, R. Fukuda, 
 J. Hasegawa, M. Ishida, T. Nakajima, Y. Honda, O. Kitao, H. Nakai, 
 T. Vreven, K. Throssell, J. A. Montgomery, Jr., J. E. Peralta, 
 F. Ogliaro, M. J. Bearpark, J. J. Heyd, E. N. Brothers, K. N. Kudin, 
 V. N. Staroverov, T. A. Keith, R. Kobayashi, J. Normand, 
 K. Raghavachari, A. P. Rendell, J. C. Burant, S. S. Iyengar, 
 J. Tomasi, M. Cossi, J. M. Millam, M. Klene, C. Adamo, R. Cammi, 
 J. W. Ochterski, R. L. Martin, K. Morokuma, O. Farkas, 
 J. B. Foresman, and D. J. Fox, Gaussian, Inc., Wallingford CT, 2019.
 
 ******************************************
 Gaussian 16:  ES64L-G16RevC.01  3-Jul-2019
                 1-May-2024 
 ******************************************
 %chk=geometry.chk
 %mem=9GB
 %nprocshared=12
 Will use up to   12 processors via shared memory.
 ----------------------------------------
 #P wB97XD/6-311+G* NoSymm #P Field=Z-262
 ----------------------------------------
 1/38=1,172=1/1;
 2/12=2,15=1,17=6,18=5,40=1/2;
 3/5=4,6=6,7=11,11=2,14=3,15=-262,25=1,30=1,74=-58/1,2,3;
 4//1;
 5/5=2,38=5/2;
 6/7=2,8=2,9=2,10=2,28=1/1;
 99/5=1,9=1/99;
 Leave Link    1 at Wed May  1 14:53:58 2024, MaxMem=  1207959552 cpu:               1.0 elap:               1.0
 (Enter /software/gaussian/g16-c01/sse4/g16/l101.exe)
 -------
 TitleMe
 -------
 Symbolic Z-matrix:
 Charge =  1 Multiplicity = 1
 C                     0.0295    1.3397    0.0682 
 C                     1.4348    1.2867    0.0064 
 C                     2.1118    0.0511   -0.0054 
 C                     1.4451   -1.1372    0.0312 
 C                    -0.6879    0.1682    0.11 
 H                    -0.4713    2.2984    0.0781 
 H                     2.0273    2.1965   -0.0322 
 H                     1.9897   -2.0764    0.0232 
 H                    -1.7716    0.1804    0.1582 
 N                     3.5864    0.051    -0.0675 
 O                     4.1471   -1.0597   -0.0881 
 O                     4.145     1.1639   -0.0901 
 C                    -0.0236   -1.1458    0.0835 
 H                    -0.4367   -1.8725    0.7889 
 Br                   -0.5359   -1.8697   -1.7408 
 
 ITRead=  0  0  0  0  0  0  0  0  0  0  0  0  0  0  0
 MicOpt= -1 -1 -1 -1 -1 -1 -1 -1 -1 -1 -1 -1 -1 -1 -1
 NAtoms=     15 NQM=       15 NQMF=       0 NMMI=      0 NMMIF=      0
                NMic=       0 NMicF=      0.
                    Isotopes and Nuclear Properties:
 (Nuclear quadrupole moments (NQMom) in fm**2, nuclear magnetic moments (NMagM)
  in nuclear magnetons)

  Atom         1           2           3           4           5           6           7           8           9          10
 IAtWgt=          12          12          12          12          12           1           1           1           1          14
 AtmWgt=  12.0000000  12.0000000  12.0000000  12.0000000  12.0000000   1.0078250   1.0078250   1.0078250   1.0078250  14.0030740
 NucSpn=           0           0           0           0           0           1           1           1           1           2
 AtZEff=  -0.0000000  -0.0000000  -0.0000000  -0.0000000  -0.0000000  -0.0000000  -0.0000000  -0.0000000  -0.0000000  -0.0000000
 NQMom=    0.0000000   0.0000000   0.0000000   0.0000000   0.0000000   0.0000000   0.0000000   0.0000000   0.0000000   2.0440000
 NMagM=    0.0000000   0.0000000   0.0000000   0.0000000   0.0000000   2.7928460   2.7928460   2.7928460   2.7928460   0.4037610
 AtZNuc=   6.0000000   6.0000000   6.0000000   6.0000000   6.0000000   1.0000000   1.0000000   1.0000000   1.0000000   7.0000000

  Atom        11          12          13          14          15
 IAtWgt=          16          16          12           1          79
 AtmWgt=  15.9949146  15.9949146  12.0000000   1.0078250  78.9183361
 NucSpn=           0           0           0           1           3
 AtZEff=  -0.0000000  -0.0000000  -0.0000000  -0.0000000  -0.0000000
 NQMom=    0.0000000   0.0000000   0.0000000   0.0000000  31.3000000
 NMagM=    0.0000000   0.0000000   0.0000000   2.7928460   2.1063990
 AtZNuc=   8.0000000   8.0000000   6.0000000   1.0000000  35.0000000
 Leave Link  101 at Wed May  1 14:54:00 2024, MaxMem=  1207959552 cpu:               1.3 elap:               1.4
 (Enter /software/gaussian/g16-c01/sse4/g16/l202.exe)
                          Input orientation:                          
 ---------------------------------------------------------------------
 Center     Atomic      Atomic             Coordinates (Angstroms)
 Number     Number       Type             X           Y           Z
 ---------------------------------------------------------------------
      1          6           0        0.029500    1.339700    0.068200
      2          6           0        1.434800    1.286700    0.006400
      3          6           0        2.111800    0.051100   -0.005400
      4          6           0        1.445100   -1.137200    0.031200
      5          6           0       -0.687900    0.168200    0.110000
      6          1           0       -0.471300    2.298400    0.078100
      7          1           0        2.027300    2.196500   -0.032200
      8          1           0        1.989700   -2.076400    0.023200
      9          1           0       -1.771600    0.180400    0.158200
     10          7           0        3.586400    0.051000   -0.067500
     11          8           0        4.147100   -1.059700   -0.088100
     12          8           0        4.145000    1.163900   -0.090100
     13          6           0       -0.023600   -1.145800    0.083500
     14          1           0       -0.436700   -1.872500    0.788900
     15         35           0       -0.535900   -1.869700   -1.740800
 ---------------------------------------------------------------------
                    Distance matrix (angstroms):
                    1          2          3          4          5
     1  C    0.000000
     2  C    1.407656   0.000000
     3  C    2.449874   1.408963   0.000000
     4  C    2.853126   2.424049   1.363043   0.000000
     5  C    1.374344   2.401589   2.804523   2.501993   0.000000
     6  H    1.081667   2.159142   3.424870   3.934226   2.141421
     7  H    2.176095   1.086408   2.147231   3.384750   3.392128
     8  H    3.938800   3.408612   2.131193   1.085702   3.495040
     9  H    2.143837   3.395283   3.888995   3.478413   1.084840
    10  N    3.785591   2.482297   1.475907   2.450862   4.279589
    11  O    4.768247   3.587631   2.320164   2.705743   4.992415
    12  O    4.122294   2.714696   2.319353   3.549540   4.938459
    13  C    2.486114   2.837240   2.449573   1.469656   1.472614
    14  H    3.324903   3.754379   3.290289   2.157764   2.165286
    15  Br   3.727252   4.110867   3.702891   2.756973   2.757100
                    6          7          8          9         10
     6  H    0.000000
     7  H    2.503108   0.000000
     8  H    5.019802   4.273425   0.000000
     9  H    2.486588   4.304945   4.388479   0.000000
    10  N    4.640790   2.652397   2.661486   5.364313   0.000000
    11  O    5.712624   3.885809   2.387560   6.052233   1.244373
    12  O    4.756638   2.356750   3.893289   6.002923   1.245428
    13  C    3.473180   3.923079   2.218790   2.195425   3.806210
    14  H    4.231175   4.827242   2.552506   2.528663   4.540772
    15  Br   4.548146   5.101303   3.087568   3.055498   4.845862
                   11         12         13         14         15
    11  O    0.000000
    12  O    2.223602   0.000000
    13  C    4.175117   4.768865   0.000000
    14  H    4.737193   5.566358   1.093770   0.000000
    15  Br   5.031700   5.817075   2.028436   2.531646   0.000000
 Symmetry turned off by external request.
 Stoichiometry    C6H5BrNO2(1+)
 Framework group  C1[X(C6H5BrNO2)]
 Deg. of freedom    39
 Full point group                 C1      NOp   1
 Rotational constants (GHZ):           1.8252210           0.5518633           0.4576002
 Leave Link  202 at Wed May  1 14:54:01 2024, MaxMem=  1207959552 cpu:               1.2 elap:               1.2
 (Enter /software/gaussian/g16-c01/sse4/g16/l301.exe)
 Standard basis: 6-311+G(d) (5D, 7F)
 Ernie: Thresh=  0.10000D-02 Tol=  0.10000D-05 Strict=F.
 The following finite field(s) will be applied:
 An electric field of              0.0000  0.0000 -0.0262
   261 basis functions,   443 primitive gaussians,   273 cartesian basis functions
    49 alpha electrons       49 beta electrons
       nuclear repulsion energy       739.2122215416 Hartrees.
 IExCor= 4639 DFT=T Ex+Corr=wB97XD ExCW=0 ScaHFX=  1.000000
 ScaDFX=  1.000000  1.000000  1.000000  1.000000 ScalE2=  1.000000  1.000000
 IRadAn=      5 IRanWt=     -1 IRanGd=            0 ICorTp=0 IEmpDi=121
 HFx  wShort=  0.000000 wLong=  0.200000 cFull=  0.222036 cShort=  0.000000 cLong=  0.777964
 DFx  wShort=  0.000000 wLong=  0.200000 cFull=  0.000000 cShort=  0.000000 cLong=  1.000000
 NAtoms=   15 NActive=   15 NUniq=   15 SFac= 1.00D+00 NAtFMM=   60 NAOKFM=F Big=F
 Integral buffers will be    131072 words long.
 Raffenetti 2 integral format.
 Two-electron integral symmetry is turned off.
 R6Disp:  Grimme-D2 Dispersion energy=       -0.0077368520 Hartrees.
 Nuclear repulsion after empirical dispersion term =      739.2044846896 Hartrees.
 Leave Link  301 at Wed May  1 14:54:02 2024, MaxMem=  1207959552 cpu:               1.1 elap:               1.1
 (Enter /software/gaussian/g16-c01/sse4/g16/l302.exe)
 NPDir=0 NMtPBC=     1 NCelOv=     1 NCel=       1 NClECP=     1 NCelD=      1
         NCelK=      1 NCelE2=     1 NClLst=     1 CellRange=     0.0.
 One-electron integrals computed using PRISM.
 NBasis=   261 RedAO= T EigKep=  2.35D-06  NBF=   261
 NBsUse=   261 1.00D-06 EigRej= -1.00D+00 NBFU=   261
 Precomputing XC quadrature grid using
 IXCGrd= 4 IRadAn=           5 IRanWt=          -1 IRanGd=           0 AccXCQ= 0.00D+00.
 Generated NRdTot=       0 NPtTot=           0 NUsed=           0 NTot=          32
 NSgBfM=   273   273   273   273   273 MxSgAt=    15 MxSgA2=    15.
 Leave Link  302 at Wed May  1 14:54:23 2024, MaxMem=  1207959552 cpu:              21.1 elap:              21.1
 (Enter /software/gaussian/g16-c01/sse4/g16/l303.exe)
 DipDrv:  MaxL=1.
 The nuclear repulsion energy is now       742.1774364107 hartrees.
 Leave Link  303 at Wed May  1 14:54:26 2024, MaxMem=  1207959552 cpu:               3.2 elap:               3.2
 (Enter /software/gaussian/g16-c01/sse4/g16/l401.exe)
 ExpMin= 3.50D-02 ExpMax= 4.40D+05 ExpMxC= 1.51D+04 IAcc=3 IRadAn=         5 AccDes= 0.00D+00
 Harris functional with IExCor= 4639 and IRadAn=       5 diagonalized for initial guess.
 HarFok:  IExCor= 4639 AccDes= 0.00D+00 IRadAn=         5 IDoV= 1 UseB2=F ITyADJ=14
 ICtDFT=  3500011 ScaDFX=  1.000000  1.000000  1.000000  1.000000
 FoFCou: FMM=F IPFlag=           0 FMFlag=      100000 FMFlg1=           0
         NFxFlg=           0 DoJE=T BraDBF=F KetDBF=T FulRan=T
         wScrn=  0.000000 ICntrl=       500 IOpCl=  0 I1Cent=   200000004 NGrid=           0
         NMat0=    1 NMatS0=      1 NMatT0=    0 NMatD0=    1 NMtDS0=    0 NMtDT0=    0
 Symmetry not used in FoFCou.
 Harris En= -2970.73158186029    
 JPrj=0 DoOrth=F DoCkMO=F.
 Leave Link  401 at Wed May  1 14:54:56 2024, MaxMem=  1207959552 cpu:              29.6 elap:              29.6
 (Enter /software/gaussian/g16-c01/sse4/g16/l502.exe)
 Two-electron integral symmetry not used.
 Closed shell SCF:
 Using DIIS extrapolation, IDIIS=  1040.
 NGot=  1207959552 LenX=  1207804877 LenY=  1207729907
 Requested convergence on RMS density matrix=1.00D-08 within 128 cycles.
 Requested convergence on MAX density matrix=1.00D-06.
 Requested convergence on             energy=1.00D-06.
 No special actions if energy rises.
 Fock matrices will be formed incrementally for  20 cycles.

 Cycle   1  Pass 1  IDiag  1:
 FoFJK:  IHMeth= 1 ICntrl=       0 DoSepK=T KAlg= 0 I1Cent=           0 FoldK=F
 IRaf=         1 NMat=       1 IRICut=       1 DoRegI=T DoRafI=F ISym2E= 0 IDoP0=0 IntGTp=1.
 FoFCou: FMM=F IPFlag=           0 FMFlag=      100000 FMFlg1=           0
         NFxFlg=           0 DoJE=T BraDBF=F KetDBF=F FulRan=T
         wScrn=  0.000000 ICntrl=       500 IOpCl=  0 I1Cent=           0 NGrid=           0
         NMat0=    1 NMatS0=      1 NMatT0=    0 NMatD0=    1 NMtDS0=    0 NMtDT0=    0
 Symmetry not used in FoFCou.
 E= -3008.17480192137    
 DIIS: error= 3.22D-01 at cycle   1 NSaved=   1.
 NSaved= 1 IEnMin= 1 EnMin= -3008.17480192137     IErMin= 1 ErrMin= 3.22D-01
 ErrMax= 3.22D-01  0.00D+00 EMaxC= 1.00D-01 BMatC= 1.25D+01 BMatP= 1.25D+01
 IDIUse=3 WtCom= 0.00D+00 WtEn= 1.00D+00
 Coeff-Com:  0.100D+01
 Coeff-En:   0.100D+01
 Coeff:      0.100D+01
 Gap=     0.139 Goal=   None    Shift=    0.000
 GapD=    0.139 DampG=1.000 DampE=0.250 DampFc=0.2500 IDamp=-1.
 Damping current iteration by 2.50D-01
 RMSDP=5.38D-01 MaxDP=4.06D+01              OVMax= 9.77D-01

 Cycle   2  Pass 1  IDiag  1:
 RMSU=  2.02D-02    CP:  7.64D-01
 E= -3008.45857876247     Delta-E=       -0.283776841099 Rises=F Damp=T
 DIIS: error= 2.26D-01 at cycle   2 NSaved=   2.
 NSaved= 2 IEnMin= 2 EnMin= -3008.45857876247     IErMin= 2 ErrMin= 2.26D-01
 ErrMax= 2.26D-01  0.00D+00 EMaxC= 1.00D-01 BMatC= 5.72D+00 BMatP= 1.25D+01
 IDIUse=3 WtCom= 0.00D+00 WtEn= 1.00D+00
 Coeff-Com: -0.118D+01 0.218D+01
 Coeff-En:   0.388D+00 0.612D+00
 Coeff:      0.388D+00 0.612D+00
 Gap=     0.077 Goal=   None    Shift=    0.000
 RMSDP=4.08D-01 MaxDP=3.27D+01 DE=-2.84D-01 OVMax= 9.81D-01

 Cycle   3  Pass 1  IDiag  1:
 RMSU=  2.22D-02    CP:  4.37D-02  2.61D+00
 E= -3010.00629803472     Delta-E=       -1.547719272251 Rises=F Damp=F
 DIIS: error= 9.31D-02 at cycle   3 NSaved=   3.
 NSaved= 3 IEnMin= 3 EnMin= -3010.00629803472     IErMin= 3 ErrMin= 9.31D-02
 ErrMax= 9.31D-02  0.00D+00 EMaxC= 1.00D-01 BMatC= 1.79D+00 BMatP= 5.72D+00
 IDIUse=3 WtCom= 6.85D-02 WtEn= 9.31D-01
 Coeff-Com:  0.154D+00 0.117D+00 0.729D+00
 Coeff-En:   0.119D+00 0.000D+00 0.881D+00
 Coeff:      0.121D+00 0.799D-02 0.871D+00
 Gap=     0.429 Goal=   None    Shift=    0.000
 RMSDP=2.51D-02 MaxDP=1.56D+00 DE=-1.55D+00 OVMax= 2.03D-01

 Cycle   4  Pass 1  IDiag  1:
 RMSU=  2.21D-02    CP:  4.42D-02  2.84D+00  1.49D+00
 E= -3010.29774830776     Delta-E=       -0.291450273045 Rises=F Damp=F
 DIIS: error= 6.28D-02 at cycle   4 NSaved=   4.
 NSaved= 4 IEnMin= 4 EnMin= -3010.29774830776     IErMin= 4 ErrMin= 6.28D-02
 ErrMax= 6.28D-02  0.00D+00 EMaxC= 1.00D-01 BMatC= 8.29D-01 BMatP= 1.79D+00
 IDIUse=3 WtCom= 3.72D-01 WtEn= 6.28D-01
 Coeff-Com:  0.102D+00-0.105D+00 0.443D+00 0.560D+00
 Coeff-En:   0.000D+00 0.000D+00 0.293D+00 0.707D+00
 Coeff:      0.379D-01-0.390D-01 0.349D+00 0.652D+00
 Gap=     0.271 Goal=   None    Shift=    0.000
 RMSDP=1.93D-02 MaxDP=1.89D+00 DE=-2.91D-01 OVMax= 1.09D-01

 Cycle   5  Pass 1  IDiag  1:
 RMSU=  6.42D-03    CP:  3.52D-02  2.32D+00  1.15D+00  4.63D-01
 E= -3010.51828886523     Delta-E=       -0.220540557471 Rises=F Damp=F
 DIIS: error= 2.10D-02 at cycle   5 NSaved=   5.
 NSaved= 5 IEnMin= 5 EnMin= -3010.51828886523     IErMin= 5 ErrMin= 2.10D-02
 ErrMax= 2.10D-02  0.00D+00 EMaxC= 1.00D-01 BMatC= 6.58D-02 BMatP= 8.29D-01
 IDIUse=3 WtCom= 7.90D-01 WtEn= 2.10D-01
 Coeff-Com:  0.258D-01-0.295D-01 0.191D+00 0.355D+00 0.458D+00
 Coeff-En:   0.000D+00 0.000D+00 0.000D+00 0.694D-01 0.931D+00
 Coeff:      0.204D-01-0.233D-01 0.151D+00 0.295D+00 0.557D+00
 Gap=     0.268 Goal=   None    Shift=    0.000
 RMSDP=5.85D-03 MaxDP=3.57D-01 DE=-2.21D-01 OVMax= 6.65D-02

 Cycle   6  Pass 1  IDiag  1:
 RMSU=  2.81D-03    CP:  3.63D-02  2.39D+00  1.26D+00  6.25D-01  6.34D-01
 E= -3010.55258034396     Delta-E=       -0.034291478724 Rises=F Damp=F
 DIIS: error= 8.37D-03 at cycle   6 NSaved=   6.
 NSaved= 6 IEnMin= 6 EnMin= -3010.55258034396     IErMin= 6 ErrMin= 8.37D-03
 ErrMax= 8.37D-03  0.00D+00 EMaxC= 1.00D-01 BMatC= 8.49D-03 BMatP= 6.58D-02
 IDIUse=3 WtCom= 9.16D-01 WtEn= 8.37D-02
 Coeff-Com:  0.195D-02-0.258D-02 0.643D-02 0.501D-01 0.323D+00 0.621D+00
 Coeff-En:   0.000D+00 0.000D+00 0.000D+00 0.000D+00 0.106D+00 0.894D+00
 Coeff:      0.179D-02-0.236D-02 0.589D-02 0.459D-01 0.305D+00 0.644D+00
 Gap=     0.245 Goal=   None    Shift=    0.000
 RMSDP=1.53D-03 MaxDP=1.55D-01 DE=-3.43D-02 OVMax= 1.86D-02

 Cycle   7  Pass 1  IDiag  1:
 RMSU=  6.21D-04    CP:  3.56D-02  2.35D+00  1.24D+00  5.99D-01  7.44D-01
                    CP:  1.08D+00
 E= -3010.55835406151     Delta-E=       -0.005773717550 Rises=F Damp=F
 DIIS: error= 1.13D-03 at cycle   7 NSaved=   7.
 NSaved= 7 IEnMin= 7 EnMin= -3010.55835406151     IErMin= 7 ErrMin= 1.13D-03
 ErrMax= 1.13D-03  0.00D+00 EMaxC= 1.00D-01 BMatC= 1.29D-04 BMatP= 8.49D-03
 IDIUse=3 WtCom= 9.89D-01 WtEn= 1.13D-02
 Coeff-Com: -0.200D-02 0.218D-02-0.110D-01-0.951D-02 0.534D-01 0.196D+00
 Coeff-Com:  0.771D+00
 Coeff-En:   0.000D+00 0.000D+00 0.000D+00 0.000D+00 0.000D+00 0.000D+00
 Coeff-En:   0.100D+01
 Coeff:     -0.197D-02 0.215D-02-0.109D-01-0.940D-02 0.528D-01 0.194D+00
 Coeff:      0.773D+00
 Gap=     0.248 Goal=   None    Shift=    0.000
 RMSDP=3.93D-04 MaxDP=3.56D-02 DE=-5.77D-03 OVMax= 5.52D-03

 Cycle   8  Pass 1  IDiag  1:
 RMSU=  2.45D-04    CP:  3.57D-02  2.36D+00  1.24D+00  6.04D-01  7.48D-01
                    CP:  1.11D+00  1.22D+00
 E= -3010.55849798782     Delta-E=       -0.000143926314 Rises=F Damp=F
 DIIS: error= 6.23D-04 at cycle   8 NSaved=   8.
 NSaved= 8 IEnMin= 8 EnMin= -3010.55849798782     IErMin= 8 ErrMin= 6.23D-04
 ErrMax= 6.23D-04  0.00D+00 EMaxC= 1.00D-01 BMatC= 3.73D-05 BMatP= 1.29D-04
 IDIUse=3 WtCom= 9.94D-01 WtEn= 6.23D-03
 Coeff-Com: -0.196D-02 0.238D-02-0.602D-02-0.811D-02-0.549D-03 0.382D-01
 Coeff-Com:  0.407D+00 0.569D+00
 Coeff-En:   0.000D+00 0.000D+00 0.000D+00 0.000D+00 0.000D+00 0.000D+00
 Coeff-En:   0.000D+00 0.100D+01
 Coeff:     -0.195D-02 0.236D-02-0.599D-02-0.806D-02-0.546D-03 0.379D-01
 Coeff:      0.404D+00 0.572D+00
 Gap=     0.249 Goal=   None    Shift=    0.000
 RMSDP=2.03D-04 MaxDP=1.47D-02 DE=-1.44D-04 OVMax= 3.53D-03

 Cycle   9  Pass 1  IDiag  1:
 RMSU=  1.12D-04    CP:  3.57D-02  2.36D+00  1.25D+00  6.08D-01  7.47D-01
                    CP:  1.12D+00  1.35D+00  9.61D-01
 E= -3010.55853293143     Delta-E=       -0.000034943610 Rises=F Damp=F
 DIIS: error= 3.30D-04 at cycle   9 NSaved=   9.
 NSaved= 9 IEnMin= 9 EnMin= -3010.55853293143     IErMin= 9 ErrMin= 3.30D-04
 ErrMax= 3.30D-04  0.00D+00 EMaxC= 1.00D-01 BMatC= 1.15D-05 BMatP= 3.73D-05
 IDIUse=3 WtCom= 9.97D-01 WtEn= 3.30D-03
 Coeff-Com: -0.135D-02 0.183D-02-0.698D-03-0.231D-02-0.165D-01-0.352D-01
 Coeff-Com:  0.426D-01 0.371D+00 0.641D+00
 Coeff-En:   0.000D+00 0.000D+00 0.000D+00 0.000D+00 0.000D+00 0.000D+00
 Coeff-En:   0.000D+00 0.000D+00 0.100D+01
 Coeff:     -0.135D-02 0.183D-02-0.696D-03-0.230D-02-0.165D-01-0.350D-01
 Coeff:      0.424D-01 0.369D+00 0.642D+00
 Gap=     0.249 Goal=   None    Shift=    0.000
 RMSDP=1.12D-04 MaxDP=7.59D-03 DE=-3.49D-05 OVMax= 1.64D-03

 Cycle  10  Pass 1  IDiag  1:
 RMSU=  5.92D-05    CP:  3.58D-02  2.37D+00  1.25D+00  6.09D-01  7.46D-01
                    CP:  1.13D+00  1.42D+00  1.02D+00  1.33D+00
 E= -3010.55854567659     Delta-E=       -0.000012745155 Rises=F Damp=F
 DIIS: error= 8.63D-05 at cycle  10 NSaved=  10.
 NSaved=10 IEnMin=10 EnMin= -3010.55854567659     IErMin=10 ErrMin= 8.63D-05
 ErrMax= 8.63D-05  0.00D+00 EMaxC= 1.00D-01 BMatC= 1.91D-06 BMatP= 1.15D-05
 IDIUse=1 WtCom= 1.00D+00 WtEn= 0.00D+00
 Coeff-Com: -0.854D-03 0.121D-02 0.732D-03 0.765D-03-0.497D-02-0.183D-01
 Coeff-Com: -0.682D-01 0.231D-01 0.285D+00 0.782D+00
 Coeff:     -0.854D-03 0.121D-02 0.732D-03 0.765D-03-0.497D-02-0.183D-01
 Coeff:     -0.682D-01 0.231D-01 0.285D+00 0.782D+00
 Gap=     0.250 Goal=   None    Shift=    0.000
 RMSDP=4.12D-05 MaxDP=2.37D-03 DE=-1.27D-05 OVMax= 9.32D-04

 Cycle  11  Pass 1  IDiag  1:
 RMSU=  1.61D-05    CP:  3.58D-02  2.37D+00  1.25D+00  6.09D-01  7.45D-01
                    CP:  1.12D+00  1.42D+00  1.06D+00  1.51D+00  1.14D+00
 E= -3010.55854828707     Delta-E=       -0.000002610486 Rises=F Damp=F
 DIIS: error= 2.52D-05 at cycle  11 NSaved=  11.
 NSaved=11 IEnMin=11 EnMin= -3010.55854828707     IErMin=11 ErrMin= 2.52D-05
 ErrMax= 2.52D-05  0.00D+00 EMaxC= 1.00D-01 BMatC= 3.62D-07 BMatP= 1.91D-06
 IDIUse=1 WtCom= 1.00D+00 WtEn= 0.00D+00
 Coeff-Com: -0.456D-03 0.623D-03 0.108D-03 0.666D-03 0.126D-02 0.121D-02
 Coeff-Com: -0.162D-01-0.441D-01-0.336D-01 0.153D+00 0.937D+00
 Coeff:     -0.456D-03 0.623D-03 0.108D-03 0.666D-03 0.126D-02 0.121D-02
 Coeff:     -0.162D-01-0.441D-01-0.336D-01 0.153D+00 0.937D+00
 Gap=     0.250 Goal=   None    Shift=    0.000
 RMSDP=2.54D-05 MaxDP=2.58D-03 DE=-2.61D-06 OVMax= 4.56D-04

 Cycle  12  Pass 1  IDiag  1:
 RMSU=  9.27D-06    CP:  3.58D-02  2.37D+00  1.25D+00  6.09D-01  7.45D-01
                    CP:  1.12D+00  1.42D+00  1.06D+00  1.65D+00  1.30D+00
                    CP:  1.32D+00
 E= -3010.55854884069     Delta-E=       -0.000000553620 Rises=F Damp=F
 DIIS: error= 1.78D-05 at cycle  12 NSaved=  12.
 NSaved=12 IEnMin=12 EnMin= -3010.55854884069     IErMin=12 ErrMin= 1.78D-05
 ErrMax= 1.78D-05  0.00D+00 EMaxC= 1.00D-01 BMatC= 8.92D-08 BMatP= 3.62D-07
 IDIUse=1 WtCom= 1.00D+00 WtEn= 0.00D+00
 Coeff-Com: -0.185D-03 0.238D-03-0.110D-03 0.230D-03 0.155D-02 0.438D-02
 Coeff-Com:  0.111D-01-0.169D-01-0.674D-01-0.104D+00 0.261D+00 0.910D+00
 Coeff:     -0.185D-03 0.238D-03-0.110D-03 0.230D-03 0.155D-02 0.438D-02
 Coeff:      0.111D-01-0.169D-01-0.674D-01-0.104D+00 0.261D+00 0.910D+00
 Gap=     0.250 Goal=   None    Shift=    0.000
 RMSDP=1.12D-05 MaxDP=9.89D-04 DE=-5.54D-07 OVMax= 2.15D-04

 Cycle  13  Pass 1  IDiag  1:
 RMSU=  3.58D-06    CP:  3.58D-02  2.37D+00  1.25D+00  6.09D-01  7.45D-01
                    CP:  1.12D+00  1.42D+00  1.05D+00  1.70D+00  1.36D+00
                    CP:  1.46D+00  1.32D+00
 E= -3010.55854899360     Delta-E=       -0.000000152908 Rises=F Damp=F
 DIIS: error= 7.16D-06 at cycle  13 NSaved=  13.
 NSaved=13 IEnMin=13 EnMin= -3010.55854899360     IErMin=13 ErrMin= 7.16D-06
 ErrMax= 7.16D-06  0.00D+00 EMaxC= 1.00D-01 BMatC= 1.36D-08 BMatP= 8.92D-08
 IDIUse=1 WtCom= 1.00D+00 WtEn= 0.00D+00
 Coeff-Com: -0.333D-04 0.441D-04-0.316D-04-0.489D-04 0.775D-07 0.604D-03
 Coeff-Com:  0.657D-02 0.826D-02-0.427D-02-0.484D-01-0.160D+00 0.185D+00
 Coeff-Com:  0.101D+01
 Coeff:     -0.333D-04 0.441D-04-0.316D-04-0.489D-04 0.775D-07 0.604D-03
 Coeff:      0.657D-02 0.826D-02-0.427D-02-0.484D-01-0.160D+00 0.185D+00
 Coeff:      0.101D+01
 Gap=     0.250 Goal=   None    Shift=    0.000
 RMSDP=4.63D-06 MaxDP=3.29D-04 DE=-1.53D-07 OVMax= 1.07D-04

 Cycle  14  Pass 1  IDiag  1:
 RMSU=  1.88D-06    CP:  3.58D-02  2.37D+00  1.25D+00  6.09D-01  7.45D-01
                    CP:  1.12D+00  1.41D+00  1.05D+00  1.70D+00  1.37D+00
                    CP:  1.54D+00  1.59D+00  1.14D+00
 E= -3010.55854902123     Delta-E=       -0.000000027630 Rises=F Damp=F
 DIIS: error= 3.27D-06 at cycle  14 NSaved=  14.
 NSaved=14 IEnMin=14 EnMin= -3010.55854902123     IErMin=14 ErrMin= 3.27D-06
 ErrMax= 3.27D-06  0.00D+00 EMaxC= 1.00D-01 BMatC= 1.13D-09 BMatP= 1.36D-08
 IDIUse=1 WtCom= 1.00D+00 WtEn= 0.00D+00
 Coeff-Com: -0.412D-05 0.664D-05-0.402D-06-0.410D-04-0.185D-03-0.277D-03
 Coeff-Com:  0.944D-03 0.447D-02 0.567D-02-0.624D-02-0.830D-01-0.335D-01
 Coeff-Com:  0.365D+00 0.747D+00
 Coeff:     -0.412D-05 0.664D-05-0.402D-06-0.410D-04-0.185D-03-0.277D-03
 Coeff:      0.944D-03 0.447D-02 0.567D-02-0.624D-02-0.830D-01-0.335D-01
 Coeff:      0.365D+00 0.747D+00
 Gap=     0.250 Goal=   None    Shift=    0.000
 RMSDP=1.32D-06 MaxDP=1.21D-04 DE=-2.76D-08 OVMax= 2.85D-05

 Cycle  15  Pass 1  IDiag  1:
 RMSU=  6.15D-07    CP:  3.58D-02  2.37D+00  1.25D+00  6.09D-01  7.44D-01
                    CP:  1.12D+00  1.41D+00  1.06D+00  1.71D+00  1.37D+00
                    CP:  1.56D+00  1.66D+00  1.20D+00  1.13D+00
 E= -3010.55854902366     Delta-E=       -0.000000002426 Rises=F Damp=F
 DIIS: error= 6.75D-07 at cycle  15 NSaved=  15.
 NSaved=15 IEnMin=15 EnMin= -3010.55854902366     IErMin=15 ErrMin= 6.75D-07
 ErrMax= 6.75D-07  0.00D+00 EMaxC= 1.00D-01 BMatC= 1.94D-10 BMatP= 1.13D-09
 IDIUse=1 WtCom= 1.00D+00 WtEn= 0.00D+00
 Coeff-Com:  0.217D-05-0.293D-05 0.128D-05-0.661D-05-0.526D-04-0.145D-03
 Coeff-Com: -0.638D-03 0.309D-03 0.260D-02 0.591D-02 0.106D-02-0.394D-01
 Coeff-Com: -0.532D-01 0.281D+00 0.802D+00
 Coeff:      0.217D-05-0.293D-05 0.128D-05-0.661D-05-0.526D-04-0.145D-03
 Coeff:     -0.638D-03 0.309D-03 0.260D-02 0.591D-02 0.106D-02-0.394D-01
 Coeff:     -0.532D-01 0.281D+00 0.802D+00
 Gap=     0.250 Goal=   None    Shift=    0.000
 RMSDP=7.35D-07 MaxDP=7.09D-05 DE=-2.43D-09 OVMax= 9.17D-06

 Cycle  16  Pass 1  IDiag  1:
 RMSU=  1.87D-07    CP:  3.58D-02  2.37D+00  1.25D+00  6.09D-01  7.44D-01
                    CP:  1.12D+00  1.42D+00  1.06D+00  1.71D+00  1.36D+00
                    CP:  1.56D+00  1.67D+00  1.22D+00  1.28D+00  1.13D+00
 E= -3010.55854902401     Delta-E=       -0.000000000353 Rises=F Damp=F
 DIIS: error= 1.97D-07 at cycle  16 NSaved=  16.
 NSaved=16 IEnMin=16 EnMin= -3010.55854902401     IErMin=16 ErrMin= 1.97D-07
 ErrMax= 1.97D-07  0.00D+00 EMaxC= 1.00D-01 BMatC= 1.83D-11 BMatP= 1.94D-10
 IDIUse=1 WtCom= 1.00D+00 WtEn= 0.00D+00
 Coeff-Com:  0.203D-05-0.300D-05-0.160D-05 0.485D-06 0.871D-05 0.506D-05
 Coeff-Com: -0.258D-03-0.466D-03-0.275D-03 0.176D-02 0.117D-01-0.418D-02
 Coeff-Com: -0.614D-01-0.862D-02 0.175D+00 0.887D+00
 Coeff:      0.203D-05-0.300D-05-0.160D-05 0.485D-06 0.871D-05 0.506D-05
 Coeff:     -0.258D-03-0.466D-03-0.275D-03 0.176D-02 0.117D-01-0.418D-02
 Coeff:     -0.614D-01-0.862D-02 0.175D+00 0.887D+00
 Gap=     0.250 Goal=   None    Shift=    0.000
 RMSDP=3.20D-07 MaxDP=2.90D-05 DE=-3.53D-10 OVMax= 5.05D-06

 Cycle  17  Pass 1  IDiag  1:
 RMSU=  7.64D-08    CP:  3.58D-02  2.37D+00  1.25D+00  6.09D-01  7.44D-01
                    CP:  1.12D+00  1.42D+00  1.06D+00  1.71D+00  1.36D+00
                    CP:  1.56D+00  1.68D+00  1.23D+00  1.34D+00  1.26D+00
                    CP:  1.35D+00
 E= -3010.55854902408     Delta-E=       -0.000000000065 Rises=F Damp=F
 DIIS: error= 1.29D-07 at cycle  17 NSaved=  17.
 NSaved=17 IEnMin=17 EnMin= -3010.55854902408     IErMin=17 ErrMin= 1.29D-07
 ErrMax= 1.29D-07  0.00D+00 EMaxC= 1.00D-01 BMatC= 5.25D-12 BMatP= 1.83D-11
 IDIUse=1 WtCom= 1.00D+00 WtEn= 0.00D+00
 Coeff-Com:  0.940D-06-0.134D-05-0.951D-06-0.145D-06 0.882D-05 0.218D-04
 Coeff-Com:  0.359D-04-0.129D-03-0.473D-03-0.475D-03 0.317D-02 0.527D-02
 Coeff-Com: -0.761D-02-0.428D-01-0.923D-01 0.264D+00 0.872D+00
 Coeff:      0.940D-06-0.134D-05-0.951D-06-0.145D-06 0.882D-05 0.218D-04
 Coeff:      0.359D-04-0.129D-03-0.473D-03-0.475D-03 0.317D-02 0.527D-02
 Coeff:     -0.761D-02-0.428D-01-0.923D-01 0.264D+00 0.872D+00
 Gap=     0.250 Goal=   None    Shift=    0.000
 RMSDP=1.11D-07 MaxDP=5.55D-06 DE=-6.55D-11 OVMax= 2.04D-06

 Cycle  18  Pass 1  IDiag  1:
 RMSU=  4.64D-08    CP:  3.58D-02  2.37D+00  1.25D+00  6.09D-01  7.44D-01
                    CP:  1.12D+00  1.42D+00  1.06D+00  1.71D+00  1.36D+00
                    CP:  1.57D+00  1.68D+00  1.23D+00  1.35D+00  1.31D+00
                    CP:  1.51D+00  1.33D+00
 E= -3010.55854902415     Delta-E=       -0.000000000072 Rises=F Damp=F
 DIIS: error= 3.88D-08 at cycle  18 NSaved=  18.
 NSaved=18 IEnMin=18 EnMin= -3010.55854902415     IErMin=18 ErrMin= 3.88D-08
 ErrMax= 3.88D-08  0.00D+00 EMaxC= 1.00D-01 BMatC= 8.92D-13 BMatP= 5.25D-12
 IDIUse=1 WtCom= 1.00D+00 WtEn= 0.00D+00
 Coeff-Com:  0.291D-06-0.352D-06 0.228D-06-0.607D-06-0.976D-06 0.185D-05
 Coeff-Com:  0.502D-04 0.618D-04-0.393D-04-0.443D-03-0.198D-02 0.158D-02
 Coeff-Com:  0.123D-01-0.429D-02-0.500D-01-0.143D+00 0.177D+00 0.101D+01
 Coeff:      0.291D-06-0.352D-06 0.228D-06-0.607D-06-0.976D-06 0.185D-05
 Coeff:      0.502D-04 0.618D-04-0.393D-04-0.443D-03-0.198D-02 0.158D-02
 Coeff:      0.123D-01-0.429D-02-0.500D-01-0.143D+00 0.177D+00 0.101D+01
 Gap=     0.250 Goal=   None    Shift=    0.000
 RMSDP=7.52D-08 MaxDP=5.26D-06 DE=-7.19D-11 OVMax= 1.36D-06

 Cycle  19  Pass 1  IDiag  1:
 RMSU=  1.69D-08    CP:  3.58D-02  2.37D+00  1.25D+00  6.09D-01  7.44D-01
                    CP:  1.12D+00  1.42D+00  1.06D+00  1.71D+00  1.36D+00
                    CP:  1.57D+00  1.68D+00  1.23D+00  1.36D+00  1.33D+00
                    CP:  1.56D+00  1.63D+00  1.30D+00
 E= -3010.55854902412     Delta-E=        0.000000000025 Rises=F Damp=F
 DIIS: error= 2.54D-08 at cycle  19 NSaved=  19.
 NSaved=19 IEnMin=18 EnMin= -3010.55854902415     IErMin=19 ErrMin= 2.54D-08
 ErrMax= 2.54D-08  0.00D+00 EMaxC= 1.00D-01 BMatC= 1.14D-13 BMatP= 8.92D-13
 IDIUse=1 WtCom= 1.00D+00 WtEn= 0.00D+00
 Coeff-Com:  0.666D-07-0.672D-07 0.228D-06-0.211D-06-0.176D-05-0.276D-05
 Coeff-Com:  0.895D-05 0.350D-04 0.579D-04-0.683D-04-0.109D-02-0.229D-03
 Coeff-Com:  0.514D-02 0.419D-02-0.527D-03-0.869D-01-0.595D-01 0.312D+00
 Coeff-Com:  0.826D+00
 Coeff:      0.666D-07-0.672D-07 0.228D-06-0.211D-06-0.176D-05-0.276D-05
 Coeff:      0.895D-05 0.350D-04 0.579D-04-0.683D-04-0.109D-02-0.229D-03
 Coeff:      0.514D-02 0.419D-02-0.527D-03-0.869D-01-0.595D-01 0.312D+00
 Coeff:      0.826D+00
 Gap=     0.250 Goal=   None    Shift=    0.000
 RMSDP=2.73D-08 MaxDP=2.14D-06 DE= 2.55D-11 OVMax= 3.75D-07

 Cycle  20  Pass 1  IDiag  1:
 RMSU=  5.40D-09    CP:  3.58D-02  2.37D+00  1.25D+00  6.09D-01  7.44D-01
                    CP:  1.12D+00  1.42D+00  1.06D+00  1.71D+00  1.36D+00
                    CP:  1.57D+00  1.69D+00  1.23D+00  1.36D+00  1.33D+00
                    CP:  1.56D+00  1.70D+00  1.49D+00  1.29D+00
 E= -3010.55854902412     Delta-E=        0.000000000002 Rises=F Damp=F
 DIIS: error= 6.19D-09 at cycle  20 NSaved=  20.
 NSaved=20 IEnMin=18 EnMin= -3010.55854902415     IErMin=20 ErrMin= 6.19D-09
 ErrMax= 6.19D-09  0.00D+00 EMaxC= 1.00D-01 BMatC= 1.85D-14 BMatP= 1.14D-13
 IDIUse=1 WtCom= 1.00D+00 WtEn= 0.00D+00
 Coeff-Com:  0.222D-07-0.323D-07 0.217D-07 0.525D-07-0.208D-06-0.690D-06
 Coeff-Com: -0.615D-05-0.179D-05 0.195D-04 0.572D-04 0.633D-04-0.321D-03
 Coeff-Com: -0.985D-03 0.126D-02 0.955D-02 0.352D-02-0.393D-01-0.114D+00
 Coeff-Com:  0.240D+00 0.900D+00
 Coeff:      0.222D-07-0.323D-07 0.217D-07 0.525D-07-0.208D-06-0.690D-06
 Coeff:     -0.615D-05-0.179D-05 0.195D-04 0.572D-04 0.633D-04-0.321D-03
 Coeff:     -0.985D-03 0.126D-02 0.955D-02 0.352D-02-0.393D-01-0.114D+00
 Coeff:      0.240D+00 0.900D+00
 Gap=     0.250 Goal=   None    Shift=    0.000
 RMSDP=8.67D-09 MaxDP=5.20D-07 DE= 1.82D-12 OVMax= 1.41D-07

 SCF Done:  E(RwB97XD) =  -3010.55854902     A.U. after   20 cycles
            NFock= 20  Conv=0.87D-08     -V/T= 2.0016
 KE= 3.005853146768D+03 PE=-8.635624677448D+03 EE= 1.877035545245D+03
 Leave Link  502 at Wed May  1 15:13:36 2024, MaxMem=  1207959552 cpu:            1119.5 elap:            1119.7
 (Enter /software/gaussian/g16-c01/sse4/g16/l601.exe)
 Copying SCF densities to generalized density rwf, IOpCl= 0 IROHF=0.

 **********************************************************************

            Population analysis using the SCF Density.

 **********************************************************************

 Alpha  occ. eigenvalues -- -483.35602 -62.90679 -56.70293 -56.69832 -56.69831
 Alpha  occ. eigenvalues --  -19.46905 -19.46806 -14.86384 -10.60465 -10.58940
 Alpha  occ. eigenvalues --  -10.58426 -10.58245 -10.57915 -10.54030  -9.06521
 Alpha  occ. eigenvalues --   -6.88983  -6.87446  -6.87440  -2.98938  -2.98523
 Alpha  occ. eigenvalues --   -2.98517  -2.97286  -2.97286  -1.50622  -1.33593
 Alpha  occ. eigenvalues --   -1.24118  -1.16235  -1.13069  -1.07662  -1.02146
 Alpha  occ. eigenvalues --   -0.96878  -0.92149  -0.86277  -0.81933  -0.81669
 Alpha  occ. eigenvalues --   -0.81013  -0.79346  -0.77166  -0.77063  -0.74575
 Alpha  occ. eigenvalues --   -0.70575  -0.68796  -0.65691  -0.63343  -0.61413
 Alpha  occ. eigenvalues --   -0.58295  -0.57961  -0.57041  -0.56562
 Alpha virt. eigenvalues --   -0.31586  -0.22555  -0.21520  -0.18351  -0.15706
 Alpha virt. eigenvalues --   -0.14648  -0.13502  -0.10468  -0.09063  -0.08859
 Alpha virt. eigenvalues --   -0.06089  -0.05116  -0.03944  -0.02936  -0.02715
 Alpha virt. eigenvalues --   -0.01378  -0.00138   0.00383   0.01344   0.01948
 Alpha virt. eigenvalues --    0.03759   0.04663   0.05333   0.05524   0.06298
 Alpha virt. eigenvalues --    0.07327   0.07693   0.08094   0.08482   0.09473
 Alpha virt. eigenvalues --    0.10228   0.10818   0.11324   0.12182   0.12608
 Alpha virt. eigenvalues --    0.12894   0.13952   0.14960   0.15305   0.15891
 Alpha virt. eigenvalues --    0.16436   0.16891   0.17991   0.18630   0.19018
 Alpha virt. eigenvalues --    0.20523   0.20751   0.21619   0.22224   0.23779
 Alpha virt. eigenvalues --    0.24405   0.25194   0.26665   0.27806   0.27896
 Alpha virt. eigenvalues --    0.28844   0.31278   0.33508   0.34084   0.35616
 Alpha virt. eigenvalues --    0.36963   0.37153   0.37756   0.39340   0.40066
 Alpha virt. eigenvalues --    0.42254   0.42784   0.44227   0.46139   0.46726
 Alpha virt. eigenvalues --    0.47157   0.48100   0.48677   0.51013   0.52668
 Alpha virt. eigenvalues --    0.53178   0.54114   0.55161   0.56660   0.58521
 Alpha virt. eigenvalues --    0.59988   0.61222   0.62303   0.64595   0.67673
 Alpha virt. eigenvalues --    0.69485   0.70357   0.71833   0.72305   0.73106
 Alpha virt. eigenvalues --    0.73653   0.78329   0.78747   0.80507   0.83524
 Alpha virt. eigenvalues --    0.84710   0.86909   0.90982   0.91537   0.97265
 Alpha virt. eigenvalues --    0.98744   0.99900   1.03211   1.04417   1.05419
 Alpha virt. eigenvalues --    1.07525   1.10295   1.10892   1.11504   1.13333
 Alpha virt. eigenvalues --    1.21142   1.23611   1.25834   1.31752   1.35362
 Alpha virt. eigenvalues --    1.35786   1.36649   1.43510   1.53223   1.55999
 Alpha virt. eigenvalues --    1.57362   1.57572   1.59545   1.61250   1.64948
 Alpha virt. eigenvalues --    1.67992   1.68283   1.72355   1.74294   1.77846
 Alpha virt. eigenvalues --    1.79931   1.84401   1.85826   1.88817   1.91093
 Alpha virt. eigenvalues --    1.96133   2.01695   2.02235   2.04157   2.06524
 Alpha virt. eigenvalues --    2.08131   2.13396   2.19328   2.21653   2.28490
 Alpha virt. eigenvalues --    2.36705   2.40091   2.41831   2.42531   2.51340
 Alpha virt. eigenvalues --    2.55718   2.61948   2.64937   2.67099   2.70695
 Alpha virt. eigenvalues --    2.72331   2.75448   2.76286   2.79813   2.80430
 Alpha virt. eigenvalues --    2.91964   2.94964   2.99661   3.04190   3.07651
 Alpha virt. eigenvalues --    3.11932   3.13774   3.18003   3.22615   3.23245
 Alpha virt. eigenvalues --    3.26363   3.38057   3.46557   3.50111   3.53324
 Alpha virt. eigenvalues --    3.55736   3.68909   3.73130   3.80910   3.85817
 Alpha virt. eigenvalues --    4.04062   4.04322   4.12242   4.17381   4.38333
 Alpha virt. eigenvalues --    4.43368   4.56040   4.58810   4.92218   4.94890
 Alpha virt. eigenvalues --    5.03526   5.07692   5.61819   6.14779   6.60003
 Alpha virt. eigenvalues --    7.42685   7.44303   7.54345  23.19886  23.60015
 Alpha virt. eigenvalues --   23.67532  23.78048  23.94803  24.00112  35.31576
 Alpha virt. eigenvalues --   47.86721  49.84536  49.93348 289.76089 289.77760
 Alpha virt. eigenvalues --  289.902611020.87212
          Condensed to atoms (all electrons):
               1          2          3          4          5          6
     1  C    9.231475  -3.165391   0.779771  -2.052784  -1.032993   0.338870
     2  C   -3.165391  15.461812  -3.350078  -2.295191   1.812315  -0.035912
     3  C    0.779771  -3.350078  13.757719  -2.889637  -1.879607   0.030174
     4  C   -2.052784  -2.295191  -2.889637  15.365590   1.635919   0.020802
     5  C   -1.032993   1.812315  -1.879607   1.635919   8.479993  -0.006928
     6  H    0.338870  -0.035912   0.030174   0.020802  -0.006928   0.324251
     7  H    0.062373   0.214112   0.091900  -0.024038  -0.019303  -0.001512
     8  H    0.007749  -0.018921   0.077173   0.238950  -0.025724  -0.000005
     9  H    0.025201  -0.023312   0.012730  -0.015222   0.303935  -0.001820
    10  N   -0.179145   0.383073  -1.189583   0.515360   0.049288  -0.000771
    11  O    0.011672   0.055747  -0.190841  -0.137111  -0.042936  -0.000056
    12  O    0.326340  -0.128995  -0.183537  -0.077148  -0.049971   0.000054
    13  C    2.169495  -3.296216   1.575191  -4.650631  -3.245594  -0.013931
    14  H   -0.009564   0.008856  -0.006513  -0.061989  -0.018432  -0.000001
    15  Br   0.119714  -0.215739   0.100137   0.117911  -0.038875  -0.000588
               7          8          9         10         11         12
     1  C    0.062373   0.007749   0.025201  -0.179145   0.011672   0.326340
     2  C    0.214112  -0.018921  -0.023312   0.383073   0.055747  -0.128995
     3  C    0.091900   0.077173   0.012730  -1.189583  -0.190841  -0.183537
     4  C   -0.024038   0.238950  -0.015222   0.515360  -0.137111  -0.077148
     5  C   -0.019303  -0.025724   0.303935   0.049288  -0.042936  -0.049971
     6  H   -0.001512  -0.000005  -0.001820  -0.000771  -0.000056   0.000054
     7  H    0.297890  -0.000013   0.000030  -0.029730  -0.001500   0.022908
     8  H   -0.000013   0.283097   0.000055  -0.026126   0.019762  -0.000174
     9  H    0.000030   0.000055   0.307633   0.000199   0.000019   0.000014
    10  N   -0.029730  -0.026126   0.000199   7.562488   0.104387   0.103849
    11  O   -0.001500   0.019762   0.000019   0.104387   7.892290  -0.003927
    12  O    0.022908  -0.000174   0.000014   0.103849  -0.003927   7.905934
    13  C    0.014305   0.063969   0.032056  -0.189915   0.259591   0.048589
    14  H   -0.000011  -0.001716  -0.003160   0.001261  -0.000492  -0.000137
    15  Br   0.000115  -0.002725  -0.003047   0.005581  -0.004007   0.003641
              13         14         15
     1  C    2.169495  -0.009564   0.119714
     2  C   -3.296216   0.008856  -0.215739
     3  C    1.575191  -0.006513   0.100137
     4  C   -4.650631  -0.061989   0.117911
     5  C   -3.245594  -0.018432  -0.038875
     6  H   -0.013931  -0.000001  -0.000588
     7  H    0.014305  -0.000011   0.000115
     8  H    0.063969  -0.001716  -0.002725
     9  H    0.032056  -0.003160  -0.003047
    10  N   -0.189915   0.001261   0.005581
    11  O    0.259591  -0.000492  -0.004007
    12  O    0.048589  -0.000137   0.003641
    13  C   13.377474   0.374361  -0.053751
    14  H    0.374361   0.238568  -0.014498
    15  Br  -0.053751  -0.014498  35.057715
 Mulliken charges:
               1
     1  C   -0.632783
     2  C    0.593837
     3  C   -0.735000
     4  C    0.309220
     5  C    0.078914
     6  H    0.347372
     7  H    0.372475
     8  H    0.384648
     9  H    0.364688
    10  N   -0.110218
    11  O    0.037402
    12  O    0.032560
    13  C   -0.464994
    14  H    0.493466
    15  Br  -0.071587
 Sum of Mulliken charges =   1.00000
 Mulliken charges with hydrogens summed into heavy atoms:
               1
     1  C   -0.285411
     2  C    0.966312
     3  C   -0.735000
     4  C    0.693868
     5  C    0.443602
    10  N   -0.110218
    11  O    0.037402
    12  O    0.032560
    13  C    0.028472
    15  Br  -0.071587
 Electronic spatial extent (au):  <R**2>=           2802.9255
 Charge=              1.0000 electrons
 Dipole moment (field-independent basis, Debye):
    X=             -0.1905    Y=              0.3723    Z=              4.5407  Tot=              4.5599
 Quadrupole moment (field-independent basis, Debye-Ang):
   XX=            -70.4033   YY=            -53.4027   ZZ=            -68.1714
   XY=              0.6139   XZ=              3.1929   YZ=             -2.2418
 Traceless Quadrupole moment (field-independent basis, Debye-Ang):
   XX=             -6.4108   YY=             10.5898   ZZ=             -4.1789
   XY=              0.6139   XZ=              3.1929   YZ=             -2.2418
 Octapole moment (field-independent basis, Debye-Ang**2):
  XXX=           -294.2885  YYY=             94.7514  ZZZ=             99.6942  XYY=            -73.6410
  XXY=             31.4011  XXZ=             47.6096  XZZ=            -75.3890  YZZ=             27.0117
  YYZ=             39.3735  XYZ=             -0.7486
 Hexadecapole moment (field-independent basis, Debye-Ang**3):
 XXXX=          -2262.7387 YYYY=           -692.9905 ZZZZ=           -401.7766 XXXY=            -71.2749
 XXXZ=             19.9450 YYYX=            -64.2484 YYYZ=           -179.8233 ZZZX=            -21.9305
 ZZZY=           -167.7571 XXYY=           -456.6181 XXZZ=           -378.6124 YYZZ=           -188.2902
 XXYZ=            -58.4300 YYXZ=             -2.4557 ZZXY=            -14.7238
 N-N= 7.421774364107D+02 E-N=-8.635624677072D+03  KE= 3.005853146768D+03
 No NMR shielding tensors so no spin-rotation constants.
 Leave Link  601 at Wed May  1 15:13:43 2024, MaxMem=  1207959552 cpu:               7.3 elap:               7.2
 (Enter /software/gaussian/g16-c01/sse4/g16/l9999.exe)
 Unable to Open any file for archive entry.
 1\1\GINC-BHX0007\SP\RwB97XD\6-311+G(d)\C6H5Br1N1O2(1+)\BWEIGHT\01-May-
 2024\0\\#P wB97XD/6-311+G* NoSymm #P Field=Z-262\\TitleMe\\1,1\C,0,0.0
 295,1.3397,0.0682\C,0,1.4348,1.2867,0.0064\C,0,2.1118,0.0511,-0.0054\C
 ,0,1.4451,-1.1372,0.0312\C,0,-0.6879,0.1682,0.11\H,0,-0.4713,2.2984,0.
 0781\H,0,2.0273,2.1965,-0.0322\H,0,1.9897,-2.0764,0.0232\H,0,-1.7716,0
 .1804,0.1582\N,0,3.5864,0.051,-0.0675\O,0,4.1471,-1.0597,-0.0881\O,0,4
 .145,1.1639,-0.0901\C,0,-0.0236,-1.1458,0.0835\H,0,-0.4367,-1.8725,0.7
 889\Br,0,-0.5359,-1.8697,-1.7408\\Version=ES64L-G16RevC.01\HF=-3010.55
 8549\RMSD=8.672e-09\Dipole=-1.9814995,1.2945444,2.9326324\Quadrupole=-
 4.7663002,7.87323,-3.1069297,0.4564218,2.3738087,-1.6667161\PG=C01 [X(
 C6H5Br1N1O2)]\\@
 The archive entry for this job was punched.


 AND HERE I AM, FOR ALL MY LORE,
 THE WRETCHED FOOL I WAS BEFORE.
 CALLED MASTER OF ARTS, AND DOCTOR TO BOOT,
 FOR TEN YEARS ALMOST I CONFUTE
 AND UP AND DOWN, WHEREVER IT GOES
 I DRAG MY STUDENTS BY THE NOSE --
 AND SEE THAT FOR ALL OUR SCIENCE AND ART
 WE CAN KNOW NOTHING.  IT BURNS MY HEART.

                                       -- FAUST
 Job cpu time:       0 days  0 hours 19 minutes 46.1 seconds.
 Elapsed time:       0 days  0 hours 19 minutes 46.3 seconds.
 File lengths (MBytes):  RWF=     40 Int=      0 D2E=      0 Chk=     32 Scr=      1
 Normal termination of Gaussian 16 at Wed May  1 15:13:44 2024.
