 Entering Gaussian System, Link 0=g16
 Initial command:
 /software/gaussian/g16-c01/sse4/g16/l1.exe "/local_scratch/24657414/Gau-6485.inp" -scrdir="/local_scratch/24657414/"
 Entering Link 1 = /software/gaussian/g16-c01/sse4/g16/l1.exe PID=      6492.
  
 Copyright (c) 1988-2019, Gaussian, Inc.  All Rights Reserved.
  
 This is part of the Gaussian(R) 16 program.  It is based on
 the Gaussian(R) 09 system (copyright 2009, Gaussian, Inc.),
 the Gaussian(R) 03 system (copyright 2003, Gaussian, Inc.),
 the Gaussian(R) 98 system (copyright 1998, Gaussian, Inc.),
 the Gaussian(R) 94 system (copyright 1995, Gaussian, Inc.),
 the Gaussian 92(TM) system (copyright 1992, Gaussian, Inc.),
 the Gaussian 90(TM) system (copyright 1990, Gaussian, Inc.),
 the Gaussian 88(TM) system (copyright 1988, Gaussian, Inc.),
 the Gaussian 86(TM) system (copyright 1986, Carnegie Mellon
 University), and the Gaussian 82(TM) system (copyright 1983,
 Carnegie Mellon University). Gaussian is a federally registered
 trademark of Gaussian, Inc.
  
 This software contains proprietary and confidential information,
 including trade secrets, belonging to Gaussian, Inc.
  
 This software is provided under written license and may be
 used, copied, transmitted, or stored only in accord with that
 written license.
  
 The following legend is applicable only to US Government
 contracts under FAR:
  
                    RESTRICTED RIGHTS LEGEND
  
 Use, reproduction and disclosure by the US Government is
 subject to restrictions as set forth in subparagraphs (a)
 and (c) of the Commercial Computer Software - Restricted
 Rights clause in FAR 52.227-19.
  
 Gaussian, Inc.
 340 Quinnipiac St., Bldg. 40, Wallingford CT 06492
  
  
 ---------------------------------------------------------------
 Warning -- This program may not be used in any manner that
 competes with the business of Gaussian, Inc. or will provide
 assistance to any competitor of Gaussian, Inc.  The licensee
 of this program is prohibited from giving any competitor of
 Gaussian, Inc. access to this program.  By using this program,
 the user acknowledges that Gaussian, Inc. is engaged in the
 business of creating and licensing software in the field of
 computational chemistry and represents and warrants to the
 licensee that it is not a competitor of Gaussian, Inc. and that
 it will not use this program in any manner prohibited above.
 ---------------------------------------------------------------
  

 Cite this work as:
 Gaussian 16, Revision C.01,
 M. J. Frisch, G. W. Trucks, H. B. Schlegel, G. E. Scuseria, 
 M. A. Robb, J. R. Cheeseman, G. Scalmani, V. Barone, 
 G. A. Petersson, H. Nakatsuji, X. Li, M. Caricato, A. V. Marenich, 
 J. Bloino, B. G. Janesko, R. Gomperts, B. Mennucci, H. P. Hratchian, 
 J. V. Ortiz, A. F. Izmaylov, J. L. Sonnenberg, D. Williams-Young, 
 F. Ding, F. Lipparini, F. Egidi, J. Goings, B. Peng, A. Petrone, 
 T. Henderson, D. Ranasinghe, V. G. Zakrzewski, J. Gao, N. Rega, 
 G. Zheng, W. Liang, M. Hada, M. Ehara, K. Toyota, R. Fukuda, 
 J. Hasegawa, M. Ishida, T. Nakajima, Y. Honda, O. Kitao, H. Nakai, 
 T. Vreven, K. Throssell, J. A. Montgomery, Jr., J. E. Peralta, 
 F. Ogliaro, M. J. Bearpark, J. J. Heyd, E. N. Brothers, K. N. Kudin, 
 V. N. Staroverov, T. A. Keith, R. Kobayashi, J. Normand, 
 K. Raghavachari, A. P. Rendell, J. C. Burant, S. S. Iyengar, 
 J. Tomasi, M. Cossi, J. M. Millam, M. Klene, C. Adamo, R. Cammi, 
 J. W. Ochterski, R. L. Martin, K. Morokuma, O. Farkas, 
 J. B. Foresman, and D. J. Fox, Gaussian, Inc., Wallingford CT, 2019.
 
 ******************************************
 Gaussian 16:  ES64L-G16RevC.01  3-Jul-2019
                 1-May-2024 
 ******************************************
 %chk=geometry.chk
 %mem=9GB
 %nprocshared=12
 Will use up to   12 processors via shared memory.
 ----------------------------------------
 #P wB97XD/6-311+G* NoSymm #P Field=X-262
 ----------------------------------------
 1/38=1,172=1/1;
 2/12=2,15=1,17=6,18=5,40=1/2;
 3/5=4,6=6,7=11,11=2,14=1,15=-262,25=1,30=1,74=-58/1,2,3;
 4//1;
 5/5=2,38=5/2;
 6/7=2,8=2,9=2,10=2,28=1/1;
 99/5=1,9=1/99;
 Leave Link    1 at Wed May  1 14:27:44 2024, MaxMem=  1207959552 cpu:               1.4 elap:               1.4
 (Enter /software/gaussian/g16-c01/sse4/g16/l101.exe)
 -------
 TitleMe
 -------
 Symbolic Z-matrix:
 Charge =  1 Multiplicity = 1
 C                     0.0295    1.3397    0.0682 
 C                     1.4348    1.2867    0.0064 
 C                     2.1118    0.0511   -0.0054 
 C                     1.4451   -1.1372    0.0312 
 C                    -0.6879    0.1682    0.11 
 H                    -0.4713    2.2984    0.0781 
 H                     2.0273    2.1965   -0.0322 
 H                     1.9897   -2.0764    0.0232 
 H                    -1.7716    0.1804    0.1582 
 N                     3.5864    0.051    -0.0675 
 O                     4.1471   -1.0597   -0.0881 
 O                     4.145     1.1639   -0.0901 
 C                    -0.0236   -1.1458    0.0835 
 H                    -0.4367   -1.8725    0.7889 
 Br                   -0.5359   -1.8697   -1.7408 
 
 ITRead=  0  0  0  0  0  0  0  0  0  0  0  0  0  0  0
 MicOpt= -1 -1 -1 -1 -1 -1 -1 -1 -1 -1 -1 -1 -1 -1 -1
 NAtoms=     15 NQM=       15 NQMF=       0 NMMI=      0 NMMIF=      0
                NMic=       0 NMicF=      0.
                    Isotopes and Nuclear Properties:
 (Nuclear quadrupole moments (NQMom) in fm**2, nuclear magnetic moments (NMagM)
  in nuclear magnetons)

  Atom         1           2           3           4           5           6           7           8           9          10
 IAtWgt=          12          12          12          12          12           1           1           1           1          14
 AtmWgt=  12.0000000  12.0000000  12.0000000  12.0000000  12.0000000   1.0078250   1.0078250   1.0078250   1.0078250  14.0030740
 NucSpn=           0           0           0           0           0           1           1           1           1           2
 AtZEff=  -0.0000000  -0.0000000  -0.0000000  -0.0000000  -0.0000000  -0.0000000  -0.0000000  -0.0000000  -0.0000000  -0.0000000
 NQMom=    0.0000000   0.0000000   0.0000000   0.0000000   0.0000000   0.0000000   0.0000000   0.0000000   0.0000000   2.0440000
 NMagM=    0.0000000   0.0000000   0.0000000   0.0000000   0.0000000   2.7928460   2.7928460   2.7928460   2.7928460   0.4037610
 AtZNuc=   6.0000000   6.0000000   6.0000000   6.0000000   6.0000000   1.0000000   1.0000000   1.0000000   1.0000000   7.0000000

  Atom        11          12          13          14          15
 IAtWgt=          16          16          12           1          79
 AtmWgt=  15.9949146  15.9949146  12.0000000   1.0078250  78.9183361
 NucSpn=           0           0           0           1           3
 AtZEff=  -0.0000000  -0.0000000  -0.0000000  -0.0000000  -0.0000000
 NQMom=    0.0000000   0.0000000   0.0000000   0.0000000  31.3000000
 NMagM=    0.0000000   0.0000000   0.0000000   2.7928460   2.1063990
 AtZNuc=   8.0000000   8.0000000   6.0000000   1.0000000  35.0000000
 Leave Link  101 at Wed May  1 14:27:45 2024, MaxMem=  1207959552 cpu:               1.4 elap:               1.4
 (Enter /software/gaussian/g16-c01/sse4/g16/l202.exe)
                          Input orientation:                          
 ---------------------------------------------------------------------
 Center     Atomic      Atomic             Coordinates (Angstroms)
 Number     Number       Type             X           Y           Z
 ---------------------------------------------------------------------
      1          6           0        0.029500    1.339700    0.068200
      2          6           0        1.434800    1.286700    0.006400
      3          6           0        2.111800    0.051100   -0.005400
      4          6           0        1.445100   -1.137200    0.031200
      5          6           0       -0.687900    0.168200    0.110000
      6          1           0       -0.471300    2.298400    0.078100
      7          1           0        2.027300    2.196500   -0.032200
      8          1           0        1.989700   -2.076400    0.023200
      9          1           0       -1.771600    0.180400    0.158200
     10          7           0        3.586400    0.051000   -0.067500
     11          8           0        4.147100   -1.059700   -0.088100
     12          8           0        4.145000    1.163900   -0.090100
     13          6           0       -0.023600   -1.145800    0.083500
     14          1           0       -0.436700   -1.872500    0.788900
     15         35           0       -0.535900   -1.869700   -1.740800
 ---------------------------------------------------------------------
                    Distance matrix (angstroms):
                    1          2          3          4          5
     1  C    0.000000
     2  C    1.407656   0.000000
     3  C    2.449874   1.408963   0.000000
     4  C    2.853126   2.424049   1.363043   0.000000
     5  C    1.374344   2.401589   2.804523   2.501993   0.000000
     6  H    1.081667   2.159142   3.424870   3.934226   2.141421
     7  H    2.176095   1.086408   2.147231   3.384750   3.392128
     8  H    3.938800   3.408612   2.131193   1.085702   3.495040
     9  H    2.143837   3.395283   3.888995   3.478413   1.084840
    10  N    3.785591   2.482297   1.475907   2.450862   4.279589
    11  O    4.768247   3.587631   2.320164   2.705743   4.992415
    12  O    4.122294   2.714696   2.319353   3.549540   4.938459
    13  C    2.486114   2.837240   2.449573   1.469656   1.472614
    14  H    3.324903   3.754379   3.290289   2.157764   2.165286
    15  Br   3.727252   4.110867   3.702891   2.756973   2.757100
                    6          7          8          9         10
     6  H    0.000000
     7  H    2.503108   0.000000
     8  H    5.019802   4.273425   0.000000
     9  H    2.486588   4.304945   4.388479   0.000000
    10  N    4.640790   2.652397   2.661486   5.364313   0.000000
    11  O    5.712624   3.885809   2.387560   6.052233   1.244373
    12  O    4.756638   2.356750   3.893289   6.002923   1.245428
    13  C    3.473180   3.923079   2.218790   2.195425   3.806210
    14  H    4.231175   4.827242   2.552506   2.528663   4.540772
    15  Br   4.548146   5.101303   3.087568   3.055498   4.845862
                   11         12         13         14         15
    11  O    0.000000
    12  O    2.223602   0.000000
    13  C    4.175117   4.768865   0.000000
    14  H    4.737193   5.566358   1.093770   0.000000
    15  Br   5.031700   5.817075   2.028436   2.531646   0.000000
 Symmetry turned off by external request.
 Stoichiometry    C6H5BrNO2(1+)
 Framework group  C1[X(C6H5BrNO2)]
 Deg. of freedom    39
 Full point group                 C1      NOp   1
 Rotational constants (GHZ):           1.8252210           0.5518633           0.4576002
 Leave Link  202 at Wed May  1 14:27:46 2024, MaxMem=  1207959552 cpu:               1.2 elap:               1.2
 (Enter /software/gaussian/g16-c01/sse4/g16/l301.exe)
 Standard basis: 6-311+G(d) (5D, 7F)
 Ernie: Thresh=  0.10000D-02 Tol=  0.10000D-05 Strict=F.
 The following finite field(s) will be applied:
 An electric field of             -0.0262  0.0000  0.0000
   261 basis functions,   443 primitive gaussians,   273 cartesian basis functions
    49 alpha electrons       49 beta electrons
       nuclear repulsion energy       739.2122215416 Hartrees.
 IExCor= 4639 DFT=T Ex+Corr=wB97XD ExCW=0 ScaHFX=  1.000000
 ScaDFX=  1.000000  1.000000  1.000000  1.000000 ScalE2=  1.000000  1.000000
 IRadAn=      5 IRanWt=     -1 IRanGd=            0 ICorTp=0 IEmpDi=121
 HFx  wShort=  0.000000 wLong=  0.200000 cFull=  0.222036 cShort=  0.000000 cLong=  0.777964
 DFx  wShort=  0.000000 wLong=  0.200000 cFull=  0.000000 cShort=  0.000000 cLong=  1.000000
 NAtoms=   15 NActive=   15 NUniq=   15 SFac= 1.00D+00 NAtFMM=   60 NAOKFM=F Big=F
 Integral buffers will be    131072 words long.
 Raffenetti 2 integral format.
 Two-electron integral symmetry is turned off.
 R6Disp:  Grimme-D2 Dispersion energy=       -0.0077368520 Hartrees.
 Nuclear repulsion after empirical dispersion term =      739.2044846896 Hartrees.
 Leave Link  301 at Wed May  1 14:27:47 2024, MaxMem=  1207959552 cpu:               0.9 elap:               0.9
 (Enter /software/gaussian/g16-c01/sse4/g16/l302.exe)
 NPDir=0 NMtPBC=     1 NCelOv=     1 NCel=       1 NClECP=     1 NCelD=      1
         NCelK=      1 NCelE2=     1 NClLst=     1 CellRange=     0.0.
 One-electron integrals computed using PRISM.
 NBasis=   261 RedAO= T EigKep=  2.35D-06  NBF=   261
 NBsUse=   261 1.00D-06 EigRej= -1.00D+00 NBFU=   261
 Precomputing XC quadrature grid using
 IXCGrd= 4 IRadAn=           5 IRanWt=          -1 IRanGd=           0 AccXCQ= 0.00D+00.
 Generated NRdTot=       0 NPtTot=           0 NUsed=           0 NTot=          32
 NSgBfM=   273   273   273   273   273 MxSgAt=    15 MxSgA2=    15.
 Leave Link  302 at Wed May  1 14:28:09 2024, MaxMem=  1207959552 cpu:              22.1 elap:              22.1
 (Enter /software/gaussian/g16-c01/sse4/g16/l303.exe)
 DipDrv:  MaxL=1.
 The nuclear repulsion energy is now       734.2593088846 hartrees.
 Leave Link  303 at Wed May  1 14:28:13 2024, MaxMem=  1207959552 cpu:               3.3 elap:               3.2
 (Enter /software/gaussian/g16-c01/sse4/g16/l401.exe)
 ExpMin= 3.50D-02 ExpMax= 4.40D+05 ExpMxC= 1.51D+04 IAcc=3 IRadAn=         5 AccDes= 0.00D+00
 Harris functional with IExCor= 4639 and IRadAn=       5 diagonalized for initial guess.
 HarFok:  IExCor= 4639 AccDes= 0.00D+00 IRadAn=         5 IDoV= 1 UseB2=F ITyADJ=14
 ICtDFT=  3500011 ScaDFX=  1.000000  1.000000  1.000000  1.000000
 FoFCou: FMM=F IPFlag=           0 FMFlag=      100000 FMFlg1=           0
         NFxFlg=           0 DoJE=T BraDBF=F KetDBF=T FulRan=T
         wScrn=  0.000000 ICntrl=       500 IOpCl=  0 I1Cent=   200000004 NGrid=           0
         NMat0=    1 NMatS0=      1 NMatT0=    0 NMatD0=    1 NMtDS0=    0 NMtDT0=    0
 Symmetry not used in FoFCou.
 Harris En= -2971.56348055670    
 JPrj=0 DoOrth=F DoCkMO=F.
 Leave Link  401 at Wed May  1 14:28:43 2024, MaxMem=  1207959552 cpu:              30.7 elap:              30.7
 (Enter /software/gaussian/g16-c01/sse4/g16/l502.exe)
 Two-electron integral symmetry not used.
 Closed shell SCF:
 Using DIIS extrapolation, IDIIS=  1040.
 NGot=  1207959552 LenX=  1207804877 LenY=  1207729907
 Requested convergence on RMS density matrix=1.00D-08 within 128 cycles.
 Requested convergence on MAX density matrix=1.00D-06.
 Requested convergence on             energy=1.00D-06.
 No special actions if energy rises.
 Fock matrices will be formed incrementally for  20 cycles.

 Cycle   1  Pass 1  IDiag  1:
 FoFJK:  IHMeth= 1 ICntrl=       0 DoSepK=T KAlg= 0 I1Cent=           0 FoldK=F
 IRaf=         1 NMat=       1 IRICut=       1 DoRegI=T DoRafI=F ISym2E= 0 IDoP0=0 IntGTp=1.
 FoFCou: FMM=F IPFlag=           0 FMFlag=      100000 FMFlg1=           0
         NFxFlg=           0 DoJE=T BraDBF=F KetDBF=F FulRan=T
         wScrn=  0.000000 ICntrl=       500 IOpCl=  0 I1Cent=           0 NGrid=           0
         NMat0=    1 NMatS0=      1 NMatT0=    0 NMatD0=    1 NMtDS0=    0 NMtDT0=    0
 Symmetry not used in FoFCou.
 E= -3001.24382941914    
 DIIS: error= 3.19D-01 at cycle   1 NSaved=   1.
 NSaved= 1 IEnMin= 1 EnMin= -3001.24382941914     IErMin= 1 ErrMin= 3.19D-01
 ErrMax= 3.19D-01  0.00D+00 EMaxC= 1.00D-01 BMatC= 1.45D+01 BMatP= 1.45D+01
 IDIUse=3 WtCom= 0.00D+00 WtEn= 1.00D+00
 Coeff-Com:  0.100D+01
 Coeff-En:   0.100D+01
 Coeff:      0.100D+01
 Gap=     0.333 Goal=   None    Shift=    0.000
 GapD=    0.333 DampG=1.000 DampE=0.250 DampFc=0.2500 IDamp=-1.
 Damping current iteration by 2.50D-01
 RMSDP=1.38D+01 MaxDP=1.42D+03              OVMax= 9.97D-01

 Cycle   2  Pass 1  IDiag  1:
 RMSU=  1.77D-01    CP:  7.54D-01
 E= -3002.30766028679     Delta-E=       -1.063830867646 Rises=F Damp=T
 DIIS: error= 2.24D-01 at cycle   2 NSaved=   2.
 NSaved= 2 IEnMin= 2 EnMin= -3002.30766028679     IErMin= 2 ErrMin= 2.24D-01
 ErrMax= 2.24D-01  0.00D+00 EMaxC= 1.00D-01 BMatC= 6.31D+00 BMatP= 1.45D+01
 IDIUse=3 WtCom= 0.00D+00 WtEn= 1.00D+00
 Coeff-Com: -0.328D+00 0.133D+01
 Coeff-En:   0.439D+00 0.561D+00
 Coeff:      0.439D+00 0.561D+00
 Gap=     0.502 Goal=   None    Shift=    0.000
 RMSDP=1.05D+01 MaxDP=1.07D+03 DE=-1.06D+00 OVMax= 9.85D-01

 Cycle   3  Pass 1  IDiag  1:
 RMSU=  5.84D-02    CP:  3.12D-03  2.73D-01
 E= -2998.66497588470     Delta-E=        3.642684402089 Rises=F Damp=F
 DIIS: error= 1.42D-01 at cycle   3 NSaved=   3.
 NSaved= 3 IEnMin= 2 EnMin= -3002.30766028679     IErMin= 3 ErrMin= 1.42D-01
 ErrMax= 1.42D-01  0.00D+00 EMaxC= 1.00D-01 BMatC= 8.17D+00 BMatP= 6.31D+00
 IDIUse=2 WtCom= 0.00D+00 WtEn= 1.00D+00
 EnCoef did   100 forward-backward iterations
 Coeff-En:   0.539D+00 0.833D-02 0.452D+00
 Coeff:      0.539D+00 0.833D-02 0.452D+00
 Gap=    -0.205 Goal=   None    Shift=    0.000
 RMSDP=2.88D-02 MaxDP=1.58D+00 DE= 3.64D+00 OVMax= 7.94D-01

 Cycle   4  Pass 1  IDiag  1:
 RMSU=  2.70D-02    CP:  3.40D-03  2.31D-01  9.13D-01
 E= -3009.68981621628     Delta-E=      -11.024840331582 Rises=F Damp=F
 DIIS: error= 6.02D-02 at cycle   4 NSaved=   4.
 NSaved= 4 IEnMin= 4 EnMin= -3009.68981621628     IErMin= 4 ErrMin= 6.02D-02
 ErrMax= 6.02D-02  0.00D+00 EMaxC= 1.00D-01 BMatC= 1.17D+00 BMatP= 6.31D+00
 IDIUse=3 WtCom= 3.98D-01 WtEn= 6.02D-01
 Coeff-Com:  0.141D+00 0.500D-01 0.758D-01 0.733D+00
 Coeff-En:   0.608D-01 0.000D+00 0.000D+00 0.939D+00
 Coeff:      0.929D-01 0.199D-01 0.302D-01 0.857D+00
 Gap=     0.375 Goal=   None    Shift=    0.000
 RMSDP=4.59D-02 MaxDP=3.61D+00 DE=-1.10D+01 OVMax= 6.80D-01

 Cycle   5  Pass 1  IDiag  1:
 RMSU=  4.36D-02    CP:  3.05D-03  1.95D-01  7.10D-01  9.67D-01
 E= -3008.85685626146     Delta-E=        0.832959954825 Rises=F Damp=F
 DIIS: error= 6.69D-02 at cycle   5 NSaved=   5.
 NSaved= 5 IEnMin= 4 EnMin= -3009.68981621628     IErMin= 4 ErrMin= 6.02D-02
 ErrMax= 6.69D-02  0.00D+00 EMaxC= 1.00D-01 BMatC= 1.62D+00 BMatP= 1.17D+00
 IDIUse=2 WtCom= 0.00D+00 WtEn= 1.00D+00
 Coeff-En:   0.000D+00 0.000D+00 0.000D+00 0.657D+00 0.343D+00
 Coeff:      0.000D+00 0.000D+00 0.000D+00 0.657D+00 0.343D+00
 Gap=     0.089 Goal=   None    Shift=    0.000
 RMSDP=4.22D-02 MaxDP=2.66D+00 DE= 8.33D-01 OVMax= 8.30D-01

 Cycle   6  Pass 1  IDiag  1:
 RMSU=  2.38D-02    CP:  4.13D-03  1.65D-01  5.62D-01  4.34D-01  4.05D-01
 E= -3009.45080849699     Delta-E=       -0.593952235527 Rises=F Damp=F
 DIIS: error= 5.17D-02 at cycle   6 NSaved=   6.
 NSaved= 6 IEnMin= 4 EnMin= -3009.68981621628     IErMin= 6 ErrMin= 5.17D-02
 ErrMax= 5.17D-02  0.00D+00 EMaxC= 1.00D-01 BMatC= 6.99D-01 BMatP= 1.17D+00
 IDIUse=3 WtCom= 4.83D-01 WtEn= 5.17D-01
 EnCoef did     2 forward-backward iterations
 Coeff-Com: -0.377D-01 0.901D-01 0.277D-01 0.374D+00 0.221D+00 0.325D+00
 Coeff-En:   0.000D+00 0.000D+00 0.000D+00 0.520D+00 0.192D+00 0.288D+00
 Coeff:     -0.182D-01 0.435D-01 0.134D-01 0.449D+00 0.206D+00 0.306D+00
 Gap=     0.036 Goal=   None    Shift=    0.000
 RMSDP=2.83D-02 MaxDP=1.43D+00 DE=-5.94D-01 OVMax= 8.15D-01

 Cycle   7  Pass 1  IDiag  1:
 RMSU=  1.61D-02    CP:  3.18D-03  1.63D-01  6.07D-01  7.47D-01  3.88D-01
                    CP:  2.86D-01
 E= -3010.44324867685     Delta-E=       -0.992440179862 Rises=F Damp=F
 DIIS: error= 2.69D-02 at cycle   7 NSaved=   7.
 NSaved= 7 IEnMin= 7 EnMin= -3010.44324867685     IErMin= 7 ErrMin= 2.69D-02
 ErrMax= 2.69D-02  0.00D+00 EMaxC= 1.00D-01 BMatC= 1.53D-01 BMatP= 6.99D-01
 IDIUse=3 WtCom= 7.31D-01 WtEn= 2.69D-01
 Coeff-Com: -0.406D-01 0.537D-01 0.760D-02 0.161D+00 0.608D-01 0.296D+00
 Coeff-Com:  0.462D+00
 Coeff-En:   0.000D+00 0.000D+00 0.000D+00 0.000D+00 0.000D+00 0.110D+00
 Coeff-En:   0.890D+00
 Coeff:     -0.297D-01 0.393D-01 0.555D-02 0.117D+00 0.445D-01 0.246D+00
 Coeff:      0.577D+00
 Gap=     0.108 Goal=   None    Shift=    0.000
 RMSDP=8.11D-03 MaxDP=3.74D-01 DE=-9.92D-01 OVMax= 1.32D-01

 Cycle   8  Pass 1  IDiag  1:
 RMSU=  7.35D-03    CP:  3.35D-03  1.66D-01  5.78D-01  7.95D-01  3.84D-01
                    CP:  2.64D-01  9.35D-01
 E= -3010.55180755117     Delta-E=       -0.108558874325 Rises=F Damp=F
 DIIS: error= 1.02D-02 at cycle   8 NSaved=   8.
 NSaved= 8 IEnMin= 8 EnMin= -3010.55180755117     IErMin= 8 ErrMin= 1.02D-02
 ErrMax= 1.02D-02  0.00D+00 EMaxC= 1.00D-01 BMatC= 1.52D-02 BMatP= 1.53D-01
 IDIUse=3 WtCom= 8.98D-01 WtEn= 1.02D-01
 Coeff-Com: -0.932D-02 0.876D-02-0.830D-02 0.162D-01 0.564D-02 0.914D-01
 Coeff-Com:  0.217D+00 0.679D+00
 Coeff-En:   0.000D+00 0.000D+00 0.000D+00 0.000D+00 0.000D+00 0.000D+00
 Coeff-En:   0.000D+00 0.100D+01
 Coeff:     -0.837D-02 0.787D-02-0.746D-02 0.145D-01 0.507D-02 0.821D-01
 Coeff:      0.195D+00 0.712D+00
 Gap=     0.143 Goal=   None    Shift=    0.000
 RMSDP=3.15D-03 MaxDP=1.22D-01 DE=-1.09D-01 OVMax= 7.60D-02

 Cycle   9  Pass 1  IDiag  1:
 RMSU=  2.86D-03    CP:  3.36D-03  1.64D-01  5.60D-01  7.91D-01  3.83D-01
                    CP:  2.89D-01  9.32D-01  9.72D-01
 E= -3010.55527499935     Delta-E=       -0.003467448179 Rises=F Damp=F
 DIIS: error= 1.41D-02 at cycle   9 NSaved=   9.
 NSaved= 9 IEnMin= 9 EnMin= -3010.55527499935     IErMin= 8 ErrMin= 1.02D-02
 ErrMax= 1.41D-02  0.00D+00 EMaxC= 1.00D-01 BMatC= 1.34D-02 BMatP= 1.52D-02
 IDIUse=3 WtCom= 8.98D-01 WtEn= 1.02D-01
 Coeff-Com:  0.133D-02-0.139D-02-0.424D-02-0.104D-01-0.123D-01 0.385D-01
 Coeff-Com:  0.316D-01 0.489D+00 0.467D+00
 Coeff-En:   0.000D+00 0.000D+00 0.000D+00 0.000D+00 0.000D+00 0.000D+00
 Coeff-En:   0.000D+00 0.415D+00 0.585D+00
 Coeff:      0.119D-02-0.125D-02-0.381D-02-0.930D-02-0.110D-01 0.346D-01
 Coeff:      0.284D-01 0.482D+00 0.479D+00
 Gap=     0.156 Goal=   None    Shift=    0.000
 RMSDP=1.80D-03 MaxDP=1.37D-01 DE=-3.47D-03 OVMax= 4.73D-02

 Cycle  10  Pass 1  IDiag  1:
 RMSU=  1.33D-03    CP:  3.32D-03  1.64D-01  5.53D-01  7.81D-01  3.71D-01
                    CP:  2.93D-01  8.98D-01  1.03D+00  8.50D-01
 E= -3010.56596018857     Delta-E=       -0.010685189221 Rises=F Damp=F
 DIIS: error= 2.06D-03 at cycle  10 NSaved=  10.
 NSaved=10 IEnMin=10 EnMin= -3010.56596018857     IErMin=10 ErrMin= 2.06D-03
 ErrMax= 2.06D-03  0.00D+00 EMaxC= 1.00D-01 BMatC= 7.52D-04 BMatP= 1.34D-02
 IDIUse=3 WtCom= 9.79D-01 WtEn= 2.06D-02
 Coeff-Com:  0.813D-03-0.122D-02-0.127D-02 0.675D-03-0.510D-02 0.862D-02
 Coeff-Com: -0.440D-01-0.778D-01 0.106D+00 0.101D+01
 Coeff-En:   0.000D+00 0.000D+00 0.000D+00 0.000D+00 0.000D+00 0.000D+00
 Coeff-En:   0.000D+00 0.000D+00 0.000D+00 0.100D+01
 Coeff:      0.796D-03-0.119D-02-0.124D-02 0.661D-03-0.500D-02 0.845D-02
 Coeff:     -0.431D-01-0.762D-01 0.103D+00 0.101D+01
 Gap=     0.155 Goal=   None    Shift=    0.000
 RMSDP=8.09D-04 MaxDP=5.83D-02 DE=-1.07D-02 OVMax= 2.69D-02

 Cycle  11  Pass 1  IDiag  1:
 RMSU=  4.60D-04    CP:  3.33D-03  1.64D-01  5.46D-01  7.80D-01  3.71D-01
                    CP:  3.01D-01  9.08D-01  1.04D+00  1.01D+00  1.05D+00
 E= -3010.56765224547     Delta-E=       -0.001692056900 Rises=F Damp=F
 DIIS: error= 8.64D-04 at cycle  11 NSaved=  11.
 NSaved=11 IEnMin=11 EnMin= -3010.56765224547     IErMin=11 ErrMin= 8.64D-04
 ErrMax= 8.64D-04  0.00D+00 EMaxC= 1.00D-01 BMatC= 1.20D-04 BMatP= 7.52D-04
 IDIUse=3 WtCom= 9.91D-01 WtEn= 8.64D-03
 Coeff-Com:  0.561D-04-0.130D-03 0.216D-03 0.163D-02-0.223D-02 0.129D-02
 Coeff-Com: -0.200D-01-0.867D-01-0.429D-01 0.329D+00 0.819D+00
 Coeff-En:   0.000D+00 0.000D+00 0.000D+00 0.000D+00 0.000D+00 0.000D+00
 Coeff-En:   0.000D+00 0.000D+00 0.000D+00 0.000D+00 0.100D+01
 Coeff:      0.556D-04-0.129D-03 0.215D-03 0.161D-02-0.222D-02 0.128D-02
 Coeff:     -0.198D-01-0.859D-01-0.426D-01 0.327D+00 0.821D+00
 Gap=     0.156 Goal=   None    Shift=    0.000
 RMSDP=5.09D-04 MaxDP=4.59D-02 DE=-1.69D-03 OVMax= 1.59D-02

 Cycle  12  Pass 1  IDiag  1:
 RMSU=  2.13D-04    CP:  3.32D-03  1.63D-01  5.44D-01  7.81D-01  3.67D-01
                    CP:  3.01D-01  8.99D-01  1.03D+00  1.08D+00  1.22D+00
                    CP:  1.25D+00
 E= -3010.56807995894     Delta-E=       -0.000427713466 Rises=F Damp=F
 DIIS: error= 4.11D-04 at cycle  12 NSaved=  12.
 NSaved=12 IEnMin=12 EnMin= -3010.56807995894     IErMin=12 ErrMin= 4.11D-04
 ErrMax= 4.11D-04  0.00D+00 EMaxC= 1.00D-01 BMatC= 2.53D-05 BMatP= 1.20D-04
 IDIUse=3 WtCom= 9.96D-01 WtEn= 4.11D-03
 Coeff-Com: -0.622D-03 0.959D-03 0.302D-03 0.491D-03 0.301D-03-0.156D-02
 Coeff-Com:  0.810D-02 0.785D-02-0.307D-01-0.963D-01 0.154D+00 0.957D+00
 Coeff-En:   0.000D+00 0.000D+00 0.000D+00 0.000D+00 0.000D+00 0.000D+00
 Coeff-En:   0.000D+00 0.000D+00 0.000D+00 0.000D+00 0.000D+00 0.100D+01
 Coeff:     -0.620D-03 0.955D-03 0.301D-03 0.489D-03 0.300D-03-0.156D-02
 Coeff:      0.807D-02 0.781D-02-0.306D-01-0.959D-01 0.153D+00 0.957D+00
 Gap=     0.157 Goal=   None    Shift=    0.000
 RMSDP=2.50D-04 MaxDP=1.47D-02 DE=-4.28D-04 OVMax= 1.40D-02

 Cycle  13  Pass 1  IDiag  1:
 RMSU=  1.08D-04    CP:  3.32D-03  1.63D-01  5.44D-01  7.82D-01  3.66D-01
                    CP:  3.02D-01  8.97D-01  1.01D+00  1.09D+00  1.28D+00
                    CP:  1.47D+00  1.42D+00
 E= -3010.56823889714     Delta-E=       -0.000158938202 Rises=F Damp=F
 DIIS: error= 2.94D-04 at cycle  13 NSaved=  13.
 NSaved=13 IEnMin=13 EnMin= -3010.56823889714     IErMin=13 ErrMin= 2.94D-04
 ErrMax= 2.94D-04  0.00D+00 EMaxC= 1.00D-01 BMatC= 3.49D-05 BMatP= 2.53D-05
 IDIUse=3 WtCom= 9.96D-01 WtEn= 4.11D-03
 Coeff-Com: -0.686D-03 0.919D-03 0.237D-03-0.561D-03-0.521D-04-0.118D-02
 Coeff-Com:  0.960D-02 0.141D-01 0.469D-02 0.165D-01-0.139D+00 0.123D+00
 Coeff-Com:  0.972D+00
 Coeff-En:   0.000D+00 0.000D+00 0.000D+00 0.000D+00 0.000D+00 0.000D+00
 Coeff-En:   0.000D+00 0.000D+00 0.000D+00 0.000D+00 0.000D+00 0.000D+00
 Coeff-En:   0.100D+01
 Coeff:     -0.683D-03 0.916D-03 0.236D-03-0.559D-03-0.519D-04-0.117D-02
 Coeff:      0.956D-02 0.140D-01 0.467D-02 0.164D-01-0.138D+00 0.123D+00
 Coeff:      0.972D+00
 Gap=     0.159 Goal=   None    Shift=    0.000
 RMSDP=2.35D-04 MaxDP=1.34D-02 DE=-1.59D-04 OVMax= 8.57D-03

 Cycle  14  Pass 1  IDiag  1:
 RMSU=  5.53D-05    CP:  3.31D-03  1.63D-01  5.45D-01  7.81D-01  3.66D-01
                    CP:  3.01D-01  8.96D-01  9.87D-01  1.09D+00  1.33D+00
                    CP:  1.48D+00  1.73D+00  1.92D+00
 E= -3010.56831913601     Delta-E=       -0.000080238869 Rises=F Damp=F
 DIIS: error= 2.57D-04 at cycle  14 NSaved=  14.
 NSaved=14 IEnMin=14 EnMin= -3010.56831913601     IErMin=14 ErrMin= 2.57D-04
 ErrMax= 2.57D-04  0.00D+00 EMaxC= 1.00D-01 BMatC= 2.16D-05 BMatP= 2.53D-05
 IDIUse=3 WtCom= 9.97D-01 WtEn= 2.57D-03
 Coeff-Com: -0.291D-03 0.347D-03 0.126D-03-0.377D-03-0.550D-03-0.760D-03
 Coeff-Com:  0.254D-02-0.355D-02 0.208D-01 0.138D+00-0.157D+00-0.505D+00
 Coeff-Com:  0.358D-01 0.147D+01
 Coeff-En:   0.000D+00 0.000D+00 0.000D+00 0.000D+00 0.000D+00 0.000D+00
 Coeff-En:   0.000D+00 0.000D+00 0.000D+00 0.000D+00 0.000D+00 0.000D+00
 Coeff-En:   0.000D+00 0.100D+01
 Coeff:     -0.290D-03 0.346D-03 0.126D-03-0.376D-03-0.549D-03-0.758D-03
 Coeff:      0.253D-02-0.354D-02 0.208D-01 0.138D+00-0.157D+00-0.504D+00
 Coeff:      0.357D-01 0.147D+01
 Gap=     0.161 Goal=   None    Shift=    0.000
 RMSDP=3.65D-04 MaxDP=1.87D-02 DE=-8.02D-05 OVMax= 1.15D-02

 Cycle  15  Pass 1  IDiag  1:
 RMSU=  5.33D-05    CP:  3.30D-03  1.62D-01  5.46D-01  7.80D-01  3.65D-01
                    CP:  3.01D-01  8.96D-01  9.54D-01  1.08D+00  1.41D+00
                    CP:  1.51D+00  2.01D+00  3.00D+00  2.33D+00
 E= -3010.56839272148     Delta-E=       -0.000073585468 Rises=F Damp=F
 DIIS: error= 1.22D-04 at cycle  15 NSaved=  15.
 NSaved=15 IEnMin=15 EnMin= -3010.56839272148     IErMin=15 ErrMin= 1.22D-04
 ErrMax= 1.22D-04  0.00D+00 EMaxC= 1.00D-01 BMatC= 5.05D-06 BMatP= 2.16D-05
 IDIUse=3 WtCom= 9.99D-01 WtEn= 1.22D-03
 Coeff-Com: -0.639D-04 0.104D-03 0.361D-04 0.402D-03-0.228D-03-0.281D-03
 Coeff-Com: -0.978D-03-0.819D-02-0.954D-03 0.414D-01 0.498D-02-0.939D-01
 Coeff-Com: -0.606D+00 0.496D+00 0.117D+01
 Coeff-En:   0.000D+00 0.000D+00 0.000D+00 0.000D+00 0.000D+00 0.000D+00
 Coeff-En:   0.000D+00 0.000D+00 0.000D+00 0.000D+00 0.000D+00 0.000D+00
 Coeff-En:   0.000D+00 0.000D+00 0.100D+01
 Coeff:     -0.638D-04 0.104D-03 0.360D-04 0.401D-03-0.228D-03-0.281D-03
 Coeff:     -0.977D-03-0.818D-02-0.953D-03 0.413D-01 0.498D-02-0.938D-01
 Coeff:     -0.605D+00 0.496D+00 0.117D+01
 Gap=     0.163 Goal=   None    Shift=    0.000
 RMSDP=2.56D-04 MaxDP=1.61D-02 DE=-7.36D-05 OVMax= 7.42D-03

 Cycle  16  Pass 1  IDiag  1:
 RMSU=  6.11D-05    CP:  3.30D-03  1.62D-01  5.47D-01  7.80D-01  3.63D-01
                    CP:  3.01D-01  8.94D-01  9.33D-01  1.08D+00  1.47D+00
                    CP:  1.51D+00  2.29D+00  3.00D+00  3.00D+00  2.54D+00
 E= -3010.56841365285     Delta-E=       -0.000020931373 Rises=F Damp=F
 DIIS: error= 4.92D-05 at cycle  16 NSaved=  16.
 NSaved=16 IEnMin=16 EnMin= -3010.56841365285     IErMin=16 ErrMin= 4.92D-05
 ErrMax= 4.92D-05  0.00D+00 EMaxC= 1.00D-01 BMatC= 4.65D-07 BMatP= 5.05D-06
 IDIUse=1 WtCom= 1.00D+00 WtEn= 0.00D+00
 Coeff-Com: -0.425D-04 0.771D-04-0.472D-05 0.103D-03-0.860D-04-0.613D-04
 Coeff-Com: -0.351D-03-0.122D-02-0.383D-02-0.853D-02 0.200D-01 0.879D-01
 Coeff-Com: -0.178D+00-0.120D+00 0.306D+00 0.898D+00
 Coeff:     -0.425D-04 0.771D-04-0.472D-05 0.103D-03-0.860D-04-0.613D-04
 Coeff:     -0.351D-03-0.122D-02-0.383D-02-0.853D-02 0.200D-01 0.879D-01
 Coeff:     -0.178D+00-0.120D+00 0.306D+00 0.898D+00
 Gap=     0.163 Goal=   None    Shift=    0.000
 RMSDP=5.44D-05 MaxDP=2.35D-03 DE=-2.09D-05 OVMax= 2.20D-03

 Cycle  17  Pass 1  IDiag  1:
 RMSU=  2.02D-05    CP:  3.30D-03  1.62D-01  5.47D-01  7.79D-01  3.63D-01
                    CP:  3.01D-01  8.95D-01  9.29D-01  1.09D+00  1.48D+00
                    CP:  1.53D+00  2.33D+00  3.00D+00  3.00D+00  2.95D+00
                    CP:  1.22D+00
 E= -3010.56841632134     Delta-E=       -0.000002668492 Rises=F Damp=F
 DIIS: error= 3.72D-05 at cycle  17 NSaved=  17.
 NSaved=17 IEnMin=17 EnMin= -3010.56841632134     IErMin=17 ErrMin= 3.72D-05
 ErrMax= 3.72D-05  0.00D+00 EMaxC= 1.00D-01 BMatC= 1.05D-07 BMatP= 4.65D-07
 IDIUse=1 WtCom= 1.00D+00 WtEn= 0.00D+00
 Coeff-Com: -0.344D-05 0.937D-05-0.102D-04-0.785D-04 0.805D-05-0.272D-04
 Coeff-Com:  0.444D-05 0.114D-02-0.810D-03-0.103D-01 0.684D-03 0.625D-01
 Coeff-Com:  0.859D-01-0.137D+00-0.185D+00 0.281D+00 0.902D+00
 Coeff:     -0.344D-05 0.937D-05-0.102D-04-0.785D-04 0.805D-05-0.272D-04
 Coeff:      0.444D-05 0.114D-02-0.810D-03-0.103D-01 0.684D-03 0.625D-01
 Coeff:      0.859D-01-0.137D+00-0.185D+00 0.281D+00 0.902D+00
 Gap=     0.163 Goal=   None    Shift=    0.000
 RMSDP=2.71D-05 MaxDP=9.62D-04 DE=-2.67D-06 OVMax= 1.22D-03

 Cycle  18  Pass 1  IDiag  1:
 RMSU=  9.77D-06    CP:  3.30D-03  1.62D-01  5.47D-01  7.80D-01  3.63D-01
                    CP:  3.01D-01  8.94D-01  9.29D-01  1.09D+00  1.48D+00
                    CP:  1.54D+00  2.34D+00  3.00D+00  3.00D+00  3.00D+00
                    CP:  1.28D+00  1.93D+00
 E= -3010.56841767958     Delta-E=       -0.000001358238 Rises=F Damp=F
 DIIS: error= 2.29D-05 at cycle  18 NSaved=  18.
 NSaved=18 IEnMin=18 EnMin= -3010.56841767958     IErMin=18 ErrMin= 2.29D-05
 ErrMax= 2.29D-05  0.00D+00 EMaxC= 1.00D-01 BMatC= 6.51D-08 BMatP= 1.05D-07
 IDIUse=1 WtCom= 1.00D+00 WtEn= 0.00D+00
 Coeff-Com:  0.251D-04-0.391D-04-0.448D-05-0.328D-04 0.351D-04-0.397D-04
 Coeff-Com: -0.116D-03-0.214D-03 0.187D-02 0.373D-02-0.131D-01-0.346D-01
 Coeff-Com:  0.345D-01 0.866D-01-0.706D-01-0.296D+00 0.281D-01 0.126D+01
 Coeff:      0.251D-04-0.391D-04-0.448D-05-0.328D-04 0.351D-04-0.397D-04
 Coeff:     -0.116D-03-0.214D-03 0.187D-02 0.373D-02-0.131D-01-0.346D-01
 Coeff:      0.345D-01 0.866D-01-0.706D-01-0.296D+00 0.281D-01 0.126D+01
 Gap=     0.163 Goal=   None    Shift=    0.000
 RMSDP=3.39D-05 MaxDP=1.26D-03 DE=-1.36D-06 OVMax= 1.49D-03

 Cycle  19  Pass 1  IDiag  1:
 RMSU=  5.83D-06    CP:  3.30D-03  1.62D-01  5.47D-01  7.80D-01  3.63D-01
                    CP:  3.01D-01  8.94D-01  9.29D-01  1.10D+00  1.48D+00
                    CP:  1.55D+00  2.36D+00  3.00D+00  3.00D+00  3.00D+00
                    CP:  1.37D+00  2.88D+00  2.29D+00
 E= -3010.56841874967     Delta-E=       -0.000001070088 Rises=F Damp=F
 DIIS: error= 1.72D-05 at cycle  19 NSaved=  19.
 NSaved=19 IEnMin=19 EnMin= -3010.56841874967     IErMin=19 ErrMin= 1.72D-05
 ErrMax= 1.72D-05  0.00D+00 EMaxC= 1.00D-01 BMatC= 2.50D-08 BMatP= 6.51D-08
 IDIUse=1 WtCom= 1.00D+00 WtEn= 0.00D+00
 Coeff-Com:  0.206D-04-0.343D-04 0.367D-06 0.296D-04 0.964D-05 0.221D-04
 Coeff-Com: -0.879D-04-0.492D-03 0.907D-03 0.501D-02-0.255D-02-0.358D-01
 Coeff-Com: -0.212D-01 0.743D-01 0.483D-01-0.175D+00-0.378D+00 0.355D+00
 Coeff-Com:  0.113D+01
 Coeff:      0.206D-04-0.343D-04 0.367D-06 0.296D-04 0.964D-05 0.221D-04
 Coeff:     -0.879D-04-0.492D-03 0.907D-03 0.501D-02-0.255D-02-0.358D-01
 Coeff:     -0.212D-01 0.743D-01 0.483D-01-0.175D+00-0.378D+00 0.355D+00
 Coeff:      0.113D+01
 Gap=     0.163 Goal=   None    Shift=    0.000
 RMSDP=2.86D-05 MaxDP=1.13D-03 DE=-1.07D-06 OVMax= 1.43D-03

 Cycle  20  Pass 1  IDiag  1:
 RMSU=  1.48D-05    CP:  3.30D-03  1.62D-01  5.47D-01  7.80D-01  3.63D-01
                    CP:  3.01D-01  8.94D-01  9.29D-01  1.10D+00  1.48D+00
                    CP:  1.56D+00  2.38D+00  3.00D+00  3.00D+00  3.00D+00
                    CP:  1.50D+00  3.00D+00  3.00D+00  2.22D+00
 E= -3010.56841941415     Delta-E=       -0.000000664485 Rises=F Damp=F
 DIIS: error= 9.13D-06 at cycle  20 NSaved=  20.
 NSaved=20 IEnMin=20 EnMin= -3010.56841941415     IErMin=20 ErrMin= 9.13D-06
 ErrMax= 9.13D-06  0.00D+00 EMaxC= 1.00D-01 BMatC= 1.12D-08 BMatP= 2.50D-08
 IDIUse=1 WtCom= 1.00D+00 WtEn= 0.00D+00
 Coeff-Com:  0.444D-05-0.318D-05-0.326D-05 0.305D-04-0.164D-04 0.308D-04
 Coeff-Com:  0.146D-04-0.114D-04-0.793D-03-0.391D-04 0.780D-02-0.351D-02
 Coeff-Com: -0.205D-01-0.237D-01 0.548D-01 0.113D+00-0.202D+00-0.645D+00
 Coeff-Com:  0.269D+00 0.145D+01
 Coeff:      0.444D-05-0.318D-05-0.326D-05 0.305D-04-0.164D-04 0.308D-04
 Coeff:      0.146D-04-0.114D-04-0.793D-03-0.391D-04 0.780D-02-0.351D-02
 Coeff:     -0.205D-01-0.237D-01 0.548D-01 0.113D+00-0.202D+00-0.645D+00
 Coeff:      0.269D+00 0.145D+01
 Gap=     0.163 Goal=   None    Shift=    0.000
 RMSDP=3.70D-05 MaxDP=1.54D-03 DE=-6.64D-07 OVMax= 1.97D-03

 Cycle  21  Pass 1  IDiag  1:
 Restarting incremental Fock formation.
 E= -3010.56841986487     Delta-E=       -0.000000450720 Rises=F Damp=F
 DIIS: error= 4.34D-06 at cycle  21 NSaved=  20.
 NSaved=20 IEnMin=20 EnMin= -3010.56841986487     IErMin=20 ErrMin= 4.34D-06
 ErrMax= 4.34D-06  0.00D+00 EMaxC= 1.00D-01 BMatC= 2.62D-09 BMatP= 1.12D-08
 IDIUse=1 WtCom= 1.00D+00 WtEn= 0.00D+00
 Coeff-Com: -0.837D-06 0.328D-05-0.226D-06-0.738D-05 0.170D-04 0.285D-04
 Coeff-Com:  0.207D-03-0.315D-03-0.165D-02 0.271D-02 0.682D-02 0.118D-01
 Coeff-Com: -0.302D-01-0.140D-01 0.661D-01 0.934D-01-0.927D-01-0.380D+00
 Coeff-Com:  0.189D+00 0.115D+01
 Coeff:     -0.837D-06 0.328D-05-0.226D-06-0.738D-05 0.170D-04 0.285D-04
 Coeff:      0.207D-03-0.315D-03-0.165D-02 0.271D-02 0.682D-02 0.118D-01
 Coeff:     -0.302D-01-0.140D-01 0.661D-01 0.934D-01-0.927D-01-0.380D+00
 Coeff:      0.189D+00 0.115D+01
 Gap=     0.163 Goal=   None    Shift=    0.000
 RMSDP=1.16D-05 MaxDP=5.79D-04 DE=-4.51D-07 OVMax= 6.18D-04

 Cycle  22  Pass 1  IDiag  1:
 RMSU=  1.15D-05    CP:  1.00D+00
 E= -3010.56841991446     Delta-E=       -0.000000049584 Rises=F Damp=F
 DIIS: error= 2.36D-06 at cycle  22 NSaved=  20.
 NSaved=20 IEnMin=20 EnMin= -3010.56841991446     IErMin=20 ErrMin= 2.36D-06
 ErrMax= 2.36D-06  0.00D+00 EMaxC= 1.00D-01 BMatC= 4.80D-10 BMatP= 2.62D-09
 IDIUse=1 WtCom= 1.00D+00 WtEn= 0.00D+00
 Coeff-Com: -0.123D-05-0.977D-05 0.144D-05 0.133D-05-0.121D-04 0.690D-04
 Coeff-Com:  0.122D-03-0.358D-03-0.715D-03 0.833D-03 0.710D-02-0.474D-02
 Coeff-Com: -0.930D-02-0.318D-02 0.534D-01 0.113D+00-0.130D+00-0.247D+00
 Coeff-Com:  0.137D+00 0.108D+01
 Coeff:     -0.123D-05-0.977D-05 0.144D-05 0.133D-05-0.121D-04 0.690D-04
 Coeff:      0.122D-03-0.358D-03-0.715D-03 0.833D-03 0.710D-02-0.474D-02
 Coeff:     -0.930D-02-0.318D-02 0.534D-01 0.113D+00-0.130D+00-0.247D+00
 Coeff:      0.137D+00 0.108D+01
 Gap=     0.163 Goal=   None    Shift=    0.000
 RMSDP=4.32D-06 MaxDP=2.70D-04 DE=-4.96D-08 OVMax= 2.00D-04

 Cycle  23  Pass 1  IDiag  1:
 RMSU=  1.45D-06    CP:  1.00D+00  1.35D+00
 E= -3010.56841992222     Delta-E=       -0.000000007759 Rises=F Damp=F
 DIIS: error= 6.59D-07 at cycle  23 NSaved=  20.
 NSaved=20 IEnMin=20 EnMin= -3010.56841992222     IErMin=20 ErrMin= 6.59D-07
 ErrMax= 6.59D-07  0.00D+00 EMaxC= 1.00D-01 BMatC= 1.11D-10 BMatP= 4.80D-10
 IDIUse=1 WtCom= 1.00D+00 WtEn= 0.00D+00
 Coeff-Com: -0.245D-05 0.218D-05-0.285D-05-0.661D-05-0.878D-05 0.297D-04
 Coeff-Com:  0.894D-04-0.245D-03-0.486D-03 0.127D-02-0.512D-03 0.109D-02
 Coeff-Com: -0.428D-02-0.148D-02 0.289D-01 0.171D-01-0.589D-01-0.136D+00
 Coeff-Com:  0.158D+00 0.996D+00
 Coeff:     -0.245D-05 0.218D-05-0.285D-05-0.661D-05-0.878D-05 0.297D-04
 Coeff:      0.894D-04-0.245D-03-0.486D-03 0.127D-02-0.512D-03 0.109D-02
 Coeff:     -0.428D-02-0.148D-02 0.289D-01 0.171D-01-0.589D-01-0.136D+00
 Coeff:      0.158D+00 0.996D+00
 Gap=     0.163 Goal=   None    Shift=    0.000
 RMSDP=1.37D-06 MaxDP=1.01D-04 DE=-7.76D-09 OVMax= 4.78D-05

 Cycle  24  Pass 1  IDiag  1:
 RMSU=  4.94D-07    CP:  1.00D+00  1.44D+00  1.45D+00
 E= -3010.56841992332     Delta-E=       -0.000000001102 Rises=F Damp=F
 DIIS: error= 5.75D-07 at cycle  24 NSaved=  20.
 NSaved=20 IEnMin=20 EnMin= -3010.56841992332     IErMin=20 ErrMin= 5.75D-07
 ErrMax= 5.75D-07  0.00D+00 EMaxC= 1.00D-01 BMatC= 4.30D-11 BMatP= 1.11D-10
 IDIUse=1 WtCom= 1.00D+00 WtEn= 0.00D+00
 Coeff-Com: -0.652D-06-0.235D-06-0.619D-06-0.128D-04-0.819D-05 0.129D-03
 Coeff-Com:  0.126D-03-0.457D-03-0.373D-03-0.739D-04 0.168D-02-0.337D-02
 Coeff-Com: -0.130D-01-0.710D-02 0.301D-01 0.352D-01-0.498D-01-0.224D+00
 Coeff-Com:  0.231D+00 0.100D+01
 Coeff:     -0.652D-06-0.235D-06-0.619D-06-0.128D-04-0.819D-05 0.129D-03
 Coeff:      0.126D-03-0.457D-03-0.373D-03-0.739D-04 0.168D-02-0.337D-02
 Coeff:     -0.130D-01-0.710D-02 0.301D-01 0.352D-01-0.498D-01-0.224D+00
 Coeff:      0.231D+00 0.100D+01
 Gap=     0.163 Goal=   None    Shift=    0.000
 RMSDP=7.27D-07 MaxDP=5.55D-05 DE=-1.10D-09 OVMax= 2.08D-05

 Cycle  25  Pass 1  IDiag  1:
 RMSU=  2.45D-07    CP:  1.00D+00  1.48D+00  1.73D+00  1.32D+00
 E= -3010.56841992372     Delta-E=       -0.000000000396 Rises=F Damp=F
 DIIS: error= 3.67D-07 at cycle  25 NSaved=  20.
 NSaved=20 IEnMin=20 EnMin= -3010.56841992372     IErMin=20 ErrMin= 3.67D-07
 ErrMax= 3.67D-07  0.00D+00 EMaxC= 1.00D-01 BMatC= 8.13D-12 BMatP= 4.30D-11
 IDIUse=1 WtCom= 1.00D+00 WtEn= 0.00D+00
 Coeff-Com:  0.106D-05 0.489D-05 0.769D-05-0.134D-04-0.496D-04 0.502D-04
 Coeff-Com:  0.248D-03-0.283D-03-0.157D-03 0.115D-03 0.117D-02 0.328D-03
 Coeff-Com: -0.626D-02-0.533D-02 0.889D-02 0.385D-01-0.319D-01-0.214D+00
 Coeff-Com: -0.963D-01 0.131D+01
 Coeff:      0.106D-05 0.489D-05 0.769D-05-0.134D-04-0.496D-04 0.502D-04
 Coeff:      0.248D-03-0.283D-03-0.157D-03 0.115D-03 0.117D-02 0.328D-03
 Coeff:     -0.626D-02-0.533D-02 0.889D-02 0.385D-01-0.319D-01-0.214D+00
 Coeff:     -0.963D-01 0.131D+01
 Gap=     0.163 Goal=   None    Shift=    0.000
 RMSDP=5.78D-07 MaxDP=5.22D-05 DE=-3.96D-10 OVMax= 1.86D-05

 Cycle  26  Pass 1  IDiag  1:
 RMSU=  1.83D-07    CP:  1.00D+00  1.51D+00  1.85D+00  1.77D+00  1.55D+00
 E= -3010.56841992394     Delta-E=       -0.000000000220 Rises=F Damp=F
 DIIS: error= 2.59D-07 at cycle  26 NSaved=  20.
 NSaved=20 IEnMin=20 EnMin= -3010.56841992394     IErMin=20 ErrMin= 2.59D-07
 ErrMax= 2.59D-07  0.00D+00 EMaxC= 1.00D-01 BMatC= 2.93D-12 BMatP= 8.13D-12
 IDIUse=1 WtCom= 1.00D+00 WtEn= 0.00D+00
 Coeff-Com: -0.191D-05 0.813D-06 0.792D-05-0.279D-04-0.730D-04 0.116D-03
 Coeff-Com:  0.348D-05 0.359D-03-0.664D-03 0.747D-03 0.475D-02 0.332D-02
 Coeff-Com: -0.694D-02-0.158D-01 0.657D-02 0.820D-01-0.260D-01-0.356D+00
 Coeff-Com: -0.265D+00 0.157D+01
 Coeff:     -0.191D-05 0.813D-06 0.792D-05-0.279D-04-0.730D-04 0.116D-03
 Coeff:      0.348D-05 0.359D-03-0.664D-03 0.747D-03 0.475D-02 0.332D-02
 Coeff:     -0.694D-02-0.158D-01 0.657D-02 0.820D-01-0.260D-01-0.356D+00
 Coeff:     -0.265D+00 0.157D+01
 Gap=     0.163 Goal=   None    Shift=    0.000
 RMSDP=4.74D-07 MaxDP=4.20D-05 DE=-2.20D-10 OVMax= 1.98D-05

 Cycle  27  Pass 1  IDiag  1:
 RMSU=  8.42D-08    CP:  1.00D+00  1.53D+00  1.94D+00  2.12D+00  1.99D+00
                    CP:  2.21D+00
 E= -3010.56841992402     Delta-E=       -0.000000000085 Rises=F Damp=F
 DIIS: error= 1.19D-07 at cycle  27 NSaved=  20.
 NSaved=20 IEnMin=20 EnMin= -3010.56841992402     IErMin=20 ErrMin= 1.19D-07
 ErrMax= 1.19D-07  0.00D+00 EMaxC= 1.00D-01 BMatC= 9.82D-13 BMatP= 2.93D-12
 IDIUse=1 WtCom= 1.00D+00 WtEn= 0.00D+00
 Coeff-Com: -0.166D-05-0.217D-05 0.104D-04 0.642D-05-0.530D-04-0.128D-03
 Coeff-Com:  0.215D-03 0.176D-03 0.279D-03-0.732D-03-0.221D-02 0.262D-02
 Coeff-Com:  0.306D-02-0.780D-02 0.218D-02 0.436D-01 0.293D-01-0.345D+00
 Coeff-Com: -0.713D-01 0.135D+01
 Coeff:     -0.166D-05-0.217D-05 0.104D-04 0.642D-05-0.530D-04-0.128D-03
 Coeff:      0.215D-03 0.176D-03 0.279D-03-0.732D-03-0.221D-02 0.262D-02
 Coeff:      0.306D-02-0.780D-02 0.218D-02 0.436D-01 0.293D-01-0.345D+00
 Coeff:     -0.713D-01 0.135D+01
 Gap=     0.163 Goal=   None    Shift=    0.000
 RMSDP=2.89D-07 MaxDP=2.36D-05 DE=-8.55D-11 OVMax= 1.19D-05

 Cycle  28  Pass 1  IDiag  1:
 RMSU=  5.46D-08    CP:  1.00D+00  1.54D+00  1.97D+00  2.37D+00  2.14D+00
                    CP:  3.00D+00  1.49D+00
 E= -3010.56841992409     Delta-E=       -0.000000000067 Rises=F Damp=F
 DIIS: error= 4.24D-08 at cycle  28 NSaved=  20.
 NSaved=20 IEnMin=20 EnMin= -3010.56841992409     IErMin=20 ErrMin= 4.24D-08
 ErrMax= 4.24D-08  0.00D+00 EMaxC= 1.00D-01 BMatC= 2.04D-13 BMatP= 9.82D-13
 IDIUse=1 WtCom= 1.00D+00 WtEn= 0.00D+00
 Coeff-Com: -0.386D-05-0.746D-05 0.257D-04 0.669D-04 0.184D-04-0.196D-03
 Coeff-Com: -0.320D-04 0.328D-03-0.151D-03-0.926D-03 0.796D-03 0.224D-02
 Coeff-Com: -0.493D-02-0.882D-02 0.269D-01 0.776D-01-0.111D+00-0.256D+00
 Coeff-Com:  0.278D+00 0.996D+00
 Coeff:     -0.386D-05-0.746D-05 0.257D-04 0.669D-04 0.184D-04-0.196D-03
 Coeff:     -0.320D-04 0.328D-03-0.151D-03-0.926D-03 0.796D-03 0.224D-02
 Coeff:     -0.493D-02-0.882D-02 0.269D-01 0.776D-01-0.111D+00-0.256D+00
 Coeff:      0.278D+00 0.996D+00
 Gap=     0.163 Goal=   None    Shift=    0.000
 RMSDP=8.92D-08 MaxDP=7.24D-06 DE=-6.73D-11 OVMax= 4.26D-06

 Cycle  29  Pass 1  IDiag  1:
 RMSU=  3.47D-08    CP:  1.00D+00  1.54D+00  1.99D+00  2.43D+00  2.21D+00
                    CP:  3.00D+00  1.76D+00  1.60D+00
 E= -3010.56841992406     Delta-E=        0.000000000027 Rises=F Damp=F
 DIIS: error= 1.73D-08 at cycle  29 NSaved=  20.
 NSaved=20 IEnMin=19 EnMin= -3010.56841992409     IErMin=20 ErrMin= 1.73D-08
 ErrMax= 1.73D-08  0.00D+00 EMaxC= 1.00D-01 BMatC= 6.17D-14 BMatP= 2.04D-13
 IDIUse=1 WtCom= 1.00D+00 WtEn= 0.00D+00
 Coeff-Com: -0.771D-06 0.563D-06-0.300D-05 0.706D-05-0.232D-05-0.244D-04
 Coeff-Com: -0.221D-03-0.303D-03 0.274D-03 0.411D-03 0.687D-03-0.461D-03
 Coeff-Com: -0.518D-02-0.609D-02 0.285D-01 0.709D-01-0.124D+00-0.185D+00
 Coeff-Com:  0.306D+00 0.914D+00
 Coeff:     -0.771D-06 0.563D-06-0.300D-05 0.706D-05-0.232D-05-0.244D-04
 Coeff:     -0.221D-03-0.303D-03 0.274D-03 0.411D-03 0.687D-03-0.461D-03
 Coeff:     -0.518D-02-0.609D-02 0.285D-01 0.709D-01-0.124D+00-0.185D+00
 Coeff:      0.306D+00 0.914D+00
 Gap=     0.163 Goal=   None    Shift=    0.000
 RMSDP=2.96D-08 MaxDP=1.88D-06 DE= 2.68D-11 OVMax= 1.20D-06

 Cycle  30  Pass 1  IDiag  1:
 RMSU=  9.66D-09    CP:  1.00D+00  1.54D+00  1.99D+00  2.47D+00  2.23D+00
                    CP:  3.00D+00  1.77D+00  1.84D+00  1.24D+00
 E= -3010.56841992404     Delta-E=        0.000000000017 Rises=F Damp=F
 DIIS: error= 4.99D-09 at cycle  30 NSaved=  20.
 NSaved=20 IEnMin=18 EnMin= -3010.56841992409     IErMin=20 ErrMin= 4.99D-09
 ErrMax= 4.99D-09  0.00D+00 EMaxC= 1.00D-01 BMatC= 4.33D-15 BMatP= 6.17D-14
 IDIUse=1 WtCom= 1.00D+00 WtEn= 0.00D+00
 Coeff-Com: -0.205D-06 0.216D-05-0.470D-05 0.105D-07 0.348D-05 0.372D-04
 Coeff-Com:  0.112D-03 0.182D-04-0.335D-03-0.190D-03 0.626D-03 0.199D-02
 Coeff-Com: -0.391D-02-0.120D-01 0.952D-02 0.438D-01-0.347D-01-0.143D+00
 Coeff-Com: -0.871D-03 0.114D+01
 Coeff:     -0.205D-06 0.216D-05-0.470D-05 0.105D-07 0.348D-05 0.372D-04
 Coeff:      0.112D-03 0.182D-04-0.335D-03-0.190D-03 0.626D-03 0.199D-02
 Coeff:     -0.391D-02-0.120D-01 0.952D-02 0.438D-01-0.347D-01-0.143D+00
 Coeff:     -0.871D-03 0.114D+01
 Gap=     0.163 Goal=   None    Shift=    0.000
 RMSDP=7.43D-09 MaxDP=3.87D-07 DE= 1.73D-11 OVMax= 2.53D-07

 SCF Done:  E(RwB97XD) =  -3010.56841992     A.U. after   30 cycles
            NFock= 30  Conv=0.74D-08     -V/T= 2.0016
 KE= 3.005847554557D+03 PE=-8.627267055558D+03 EE= 1.876591772192D+03
 Leave Link  502 at Wed May  1 14:58:00 2024, MaxMem=  1207959552 cpu:            1756.1 elap:            1756.2
 (Enter /software/gaussian/g16-c01/sse4/g16/l601.exe)
 Copying SCF densities to generalized density rwf, IOpCl= 0 IROHF=0.

 **********************************************************************

            Population analysis using the SCF Density.

 **********************************************************************

 Alpha  occ. eigenvalues -- -483.29524 -62.84581 -56.64218 -56.63728 -56.63719
 Alpha  occ. eigenvalues --  -19.33780 -19.33740 -14.73023 -10.56012 -10.53689
 Alpha  occ. eigenvalues --  -10.52241 -10.51354 -10.50613 -10.50494  -9.00410
 Alpha  occ. eigenvalues --   -6.82931  -6.81312  -6.81279  -2.92872  -2.92444
 Alpha  occ. eigenvalues --   -2.92417  -2.91120  -2.91120  -1.37211  -1.20090
 Alpha  occ. eigenvalues --   -1.18536  -1.09942  -1.07252  -1.01676  -0.94267
 Alpha  occ. eigenvalues --   -0.91296  -0.85651  -0.80303  -0.75919  -0.74946
 Alpha  occ. eigenvalues --   -0.72566  -0.70486  -0.69442  -0.67205  -0.64975
 Alpha  occ. eigenvalues --   -0.64459  -0.61782  -0.59811  -0.56873  -0.55280
 Alpha  occ. eigenvalues --   -0.52082  -0.44152  -0.42628  -0.42408
 Alpha virt. eigenvalues --   -0.26098  -0.17791  -0.14374  -0.13322  -0.12770
 Alpha virt. eigenvalues --   -0.10415  -0.08679  -0.06080  -0.04374  -0.04076
 Alpha virt. eigenvalues --   -0.03125  -0.01534  -0.00258   0.00444   0.01016
 Alpha virt. eigenvalues --    0.02244   0.03100   0.03837   0.04085   0.05112
 Alpha virt. eigenvalues --    0.06533   0.07745   0.08134   0.08776   0.09927
 Alpha virt. eigenvalues --    0.10972   0.11312   0.12663   0.12998   0.13998
 Alpha virt. eigenvalues --    0.15835   0.16145   0.16651   0.17506   0.18447
 Alpha virt. eigenvalues --    0.19314   0.20734   0.21382   0.22896   0.24127
 Alpha virt. eigenvalues --    0.24546   0.25808   0.27811   0.27982   0.29250
 Alpha virt. eigenvalues --    0.30778   0.31315   0.32403   0.33263   0.33522
 Alpha virt. eigenvalues --    0.34775   0.35100   0.36557   0.37318   0.38325
 Alpha virt. eigenvalues --    0.38953   0.39862   0.41863   0.42207   0.43563
 Alpha virt. eigenvalues --    0.44557   0.45146   0.46322   0.47721   0.49049
 Alpha virt. eigenvalues --    0.50251   0.50974   0.51551   0.51970   0.53156
 Alpha virt. eigenvalues --    0.54379   0.54870   0.56267   0.56856   0.59064
 Alpha virt. eigenvalues --    0.60021   0.61607   0.61866   0.63534   0.65513
 Alpha virt. eigenvalues --    0.66684   0.67922   0.68296   0.69984   0.70303
 Alpha virt. eigenvalues --    0.73224   0.75455   0.76586   0.77350   0.79327
 Alpha virt. eigenvalues --    0.82510   0.85326   0.88126   0.89719   0.90109
 Alpha virt. eigenvalues --    0.90949   0.95165   0.98235   1.02099   1.06683
 Alpha virt. eigenvalues --    1.07365   1.09694   1.10424   1.12168   1.15193
 Alpha virt. eigenvalues --    1.16871   1.20324   1.24985   1.25884   1.28960
 Alpha virt. eigenvalues --    1.31817   1.34387   1.36099   1.38295   1.41334
 Alpha virt. eigenvalues --    1.41982   1.42356   1.49355   1.59769   1.62533
 Alpha virt. eigenvalues --    1.63734   1.64016   1.68556   1.69967   1.71351
 Alpha virt. eigenvalues --    1.75050   1.77373   1.78665   1.82726   1.84249
 Alpha virt. eigenvalues --    1.85640   1.93103   1.93285   1.95180   1.98014
 Alpha virt. eigenvalues --    2.04216   2.08137   2.08983   2.12007   2.13680
 Alpha virt. eigenvalues --    2.14650   2.19220   2.24826   2.29467   2.33895
 Alpha virt. eigenvalues --    2.42251   2.48325   2.49846   2.51331   2.56685
 Alpha virt. eigenvalues --    2.60941   2.67999   2.70935   2.73374   2.79703
 Alpha virt. eigenvalues --    2.83821   2.85448   2.87531   2.88428   2.93699
 Alpha virt. eigenvalues --    2.97435   3.01038   3.09281   3.13094   3.14577
 Alpha virt. eigenvalues --    3.17260   3.20476   3.24362   3.29109   3.35503
 Alpha virt. eigenvalues --    3.40225   3.46384   3.51806   3.58105   3.62533
 Alpha virt. eigenvalues --    3.68027   3.81954   3.86662   3.86881   3.92176
 Alpha virt. eigenvalues --    4.10268   4.10513   4.18368   4.23470   4.44407
 Alpha virt. eigenvalues --    4.57357   4.61781   4.71067   5.06194   5.08997
 Alpha virt. eigenvalues --    5.17665   5.21811   5.75292   6.28713   6.66061
 Alpha virt. eigenvalues --    7.48944   7.50514   7.60507  23.25403  23.65545
 Alpha virt. eigenvalues --   23.72338  23.84312  23.99596  24.06748  35.44911
 Alpha virt. eigenvalues --   47.92822  49.97722  50.06535 289.82184 289.83851
 Alpha virt. eigenvalues --  289.963371020.93297
          Condensed to atoms (all electrons):
               1          2          3          4          5          6
     1  C   11.869458  -4.403661   0.332702  -2.679409  -1.569665   0.286113
     2  C   -4.403661  16.533189  -3.067204  -0.928808   0.449953   0.054409
     3  C    0.332702  -3.067204  15.397773  -5.084053  -1.512168   0.030007
     4  C   -2.679409  -0.928808  -5.084053  19.944887   0.815571   0.017113
     5  C   -1.569665   0.449953  -1.512168   0.815571  10.965286  -0.040083
     6  H    0.286113   0.054409   0.030007   0.017113  -0.040083   0.394482
     7  H    0.131905   0.148394   0.075512  -0.044638  -0.013842  -0.001713
     8  H    0.015467  -0.039227   0.112523   0.118091  -0.040019  -0.000006
     9  H    0.110363  -0.089338   0.036081  -0.039110   0.166523  -0.004480
    10  N   -0.340381   0.530872  -1.066080   0.514252  -0.014042  -0.000730
    11  O   -0.012377  -0.192611  -0.241629   0.065983  -0.093384  -0.000029
    12  O    0.517579  -0.036538  -0.236739  -0.274622  -0.046644   0.000146
    13  C    2.254151  -3.428029   1.910822  -6.734259  -3.009246  -0.012356
    14  H   -0.052559   0.037319  -0.029403  -0.093373   0.160454  -0.000011
    15  Br   0.032678   0.083238  -0.085692   0.088508  -0.179356  -0.000098
               7          8          9         10         11         12
     1  C    0.131905   0.015467   0.110363  -0.340381  -0.012377   0.517579
     2  C    0.148394  -0.039227  -0.089338   0.530872  -0.192611  -0.036538
     3  C    0.075512   0.112523   0.036081  -1.066080  -0.241629  -0.236739
     4  C   -0.044638   0.118091  -0.039110   0.514252   0.065983  -0.274622
     5  C   -0.013842  -0.040019   0.166523  -0.014042  -0.093384  -0.046644
     6  H   -0.001713  -0.000006  -0.004480  -0.000730  -0.000029   0.000146
     7  H    0.267127   0.000030   0.000066  -0.031577  -0.001746   0.037910
     8  H    0.000030   0.261851   0.000127  -0.027260   0.034998  -0.000474
     9  H    0.000066   0.000127   0.471696   0.000071   0.000025   0.000018
    10  N   -0.031577  -0.027260   0.000071   7.972747  -0.043173  -0.066438
    11  O   -0.001746   0.034998   0.000025  -0.043173   7.835840   0.025743
    12  O    0.037910  -0.000474   0.000018  -0.066438   0.025743   7.865746
    13  C    0.024275   0.145953   0.132898  -0.311416   0.448977   0.039408
    14  H   -0.000032  -0.002294  -0.009260   0.002056  -0.000558  -0.000098
    15  Br   0.000149   0.010736   0.003243   0.014455  -0.000508   0.002261
              13         14         15
     1  C    2.254151  -0.052559   0.032678
     2  C   -3.428029   0.037319   0.083238
     3  C    1.910822  -0.029403  -0.085692
     4  C   -6.734259  -0.093373   0.088508
     5  C   -3.009246   0.160454  -0.179356
     6  H   -0.012356  -0.000011  -0.000098
     7  H    0.024275  -0.000032   0.000149
     8  H    0.145953  -0.002294   0.010736
     9  H    0.132898  -0.009260   0.003243
    10  N   -0.311416   0.002056   0.014455
    11  O    0.448977  -0.000558  -0.000508
    12  O    0.039408  -0.000098   0.002261
    13  C   14.572219   0.294753   0.150161
    14  H    0.294753   0.392384  -0.059459
    15  Br   0.150161  -0.059459  34.909047
 Mulliken charges:
               1
     1  C   -0.492363
     2  C    0.348041
     3  C   -0.572453
     4  C    0.313867
     5  C   -0.039338
     6  H    0.277238
     7  H    0.408178
     8  H    0.409505
     9  H    0.221078
    10  N   -0.133356
    11  O    0.174450
    12  O    0.172742
    13  C   -0.478311
    14  H    0.360082
    15  Br   0.030639
 Sum of Mulliken charges =   1.00000
 Mulliken charges with hydrogens summed into heavy atoms:
               1
     1  C   -0.215125
     2  C    0.756220
     3  C   -0.572453
     4  C    0.723371
     5  C    0.181740
    10  N   -0.133356
    11  O    0.174450
    12  O    0.172742
    13  C   -0.118229
    15  Br   0.030639
 Electronic spatial extent (au):  <R**2>=           2785.9737
 Charge=              1.0000 electrons
 Dipole moment (field-independent basis, Debye):
    X=              7.7201    Y=              0.3215    Z=              0.6363  Tot=              7.7530
 Quadrupole moment (field-independent basis, Debye-Ang):
   XX=            -50.9661   YY=            -53.2485   ZZ=            -64.9620
   XY=             -0.2605   XZ=             -1.1057   YZ=             -0.2513
 Traceless Quadrupole moment (field-independent basis, Debye-Ang):
   XX=              5.4261   YY=              3.1437   ZZ=             -8.5698
   XY=             -0.2605   XZ=             -1.1057   YZ=             -0.2513
 Octapole moment (field-independent basis, Debye-Ang**2):
  XXX=           -179.0243  YYY=             94.7493  ZZZ=             82.9062  XYY=            -56.6252
  XXY=             34.2105  XXZ=             33.0714  XZZ=            -68.9099  YZZ=             21.1312
  YYZ=             29.8008  XYZ=              0.6418
 Hexadecapole moment (field-independent basis, Debye-Ang**3):
 XXXX=          -1781.8203 YYYY=           -696.7732 ZZZZ=           -366.1749 XXXY=            -70.6934
 XXXZ=            -37.0515 YYYX=            -70.5768 YYYZ=           -168.6729 ZZZX=            -29.9661
 ZZZY=           -148.0350 XXYY=           -421.0193 XXZZ=           -365.5905 YYZZ=           -175.3853
 XXYZ=            -60.4629 YYXZ=            -11.9086 ZZXY=            -17.1526
 N-N= 7.342593088846D+02 E-N=-8.627267054963D+03  KE= 3.005847554557D+03
 No NMR shielding tensors so no spin-rotation constants.
 Leave Link  601 at Wed May  1 14:58:07 2024, MaxMem=  1207959552 cpu:               7.3 elap:               7.2
 (Enter /software/gaussian/g16-c01/sse4/g16/l9999.exe)
 Unable to Open any file for archive entry.
 1\1\GINC-BHX0002\SP\RwB97XD\6-311+G(d)\C6H5Br1N1O2(1+)\BWEIGHT\01-May-
 2024\0\\#P wB97XD/6-311+G* NoSymm #P Field=X-262\\TitleMe\\1,1\C,0,0.0
 295,1.3397,0.0682\C,0,1.4348,1.2867,0.0064\C,0,2.1118,0.0511,-0.0054\C
 ,0,1.4451,-1.1372,0.0312\C,0,-0.6879,0.1682,0.11\H,0,-0.4713,2.2984,0.
 0781\H,0,2.0273,2.1965,-0.0322\H,0,1.9897,-2.0764,0.0232\H,0,-1.7716,0
 .1804,0.1582\N,0,3.5864,0.051,-0.0675\O,0,4.1471,-1.0597,-0.0881\O,0,4
 .145,1.1639,-0.0901\C,0,-0.0236,-1.1458,0.0835\H,0,-0.4367,-1.8725,0.7
 889\Br,0,-0.5359,-1.8697,-1.7408\\Version=ES64L-G16RevC.01\HF=-3010.56
 84199\RMSD=7.429e-09\Dipole=1.1307929,1.2745622,1.3965248\Quadrupole=4
 .0341929,2.3372699,-6.3714627,-0.1936583,-0.8220664,-0.1868616\PG=C01 
 [X(C6H5Br1N1O2)]\\@
 The archive entry for this job was punched.


  DISAPPOINTMENT IS THE NURSE OF WISDOM.               
                              SIR BOYLE ROCHE                 
 Job cpu time:       0 days  0 hours 30 minutes 25.2 seconds.
 Elapsed time:       0 days  0 hours 30 minutes 25.3 seconds.
 File lengths (MBytes):  RWF=     40 Int=      0 D2E=      0 Chk=     32 Scr=      1
 Normal termination of Gaussian 16 at Wed May  1 14:58:08 2024.
