 Entering Gaussian System, Link 0=g16
 Initial command:
 /software/gaussian/g16-c01/sse4/g16/l1.exe "/local_scratch/24657431/Gau-23749.inp" -scrdir="/local_scratch/24657431/"
 Entering Link 1 = /software/gaussian/g16-c01/sse4/g16/l1.exe PID=     23751.
  
 Copyright (c) 1988-2019, Gaussian, Inc.  All Rights Reserved.
  
 This is part of the Gaussian(R) 16 program.  It is based on
 the Gaussian(R) 09 system (copyright 2009, Gaussian, Inc.),
 the Gaussian(R) 03 system (copyright 2003, Gaussian, Inc.),
 the Gaussian(R) 98 system (copyright 1998, Gaussian, Inc.),
 the Gaussian(R) 94 system (copyright 1995, Gaussian, Inc.),
 the Gaussian 92(TM) system (copyright 1992, Gaussian, Inc.),
 the Gaussian 90(TM) system (copyright 1990, Gaussian, Inc.),
 the Gaussian 88(TM) system (copyright 1988, Gaussian, Inc.),
 the Gaussian 86(TM) system (copyright 1986, Carnegie Mellon
 University), and the Gaussian 82(TM) system (copyright 1983,
 Carnegie Mellon University). Gaussian is a federally registered
 trademark of Gaussian, Inc.
  
 This software contains proprietary and confidential information,
 including trade secrets, belonging to Gaussian, Inc.
  
 This software is provided under written license and may be
 used, copied, transmitted, or stored only in accord with that
 written license.
  
 The following legend is applicable only to US Government
 contracts under FAR:
  
                    RESTRICTED RIGHTS LEGEND
  
 Use, reproduction and disclosure by the US Government is
 subject to restrictions as set forth in subparagraphs (a)
 and (c) of the Commercial Computer Software - Restricted
 Rights clause in FAR 52.227-19.
  
 Gaussian, Inc.
 340 Quinnipiac St., Bldg. 40, Wallingford CT 06492
  
  
 ---------------------------------------------------------------
 Warning -- This program may not be used in any manner that
 competes with the business of Gaussian, Inc. or will provide
 assistance to any competitor of Gaussian, Inc.  The licensee
 of this program is prohibited from giving any competitor of
 Gaussian, Inc. access to this program.  By using this program,
 the user acknowledges that Gaussian, Inc. is engaged in the
 business of creating and licensing software in the field of
 computational chemistry and represents and warrants to the
 licensee that it is not a competitor of Gaussian, Inc. and that
 it will not use this program in any manner prohibited above.
 ---------------------------------------------------------------
  

 Cite this work as:
 Gaussian 16, Revision C.01,
 M. J. Frisch, G. W. Trucks, H. B. Schlegel, G. E. Scuseria, 
 M. A. Robb, J. R. Cheeseman, G. Scalmani, V. Barone, 
 G. A. Petersson, H. Nakatsuji, X. Li, M. Caricato, A. V. Marenich, 
 J. Bloino, B. G. Janesko, R. Gomperts, B. Mennucci, H. P. Hratchian, 
 J. V. Ortiz, A. F. Izmaylov, J. L. Sonnenberg, D. Williams-Young, 
 F. Ding, F. Lipparini, F. Egidi, J. Goings, B. Peng, A. Petrone, 
 T. Henderson, D. Ranasinghe, V. G. Zakrzewski, J. Gao, N. Rega, 
 G. Zheng, W. Liang, M. Hada, M. Ehara, K. Toyota, R. Fukuda, 
 J. Hasegawa, M. Ishida, T. Nakajima, Y. Honda, O. Kitao, H. Nakai, 
 T. Vreven, K. Throssell, J. A. Montgomery, Jr., J. E. Peralta, 
 F. Ogliaro, M. J. Bearpark, J. J. Heyd, E. N. Brothers, K. N. Kudin, 
 V. N. Staroverov, T. A. Keith, R. Kobayashi, J. Normand, 
 K. Raghavachari, A. P. Rendell, J. C. Burant, S. S. Iyengar, 
 J. Tomasi, M. Cossi, J. M. Millam, M. Klene, C. Adamo, R. Cammi, 
 J. W. Ochterski, R. L. Martin, K. Morokuma, O. Farkas, 
 J. B. Foresman, and D. J. Fox, Gaussian, Inc., Wallingford CT, 2019.
 
 ******************************************
 Gaussian 16:  ES64L-G16RevC.01  3-Jul-2019
                 1-May-2024 
 ******************************************
 %chk=geometry.chk
 %mem=9GB
 %nprocshared=12
 Will use up to   12 processors via shared memory.
 ---------------------------------------
 #P wB97XD/6-311+G* NoSymm #P Field=X-97
 ---------------------------------------
 1/38=1,172=1/1;
 2/12=2,15=1,17=6,18=5,40=1/2;
 3/5=4,6=6,7=11,11=2,14=1,15=-97,25=1,30=1,74=-58/1,2,3;
 4//1;
 5/5=2,38=5/2;
 6/7=2,8=2,9=2,10=2,28=1/1;
 99/5=1,9=1/99;
 Leave Link    1 at Wed May  1 14:27:44 2024, MaxMem=  1207959552 cpu:               1.6 elap:               1.7
 (Enter /software/gaussian/g16-c01/sse4/g16/l101.exe)
 -------
 TitleMe
 -------
 Symbolic Z-matrix:
 Charge =  1 Multiplicity = 1
 C                     0.0295    1.3397    0.0682 
 C                     1.4348    1.2867    0.0064 
 C                     2.1118    0.0511   -0.0054 
 C                     1.4451   -1.1372    0.0312 
 C                    -0.6879    0.1682    0.11 
 H                    -0.4713    2.2984    0.0781 
 H                     2.0273    2.1965   -0.0322 
 H                     1.9897   -2.0764    0.0232 
 H                    -1.7716    0.1804    0.1582 
 N                     3.5864    0.051    -0.0675 
 O                     4.1471   -1.0597   -0.0881 
 O                     4.145     1.1639   -0.0901 
 C                    -0.0236   -1.1458    0.0835 
 H                    -0.4367   -1.8725    0.7889 
 Br                   -0.5359   -1.8697   -1.7408 
 
 ITRead=  0  0  0  0  0  0  0  0  0  0  0  0  0  0  0
 MicOpt= -1 -1 -1 -1 -1 -1 -1 -1 -1 -1 -1 -1 -1 -1 -1
 NAtoms=     15 NQM=       15 NQMF=       0 NMMI=      0 NMMIF=      0
                NMic=       0 NMicF=      0.
                    Isotopes and Nuclear Properties:
 (Nuclear quadrupole moments (NQMom) in fm**2, nuclear magnetic moments (NMagM)
  in nuclear magnetons)

  Atom         1           2           3           4           5           6           7           8           9          10
 IAtWgt=          12          12          12          12          12           1           1           1           1          14
 AtmWgt=  12.0000000  12.0000000  12.0000000  12.0000000  12.0000000   1.0078250   1.0078250   1.0078250   1.0078250  14.0030740
 NucSpn=           0           0           0           0           0           1           1           1           1           2
 AtZEff=  -0.0000000  -0.0000000  -0.0000000  -0.0000000  -0.0000000  -0.0000000  -0.0000000  -0.0000000  -0.0000000  -0.0000000
 NQMom=    0.0000000   0.0000000   0.0000000   0.0000000   0.0000000   0.0000000   0.0000000   0.0000000   0.0000000   2.0440000
 NMagM=    0.0000000   0.0000000   0.0000000   0.0000000   0.0000000   2.7928460   2.7928460   2.7928460   2.7928460   0.4037610
 AtZNuc=   6.0000000   6.0000000   6.0000000   6.0000000   6.0000000   1.0000000   1.0000000   1.0000000   1.0000000   7.0000000

  Atom        11          12          13          14          15
 IAtWgt=          16          16          12           1          79
 AtmWgt=  15.9949146  15.9949146  12.0000000   1.0078250  78.9183361
 NucSpn=           0           0           0           1           3
 AtZEff=  -0.0000000  -0.0000000  -0.0000000  -0.0000000  -0.0000000
 NQMom=    0.0000000   0.0000000   0.0000000   0.0000000  31.3000000
 NMagM=    0.0000000   0.0000000   0.0000000   2.7928460   2.1063990
 AtZNuc=   8.0000000   8.0000000   6.0000000   1.0000000  35.0000000
 Leave Link  101 at Wed May  1 14:27:45 2024, MaxMem=  1207959552 cpu:               1.3 elap:               1.3
 (Enter /software/gaussian/g16-c01/sse4/g16/l202.exe)
                          Input orientation:                          
 ---------------------------------------------------------------------
 Center     Atomic      Atomic             Coordinates (Angstroms)
 Number     Number       Type             X           Y           Z
 ---------------------------------------------------------------------
      1          6           0        0.029500    1.339700    0.068200
      2          6           0        1.434800    1.286700    0.006400
      3          6           0        2.111800    0.051100   -0.005400
      4          6           0        1.445100   -1.137200    0.031200
      5          6           0       -0.687900    0.168200    0.110000
      6          1           0       -0.471300    2.298400    0.078100
      7          1           0        2.027300    2.196500   -0.032200
      8          1           0        1.989700   -2.076400    0.023200
      9          1           0       -1.771600    0.180400    0.158200
     10          7           0        3.586400    0.051000   -0.067500
     11          8           0        4.147100   -1.059700   -0.088100
     12          8           0        4.145000    1.163900   -0.090100
     13          6           0       -0.023600   -1.145800    0.083500
     14          1           0       -0.436700   -1.872500    0.788900
     15         35           0       -0.535900   -1.869700   -1.740800
 ---------------------------------------------------------------------
                    Distance matrix (angstroms):
                    1          2          3          4          5
     1  C    0.000000
     2  C    1.407656   0.000000
     3  C    2.449874   1.408963   0.000000
     4  C    2.853126   2.424049   1.363043   0.000000
     5  C    1.374344   2.401589   2.804523   2.501993   0.000000
     6  H    1.081667   2.159142   3.424870   3.934226   2.141421
     7  H    2.176095   1.086408   2.147231   3.384750   3.392128
     8  H    3.938800   3.408612   2.131193   1.085702   3.495040
     9  H    2.143837   3.395283   3.888995   3.478413   1.084840
    10  N    3.785591   2.482297   1.475907   2.450862   4.279589
    11  O    4.768247   3.587631   2.320164   2.705743   4.992415
    12  O    4.122294   2.714696   2.319353   3.549540   4.938459
    13  C    2.486114   2.837240   2.449573   1.469656   1.472614
    14  H    3.324903   3.754379   3.290289   2.157764   2.165286
    15  Br   3.727252   4.110867   3.702891   2.756973   2.757100
                    6          7          8          9         10
     6  H    0.000000
     7  H    2.503108   0.000000
     8  H    5.019802   4.273425   0.000000
     9  H    2.486588   4.304945   4.388479   0.000000
    10  N    4.640790   2.652397   2.661486   5.364313   0.000000
    11  O    5.712624   3.885809   2.387560   6.052233   1.244373
    12  O    4.756638   2.356750   3.893289   6.002923   1.245428
    13  C    3.473180   3.923079   2.218790   2.195425   3.806210
    14  H    4.231175   4.827242   2.552506   2.528663   4.540772
    15  Br   4.548146   5.101303   3.087568   3.055498   4.845862
                   11         12         13         14         15
    11  O    0.000000
    12  O    2.223602   0.000000
    13  C    4.175117   4.768865   0.000000
    14  H    4.737193   5.566358   1.093770   0.000000
    15  Br   5.031700   5.817075   2.028436   2.531646   0.000000
 Symmetry turned off by external request.
 Stoichiometry    C6H5BrNO2(1+)
 Framework group  C1[X(C6H5BrNO2)]
 Deg. of freedom    39
 Full point group                 C1      NOp   1
 Rotational constants (GHZ):           1.8252210           0.5518633           0.4576002
 Leave Link  202 at Wed May  1 14:27:47 2024, MaxMem=  1207959552 cpu:               1.1 elap:               1.1
 (Enter /software/gaussian/g16-c01/sse4/g16/l301.exe)
 Standard basis: 6-311+G(d) (5D, 7F)
 Ernie: Thresh=  0.10000D-02 Tol=  0.10000D-05 Strict=F.
 The following finite field(s) will be applied:
 An electric field of             -0.0097  0.0000  0.0000
   261 basis functions,   443 primitive gaussians,   273 cartesian basis functions
    49 alpha electrons       49 beta electrons
       nuclear repulsion energy       739.2122215416 Hartrees.
 IExCor= 4639 DFT=T Ex+Corr=wB97XD ExCW=0 ScaHFX=  1.000000
 ScaDFX=  1.000000  1.000000  1.000000  1.000000 ScalE2=  1.000000  1.000000
 IRadAn=      5 IRanWt=     -1 IRanGd=            0 ICorTp=0 IEmpDi=121
 HFx  wShort=  0.000000 wLong=  0.200000 cFull=  0.222036 cShort=  0.000000 cLong=  0.777964
 DFx  wShort=  0.000000 wLong=  0.200000 cFull=  0.000000 cShort=  0.000000 cLong=  1.000000
 NAtoms=   15 NActive=   15 NUniq=   15 SFac= 1.00D+00 NAtFMM=   60 NAOKFM=F Big=F
 Integral buffers will be    131072 words long.
 Raffenetti 2 integral format.
 Two-electron integral symmetry is turned off.
 R6Disp:  Grimme-D2 Dispersion energy=       -0.0077368520 Hartrees.
 Nuclear repulsion after empirical dispersion term =      739.2044846896 Hartrees.
 Leave Link  301 at Wed May  1 14:27:48 2024, MaxMem=  1207959552 cpu:               0.9 elap:               0.9
 (Enter /software/gaussian/g16-c01/sse4/g16/l302.exe)
 NPDir=0 NMtPBC=     1 NCelOv=     1 NCel=       1 NClECP=     1 NCelD=      1
         NCelK=      1 NCelE2=     1 NClLst=     1 CellRange=     0.0.
 One-electron integrals computed using PRISM.
 NBasis=   261 RedAO= T EigKep=  2.35D-06  NBF=   261
 NBsUse=   261 1.00D-06 EigRej= -1.00D+00 NBFU=   261
 Precomputing XC quadrature grid using
 IXCGrd= 4 IRadAn=           5 IRanWt=          -1 IRanGd=           0 AccXCQ= 0.00D+00.
 Generated NRdTot=       0 NPtTot=           0 NUsed=           0 NTot=          32
 NSgBfM=   273   273   273   273   273 MxSgAt=    15 MxSgA2=    15.
 Leave Link  302 at Wed May  1 14:28:10 2024, MaxMem=  1207959552 cpu:              21.5 elap:              21.6
 (Enter /software/gaussian/g16-c01/sse4/g16/l303.exe)
 DipDrv:  MaxL=1.
 The nuclear repulsion energy is now       737.3736371587 hartrees.
 Leave Link  303 at Wed May  1 14:28:13 2024, MaxMem=  1207959552 cpu:               3.1 elap:               3.1
 (Enter /software/gaussian/g16-c01/sse4/g16/l401.exe)
 ExpMin= 3.50D-02 ExpMax= 4.40D+05 ExpMxC= 1.51D+04 IAcc=3 IRadAn=         5 AccDes= 0.00D+00
 Harris functional with IExCor= 4639 and IRadAn=       5 diagonalized for initial guess.
 HarFok:  IExCor= 4639 AccDes= 0.00D+00 IRadAn=         5 IDoV= 1 UseB2=F ITyADJ=14
 ICtDFT=  3500011 ScaDFX=  1.000000  1.000000  1.000000  1.000000
 FoFCou: FMM=F IPFlag=           0 FMFlag=      100000 FMFlg1=           0
         NFxFlg=           0 DoJE=T BraDBF=F KetDBF=T FulRan=T
         wScrn=  0.000000 ICntrl=       500 IOpCl=  0 I1Cent=   200000004 NGrid=           0
         NMat0=    1 NMatS0=      1 NMatT0=    0 NMatD0=    1 NMtDS0=    0 NMtDT0=    0
 Symmetry not used in FoFCou.
 Harris En= -2970.67818418350    
 JPrj=0 DoOrth=F DoCkMO=F.
 Leave Link  401 at Wed May  1 14:28:43 2024, MaxMem=  1207959552 cpu:              29.9 elap:              29.9
 (Enter /software/gaussian/g16-c01/sse4/g16/l502.exe)
 Two-electron integral symmetry not used.
 Closed shell SCF:
 Using DIIS extrapolation, IDIIS=  1040.
 NGot=  1207959552 LenX=  1207804877 LenY=  1207729907
 Requested convergence on RMS density matrix=1.00D-08 within 128 cycles.
 Requested convergence on MAX density matrix=1.00D-06.
 Requested convergence on             energy=1.00D-06.
 No special actions if energy rises.
 Fock matrices will be formed incrementally for  20 cycles.

 Cycle   1  Pass 1  IDiag  1:
 FoFJK:  IHMeth= 1 ICntrl=       0 DoSepK=T KAlg= 0 I1Cent=           0 FoldK=F
 IRaf=         1 NMat=       1 IRICut=       1 DoRegI=T DoRafI=F ISym2E= 0 IDoP0=0 IntGTp=1.
 FoFCou: FMM=F IPFlag=           0 FMFlag=      100000 FMFlg1=           0
         NFxFlg=           0 DoJE=T BraDBF=F KetDBF=F FulRan=T
         wScrn=  0.000000 ICntrl=       500 IOpCl=  0 I1Cent=           0 NGrid=           0
         NMat0=    1 NMatS0=      1 NMatT0=    0 NMatD0=    1 NMtDS0=    0 NMtDT0=    0
 Symmetry not used in FoFCou.
 E= -3008.65506287840    
 DIIS: error= 3.21D-01 at cycle   1 NSaved=   1.
 NSaved= 1 IEnMin= 1 EnMin= -3008.65506287840     IErMin= 1 ErrMin= 3.21D-01
 ErrMax= 3.21D-01  0.00D+00 EMaxC= 1.00D-01 BMatC= 1.23D+01 BMatP= 1.23D+01
 IDIUse=3 WtCom= 0.00D+00 WtEn= 1.00D+00
 Coeff-Com:  0.100D+01
 Coeff-En:   0.100D+01
 Coeff:      0.100D+01
 Gap=     0.133 Goal=   None    Shift=    0.000
 GapD=    0.133 DampG=1.000 DampE=0.250 DampFc=0.2500 IDamp=-1.
 Damping current iteration by 2.50D-01
 RMSDP=6.54D-02 MaxDP=4.03D+00              OVMax= 9.58D-01

 Cycle   2  Pass 1  IDiag  1:
 RMSU=  1.61D-02    CP:  9.69D-01
 E= -3008.62095449940     Delta-E=        0.034108378992 Rises=F Damp=T
 DIIS: error= 2.26D-01 at cycle   2 NSaved=   2.
 NSaved= 2 IEnMin= 1 EnMin= -3008.65506287840     IErMin= 2 ErrMin= 2.26D-01
 ErrMax= 2.26D-01  0.00D+00 EMaxC= 1.00D-01 BMatC= 5.54D+00 BMatP= 1.23D+01
 IDIUse=3 WtCom= 0.00D+00 WtEn= 1.00D+00
 Coeff-Com: -0.103D+01 0.203D+01
 Coeff-En:   0.512D+00 0.488D+00
 Coeff:      0.512D+00 0.488D+00
 Gap=     0.047 Goal=   None    Shift=    0.000
 RMSDP=4.26D-02 MaxDP=3.43D+00 DE= 3.41D-02 OVMax= 9.83D-01

 Cycle   3  Pass 1  IDiag  1:
 RMSU=  1.75D-02    CP:  5.75D-01  1.45D+00
 E= -3009.07514803237     Delta-E=       -0.454193532964 Rises=F Damp=F
 DIIS: error= 1.38D-01 at cycle   3 NSaved=   3.
 NSaved= 3 IEnMin= 3 EnMin= -3009.07514803237     IErMin= 3 ErrMin= 1.38D-01
 ErrMax= 1.38D-01  0.00D+00 EMaxC= 1.00D-01 BMatC= 2.50D+00 BMatP= 5.54D+00
 IDIUse=3 WtCom= 0.00D+00 WtEn= 1.00D+00
 EnCoef did   100 forward-backward iterations
 Coeff-Com:  0.456D+00-0.262D+00 0.806D+00
 Coeff-En:   0.444D+00 0.393D-02 0.552D+00
 Coeff:      0.444D+00 0.393D-02 0.552D+00
 Gap=     0.125 Goal=   None    Shift=    0.000
 RMSDP=2.12D-02 MaxDP=9.56D-01 DE=-4.54D-01 OVMax= 5.43D-01

 Cycle   4  Pass 1  IDiag  1:
 RMSU=  1.56D-02    CP:  5.84D-01  5.50D-01  1.00D+00
 E= -3010.47447821809     Delta-E=       -1.399330185727 Rises=F Damp=F
 DIIS: error= 1.57D-02 at cycle   4 NSaved=   4.
 NSaved= 4 IEnMin= 4 EnMin= -3010.47447821809     IErMin= 4 ErrMin= 1.57D-02
 ErrMax= 1.57D-02  0.00D+00 EMaxC= 1.00D-01 BMatC= 6.11D-02 BMatP= 2.50D+00
 IDIUse=3 WtCom= 8.43D-01 WtEn= 1.57D-01
 Coeff-Com:  0.815D-01-0.567D-01 0.813D-01 0.894D+00
 Coeff-En:   0.000D+00 0.000D+00 0.000D+00 0.100D+01
 Coeff:      0.687D-01-0.478D-01 0.685D-01 0.911D+00
 Gap=     0.219 Goal=   None    Shift=    0.000
 RMSDP=1.13D-02 MaxDP=6.98D-01 DE=-1.40D+00 OVMax= 9.00D-02

 Cycle   5  Pass 1  IDiag  1:
 RMSU=  6.03D-03    CP:  5.07D-01  6.47D-01  9.63D-01  6.36D-01
 E= -3010.50200123440     Delta-E=       -0.027523016308 Rises=F Damp=F
 DIIS: error= 1.77D-02 at cycle   5 NSaved=   5.
 NSaved= 5 IEnMin= 5 EnMin= -3010.50200123440     IErMin= 4 ErrMin= 1.57D-02
 ErrMax= 1.77D-02  0.00D+00 EMaxC= 1.00D-01 BMatC= 4.02D-02 BMatP= 6.11D-02
 IDIUse=3 WtCom= 8.23D-01 WtEn= 1.77D-01
 Coeff-Com: -0.365D-03 0.701D-02-0.208D-01 0.450D+00 0.564D+00
 Coeff-En:   0.000D+00 0.000D+00 0.000D+00 0.327D+00 0.673D+00
 Coeff:     -0.301D-03 0.578D-02-0.171D-01 0.428D+00 0.584D+00
 Gap=     0.197 Goal=   None    Shift=    0.000
 RMSDP=4.30D-03 MaxDP=2.21D-01 DE=-2.75D-02 OVMax= 4.84D-02

 Cycle   6  Pass 1  IDiag  1:
 RMSU=  1.72D-03    CP:  5.21D-01  5.37D-01  9.41D-01  8.28D-01  8.00D-01
 E= -3010.53563543792     Delta-E=       -0.033634203518 Rises=F Damp=F
 DIIS: error= 4.24D-03 at cycle   6 NSaved=   6.
 NSaved= 6 IEnMin= 6 EnMin= -3010.53563543792     IErMin= 6 ErrMin= 4.24D-03
 ErrMax= 4.24D-03  0.00D+00 EMaxC= 1.00D-01 BMatC= 2.43D-03 BMatP= 4.02D-02
 IDIUse=3 WtCom= 9.58D-01 WtEn= 4.24D-02
 Coeff-Com: -0.385D-02 0.746D-02-0.112D-01 0.162D+00 0.287D+00 0.558D+00
 Coeff-En:   0.000D+00 0.000D+00 0.000D+00 0.000D+00 0.000D+00 0.100D+01
 Coeff:     -0.369D-02 0.715D-02-0.107D-01 0.155D+00 0.275D+00 0.577D+00
 Gap=     0.213 Goal=   None    Shift=    0.000
 RMSDP=9.56D-04 MaxDP=4.03D-02 DE=-3.36D-02 OVMax= 8.93D-03

 Cycle   7  Pass 1  IDiag  1:
 RMSU=  5.88D-04    CP:  5.17D-01  5.40D-01  9.29D-01  7.94D-01  8.51D-01
                    CP:  1.06D+00
 E= -3010.53736464266     Delta-E=       -0.001729204744 Rises=F Damp=F
 DIIS: error= 1.55D-03 at cycle   7 NSaved=   7.
 NSaved= 7 IEnMin= 7 EnMin= -3010.53736464266     IErMin= 7 ErrMin= 1.55D-03
 ErrMax= 1.55D-03  0.00D+00 EMaxC= 1.00D-01 BMatC= 2.07D-04 BMatP= 2.43D-03
 IDIUse=3 WtCom= 9.84D-01 WtEn= 1.55D-02
 Coeff-Com: -0.713D-02 0.924D-02-0.333D-02-0.125D-01 0.681D-02 0.202D+00
 Coeff-Com:  0.805D+00
 Coeff-En:   0.000D+00 0.000D+00 0.000D+00 0.000D+00 0.000D+00 0.000D+00
 Coeff-En:   0.100D+01
 Coeff:     -0.702D-02 0.909D-02-0.328D-02-0.123D-01 0.670D-02 0.199D+00
 Coeff:      0.808D+00
 Gap=     0.217 Goal=   None    Shift=    0.000
 RMSDP=3.93D-04 MaxDP=2.89D-02 DE=-1.73D-03 OVMax= 1.00D-02

 Cycle   8  Pass 1  IDiag  1:
 RMSU=  2.57D-04    CP:  5.18D-01  5.54D-01  9.29D-01  7.88D-01  8.69D-01
                    CP:  1.07D+00  1.04D+00
 E= -3010.53760944231     Delta-E=       -0.000244799643 Rises=F Damp=F
 DIIS: error= 8.78D-04 at cycle   8 NSaved=   8.
 NSaved= 8 IEnMin= 8 EnMin= -3010.53760944231     IErMin= 8 ErrMin= 8.78D-04
 ErrMax= 8.78D-04  0.00D+00 EMaxC= 1.00D-01 BMatC= 7.88D-05 BMatP= 2.07D-04
 IDIUse=3 WtCom= 9.91D-01 WtEn= 8.78D-03
 Coeff-Com: -0.582D-02 0.760D-02-0.158D-02-0.166D-01-0.166D-01 0.564D-01
 Coeff-Com:  0.439D+00 0.538D+00
 Coeff-En:   0.000D+00 0.000D+00 0.000D+00 0.000D+00 0.000D+00 0.000D+00
 Coeff-En:   0.000D+00 0.100D+01
 Coeff:     -0.577D-02 0.753D-02-0.157D-02-0.164D-01-0.164D-01 0.559D-01
 Coeff:      0.435D+00 0.542D+00
 Gap=     0.219 Goal=   None    Shift=    0.000
 RMSDP=1.37D-04 MaxDP=9.91D-03 DE=-2.45D-04 OVMax= 4.17D-03

 Cycle   9  Pass 1  IDiag  1:
 RMSU=  9.80D-05    CP:  5.19D-01  5.58D-01  9.29D-01  7.84D-01  8.68D-01
                    CP:  1.07D+00  1.09D+00  9.61D-01
 E= -3010.53766913372     Delta-E=       -0.000059691414 Rises=F Damp=F
 DIIS: error= 4.34D-04 at cycle   9 NSaved=   9.
 NSaved= 9 IEnMin= 9 EnMin= -3010.53766913372     IErMin= 9 ErrMin= 4.34D-04
 ErrMax= 4.34D-04  0.00D+00 EMaxC= 1.00D-01 BMatC= 2.85D-05 BMatP= 7.88D-05
 IDIUse=3 WtCom= 9.96D-01 WtEn= 4.34D-03
 Coeff-Com: -0.355D-02 0.488D-02-0.494D-03-0.349D-02-0.101D-01-0.334D-01
 Coeff-Com:  0.148D-01 0.354D+00 0.678D+00
 Coeff-En:   0.000D+00 0.000D+00 0.000D+00 0.000D+00 0.000D+00 0.000D+00
 Coeff-En:   0.000D+00 0.000D+00 0.100D+01
 Coeff:     -0.353D-02 0.486D-02-0.492D-03-0.347D-02-0.100D-01-0.333D-01
 Coeff:      0.147D-01 0.352D+00 0.679D+00
 Gap=     0.220 Goal=   None    Shift=    0.000
 RMSDP=1.24D-04 MaxDP=6.45D-03 DE=-5.97D-05 OVMax= 1.87D-03

 Cycle  10  Pass 1  IDiag  1:
 RMSU=  4.95D-05    CP:  5.19D-01  5.61D-01  9.30D-01  7.80D-01  8.68D-01
                    CP:  1.08D+00  1.14D+00  1.19D+00  9.98D-01
 E= -3010.53769687035     Delta-E=       -0.000027736630 Rises=F Damp=F
 DIIS: error= 1.16D-04 at cycle  10 NSaved=  10.
 NSaved=10 IEnMin=10 EnMin= -3010.53769687035     IErMin=10 ErrMin= 1.16D-04
 ErrMax= 1.16D-04  0.00D+00 EMaxC= 1.00D-01 BMatC= 6.28D-06 BMatP= 2.85D-05
 IDIUse=3 WtCom= 9.99D-01 WtEn= 1.16D-03
 Coeff-Com: -0.152D-02 0.225D-02-0.269D-03 0.649D-02 0.446D-02-0.264D-01
 Coeff-Com: -0.105D+00-0.377D-01 0.233D+00 0.925D+00
 Coeff-En:   0.000D+00 0.000D+00 0.000D+00 0.000D+00 0.000D+00 0.000D+00
 Coeff-En:   0.000D+00 0.000D+00 0.000D+00 0.100D+01
 Coeff:     -0.152D-02 0.224D-02-0.269D-03 0.648D-02 0.446D-02-0.264D-01
 Coeff:     -0.105D+00-0.377D-01 0.233D+00 0.925D+00
 Gap=     0.220 Goal=   None    Shift=    0.000
 RMSDP=8.33D-05 MaxDP=4.55D-03 DE=-2.77D-05 OVMax= 1.47D-03

 Cycle  11  Pass 1  IDiag  1:
 RMSU=  2.22D-05    CP:  5.19D-01  5.64D-01  9.30D-01  7.77D-01  8.68D-01
                    CP:  1.07D+00  1.16D+00  1.27D+00  1.25D+00  1.42D+00
 E= -3010.53770493017     Delta-E=       -0.000008059816 Rises=F Damp=F
 DIIS: error= 6.13D-05 at cycle  11 NSaved=  11.
 NSaved=11 IEnMin=11 EnMin= -3010.53770493017     IErMin=11 ErrMin= 6.13D-05
 ErrMax= 6.13D-05  0.00D+00 EMaxC= 1.00D-01 BMatC= 1.08D-06 BMatP= 6.28D-06
 IDIUse=1 WtCom= 1.00D+00 WtEn= 0.00D+00
 Coeff-Com: -0.407D-03 0.631D-03-0.824D-04 0.308D-02 0.361D-02 0.409D-03
 Coeff-Com: -0.223D-01-0.808D-01-0.902D-01 0.235D+00 0.951D+00
 Coeff:     -0.407D-03 0.631D-03-0.824D-04 0.308D-02 0.361D-02 0.409D-03
 Coeff:     -0.223D-01-0.808D-01-0.902D-01 0.235D+00 0.951D+00
 Gap=     0.221 Goal=   None    Shift=    0.000
 RMSDP=3.39D-05 MaxDP=1.60D-03 DE=-8.06D-06 OVMax= 8.43D-04

 Cycle  12  Pass 1  IDiag  1:
 RMSU=  1.21D-05    CP:  5.19D-01  5.65D-01  9.31D-01  7.76D-01  8.68D-01
                    CP:  1.06D+00  1.17D+00  1.31D+00  1.31D+00  1.72D+00
                    CP:  1.15D+00
 E= -3010.53770673639     Delta-E=       -0.000001806224 Rises=F Damp=F
 DIIS: error= 2.81D-05 at cycle  12 NSaved=  12.
 NSaved=12 IEnMin=12 EnMin= -3010.53770673639     IErMin=12 ErrMin= 2.81D-05
 ErrMax= 2.81D-05  0.00D+00 EMaxC= 1.00D-01 BMatC= 1.24D-07 BMatP= 1.08D-06
 IDIUse=1 WtCom= 1.00D+00 WtEn= 0.00D+00
 Coeff-Com: -0.801D-04 0.109D-03 0.293D-04-0.764D-04 0.184D-03 0.494D-02
 Coeff-Com:  0.136D-01-0.673D-02-0.515D-01-0.101D+00 0.244D+00 0.896D+00
 Coeff:     -0.801D-04 0.109D-03 0.293D-04-0.764D-04 0.184D-03 0.494D-02
 Coeff:      0.136D-01-0.673D-02-0.515D-01-0.101D+00 0.244D+00 0.896D+00
 Gap=     0.221 Goal=   None    Shift=    0.000
 RMSDP=8.76D-06 MaxDP=5.07D-04 DE=-1.81D-06 OVMax= 3.46D-04

 Cycle  13  Pass 1  IDiag  1:
 RMSU=  5.22D-06    CP:  5.19D-01  5.65D-01  9.31D-01  7.75D-01  8.68D-01
                    CP:  1.06D+00  1.17D+00  1.31D+00  1.32D+00  1.78D+00
                    CP:  1.31D+00  1.14D+00
 E= -3010.53770700168     Delta-E=       -0.000000265285 Rises=F Damp=F
 DIIS: error= 8.33D-06 at cycle  13 NSaved=  13.
 NSaved=13 IEnMin=13 EnMin= -3010.53770700168     IErMin=13 ErrMin= 8.33D-06
 ErrMax= 8.33D-06  0.00D+00 EMaxC= 1.00D-01 BMatC= 1.74D-08 BMatP= 1.24D-07
 IDIUse=1 WtCom= 1.00D+00 WtEn= 0.00D+00
 Coeff-Com: -0.745D-05-0.634D-06-0.129D-05-0.373D-03-0.272D-03 0.229D-02
 Coeff-Com:  0.807D-02 0.889D-02-0.762D-02-0.744D-01-0.397D-01 0.340D+00
 Coeff-Com:  0.764D+00
 Coeff:     -0.745D-05-0.634D-06-0.129D-05-0.373D-03-0.272D-03 0.229D-02
 Coeff:      0.807D-02 0.889D-02-0.762D-02-0.744D-01-0.397D-01 0.340D+00
 Coeff:      0.764D+00
 Gap=     0.221 Goal=   None    Shift=    0.000
 RMSDP=3.77D-06 MaxDP=2.13D-04 DE=-2.65D-07 OVMax= 1.70D-04

 Cycle  14  Pass 1  IDiag  1:
 RMSU=  1.68D-06    CP:  5.19D-01  5.65D-01  9.31D-01  7.75D-01  8.68D-01
                    CP:  1.06D+00  1.17D+00  1.31D+00  1.32D+00  1.81D+00
                    CP:  1.33D+00  1.34D+00  1.22D+00
 E= -3010.53770705106     Delta-E=       -0.000000049381 Rises=F Damp=F
 DIIS: error= 4.37D-06 at cycle  14 NSaved=  14.
 NSaved=14 IEnMin=14 EnMin= -3010.53770705106     IErMin=14 ErrMin= 4.37D-06
 ErrMax= 4.37D-06  0.00D+00 EMaxC= 1.00D-01 BMatC= 2.34D-09 BMatP= 1.74D-08
 IDIUse=1 WtCom= 1.00D+00 WtEn= 0.00D+00
 Coeff-Com:  0.145D-04-0.237D-04-0.170D-04-0.123D-03-0.122D-03-0.128D-03
 Coeff-Com: -0.295D-03 0.341D-02 0.676D-02-0.580D-02-0.517D-01-0.645D-01
 Coeff-Com:  0.194D+00 0.918D+00
 Coeff:      0.145D-04-0.237D-04-0.170D-04-0.123D-03-0.122D-03-0.128D-03
 Coeff:     -0.295D-03 0.341D-02 0.676D-02-0.580D-02-0.517D-01-0.645D-01
 Coeff:      0.194D+00 0.918D+00
 Gap=     0.221 Goal=   None    Shift=    0.000
 RMSDP=2.78D-06 MaxDP=2.01D-04 DE=-4.94D-08 OVMax= 1.21D-04

 Cycle  15  Pass 1  IDiag  1:
 RMSU=  1.21D-06    CP:  5.19D-01  5.65D-01  9.31D-01  7.75D-01  8.68D-01
                    CP:  1.06D+00  1.17D+00  1.31D+00  1.33D+00  1.82D+00
                    CP:  1.34D+00  1.40D+00  1.58D+00  1.11D+00
 E= -3010.53770706453     Delta-E=       -0.000000013476 Rises=F Damp=F
 DIIS: error= 1.94D-06 at cycle  15 NSaved=  15.
 NSaved=15 IEnMin=15 EnMin= -3010.53770706453     IErMin=15 ErrMin= 1.94D-06
 ErrMax= 1.94D-06  0.00D+00 EMaxC= 1.00D-01 BMatC= 9.21D-10 BMatP= 2.34D-09
 IDIUse=1 WtCom= 1.00D+00 WtEn= 0.00D+00
 Coeff-Com:  0.107D-04-0.139D-04-0.220D-05 0.355D-04-0.172D-04-0.580D-03
 Coeff-Com: -0.172D-02 0.243D-03 0.521D-02 0.131D-01-0.550D-02-0.790D-01
 Coeff-Com: -0.782D-01 0.269D+00 0.878D+00
 Coeff:      0.107D-04-0.139D-04-0.220D-05 0.355D-04-0.172D-04-0.580D-03
 Coeff:     -0.172D-02 0.243D-03 0.521D-02 0.131D-01-0.550D-02-0.790D-01
 Coeff:     -0.782D-01 0.269D+00 0.878D+00
 Gap=     0.221 Goal=   None    Shift=    0.000
 RMSDP=1.23D-06 MaxDP=6.83D-05 DE=-1.35D-08 OVMax= 5.22D-05

 Cycle  16  Pass 1  IDiag  1:
 RMSU=  4.99D-07    CP:  5.19D-01  5.65D-01  9.31D-01  7.76D-01  8.68D-01
                    CP:  1.06D+00  1.17D+00  1.31D+00  1.33D+00  1.82D+00
                    CP:  1.34D+00  1.41D+00  1.70D+00  1.29D+00  1.33D+00
 E= -3010.53770706793     Delta-E=       -0.000000003402 Rises=F Damp=F
 DIIS: error= 1.03D-06 at cycle  16 NSaved=  16.
 NSaved=16 IEnMin=16 EnMin= -3010.53770706793     IErMin=16 ErrMin= 1.03D-06
 ErrMax= 1.03D-06  0.00D+00 EMaxC= 1.00D-01 BMatC= 1.87D-10 BMatP= 9.21D-10
 IDIUse=1 WtCom= 1.00D+00 WtEn= 0.00D+00
 Coeff-Com:  0.637D-05-0.780D-05 0.723D-05 0.359D-04 0.675D-05-0.173D-03
 Coeff-Com: -0.524D-03-0.863D-03-0.357D-03 0.494D-02 0.142D-01-0.198D-02
 Coeff-Com: -0.683D-01-0.192D+00 0.227D+00 0.102D+01
 Coeff:      0.637D-05-0.780D-05 0.723D-05 0.359D-04 0.675D-05-0.173D-03
 Coeff:     -0.524D-03-0.863D-03-0.357D-03 0.494D-02 0.142D-01-0.198D-02
 Coeff:     -0.683D-01-0.192D+00 0.227D+00 0.102D+01
 Gap=     0.221 Goal=   None    Shift=    0.000
 RMSDP=9.06D-07 MaxDP=5.31D-05 DE=-3.40D-09 OVMax= 4.17D-05

 Cycle  17  Pass 1  IDiag  1:
 RMSU=  2.24D-07    CP:  5.19D-01  5.65D-01  9.31D-01  7.76D-01  8.68D-01
                    CP:  1.06D+00  1.17D+00  1.31D+00  1.33D+00  1.82D+00
                    CP:  1.35D+00  1.42D+00  1.81D+00  1.35D+00  1.67D+00
                    CP:  1.31D+00
 E= -3010.53770706909     Delta-E=       -0.000000001156 Rises=F Damp=F
 DIIS: error= 3.72D-07 at cycle  17 NSaved=  17.
 NSaved=17 IEnMin=17 EnMin= -3010.53770706909     IErMin=17 ErrMin= 3.72D-07
 ErrMax= 3.72D-07  0.00D+00 EMaxC= 1.00D-01 BMatC= 2.35D-11 BMatP= 1.87D-10
 IDIUse=1 WtCom= 1.00D+00 WtEn= 0.00D+00
 Coeff-Com:  0.872D-06-0.121D-05 0.120D-05-0.568D-05 0.923D-05 0.119D-03
 Coeff-Com:  0.303D-03-0.299D-03-0.134D-02-0.175D-02 0.281D-02 0.142D-01
 Coeff-Com:  0.714D-02-0.884D-01-0.149D+00 0.179D+00 0.104D+01
 Coeff:      0.872D-06-0.121D-05 0.120D-05-0.568D-05 0.923D-05 0.119D-03
 Coeff:      0.303D-03-0.299D-03-0.134D-02-0.175D-02 0.281D-02 0.142D-01
 Coeff:      0.714D-02-0.884D-01-0.149D+00 0.179D+00 0.104D+01
 Gap=     0.221 Goal=   None    Shift=    0.000
 RMSDP=4.12D-07 MaxDP=1.78D-05 DE=-1.16D-09 OVMax= 2.22D-05

 Cycle  18  Pass 1  IDiag  1:
 RMSU=  8.70D-08    CP:  5.19D-01  5.65D-01  9.31D-01  7.76D-01  8.68D-01
                    CP:  1.06D+00  1.17D+00  1.32D+00  1.33D+00  1.82D+00
                    CP:  1.35D+00  1.42D+00  1.85D+00  1.35D+00  1.81D+00
                    CP:  1.58D+00  1.35D+00
 E= -3010.53770706927     Delta-E=       -0.000000000184 Rises=F Damp=F
 DIIS: error= 1.14D-07 at cycle  18 NSaved=  18.
 NSaved=18 IEnMin=18 EnMin= -3010.53770706927     IErMin=18 ErrMin= 1.14D-07
 ErrMax= 1.14D-07  0.00D+00 EMaxC= 1.00D-01 BMatC= 5.29D-12 BMatP= 2.35D-11
 IDIUse=1 WtCom= 1.00D+00 WtEn= 0.00D+00
 Coeff-Com:  0.316D-06-0.528D-06-0.276D-06-0.606D-05 0.408D-05 0.666D-04
 Coeff-Com:  0.167D-03-0.427D-04-0.497D-03-0.116D-02-0.121D-02 0.492D-02
 Coeff-Com:  0.123D-01-0.881D-02-0.766D-01-0.614D-01 0.405D+00 0.727D+00
 Coeff:      0.316D-06-0.528D-06-0.276D-06-0.606D-05 0.408D-05 0.666D-04
 Coeff:      0.167D-03-0.427D-04-0.497D-03-0.116D-02-0.121D-02 0.492D-02
 Coeff:      0.123D-01-0.881D-02-0.766D-01-0.614D-01 0.405D+00 0.727D+00
 Gap=     0.221 Goal=   None    Shift=    0.000
 RMSDP=1.07D-07 MaxDP=6.39D-06 DE=-1.84D-10 OVMax= 4.97D-06

 Cycle  19  Pass 1  IDiag  1:
 RMSU=  2.21D-08    CP:  5.19D-01  5.65D-01  9.31D-01  7.76D-01  8.68D-01
                    CP:  1.06D+00  1.17D+00  1.32D+00  1.33D+00  1.82D+00
                    CP:  1.36D+00  1.43D+00  1.86D+00  1.35D+00  1.81D+00
                    CP:  1.61D+00  1.49D+00  1.07D+00
 E= -3010.53770706929     Delta-E=       -0.000000000013 Rises=F Damp=F
 DIIS: error= 5.63D-08 at cycle  19 NSaved=  19.
 NSaved=19 IEnMin=19 EnMin= -3010.53770706929     IErMin=19 ErrMin= 5.63D-08
 ErrMax= 5.63D-08  0.00D+00 EMaxC= 1.00D-01 BMatC= 5.66D-13 BMatP= 5.29D-12
 IDIUse=1 WtCom= 1.00D+00 WtEn= 0.00D+00
 Coeff-Com: -0.570D-08 0.563D-08-0.126D-06 0.594D-06-0.763D-06-0.119D-04
 Coeff-Com: -0.270D-04 0.289D-04 0.148D-03 0.243D-03-0.805D-03-0.140D-02
 Coeff-Com:  0.178D-02 0.115D-01 0.131D-01-0.491D-01-0.107D+00 0.124D+00
 Coeff-Com:  0.101D+01
 Coeff:     -0.570D-08 0.563D-08-0.126D-06 0.594D-06-0.763D-06-0.119D-04
 Coeff:     -0.270D-04 0.289D-04 0.148D-03 0.243D-03-0.805D-03-0.140D-02
 Coeff:      0.178D-02 0.115D-01 0.131D-01-0.491D-01-0.107D+00 0.124D+00
 Coeff:      0.101D+01
 Gap=     0.221 Goal=   None    Shift=    0.000
 RMSDP=5.69D-08 MaxDP=3.28D-06 DE=-1.32D-11 OVMax= 2.33D-06

 Cycle  20  Pass 1  IDiag  1:
 RMSU=  1.14D-08    CP:  5.19D-01  5.65D-01  9.31D-01  7.76D-01  8.68D-01
                    CP:  1.06D+00  1.17D+00  1.32D+00  1.33D+00  1.82D+00
                    CP:  1.36D+00  1.43D+00  1.86D+00  1.35D+00  1.82D+00
                    CP:  1.64D+00  1.53D+00  1.22D+00  1.43D+00
 E= -3010.53770706931     Delta-E=       -0.000000000025 Rises=F Damp=F
 DIIS: error= 2.12D-08 at cycle  20 NSaved=  20.
 NSaved=20 IEnMin=20 EnMin= -3010.53770706931     IErMin=20 ErrMin= 2.12D-08
 ErrMax= 2.12D-08  0.00D+00 EMaxC= 1.00D-01 BMatC= 6.06D-14 BMatP= 5.66D-13
 IDIUse=1 WtCom= 1.00D+00 WtEn= 0.00D+00
 Coeff-Com: -0.114D-07 0.239D-07 0.561D-08 0.606D-06-0.478D-06-0.734D-05
 Coeff-Com: -0.182D-04 0.453D-05 0.567D-04 0.138D-03-0.422D-04-0.600D-03
 Coeff-Com: -0.693D-03 0.226D-02 0.750D-02-0.112D-03-0.416D-01-0.724D-01
 Coeff-Com:  0.131D+00 0.975D+00
 Coeff:     -0.114D-07 0.239D-07 0.561D-08 0.606D-06-0.478D-06-0.734D-05
 Coeff:     -0.182D-04 0.453D-05 0.567D-04 0.138D-03-0.422D-04-0.600D-03
 Coeff:     -0.693D-03 0.226D-02 0.750D-02-0.112D-03-0.416D-01-0.724D-01
 Coeff:      0.131D+00 0.975D+00
 Gap=     0.221 Goal=   None    Shift=    0.000
 RMSDP=1.69D-08 MaxDP=7.14D-07 DE=-2.50D-11 OVMax= 6.05D-07

 Cycle  21  Pass 1  IDiag  1:
 Restarting incremental Fock formation.
 E= -3010.53770706932     Delta-E=       -0.000000000003 Rises=F Damp=F
 DIIS: error= 1.01D-08 at cycle  21 NSaved=  20.
 NSaved=20 IEnMin=20 EnMin= -3010.53770706932     IErMin=20 ErrMin= 1.01D-08
 ErrMax= 1.01D-08  0.00D+00 EMaxC= 1.00D-01 BMatC= 1.16D-14 BMatP= 6.06D-14
 IDIUse=1 WtCom= 1.00D+00 WtEn= 0.00D+00
 Coeff-Com: -0.253D-09 0.700D-08-0.908D-07 0.119D-06 0.144D-05 0.236D-05
 Coeff-Com: -0.602D-05-0.214D-04-0.272D-04 0.116D-03 0.126D-03-0.432D-03
 Coeff-Com: -0.134D-02-0.157D-02 0.925D-02 0.155D-01-0.395D-01-0.156D+00
 Coeff-Com:  0.126D+00 0.105D+01
 Coeff:     -0.253D-09 0.700D-08-0.908D-07 0.119D-06 0.144D-05 0.236D-05
 Coeff:     -0.602D-05-0.214D-04-0.272D-04 0.116D-03 0.126D-03-0.432D-03
 Coeff:     -0.134D-02-0.157D-02 0.925D-02 0.155D-01-0.395D-01-0.156D+00
 Coeff:      0.126D+00 0.105D+01
 Gap=     0.221 Goal=   None    Shift=    0.000
 RMSDP=7.70D-09 MaxDP=3.06D-07 DE=-2.73D-12 OVMax= 3.39D-07

 SCF Done:  E(RwB97XD) =  -3010.53770707     A.U. after   21 cycles
            NFock= 21  Conv=0.77D-08     -V/T= 2.0016
 KE= 3.005858641294D+03 PE=-8.630381501008D+03 EE= 1.876611515487D+03
 Leave Link  502 at Wed May  1 14:48:23 2024, MaxMem=  1207959552 cpu:            1179.7 elap:            1180.0
 (Enter /software/gaussian/g16-c01/sse4/g16/l601.exe)
 Copying SCF densities to generalized density rwf, IOpCl= 0 IROHF=0.

 **********************************************************************

            Population analysis using the SCF Density.

 **********************************************************************

 Alpha  occ. eigenvalues -- -483.30525 -62.85565 -56.65238 -56.64693 -56.64691
 Alpha  occ. eigenvalues --  -19.40744 -19.40674 -14.80345 -10.57362 -10.55631
 Alpha  occ. eigenvalues --  -10.55555 -10.54854 -10.54593 -10.51891  -9.01382
 Alpha  occ. eigenvalues --   -6.84005  -6.82217  -6.82204  -2.93922  -2.93446
 Alpha  occ. eigenvalues --   -2.93434  -2.92004  -2.92004  -1.44513  -1.27428
 Alpha  occ. eigenvalues --   -1.20934  -1.12266  -1.10045  -1.03289  -0.98202
 Alpha  occ. eigenvalues --   -0.93842  -0.88867  -0.82876  -0.78669  -0.77383
 Alpha  occ. eigenvalues --   -0.76510  -0.75258  -0.74215  -0.71234  -0.70492
 Alpha  occ. eigenvalues --   -0.67902  -0.65843  -0.62035  -0.58783  -0.55969
 Alpha  occ. eigenvalues --   -0.54249  -0.51768  -0.50580  -0.50276
 Alpha virt. eigenvalues --   -0.28207  -0.17926  -0.14620  -0.10911  -0.10175
 Alpha virt. eigenvalues --   -0.07318  -0.05809  -0.05691  -0.03413  -0.02187
 Alpha virt. eigenvalues --   -0.01954  -0.00943  -0.00780  -0.00394   0.00231
 Alpha virt. eigenvalues --    0.01956   0.02336   0.02988   0.03640   0.03822
 Alpha virt. eigenvalues --    0.05225   0.06451   0.06828   0.07449   0.08172
 Alpha virt. eigenvalues --    0.08651   0.09112   0.09771   0.10698   0.10896
 Alpha virt. eigenvalues --    0.11681   0.13055   0.13649   0.13992   0.14454
 Alpha virt. eigenvalues --    0.15015   0.16322   0.17442   0.18575   0.18778
 Alpha virt. eigenvalues --    0.18982   0.19954   0.20757   0.21610   0.22032
 Alpha virt. eigenvalues --    0.22568   0.25044   0.25995   0.27190   0.28068
 Alpha virt. eigenvalues --    0.29415   0.31181   0.31459   0.31683   0.33989
 Alpha virt. eigenvalues --    0.34433   0.35131   0.37647   0.38017   0.39393
 Alpha virt. eigenvalues --    0.39899   0.40986   0.42129   0.42351   0.43042
 Alpha virt. eigenvalues --    0.44509   0.46142   0.47032   0.48247   0.49486
 Alpha virt. eigenvalues --    0.50788   0.51468   0.52707   0.53537   0.55455
 Alpha virt. eigenvalues --    0.56862   0.57713   0.58741   0.59014   0.61336
 Alpha virt. eigenvalues --    0.62179   0.64365   0.65123   0.67675   0.69629
 Alpha virt. eigenvalues --    0.71736   0.72813   0.74315   0.74985   0.75968
 Alpha virt. eigenvalues --    0.77288   0.82190   0.82779   0.85040   0.87056
 Alpha virt. eigenvalues --    0.88058   0.91619   0.94637   0.95539   1.02142
 Alpha virt. eigenvalues --    1.03284   1.04967   1.06848   1.08045   1.08793
 Alpha virt. eigenvalues --    1.12027   1.14556   1.16870   1.17583   1.19864
 Alpha virt. eigenvalues --    1.27171   1.27613   1.30104   1.34648   1.38311
 Alpha virt. eigenvalues --    1.38692   1.39634   1.46703   1.56551   1.59277
 Alpha virt. eigenvalues --    1.61013   1.61156   1.63676   1.65783   1.67873
 Alpha virt. eigenvalues --    1.71480   1.72377   1.75002   1.79312   1.80963
 Alpha virt. eigenvalues --    1.82345   1.87826   1.89820   1.94129   1.96438
 Alpha virt. eigenvalues --    2.00339   2.05242   2.06741   2.08287   2.09681
 Alpha virt. eigenvalues --    2.11451   2.16404   2.22173   2.25742   2.30784
 Alpha virt. eigenvalues --    2.39994   2.44113   2.44893   2.46186   2.54155
 Alpha virt. eigenvalues --    2.58245   2.64961   2.67975   2.70218   2.75903
 Alpha virt. eigenvalues --    2.77531   2.80525   2.81193   2.83359   2.86341
 Alpha virt. eigenvalues --    2.94958   2.98098   3.05510   3.07165   3.11208
 Alpha virt. eigenvalues --    3.14897   3.17026   3.20943   3.26030   3.28428
 Alpha virt. eigenvalues --    3.32639   3.42288   3.49113   3.54177   3.57599
 Alpha virt. eigenvalues --    3.61041   3.74832   3.79191   3.83917   3.89009
 Alpha virt. eigenvalues --    4.09467   4.09705   4.17324   4.22492   4.43355
 Alpha virt. eigenvalues --    4.49664   4.59104   4.64338   4.98572   5.01288
 Alpha virt. eigenvalues --    5.09913   5.14078   5.67941   6.21090   6.65201
 Alpha virt. eigenvalues --    7.48135   7.49714   7.59558  23.22862  23.62921
 Alpha virt. eigenvalues --   23.70622  23.81190  23.97489  24.03352  35.37602
 Alpha virt. eigenvalues --   47.91855  49.90707  49.99519 289.81200 289.82868
 Alpha virt. eigenvalues --  289.953241020.92300
          Condensed to atoms (all electrons):
               1          2          3          4          5          6
     1  C    9.578277  -2.760671   0.174974  -1.899014  -0.702169   0.309158
     2  C   -2.760671  13.359806  -1.907413  -2.123360   0.523542  -0.001786
     3  C    0.174974  -1.907413  13.670993  -3.854799  -1.251160   0.026899
     4  C   -1.899014  -2.123360  -3.854799  16.307280   1.209810   0.011402
     5  C   -0.702169   0.523542  -1.251160   1.209810   7.873513  -0.001104
     6  H    0.309158  -0.001786   0.026899   0.011402  -0.001104   0.355686
     7  H    0.088073   0.205145   0.074563  -0.035400  -0.018026  -0.001768
     8  H    0.008140  -0.016402   0.087912   0.206961  -0.029236  -0.000001
     9  H    0.049693  -0.031072   0.010887  -0.012530   0.279237  -0.002949
    10  N   -0.208086   0.393462  -0.941643   0.386737   0.000007  -0.000688
    11  O    0.004305  -0.115739  -0.262649   0.016038  -0.065184  -0.000028
    12  O    0.394493  -0.034949  -0.271372  -0.149868  -0.043767   0.000061
    13  C    1.509951  -1.997312   1.112349  -4.334118  -1.804053  -0.008067
    14  H   -0.023645   0.010584  -0.004714  -0.079960   0.034099  -0.000041
    15  Br   0.025812   0.023273   0.014381   0.031251   0.015188  -0.000341
               7          8          9         10         11         12
     1  C    0.088073   0.008140   0.049693  -0.208086   0.004305   0.394493
     2  C    0.205145  -0.016402  -0.031072   0.393462  -0.115739  -0.034949
     3  C    0.074563   0.087912   0.010887  -0.941643  -0.262649  -0.271372
     4  C   -0.035400   0.206961  -0.012530   0.386737   0.016038  -0.149868
     5  C   -0.018026  -0.029236   0.279237   0.000007  -0.065184  -0.043767
     6  H   -0.001768  -0.000001  -0.002949  -0.000688  -0.000028   0.000061
     7  H    0.286336  -0.000002   0.000023  -0.026484  -0.001536   0.028099
     8  H   -0.000002   0.279575   0.000097  -0.024621   0.027658  -0.000787
     9  H    0.000023   0.000097   0.371827   0.000311   0.000011   0.000009
    10  N   -0.026484  -0.024621   0.000311   7.551732   0.110783   0.075920
    11  O   -0.001536   0.027658   0.000011   0.110783   7.838493   0.012212
    12  O    0.028099  -0.000787   0.000009   0.075920   0.012212   7.875630
    13  C    0.017694   0.070454   0.034016  -0.213190   0.360639   0.039591
    14  H   -0.000023  -0.003302  -0.006677   0.000736  -0.000378  -0.000078
    15  Br   0.000035   0.005660   0.001389   0.007329  -0.000096   0.002111
              13         14         15
     1  C    1.509951  -0.023645   0.025812
     2  C   -1.997312   0.010584   0.023273
     3  C    1.112349  -0.004714   0.014381
     4  C   -4.334118  -0.079960   0.031251
     5  C   -1.804053   0.034099   0.015188
     6  H   -0.008067  -0.000041  -0.000341
     7  H    0.017694  -0.000023   0.000035
     8  H    0.070454  -0.003302   0.005660
     9  H    0.034016  -0.006677   0.001389
    10  N   -0.213190   0.000736   0.007329
    11  O    0.360639  -0.000378  -0.000096
    12  O    0.039591  -0.000078   0.002111
    13  C   11.280703   0.372425   0.040378
    14  H    0.372425   0.358873  -0.046047
    15  Br   0.040378  -0.046047  34.755952
 Mulliken charges:
               1
     1  C   -0.549290
     2  C    0.472893
     3  C   -0.679207
     4  C    0.319571
     5  C   -0.020696
     6  H    0.313566
     7  H    0.383270
     8  H    0.387895
     9  H    0.305729
    10  N   -0.112305
    11  O    0.075470
    12  O    0.072696
    13  C   -0.481462
    14  H    0.388147
    15  Br   0.123725
 Sum of Mulliken charges =   1.00000
 Mulliken charges with hydrogens summed into heavy atoms:
               1
     1  C   -0.235725
     2  C    0.856162
     3  C   -0.679207
     4  C    0.707466
     5  C    0.285032
    10  N   -0.112305
    11  O    0.075470
    12  O    0.072696
    13  C   -0.093315
    15  Br   0.123725
 Electronic spatial extent (au):  <R**2>=           2794.2067
 Charge=              1.0000 electrons
 Dipole moment (field-independent basis, Debye):
    X=              2.0742    Y=             -0.2644    Z=              0.2126  Tot=              2.1017
 Quadrupole moment (field-independent basis, Debye-Ang):
   XX=            -64.5760   YY=            -52.3232   ZZ=            -63.3511
   XY=              0.8095   XZ=              0.3627   YZ=              1.0001
 Traceless Quadrupole moment (field-independent basis, Debye-Ang):
   XX=             -4.4926   YY=              7.7603   ZZ=             -3.2677
   XY=              0.8095   XZ=              0.3627   YZ=              1.0001
 Octapole moment (field-independent basis, Debye-Ang**2):
  XXX=           -259.9154  YYY=             89.9872  ZZZ=             79.1414  XYY=            -69.3280
  XXY=             31.4078  XXZ=             32.5069  XZZ=            -74.9551  YZZ=             17.8764
  YYZ=             26.8554  XYZ=             -2.0004
 Hexadecapole moment (field-independent basis, Debye-Ang**3):
 XXXX=          -2112.2777 YYYY=           -682.3273 ZZZZ=           -353.1892 XXXY=            -68.8898
 XXXZ=            -26.4959 YYYX=            -63.0225 YYYZ=           -159.6935 ZZZX=            -22.1004
 ZZZY=           -139.4940 XXYY=           -443.8117 XXZZ=           -368.3655 YYZZ=           -166.9942
 XXYZ=            -56.4348 YYXZ=             -5.3705 ZZXY=            -11.3863
 N-N= 7.373736371587D+02 E-N=-8.630381501715D+03  KE= 3.005858641294D+03
 No NMR shielding tensors so no spin-rotation constants.
 Leave Link  601 at Wed May  1 14:48:30 2024, MaxMem=  1207959552 cpu:               7.2 elap:               7.2
 (Enter /software/gaussian/g16-c01/sse4/g16/l9999.exe)
 Unable to Open any file for archive entry.
 1\1\GINC-BHX0011\SP\RwB97XD\6-311+G(d)\C6H5Br1N1O2(1+)\BWEIGHT\01-May-
 2024\0\\#P wB97XD/6-311+G* NoSymm #P Field=X-97\\TitleMe\\1,1\C,0,0.02
 95,1.3397,0.0682\C,0,1.4348,1.2867,0.0064\C,0,2.1118,0.0511,-0.0054\C,
 0,1.4451,-1.1372,0.0312\C,0,-0.6879,0.1682,0.11\H,0,-0.4713,2.2984,0.0
 781\H,0,2.0273,2.1965,-0.0322\H,0,1.9897,-2.0764,0.0232\H,0,-1.7716,0.
 1804,0.1582\N,0,3.5864,0.051,-0.0675\O,0,4.1471,-1.0597,-0.0881\O,0,4.
 145,1.1639,-0.0901\C,0,-0.0236,-1.1458,0.0835\H,0,-0.4367,-1.8725,0.78
 89\Br,0,-0.5359,-1.8697,-1.7408\\Version=ES64L-G16RevC.01\HF=-3010.537
 7071\RMSD=7.696e-09\Dipole=-1.090488,1.0440755,1.229806\Quadrupole=-3.
 3401036,5.7695621,-2.4294585,0.6018774,0.2696265,0.7435342\PG=C01 [X(C
 6H5Br1N1O2)]\\@
 The archive entry for this job was punched.


 ERWIN WITH HIS PSI CAN DO
 CALCULATIONS QUITE A FEW.
 BUT ONE THING HAS NOT BEEN SEEN
 JUST WHAT DOES PSI REALLY MEAN.
 -- WALTER HUCKEL, TRANS. BY FELIX BLOCH
 Job cpu time:       0 days  0 hours 20 minutes 47.2 seconds.
 Elapsed time:       0 days  0 hours 20 minutes 47.7 seconds.
 File lengths (MBytes):  RWF=     40 Int=      0 D2E=      0 Chk=     32 Scr=      1
 Normal termination of Gaussian 16 at Wed May  1 14:48:31 2024.
