 Entering Gaussian System, Link 0=g16
 Initial command:
 /software/gaussian/g16-c01/sse4/g16/l1.exe "/local_scratch/24665241/Gau-25297.inp" -scrdir="/local_scratch/24665241/"
 Entering Link 1 = /software/gaussian/g16-c01/sse4/g16/l1.exe PID=     25305.
  
 Copyright (c) 1988-2019, Gaussian, Inc.  All Rights Reserved.
  
 This is part of the Gaussian(R) 16 program.  It is based on
 the Gaussian(R) 09 system (copyright 2009, Gaussian, Inc.),
 the Gaussian(R) 03 system (copyright 2003, Gaussian, Inc.),
 the Gaussian(R) 98 system (copyright 1998, Gaussian, Inc.),
 the Gaussian(R) 94 system (copyright 1995, Gaussian, Inc.),
 the Gaussian 92(TM) system (copyright 1992, Gaussian, Inc.),
 the Gaussian 90(TM) system (copyright 1990, Gaussian, Inc.),
 the Gaussian 88(TM) system (copyright 1988, Gaussian, Inc.),
 the Gaussian 86(TM) system (copyright 1986, Carnegie Mellon
 University), and the Gaussian 82(TM) system (copyright 1983,
 Carnegie Mellon University). Gaussian is a federally registered
 trademark of Gaussian, Inc.
  
 This software contains proprietary and confidential information,
 including trade secrets, belonging to Gaussian, Inc.
  
 This software is provided under written license and may be
 used, copied, transmitted, or stored only in accord with that
 written license.
  
 The following legend is applicable only to US Government
 contracts under FAR:
  
                    RESTRICTED RIGHTS LEGEND
  
 Use, reproduction and disclosure by the US Government is
 subject to restrictions as set forth in subparagraphs (a)
 and (c) of the Commercial Computer Software - Restricted
 Rights clause in FAR 52.227-19.
  
 Gaussian, Inc.
 340 Quinnipiac St., Bldg. 40, Wallingford CT 06492
  
  
 ---------------------------------------------------------------
 Warning -- This program may not be used in any manner that
 competes with the business of Gaussian, Inc. or will provide
 assistance to any competitor of Gaussian, Inc.  The licensee
 of this program is prohibited from giving any competitor of
 Gaussian, Inc. access to this program.  By using this program,
 the user acknowledges that Gaussian, Inc. is engaged in the
 business of creating and licensing software in the field of
 computational chemistry and represents and warrants to the
 licensee that it is not a competitor of Gaussian, Inc. and that
 it will not use this program in any manner prohibited above.
 ---------------------------------------------------------------
  

 Cite this work as:
 Gaussian 16, Revision C.01,
 M. J. Frisch, G. W. Trucks, H. B. Schlegel, G. E. Scuseria, 
 M. A. Robb, J. R. Cheeseman, G. Scalmani, V. Barone, 
 G. A. Petersson, H. Nakatsuji, X. Li, M. Caricato, A. V. Marenich, 
 J. Bloino, B. G. Janesko, R. Gomperts, B. Mennucci, H. P. Hratchian, 
 J. V. Ortiz, A. F. Izmaylov, J. L. Sonnenberg, D. Williams-Young, 
 F. Ding, F. Lipparini, F. Egidi, J. Goings, B. Peng, A. Petrone, 
 T. Henderson, D. Ranasinghe, V. G. Zakrzewski, J. Gao, N. Rega, 
 G. Zheng, W. Liang, M. Hada, M. Ehara, K. Toyota, R. Fukuda, 
 J. Hasegawa, M. Ishida, T. Nakajima, Y. Honda, O. Kitao, H. Nakai, 
 T. Vreven, K. Throssell, J. A. Montgomery, Jr., J. E. Peralta, 
 F. Ogliaro, M. J. Bearpark, J. J. Heyd, E. N. Brothers, K. N. Kudin, 
 V. N. Staroverov, T. A. Keith, R. Kobayashi, J. Normand, 
 K. Raghavachari, A. P. Rendell, J. C. Burant, S. S. Iyengar, 
 J. Tomasi, M. Cossi, J. M. Millam, M. Klene, C. Adamo, R. Cammi, 
 J. W. Ochterski, R. L. Martin, K. Morokuma, O. Farkas, 
 J. B. Foresman, and D. J. Fox, Gaussian, Inc., Wallingford CT, 2019.
 
 ******************************************
 Gaussian 16:  ES64L-G16RevC.01  3-Jul-2019
                 2-May-2024 
 ******************************************
 %chk=geometry.chk
 %mem=1GB
 %nprocshared=12
 Will use up to   12 processors via shared memory.
 ----------------------------------------
 #P wB97XD/6-311+G* NoSymm #P Field=X-214
 ----------------------------------------
 1/38=1,172=1/1;
 2/12=2,15=1,17=6,18=5,40=1/2;
 3/5=4,6=6,7=11,11=2,14=1,15=-214,25=1,30=1,74=-58/1,2,3;
 4//1;
 5/5=2,38=5/2;
 6/7=2,8=2,9=2,10=2,28=1/1;
 99/5=1,9=1/99;
 Leave Link    1 at Thu May  2 13:57:29 2024, MaxMem=   134217728 cpu:               1.9 elap:               1.9
 (Enter /software/gaussian/g16-c01/sse4/g16/l101.exe)
 -------
 TitleMe
 -------
 Symbolic Z-matrix:
 Charge =  1 Multiplicity = 1
 C                     0.5193    1.233    -0.0319 
 C                     1.9445    1.2692   -0.0367 
 C                     2.6204    0.0928   -0.025 
 C                    -0.196     0.0301    0.001 
 H                    -0.0207    2.1742   -0.0434 
 H                     2.4828    2.2089   -0.0361 
 H                    -1.2777    0.0399    0.0117 
 N                     4.0921    0.0959    0.0366 
 O                     4.6393   -1.0217    0.1446 
 O                     4.6649    1.1984   -0.0233 
 C                     0.4943   -1.1671    0.021 
 H                    -0.0325   -2.1149    0.0545 
 C                     1.9629   -1.2165   -0.0211 
 H                     2.4436   -1.9631    0.6151 
 Br                    2.173    -1.9491   -1.9062 
 
 ITRead=  0  0  0  0  0  0  0  0  0  0  0  0  0  0  0
 MicOpt= -1 -1 -1 -1 -1 -1 -1 -1 -1 -1 -1 -1 -1 -1 -1
 NAtoms=     15 NQM=       15 NQMF=       0 NMMI=      0 NMMIF=      0
                NMic=       0 NMicF=      0.
                    Isotopes and Nuclear Properties:
 (Nuclear quadrupole moments (NQMom) in fm**2, nuclear magnetic moments (NMagM)
  in nuclear magnetons)

  Atom         1           2           3           4           5           6           7           8           9          10
 IAtWgt=          12          12          12          12           1           1           1          14          16          16
 AtmWgt=  12.0000000  12.0000000  12.0000000  12.0000000   1.0078250   1.0078250   1.0078250  14.0030740  15.9949146  15.9949146
 NucSpn=           0           0           0           0           1           1           1           2           0           0
 AtZEff=  -0.0000000  -0.0000000  -0.0000000  -0.0000000  -0.0000000  -0.0000000  -0.0000000  -0.0000000  -0.0000000  -0.0000000
 NQMom=    0.0000000   0.0000000   0.0000000   0.0000000   0.0000000   0.0000000   0.0000000   2.0440000   0.0000000   0.0000000
 NMagM=    0.0000000   0.0000000   0.0000000   0.0000000   2.7928460   2.7928460   2.7928460   0.4037610   0.0000000   0.0000000
 AtZNuc=   6.0000000   6.0000000   6.0000000   6.0000000   1.0000000   1.0000000   1.0000000   7.0000000   8.0000000   8.0000000

  Atom        11          12          13          14          15
 IAtWgt=          12           1          12           1          79
 AtmWgt=  12.0000000   1.0078250  12.0000000   1.0078250  78.9183361
 NucSpn=           0           1           0           1           3
 AtZEff=  -0.0000000  -0.0000000  -0.0000000  -0.0000000  -0.0000000
 NQMom=    0.0000000   0.0000000   0.0000000   0.0000000  31.3000000
 NMagM=    0.0000000   2.7928460   0.0000000   2.7928460   2.1063990
 AtZNuc=   6.0000000   1.0000000   6.0000000   1.0000000  35.0000000
 Leave Link  101 at Thu May  2 13:57:32 2024, MaxMem=   134217728 cpu:               2.0 elap:               2.1
 (Enter /software/gaussian/g16-c01/sse4/g16/l202.exe)
                          Input orientation:                          
 ---------------------------------------------------------------------
 Center     Atomic      Atomic             Coordinates (Angstroms)
 Number     Number       Type             X           Y           Z
 ---------------------------------------------------------------------
      1          6           0        0.519300    1.233000   -0.031900
      2          6           0        1.944500    1.269200   -0.036700
      3          6           0        2.620400    0.092800   -0.025000
      4          6           0       -0.196000    0.030100    0.001000
      5          1           0       -0.020700    2.174200   -0.043400
      6          1           0        2.482800    2.208900   -0.036100
      7          1           0       -1.277700    0.039900    0.011700
      8          7           0        4.092100    0.095900    0.036600
      9          8           0        4.639300   -1.021700    0.144600
     10          8           0        4.664900    1.198400   -0.023300
     11          6           0        0.494300   -1.167100    0.021000
     12          1           0       -0.032500   -2.114900    0.054500
     13          6           0        1.962900   -1.216500   -0.021100
     14          1           0        2.443600   -1.963100    0.615100
     15         35           0        2.173000   -1.949100   -1.906200
 ---------------------------------------------------------------------
                    Distance matrix (angstroms):
                    1          2          3          4          5
     1  C    0.000000
     2  C    1.425668   0.000000
     3  C    2.390549   1.356796   0.000000
     4  C    1.399895   2.473566   2.817218   0.000000
     5  H    1.085168   2.163581   3.362733   2.151712   0.000000
     6  H    2.192654   1.082960   2.120598   3.453189   2.503751
     7  H    2.157452   3.449071   3.898632   1.081797   2.477564
     8  N    3.750012   2.448304   1.472992   4.288753   4.608780
     9  O    4.699917   3.541615   2.312322   4.950458   5.653735
    10  O    4.145753   2.721354   2.324292   4.999386   4.786171
    11  C    2.400813   2.835836   2.471794   1.382101   3.381369
    12  H    3.394169   3.920329   3.452266   2.151887   4.290233
    13  C    2.843264   2.485817   1.465124   2.493060   3.928360
    14  H    3.786370   3.334922   2.160489   3.364142   4.860416
    15  Br   4.046416   3.728900   2.812194   3.628609   5.028314
                    6          7          8          9         10
     6  H    0.000000
     7  H    4.341452   0.000000
     8  N    2.657047   5.370150   0.000000
     9  O    3.888434   6.012948   1.249048   0.000000
    10  O    2.404752   6.054572   1.243863   2.226587   0.000000
    11  C    3.918516   2.144043   3.813080   4.149391   4.794941
    12  H    5.003018   2.489080   4.679774   4.798846   5.748876
    13  C    3.464662   3.475788   2.501842   2.688591   3.623886
    14  H    4.222698   4.268978   2.700314   2.434893   3.916224
    15  Br   4.569706   4.420610   3.411663   3.338935   4.434144
                   11         12         13         14         15
    11  C    0.000000
    12  H    1.084880   0.000000
    13  C    1.470034   2.189625   0.000000
    14  H    2.187771   2.543302   1.092353   0.000000
    15  Br   2.672762   2.955683   2.033334   2.535818   0.000000
 Symmetry turned off by external request.
 Stoichiometry    C6H5BrNO2(1+)
 Framework group  C1[X(C6H5BrNO2)]
 Deg. of freedom    39
 Full point group                 C1      NOp   1
 Rotational constants (GHZ):           1.1632986           0.9594224           0.5957624
 Leave Link  202 at Thu May  2 13:57:33 2024, MaxMem=   134217728 cpu:               1.3 elap:               1.3
 (Enter /software/gaussian/g16-c01/sse4/g16/l301.exe)
 Standard basis: 6-311+G(d) (5D, 7F)
 Ernie: Thresh=  0.10000D-02 Tol=  0.10000D-05 Strict=F.
 The following finite field(s) will be applied:
 An electric field of             -0.0214  0.0000  0.0000
   261 basis functions,   443 primitive gaussians,   273 cartesian basis functions
    49 alpha electrons       49 beta electrons
       nuclear repulsion energy       772.8945969580 Hartrees.
 IExCor= 4639 DFT=T Ex+Corr=wB97XD ExCW=0 ScaHFX=  1.000000
 ScaDFX=  1.000000  1.000000  1.000000  1.000000 ScalE2=  1.000000  1.000000
 IRadAn=      5 IRanWt=     -1 IRanGd=            0 ICorTp=0 IEmpDi=121
 HFx  wShort=  0.000000 wLong=  0.200000 cFull=  0.222036 cShort=  0.000000 cLong=  0.777964
 DFx  wShort=  0.000000 wLong=  0.200000 cFull=  0.000000 cShort=  0.000000 cLong=  1.000000
 NAtoms=   15 NActive=   15 NUniq=   15 SFac= 1.00D+00 NAtFMM=   60 NAOKFM=F Big=F
 Integral buffers will be    131072 words long.
 Raffenetti 2 integral format.
 Two-electron integral symmetry is turned off.
 R6Disp:  Grimme-D2 Dispersion energy=       -0.0080346408 Hartrees.
 Nuclear repulsion after empirical dispersion term =      772.8865623173 Hartrees.
 Leave Link  301 at Thu May  2 13:57:35 2024, MaxMem=   134217728 cpu:               1.1 elap:               1.1
 (Enter /software/gaussian/g16-c01/sse4/g16/l302.exe)
 NPDir=0 NMtPBC=     1 NCelOv=     1 NCel=       1 NClECP=     1 NCelD=      1
         NCelK=      1 NCelE2=     1 NClLst=     1 CellRange=     0.0.
 One-electron integrals computed using PRISM.
 NBasis=   261 RedAO= T EigKep=  2.52D-06  NBF=   261
 NBsUse=   261 1.00D-06 EigRej= -1.00D+00 NBFU=   261
 Precomputing XC quadrature grid using
 IXCGrd= 4 IRadAn=           5 IRanWt=          -1 IRanGd=           0 AccXCQ= 0.00D+00.
 Generated NRdTot=       0 NPtTot=           0 NUsed=           0 NTot=          32
 NSgBfM=   273   273   273   273   273 MxSgAt=    15 MxSgA2=    15.
 Leave Link  302 at Thu May  2 13:57:57 2024, MaxMem=   134217728 cpu:              21.7 elap:              21.8
 (Enter /software/gaussian/g16-c01/sse4/g16/l303.exe)
 DipDrv:  MaxL=1.
 The nuclear repulsion energy is now       763.7146902490 hartrees.
 Leave Link  303 at Thu May  2 13:58:00 2024, MaxMem=   134217728 cpu:               3.3 elap:               3.3
 (Enter /software/gaussian/g16-c01/sse4/g16/l401.exe)
 ExpMin= 3.50D-02 ExpMax= 4.40D+05 ExpMxC= 1.51D+04 IAcc=3 IRadAn=         5 AccDes= 0.00D+00
 Harris functional with IExCor= 4639 and IRadAn=       5 diagonalized for initial guess.
 HarFok:  IExCor= 4639 AccDes= 0.00D+00 IRadAn=         5 IDoV= 1 UseB2=F ITyADJ=14
 ICtDFT=  3500011 ScaDFX=  1.000000  1.000000  1.000000  1.000000
 FoFCou: FMM=F IPFlag=           0 FMFlag=      100000 FMFlg1=           0
         NFxFlg=           0 DoJE=T BraDBF=F KetDBF=T FulRan=T
         wScrn=  0.000000 ICntrl=       500 IOpCl=  0 I1Cent=   200000004 NGrid=           0
         NMat0=    1 NMatS0=      1 NMatT0=    0 NMatD0=    1 NMtDS0=    0 NMtDT0=    0
 Symmetry not used in FoFCou.
 Harris En= -2971.16335413835    
 JPrj=0 DoOrth=F DoCkMO=F.
 Leave Link  401 at Thu May  2 13:58:32 2024, MaxMem=   134217728 cpu:              31.4 elap:              31.5
 (Enter /software/gaussian/g16-c01/sse4/g16/l502.exe)
 Two-electron integral symmetry not used.
 Closed shell SCF:
 Using DIIS extrapolation, IDIIS=  1040.
 NGot=   134217728 LenX=   134063053 LenY=   133988083
 Requested convergence on RMS density matrix=1.00D-08 within 128 cycles.
 Requested convergence on MAX density matrix=1.00D-06.
 Requested convergence on             energy=1.00D-06.
 No special actions if energy rises.
 Fock matrices will be formed incrementally for  20 cycles.

 Cycle   1  Pass 1  IDiag  1:
 FoFJK:  IHMeth= 1 ICntrl=       0 DoSepK=T KAlg= 0 I1Cent=           0 FoldK=F
 IRaf=         1 NMat=       1 IRICut=       1 DoRegI=T DoRafI=F ISym2E= 0 IDoP0=0 IntGTp=1.
 FoFCou: FMM=F IPFlag=           0 FMFlag=      100000 FMFlg1=           0
         NFxFlg=           0 DoJE=T BraDBF=F KetDBF=F FulRan=T
         wScrn=  0.000000 ICntrl=       500 IOpCl=  0 I1Cent=           0 NGrid=           0
         NMat0=    1 NMatS0=      1 NMatT0=    0 NMatD0=    1 NMtDS0=    0 NMtDT0=    0
 Symmetry not used in FoFCou.
 E= -3001.25237780837    
 DIIS: error= 2.91D-01 at cycle   1 NSaved=   1.
 NSaved= 1 IEnMin= 1 EnMin= -3001.25237780837     IErMin= 1 ErrMin= 2.91D-01
 ErrMax= 2.91D-01  0.00D+00 EMaxC= 1.00D-01 BMatC= 1.47D+01 BMatP= 1.47D+01
 IDIUse=3 WtCom= 0.00D+00 WtEn= 1.00D+00
 Coeff-Com:  0.100D+01
 Coeff-En:   0.100D+01
 Coeff:      0.100D+01
 Gap=    -0.096 Goal=   None    Shift=    0.000
 GapD=   -0.096 DampG=0.250 DampE=0.250 DampFc=0.2500 IDamp=-1.
 Damping current iteration by 2.50D-01
 RMSDP=1.56D+01 MaxDP=1.45D+03              OVMax= 9.96D-01

 Cycle   2  Pass 1  IDiag  1:
 RMSU=  3.23D-01    CP:  7.64D-01
 E= -3002.61299719962     Delta-E=       -1.360619391247 Rises=F Damp=T
 DIIS: error= 2.19D-01 at cycle   2 NSaved=   2.
 NSaved= 2 IEnMin= 2 EnMin= -3002.61299719962     IErMin= 2 ErrMin= 2.19D-01
 ErrMax= 2.19D-01  0.00D+00 EMaxC= 1.00D-01 BMatC= 6.15D+00 BMatP= 1.47D+01
 IDIUse=3 WtCom= 0.00D+00 WtEn= 1.00D+00
 Coeff-Com: -0.353D+00 0.135D+01
 Coeff-En:   0.416D+00 0.584D+00
 Coeff:      0.416D+00 0.584D+00
 Gap=    -0.275 Goal=   None    Shift=    0.000
 RMSDP=1.25D+01 MaxDP=1.25D+03 DE=-1.36D+00 OVMax= 9.82D-01

 Cycle   3  Pass 1  IDiag  1:
 RMSU=  8.96D-02    CP:  5.76D-03  1.54D-01
 E= -2998.95566973605     Delta-E=        3.657327463564 Rises=F Damp=F
 DIIS: error= 1.27D-01 at cycle   3 NSaved=   3.
 NSaved= 3 IEnMin= 2 EnMin= -3002.61299719962     IErMin= 3 ErrMin= 1.27D-01
 ErrMax= 1.27D-01  0.00D+00 EMaxC= 1.00D-01 BMatC= 9.09D+00 BMatP= 6.15D+00
 IDIUse=2 WtCom= 0.00D+00 WtEn= 1.00D+00
 EnCoef did   100 forward-backward iterations
 Coeff-En:   0.535D+00 0.796D-02 0.457D+00
 Coeff:      0.535D+00 0.796D-02 0.457D+00
 Gap=    -0.055 Goal=   None    Shift=    0.000
 RMSDP=3.76D-02 MaxDP=1.63D+00 DE= 3.66D+00 OVMax= 6.74D-01

 Cycle   4  Pass 1  IDiag  1:
 RMSU=  3.42D-02    CP:  6.09D-03  1.45D-01  8.40D-01
 E= -3010.22481548898     Delta-E=      -11.269145752932 Rises=F Damp=F
 DIIS: error= 3.04D-02 at cycle   4 NSaved=   4.
 NSaved= 4 IEnMin= 4 EnMin= -3010.22481548898     IErMin= 4 ErrMin= 3.04D-02
 ErrMax= 3.04D-02  0.00D+00 EMaxC= 1.00D-01 BMatC= 4.19D-01 BMatP= 6.15D+00
 IDIUse=3 WtCom= 6.96D-01 WtEn= 3.04D-01
 Coeff-Com:  0.191D-01 0.106D+00 0.332D-02 0.872D+00
 Coeff-En:   0.000D+00 0.000D+00 0.000D+00 0.100D+01
 Coeff:      0.133D-01 0.736D-01 0.231D-02 0.911D+00
 Gap=     0.289 Goal=   None    Shift=    0.000
 RMSDP=5.87D-02 MaxDP=5.78D+00 DE=-1.13D+01 OVMax= 2.88D-01

 Cycle   5  Pass 1  IDiag  1:
 RMSU=  3.86D-02    CP:  5.19D-03  1.74D-01  3.94D-01  8.00D-01
 E= -3010.37716846453     Delta-E=       -0.152352975545 Rises=F Damp=F
 DIIS: error= 2.54D-02 at cycle   5 NSaved=   5.
 NSaved= 5 IEnMin= 5 EnMin= -3010.37716846453     IErMin= 5 ErrMin= 2.54D-02
 ErrMax= 2.54D-02  0.00D+00 EMaxC= 1.00D-01 BMatC= 2.39D-01 BMatP= 4.19D-01
 IDIUse=3 WtCom= 7.46D-01 WtEn= 2.54D-01
 Coeff-Com: -0.282D-02 0.360D-01-0.435D-02 0.434D+00 0.537D+00
 Coeff-En:   0.000D+00 0.000D+00 0.000D+00 0.337D+00 0.663D+00
 Coeff:     -0.211D-02 0.268D-01-0.324D-02 0.409D+00 0.569D+00
 Gap=     0.201 Goal=   None    Shift=    0.000
 RMSDP=1.93D-02 MaxDP=2.00D+00 DE=-1.52D-01 OVMax= 1.44D-01

 Cycle   6  Pass 1  IDiag  1:
 RMSU=  7.82D-03    CP:  4.60D-03  1.39D-01  3.92D-01  8.18D-01  7.49D-01
 E= -3010.55997413923     Delta-E=       -0.182805674702 Rises=F Damp=F
 DIIS: error= 1.96D-02 at cycle   6 NSaved=   6.
 NSaved= 6 IEnMin= 6 EnMin= -3010.55997413923     IErMin= 6 ErrMin= 1.96D-02
 ErrMax= 1.96D-02  0.00D+00 EMaxC= 1.00D-01 BMatC= 2.87D-02 BMatP= 2.39D-01
 IDIUse=3 WtCom= 8.04D-01 WtEn= 1.96D-01
 Coeff-Com: -0.419D-02 0.139D-01-0.805D-03 0.195D+00 0.312D+00 0.484D+00
 Coeff-En:   0.000D+00 0.000D+00 0.000D+00 0.000D+00 0.000D+00 0.100D+01
 Coeff:     -0.337D-02 0.111D-01-0.647D-03 0.157D+00 0.251D+00 0.585D+00
 Gap=     0.198 Goal=   None    Shift=    0.000
 RMSDP=4.95D-03 MaxDP=5.57D-01 DE=-1.83D-01 OVMax= 1.15D-01

 Cycle   7  Pass 1  IDiag  1:
 RMSU=  3.02D-03    CP:  4.75D-03  1.46D-01  3.87D-01  8.43D-01  7.70D-01
                    CP:  7.91D-01
 E= -3010.56766181703     Delta-E=       -0.007687677794 Rises=F Damp=F
 DIIS: error= 1.75D-02 at cycle   7 NSaved=   7.
 NSaved= 7 IEnMin= 7 EnMin= -3010.56766181703     IErMin= 7 ErrMin= 1.75D-02
 ErrMax= 1.75D-02  0.00D+00 EMaxC= 1.00D-01 BMatC= 1.78D-02 BMatP= 2.87D-02
 IDIUse=3 WtCom= 8.25D-01 WtEn= 1.75D-01
 Coeff-Com: -0.324D-02 0.297D-02 0.125D-02 0.352D-01 0.769D-01 0.436D+00
 Coeff-Com:  0.451D+00
 Coeff-En:   0.000D+00 0.000D+00 0.000D+00 0.000D+00 0.000D+00 0.407D+00
 Coeff-En:   0.593D+00
 Coeff:     -0.267D-02 0.245D-02 0.103D-02 0.290D-01 0.635D-01 0.431D+00
 Coeff:      0.476D+00
 Gap=     0.190 Goal=   None    Shift=    0.000
 RMSDP=4.69D-03 MaxDP=6.44D-01 DE=-7.69D-03 OVMax= 5.95D-02

 Cycle   8  Pass 1  IDiag  1:
 RMSU=  1.50D-03    CP:  4.56D-03  1.40D-01  3.78D-01  8.22D-01  7.72D-01
                    CP:  9.69D-01  4.93D-01
 E= -3010.58032217095     Delta-E=       -0.012660353924 Rises=F Damp=F
 DIIS: error= 2.19D-03 at cycle   8 NSaved=   8.
 NSaved= 8 IEnMin= 8 EnMin= -3010.58032217095     IErMin= 8 ErrMin= 2.19D-03
 ErrMax= 2.19D-03  0.00D+00 EMaxC= 1.00D-01 BMatC= 6.71D-04 BMatP= 1.78D-02
 IDIUse=3 WtCom= 9.78D-01 WtEn= 2.19D-02
 Coeff-Com: -0.231D-02 0.293D-02 0.927D-03-0.807D-02-0.116D-01 0.139D+00
 Coeff-Com:  0.240D+00 0.638D+00
 Coeff-En:   0.000D+00 0.000D+00 0.000D+00 0.000D+00 0.000D+00 0.000D+00
 Coeff-En:   0.000D+00 0.100D+01
 Coeff:     -0.226D-02 0.286D-02 0.906D-03-0.789D-02-0.114D-01 0.136D+00
 Coeff:      0.235D+00 0.646D+00
 Gap=     0.189 Goal=   None    Shift=    0.000
 RMSDP=8.13D-04 MaxDP=8.08D-02 DE=-1.27D-02 OVMax= 9.26D-03

 Cycle   9  Pass 1  IDiag  1:
 RMSU=  3.81D-04    CP:  4.54D-03  1.39D-01  3.78D-01  8.17D-01  7.61D-01
                    CP:  9.76D-01  5.59D-01  1.04D+00
 E= -3010.58095084227     Delta-E=       -0.000628671321 Rises=F Damp=F
 DIIS: error= 7.47D-04 at cycle   9 NSaved=   9.
 NSaved= 9 IEnMin= 9 EnMin= -3010.58095084227     IErMin= 9 ErrMin= 7.47D-04
 ErrMax= 7.47D-04  0.00D+00 EMaxC= 1.00D-01 BMatC= 9.53D-05 BMatP= 6.71D-04
 IDIUse=3 WtCom= 9.93D-01 WtEn= 7.47D-03
 Coeff-Com: -0.244D-02 0.352D-02-0.178D-03-0.792D-02-0.146D-01 0.147D-01
 Coeff-Com:  0.503D-01 0.273D+00 0.683D+00
 Coeff-En:   0.000D+00 0.000D+00 0.000D+00 0.000D+00 0.000D+00 0.000D+00
 Coeff-En:   0.000D+00 0.000D+00 0.100D+01
 Coeff:     -0.243D-02 0.349D-02-0.176D-03-0.786D-02-0.144D-01 0.145D-01
 Coeff:      0.500D-01 0.271D+00 0.686D+00
 Gap=     0.189 Goal=   None    Shift=    0.000
 RMSDP=5.49D-04 MaxDP=6.68D-02 DE=-6.29D-04 OVMax= 6.39D-03

 Cycle  10  Pass 1  IDiag  1:
 RMSU=  1.54D-04    CP:  4.52D-03  1.38D-01  3.78D-01  8.18D-01  7.61D-01
                    CP:  9.85D-01  5.48D-01  1.25D+00  1.06D+00
 E= -3010.58111256461     Delta-E=       -0.000161722342 Rises=F Damp=F
 DIIS: error= 3.09D-04 at cycle  10 NSaved=  10.
 NSaved=10 IEnMin=10 EnMin= -3010.58111256461     IErMin=10 ErrMin= 3.09D-04
 ErrMax= 3.09D-04  0.00D+00 EMaxC= 1.00D-01 BMatC= 2.00D-05 BMatP= 9.53D-05
 IDIUse=3 WtCom= 9.97D-01 WtEn= 3.09D-03
 Coeff-Com: -0.813D-03 0.110D-02 0.251D-03-0.850D-04-0.430D-03-0.201D-01
 Coeff-Com: -0.380D-01-0.126D+00 0.171D-01 0.117D+01
 Coeff-En:   0.000D+00 0.000D+00 0.000D+00 0.000D+00 0.000D+00 0.000D+00
 Coeff-En:   0.000D+00 0.000D+00 0.000D+00 0.100D+01
 Coeff:     -0.811D-03 0.109D-02 0.250D-03-0.847D-04-0.428D-03-0.200D-01
 Coeff:     -0.379D-01-0.125D+00 0.170D-01 0.117D+01
 Gap=     0.191 Goal=   None    Shift=    0.000
 RMSDP=6.81D-04 MaxDP=7.32D-02 DE=-1.62D-04 OVMax= 8.99D-03

 Cycle  11  Pass 1  IDiag  1:
 RMSU=  1.20D-04    CP:  4.50D-03  1.37D-01  3.80D-01  8.17D-01  7.54D-01
                    CP:  9.91D-01  5.29D-01  1.43D+00  1.38D+00  1.98D+00
 E= -3010.58120924164     Delta-E=       -0.000096677029 Rises=F Damp=F
 DIIS: error= 1.67D-04 at cycle  11 NSaved=  11.
 NSaved=11 IEnMin=11 EnMin= -3010.58120924164     IErMin=11 ErrMin= 1.67D-04
 ErrMax= 1.67D-04  0.00D+00 EMaxC= 1.00D-01 BMatC= 6.01D-06 BMatP= 2.00D-05
 IDIUse=3 WtCom= 9.98D-01 WtEn= 1.67D-03
 Coeff-Com: -0.238D-03 0.272D-03 0.197D-03 0.112D-02 0.228D-02-0.567D-02
 Coeff-Com: -0.119D-01-0.814D-01-0.170D+00 0.250D+00 0.101D+01
 Coeff-En:   0.000D+00 0.000D+00 0.000D+00 0.000D+00 0.000D+00 0.000D+00
 Coeff-En:   0.000D+00 0.000D+00 0.000D+00 0.000D+00 0.100D+01
 Coeff:     -0.238D-03 0.271D-03 0.196D-03 0.111D-02 0.228D-02-0.566D-02
 Coeff:     -0.119D-01-0.813D-01-0.169D+00 0.250D+00 0.101D+01
 Gap=     0.191 Goal=   None    Shift=    0.000
 RMSDP=2.99D-04 MaxDP=2.62D-02 DE=-9.67D-05 OVMax= 6.14D-03

 Cycle  12  Pass 1  IDiag  1:
 RMSU=  6.88D-05    CP:  4.49D-03  1.36D-01  3.81D-01  8.17D-01  7.51D-01
                    CP:  9.89D-01  5.22D-01  1.51D+00  1.54D+00  2.68D+00
                    CP:  1.48D+00
 E= -3010.58124169522     Delta-E=       -0.000032453582 Rises=F Damp=F
 DIIS: error= 9.80D-05 at cycle  12 NSaved=  12.
 NSaved=12 IEnMin=12 EnMin= -3010.58124169522     IErMin=12 ErrMin= 9.80D-05
 ErrMax= 9.80D-05  0.00D+00 EMaxC= 1.00D-01 BMatC= 1.43D-06 BMatP= 6.01D-06
 IDIUse=1 WtCom= 1.00D+00 WtEn= 0.00D+00
 Coeff-Com:  0.394D-04-0.290D-04 0.108D-03 0.329D-03 0.114D-02 0.272D-02
 Coeff-Com:  0.515D-02-0.114D-01-0.686D-01-0.162D+00 0.350D+00 0.882D+00
 Coeff:      0.394D-04-0.290D-04 0.108D-03 0.329D-03 0.114D-02 0.272D-02
 Coeff:      0.515D-02-0.114D-01-0.686D-01-0.162D+00 0.350D+00 0.882D+00
 Gap=     0.191 Goal=   None    Shift=    0.000
 RMSDP=2.02D-04 MaxDP=2.04D-02 DE=-3.25D-05 OVMax= 3.86D-03

 Cycle  13  Pass 1  IDiag  1:
 RMSU=  2.81D-05    CP:  4.48D-03  1.36D-01  3.82D-01  8.16D-01  7.50D-01
                    CP:  9.89D-01  5.16D-01  1.54D+00  1.62D+00  3.00D+00
                    CP:  2.02D+00  1.45D+00
 E= -3010.58125245546     Delta-E=       -0.000010760233 Rises=F Damp=F
 DIIS: error= 4.83D-05 at cycle  13 NSaved=  13.
 NSaved=13 IEnMin=13 EnMin= -3010.58125245546     IErMin=13 ErrMin= 4.83D-05
 ErrMax= 4.83D-05  0.00D+00 EMaxC= 1.00D-01 BMatC= 3.85D-07 BMatP= 1.43D-06
 IDIUse=1 WtCom= 1.00D+00 WtEn= 0.00D+00
 Coeff-Com:  0.321D-04-0.425D-04-0.547D-04-0.272D-03-0.109D-03 0.251D-02
 Coeff-Com:  0.586D-02 0.165D-01 0.307D-01-0.107D+00-0.176D+00 0.262D+00
 Coeff-Com:  0.966D+00
 Coeff:      0.321D-04-0.425D-04-0.547D-04-0.272D-03-0.109D-03 0.251D-02
 Coeff:      0.586D-02 0.165D-01 0.307D-01-0.107D+00-0.176D+00 0.262D+00
 Coeff:      0.966D+00
 Gap=     0.191 Goal=   None    Shift=    0.000
 RMSDP=8.80D-05 MaxDP=5.64D-03 DE=-1.08D-05 OVMax= 2.41D-03

 Cycle  14  Pass 1  IDiag  1:
 RMSU=  2.72D-05    CP:  4.48D-03  1.36D-01  3.82D-01  8.16D-01  7.49D-01
                    CP:  9.89D-01  5.13D-01  1.55D+00  1.65D+00  3.00D+00
                    CP:  2.39D+00  1.94D+00  1.98D+00
 E= -3010.58125663232     Delta-E=       -0.000004176869 Rises=F Damp=F
 DIIS: error= 2.68D-05 at cycle  14 NSaved=  14.
 NSaved=14 IEnMin=14 EnMin= -3010.58125663232     IErMin=14 ErrMin= 2.68D-05
 ErrMax= 2.68D-05  0.00D+00 EMaxC= 1.00D-01 BMatC= 1.77D-07 BMatP= 3.85D-07
 IDIUse=1 WtCom= 1.00D+00 WtEn= 0.00D+00
 Coeff-Com:  0.572D-04-0.796D-04-0.472D-04-0.131D-03-0.406D-03-0.603D-03
 Coeff-Com:  0.822D-03 0.110D-01 0.300D-01 0.380D-02-0.131D+00-0.696D-01
 Coeff-Com:  0.188D+00 0.968D+00
 Coeff:      0.572D-04-0.796D-04-0.472D-04-0.131D-03-0.406D-03-0.603D-03
 Coeff:      0.822D-03 0.110D-01 0.300D-01 0.380D-02-0.131D+00-0.696D-01
 Coeff:      0.188D+00 0.968D+00
 Gap=     0.191 Goal=   None    Shift=    0.000
 RMSDP=3.93D-05 MaxDP=2.31D-03 DE=-4.18D-06 OVMax= 1.22D-03

 Cycle  15  Pass 1  IDiag  1:
 RMSU=  9.43D-06    CP:  4.48D-03  1.36D-01  3.82D-01  8.16D-01  7.49D-01
                    CP:  9.89D-01  5.11D-01  1.56D+00  1.66D+00  3.00D+00
                    CP:  2.57D+00  2.18D+00  2.51D+00  1.35D+00
 E= -3010.58125815184     Delta-E=       -0.000001519516 Rises=F Damp=F
 DIIS: error= 1.68D-05 at cycle  15 NSaved=  15.
 NSaved=15 IEnMin=15 EnMin= -3010.58125815184     IErMin=15 ErrMin= 1.68D-05
 ErrMax= 1.68D-05  0.00D+00 EMaxC= 1.00D-01 BMatC= 9.97D-08 BMatP= 1.77D-07
 IDIUse=1 WtCom= 1.00D+00 WtEn= 0.00D+00
 Coeff-Com:  0.525D-04-0.707D-04-0.227D-04 0.491D-04-0.222D-03-0.173D-02
 Coeff-Com: -0.202D-02-0.188D-02-0.362D-02 0.412D-01 0.338D-01-0.600D-01
 Coeff-Com: -0.431D+00 0.230D+00 0.120D+01
 Coeff:      0.525D-04-0.707D-04-0.227D-04 0.491D-04-0.222D-03-0.173D-02
 Coeff:     -0.202D-02-0.188D-02-0.362D-02 0.412D-01 0.338D-01-0.600D-01
 Coeff:     -0.431D+00 0.230D+00 0.120D+01
 Gap=     0.191 Goal=   None    Shift=    0.000
 RMSDP=3.72D-05 MaxDP=2.41D-03 DE=-1.52D-06 OVMax= 1.19D-03

 Cycle  16  Pass 1  IDiag  1:
 RMSU=  5.32D-06    CP:  4.48D-03  1.36D-01  3.83D-01  8.16D-01  7.49D-01
                    CP:  9.90D-01  5.08D-01  1.57D+00  1.67D+00  3.00D+00
                    CP:  2.75D+00  2.41D+00  2.91D+00  1.78D+00  1.94D+00
 E= -3010.58125913210     Delta-E=       -0.000000980260 Rises=F Damp=F
 DIIS: error= 9.10D-06 at cycle  16 NSaved=  16.
 NSaved=16 IEnMin=16 EnMin= -3010.58125913210     IErMin=16 ErrMin= 9.10D-06
 ErrMax= 9.10D-06  0.00D+00 EMaxC= 1.00D-01 BMatC= 2.77D-08 BMatP= 9.97D-08
 IDIUse=1 WtCom= 1.00D+00 WtEn= 0.00D+00
 Coeff-Com:  0.857D-05-0.123D-04-0.670D-05 0.107D-04 0.453D-04 0.539D-03
 Coeff-Com:  0.562D-03-0.268D-02-0.125D-01-0.252D-01 0.452D-01 0.968D-01
 Coeff-Com: -0.633D-01-0.553D+00 0.249D-01 0.149D+01
 Coeff:      0.857D-05-0.123D-04-0.670D-05 0.107D-04 0.453D-04 0.539D-03
 Coeff:      0.562D-03-0.268D-02-0.125D-01-0.252D-01 0.452D-01 0.968D-01
 Coeff:     -0.633D-01-0.553D+00 0.249D-01 0.149D+01
 Gap=     0.191 Goal=   None    Shift=    0.000
 RMSDP=3.70D-05 MaxDP=2.11D-03 DE=-9.80D-07 OVMax= 1.17D-03

 Cycle  17  Pass 1  IDiag  1:
 RMSU=  1.12D-05    CP:  4.48D-03  1.36D-01  3.83D-01  8.16D-01  7.49D-01
                    CP:  9.90D-01  5.06D-01  1.58D+00  1.68D+00  3.00D+00
                    CP:  2.89D+00  2.61D+00  3.00D+00  2.17D+00  2.61D+00
                    CP:  1.67D+00
 E= -3010.58125956135     Delta-E=       -0.000000429247 Rises=F Damp=F
 DIIS: error= 4.03D-06 at cycle  17 NSaved=  17.
 NSaved=17 IEnMin=17 EnMin= -3010.58125956135     IErMin=17 ErrMin= 4.03D-06
 ErrMax= 4.03D-06  0.00D+00 EMaxC= 1.00D-01 BMatC= 2.93D-09 BMatP= 2.77D-08
 IDIUse=1 WtCom= 1.00D+00 WtEn= 0.00D+00
 Coeff-Com: -0.208D-05 0.284D-05 0.894D-06-0.797D-05 0.163D-04 0.437D-03
 Coeff-Com:  0.452D-03-0.311D-03-0.258D-02-0.133D-01 0.237D-02 0.286D-01
 Coeff-Com:  0.465D-01-0.154D+00-0.134D+00 0.342D+00 0.884D+00
 Coeff:     -0.208D-05 0.284D-05 0.894D-06-0.797D-05 0.163D-04 0.437D-03
 Coeff:      0.452D-03-0.311D-03-0.258D-02-0.133D-01 0.237D-02 0.286D-01
 Coeff:      0.465D-01-0.154D+00-0.134D+00 0.342D+00 0.884D+00
 Gap=     0.191 Goal=   None    Shift=    0.000
 RMSDP=9.59D-06 MaxDP=8.84D-04 DE=-4.29D-07 OVMax= 2.41D-04

 Cycle  18  Pass 1  IDiag  1:
 RMSU=  1.62D-06    CP:  4.48D-03  1.36D-01  3.83D-01  8.16D-01  7.49D-01
                    CP:  9.90D-01  5.05D-01  1.58D+00  1.68D+00  3.00D+00
                    CP:  2.92D+00  2.65D+00  3.00D+00  2.25D+00  2.71D+00
                    CP:  1.73D+00  1.28D+00
 E= -3010.58125958809     Delta-E=       -0.000000026743 Rises=F Damp=F
 DIIS: error= 2.91D-06 at cycle  18 NSaved=  18.
 NSaved=18 IEnMin=18 EnMin= -3010.58125958809     IErMin=18 ErrMin= 2.91D-06
 ErrMax= 2.91D-06  0.00D+00 EMaxC= 1.00D-01 BMatC= 1.24D-09 BMatP= 2.93D-09
 IDIUse=1 WtCom= 1.00D+00 WtEn= 0.00D+00
 Coeff-Com: -0.155D-05 0.250D-05 0.140D-05-0.343D-06-0.953D-06 0.525D-04
 Coeff-Com: -0.551D-04 0.149D-03 0.751D-03 0.564D-03-0.785D-02-0.104D-01
 Coeff-Com:  0.137D-01 0.495D-01-0.663D-02-0.129D+00 0.218D+00 0.871D+00
 Coeff:     -0.155D-05 0.250D-05 0.140D-05-0.343D-06-0.953D-06 0.525D-04
 Coeff:     -0.551D-04 0.149D-03 0.751D-03 0.564D-03-0.785D-02-0.104D-01
 Coeff:      0.137D-01 0.495D-01-0.663D-02-0.129D+00 0.218D+00 0.871D+00
 Gap=     0.191 Goal=   None    Shift=    0.000
 RMSDP=3.55D-06 MaxDP=4.05D-04 DE=-2.67D-08 OVMax= 7.62D-05

 Cycle  19  Pass 1  IDiag  1:
 RMSU=  8.04D-07    CP:  4.48D-03  1.36D-01  3.83D-01  8.16D-01  7.49D-01
                    CP:  9.90D-01  5.05D-01  1.58D+00  1.69D+00  3.00D+00
                    CP:  2.92D+00  2.66D+00  3.00D+00  2.26D+00  2.68D+00
                    CP:  1.71D+00  1.37D+00  1.54D+00
 E= -3010.58125959243     Delta-E=       -0.000000004341 Rises=F Damp=F
 DIIS: error= 2.14D-06 at cycle  19 NSaved=  19.
 NSaved=19 IEnMin=19 EnMin= -3010.58125959243     IErMin=19 ErrMin= 2.14D-06
 ErrMax= 2.14D-06  0.00D+00 EMaxC= 1.00D-01 BMatC= 3.63D-10 BMatP= 1.24D-09
 IDIUse=1 WtCom= 1.00D+00 WtEn= 0.00D+00
 Coeff-Com: -0.163D-05 0.213D-05 0.129D-05 0.683D-05 0.346D-05-0.750D-04
 Coeff-Com: -0.197D-03-0.772D-04 0.122D-03 0.372D-02 0.488D-03-0.820D-02
 Coeff-Com: -0.186D-01 0.374D-01 0.423D-01-0.814D-01-0.162D+00 0.186D+00
 Coeff-Com:  0.100D+01
 Coeff:     -0.163D-05 0.213D-05 0.129D-05 0.683D-05 0.346D-05-0.750D-04
 Coeff:     -0.197D-03-0.772D-04 0.122D-03 0.372D-02 0.488D-03-0.820D-02
 Coeff:     -0.186D-01 0.374D-01 0.423D-01-0.814D-01-0.162D+00 0.186D+00
 Coeff:      0.100D+01
 Gap=     0.191 Goal=   None    Shift=    0.000
 RMSDP=1.65D-06 MaxDP=1.40D-04 DE=-4.34D-09 OVMax= 5.52D-05

 Cycle  20  Pass 1  IDiag  1:
 RMSU=  4.10D-07    CP:  4.48D-03  1.36D-01  3.83D-01  8.16D-01  7.49D-01
                    CP:  9.90D-01  5.05D-01  1.58D+00  1.69D+00  3.00D+00
                    CP:  2.92D+00  2.66D+00  3.00D+00  2.25D+00  2.71D+00
                    CP:  1.75D+00  1.39D+00  1.87D+00  1.82D+00
 E= -3010.58125959468     Delta-E=       -0.000000002252 Rises=F Damp=F
 DIIS: error= 1.45D-06 at cycle  20 NSaved=  20.
 NSaved=20 IEnMin=20 EnMin= -3010.58125959468     IErMin=20 ErrMin= 1.45D-06
 ErrMax= 1.45D-06  0.00D+00 EMaxC= 1.00D-01 BMatC= 1.27D-10 BMatP= 3.63D-10
 IDIUse=1 WtCom= 1.00D+00 WtEn= 0.00D+00
 Coeff-Com: -0.222D-06 0.210D-06 0.413D-09 0.143D-06 0.697D-05 0.129D-04
 Coeff-Com: -0.262D-04-0.196D-03-0.642D-03-0.403D-03 0.372D-02 0.538D-02
 Coeff-Com: -0.369D-02-0.332D-01-0.721D-02 0.900D-01-0.668D-01-0.410D+00
 Coeff-Com: -0.626D-01 0.149D+01
 Coeff:     -0.222D-06 0.210D-06 0.413D-09 0.143D-06 0.697D-05 0.129D-04
 Coeff:     -0.262D-04-0.196D-03-0.642D-03-0.403D-03 0.372D-02 0.538D-02
 Coeff:     -0.369D-02-0.332D-01-0.721D-02 0.900D-01-0.668D-01-0.410D+00
 Coeff:     -0.626D-01 0.149D+01
 Gap=     0.191 Goal=   None    Shift=    0.000
 RMSDP=2.03D-06 MaxDP=1.80D-04 DE=-2.25D-09 OVMax= 6.18D-05

 Cycle  21  Pass 1  IDiag  1:
 Restarting incremental Fock formation.
 E= -3010.58125959600     Delta-E=       -0.000000001315 Rises=F Damp=F
 DIIS: error= 3.81D-07 at cycle  21 NSaved=  20.
 NSaved=20 IEnMin=20 EnMin= -3010.58125959600     IErMin=20 ErrMin= 3.81D-07
 ErrMax= 3.81D-07  0.00D+00 EMaxC= 1.00D-01 BMatC= 1.38D-11 BMatP= 1.27D-10
 IDIUse=1 WtCom= 1.00D+00 WtEn= 0.00D+00
 Coeff-Com:  0.116D-06-0.164D-06-0.827D-06 0.562D-06 0.171D-04 0.175D-04
 Coeff-Com: -0.363D-07-0.115D-03-0.590D-03 0.670D-03 0.173D-02 0.318D-02
 Coeff-Com: -0.124D-01-0.945D-02 0.260D-01 0.238D-01-0.438D-01-0.193D+00
 Coeff-Com:  0.133D+00 0.107D+01
 Coeff:      0.116D-06-0.164D-06-0.827D-06 0.562D-06 0.171D-04 0.175D-04
 Coeff:     -0.363D-07-0.115D-03-0.590D-03 0.670D-03 0.173D-02 0.318D-02
 Coeff:     -0.124D-01-0.945D-02 0.260D-01 0.238D-01-0.438D-01-0.193D+00
 Coeff:      0.133D+00 0.107D+01
 Gap=     0.191 Goal=   None    Shift=    0.000
 RMSDP=6.34D-07 MaxDP=5.12D-05 DE=-1.31D-09 OVMax= 1.97D-05

 Cycle  22  Pass 1  IDiag  1:
 RMSU=  6.23D-07    CP:  1.00D+00
 E= -3010.58125959608     Delta-E=       -0.000000000080 Rises=F Damp=F
 DIIS: error= 1.40D-07 at cycle  22 NSaved=  20.
 NSaved=20 IEnMin=20 EnMin= -3010.58125959608     IErMin=20 ErrMin= 1.40D-07
 ErrMax= 1.40D-07  0.00D+00 EMaxC= 1.00D-01 BMatC= 2.66D-12 BMatP= 1.38D-11
 IDIUse=1 WtCom= 1.00D+00 WtEn= 0.00D+00
 Coeff-Com:  0.147D-08 0.296D-07-0.556D-06 0.629D-06 0.150D-05 0.473D-04
 Coeff-Com:  0.509D-04-0.571D-04-0.292D-03-0.415D-03 0.115D-02 0.342D-02
 Coeff-Com: -0.647D-03-0.112D-01 0.570D-02 0.507D-01-0.112D-01-0.164D+00
 Coeff-Com:  0.133D+00 0.993D+00
 Coeff:      0.147D-08 0.296D-07-0.556D-06 0.629D-06 0.150D-05 0.473D-04
 Coeff:      0.509D-04-0.571D-04-0.292D-03-0.415D-03 0.115D-02 0.342D-02
 Coeff:     -0.647D-03-0.112D-01 0.570D-02 0.507D-01-0.112D-01-0.164D+00
 Coeff:      0.133D+00 0.993D+00
 Gap=     0.191 Goal=   None    Shift=    0.000
 RMSDP=3.03D-07 MaxDP=2.27D-05 DE=-8.00D-11 OVMax= 6.44D-06

 Cycle  23  Pass 1  IDiag  1:
 RMSU=  1.47D-07    CP:  1.00D+00  1.41D+00
 E= -3010.58125959606     Delta-E=        0.000000000017 Rises=F Damp=F
 DIIS: error= 6.27D-08 at cycle  23 NSaved=  20.
 NSaved=20 IEnMin=19 EnMin= -3010.58125959608     IErMin=20 ErrMin= 6.27D-08
 ErrMax= 6.27D-08  0.00D+00 EMaxC= 1.00D-01 BMatC= 8.10D-13 BMatP= 2.66D-12
 IDIUse=1 WtCom= 1.00D+00 WtEn= 0.00D+00
 Coeff-Com: -0.129D-07-0.589D-06-0.328D-05-0.590D-05 0.187D-04 0.474D-04
 Coeff-Com:  0.167D-03-0.301D-03-0.680D-03-0.317D-03 0.419D-02 0.176D-02
 Coeff-Com: -0.971D-02-0.261D-02 0.312D-01 0.448D-01-0.988D-01-0.218D+00
 Coeff-Com:  0.344D+00 0.905D+00
 Coeff:     -0.129D-07-0.589D-06-0.328D-05-0.590D-05 0.187D-04 0.474D-04
 Coeff:      0.167D-03-0.301D-03-0.680D-03-0.317D-03 0.419D-02 0.176D-02
 Coeff:     -0.971D-02-0.261D-02 0.312D-01 0.448D-01-0.988D-01-0.218D+00
 Coeff:      0.344D+00 0.905D+00
 Gap=     0.191 Goal=   None    Shift=    0.000
 RMSDP=1.29D-07 MaxDP=1.19D-05 DE= 1.68D-11 OVMax= 2.88D-06

 Cycle  24  Pass 1  IDiag  1:
 RMSU=  4.59D-08    CP:  1.00D+00  1.55D+00  1.36D+00
 E= -3010.58125959609     Delta-E=       -0.000000000024 Rises=F Damp=F
 DIIS: error= 2.85D-08 at cycle  24 NSaved=  20.
 NSaved=20 IEnMin=20 EnMin= -3010.58125959609     IErMin=20 ErrMin= 2.85D-08
 ErrMax= 2.85D-08  0.00D+00 EMaxC= 1.00D-01 BMatC= 1.39D-13 BMatP= 8.10D-13
 IDIUse=1 WtCom= 1.00D+00 WtEn= 0.00D+00
 Coeff-Com:  0.477D-07-0.485D-07-0.680D-06-0.699D-05-0.105D-04-0.531D-05
 Coeff-Com:  0.630D-04 0.155D-03-0.347D-03-0.794D-03 0.204D-03 0.301D-02
 Coeff-Com: -0.227D-02-0.170D-01 0.307D-02 0.474D-01-0.171D-01-0.305D+00
 Coeff-Com: -0.146D-01 0.130D+01
 Coeff:      0.477D-07-0.485D-07-0.680D-06-0.699D-05-0.105D-04-0.531D-05
 Coeff:      0.630D-04 0.155D-03-0.347D-03-0.794D-03 0.204D-03 0.301D-02
 Coeff:     -0.227D-02-0.170D-01 0.307D-02 0.474D-01-0.171D-01-0.305D+00
 Coeff:     -0.146D-01 0.130D+01
 Gap=     0.191 Goal=   None    Shift=    0.000
 RMSDP=8.48D-08 MaxDP=6.67D-06 DE=-2.36D-11 OVMax= 1.96D-06

 Cycle  25  Pass 1  IDiag  1:
 RMSU=  2.45D-08    CP:  1.00D+00  1.63D+00  1.69D+00  1.64D+00
 E= -3010.58125959610     Delta-E=       -0.000000000012 Rises=F Damp=F
 DIIS: error= 9.78D-09 at cycle  25 NSaved=  20.
 NSaved=20 IEnMin=20 EnMin= -3010.58125959610     IErMin=20 ErrMin= 9.78D-09
 ErrMax= 9.78D-09  0.00D+00 EMaxC= 1.00D-01 BMatC= 1.99D-14 BMatP= 1.39D-13
 IDIUse=1 WtCom= 1.00D+00 WtEn= 0.00D+00
 Coeff-Com:  0.301D-06 0.619D-06-0.288D-05-0.613D-05-0.177D-04 0.283D-04
 Coeff-Com:  0.689D-04 0.149D-05-0.427D-03-0.792D-04 0.103D-02 0.608D-03
 Coeff-Com: -0.356D-02-0.538D-02 0.678D-02 0.340D-01-0.262D-01-0.136D+00
 Coeff-Com: -0.981D-01 0.123D+01
 Coeff:      0.301D-06 0.619D-06-0.288D-05-0.613D-05-0.177D-04 0.283D-04
 Coeff:      0.689D-04 0.149D-05-0.427D-03-0.792D-04 0.103D-02 0.608D-03
 Coeff:     -0.356D-02-0.538D-02 0.678D-02 0.340D-01-0.262D-01-0.136D+00
 Coeff:     -0.981D-01 0.123D+01
 Gap=     0.191 Goal=   None    Shift=    0.000
 RMSDP=3.07D-08 MaxDP=3.31D-06 DE=-1.23D-11 OVMax= 5.70D-07

 Cycle  26  Pass 1  IDiag  1:
 RMSU=  9.58D-09    CP:  1.00D+00  1.63D+00  1.73D+00  1.97D+00  1.66D+00
 E= -3010.58125959611     Delta-E=       -0.000000000012 Rises=F Damp=F
 DIIS: error= 3.61D-09 at cycle  26 NSaved=  20.
 NSaved=20 IEnMin=20 EnMin= -3010.58125959611     IErMin=20 ErrMin= 3.61D-09
 ErrMax= 3.61D-09  0.00D+00 EMaxC= 1.00D-01 BMatC= 4.03D-15 BMatP= 1.99D-14
 IDIUse=1 WtCom= 1.00D+00 WtEn= 0.00D+00
 Large coefficients: NSaved= 20 BigCof=    0.00 CofMax=   10.00 Det=-6.07D-15
 Inversion failed.  Reducing to 19 matrices.
 Large coefficients: NSaved= 19 BigCof=    0.00 CofMax=   10.00 Det=-6.28D-15
 Inversion failed.  Reducing to 18 matrices.
 Large coefficients: NSaved= 18 BigCof=    0.00 CofMax=   10.00 Det=-7.02D-15
 Inversion failed.  Reducing to 17 matrices.
 Large coefficients: NSaved= 17 BigCof=    0.00 CofMax=   10.00 Det=-7.10D-15
 Inversion failed.  Reducing to 16 matrices.
 Large coefficients: NSaved= 16 BigCof=    0.00 CofMax=   10.00 Det=-7.10D-15
 Inversion failed.  Reducing to 15 matrices.
 Coeff-Com: -0.110D-04 0.129D-04 0.463D-04 0.211D-04-0.271D-03 0.361D-03
 Coeff-Com:  0.145D-02-0.891D-03-0.605D-02 0.869D-02 0.511D-01-0.218D-01
 Coeff-Com: -0.245D+00 0.273D+00 0.940D+00
 Coeff:     -0.110D-04 0.129D-04 0.463D-04 0.211D-04-0.271D-03 0.361D-03
 Coeff:      0.145D-02-0.891D-03-0.605D-02 0.869D-02 0.511D-01-0.218D-01
 Coeff:     -0.245D+00 0.273D+00 0.940D+00
 Gap=     0.191 Goal=   None    Shift=    0.000
 RMSDP=1.07D-08 MaxDP=9.20D-07 DE=-1.23D-11 OVMax= 1.44D-07

 Cycle  27  Pass 1  IDiag  1:
 RMSU=  2.86D-09    CP:  1.00D+00  1.63D+00  1.71D+00  2.09D+00  1.87D+00
                    CP:  1.53D+00
 E= -3010.58125959607     Delta-E=        0.000000000036 Rises=F Damp=F
 DIIS: error= 1.90D-09 at cycle  27 NSaved=  16.
 NSaved=16 IEnMin=15 EnMin= -3010.58125959611     IErMin=16 ErrMin= 1.90D-09
 ErrMax= 1.90D-09  0.00D+00 EMaxC= 1.00D-01 BMatC= 6.42D-16 BMatP= 4.03D-15
 IDIUse=1 WtCom= 1.00D+00 WtEn= 0.00D+00
 Large coefficients: NSaved= 16 BigCof=    0.00 CofMax=   10.00 Det=-2.38D-15
 Inversion failed.  Reducing to 15 matrices.
 Coeff-Com: -0.551D-05 0.147D-04 0.171D-04-0.869D-04 0.176D-03 0.593D-03
 Coeff-Com:  0.155D-03-0.231D-02-0.184D-02 0.967D-02 0.620D-02-0.378D-01
 Coeff-Com: -0.843D-01 0.213D+00 0.896D+00
 Coeff:     -0.551D-05 0.147D-04 0.171D-04-0.869D-04 0.176D-03 0.593D-03
 Coeff:      0.155D-03-0.231D-02-0.184D-02 0.967D-02 0.620D-02-0.378D-01
 Coeff:     -0.843D-01 0.213D+00 0.896D+00
 Gap=     0.191 Goal=   None    Shift=    0.000
 RMSDP=3.73D-09 MaxDP=2.97D-07 DE= 3.59D-11 OVMax= 9.07D-08

 SCF Done:  E(RwB97XD) =  -3010.58125960     A.U. after   27 cycles
            NFock= 27  Conv=0.37D-08     -V/T= 2.0016
 KE= 3.005815009847D+03 PE=-8.689355638101D+03 EE= 1.909244678409D+03
 Leave Link  502 at Thu May  2 14:26:32 2024, MaxMem=   134217728 cpu:            1677.0 elap:            1679.7
 (Enter /software/gaussian/g16-c01/sse4/g16/l601.exe)
 Copying SCF densities to generalized density rwf, IOpCl= 0 IROHF=0.

 **********************************************************************

            Population analysis using the SCF Density.

 **********************************************************************

 Alpha  occ. eigenvalues -- -483.23912 -62.78906 -56.58616 -56.58032 -56.58009
 Alpha  occ. eigenvalues --  -19.33205 -19.33024 -14.72807 -10.51702 -10.51413
 Alpha  occ. eigenvalues --  -10.51076 -10.50497 -10.48134 -10.45505  -8.94689
 Alpha  occ. eigenvalues --   -6.77408  -6.75495  -6.75425  -2.87302  -2.86809
 Alpha  occ. eigenvalues --   -2.86753  -2.85222  -2.85221  -1.36878  -1.19676
 Alpha  occ. eigenvalues --   -1.15550  -1.06178  -1.04998  -0.97433  -0.91990
 Alpha  occ. eigenvalues --   -0.88726  -0.83412  -0.77631  -0.73272  -0.71778
 Alpha  occ. eigenvalues --   -0.69685  -0.69283  -0.67850  -0.64745  -0.63201
 Alpha  occ. eigenvalues --   -0.62348  -0.60373  -0.57071  -0.52398  -0.48604
 Alpha  occ. eigenvalues --   -0.47763  -0.43894  -0.42314  -0.42218
 Alpha virt. eigenvalues --   -0.23148  -0.12896  -0.12053  -0.08262  -0.08074
 Alpha virt. eigenvalues --   -0.05289  -0.04164  -0.02788  -0.00732  -0.00114
 Alpha virt. eigenvalues --    0.01233   0.02101   0.03911   0.04513   0.05415
 Alpha virt. eigenvalues --    0.05820   0.07523   0.07840   0.08027   0.09314
 Alpha virt. eigenvalues --    0.09584   0.10506   0.11387   0.12283   0.12678
 Alpha virt. eigenvalues --    0.13942   0.14445   0.14561   0.15558   0.16580
 Alpha virt. eigenvalues --    0.17252   0.17536   0.18606   0.19321   0.19852
 Alpha virt. eigenvalues --    0.21918   0.22416   0.22659   0.24111   0.25193
 Alpha virt. eigenvalues --    0.25980   0.26902   0.27812   0.28512   0.29455
 Alpha virt. eigenvalues --    0.31413   0.33242   0.33559   0.34697   0.36429
 Alpha virt. eigenvalues --    0.37369   0.38159   0.39495   0.39779   0.41387
 Alpha virt. eigenvalues --    0.41928   0.42592   0.43584   0.44497   0.45274
 Alpha virt. eigenvalues --    0.46005   0.47902   0.48576   0.48966   0.50310
 Alpha virt. eigenvalues --    0.50790   0.52002   0.53155   0.54329   0.56441
 Alpha virt. eigenvalues --    0.57604   0.58007   0.59381   0.60690   0.61217
 Alpha virt. eigenvalues --    0.62332   0.63824   0.65271   0.67044   0.67208
 Alpha virt. eigenvalues --    0.68665   0.70734   0.72153   0.72655   0.75126
 Alpha virt. eigenvalues --    0.75542   0.76794   0.78670   0.80473   0.81840
 Alpha virt. eigenvalues --    0.84567   0.86527   0.89460   0.91478   0.92610
 Alpha virt. eigenvalues --    0.94809   0.97760   1.00730   1.03797   1.08533
 Alpha virt. eigenvalues --    1.10150   1.11649   1.12243   1.14454   1.16785
 Alpha virt. eigenvalues --    1.20449   1.24157   1.25674   1.26837   1.30735
 Alpha virt. eigenvalues --    1.32565   1.35360   1.37316   1.40883   1.43408
 Alpha virt. eigenvalues --    1.43837   1.46776   1.50352   1.62618   1.63774
 Alpha virt. eigenvalues --    1.66724   1.67389   1.70892   1.72512   1.72899
 Alpha virt. eigenvalues --    1.78837   1.79076   1.81282   1.85358   1.86976
 Alpha virt. eigenvalues --    1.88312   1.94138   1.96132   2.02885   2.04154
 Alpha virt. eigenvalues --    2.07299   2.10654   2.11169   2.15899   2.16299
 Alpha virt. eigenvalues --    2.20180   2.21675   2.28823   2.31111   2.34786
 Alpha virt. eigenvalues --    2.40020   2.48610   2.51695   2.53253   2.59480
 Alpha virt. eigenvalues --    2.64913   2.70463   2.72629   2.75583   2.81931
 Alpha virt. eigenvalues --    2.85195   2.88367   2.88784   2.89227   2.94226
 Alpha virt. eigenvalues --    3.00423   3.07061   3.12479   3.14634   3.16219
 Alpha virt. eigenvalues --    3.20627   3.21840   3.25558   3.33506   3.36295
 Alpha virt. eigenvalues --    3.40312   3.47544   3.52330   3.58508   3.65951
 Alpha virt. eigenvalues --    3.68303   3.81885   3.87028   3.90706   3.94621
 Alpha virt. eigenvalues --    4.17534   4.18388   4.26968   4.31060   4.50936
 Alpha virt. eigenvalues --    4.58507   4.61814   4.71458   5.07254   5.10198
 Alpha virt. eigenvalues --    5.19006   5.23496   5.75169   6.28728   6.75527
 Alpha virt. eigenvalues --    7.56422   7.58730   7.68779  23.28662  23.68080
 Alpha virt. eigenvalues --   23.79337  23.84242  24.01167  24.09679  35.44340
 Alpha virt. eigenvalues --   48.01472  49.98406  50.07069 289.89079 289.91412
 Alpha virt. eigenvalues --  290.040241021.02607
          Condensed to atoms (all electrons):
               1          2          3          4          5          6
     1  C   10.292156  -3.950881   1.587264  -0.703322   0.285444   0.079558
     2  C   -3.950881  21.164518  -6.413573   0.213161   0.036029   0.128833
     3  C    1.587264  -6.413573  25.687518  -1.964577   0.034803   0.125248
     4  C   -0.703322   0.213161  -1.964577   7.559437  -0.020219  -0.008537
     5  H    0.285444   0.036029   0.034803  -0.020219   0.390360  -0.001675
     6  H    0.079558   0.128833   0.125248  -0.008537  -0.001675   0.287837
     7  H    0.063866  -0.061046   0.043019   0.271547  -0.004715  -0.000009
     8  N   -0.275915   0.177719  -2.077701   0.068392  -0.000438  -0.032016
     9  O   -0.026745   0.228643  -0.019009  -0.044356  -0.000046  -0.002914
    10  O    0.411293  -0.240496  -0.222569  -0.029548   0.000133   0.031259
    11  C    1.664014  -0.317849   3.493202  -1.307059  -0.034665   0.007280
    12  H   -0.016175  -0.001852   0.052630  -0.010607  -0.000005  -0.000015
    13  C   -3.291259  -4.906358 -14.168632   2.263728   0.027207   0.007856
    14  H   -0.005999  -0.013929  -0.057967   0.004243  -0.000030  -0.000001
    15  Br  -0.017710  -0.182631  -0.155791  -0.000752  -0.000082  -0.000281
               7          8          9         10         11         12
     1  C    0.063866  -0.275915  -0.026745   0.411293   1.664014  -0.016175
     2  C   -0.061046   0.177719   0.228643  -0.240496  -0.317849  -0.001852
     3  C    0.043019  -2.077701  -0.019009  -0.222569   3.493202   0.052630
     4  C    0.271547   0.068392  -0.044356  -0.029548  -1.307059  -0.010607
     5  H   -0.004715  -0.000438  -0.000046   0.000133  -0.034665  -0.000005
     6  H   -0.000009  -0.032016  -0.002914   0.031259   0.007280  -0.000015
     7  H    0.457988  -0.000194   0.000023  -0.000003   0.067550  -0.003792
     8  N   -0.000194   8.259246  -0.188293   0.010100  -0.739089   0.001527
     9  O    0.000023  -0.188293   7.930578   0.031869   0.469296   0.000058
    10  O   -0.000003   0.010100   0.031869   7.828511  -0.006896  -0.000022
    11  C    0.067550  -0.739089   0.469296  -0.006896  11.567947   0.243992
    12  H   -0.003792   0.001527   0.000058  -0.000022   0.243992   0.392311
    13  C   -0.052968   1.900076  -0.512585   0.013202  -9.000863   0.052942
    14  H   -0.000046  -0.025190   0.018456  -0.002128   0.110779  -0.005820
    15  Br  -0.000130   0.164336  -0.056509   0.001553   0.112848  -0.007679
              13         14         15
     1  C   -3.291259  -0.005999  -0.017710
     2  C   -4.906358  -0.013929  -0.182631
     3  C  -14.168632  -0.057967  -0.155791
     4  C    2.263728   0.004243  -0.000752
     5  H    0.027207  -0.000030  -0.000082
     6  H    0.007856  -0.000001  -0.000281
     7  H   -0.052968  -0.000046  -0.000130
     8  N    1.900076  -0.025190   0.164336
     9  O   -0.512585   0.018456  -0.056509
    10  O    0.013202  -0.002128   0.001553
    11  C   -9.000863   0.110779   0.112848
    12  H    0.052942  -0.005820  -0.007679
    13  C   33.538914   0.278494   0.293078
    14  H    0.278494   0.291717  -0.030565
    15  Br   0.293078  -0.030565  34.643328
 Mulliken charges:
               1
     1  C   -0.095589
     2  C    0.139712
     3  C    0.056136
     4  C   -0.291530
     5  H    0.287901
     6  H    0.377578
     7  H    0.218907
     8  N   -0.242556
     9  O    0.171533
    10  O    0.173743
    11  C   -0.330486
    12  H    0.302508
    13  C   -0.442832
    14  H    0.437988
    15  Br   0.236988
 Sum of Mulliken charges =   1.00000
 Mulliken charges with hydrogens summed into heavy atoms:
               1
     1  C    0.192311
     2  C    0.517290
     3  C    0.056136
     4  C   -0.072622
     8  N   -0.242556
     9  O    0.171533
    10  O    0.173743
    11  C   -0.027978
    13  C   -0.004844
    15  Br   0.236988
 Electronic spatial extent (au):  <R**2>=           3927.9664
 Charge=              1.0000 electrons
 Dipole moment (field-independent basis, Debye):
    X=              9.0059    Y=             -1.2150    Z=             -1.0651  Tot=              9.1497
 Quadrupole moment (field-independent basis, Debye-Ang):
   XX=            -44.2452   YY=            -50.8664   ZZ=            -61.6212
   XY=             -4.3456   XZ=             -4.2685   YZ=              3.2057
 Traceless Quadrupole moment (field-independent basis, Debye-Ang):
   XX=              7.9990   YY=              1.3779   ZZ=             -9.3770
   XY=             -4.3456   XZ=             -4.2685   YZ=              3.2057
 Octapole moment (field-independent basis, Debye-Ang**2):
  XXX=           -392.9039  YYY=             89.7868  ZZZ=             80.7475  XYY=           -122.1033
  XXY=             20.8673  XXZ=             19.7675  XZZ=           -124.6169  YZZ=             15.1022
  YYZ=             23.8865  XYZ=             11.6500
 Hexadecapole moment (field-independent basis, Debye-Ang**3):
 XXXX=          -2862.6653 YYYY=           -701.4074 ZZZZ=           -390.6177 XXXY=            173.2049
 XXXZ=            166.2581 YYYX=            175.0319 YYYZ=           -167.0895 ZZZX=            156.0773
 ZZZY=           -139.4794 XXYY=           -568.3155 XXZZ=           -498.0451 YYZZ=           -167.4260
 XXYZ=            -28.8712 YYXZ=             40.3243 ZZXY=             19.3017
 N-N= 7.637146902490D+02 E-N=-8.689355638169D+03  KE= 3.005815009847D+03
 No NMR shielding tensors so no spin-rotation constants.
 Leave Link  601 at Thu May  2 14:26:39 2024, MaxMem=   134217728 cpu:               7.1 elap:               7.1
 (Enter /software/gaussian/g16-c01/sse4/g16/l9999.exe)
 Unable to Open any file for archive entry.
 1\1\GINC-BHX0002\SP\RwB97XD\6-311+G(d)\C6H5Br1N1O2(1+)\BWEIGHT\02-May-
 2024\0\\#P wB97XD/6-311+G* NoSymm #P Field=X-214\\TitleMe\\1,1\C,0,0.5
 193,1.233,-0.0319\C,0,1.9445,1.2692,-0.0367\C,0,2.6204,0.0928,-0.025\C
 ,0,-0.196,0.0301,0.001\H,0,-0.0207,2.1742,-0.0434\H,0,2.4828,2.2089,-0
 .0361\H,0,-1.2777,0.0399,0.0117\N,0,4.0921,0.0959,0.0366\O,0,4.6393,-1
 .0217,0.1446\O,0,4.6649,1.1984,-0.0233\C,0,0.4943,-1.1671,0.021\H,0,-0
 .0325,-2.1149,0.0545\C,0,1.9629,-1.2165,-0.0211\H,0,2.4436,-1.9631,0.6
 151\Br,0,2.173,-1.9491,-1.9062\\Version=ES64L-G16RevC.01\HF=-3010.5812
 596\RMSD=3.734e-09\Dipole=-0.7860097,0.7501112,0.8301948\Quadrupole=5.
 9470891,1.0244489,-6.971538,-3.2308478,-3.1735382,2.3833649\PG=C01 [X(
 C6H5Br1N1O2)]\\@
 The archive entry for this job was punched.


 MATERIAL COPIED FROM ONE SCHOLARLY BOOK WITHOUT CREDIT COMPRISES PLAGIARISM.
 MATERIAL COPIED FROM TWO SCHOLARLY BOOKS COMPRISES AN ESSAY.
 MATERIAL COPIED FROM THREE SCHOLARLY BOOKS COMPRISES A DISSERTATION.
 MATERIAL COPIED FROM FOUR SCHOLARLY BOOKS COMPRISES A FIFTH SCHOLARLY BOOK.

                               -- C&EN, 25 FEB 1980
 Job cpu time:       0 days  0 hours 29 minutes  7.7 seconds.
 Elapsed time:       0 days  0 hours 29 minutes 10.6 seconds.
 File lengths (MBytes):  RWF=     40 Int=      0 D2E=      0 Chk=     32 Scr=      1
 Normal termination of Gaussian 16 at Thu May  2 14:26:40 2024.
