 Entering Gaussian System, Link 0=g16
 Initial command:
 /software/gaussian/g16-a03/l1.exe "/local_scratch/6484802/Gau-24643.inp" -scrdir="/local_scratch/6484802/"
 Entering Link 1 = /software/gaussian/g16-a03/l1.exe PID=     24644.
  
 Copyright (c) 1988,1990,1992,1993,1995,1998,2003,2009,2016,
            Gaussian, Inc.  All Rights Reserved.
  
 This is part of the Gaussian(R) 16 program.  It is based on
 the Gaussian(R) 09 system (copyright 2009, Gaussian, Inc.),
 the Gaussian(R) 03 system (copyright 2003, Gaussian, Inc.),
 the Gaussian(R) 98 system (copyright 1998, Gaussian, Inc.),
 the Gaussian(R) 94 system (copyright 1995, Gaussian, Inc.),
 the Gaussian 92(TM) system (copyright 1992, Gaussian, Inc.),
 the Gaussian 90(TM) system (copyright 1990, Gaussian, Inc.),
 the Gaussian 88(TM) system (copyright 1988, Gaussian, Inc.),
 the Gaussian 86(TM) system (copyright 1986, Carnegie Mellon
 University), and the Gaussian 82(TM) system (copyright 1983,
 Carnegie Mellon University). Gaussian is a federally registered
 trademark of Gaussian, Inc.
  
 This software contains proprietary and confidential information,
 including trade secrets, belonging to Gaussian, Inc.
  
 This software is provided under written license and may be
 used, copied, transmitted, or stored only in accord with that
 written license.
  
 The following legend is applicable only to US Government
 contracts under FAR:
  
                    RESTRICTED RIGHTS LEGEND
  
 Use, reproduction and disclosure by the US Government is
 subject to restrictions as set forth in subparagraphs (a)
 and (c) of the Commercial Computer Software - Restricted
 Rights clause in FAR 52.227-19.
  
 Gaussian, Inc.
 340 Quinnipiac St., Bldg. 40, Wallingford CT 06492
  
  
 ---------------------------------------------------------------
 Warning -- This program may not be used in any manner that
 competes with the business of Gaussian, Inc. or will provide
 assistance to any competitor of Gaussian, Inc.  The licensee
 of this program is prohibited from giving any competitor of
 Gaussian, Inc. access to this program.  By using this program,
 the user acknowledges that Gaussian, Inc. is engaged in the
 business of creating and licensing software in the field of
 computational chemistry and represents and warrants to the
 licensee that it is not a competitor of Gaussian, Inc. and that
 it will not use this program in any manner prohibited above.
 ---------------------------------------------------------------
  

 Cite this work as:
 Gaussian 16, Revision A.03,
 M. J. Frisch, G. W. Trucks, H. B. Schlegel, G. E. Scuseria, 
 M. A. Robb, J. R. Cheeseman, G. Scalmani, V. Barone, 
 G. A. Petersson, H. Nakatsuji, X. Li, M. Caricato, A. V. Marenich, 
 J. Bloino, B. G. Janesko, R. Gomperts, B. Mennucci, H. P. Hratchian, 
 J. V. Ortiz, A. F. Izmaylov, J. L. Sonnenberg, D. Williams-Young, 
 F. Ding, F. Lipparini, F. Egidi, J. Goings, B. Peng, A. Petrone, 
 T. Henderson, D. Ranasinghe, V. G. Zakrzewski, J. Gao, N. Rega, 
 G. Zheng, W. Liang, M. Hada, M. Ehara, K. Toyota, R. Fukuda, 
 J. Hasegawa, M. Ishida, T. Nakajima, Y. Honda, O. Kitao, H. Nakai, 
 T. Vreven, K. Throssell, J. A. Montgomery, Jr., J. E. Peralta, 
 F. Ogliaro, M. J. Bearpark, J. J. Heyd, E. N. Brothers, K. N. Kudin, 
 V. N. Staroverov, T. A. Keith, R. Kobayashi, J. Normand, 
 K. Raghavachari, A. P. Rendell, J. C. Burant, S. S. Iyengar, 
 J. Tomasi, M. Cossi, J. M. Millam, M. Klene, C. Adamo, R. Cammi, 
 J. W. Ochterski, R. L. Martin, K. Morokuma, O. Farkas, 
 J. B. Foresman, and D. J. Fox, Gaussian, Inc., Wallingford CT, 2016.
 
 ******************************************
 Gaussian 16:  ES64L-G16RevA.03 25-Dec-2016
                17-Sep-2021 
 ******************************************
 %chk=geometry.chk
 %mem=2GB
 %nprocshared=1
 Will use up to    1 processors via shared memory.
 --------------------------------------------------------------------
 #p B3LYP/6-311+G** #p TD=(singlets,nstates=30)IOp(6/8=3) IOp(9/40=4)
 --------------------------------------------------------------------
 1/38=1,172=1/1;
 2/12=2,17=6,18=5,40=1/2;
 3/5=4,6=6,7=111,11=9,25=1,30=1,74=-5/1,2,3,8;
 4//1;
 5/5=2,38=5/2;
 8/6=1,10=2,108=30/1;
 9/40=4,41=30,42=1,48=1,70=2/14;
 6/7=2,8=3,9=2,10=2/1;
 99/5=1,9=1/99;
 Leave Link    1 at Fri Sep 17 10:52:02 2021, MaxMem=   268435456 cpu:               0.0 elap:               0.2
 (Enter /software/gaussian/g16-a03/l101.exe)
 -------------------------------
 Scan Step 71, Bond Length 0.855
 -------------------------------
 Symbolic Z-matrix:
 Charge =  0 Multiplicity = 1
 C                     0.        0.       -0.52736 
 H                     0.        0.93726  -1.11871 
 H                     0.       -0.93726  -1.11871 
 O                     0.        0.        0.32764 
 
 ITRead=  0  0  0  0
 MicOpt= -1 -1 -1 -1
 NAtoms=      4 NQM=        4 NQMF=       0 NMMI=      0 NMMIF=      0
                NMic=       0 NMicF=      0.
                    Isotopes and Nuclear Properties:
 (Nuclear quadrupole moments (NQMom) in fm**2, nuclear magnetic moments (NMagM)
  in nuclear magnetons)

  Atom         1           2           3           4
 IAtWgt=          12           1           1          16
 AtmWgt=  12.0000000   1.0078250   1.0078250  15.9949146
 NucSpn=           0           1           1           0
 AtZEff=  -0.0000000  -0.0000000  -0.0000000  -0.0000000
 NQMom=    0.0000000   0.0000000   0.0000000   0.0000000
 NMagM=    0.0000000   2.7928460   2.7928460   0.0000000
 AtZNuc=   6.0000000   1.0000000   1.0000000   8.0000000
 Leave Link  101 at Fri Sep 17 10:52:02 2021, MaxMem=   268435456 cpu:               0.1 elap:               0.1
 (Enter /software/gaussian/g16-a03/l202.exe)
                          Input orientation:                          
 ---------------------------------------------------------------------
 Center     Atomic      Atomic             Coordinates (Angstroms)
 Number     Number       Type             X           Y           Z
 ---------------------------------------------------------------------
      1          6           0        0.000000    0.000000   -0.527360
      2          1           0        0.000000    0.937260   -1.118710
      3          1           0        0.000000   -0.937260   -1.118710
      4          8           0        0.000000    0.000000    0.327640
 ---------------------------------------------------------------------
                    Distance matrix (angstroms):
                    1          2          3          4
     1  C    0.000000
     2  H    1.108220   0.000000
     3  H    1.108220   1.874520   0.000000
     4  O    0.855000   1.723480   1.723480   0.000000
 Stoichiometry    CH2O
 Framework group  C2V[C2(CO),SGV(H2)]
 Deg. of freedom     3
 Full point group                 C2V     NOp   4
 Largest Abelian subgroup         C2V     NOp   4
 Largest concise Abelian subgroup C2      NOp   2
                         Standard orientation:                         
 ---------------------------------------------------------------------
 Center     Atomic      Atomic             Coordinates (Angstroms)
 Number     Number       Type             X           Y           Z
 ---------------------------------------------------------------------
      1          6           0        0.000000    0.000000   -0.353581
      2          1           0        0.000000    0.937260   -0.944931
      3          1           0       -0.000000   -0.937260   -0.944931
      4          8           0        0.000000   -0.000000    0.501419
 ---------------------------------------------------------------------
 Rotational constants (GHZ):         285.4183527          70.1465481          56.3078981
 Leave Link  202 at Fri Sep 17 10:52:02 2021, MaxMem=   268435456 cpu:               0.0 elap:               0.0
 (Enter /software/gaussian/g16-a03/l301.exe)
 Standard basis: 6-311+G(d,p) (5D, 7F)
 Ernie: Thresh=  0.10000D-02 Tol=  0.10000D-05 Strict=F.
 There are    29 symmetry adapted cartesian basis functions of A1  symmetry.
 There are     3 symmetry adapted cartesian basis functions of A2  symmetry.
 There are    11 symmetry adapted cartesian basis functions of B1  symmetry.
 There are    15 symmetry adapted cartesian basis functions of B2  symmetry.
 There are    27 symmetry adapted basis functions of A1  symmetry.
 There are     3 symmetry adapted basis functions of A2  symmetry.
 There are    11 symmetry adapted basis functions of B1  symmetry.
 There are    15 symmetry adapted basis functions of B2  symmetry.
    56 basis functions,    88 primitive gaussians,    58 cartesian basis functions
     8 alpha electrons        8 beta electrons
       nuclear repulsion energy        40.6331569223 Hartrees.
 IExCor=  402 DFT=T Ex+Corr=B3LYP ExCW=0 ScaHFX=  0.200000
 ScaDFX=  0.800000  0.720000  1.000000  0.810000 ScalE2=  1.000000  1.000000
 IRadAn=      5 IRanWt=     -1 IRanGd=            0 ICorTp=0 IEmpDi=  4
 NAtoms=    4 NActive=    4 NUniq=    3 SFac= 1.78D+00 NAtFMM=   60 NAOKFM=F Big=F
 Integral buffers will be    131072 words long.
 Regular integral format.
 Two-electron integral symmetry is turned on.
 Leave Link  301 at Fri Sep 17 10:52:02 2021, MaxMem=   268435456 cpu:               0.1 elap:               0.1
 (Enter /software/gaussian/g16-a03/l302.exe)
 NPDir=0 NMtPBC=     1 NCelOv=     1 NCel=       1 NClECP=     1 NCelD=      1
         NCelK=      1 NCelE2=     1 NClLst=     1 CellRange=     0.0.
 One-electron integrals computed using PRISM.
 One-electron integral symmetry used in STVInt
 NBasis=    56 RedAO= T EigKep=  1.10D-03  NBF=    27     3    11    15
 NBsUse=    56 1.00D-06 EigRej= -1.00D+00 NBFU=    27     3    11    15
 Precomputing XC quadrature grid using
 IXCGrd= 4 IRadAn=           5 IRanWt=          -1 IRanGd=           0 AccXCQ= 0.00D+00.
 Generated NRdTot=       0 NPtTot=           0 NUsed=           0 NTot=          32
 NSgBfM=    58    58    58    58    58 MxSgAt=     4 MxSgA2=     4.
 Leave Link  302 at Fri Sep 17 10:52:03 2021, MaxMem=   268435456 cpu:               0.1 elap:               0.1
 (Enter /software/gaussian/g16-a03/l303.exe)
 DipDrv:  MaxL=1.
 Leave Link  303 at Fri Sep 17 10:52:03 2021, MaxMem=   268435456 cpu:               0.0 elap:               0.0
 (Enter /software/gaussian/g16-a03/l308.exe)
 Leave Link  308 at Fri Sep 17 10:52:03 2021, MaxMem=   268435456 cpu:               0.0 elap:               0.0
 (Enter /software/gaussian/g16-a03/l401.exe)
 ExpMin= 4.38D-02 ExpMax= 8.59D+03 ExpMxC= 1.30D+03 IAcc=3 IRadAn=         5 AccDes= 0.00D+00
 Harris functional with IExCor=  402 and IRadAn=       5 diagonalized for initial guess.
 HarFok:  IExCor=  402 AccDes= 0.00D+00 IRadAn=         5 IDoV= 1 UseB2=F ITyADJ=14
 ICtDFT=  3500011 ScaDFX=  1.000000  1.000000  1.000000  1.000000
 FoFCou: FMM=F IPFlag=           0 FMFlag=      100000 FMFlg1=           0
         NFxFlg=           0 DoJE=T BraDBF=F KetDBF=T FulRan=T
         wScrn=  0.000000 ICntrl=       500 IOpCl=  0 I1Cent=   200000004 NGrid=           0
         NMat0=    1 NMatS0=      1 NMatT0=    0 NMatD0=    1 NMtDS0=    0 NMtDT0=    0
 Petite list used in FoFCou.
 Harris En= -114.216464597528    
 JPrj=0 DoOrth=F DoCkMO=F.
 Initial guess orbital symmetries:
       Occupied  (A1) (A1) (A1) (B2) (B1) (A1) (A1) (B2)
       Virtual   (B1) (A1) (B2) (A1) (B1) (A1) (A1) (B2) (B2) (B1)
                 (A1) (A1) (A1) (B1) (B2) (B2) (A1) (A1) (A2) (B1)
                 (B2) (A1) (A1) (B1) (B2) (A1) (A2) (B2) (B1) (A1)
                 (A1) (B2) (A1) (B2) (B1) (A1) (A1) (A2) (B2) (A1)
                 (B1) (B2) (A1) (B1) (B2) (A1) (A1) (A1)
 The electronic state of the initial guess is 1-A1.
 Leave Link  401 at Fri Sep 17 10:52:03 2021, MaxMem=   268435456 cpu:               0.3 elap:               0.3
 (Enter /software/gaussian/g16-a03/l502.exe)
 Keep R1 ints in memory in symmetry-blocked form, NReq=2159909.
 FoFCou: FMM=F IPFlag=           0 FMFlag=           0 FMFlg1=           0
         NFxFlg=           0 DoJE=F BraDBF=F KetDBF=F FulRan=T
         wScrn=  0.000000 ICntrl=       600 IOpCl=  0 I1Cent=           0 NGrid=           0
         NMat0=    1 NMatS0=   1596 NMatT0=    0 NMatD0=    1 NMtDS0=    0 NMtDT0=    0
 Petite list used in FoFCou.
 Closed shell SCF:
 Using DIIS extrapolation, IDIIS=  1040.
 NGot=   268435456 LenX=   268074384 LenY=   268070579
 Requested convergence on RMS density matrix=1.00D-08 within 128 cycles.
 Requested convergence on MAX density matrix=1.00D-06.
 Requested convergence on             energy=1.00D-06.
 No special actions if energy rises.

 Cycle   1  Pass 1  IDiag  1:
 E= -113.930158423483    
 DIIS: error= 8.27D-02 at cycle   1 NSaved=   1.
 NSaved= 1 IEnMin= 1 EnMin= -113.930158423483     IErMin= 1 ErrMin= 8.27D-02
 ErrMax= 8.27D-02  0.00D+00 EMaxC= 1.00D-01 BMatC= 2.73D-01 BMatP= 2.73D-01
 IDIUse=3 WtCom= 1.73D-01 WtEn= 8.27D-01
 Coeff-Com:  0.100D+01
 Coeff-En:   0.100D+01
 Coeff:      0.100D+01
 Gap=     0.147 Goal=   None    Shift=    0.000
 GapD=    0.147 DampG=1.000 DampE=0.500 DampFc=0.5000 IDamp=-1.
 Damping current iteration by 5.00D-01
 RMSDP=1.42D-02 MaxDP=1.96D-01              OVMax= 2.92D-01

 Cycle   2  Pass 1  IDiag  1:
 E= -113.993503834429     Delta-E=       -0.063345410947 Rises=F Damp=T
 DIIS: error= 1.56D-02 at cycle   2 NSaved=   2.
 NSaved= 2 IEnMin= 2 EnMin= -113.993503834429     IErMin= 2 ErrMin= 1.56D-02
 ErrMax= 1.56D-02  0.00D+00 EMaxC= 1.00D-01 BMatC= 1.05D-02 BMatP= 2.73D-01
 IDIUse=3 WtCom= 8.44D-01 WtEn= 1.56D-01
 Coeff-Com:  0.729D-01 0.927D+00
 Coeff-En:   0.215D+00 0.785D+00
 Coeff:      0.952D-01 0.905D+00
 Gap=     0.265 Goal=   None    Shift=    0.000
 RMSDP=3.59D-03 MaxDP=5.06D-02 DE=-6.33D-02 OVMax= 1.72D-01

 Cycle   3  Pass 1  IDiag  1:
 E= -114.090510980967     Delta-E=       -0.097007146537 Rises=F Damp=F
 DIIS: error= 1.53D-02 at cycle   3 NSaved=   3.
 NSaved= 3 IEnMin= 3 EnMin= -114.090510980967     IErMin= 3 ErrMin= 1.53D-02
 ErrMax= 1.53D-02  0.00D+00 EMaxC= 1.00D-01 BMatC= 6.80D-03 BMatP= 1.05D-02
 IDIUse=3 WtCom= 8.47D-01 WtEn= 1.53D-01
 Coeff-Com: -0.241D-01 0.422D+00 0.602D+00
 Coeff-En:   0.000D+00 0.000D+00 0.100D+01
 Coeff:     -0.204D-01 0.358D+00 0.663D+00
 Gap=     0.253 Goal=   None    Shift=    0.000
 RMSDP=1.16D-03 MaxDP=1.40D-02 DE=-9.70D-02 OVMax= 2.96D-02

 Cycle   4  Pass 1  IDiag  1:
 E= -114.094494564818     Delta-E=       -0.003983583852 Rises=F Damp=F
 DIIS: error= 4.38D-03 at cycle   4 NSaved=   4.
 NSaved= 4 IEnMin= 4 EnMin= -114.094494564818     IErMin= 4 ErrMin= 4.38D-03
 ErrMax= 4.38D-03  0.00D+00 EMaxC= 1.00D-01 BMatC= 6.75D-04 BMatP= 6.80D-03
 IDIUse=3 WtCom= 9.56D-01 WtEn= 4.38D-02
 Coeff-Com: -0.197D-01 0.688D-01 0.296D+00 0.655D+00
 Coeff-En:   0.000D+00 0.000D+00 0.000D+00 0.100D+01
 Coeff:     -0.189D-01 0.658D-01 0.283D+00 0.670D+00
 Gap=     0.249 Goal=   None    Shift=    0.000
 RMSDP=3.07D-04 MaxDP=6.48D-03 DE=-3.98D-03 OVMax= 6.53D-03

 Cycle   5  Pass 1  IDiag  1:
 E= -114.094983823511     Delta-E=       -0.000489258693 Rises=F Damp=F
 DIIS: error= 2.96D-04 at cycle   5 NSaved=   5.
 NSaved= 5 IEnMin= 5 EnMin= -114.094983823511     IErMin= 5 ErrMin= 2.96D-04
 ErrMax= 2.96D-04  0.00D+00 EMaxC= 1.00D-01 BMatC= 4.29D-06 BMatP= 6.75D-04
 IDIUse=3 WtCom= 9.97D-01 WtEn= 2.96D-03
 Coeff-Com: -0.103D-02-0.161D-02 0.190D-01 0.114D+00 0.870D+00
 Coeff-En:   0.000D+00 0.000D+00 0.000D+00 0.000D+00 0.100D+01
 Coeff:     -0.103D-02-0.161D-02 0.190D-01 0.114D+00 0.870D+00
 Gap=     0.249 Goal=   None    Shift=    0.000
 RMSDP=3.60D-05 MaxDP=6.30D-04 DE=-4.89D-04 OVMax= 6.44D-04

 Cycle   6  Pass 1  IDiag  1:
 E= -114.094987420049     Delta-E=       -0.000003596537 Rises=F Damp=F
 DIIS: error= 2.05D-05 at cycle   6 NSaved=   6.
 NSaved= 6 IEnMin= 6 EnMin= -114.094987420049     IErMin= 6 ErrMin= 2.05D-05
 ErrMax= 2.05D-05  0.00D+00 EMaxC= 1.00D-01 BMatC= 1.64D-08 BMatP= 4.29D-06
 IDIUse=1 WtCom= 1.00D+00 WtEn= 0.00D+00
 Coeff-Com:  0.191D-03-0.714D-03-0.326D-03 0.654D-02 0.784D-01 0.916D+00
 Coeff:      0.191D-03-0.714D-03-0.326D-03 0.654D-02 0.784D-01 0.916D+00
 Gap=     0.249 Goal=   None    Shift=    0.000
 RMSDP=2.39D-06 MaxDP=2.99D-05 DE=-3.60D-06 OVMax= 4.55D-05

 Cycle   7  Pass 1  IDiag  1:
 E= -114.094987432155     Delta-E=       -0.000000012107 Rises=F Damp=F
 DIIS: error= 1.04D-06 at cycle   7 NSaved=   7.
 NSaved= 7 IEnMin= 7 EnMin= -114.094987432155     IErMin= 7 ErrMin= 1.04D-06
 ErrMax= 1.04D-06  0.00D+00 EMaxC= 1.00D-01 BMatC= 6.44D-11 BMatP= 1.64D-08
 IDIUse=1 WtCom= 1.00D+00 WtEn= 0.00D+00
 Coeff-Com:  0.319D-05-0.720D-05-0.945D-04-0.570D-03-0.625D-02-0.132D-02
 Coeff-Com:  0.101D+01
 Coeff:      0.319D-05-0.720D-05-0.945D-04-0.570D-03-0.625D-02-0.132D-02
 Coeff:      0.101D+01
 Gap=     0.249 Goal=   None    Shift=    0.000
 RMSDP=2.90D-07 MaxDP=2.94D-06 DE=-1.21D-08 OVMax= 6.88D-06

 Cycle   8  Pass 1  IDiag  1:
 E= -114.094987432256     Delta-E=       -0.000000000101 Rises=F Damp=F
 DIIS: error= 2.09D-07 at cycle   8 NSaved=   8.
 NSaved= 8 IEnMin= 8 EnMin= -114.094987432256     IErMin= 8 ErrMin= 2.09D-07
 ErrMax= 2.09D-07  0.00D+00 EMaxC= 1.00D-01 BMatC= 1.86D-12 BMatP= 6.44D-11
 IDIUse=1 WtCom= 1.00D+00 WtEn= 0.00D+00
 Coeff-Com: -0.232D-05 0.276D-05 0.717D-05-0.566D-04-0.821D-03-0.787D-02
 Coeff-Com:  0.974D-01 0.911D+00
 Coeff:     -0.232D-05 0.276D-05 0.717D-05-0.566D-04-0.821D-03-0.787D-02
 Coeff:      0.974D-01 0.911D+00
 Gap=     0.249 Goal=   None    Shift=    0.000
 RMSDP=4.86D-08 MaxDP=6.60D-07 DE=-1.01D-10 OVMax= 1.15D-06

 Cycle   9  Pass 1  IDiag  1:
 E= -114.094987432259     Delta-E=       -0.000000000003 Rises=F Damp=F
 DIIS: error= 3.28D-08 at cycle   9 NSaved=   9.
 NSaved= 9 IEnMin= 9 EnMin= -114.094987432259     IErMin= 9 ErrMin= 3.28D-08
 ErrMax= 3.28D-08  0.00D+00 EMaxC= 1.00D-01 BMatC= 5.16D-14 BMatP= 1.86D-12
 IDIUse=1 WtCom= 1.00D+00 WtEn= 0.00D+00
 Coeff-Com: -0.207D-06 0.717D-06 0.769D-06 0.164D-05-0.192D-04-0.748D-03
 Coeff-Com: -0.103D-01 0.843D-01 0.927D+00
 Coeff:     -0.207D-06 0.717D-06 0.769D-06 0.164D-05-0.192D-04-0.748D-03
 Coeff:     -0.103D-01 0.843D-01 0.927D+00
 Gap=     0.249 Goal=   None    Shift=    0.000
 RMSDP=6.95D-09 MaxDP=7.53D-08 DE=-2.56D-12 OVMax= 1.60D-07

 SCF Done:  E(RB3LYP) =  -114.094987432     A.U. after    9 cycles
            NFock=  9  Conv=0.69D-08     -V/T= 1.9746
 KE= 1.170669399739D+02 PE=-3.512307309794D+02 EE= 7.943564665087D+01
 Leave Link  502 at Fri Sep 17 10:52:05 2021, MaxMem=   268435456 cpu:               1.6 elap:               1.8
 (Enter /software/gaussian/g16-a03/l801.exe)
 DoSCS=F DFT=T ScalE2(SS,OS)=  1.000000  1.000000
 ExpMin= 4.38D-02 ExpMax= 8.59D+03 ExpMxC= 1.30D+03 IAcc=3 IRadAn=         5 AccDes= 0.00D+00
 HarFok:  IExCor=  205 AccDes= 0.00D+00 IRadAn=         5 IDoV=-2 UseB2=F ITyADJ=14
 ICtDFT= 12500011 ScaDFX=  1.000000  1.000000  1.000000  1.000000
 Largest valence mixing into a core orbital is  7.55D-05
 Largest core mixing into a valence orbital is  1.15D-05
 Range of M.O.s used for correlation:     3    56
 NBasis=    56 NAE=     8 NBE=     8 NFC=     2 NFV=     0
 NROrb=     54 NOA=     6 NOB=     6 NVA=    48 NVB=    48

 **** Warning!!: The largest alpha MO coefficient is  0.11837723D+02

 Leave Link  801 at Fri Sep 17 10:52:05 2021, MaxMem=   268435456 cpu:               0.2 elap:               0.2
 (Enter /software/gaussian/g16-a03/l914.exe)
 RHF ground state
 Keep R1, R2, and R3 ints in memory in symmetry-blocked form, NReq=6042848.
 FoFCou: FMM=F IPFlag=           0 FMFlag=           0 FMFlg1=           0
         NFxFlg=           0 DoJE=F BraDBF=F KetDBF=F FulRan=T
         wScrn=  0.000000 ICntrl=       600 IOpCl=  0 I1Cent=           0 NGrid=           0
         NMat0=    1 NMatS0=   1596 NMatT0=    0 NMatD0=    1 NMtDS0=    0 NMtDT0=    0
 Petite list used in FoFCou.
 MDV=   268435456 DFT=T DoStab=F Mixed=T DoRPA=T DoScal=F NonHer=T
 Making orbital integer symmetry assigments:
 Orbital symmetries:
       Occupied  (A1) (A1) (A1) (B2) (A1) (B1) (A1) (B2)
       Virtual   (A1) (B1) (B2) (A1) (B1) (A1) (A1) (B2) (B1) (B2)
                 (A1) (A1) (A1) (B1) (B2) (B2) (A1) (A1) (A2) (B1)
                 (B2) (A1) (A1) (B1) (B2) (A1) (A2) (B2) (B1) (A1)
                 (A1) (B2) (A1) (B2) (B1) (A1) (A1) (A2) (B2) (A1)
                 (B1) (B2) (A1) (B1) (B2) (A1) (A1) (A1)
   120 initial guesses have been made.
 Convergence on wavefunction:    0.001000000000000
 Davidson Disk Diagonalization:  ConvIn= 1.00D-03 SkipCon=T Conv= 1.00D-03.
 Max sub-space:  1728 roots to seek:   120 dimension of matrix:          576
 Iteration     1 Dimension   120 NMult     0 NNew    120
 CISAX will form   120 AO SS matrices at one time.
 NMat=   120 NSing=   120 JSym2X=-1.
 New state      1 was old state      2
 New state      2 was old state      1
 New state      3 was old state      4
 New state      4 was old state      3
 New state     12 was old state     13
 New state     13 was old state     12
 New state     18 was old state     21
 New state     19 was old state     18
 New state     21 was old state     19
 New state     23 was old state     27
 New state     24 was old state     23
 New state     25 was old state     24
 New state     26 was old state     25
 New state     27 was old state     26
 Excitation Energies [eV] at current iteration:
 Root      1 :     5.573962639559802
 Root      2 :     5.739289796214075
 Root      3 :     6.539738839232164
 Root      4 :     6.677658112587751
 Root      5 :     7.600989660063873
 Root      6 :     9.807114180163389
 Root      7 :    10.035820247674580
 Root      8 :    10.880964537423400
 Root      9 :    11.083998760937480
 Root     10 :    12.162596222119860
 Root     11 :    12.260338079872430
 Root     12 :    13.664775542702360
 Root     13 :    13.867154060624300
 Root     14 :    14.593787029219560
 Root     15 :    14.603503121771040
 Root     16 :    14.854863049564580
 Root     17 :    15.200088920257630
 Root     18 :    15.565981780946280
 Root     19 :    15.587155434203240
 Root     20 :    15.845338059276700
 Root     21 :    15.893496461859640
 Root     22 :    16.082508950672530
 Root     23 :    16.173452224501950
 Root     24 :    16.180367673142840
 Root     25 :    16.374639082638890
 Root     26 :    16.404935813913160
 Root     27 :    16.472156645458110
 Root     28 :    17.088780544906290
 Root     29 :    17.305787731379630
 Root     30 :    17.395889797802160
 Root     31 :    17.779445328219510
 Root     32 :    17.884411865778340
 Root     33 :    18.057241977644390
 Root     34 :    18.231785609962160
 Root     35 :    18.488586726732870
 Root     36 :    18.847903533719550
 Root     37 :    18.924580213289890
 Root     38 :    19.119246443640500
 Root     39 :    19.172421731569610
 Root     40 :    19.394233678149150
 Root     41 :    19.524546474348080
 Root     42 :    19.727661182924510
 Root     43 :    19.922535198931320
 Root     44 :    20.126136927269440
 Root     45 :    20.141367099116140
 Root     46 :    20.371324289458140
 Root     47 :    20.455288115487870
 Root     48 :    20.556529578899720
 Root     49 :    20.810414635547690
 Root     50 :    20.949231618299910
 Root     51 :    21.010649720413220
 Root     52 :    21.035298067129170
 Root     53 :    21.501409561914590
 Root     54 :    21.705779823704250
 Root     55 :    21.800506508956450
 Root     56 :    21.886933887530220
 Root     57 :    22.162523355712840
 Root     58 :    22.978869513671480
 Root     59 :    23.001757251453570
 Root     60 :    23.227759116203240
 Root     61 :    24.279340509987320
 Root     62 :    24.463566747463020
 Root     63 :    24.491989200058280
 Root     64 :    25.220028147752960
 Root     65 :    26.097268761925920
 Root     66 :    26.779875382460250
 Root     67 :    27.210791810073320
 Root     68 :    27.748389038587650
 Root     69 :    28.280372375142230
 Root     70 :    28.965777692268500
 Root     71 :    29.028981149377730
 Root     72 :    29.031853021647650
 Root     73 :    29.316978084522530
 Root     74 :    29.649147663757510
 Root     75 :    29.649934226885200
 Root     76 :    29.911033524802750
 Root     77 :    30.446600221658340
 Root     78 :    30.747672548690890
 Root     79 :    30.950522920853070
 Root     80 :    31.911996123225560
 Root     81 :    32.020034810841130
 Root     82 :    32.284339536029160
 Root     83 :    32.403660059795800
 Root     84 :    32.535945194026940
 Root     85 :    33.260175414873740
 Root     86 :    33.686476691682870
 Root     87 :    33.992296290374360
 Root     88 :    34.353113035172050
 Root     89 :    34.380219009162640
 Root     90 :    34.916361973672770
 Root     91 :    35.262073100565490
 Root     92 :    35.333702162760980
 Root     93 :    36.208565213560360
 Root     94 :    37.045776233772340
 Root     95 :    37.669351244179800
 Root     96 :    38.491739946633680
 Root     97 :    38.556019060233330
 Root     98 :    39.428520512445290
 Root     99 :    39.430424818907400
 Root    100 :    39.435260119902310
 Root    101 :    39.655196588765640
 Root    102 :    39.708666991069870
 Root    103 :    39.784655585255050
 Root    104 :    40.019752834861050
 Root    105 :    40.251951384323040
 Root    106 :    40.545953811553160
 Root    107 :    40.806323725238250
 Root    108 :    41.009670903615170
 Root    109 :    41.341624423544840
 Root    110 :    41.645296544770920
 Root    111 :    41.729261004383890
 Root    112 :    41.910298828751120
 Root    113 :    42.030098806741980
 Root    114 :    42.062319750646350
 Root    115 :    42.472783071612920
 Root    116 :    42.737832459345800
 Root    117 :    43.354214114370700
 Root    118 :    43.543622358595980
 Root    119 :    43.707429911887440
 Root    120 :    47.890918867111960
 Iteration     2 Dimension   180 NMult   120 NNew     60
 CISAX will form    60 AO SS matrices at one time.
 NMat=    60 NSing=    60 JSym2X=-1.
 Root      1 not converged, maximum delta is    0.004737206703189
 Root      2 not converged, maximum delta is    0.002992922808021
 Root      3 not converged, maximum delta is    0.003077589753748
 Root      4 not converged, maximum delta is    0.004567013927683
 Root      5 not converged, maximum delta is    0.003712582684323
 Root      6 not converged, maximum delta is    0.019265091036286
 Root      7 not converged, maximum delta is    0.018028371645416
 Root      8 not converged, maximum delta is    0.004401489028502
 Root      9 not converged, maximum delta is    0.002078417113098
 Root     10 not converged, maximum delta is    0.007218415230276
 Root     11 not converged, maximum delta is    0.003381687473072
 Root     12 not converged, maximum delta is    0.017066936473835
 Root     13 not converged, maximum delta is    0.009659750721270
 Root     14 not converged, maximum delta is    0.011591449339076
 Root     15 not converged, maximum delta is    0.008369515555567
 Root     16 not converged, maximum delta is    0.011456287188795
 Root     17 not converged, maximum delta is    0.002901441077222
 Root     18 not converged, maximum delta is    0.012449532880028
 Root     19 not converged, maximum delta is    0.019084915175044
 Root     20 not converged, maximum delta is    0.025857382423147
 Root     21 not converged, maximum delta is    0.026170584746625
 Root     22 not converged, maximum delta is    0.008350674081979
 Root     23 not converged, maximum delta is    0.008760336316680
 Root     24 not converged, maximum delta is    0.019870991180484
 Root     25 not converged, maximum delta is    0.038431080367677
 Root     26 not converged, maximum delta is    0.018530213454505
 Root     27 not converged, maximum delta is    0.037402971673974
 Root     28 not converged, maximum delta is    0.008043497969012
 Root     29 not converged, maximum delta is    0.019640665789541
 Root     30 not converged, maximum delta is    0.004355684991382
 Excitation Energies [eV] at current iteration:
 Root      1 :     5.566026528300180   Change is   -0.007936111259623
 Root      2 :     5.735948145853580   Change is   -0.003341650360495
 Root      3 :     6.535218110184052   Change is   -0.004520729048113
 Root      4 :     6.673162716865210   Change is   -0.004495395722541
 Root      5 :     7.596261294347197   Change is   -0.004728365716676
 Root      6 :     9.793015590733221   Change is   -0.014098589430167
 Root      7 :    10.030536612700560   Change is   -0.005283634974023
 Root      8 :    10.867483738325560   Change is   -0.013480799097846
 Root      9 :    11.082405613206540   Change is   -0.001593147730942
 Root     10 :    12.152134487884110   Change is   -0.010461734235755
 Root     11 :    12.253206045248930   Change is   -0.007132034623496
 Root     12 :    13.621468094501670   Change is   -0.043307448200694
 Root     13 :    13.854491861114020   Change is   -0.012662199510283
 Root     14 :    14.584656215752520   Change is   -0.009130813467032
 Root     15 :    14.592797706604840   Change is   -0.010705415166197
 Root     16 :    14.837225772067510   Change is   -0.017637277497071
 Root     17 :    15.199080323378610   Change is   -0.001008596879020
 Root     18 :    15.546925930690480   Change is   -0.019055850255802
 Root     19 :    15.573566363780840   Change is   -0.013589070422402
 Root     20 :    15.768937648364570   Change is   -0.076400410912129
 Root     21 :    15.842837264877190   Change is   -0.050659196982454
 Root     22 :    16.081873106091220   Change is   -0.000635844581314
 Root     23 :    16.169421276345360   Change is   -0.004030948156592
 Root     24 :    16.173024330343540   Change is   -0.007343342799298
 Root     25 :    16.357981113207160   Change is   -0.016657969431728
 Root     26 :    16.392346018028860   Change is   -0.012589795884304
 Root     27 :    16.469261967030310   Change is   -0.002894678427802
 Root     28 :    17.083214356447410   Change is   -0.005566188458879
 Root     29 :    17.294846275938950   Change is   -0.010941455440673
 Root     30 :    17.390437448899120   Change is   -0.005452348903036
 Iteration     3 Dimension   240 NMult   180 NNew     60
 CISAX will form    60 AO SS matrices at one time.
 NMat=    60 NSing=    60 JSym2X=-1.
 Root      1 has converged.
 Root      2 has converged.
 Root      3 has converged.
 Root      4 has converged.
 Root      5 has converged.
 Root      6 has converged.
 Root      7 has converged.
 Root      8 has converged.
 Root      9 has converged.
 Root     10 has converged.
 Root     11 has converged.
 Root     12 has converged.
 Root     13 has converged.
 Root     14 has converged.
 Root     15 has converged.
 Root     16 has converged.
 Root     17 has converged.
 Root     18 has converged.
 Root     19 has converged.
 Root     20 has converged.
 Root     21 has converged.
 Root     22 has converged.
 Root     23 has converged.
 Root     24 has converged.
 Root     25 has converged.
 Root     26 has converged.
 Root     27 has converged.
 Root     28 has converged.
 Root     29 has converged.
 Root     30 has converged.
 Excitation Energies [eV] at current iteration:
 Root      1 :     5.566024273954572   Change is   -0.000002254345608
 Root      2 :     5.735946580636206   Change is   -0.000001565217374
 Root      3 :     6.535216171760467   Change is   -0.000001938423584
 Root      4 :     6.673160389269968   Change is   -0.000002327595242
 Root      5 :     7.596259776667722   Change is   -0.000001517679476
 Root      6 :     9.793011927234657   Change is   -0.000003663498563
 Root      7 :    10.030533687807860   Change is   -0.000002924892700
 Root      8 :    10.867468772574120   Change is   -0.000014965751436
 Root      9 :    11.082404120058820   Change is   -0.000001493147716
 Root     10 :    12.152117340083270   Change is   -0.000017147800840
 Root     11 :    12.253196790984070   Change is   -0.000009254264867
 Root     12 :    13.621362001884230   Change is   -0.000106092617436
 Root     13 :    13.854458606551020   Change is   -0.000033254563001
 Root     14 :    14.584638328001640   Change is   -0.000017887750887
 Root     15 :    14.592765247515210   Change is   -0.000032459089636
 Root     16 :    14.837199597585480   Change is   -0.000026174482030
 Root     17 :    15.199076448601270   Change is   -0.000003874777341
 Root     18 :    15.546885929048540   Change is   -0.000040001641940
 Root     19 :    15.573522428578580   Change is   -0.000043935202255
 Root     20 :    15.768738971151560   Change is   -0.000198677213014
 Root     21 :    15.842695939281570   Change is   -0.000141325595618
 Root     22 :    16.081872417495280   Change is   -0.000000688595940
 Root     23 :    16.169415200497080   Change is   -0.000006075848279
 Root     24 :    16.173002302399170   Change is   -0.000022027944369
 Root     25 :    16.357956710762670   Change is   -0.000024402444491
 Root     26 :    16.392308916750040   Change is   -0.000037101278819
 Root     27 :    16.469257641014180   Change is   -0.000004326016131
 Root     28 :    17.083193289749150   Change is   -0.000021066698259
 Root     29 :    17.294801995310230   Change is   -0.000044280628723
 Root     30 :    17.390419792455290   Change is   -0.000017656443836
 Convergence achieved on expansion vectors.
 ***********************************************************************
 Excited states from <AA,BB:AA,BB> singles matrix:
 ***********************************************************************
 
 1PDM for each excited state written to RWF  633
 Ground to excited state transition densities written to RWF  633
 Ground to excited state transition electric dipole moments (Au):
       state          X           Y           Z        Dip. S.      Osc.
         1         0.0000     -0.0000     -0.0000      0.0000      0.0000
         2        -0.0000      0.8098     -0.0000      0.6558      0.0922
         3         0.0000     -0.3836      0.0000      0.1472      0.0236
         4        -0.0000     -0.0000     -0.4777      0.2282      0.0373
         5         0.0000     -0.0000      0.0000      0.0000      0.0000
         6        -0.0000      0.9730      0.0000      0.9468      0.2272
         7         0.0000      0.7194     -0.0000      0.5175      0.1272
         8         0.0000      0.0000     -0.0072      0.0001      0.0000
         9         0.0000      0.0000      0.0000      0.0000      0.0000
        10         0.0000     -0.0000     -0.8814      0.7768      0.2313
        11         0.0000     -0.3590      0.0000      0.1289      0.0387
        12        -0.1252     -0.0000     -0.0000      0.0157      0.0052
        13        -0.0000      0.0000     -0.0201      0.0004      0.0001
        14         0.0000     -0.3355      0.0000      0.1125      0.0402
        15        -0.0000     -0.0000     -0.5271      0.2779      0.0993
        16         0.0000      0.2502      0.0000      0.0626      0.0228
        17        -0.3857     -0.0000      0.0000      0.1488      0.0554
        18        -0.1010     -0.0000     -0.0000      0.0102      0.0039
        19        -0.0000     -0.0000      0.4316      0.1863      0.0711
        20        -0.6303     -0.0000     -0.0000      0.3973      0.1535
        21         0.0000     -0.0000      0.1600      0.0256      0.0099
        22        -0.0000      0.0000      0.0000      0.0000      0.0000
        23         0.0000      0.0000     -0.0000      0.0000      0.0000
        24        -0.2038      0.0000      0.0000      0.0415      0.0165
        25        -0.0000     -0.1150      0.0000      0.0132      0.0053
        26        -0.0000     -0.0000     -0.5194      0.2697      0.1083
        27        -0.0000     -0.3823      0.0000      0.1461      0.0590
        28         0.0000     -0.0000      0.2081      0.0433      0.0181
        29        -0.0000     -0.0000      0.2740      0.0750      0.0318
        30         0.0000     -0.1119      0.0000      0.0125      0.0053
 Ground to excited state transition velocity dipole moments (Au):
       state          X           Y           Z        Dip. S.      Osc.
         1        -0.0000     -0.0000      0.0000      0.0000      0.0000
         2         0.0000     -0.1653     -0.0000      0.0273      0.0864
         3        -0.0000      0.0930      0.0000      0.0086      0.0240
         4         0.0000      0.0000      0.1115      0.0124      0.0338
         5         0.0000      0.0000      0.0000      0.0000      0.0000
         6        -0.0000     -0.3632     -0.0000      0.1319      0.2444
         7        -0.0000     -0.2355     -0.0000      0.0555      0.1003
         8         0.0000     -0.0000      0.0025      0.0000      0.0000
         9         0.0000     -0.0000      0.0000      0.0000      0.0000
        10        -0.0000      0.0000      0.3926      0.1542      0.2301
        11        -0.0000      0.1637     -0.0000      0.0268      0.0397
        12         0.0515      0.0000      0.0000      0.0026      0.0035
        13         0.0000     -0.0000      0.0098      0.0001      0.0001
        14        -0.0000      0.1817     -0.0000      0.0330      0.0411
        15         0.0000      0.0000      0.2840      0.0806      0.1002
        16         0.0000     -0.1188      0.0000      0.0141      0.0172
        17         0.2200      0.0000     -0.0000      0.0484      0.0578
        18         0.0606     -0.0000      0.0000      0.0037      0.0043
        19         0.0000      0.0000     -0.2421      0.0586      0.0682
        20         0.3642      0.0000      0.0000      0.1327      0.1526
        21        -0.0000      0.0000     -0.0896      0.0080      0.0092
        22         0.0000     -0.0000     -0.0000      0.0000      0.0000
        23        -0.0000     -0.0000     -0.0000      0.0000      0.0000
        24         0.1298     -0.0000     -0.0000      0.0168      0.0189
        25         0.0000      0.0739     -0.0000      0.0055      0.0061
        26         0.0000      0.0000      0.3037      0.0923      0.1021
        27         0.0000      0.2311     -0.0000      0.0534      0.0588
        28        -0.0000      0.0000     -0.1344      0.0181      0.0192
        29         0.0000      0.0000     -0.1741      0.0303      0.0318
        30         0.0000      0.0741      0.0000      0.0055      0.0057
 Ground to excited state transition magnetic dipole moments (Au):
       state          X           Y           Z
         1        -0.0000     -0.0000      1.1949
         2        -0.4363      0.0000      0.0000
         3        -0.7950     -0.0000     -0.0000
         4         0.0000     -0.0000      0.0000
         5         0.0000      0.0000      0.5985
         6        -0.3977     -0.0000     -0.0000
         7        -1.2209     -0.0000      0.0000
         8        -0.0000      0.0000     -0.0000
         9        -0.0000      0.0000      0.1872
        10         0.0000     -0.0000      0.0000
        11        -0.3435     -0.0000      0.0000
        12         0.0000     -0.8614      0.0000
        13         0.0000     -0.0000      0.0000
        14        -0.4169     -0.0000     -0.0000
        15        -0.0000      0.0000      0.0000
        16        -1.3087      0.0000     -0.0000
        17        -0.0000     -0.0819      0.0000
        18        -0.0000     -1.0729      0.0000
        19        -0.0000     -0.0000     -0.0000
        20         0.0000      0.2860      0.0000
        21        -0.0000     -0.0000     -0.0000
        22        -0.0000      0.0000     -0.0810
        23        -0.0000      0.0000     -0.2629
        24        -0.0000     -0.0842     -0.0000
        25         0.0559      0.0000     -0.0000
        26         0.0000     -0.0000      0.0000
        27         0.1870     -0.0000     -0.0000
        28         0.0000      0.0000     -0.0000
        29        -0.0000     -0.0000     -0.0000
        30         0.0209      0.0000      0.0000
 Ground to excited state transition velocity quadrupole moments (Au):
       state          XX          YY          ZZ          XY          XZ          YZ
         1        -0.0000      0.0000     -0.0000     -0.2750     -0.0000     -0.0000
         2        -0.0000     -0.0000      0.0000     -0.0000      0.0000      0.4923
         3         0.0000      0.0000      0.0000      0.0000     -0.0000     -0.3085
         4        -0.2043     -0.6818     -0.1761     -0.0000     -0.0000      0.0000
         5        -0.0000     -0.0000     -0.0000      0.0745     -0.0000     -0.0000
         6         0.0000     -0.0000     -0.0000     -0.0000     -0.0000      0.9451
         7        -0.0000     -0.0000     -0.0000     -0.0000     -0.0000      0.2220
         8         0.1937      0.6314      0.6175     -0.0000      0.0000     -0.0000
         9         0.0000      0.0000      0.0000      0.2252      0.0000     -0.0000
        10         0.0701     -0.7861     -0.7957     -0.0000     -0.0000     -0.0000
        11         0.0000     -0.0000     -0.0000     -0.0000     -0.0000      0.0226
        12        -0.0000     -0.0000      0.0000      0.0000     -0.3621      0.0000
        13         0.2273      0.4475      0.5062     -0.0000     -0.0000     -0.0000
        14        -0.0000      0.0000     -0.0000      0.0000     -0.0000      0.1810
        15         0.0620      0.0581      0.0033     -0.0000      0.0000      0.0000
        16        -0.0000      0.0000     -0.0000     -0.0000      0.0000      0.1798
        17         0.0000      0.0000      0.0000     -0.0000     -0.0382      0.0000
        18        -0.0000     -0.0000     -0.0000      0.0000     -0.8447      0.0000
        19         0.5416      0.7300      0.3452      0.0000     -0.0000      0.0000
        20         0.0000     -0.0000     -0.0000     -0.0000     -0.0779     -0.0000
        21         0.5199      0.1518     -0.4147      0.0000      0.0000      0.0000
        22         0.0000      0.0000     -0.0000      0.3383      0.0000      0.0000
        23         0.0000     -0.0000     -0.0000      0.1703     -0.0000      0.0000
        24         0.0000      0.0000      0.0000      0.0000      0.0541      0.0000
        25         0.0000      0.0000      0.0000      0.0000      0.0000     -0.2658
        26        -0.3307     -0.1912     -1.1419      0.0000     -0.0000     -0.0000
        27         0.0000      0.0000      0.0000      0.0000      0.0000     -0.1674
        28        -0.2664      0.4570      0.2293      0.0000      0.0000     -0.0000
        29         0.0012      0.6030     -0.0563     -0.0000     -0.0000      0.0000
        30        -0.0000      0.0000      0.0000     -0.0000     -0.0000      0.3459
 <0|del|b> * <b|rxdel|0> + <0|del|b> * <b|delr+rdel|0>
 Rotatory Strengths (R) in cgs (10**-40 erg-esu-cm/Gauss)
       state          XX          YY          ZZ    R(velocity)    E-M Angle
         1         0.0000      0.0000      0.0000      0.0000       90.00
         2         0.0000      0.0000     -0.0000     -0.0000       90.00
         3         0.0000      0.0000      0.0000      0.0000       90.00
         4         0.0000      0.0000     -0.0000      0.0000       90.00
         5         0.0000      0.0000      0.0000      0.0000       90.00
         6         0.0000     -0.0000      0.0000      0.0000       90.00
         7        -0.0000      0.0000      0.0000      0.0000       90.00
         8        -0.0000      0.0000     -0.0000     -0.0000       90.00
         9         0.0000     -0.0000      0.0000      0.0000       90.00
        10        -0.0000      0.0000     -0.0000      0.0000       90.00
        11        -0.0000      0.0000      0.0000      0.0000       90.00
        12        -0.0000      0.0000     -0.0000     -0.0000       90.00
        13         0.0000      0.0000      0.0000      0.0000       90.00
        14         0.0000      0.0000      0.0000      0.0000       90.00
        15        -0.0000      0.0000     -0.0000      0.0000       90.00
        16         0.0000     -0.0000     -0.0000     -0.0000       90.00
        17        -0.0000     -0.0000     -0.0000     -0.0000       90.00
        18         0.0000      0.0000      0.0000      0.0000       90.00
        19        -0.0000      0.0000     -0.0000      0.0000       90.00
        20         0.0000     -0.0000      0.0000      0.0000       90.00
        21        -0.0000      0.0000      0.0000      0.0000       90.00
        22        -0.0000      0.0000     -0.0000      0.0000       90.00
        23         0.0000      0.0000      0.0000      0.0000       90.00
        24         0.0000      0.0000     -0.0000     -0.0000       90.00
        25        -0.0000     -0.0000      0.0000      0.0000       90.00
        26         0.0000     -0.0000      0.0000      0.0000       90.00
        27        -0.0000      0.0000      0.0000     -0.0000       90.00
        28        -0.0000      0.0000      0.0000      0.0000       90.00
        29         0.0000     -0.0000     -0.0000      0.0000       90.00
        30         0.0000      0.0000     -0.0000      0.0000       90.00
 1/2[<0|r|b>*<b|rxdel|0> + (<0|rxdel|b>*<b|r|0>)*]
 Rotatory Strengths (R) in cgs (10**-40 erg-esu-cm/Gauss)
       state          XX          YY          ZZ     R(length)
         1         0.0000     -0.0000      0.0000      0.0000
         2        -0.0000     -0.0000      0.0000     -0.0000
         3         0.0000     -0.0000      0.0000     -0.0000
         4         0.0000     -0.0000      0.0000      0.0000
         5        -0.0000      0.0000     -0.0000     -0.0000
         6        -0.0000      0.0000      0.0000      0.0000
         7         0.0000      0.0000      0.0000      0.0000
         8         0.0000     -0.0000     -0.0000     -0.0000
         9         0.0000     -0.0000     -0.0000     -0.0000
        10        -0.0000     -0.0000      0.0000      0.0000
        11         0.0000     -0.0000     -0.0000     -0.0000
        12         0.0000     -0.0000      0.0000     -0.0000
        13         0.0000      0.0000      0.0000      0.0000
        14         0.0000     -0.0000      0.0000     -0.0000
        15        -0.0000      0.0000      0.0000      0.0000
        16         0.0000     -0.0000      0.0000     -0.0000
        17        -0.0000     -0.0000     -0.0000     -0.0000
        18        -0.0000     -0.0000      0.0000     -0.0000
        19        -0.0000     -0.0000      0.0000      0.0000
        20         0.0000      0.0000      0.0000      0.0000
        21         0.0000     -0.0000      0.0000      0.0000
        22        -0.0000     -0.0000      0.0000      0.0000
        23         0.0000     -0.0000     -0.0000     -0.0000
        24        -0.0000      0.0000      0.0000     -0.0000
        25         0.0000      0.0000      0.0000      0.0000
        26         0.0000     -0.0000      0.0000      0.0000
        27         0.0000     -0.0000      0.0000     -0.0000
        28        -0.0000      0.0000      0.0000      0.0000
        29        -0.0000     -0.0000      0.0000      0.0000
        30        -0.0000      0.0000     -0.0000      0.0000
  1/2[<0|del|b>*<b|r|0> + (<0|r|b>*<b|del|0>)*] (Au)
       state          X           Y           Z        Dip. S.   Osc.(frdel)
         1        -0.0000      0.0000     -0.0000      0.0000      0.0000
         2        -0.0000     -0.1339      0.0000      0.1339      0.0892
         3        -0.0000     -0.0357      0.0000      0.0357      0.0238
         4        -0.0000     -0.0000     -0.0533      0.0533      0.0355
         5         0.0000     -0.0000      0.0000     -0.0000     -0.0000
         6         0.0000     -0.3534     -0.0000      0.3534      0.2356
         7        -0.0000     -0.1694      0.0000      0.1694      0.1129
         8         0.0000     -0.0000     -0.0000      0.0000      0.0000
         9         0.0000     -0.0000      0.0000     -0.0000     -0.0000
        10        -0.0000     -0.0000     -0.3461      0.3461      0.2307
        11        -0.0000     -0.0588     -0.0000      0.0588      0.0392
        12        -0.0064     -0.0000     -0.0000      0.0064      0.0043
        13        -0.0000     -0.0000     -0.0002      0.0002      0.0001
        14        -0.0000     -0.0610     -0.0000      0.0610      0.0406
        15        -0.0000     -0.0000     -0.1497      0.1497      0.0998
        16         0.0000     -0.0297      0.0000      0.0297      0.0198
        17        -0.0849     -0.0000     -0.0000      0.0849      0.0566
        18        -0.0061      0.0000     -0.0000      0.0061      0.0041
        19        -0.0000     -0.0000     -0.1045      0.1045      0.0696
        20        -0.2296     -0.0000     -0.0000      0.2296      0.1531
        21        -0.0000     -0.0000     -0.0143      0.0143      0.0096
        22        -0.0000     -0.0000     -0.0000      0.0000      0.0000
        23        -0.0000     -0.0000      0.0000      0.0000      0.0000
        24        -0.0265     -0.0000     -0.0000      0.0265      0.0176
        25        -0.0000     -0.0085     -0.0000      0.0085      0.0057
        26        -0.0000     -0.0000     -0.1577      0.1577      0.1052
        27        -0.0000     -0.0883     -0.0000      0.0883      0.0589
        28        -0.0000     -0.0000     -0.0280      0.0280      0.0186
        29        -0.0000     -0.0000     -0.0477      0.0477      0.0318
        30         0.0000     -0.0083      0.0000      0.0083      0.0055

 Excitation energies and oscillator strengths:
 
 Excited State   1:      Singlet-A2     5.5660 eV  222.75 nm  f=0.0000  <S**2>=0.000
       3 -> 27         0.00268
       3 -> 35         0.00204
       3 -> 46         0.00103
       4 -> 10         0.00571
       4 -> 13         0.00784
       4 -> 17         0.00585
       4 -> 22        -0.00345
       4 -> 28         0.00288
       4 -> 32         0.00145
       4 -> 37         0.00317
       4 -> 43         0.00045
       4 -> 52         0.00063
       5 -> 27         0.00359
       5 -> 35        -0.00067
       5 -> 46        -0.00058
       6 -> 11        -0.00052
       6 -> 16        -0.00069
       6 -> 18        -0.00042
       6 -> 23         0.00165
       6 -> 24         0.00029
       6 -> 29        -0.00027
       6 -> 33         0.00023
       6 -> 36         0.00050
       6 -> 42         0.00050
       6 -> 47         0.00062
       6 -> 50        -0.00018
       6 -> 53         0.00023
       7 -> 27         0.00099
       7 -> 35        -0.00019
       7 -> 46         0.00100
       8 -> 10         0.69737
       8 -> 13         0.11260
       8 -> 17         0.03072
       8 -> 22        -0.00534
       8 -> 28         0.00457
       8 -> 32         0.00335
       8 -> 37        -0.00240
       8 -> 43        -0.00015
       8 -> 52         0.00080
       3 <- 27         0.00202
       3 <- 35         0.00175
       3 <- 46         0.00106
       4 <- 10         0.00024
       4 <- 13         0.00115
       4 <- 17         0.00023
       4 <- 22         0.00015
       4 <- 32        -0.00104
       4 <- 37         0.00148
       4 <- 43         0.00042
       4 <- 52         0.00016
       5 <- 27         0.00395
       5 <- 35        -0.00053
       5 <- 46        -0.00057
       6 <- 11        -0.00089
       6 <- 16         0.00137
       6 <- 18        -0.00292
       6 <- 23         0.00389
       6 <- 24        -0.00170
       6 <- 29         0.00160
       6 <- 33        -0.00075
       6 <- 36         0.00170
       6 <- 40        -0.00011
       6 <- 42         0.00078
       6 <- 47         0.00049
       6 <- 53         0.00063
       7 <- 27         0.00103
       7 <- 35        -0.00025
       7 <- 46         0.00082
       8 <- 10        -0.00626
       8 <- 13        -0.00862
       8 <- 17        -0.00443
       8 <- 22         0.00040
       8 <- 28        -0.00038
       8 <- 32         0.00292
       8 <- 37        -0.00220
       8 <- 52         0.00025
 This state for optimization and/or second-order correction.
 Total Energy, E(TD-HF/TD-DFT) =  -113.890439804    
 Copying the excited state density for this state as the 1-particle RhoCI density.
 
 Excited State   2:      Singlet-B2     5.7359 eV  216.15 nm  f=0.0922  <S**2>=0.000
       3 -> 11         0.00086
       3 -> 16         0.00031
       3 -> 18         0.00096
       3 -> 24         0.00111
       3 -> 29        -0.00020
       3 -> 42         0.00016
       3 -> 50        -0.00015
       4 ->  9         0.00202
       4 -> 12         0.00611
       4 -> 14         0.00501
       4 -> 15         0.00162
       4 -> 19         0.00371
       4 -> 20         0.00136
       4 -> 21         0.00263
       4 -> 25         0.00132
       4 -> 26        -0.00106
       4 -> 30        -0.00203
       4 -> 31         0.00045
       4 -> 34         0.00041
       4 -> 38        -0.00081
       4 -> 39         0.00012
       4 -> 41         0.00047
       4 -> 44         0.00042
       4 -> 45        -0.00059
       4 -> 48         0.00038
       5 -> 11        -0.00660
       5 -> 16         0.00132
       5 -> 18         0.00104
       5 -> 23        -0.00229
       5 -> 24         0.00411
       5 -> 29        -0.00067
       5 -> 33        -0.00104
       5 -> 36         0.00086
       5 -> 40        -0.00014
       5 -> 42         0.00044
       6 -> 27         0.00114
       6 -> 35         0.00033
       6 -> 46         0.00087
       7 -> 11         0.00268
       7 -> 16         0.00349
       7 -> 18         0.00348
       7 -> 23        -0.00197
       7 -> 24         0.00251
       7 -> 29         0.00015
       7 -> 36        -0.00025
       7 -> 42        -0.00037
       7 -> 47         0.00041
       7 -> 50         0.00048
       8 ->  9         0.70623
       8 -> 12         0.01003
       8 -> 14        -0.02374
       8 -> 15         0.01127
       8 -> 19         0.02056
       8 -> 20        -0.00749
       8 -> 21        -0.00824
       8 -> 25         0.00062
       8 -> 26        -0.00045
       8 -> 30         0.00011
       8 -> 31         0.00300
       8 -> 34         0.00146
       8 -> 38         0.00092
       8 -> 39        -0.00050
       8 -> 41        -0.00047
       8 -> 44        -0.00016
       8 -> 45        -0.00107
       8 -> 48         0.00035
       8 -> 54        -0.00014
       3 <- 11         0.00029
       3 <- 18         0.00059
       3 <- 24         0.00082
       3 <- 29        -0.00018
       3 <- 42         0.00013
       3 <- 53         0.00011
       4 <-  9         0.00197
       4 <- 12        -0.00014
       4 <- 14         0.00399
       4 <- 15         0.00179
       4 <- 19         0.00093
       4 <- 20         0.00052
       4 <- 21         0.00168
       4 <- 25         0.00163
       4 <- 26        -0.00125
       4 <- 30        -0.00075
       4 <- 34         0.00019
       4 <- 38        -0.00052
       4 <- 39         0.00016
       4 <- 41         0.00045
       4 <- 44         0.00029
       4 <- 45        -0.00053
       4 <- 48         0.00032
       5 <- 11        -0.00024
       5 <- 16         0.00130
       5 <- 18         0.00219
       5 <- 23        -0.00132
       5 <- 24         0.00317
       5 <- 29        -0.00055
       5 <- 33        -0.00079
       5 <- 36         0.00066
       5 <- 40        -0.00018
       5 <- 42         0.00021
       6 <- 27         0.00089
       6 <- 35         0.00026
       6 <- 46         0.00074
       7 <- 11         0.00071
       7 <- 16         0.00216
       7 <- 18         0.00114
       7 <- 23        -0.00080
       7 <- 24         0.00118
       7 <- 29         0.00078
       7 <- 42        -0.00032
       7 <- 47         0.00039
       7 <- 50         0.00054
       8 <-  9        -0.00481
       8 <- 12         0.00249
       8 <- 14        -0.01389
       8 <- 15        -0.00259
       8 <- 19        -0.00119
       8 <- 20         0.00021
       8 <- 21        -0.00435
       8 <- 25        -0.00314
       8 <- 26        -0.00065
       8 <- 30         0.00048
       8 <- 31         0.00164
       8 <- 34         0.00153
       8 <- 38         0.00090
       8 <- 39        -0.00042
       8 <- 41        -0.00032
       8 <- 44        -0.00024
       8 <- 45        -0.00079
       8 <- 48         0.00032
 
 Excited State   3:      Singlet-B2     6.5352 eV  189.72 nm  f=0.0236  <S**2>=0.000
       3 -> 11         0.00011
       3 -> 16        -0.00063
       3 -> 18         0.00011
       3 -> 23        -0.00019
       3 -> 24        -0.00044
       3 -> 29        -0.00087
       3 -> 33        -0.00014
       3 -> 36         0.00028
       3 -> 42         0.00030
       3 -> 47        -0.00019
       3 -> 50        -0.00020
       3 -> 53         0.00011
       4 ->  9         0.00451
       4 -> 12        -0.00011
       4 -> 14        -0.00262
       4 -> 15        -0.00428
       4 -> 19         0.00300
       4 -> 20        -0.00044
       4 -> 21        -0.00141
       4 -> 25        -0.00090
       4 -> 26        -0.00117
       4 -> 30         0.00075
       4 -> 31         0.00219
       4 -> 34         0.00037
       4 -> 39         0.00082
       4 -> 41         0.00062
       4 -> 45        -0.00061
       4 -> 48         0.00040
       4 -> 51         0.00019
       5 -> 11        -0.00249
       5 -> 16        -0.00467
       5 -> 18        -0.00117
       5 -> 23         0.00129
       5 -> 24        -0.00374
       5 -> 29         0.00129
       5 -> 33        -0.00055
       5 -> 40         0.00027
       5 -> 47        -0.00012
       6 -> 27         0.00090
       6 -> 35         0.00134
       6 -> 46         0.00100
       7 -> 11         0.00288
       7 -> 16         0.00036
       7 -> 18         0.00238
       7 -> 23        -0.00126
       7 -> 24         0.00054
       7 -> 29         0.00011
       7 -> 33         0.00023
       7 -> 36        -0.00115
       7 -> 40         0.00030
       7 -> 42        -0.00061
       7 -> 47         0.00066
       7 -> 50         0.00056
       7 -> 53        -0.00017
       8 ->  9        -0.01026
       8 -> 12         0.70598
       8 -> 14         0.01900
       8 -> 15         0.02431
       8 -> 19         0.01598
       8 -> 20         0.01530
       8 -> 21         0.00334
       8 -> 25        -0.00043
       8 -> 26         0.00060
       8 -> 30        -0.00180
       8 -> 31        -0.00059
       8 -> 34        -0.00037
       8 -> 38         0.00013
       8 -> 39         0.00088
       8 -> 41         0.00118
       8 -> 44        -0.00011
       8 -> 45        -0.00068
       8 -> 48         0.00054
       8 -> 54        -0.00016
       3 <- 11        -0.00021
       3 <- 16        -0.00060
       3 <- 18        -0.00017
       3 <- 24        -0.00049
       3 <- 29        -0.00058
       3 <- 33        -0.00016
       3 <- 36         0.00030
       3 <- 42         0.00025
       3 <- 47        -0.00015
       3 <- 50        -0.00010
       3 <- 53         0.00021
       4 <-  9        -0.00136
       4 <- 12        -0.00018
       4 <- 14        -0.00175
       4 <- 15        -0.00061
       4 <- 19        -0.00064
       4 <- 20         0.00033
       4 <- 21        -0.00102
       4 <- 25        -0.00092
       4 <- 26        -0.00094
       4 <- 30         0.00088
       4 <- 31         0.00090
       4 <- 34         0.00091
       4 <- 39         0.00061
       4 <- 41         0.00062
       4 <- 45        -0.00064
       4 <- 48         0.00027
       4 <- 51         0.00019
       5 <- 11        -0.00021
       5 <- 16        -0.00093
       5 <- 18        -0.00107
       5 <- 23         0.00124
       5 <- 24        -0.00191
       5 <- 29         0.00059
       5 <- 33        -0.00058
       5 <- 36        -0.00023
       5 <- 40         0.00027
       5 <- 50        -0.00018
       6 <- 27         0.00044
       6 <- 35         0.00111
       6 <- 46         0.00087
       7 <- 11         0.00038
       7 <- 16         0.00044
       7 <- 18         0.00020
       7 <- 23        -0.00024
       7 <- 29         0.00042
       7 <- 36        -0.00079
       7 <- 40         0.00024
       7 <- 42        -0.00043
       7 <- 47         0.00058
       7 <- 50         0.00053
       8 <-  9         0.00232
       8 <- 12         0.00138
       8 <- 14         0.00723
       8 <- 15         0.00186
       8 <- 19        -0.00181
       8 <- 20        -0.00216
       8 <- 21         0.00283
       8 <- 25         0.00048
       8 <- 26        -0.00070
       8 <- 30        -0.00129
       8 <- 31        -0.00112
       8 <- 38         0.00030
       8 <- 39         0.00063
       8 <- 41         0.00100
       8 <- 45        -0.00058
       8 <- 48         0.00034
       8 <- 51         0.00011
 
 Excited State   4:      Singlet-A1     6.6732 eV  185.80 nm  f=0.0373  <S**2>=0.000
       3 ->  9         0.00128
       3 -> 12         0.00076
       3 -> 15         0.00060
       3 -> 19         0.00133
       3 -> 20        -0.00025
       3 -> 21        -0.00037
       3 -> 25         0.00029
       3 -> 30        -0.00102
       3 -> 31        -0.00020
       3 -> 34        -0.00023
       3 -> 38        -0.00033
       3 -> 39        -0.00027
       3 -> 41        -0.00011
       3 -> 48        -0.00013
       3 -> 51        -0.00027
       3 -> 54         0.00020
       4 -> 11         0.00734
       4 -> 16         0.00815
       4 -> 18         0.00623
       4 -> 23         0.00105
       4 -> 24         0.00395
       4 -> 29         0.00069
       4 -> 33        -0.00015
       4 -> 36         0.00097
       4 -> 42        -0.00025
       4 -> 50        -0.00035
       4 -> 53        -0.00012
       5 ->  9         0.00575
       5 -> 12        -0.01080
       5 -> 14         0.00620
       5 -> 15         0.00251
       5 -> 19         0.00135
       5 -> 20        -0.00681
       5 -> 21         0.00176
       5 -> 25         0.00678
       5 -> 26        -0.00095
       5 -> 30         0.00087
       5 -> 31        -0.00083
       5 -> 34        -0.00111
       5 -> 38        -0.00038
       5 -> 39         0.00097
       5 -> 41         0.00011
       5 -> 44         0.00020
       5 -> 45        -0.00030
       5 -> 48        -0.00031
       6 -> 10         0.00683
       6 -> 13        -0.00295
       6 -> 17         0.00505
       6 -> 22         0.00389
       6 -> 28         0.00081
       6 -> 32         0.00091
       6 -> 37         0.00054
       6 -> 43         0.00044
       6 -> 49        -0.00036
       7 ->  9         0.01291
       7 -> 12         0.00554
       7 -> 14         0.00241
       7 -> 15        -0.00104
       7 -> 19         0.00827
       7 -> 20        -0.00239
       7 -> 21         0.00067
       7 -> 25         0.00182
       7 -> 26         0.00023
       7 -> 30        -0.00033
       7 -> 31         0.00070
       7 -> 34        -0.00097
       7 -> 38        -0.00011
       7 -> 39         0.00024
       7 -> 48        -0.00022
       7 -> 51         0.00040
       8 -> 11         0.70539
       8 -> 16         0.04354
       8 -> 18        -0.00584
       8 -> 23         0.00285
       8 -> 24         0.00182
       8 -> 29         0.00360
       8 -> 33         0.00158
       8 -> 36        -0.00264
       8 -> 40         0.00016
       8 -> 42         0.00150
       8 -> 47        -0.00050
       8 -> 53        -0.00010
       3 <-  9         0.00057
       3 <- 12         0.00031
       3 <- 15         0.00031
       3 <- 19         0.00076
       3 <- 21        -0.00015
       3 <- 25         0.00032
       3 <- 30        -0.00061
       3 <- 31        -0.00017
       3 <- 34        -0.00019
       3 <- 38        -0.00024
       3 <- 39        -0.00023
       3 <- 41        -0.00012
       3 <- 48        -0.00016
       3 <- 51        -0.00023
       3 <- 54         0.00018
       4 <- 11         0.00261
       4 <- 16         0.00262
       4 <- 18         0.00317
       4 <- 23         0.00096
       4 <- 24         0.00212
       4 <- 29         0.00026
       4 <- 33        -0.00027
       4 <- 36         0.00083
       4 <- 42        -0.00022
       4 <- 50        -0.00029
       4 <- 53        -0.00011
       5 <-  9         0.00600
       5 <- 12        -0.00406
       5 <- 14         0.00469
       5 <- 15         0.00231
       5 <- 19         0.00096
       5 <- 20        -0.00383
       5 <- 21         0.00040
       5 <- 25         0.00419
       5 <- 26        -0.00044
       5 <- 30         0.00021
       5 <- 31        -0.00103
       5 <- 34        -0.00090
       5 <- 38        -0.00048
       5 <- 39         0.00079
       5 <- 44         0.00026
       5 <- 45        -0.00027
       5 <- 48        -0.00025
       6 <- 10         0.00266
       6 <- 13        -0.00126
       6 <- 17         0.00244
       6 <- 22         0.00238
       6 <- 28         0.00052
       6 <- 32         0.00070
       6 <- 37         0.00044
       6 <- 43         0.00037
       6 <- 49        -0.00032
       7 <-  9         0.00454
       7 <- 12         0.00146
       7 <- 14         0.00115
       7 <- 15        -0.00040
       7 <- 19         0.00366
       7 <- 20        -0.00146
       7 <- 21         0.00016
       7 <- 25         0.00111
       7 <- 30        -0.00036
       7 <- 31         0.00044
       7 <- 34        -0.00067
       7 <- 38        -0.00016
       7 <- 39         0.00030
       7 <- 45        -0.00013
       7 <- 48        -0.00011
       7 <- 51         0.00037
       8 <- 11        -0.00422
       8 <- 16         0.00515
       8 <- 18        -0.01162
       8 <- 23        -0.00133
       8 <- 24        -0.00171
       8 <- 29         0.00195
       8 <- 33         0.00124
       8 <- 36        -0.00191
       8 <- 42         0.00121
       8 <- 47        -0.00056
       8 <- 53        -0.00012
 
 Excited State   5:      Singlet-A2     7.5963 eV  163.22 nm  f=0.0000  <S**2>=0.000
       3 -> 27         0.00203
       3 -> 35         0.00163
       3 -> 46         0.00076
       4 -> 10         0.00714
       4 -> 13         0.00922
       4 -> 17        -0.00141
       4 -> 22        -0.00199
       4 -> 28         0.00047
       4 -> 32         0.00221
       4 -> 37         0.00278
       4 -> 43         0.00032
       4 -> 49        -0.00011
       4 -> 52         0.00045
       5 -> 27         0.00139
       5 -> 35        -0.00080
       5 -> 46        -0.00026
       6 -> 11         0.00013
       6 -> 16        -0.00187
       6 -> 18        -0.00034
       6 -> 23         0.00149
       6 -> 24         0.00010
       6 -> 29        -0.00038
       6 -> 33         0.00011
       6 -> 36         0.00043
       6 -> 42         0.00044
       6 -> 47         0.00043
       6 -> 53         0.00019
       7 -> 27         0.00036
       7 -> 35        -0.00018
       7 -> 46         0.00081
       8 -> 10        -0.11339
       8 -> 13         0.69738
       8 -> 17         0.01221
       8 -> 22        -0.02375
       8 -> 28         0.00239
       8 -> 32         0.00186
       8 -> 37        -0.00150
       8 -> 43        -0.00017
       8 -> 49        -0.00013
       8 -> 52         0.00050
       3 <- 27         0.00128
       3 <- 35         0.00133
       3 <- 46         0.00086
       4 <- 10         0.00033
       4 <- 13         0.00045
       4 <- 17        -0.00041
       4 <- 32        -0.00039
       4 <- 37         0.00094
       4 <- 43         0.00028
       4 <- 52         0.00014
       5 <- 27         0.00196
       5 <- 35        -0.00015
       5 <- 46        -0.00032
       6 <- 11         0.00037
       6 <- 16        -0.00044
       6 <- 18        -0.00089
       6 <- 23         0.00277
       6 <- 24        -0.00080
       6 <- 29         0.00017
       6 <- 33        -0.00077
       6 <- 36         0.00145
       6 <- 42         0.00079
       6 <- 47         0.00020
       6 <- 53         0.00042
       7 <- 27         0.00057
       7 <- 35        -0.00027
       7 <- 46         0.00044
       8 <- 10        -0.00724
       8 <- 13        -0.00234
       8 <- 17        -0.00136
       8 <- 22         0.00061
       8 <- 28        -0.00030
       8 <- 32         0.00153
       8 <- 37        -0.00125
       8 <- 52         0.00019
 
 Excited State   6:      Singlet-B2     9.7930 eV  126.60 nm  f=0.2272  <S**2>=0.000
       3 -> 11        -0.00040
       3 -> 16         0.00121
       3 -> 18        -0.00085
       3 -> 23         0.00091
       3 -> 24         0.00046
       3 -> 29         0.00104
       3 -> 33        -0.00081
       3 -> 40         0.00043
       3 -> 42         0.00054
       3 -> 47         0.00030
       3 -> 50         0.00012
       4 ->  9         0.00780
       4 -> 12         0.00703
       4 -> 14         0.01958
       4 -> 15         0.00365
       4 -> 19         0.00386
       4 -> 20         0.01178
       4 -> 21         0.01226
       4 -> 25         0.00583
       4 -> 26        -0.00073
       4 -> 30         0.00177
       4 -> 31         0.00288
       4 -> 34         0.00180
       4 -> 38         0.00050
       4 -> 39        -0.00183
       4 -> 41         0.00026
       4 -> 45        -0.00020
       4 -> 51        -0.00020
       5 -> 11        -0.01477
       5 -> 16         0.00829
       5 -> 18        -0.00472
       5 -> 23        -0.01039
       5 -> 24         0.01217
       5 -> 29        -0.00030
       5 -> 33         0.00274
       5 -> 36        -0.00337
       5 -> 40        -0.00020
       5 -> 42         0.00210
       6 -> 27         0.00660
       6 -> 35         0.00037
       6 -> 46        -0.00034
       7 -> 11         0.00149
       7 -> 16         0.00777
       7 -> 18         0.00330
       7 -> 23        -0.00482
       7 -> 24         0.00557
       7 -> 29         0.00101
       7 -> 33         0.00141
       7 -> 36        -0.00091
       7 -> 40        -0.00024
       7 -> 42         0.00049
       7 -> 47        -0.00030
       8 ->  9         0.02558
       8 -> 12        -0.00802
       8 -> 14         0.65160
       8 -> 15        -0.26956
       8 -> 19         0.01407
       8 -> 20        -0.01757
       8 -> 21        -0.03869
       8 -> 25        -0.01241
       8 -> 26         0.00124
       8 -> 30         0.00088
       8 -> 31         0.00476
       8 -> 34         0.00270
       8 -> 38        -0.00118
       8 -> 39         0.00435
       8 -> 41        -0.00268
       8 -> 44         0.00042
       8 -> 45        -0.00102
       8 -> 48        -0.00075
       3 <- 11        -0.00018
       3 <- 16         0.00048
       3 <- 18        -0.00035
       3 <- 23         0.00049
       3 <- 24         0.00048
       3 <- 29         0.00049
       3 <- 33        -0.00049
       3 <- 40         0.00033
       3 <- 42         0.00046
       3 <- 47         0.00029
       4 <-  9         0.00264
       4 <- 12         0.00103
       4 <- 14         0.00828
       4 <- 15         0.00302
       4 <- 19         0.00146
       4 <- 20         0.00507
       4 <- 21         0.00638
       4 <- 25         0.00335
       4 <- 26        -0.00132
       4 <- 30         0.00117
       4 <- 31         0.00187
       4 <- 34         0.00029
       4 <- 38         0.00058
       4 <- 39        -0.00129
       4 <- 41         0.00017
       4 <- 48         0.00012
       5 <- 11        -0.00324
       5 <- 16         0.00318
       5 <- 18         0.00036
       5 <- 23        -0.00628
       5 <- 24         0.00679
       5 <- 29        -0.00016
       5 <- 33         0.00109
       5 <- 36        -0.00228
       5 <- 40        -0.00032
       5 <- 42         0.00157
       5 <- 47        -0.00013
       6 <- 27         0.00454
       6 <- 46        -0.00049
       7 <- 16         0.00273
       7 <- 18         0.00102
       7 <- 23        -0.00231
       7 <- 24         0.00267
       7 <- 29         0.00106
       7 <- 33         0.00085
       7 <- 36        -0.00055
       7 <- 40        -0.00028
       7 <- 42         0.00033
       7 <- 47        -0.00019
       7 <- 53         0.00013
       8 <-  9        -0.01297
       8 <- 12         0.00671
       8 <- 14        -0.02815
       8 <- 15        -0.00480
       8 <- 19         0.00158
       8 <- 20        -0.00363
       8 <- 21        -0.01945
       8 <- 25        -0.00612
       8 <- 30         0.00078
       8 <- 31         0.00215
       8 <- 34         0.00123
       8 <- 38        -0.00071
       8 <- 39         0.00274
       8 <- 41        -0.00189
       8 <- 45        -0.00055
       8 <- 48        -0.00058
       8 <- 51         0.00013
 
 Excited State   7:      Singlet-B2    10.0305 eV  123.61 nm  f=0.1272  <S**2>=0.000
       3 -> 16         0.00086
       3 -> 18        -0.00067
       3 -> 23         0.00161
       3 -> 24         0.00028
       3 -> 29         0.00092
       3 -> 33        -0.00066
       3 -> 36         0.00050
       3 -> 40         0.00021
       3 -> 42         0.00056
       4 ->  9         0.00336
       4 -> 12        -0.00209
       4 -> 14         0.01057
       4 -> 15         0.01283
       4 -> 19         0.00224
       4 -> 20         0.00770
       4 -> 21         0.00502
       4 -> 25         0.00284
       4 -> 26        -0.00406
       4 -> 30         0.00079
       4 -> 31         0.00292
       4 -> 34         0.00028
       4 -> 38         0.00041
       4 -> 39        -0.00052
       4 -> 41        -0.00031
       4 -> 44         0.00066
       4 -> 45         0.00039
       4 -> 48        -0.00013
       4 -> 51         0.00017
       4 -> 54         0.00016
       5 -> 11        -0.00965
       5 -> 16         0.00158
       5 -> 18        -0.00118
       5 -> 23        -0.00904
       5 -> 24         0.00483
       5 -> 36        -0.00147
       5 -> 40         0.00021
       5 -> 42         0.00112
       5 -> 47         0.00017
       6 -> 27         0.00414
       6 -> 35         0.00058
       6 -> 46        -0.00035
       7 -> 11         0.00166
       7 -> 16         0.00423
       7 -> 18         0.00254
       7 -> 23        -0.00051
       7 -> 24         0.00374
       7 -> 29         0.00168
       7 -> 33         0.00048
       7 -> 36        -0.00019
       7 -> 40        -0.00026
       7 -> 42         0.00045
       7 -> 47        -0.00024
       7 -> 50        -0.00020
       8 ->  9        -0.00177
       8 -> 12        -0.03049
       8 -> 14         0.26777
       8 -> 15         0.65243
       8 -> 19         0.02564
       8 -> 20         0.00798
       8 -> 21        -0.02926
       8 -> 25         0.00157
       8 -> 26        -0.00641
       8 -> 31         0.00256
       8 -> 34         0.00109
       8 -> 38         0.00064
       8 -> 39         0.00216
       8 -> 41        -0.00146
       8 -> 44        -0.00042
       8 -> 45        -0.00041
       8 -> 48        -0.00030
       8 -> 54         0.00012
       3 <- 11        -0.00028
       3 <- 16         0.00065
       3 <- 18        -0.00075
       3 <- 23         0.00081
       3 <- 24        -0.00020
       3 <- 29         0.00086
       3 <- 33        -0.00049
       3 <- 36         0.00041
       3 <- 40         0.00015
       3 <- 42         0.00039
       4 <-  9         0.00194
       4 <- 12         0.00103
       4 <- 14         0.00471
       4 <- 15         0.00226
       4 <- 19         0.00192
       4 <- 20         0.00345
       4 <- 21         0.00290
       4 <- 25         0.00215
       4 <- 26        -0.00115
       4 <- 30         0.00082
       4 <- 31         0.00180
       4 <- 39        -0.00038
       4 <- 44         0.00026
       4 <- 45         0.00017
       5 <- 11        -0.00145
       5 <- 16         0.00185
       5 <- 18         0.00088
       5 <- 23        -0.00333
       5 <- 24         0.00389
       5 <- 33        -0.00054
       5 <- 36        -0.00124
       5 <- 42         0.00073
       5 <- 47         0.00013
       5 <- 50         0.00016
       6 <- 27         0.00255
       6 <- 35         0.00042
       6 <- 46        -0.00025
       7 <- 11         0.00055
       7 <- 16         0.00080
       7 <- 18         0.00161
       7 <- 23        -0.00084
       7 <- 24         0.00224
       7 <- 29         0.00017
       7 <- 33         0.00026
       7 <- 36        -0.00026
       7 <- 40        -0.00020
       7 <- 42         0.00036
       7 <- 47        -0.00029
       7 <- 50        -0.00032
       8 <-  9        -0.00835
       8 <- 12         0.00463
       8 <- 14        -0.01671
       8 <- 15        -0.00141
       8 <- 19         0.00106
       8 <- 20        -0.00311
       8 <- 21        -0.00960
       8 <- 25        -0.00394
       8 <- 26         0.00029
       8 <- 30        -0.00057
       8 <- 31         0.00143
       8 <- 34         0.00063
       8 <- 38         0.00070
       8 <- 39         0.00136
       8 <- 41        -0.00109
       8 <- 44        -0.00028
       8 <- 45        -0.00024
       8 <- 48        -0.00031
 
 Excited State   8:      Singlet-A1    10.8675 eV  114.09 nm  f=0.0000  <S**2>=0.000
       3 ->  9        -0.00022
       3 -> 12        -0.00095
       3 -> 14         0.00125
       3 -> 15        -0.00147
       3 -> 19        -0.00134
       3 -> 20        -0.00139
       3 -> 21         0.00177
       3 -> 25        -0.00139
       3 -> 30        -0.00055
       3 -> 31        -0.00076
       3 -> 34         0.00249
       3 -> 38        -0.00049
       3 -> 39        -0.00035
       3 -> 41         0.00096
       3 -> 44        -0.00020
       3 -> 45        -0.00099
       3 -> 48        -0.00059
       3 -> 51        -0.00058
       3 -> 54         0.00035
       4 -> 11        -0.00319
       4 -> 16        -0.00265
       4 -> 18        -0.00296
       4 -> 23        -0.00412
       4 -> 24        -0.00292
       4 -> 29        -0.00201
       4 -> 33        -0.00081
       4 -> 36        -0.00051
       4 -> 40         0.00022
       4 -> 42         0.00129
       4 -> 47        -0.00062
       4 -> 50        -0.00077
       4 -> 53        -0.00034
       5 ->  9        -0.01301
       5 -> 12         0.00282
       5 -> 14        -0.00201
       5 -> 15        -0.00881
       5 -> 19        -0.00300
       5 -> 20         0.00794
       5 -> 21         0.00322
       5 -> 25        -0.00081
       5 -> 26         0.00274
       5 -> 30         0.00110
       5 -> 31         0.00276
       5 -> 34        -0.00131
       5 -> 38         0.00109
       5 -> 39        -0.00100
       5 -> 44        -0.00012
       5 -> 45         0.00038
       5 -> 48         0.00014
       5 -> 51        -0.00019
       5 -> 54        -0.00032
       6 -> 10        -0.02805
       6 -> 13        -0.00110
       6 -> 17        -0.01707
       6 -> 22        -0.00215
       6 -> 28        -0.00801
       6 -> 32        -0.00031
       6 -> 37         0.00051
       6 -> 43         0.00040
       6 -> 49        -0.00134
       6 -> 52        -0.00091
       7 ->  9        -0.02584
       7 -> 12        -0.01388
       7 -> 14        -0.00057
       7 -> 15         0.01280
       7 -> 19        -0.01384
       7 -> 20         0.00405
       7 -> 21        -0.00144
       7 -> 25        -0.00082
       7 -> 26        -0.00984
       7 -> 30         0.00256
       7 -> 31        -0.00258
       7 -> 34         0.00062
       7 -> 38         0.00112
       7 -> 41         0.00037
       7 -> 44        -0.00047
       7 -> 45        -0.00036
       7 -> 48         0.00059
       7 -> 51         0.00180
       7 -> 54         0.00065
       8 -> 11        -0.04065
       8 -> 16         0.69408
       8 -> 18         0.11711
       8 -> 23         0.01169
       8 -> 24         0.00974
       8 -> 29        -0.00340
       8 -> 33         0.00090
       8 -> 36         0.00094
       8 -> 40         0.00062
       8 -> 42        -0.00087
       8 -> 47        -0.00033
       8 -> 50        -0.00100
       8 -> 53        -0.00035
       3 <-  9        -0.00034
       3 <- 12        -0.00071
       3 <- 14         0.00057
       3 <- 15        -0.00086
       3 <- 19        -0.00120
       3 <- 20        -0.00079
       3 <- 21         0.00113
       3 <- 25        -0.00079
       3 <- 30        -0.00017
[...]
  49        5PX        -0.00000   0.00000   0.00000   0.00000   0.00000
  50        5PY         0.00000   0.00000  -0.04245  -0.07290  -0.07686
  51        5PZ        -0.00017   0.00000   0.00464   0.00664   0.00048
  52        6D 0       -0.00032   0.00000  -0.00265  -0.00520   0.00075
  53        6D+1        0.00000   0.00000   0.00000   0.00000   0.00000
  54        6D-1       -0.00000  -0.00000  -0.00303  -0.00244   0.00471
  55        6D+2       -0.00000   0.00000  -0.00013  -0.00023  -0.00002
  56        6D-2        0.00000  -0.00000   0.00000   0.00000   0.00000
                          26        27        28        29        30
  26        4PX         0.00012
  27        4PY         0.00000   0.00147
  28        4PZ         0.00000  -0.00059   0.00038
  29 3   H  1S          0.00000  -0.00415  -0.00073   0.08526
  30        2S          0.00000  -0.00603  -0.00114   0.12853   0.19878
  31        3S          0.00000  -0.00174  -0.00099   0.08626   0.14617
  32        4PX         0.00012   0.00000   0.00000   0.00000   0.00000
  33        4PY         0.00000  -0.00084   0.00003   0.00690   0.00891
  34        4PZ         0.00000  -0.00003  -0.00018   0.00418   0.00561
  35 4   O  1S          0.00000  -0.00126  -0.00060   0.00392   0.00604
  36        2S          0.00000  -0.00255  -0.00036   0.00684   0.01109
  37        2PX         0.00393   0.00000   0.00000   0.00000   0.00000
  38        2PY         0.00000  -0.00609   0.00409   0.02794   0.06457
  39        2PZ         0.00000  -0.00602   0.00037   0.00831   0.02061
  40        3S          0.00000   0.00923  -0.00104  -0.02354  -0.03884
  41        3PX         0.00562   0.00000   0.00000   0.00000   0.00000
  42        3PY         0.00000  -0.00861   0.00570   0.04269   0.09672
  43        3PZ         0.00000  -0.00864   0.00055   0.01225   0.02983
  44        4S          0.00000   0.00494  -0.00119  -0.02469  -0.03098
  45        4PX         0.00350   0.00000   0.00000   0.00000   0.00000
  46        4PY         0.00000  -0.00551   0.00272   0.06396   0.12405
  47        4PZ         0.00000  -0.00384   0.00027   0.00582   0.01380
  48        5S          0.00000   0.00133  -0.00063  -0.01123  -0.01277
  49        5PX        -0.00000   0.00000   0.00000   0.00000   0.00000
  50        5PY         0.00000  -0.00031  -0.00083   0.04245   0.07290
  51        5PZ         0.00000  -0.00115   0.00025   0.00464   0.00664
  52        6D 0        0.00000   0.00133  -0.00013  -0.00265  -0.00520
  53        6D+1       -0.00066   0.00000   0.00000   0.00000   0.00000
  54        6D-1        0.00000   0.00096  -0.00083   0.00303   0.00244
  55        6D+2        0.00000   0.00006  -0.00001  -0.00013  -0.00023
  56        6D-2       -0.00000   0.00000   0.00000   0.00000   0.00000
                          31        32        33        34        35
  31        3S          0.15061
  32        4PX         0.00000   0.00012
  33        4PY        -0.00008   0.00000   0.00147
  34        4PZ         0.00164   0.00000   0.00059   0.00038
  35 4   O  1S          0.00261   0.00000   0.00126  -0.00060   0.63977
  36        2S          0.00321   0.00000   0.00255  -0.00036   0.57012
  37        2PX         0.00000   0.00393   0.00000   0.00000   0.00000
  38        2PY         0.11191   0.00000  -0.00609  -0.00409   0.00000
  39        2PZ        -0.00730   0.00000   0.00602   0.00037  -0.00108
  40        3S         -0.00638   0.00000  -0.00923  -0.00104  -0.12385
  41        3PX         0.00000   0.00562   0.00000   0.00000   0.00000
  42        3PY         0.16378   0.00000  -0.00861  -0.00570   0.00000
  43        3PZ        -0.01017   0.00000   0.00864   0.00055  -0.00538
  44        4S         -0.01342   0.00000  -0.00494  -0.00119  -0.12342
  45        4PX         0.00000   0.00350   0.00000   0.00000   0.00000
  46        4PY         0.16834   0.00000  -0.00551  -0.00272   0.00000
  47        4PZ        -0.00525   0.00000   0.00384   0.00027  -0.01294
  48        5S         -0.00469   0.00000  -0.00133  -0.00063  -0.01558
  49        5PX         0.00000  -0.00000   0.00000   0.00000   0.00000
  50        5PY         0.07686   0.00000  -0.00031   0.00083  -0.00000
  51        5PZ         0.00048   0.00000   0.00115   0.00025   0.00399
  52        6D 0        0.00075   0.00000  -0.00133  -0.00013  -0.00291
  53        6D+1        0.00000  -0.00066   0.00000   0.00000   0.00000
  54        6D-1       -0.00471   0.00000   0.00096   0.00083   0.00000
  55        6D+2       -0.00002   0.00000  -0.00006  -0.00001  -0.00047
  56        6D-2        0.00000   0.00000   0.00000   0.00000   0.00000
                          36        37        38        39        40
  36        2S          0.52607
  37        2PX         0.00000   0.12384
  38        2PY         0.00000   0.00000   0.17834
  39        2PZ        -0.00084  -0.00000   0.00000   0.19605
  40        3S         -0.21879   0.00000   0.00000  -0.00057   0.67654
  41        3PX         0.00000   0.17705   0.00000   0.00000   0.00000
  42        3PY         0.00000   0.00000   0.25577  -0.00000   0.00000
  43        3PZ        -0.00310  -0.00000   0.00000   0.27662  -0.00927
  44        4S         -0.20078   0.00000   0.00000   0.15282   0.57148
  45        4PX         0.00000   0.11049   0.00000   0.00000   0.00000
  46        4PY         0.00000   0.00000   0.20459  -0.00000  -0.00000
  47        4PZ        -0.01905  -0.00000   0.00000   0.13826   0.04757
  48        5S         -0.02622   0.00000   0.00000   0.04971   0.07816
  49        5PX         0.00000  -0.00001   0.00000   0.00000   0.00000
  50        5PY        -0.00000   0.00000   0.05494  -0.00000   0.00000
  51        5PZ         0.00584  -0.00000   0.00000   0.01044  -0.01486
  52        6D 0       -0.00650   0.00000  -0.00000  -0.02896   0.02415
  53        6D+1       -0.00000  -0.02084   0.00000  -0.00000   0.00000
  54        6D-1        0.00000   0.00000  -0.01970   0.00000  -0.00000
  55        6D+2       -0.00090  -0.00000  -0.00000  -0.00037   0.00300
  56        6D-2        0.00000   0.00000   0.00000   0.00000   0.00000
                          41        42        43        44        45
  41        3PX         0.25313
  42        3PY         0.00000   0.36696
  43        3PZ        -0.00000   0.00000   0.39046
  44        4S          0.00000   0.00000   0.20849   0.60764
  45        4PX         0.15797   0.00000   0.00000   0.00000   0.09858
  46        4PY         0.00000   0.29508  -0.00000  -0.00000   0.00000
  47        4PZ        -0.00000   0.00000   0.19456   0.14768  -0.00000
  48        5S          0.00000   0.00000   0.06910   0.10902   0.00000
  49        5PX        -0.00002   0.00000   0.00000   0.00000  -0.00001
  50        5PY         0.00000   0.08056  -0.00000   0.00000   0.00000
  51        5PZ        -0.00000   0.00000   0.01493  -0.00583  -0.00000
  52        6D 0        0.00000  -0.00000  -0.04117  -0.00209   0.00000
  53        6D+1       -0.02979   0.00000  -0.00000   0.00000  -0.01859
  54        6D-1        0.00000  -0.02793   0.00000   0.00000   0.00000
  55        6D+2       -0.00000  -0.00000  -0.00057   0.00224   0.00000
  56        6D-2        0.00000   0.00000   0.00000   0.00000   0.00000
                          46        47        48        49        50
  46        4PY         0.25495
  47        4PZ         0.00000   0.10110
  48        5S          0.00000   0.04005   0.02550
  49        5PX         0.00000   0.00000   0.00000   0.00000
  50        5PY         0.08450  -0.00000   0.00000   0.00000   0.03970
  51        5PZ         0.00000   0.00649  -0.00040  -0.00000   0.00000
  52        6D 0       -0.00000  -0.01873  -0.00434   0.00000  -0.00000
  53        6D+1        0.00000  -0.00000  -0.00000   0.00000   0.00000
  54        6D-1       -0.01872   0.00000   0.00000   0.00000  -0.00196
  55        6D+2       -0.00000  -0.00005   0.00026   0.00000  -0.00000
  56        6D-2       -0.00000   0.00000   0.00000  -0.00000  -0.00000
                          51        52        53        54        55
  51        5PZ         0.00135
  52        6D 0       -0.00215   0.00516
  53        6D+1       -0.00000  -0.00000   0.00351
  54        6D-1        0.00000   0.00000   0.00000   0.00292
  55        6D+2       -0.00009   0.00016   0.00000   0.00000   0.00001
  56        6D-2        0.00000   0.00000  -0.00000  -0.00000   0.00000
                          56
  56        6D-2        0.00000
          Condensed to atoms (all electrons):
               1          2          3          4
     1  C    4.527444   0.463553   0.463553   0.294094
     2  H    0.463553   0.913304  -0.186023  -0.176372
     3  H    0.463553  -0.186023   0.913304  -0.176372
     4  O    0.294094  -0.176372  -0.176372   8.281082
 Mulliken charges:
               1
     1  C    0.251356
     2  H   -0.014462
     3  H   -0.014462
     4  O   -0.222432
 Sum of Mulliken charges =  -0.00000
 Mulliken charges with hydrogens summed into heavy atoms:
               1
     1  C    0.222432
     4  O   -0.222432
 Electronic spatial extent (au):  <R**2>=             49.6390
 Charge=              0.0000 electrons
 Dipole moment (field-independent basis, Debye):
    X=              0.0000    Y=              0.0000    Z=             -0.2618  Tot=              0.2618
 Quadrupole moment (field-independent basis, Debye-Ang):
   XX=            -10.6865   YY=            -12.5053   ZZ=            -13.2941
   XY=             -0.0000   XZ=             -0.0000   YZ=             -0.0000
 Traceless Quadrupole moment (field-independent basis, Debye-Ang):
   XX=              1.4755   YY=             -0.3434   ZZ=             -1.1321
   XY=             -0.0000   XZ=             -0.0000   YZ=             -0.0000
 Octapole moment (field-independent basis, Debye-Ang**2):
  XXX=              0.0000  YYY=             -0.0000  ZZZ=              4.1580  XYY=              0.0000
  XXY=             -0.0000  XXZ=              1.3515  XZZ=              0.0000  YZZ=              0.0000
  YYZ=              2.8000  XYZ=              0.0000
 Hexadecapole moment (field-independent basis, Debye-Ang**3):
 XXXX=             -8.8159 YYYY=            -25.3634 ZZZZ=            -36.8030 XXXY=             -0.0000
 XXXZ=             -0.0000 YYYX=             -0.0000 YYYZ=             -0.0000 ZZZX=             -0.0000
 ZZZY=              0.0000 XXYY=             -5.6693 XXZZ=             -7.3324 YYZZ=            -11.7800
 XXYZ=              0.0000 YYXZ=             -0.0000 ZZXY=             -0.0000
 N-N= 4.063315692234D+01 E-N=-3.512307314331D+02  KE= 1.170669399739D+02
 Symmetry A1   KE= 1.058980650091D+02
 Symmetry A2   KE= 8.459521793410D-36
 Symmetry B1   KE= 4.280865035386D+00
 Symmetry B2   KE= 6.888009929433D+00
 Leave Link  601 at Fri Sep 17 10:52:29 2021, MaxMem=   268435456 cpu:               0.0 elap:               0.0
 (Enter /software/gaussian/g16-a03/l9999.exe)
 Electronic transition elements 
                 1             2             3             4             5 
      1  -0.113890D+03 -0.113884D+03 -0.113855D+03 -0.113850D+03 -0.113816D+03
      2   0.000000D+00  0.000000D+00  0.000000D+00  0.000000D+00  0.000000D+00
      3   0.000000D+00  0.809814D+00 -0.383604D+00  0.000000D+00  0.000000D+00
      4   0.000000D+00  0.000000D+00  0.000000D+00 -0.477740D+00  0.000000D+00
      5   0.000000D+00  0.000000D+00  0.000000D+00  0.000000D+00  0.000000D+00
      6   0.000000D+00 -0.165302D+00  0.929822D-01  0.000000D+00  0.000000D+00
      7   0.000000D+00  0.000000D+00  0.000000D+00  0.111464D+00  0.000000D+00
      8   0.000000D+00 -0.436253D+00 -0.795027D+00  0.000000D+00  0.000000D+00
      9   0.000000D+00  0.000000D+00  0.000000D+00  0.000000D+00  0.000000D+00
     10   0.119494D+01  0.000000D+00  0.000000D+00  0.000000D+00  0.598549D+00
     11   0.000000D+00  0.000000D+00  0.000000D+00 -0.204320D+00  0.000000D+00
     12   0.000000D+00  0.000000D+00  0.000000D+00 -0.681783D+00  0.000000D+00
     13   0.000000D+00  0.000000D+00  0.000000D+00 -0.176077D+00  0.000000D+00
     14  -0.274961D+00  0.000000D+00  0.000000D+00  0.000000D+00  0.744691D-01
     15   0.000000D+00  0.000000D+00  0.000000D+00  0.000000D+00  0.000000D+00
     16   0.000000D+00  0.492264D+00 -0.308507D+00  0.000000D+00  0.000000D+00
                 6             7             8             9            10 
      1  -0.113735D+03 -0.113726D+03 -0.113696D+03 -0.113688D+03 -0.113648D+03
      2   0.000000D+00  0.000000D+00  0.000000D+00  0.000000D+00  0.000000D+00
      3   0.973024D+00  0.719358D+00  0.000000D+00  0.000000D+00  0.000000D+00
      4   0.000000D+00  0.000000D+00 -0.719892D-02  0.000000D+00 -0.881366D+00
      5   0.000000D+00  0.000000D+00  0.000000D+00  0.000000D+00  0.000000D+00
      6  -0.363206D+00 -0.235498D+00  0.000000D+00  0.000000D+00  0.000000D+00
      7   0.000000D+00  0.000000D+00  0.254689D-02  0.000000D+00  0.392630D+00
      8  -0.397721D+00 -0.122087D+01  0.000000D+00  0.000000D+00  0.000000D+00
      9   0.000000D+00  0.000000D+00  0.000000D+00  0.000000D+00  0.000000D+00
     10   0.000000D+00  0.000000D+00  0.000000D+00  0.187185D+00  0.000000D+00
     11   0.000000D+00  0.000000D+00  0.193701D+00  0.000000D+00  0.701353D-01
     12   0.000000D+00  0.000000D+00  0.631368D+00  0.000000D+00 -0.786116D+00
     13   0.000000D+00  0.000000D+00  0.617474D+00  0.000000D+00 -0.795747D+00
     14   0.000000D+00  0.000000D+00  0.000000D+00  0.225154D+00  0.000000D+00
     15   0.000000D+00  0.000000D+00  0.000000D+00  0.000000D+00  0.000000D+00
     16   0.945058D+00  0.221975D+00  0.000000D+00  0.000000D+00  0.000000D+00
                11            12            13            14            15 
      1  -0.113645D+03 -0.113594D+03 -0.113586D+03 -0.113559D+03 -0.113559D+03
      2   0.000000D+00 -0.125185D+00  0.000000D+00  0.000000D+00  0.000000D+00
      3  -0.359006D+00  0.000000D+00  0.000000D+00 -0.335471D+00  0.000000D+00
      4   0.000000D+00  0.000000D+00 -0.200976D-01  0.000000D+00 -0.527132D+00
      5   0.000000D+00  0.514708D-01  0.000000D+00  0.000000D+00  0.000000D+00
      6   0.163661D+00  0.000000D+00  0.000000D+00  0.181740D+00  0.000000D+00
      7   0.000000D+00  0.000000D+00  0.981441D-02  0.000000D+00  0.283950D+00
      8  -0.343547D+00  0.000000D+00  0.000000D+00 -0.416890D+00  0.000000D+00
      9   0.000000D+00 -0.861394D+00  0.000000D+00  0.000000D+00  0.000000D+00
     10   0.000000D+00  0.000000D+00  0.000000D+00  0.000000D+00  0.000000D+00
     11   0.000000D+00  0.000000D+00  0.227315D+00  0.000000D+00  0.620215D-01
     12   0.000000D+00  0.000000D+00  0.447509D+00  0.000000D+00  0.581081D-01
     13   0.000000D+00  0.000000D+00  0.506247D+00  0.000000D+00  0.326974D-02
     14   0.000000D+00  0.000000D+00  0.000000D+00  0.000000D+00  0.000000D+00
     15   0.000000D+00 -0.362055D+00  0.000000D+00  0.000000D+00  0.000000D+00
     16   0.226370D-01  0.000000D+00  0.000000D+00  0.181046D+00  0.000000D+00
                16            17            18            19            20 
      1  -0.113550D+03 -0.113536D+03 -0.113524D+03 -0.113523D+03 -0.113515D+03
      2   0.000000D+00 -0.385700D+00 -0.101022D+00  0.000000D+00 -0.630336D+00
      3   0.250229D+00  0.000000D+00  0.000000D+00  0.000000D+00  0.000000D+00
      4   0.000000D+00  0.000000D+00  0.000000D+00  0.431573D+00  0.000000D+00
      5   0.000000D+00  0.220014D+00  0.606013D-01  0.000000D+00  0.364218D+00
      6  -0.118772D+00  0.000000D+00  0.000000D+00  0.000000D+00  0.000000D+00
      7   0.000000D+00  0.000000D+00  0.000000D+00 -0.242053D+00  0.000000D+00
      8  -0.130867D+01  0.000000D+00  0.000000D+00  0.000000D+00  0.000000D+00
      9   0.000000D+00 -0.818583D-01 -0.107290D+01  0.000000D+00  0.285960D+00
     10   0.000000D+00  0.000000D+00  0.000000D+00  0.000000D+00  0.000000D+00
     11   0.000000D+00  0.000000D+00  0.000000D+00  0.541568D+00  0.000000D+00
     12   0.000000D+00  0.000000D+00  0.000000D+00  0.729997D+00  0.000000D+00
     13   0.000000D+00  0.000000D+00  0.000000D+00  0.345156D+00  0.000000D+00
     14   0.000000D+00  0.000000D+00  0.000000D+00  0.000000D+00  0.000000D+00
     15   0.000000D+00 -0.381503D-01 -0.844701D+00  0.000000D+00 -0.779106D-01
     16   0.179759D+00  0.000000D+00  0.000000D+00  0.000000D+00  0.000000D+00
                21            22            23            24            25 
      1  -0.113513D+03 -0.113504D+03 -0.113501D+03 -0.113501D+03 -0.113494D+03
      2   0.000000D+00  0.000000D+00  0.000000D+00 -0.203836D+00  0.000000D+00
      3   0.000000D+00  0.000000D+00  0.000000D+00  0.000000D+00 -0.115008D+00
      4   0.160027D+00  0.000000D+00  0.000000D+00  0.000000D+00  0.000000D+00
      5   0.000000D+00  0.000000D+00  0.000000D+00  0.129768D+00  0.000000D+00
      6   0.000000D+00  0.000000D+00  0.000000D+00  0.000000D+00  0.739428D-01
      7  -0.896220D-01  0.000000D+00  0.000000D+00  0.000000D+00  0.000000D+00
      8   0.000000D+00  0.000000D+00  0.000000D+00  0.000000D+00  0.558929D-01
      9   0.000000D+00  0.000000D+00  0.000000D+00 -0.841861D-01  0.000000D+00
     10   0.000000D+00 -0.809620D-01 -0.262934D+00  0.000000D+00  0.000000D+00
     11   0.519917D+00  0.000000D+00  0.000000D+00  0.000000D+00  0.000000D+00
     12   0.151828D+00  0.000000D+00  0.000000D+00  0.000000D+00  0.000000D+00
     13  -0.414685D+00  0.000000D+00  0.000000D+00  0.000000D+00  0.000000D+00
     14   0.000000D+00  0.338330D+00  0.170319D+00  0.000000D+00  0.000000D+00
     15   0.000000D+00  0.000000D+00  0.000000D+00  0.541492D-01  0.000000D+00
     16   0.000000D+00  0.000000D+00  0.000000D+00  0.000000D+00 -0.265839D+00
                26            27            28            29            30 
      1  -0.113493D+03 -0.113490D+03 -0.113467D+03 -0.113459D+03 -0.113456D+03
      2   0.000000D+00  0.000000D+00  0.000000D+00  0.000000D+00  0.000000D+00
      3   0.000000D+00 -0.382255D+00  0.000000D+00  0.000000D+00 -0.111907D+00
      4  -0.519371D+00  0.000000D+00  0.208110D+00  0.273950D+00  0.000000D+00
      5   0.000000D+00  0.000000D+00  0.000000D+00  0.000000D+00  0.000000D+00
      6   0.000000D+00  0.231066D+00  0.000000D+00  0.000000D+00  0.740859D-01
      7   0.303730D+00  0.000000D+00 -0.134372D+00 -0.174076D+00  0.000000D+00
      8   0.000000D+00  0.187003D+00  0.000000D+00  0.000000D+00  0.208796D-01
      9   0.000000D+00  0.000000D+00  0.000000D+00  0.000000D+00  0.000000D+00
     10   0.000000D+00  0.000000D+00  0.000000D+00  0.000000D+00  0.000000D+00
     11  -0.330733D+00  0.000000D+00 -0.266421D+00  0.120320D-02  0.000000D+00
     12  -0.191195D+00  0.000000D+00  0.457039D+00  0.603029D+00  0.000000D+00
     13  -0.114191D+01  0.000000D+00  0.229276D+00 -0.562775D-01  0.000000D+00
     14   0.000000D+00  0.000000D+00  0.000000D+00  0.000000D+00  0.000000D+00
     15   0.000000D+00  0.000000D+00  0.000000D+00  0.000000D+00  0.000000D+00
     16   0.000000D+00 -0.167435D+00  0.000000D+00  0.000000D+00  0.345864D+00

 Test job not archived.
 1\1\GINC-BHD0006\SP\RB3LYP TD-FC\6-311+G(d,p)\C1H2O1\BWEIGHT\17-Sep-20
 21\0\\#p B3LYP/6-311+G** #p TD=(singlets,nstates=30)IOp(6/8=3) IOp(9/4
 0=4)\\Scan Step 71, Bond Length 0.855\\0,1\C,0,0.,0.,-0.52736\H,0,0.,0
 .93726,-1.11871\H,0,0.,-0.93726,-1.11871\O,0,0.,0.,0.32764\\Version=ES
 64L-G16RevA.03\State=1-A1\HF=-114.0949874\RMSD=6.948e-09\PG=C02V [C2(C
 1O1),SGV(H2)]\\@


 The earth never tires,
 The earth is rude, silent, incomprehensible at first,
 Nature is rude and incomprehensible at first,
 Be not discouraged, keep on,
 There are divine things well envelop'd,
 I swear to you there are divine things more beautiful than words can tell.
                                 -- Walt Whitman
 Job cpu time:       0 days  0 hours  0 minutes 26.9 seconds.
 Elapsed time:       0 days  0 hours  0 minutes 27.2 seconds.
 File lengths (MBytes):  RWF=     79 Int=      0 D2E=      0 Chk=     32 Scr=      1
 Normal termination of Gaussian 16 at Fri Sep 17 10:52:29 2021.
