 Entering Gaussian System, Link 0=g16
 Initial command:
 /software/gaussian/g16-a03/l1.exe "/local_scratch/6484805/Gau-1814.inp" -scrdir="/local_scratch/6484805/"
 Entering Link 1 = /software/gaussian/g16-a03/l1.exe PID=      1839.
  
 Copyright (c) 1988,1990,1992,1993,1995,1998,2003,2009,2016,
            Gaussian, Inc.  All Rights Reserved.
  
 This is part of the Gaussian(R) 16 program.  It is based on
 the Gaussian(R) 09 system (copyright 2009, Gaussian, Inc.),
 the Gaussian(R) 03 system (copyright 2003, Gaussian, Inc.),
 the Gaussian(R) 98 system (copyright 1998, Gaussian, Inc.),
 the Gaussian(R) 94 system (copyright 1995, Gaussian, Inc.),
 the Gaussian 92(TM) system (copyright 1992, Gaussian, Inc.),
 the Gaussian 90(TM) system (copyright 1990, Gaussian, Inc.),
 the Gaussian 88(TM) system (copyright 1988, Gaussian, Inc.),
 the Gaussian 86(TM) system (copyright 1986, Carnegie Mellon
 University), and the Gaussian 82(TM) system (copyright 1983,
 Carnegie Mellon University). Gaussian is a federally registered
 trademark of Gaussian, Inc.
  
 This software contains proprietary and confidential information,
 including trade secrets, belonging to Gaussian, Inc.
  
 This software is provided under written license and may be
 used, copied, transmitted, or stored only in accord with that
 written license.
  
 The following legend is applicable only to US Government
 contracts under FAR:
  
                    RESTRICTED RIGHTS LEGEND
  
 Use, reproduction and disclosure by the US Government is
 subject to restrictions as set forth in subparagraphs (a)
 and (c) of the Commercial Computer Software - Restricted
 Rights clause in FAR 52.227-19.
  
 Gaussian, Inc.
 340 Quinnipiac St., Bldg. 40, Wallingford CT 06492
  
  
 ---------------------------------------------------------------
 Warning -- This program may not be used in any manner that
 competes with the business of Gaussian, Inc. or will provide
 assistance to any competitor of Gaussian, Inc.  The licensee
 of this program is prohibited from giving any competitor of
 Gaussian, Inc. access to this program.  By using this program,
 the user acknowledges that Gaussian, Inc. is engaged in the
 business of creating and licensing software in the field of
 computational chemistry and represents and warrants to the
 licensee that it is not a competitor of Gaussian, Inc. and that
 it will not use this program in any manner prohibited above.
 ---------------------------------------------------------------
  

 Cite this work as:
 Gaussian 16, Revision A.03,
 M. J. Frisch, G. W. Trucks, H. B. Schlegel, G. E. Scuseria, 
 M. A. Robb, J. R. Cheeseman, G. Scalmani, V. Barone, 
 G. A. Petersson, H. Nakatsuji, X. Li, M. Caricato, A. V. Marenich, 
 J. Bloino, B. G. Janesko, R. Gomperts, B. Mennucci, H. P. Hratchian, 
 J. V. Ortiz, A. F. Izmaylov, J. L. Sonnenberg, D. Williams-Young, 
 F. Ding, F. Lipparini, F. Egidi, J. Goings, B. Peng, A. Petrone, 
 T. Henderson, D. Ranasinghe, V. G. Zakrzewski, J. Gao, N. Rega, 
 G. Zheng, W. Liang, M. Hada, M. Ehara, K. Toyota, R. Fukuda, 
 J. Hasegawa, M. Ishida, T. Nakajima, Y. Honda, O. Kitao, H. Nakai, 
 T. Vreven, K. Throssell, J. A. Montgomery, Jr., J. E. Peralta, 
 F. Ogliaro, M. J. Bearpark, J. J. Heyd, E. N. Brothers, K. N. Kudin, 
 V. N. Staroverov, T. A. Keith, R. Kobayashi, J. Normand, 
 K. Raghavachari, A. P. Rendell, J. C. Burant, S. S. Iyengar, 
 J. Tomasi, M. Cossi, J. M. Millam, M. Klene, C. Adamo, R. Cammi, 
 J. W. Ochterski, R. L. Martin, K. Morokuma, O. Farkas, 
 J. B. Foresman, and D. J. Fox, Gaussian, Inc., Wallingford CT, 2016.
 
 ******************************************
 Gaussian 16:  ES64L-G16RevA.03 25-Dec-2016
                17-Sep-2021 
 ******************************************
 %chk=geometry.chk
 %mem=2GB
 %nprocshared=1
 Will use up to    1 processors via shared memory.
 --------------------------------------------------------------------
 #p B3LYP/6-311+G** #p TD=(singlets,nstates=30)IOp(6/8=3) IOp(9/40=4)
 --------------------------------------------------------------------
 1/38=1,172=1/1;
 2/12=2,17=6,18=5,40=1/2;
 3/5=4,6=6,7=111,11=9,25=1,30=1,74=-5/1,2,3,8;
 4//1;
 5/5=2,38=5/2;
 8/6=1,10=2,108=30/1;
 9/40=4,41=30,42=1,48=1,70=2/14;
 6/7=2,8=3,9=2,10=2/1;
 99/5=1,9=1/99;
 Leave Link    1 at Fri Sep 17 10:52:03 2021, MaxMem=   268435456 cpu:               0.0 elap:               0.2
 (Enter /software/gaussian/g16-a03/l101.exe)
 ------------------------------
 Scan Step 74, Bond Length 0.87
 ------------------------------
 Symbolic Z-matrix:
 Charge =  0 Multiplicity = 1
 C                     0.        0.       -0.52736 
 H                     0.        0.93726  -1.11871 
 H                     0.       -0.93726  -1.11871 
 O                     0.        0.        0.34264 
 
 ITRead=  0  0  0  0
 MicOpt= -1 -1 -1 -1
 NAtoms=      4 NQM=        4 NQMF=       0 NMMI=      0 NMMIF=      0
                NMic=       0 NMicF=      0.
                    Isotopes and Nuclear Properties:
 (Nuclear quadrupole moments (NQMom) in fm**2, nuclear magnetic moments (NMagM)
  in nuclear magnetons)

  Atom         1           2           3           4
 IAtWgt=          12           1           1          16
 AtmWgt=  12.0000000   1.0078250   1.0078250  15.9949146
 NucSpn=           0           1           1           0
 AtZEff=  -0.0000000  -0.0000000  -0.0000000  -0.0000000
 NQMom=    0.0000000   0.0000000   0.0000000   0.0000000
 NMagM=    0.0000000   2.7928460   2.7928460   0.0000000
 AtZNuc=   6.0000000   1.0000000   1.0000000   8.0000000
 Leave Link  101 at Fri Sep 17 10:52:04 2021, MaxMem=   268435456 cpu:               0.1 elap:               0.1
 (Enter /software/gaussian/g16-a03/l202.exe)
                          Input orientation:                          
 ---------------------------------------------------------------------
 Center     Atomic      Atomic             Coordinates (Angstroms)
 Number     Number       Type             X           Y           Z
 ---------------------------------------------------------------------
      1          6           0        0.000000    0.000000   -0.527360
      2          1           0        0.000000    0.937260   -1.118710
      3          1           0        0.000000   -0.937260   -1.118710
      4          8           0        0.000000    0.000000    0.342640
 ---------------------------------------------------------------------
                    Distance matrix (angstroms):
                    1          2          3          4
     1  C    0.000000
     2  H    1.108220   0.000000
     3  H    1.108220   1.874520   0.000000
     4  O    0.870000   1.736088   1.736088   0.000000
 Stoichiometry    CH2O
 Framework group  C2V[C2(CO),SGV(H2)]
 Deg. of freedom     3
 Full point group                 C2V     NOp   4
 Largest Abelian subgroup         C2V     NOp   4
 Largest concise Abelian subgroup C2      NOp   2
                         Standard orientation:                         
 ---------------------------------------------------------------------
 Center     Atomic      Atomic             Coordinates (Angstroms)
 Number     Number       Type             X           Y           Z
 ---------------------------------------------------------------------
      1          6           0        0.000000    0.000000   -0.361081
      2          1           0        0.000000    0.937260   -0.952431
      3          1           0       -0.000000   -0.937260   -0.952431
      4          8           0        0.000000   -0.000000    0.508919
 ---------------------------------------------------------------------
 Rotational constants (GHZ):         285.4183527          68.1382778          55.0065063
 Leave Link  202 at Fri Sep 17 10:52:04 2021, MaxMem=   268435456 cpu:               0.0 elap:               0.0
 (Enter /software/gaussian/g16-a03/l301.exe)
 Standard basis: 6-311+G(d,p) (5D, 7F)
 Ernie: Thresh=  0.10000D-02 Tol=  0.10000D-05 Strict=F.
 There are    29 symmetry adapted cartesian basis functions of A1  symmetry.
 There are     3 symmetry adapted cartesian basis functions of A2  symmetry.
 There are    11 symmetry adapted cartesian basis functions of B1  symmetry.
 There are    15 symmetry adapted cartesian basis functions of B2  symmetry.
 There are    27 symmetry adapted basis functions of A1  symmetry.
 There are     3 symmetry adapted basis functions of A2  symmetry.
 There are    11 symmetry adapted basis functions of B1  symmetry.
 There are    15 symmetry adapted basis functions of B2  symmetry.
    56 basis functions,    88 primitive gaussians,    58 cartesian basis functions
     8 alpha electrons        8 beta electrons
       nuclear repulsion energy        40.0852718284 Hartrees.
 IExCor=  402 DFT=T Ex+Corr=B3LYP ExCW=0 ScaHFX=  0.200000
 ScaDFX=  0.800000  0.720000  1.000000  0.810000 ScalE2=  1.000000  1.000000
 IRadAn=      5 IRanWt=     -1 IRanGd=            0 ICorTp=0 IEmpDi=  4
 NAtoms=    4 NActive=    4 NUniq=    3 SFac= 1.78D+00 NAtFMM=   60 NAOKFM=F Big=F
 Integral buffers will be    131072 words long.
 Regular integral format.
 Two-electron integral symmetry is turned on.
 Leave Link  301 at Fri Sep 17 10:52:04 2021, MaxMem=   268435456 cpu:               0.0 elap:               0.1
 (Enter /software/gaussian/g16-a03/l302.exe)
 NPDir=0 NMtPBC=     1 NCelOv=     1 NCel=       1 NClECP=     1 NCelD=      1
         NCelK=      1 NCelE2=     1 NClLst=     1 CellRange=     0.0.
 One-electron integrals computed using PRISM.
 One-electron integral symmetry used in STVInt
 NBasis=    56 RedAO= T EigKep=  1.18D-03  NBF=    27     3    11    15
 NBsUse=    56 1.00D-06 EigRej= -1.00D+00 NBFU=    27     3    11    15
 Precomputing XC quadrature grid using
 IXCGrd= 4 IRadAn=           5 IRanWt=          -1 IRanGd=           0 AccXCQ= 0.00D+00.
 Generated NRdTot=       0 NPtTot=           0 NUsed=           0 NTot=          32
 NSgBfM=    58    58    58    58    58 MxSgAt=     4 MxSgA2=     4.
 Leave Link  302 at Fri Sep 17 10:52:04 2021, MaxMem=   268435456 cpu:               0.1 elap:               0.1
 (Enter /software/gaussian/g16-a03/l303.exe)
 DipDrv:  MaxL=1.
 Leave Link  303 at Fri Sep 17 10:52:04 2021, MaxMem=   268435456 cpu:               0.0 elap:               0.0
 (Enter /software/gaussian/g16-a03/l308.exe)
 Leave Link  308 at Fri Sep 17 10:52:04 2021, MaxMem=   268435456 cpu:               0.0 elap:               0.0
 (Enter /software/gaussian/g16-a03/l401.exe)
 ExpMin= 4.38D-02 ExpMax= 8.59D+03 ExpMxC= 1.30D+03 IAcc=3 IRadAn=         5 AccDes= 0.00D+00
 Harris functional with IExCor=  402 and IRadAn=       5 diagonalized for initial guess.
 HarFok:  IExCor=  402 AccDes= 0.00D+00 IRadAn=         5 IDoV= 1 UseB2=F ITyADJ=14
 ICtDFT=  3500011 ScaDFX=  1.000000  1.000000  1.000000  1.000000
 FoFCou: FMM=F IPFlag=           0 FMFlag=      100000 FMFlg1=           0
         NFxFlg=           0 DoJE=T BraDBF=F KetDBF=T FulRan=T
         wScrn=  0.000000 ICntrl=       500 IOpCl=  0 I1Cent=   200000004 NGrid=           0
         NMat0=    1 NMatS0=      1 NMatT0=    0 NMatD0=    1 NMtDS0=    0 NMtDT0=    0
 Petite list used in FoFCou.
 Harris En= -114.259514442963    
 JPrj=0 DoOrth=F DoCkMO=F.
 Initial guess orbital symmetries:
       Occupied  (A1) (A1) (A1) (B2) (B1) (A1) (A1) (B2)
       Virtual   (B1) (A1) (B2) (A1) (B1) (A1) (A1) (B2) (B2) (B1)
                 (A1) (A1) (A1) (B1) (B2) (B2) (A1) (A1) (A2) (B1)
                 (B2) (A1) (A1) (B1) (B2) (A1) (B2) (A2) (B1) (A1)
                 (A1) (B2) (A1) (B2) (B1) (A1) (A1) (A2) (B2) (A1)
                 (B1) (B2) (A1) (B1) (B2) (A1) (A1) (A1)
 The electronic state of the initial guess is 1-A1.
 Leave Link  401 at Fri Sep 17 10:52:04 2021, MaxMem=   268435456 cpu:               0.3 elap:               0.3
 (Enter /software/gaussian/g16-a03/l502.exe)
 Keep R1 ints in memory in symmetry-blocked form, NReq=2159909.
 FoFCou: FMM=F IPFlag=           0 FMFlag=           0 FMFlg1=           0
         NFxFlg=           0 DoJE=F BraDBF=F KetDBF=F FulRan=T
         wScrn=  0.000000 ICntrl=       600 IOpCl=  0 I1Cent=           0 NGrid=           0
         NMat0=    1 NMatS0=   1596 NMatT0=    0 NMatD0=    1 NMtDS0=    0 NMtDT0=    0
 Petite list used in FoFCou.
 Closed shell SCF:
 Using DIIS extrapolation, IDIIS=  1040.
 NGot=   268435456 LenX=   268074384 LenY=   268070579
 Requested convergence on RMS density matrix=1.00D-08 within 128 cycles.
 Requested convergence on MAX density matrix=1.00D-06.
 Requested convergence on             energy=1.00D-06.
 No special actions if energy rises.

 Cycle   1  Pass 1  IDiag  1:
 E= -113.995279559789    
 DIIS: error= 7.96D-02 at cycle   1 NSaved=   1.
 NSaved= 1 IEnMin= 1 EnMin= -113.995279559789     IErMin= 1 ErrMin= 7.96D-02
 ErrMax= 7.96D-02  0.00D+00 EMaxC= 1.00D-01 BMatC= 2.53D-01 BMatP= 2.53D-01
 IDIUse=3 WtCom= 2.04D-01 WtEn= 7.96D-01
 Coeff-Com:  0.100D+01
 Coeff-En:   0.100D+01
 Coeff:      0.100D+01
 Gap=     0.150 Goal=   None    Shift=    0.000
 GapD=    0.150 DampG=1.000 DampE=0.500 DampFc=0.5000 IDamp=-1.
 Damping current iteration by 5.00D-01
 RMSDP=1.38D-02 MaxDP=1.87D-01              OVMax= 2.85D-01

 Cycle   2  Pass 1  IDiag  1:
 E= -114.053723489501     Delta-E=       -0.058443929712 Rises=F Damp=T
 DIIS: error= 1.58D-02 at cycle   2 NSaved=   2.
 NSaved= 2 IEnMin= 2 EnMin= -114.053723489501     IErMin= 2 ErrMin= 1.58D-02
 ErrMax= 1.58D-02  0.00D+00 EMaxC= 1.00D-01 BMatC= 1.05D-02 BMatP= 2.53D-01
 IDIUse=3 WtCom= 8.42D-01 WtEn= 1.58D-01
 Coeff-Com:  0.810D-01 0.919D+00
 Coeff-En:   0.225D+00 0.775D+00
 Coeff:      0.104D+00 0.896D+00
 Gap=     0.267 Goal=   None    Shift=    0.000
 RMSDP=3.46D-03 MaxDP=4.82D-02 DE=-5.84D-02 OVMax= 1.68D-01

 Cycle   3  Pass 1  IDiag  1:
 E= -114.145230301207     Delta-E=       -0.091506811706 Rises=F Damp=F
 DIIS: error= 1.51D-02 at cycle   3 NSaved=   3.
 NSaved= 3 IEnMin= 3 EnMin= -114.145230301207     IErMin= 3 ErrMin= 1.51D-02
 ErrMax= 1.51D-02  0.00D+00 EMaxC= 1.00D-01 BMatC= 6.65D-03 BMatP= 1.05D-02
 IDIUse=3 WtCom= 8.49D-01 WtEn= 1.51D-01
 Coeff-Com: -0.199D-01 0.423D+00 0.596D+00
 Coeff-En:   0.000D+00 0.000D+00 0.100D+01
 Coeff:     -0.169D-01 0.360D+00 0.657D+00
 Gap=     0.255 Goal=   None    Shift=    0.000
 RMSDP=1.14D-03 MaxDP=1.47D-02 DE=-9.15D-02 OVMax= 3.00D-02

 Cycle   4  Pass 1  IDiag  1:
 E= -114.149165919472     Delta-E=       -0.003935618265 Rises=F Damp=F
 DIIS: error= 4.36D-03 at cycle   4 NSaved=   4.
 NSaved= 4 IEnMin= 4 EnMin= -114.149165919472     IErMin= 4 ErrMin= 4.36D-03
 ErrMax= 4.36D-03  0.00D+00 EMaxC= 1.00D-01 BMatC= 6.62D-04 BMatP= 6.65D-03
 IDIUse=3 WtCom= 9.56D-01 WtEn= 4.36D-02
 Coeff-Com: -0.190D-01 0.673D-01 0.294D+00 0.658D+00
 Coeff-En:   0.000D+00 0.000D+00 0.613D-02 0.994D+00
 Coeff:     -0.181D-01 0.644D-01 0.281D+00 0.672D+00
 Gap=     0.252 Goal=   None    Shift=    0.000
 RMSDP=3.04D-04 MaxDP=6.50D-03 DE=-3.94D-03 OVMax= 6.52D-03

 Cycle   5  Pass 1  IDiag  1:
 E= -114.149651797268     Delta-E=       -0.000485877796 Rises=F Damp=F
 DIIS: error= 2.79D-04 at cycle   5 NSaved=   5.
 NSaved= 5 IEnMin= 5 EnMin= -114.149651797268     IErMin= 5 ErrMin= 2.79D-04
 ErrMax= 2.79D-04  0.00D+00 EMaxC= 1.00D-01 BMatC= 3.83D-06 BMatP= 6.62D-04
 IDIUse=3 WtCom= 9.97D-01 WtEn= 2.79D-03
 Coeff-Com: -0.953D-03-0.165D-02 0.197D-01 0.113D+00 0.870D+00
 Coeff-En:   0.000D+00 0.000D+00 0.000D+00 0.000D+00 0.100D+01
 Coeff:     -0.950D-03-0.165D-02 0.197D-01 0.112D+00 0.870D+00
 Gap=     0.252 Goal=   None    Shift=    0.000
 RMSDP=3.57D-05 MaxDP=5.99D-04 DE=-4.86D-04 OVMax= 6.10D-04

 Cycle   6  Pass 1  IDiag  1:
 E= -114.149655115542     Delta-E=       -0.000003318274 Rises=F Damp=F
 DIIS: error= 2.00D-05 at cycle   6 NSaved=   6.
 NSaved= 6 IEnMin= 6 EnMin= -114.149655115542     IErMin= 6 ErrMin= 2.00D-05
 ErrMax= 2.00D-05  0.00D+00 EMaxC= 1.00D-01 BMatC= 1.50D-08 BMatP= 3.83D-06
 IDIUse=1 WtCom= 1.00D+00 WtEn= 0.00D+00
 Coeff-Com:  0.198D-03-0.712D-03-0.375D-03 0.610D-02 0.763D-01 0.919D+00
 Coeff:      0.198D-03-0.712D-03-0.375D-03 0.610D-02 0.763D-01 0.919D+00
 Gap=     0.252 Goal=   None    Shift=    0.000
 RMSDP=2.26D-06 MaxDP=2.80D-05 DE=-3.32D-06 OVMax= 4.32D-05

 Cycle   7  Pass 1  IDiag  1:
 E= -114.149655126773     Delta-E=       -0.000000011231 Rises=F Damp=F
 DIIS: error= 1.01D-06 at cycle   7 NSaved=   7.
 NSaved= 7 IEnMin= 7 EnMin= -114.149655126773     IErMin= 7 ErrMin= 1.01D-06
 ErrMax= 1.01D-06  0.00D+00 EMaxC= 1.00D-01 BMatC= 5.90D-11 BMatP= 1.50D-08
 IDIUse=1 WtCom= 1.00D+00 WtEn= 0.00D+00
 Coeff-Com:  0.342D-05-0.797D-05-0.107D-03-0.583D-03-0.614D-02 0.158D-02
 Coeff-Com:  0.101D+01
 Coeff:      0.342D-05-0.797D-05-0.107D-03-0.583D-03-0.614D-02 0.158D-02
 Coeff:      0.101D+01
 Gap=     0.252 Goal=   None    Shift=    0.000
 RMSDP=2.75D-07 MaxDP=2.81D-06 DE=-1.12D-08 OVMax= 6.19D-06

 Cycle   8  Pass 1  IDiag  1:
 E= -114.149655126861     Delta-E=       -0.000000000089 Rises=F Damp=F
 DIIS: error= 2.24D-07 at cycle   8 NSaved=   8.
 NSaved= 8 IEnMin= 8 EnMin= -114.149655126861     IErMin= 8 ErrMin= 2.24D-07
 ErrMax= 2.24D-07  0.00D+00 EMaxC= 1.00D-01 BMatC= 1.96D-12 BMatP= 5.90D-11
 IDIUse=1 WtCom= 1.00D+00 WtEn= 0.00D+00
 Coeff-Com: -0.248D-05 0.315D-05 0.685D-05-0.634D-04-0.875D-03-0.797D-02
 Coeff-Com:  0.104D+00 0.905D+00
 Coeff:     -0.248D-05 0.315D-05 0.685D-05-0.634D-04-0.875D-03-0.797D-02
 Coeff:      0.104D+00 0.905D+00
 Gap=     0.252 Goal=   None    Shift=    0.000
 RMSDP=4.55D-08 MaxDP=6.10D-07 DE=-8.89D-11 OVMax= 1.07D-06

 Cycle   9  Pass 1  IDiag  1:
 E= -114.149655126864     Delta-E=       -0.000000000002 Rises=F Damp=F
 DIIS: error= 3.03D-08 at cycle   9 NSaved=   9.
 NSaved= 9 IEnMin= 9 EnMin= -114.149655126864     IErMin= 9 ErrMin= 3.03D-08
 ErrMax= 3.03D-08  0.00D+00 EMaxC= 1.00D-01 BMatC= 4.43D-14 BMatP= 1.96D-12
 IDIUse=1 WtCom= 1.00D+00 WtEn= 0.00D+00
 Coeff-Com: -0.202D-06 0.689D-06 0.769D-06 0.116D-05-0.198D-04-0.718D-03
 Coeff-Com: -0.991D-02 0.798D-01 0.931D+00
 Coeff:     -0.202D-06 0.689D-06 0.769D-06 0.116D-05-0.198D-04-0.718D-03
 Coeff:     -0.991D-02 0.798D-01 0.931D+00
 Gap=     0.252 Goal=   None    Shift=    0.000
 RMSDP=6.30D-09 MaxDP=6.79D-08 DE=-2.44D-12 OVMax= 1.46D-07

 SCF Done:  E(RB3LYP) =  -114.149655127     A.U. after    9 cycles
            NFock=  9  Conv=0.63D-08     -V/T= 1.9769
 KE= 1.168432944753D+02 PE=-3.500928946073D+02 EE= 7.901467317675D+01
 Leave Link  502 at Fri Sep 17 10:52:07 2021, MaxMem=   268435456 cpu:               1.6 elap:               2.1
 (Enter /software/gaussian/g16-a03/l801.exe)
 DoSCS=F DFT=T ScalE2(SS,OS)=  1.000000  1.000000
 ExpMin= 4.38D-02 ExpMax= 8.59D+03 ExpMxC= 1.30D+03 IAcc=3 IRadAn=         5 AccDes= 0.00D+00
 HarFok:  IExCor=  205 AccDes= 0.00D+00 IRadAn=         5 IDoV=-2 UseB2=F ITyADJ=14
 ICtDFT= 12500011 ScaDFX=  1.000000  1.000000  1.000000  1.000000
 Largest valence mixing into a core orbital is  6.71D-05
 Largest core mixing into a valence orbital is  9.43D-06
 Range of M.O.s used for correlation:     3    56
 NBasis=    56 NAE=     8 NBE=     8 NFC=     2 NFV=     0
 NROrb=     54 NOA=     6 NOB=     6 NVA=    48 NVB=    48

 **** Warning!!: The largest alpha MO coefficient is  0.11496229D+02

 Leave Link  801 at Fri Sep 17 10:52:07 2021, MaxMem=   268435456 cpu:               0.2 elap:               0.3
 (Enter /software/gaussian/g16-a03/l914.exe)
 RHF ground state
 Keep R1, R2, and R3 ints in memory in symmetry-blocked form, NReq=6042848.
 FoFCou: FMM=F IPFlag=           0 FMFlag=           0 FMFlg1=           0
         NFxFlg=           0 DoJE=F BraDBF=F KetDBF=F FulRan=T
         wScrn=  0.000000 ICntrl=       600 IOpCl=  0 I1Cent=           0 NGrid=           0
         NMat0=    1 NMatS0=   1596 NMatT0=    0 NMatD0=    1 NMtDS0=    0 NMtDT0=    0
 Petite list used in FoFCou.
 MDV=   268435456 DFT=T DoStab=F Mixed=T DoRPA=T DoScal=F NonHer=T
 Making orbital integer symmetry assigments:
 Orbital symmetries:
       Occupied  (A1) (A1) (A1) (B2) (A1) (B1) (A1) (B2)
       Virtual   (A1) (B1) (A1) (B2) (B1) (A1) (A1) (B2) (B1) (B2)
                 (A1) (A1) (A1) (B1) (B2) (B2) (A1) (A1) (A2) (B1)
                 (B2) (A1) (A1) (B1) (B2) (A1) (A2) (B2) (B1) (A1)
                 (A1) (B2) (A1) (B2) (B1) (A1) (A1) (A2) (B2) (A1)
                 (B1) (B2) (A1) (B1) (B2) (A1) (A1) (A1)
   120 initial guesses have been made.
 Convergence on wavefunction:    0.001000000000000
 Davidson Disk Diagonalization:  ConvIn= 1.00D-03 SkipCon=T Conv= 1.00D-03.
 Max sub-space:  1728 roots to seek:   120 dimension of matrix:          576
 Iteration     1 Dimension   120 NMult     0 NNew    120
 CISAX will form   120 AO SS matrices at one time.
 NMat=   120 NSing=   120 JSym2X=-1.
 New state      1 was old state      2
 New state      2 was old state      1
 New state     12 was old state     13
 New state     13 was old state     12
 New state     17 was old state     18
 New state     18 was old state     21
 New state     19 was old state     17
 New state     20 was old state     19
 New state     21 was old state     23
 New state     22 was old state     20
 New state     23 was old state     27
 New state     24 was old state     22
 New state     25 was old state     24
 New state     27 was old state     25
 New state     28 was old state     30
 New state     30 was old state     28
 Excitation Energies [eV] at current iteration:
 Root      1 :     5.559952087439078
 Root      2 :     5.811583302890257
 Root      3 :     6.608008463805818
 Root      4 :     6.745153775633360
 Root      5 :     7.599289428172697
 Root      6 :     9.863986536171188
 Root      7 :    10.097019313659620
 Root      8 :    10.989103257757830
 Root      9 :    11.161663919997500
 Root     10 :    12.154775761505480
 Root     11 :    12.368104238495140
 Root     12 :    13.497341082270390
 Root     13 :    13.783686203506130
 Root     14 :    14.499387363093250
 Root     15 :    14.505106356448670
 Root     16 :    14.915055100459330
 Root     17 :    14.926469592295140
 Root     18 :    15.453433344321400
 Root     19 :    15.542693858647150
 Root     20 :    15.719386934831220
 Root     21 :    15.771849604245200
 Root     22 :    15.782339966897430
 Root     23 :    15.838390917314710
 Root     24 :    15.907475032779090
 Root     25 :    16.223505635475700
 Root     26 :    16.430030003156780
 Root     27 :    16.431502370674330
 Root     28 :    16.970068889863520
 Root     29 :    17.044176848096320
 Root     30 :    17.138126686734500
 Root     31 :    17.683949110212690
 Root     32 :    17.785035885020310
 Root     33 :    17.826461743746280
 Root     34 :    17.927480245667160
 Root     35 :    18.420036636353030
 Root     36 :    18.613806004336910
 Root     37 :    18.819926590384370
 Root     38 :    19.127479980089370
 Root     39 :    19.194688106456900
 Root     40 :    19.251879066848160
 Root     41 :    19.278975439905540
 Root     42 :    19.575937534917000
 Root     43 :    19.849282903492650
 Root     44 :    19.958190368446300
 Root     45 :    20.056864431394350
 Root     46 :    20.243229638164240
 Root     47 :    20.434704559874800
 Root     48 :    20.530063919668330
 Root     49 :    20.654134192081000
 Root     50 :    20.661235185603290
 Root     51 :    20.811859755202510
 Root     52 :    21.005310792157810
 Root     53 :    21.452327519965300
 Root     54 :    21.486132940494830
 Root     55 :    21.557834347954040
 Root     56 :    21.784864885230450
 Root     57 :    22.144742515185120
 Root     58 :    22.767664728872370
 Root     59 :    22.903079734394590
 Root     60 :    23.080150980289310
 Root     61 :    24.163100102078040
 Root     62 :    24.285111050384320
 Root     63 :    24.393096711129970
 Root     64 :    25.220016917641160
 Root     65 :    25.848848852932890
 Root     66 :    26.692300474488440
 Root     67 :    27.051245151511210
 Root     68 :    27.581840328571280
 Root     69 :    28.011584321152690
 Root     70 :    28.641222690827380
 Root     71 :    28.923736093927940
 Root     72 :    29.001884526359290
 Root     73 :    29.122037411227630
 Root     74 :    29.335272361475950
 Root     75 :    29.341040688884910
 Root     76 :    29.834769007697510
 Root     77 :    30.420501442325780
 Root     78 :    30.439507932644220
 Root     79 :    30.838203085785580
 Root     80 :    31.563738948200970
 Root     81 :    32.163449075211010
 Root     82 :    32.262537680465040
 Root     83 :    32.344196952243170
 Root     84 :    32.521381022630720
 Root     85 :    33.339277548042960
 Root     86 :    33.368950698278280
 Root     87 :    33.849239099009100
 Root     88 :    34.086163776056300
 Root     89 :    34.141048353626150
 Root     90 :    34.601656591478690
 Root     91 :    35.042115226441870
 Root     92 :    35.122400836108170
 Root     93 :    35.935129074603560
 Root     94 :    36.836306575938520
 Root     95 :    37.445479916079880
 Root     96 :    38.259318814126520
 Root     97 :    38.360584712257540
 Root     98 :    39.230254288882590
 Root     99 :    39.285590210286530
 Root    100 :    39.288226492709840
 Root    101 :    39.503106505649840
 Root    102 :    39.647722601933200
 Root    103 :    39.746730988655170
 Root    104 :    39.779333430364100
 Root    105 :    39.985709824459650
 Root    106 :    40.522303571762380
 Root    107 :    40.639116210184300
 Root    108 :    40.757281488362950
 Root    109 :    41.114892950498930
 Root    110 :    41.715807329096370
 Root    111 :    41.734893421106890
 Root    112 :    41.847208225287420
 Root    113 :    42.051328853740440
 Root    114 :    42.091650489776250
 Root    115 :    42.319268245189010
 Root    116 :    42.649038851343630
 Root    117 :    43.192388962563160
 Root    118 :    43.321374327264660
 Root    119 :    43.483359365067220
 Root    120 :    47.640504345150090
 Iteration     2 Dimension   180 NMult   120 NNew     60
 CISAX will form    60 AO SS matrices at one time.
 NMat=    60 NSing=    60 JSym2X=-1.
 Root      1 not converged, maximum delta is    0.004855486803620
 Root      2 not converged, maximum delta is    0.003042030406947
 Root      3 not converged, maximum delta is    0.003025953970861
 Root      4 not converged, maximum delta is    0.004474214831797
 Root      5 not converged, maximum delta is    0.003546815721423
 Root      6 not converged, maximum delta is    0.016510180603682
 Root      7 not converged, maximum delta is    0.015448246296748
 Root      8 not converged, maximum delta is    0.004611781034358
 Root      9 not converged, maximum delta is    0.001979041522578
 Root     10 not converged, maximum delta is    0.007091200381264
 Root     11 not converged, maximum delta is    0.003491962476031
 Root     12 not converged, maximum delta is    0.017132286145187
 Root     13 not converged, maximum delta is    0.009283156862837
 Root     14 not converged, maximum delta is    0.008307120223155
 Root     15 not converged, maximum delta is    0.007186940425590
 New state     16 was old state     17
 Root     16 not converged, maximum delta is    0.009801371710153
 New state     17 was old state     16
 Root     17 not converged, maximum delta is    0.001550597888727
 Root     18 not converged, maximum delta is    0.029174615027856
 Root     19 not converged, maximum delta is    0.076691643560161
 Root     20 not converged, maximum delta is    0.062845875898433
 New state     21 was old state     22
 Root     21 not converged, maximum delta is    0.046697894867025
 New state     22 was old state     21
 Root     22 not converged, maximum delta is    0.016146000386126
 Root     23 not converged, maximum delta is    0.016902353470246
 Root     24 not converged, maximum delta is    0.048647599439204
 Root     25 not converged, maximum delta is    0.021624290743239
 Root     26 not converged, maximum delta is    0.020882889338437
 Root     27 not converged, maximum delta is    0.013281464444921
 Root     28 not converged, maximum delta is    0.041330302726708
 Root     29 not converged, maximum delta is    0.049217024080681
 Root     30 not converged, maximum delta is    0.005400570972263
 Excitation Energies [eV] at current iteration:
 Root      1 :     5.551395035416546   Change is   -0.008557052022532
 Root      2 :     5.808245187582376   Change is   -0.003338115307881
 Root      3 :     6.603409598151438   Change is   -0.004598865654380
 Root      4 :     6.740836008399794   Change is   -0.004317767233566
 Root      5 :     7.594984262198860   Change is   -0.004305165973837
 Root      6 :     9.848964469821668   Change is   -0.015022066349520
 Root      7 :    10.093003080367080   Change is   -0.004016233292534
 Root      8 :    10.975027698066000   Change is   -0.014075559691831
 Root      9 :    11.160142657787910   Change is   -0.001521262209596
 Root     10 :    12.144912701283950   Change is   -0.009863060221525
 Root     11 :    12.360767629776580   Change is   -0.007336608718558
 Root     12 :    13.449518189735470   Change is   -0.047822892534915
 Root     13 :    13.771429628035880   Change is   -0.012256575470258
 Root     14 :    14.489627597741970   Change is   -0.009759765351277
 Root     15 :    14.496016108944620   Change is   -0.009090247504049
 Root     16 :    14.908900804079680   Change is   -0.017568788215456
 Root     17 :    14.914183146642810   Change is   -0.000871953816524
 Root     18 :    15.432015764485900   Change is   -0.021417579835506
 Root     19 :    15.497080272249560   Change is   -0.045613586397596
 Root     20 :    15.690716053705400   Change is   -0.028670881125825
 Root     21 :    15.711562242810520   Change is   -0.070777724086907
 Root     22 :    15.769937203667810   Change is   -0.001912400577398
 Root     23 :    15.835327286666690   Change is   -0.003063630648017
 Root     24 :    15.896110763042610   Change is   -0.011364269736479
 Root     25 :    16.220238976770490   Change is   -0.003266658705207
 Root     26 :    16.413956225292570   Change is   -0.016073777864210
 Root     27 :    16.423077254986180   Change is   -0.008425115688160
 Root     28 :    16.957698691901030   Change is   -0.012370197962492
 Root     29 :    17.034169019650210   Change is   -0.010007828446111
 Root     30 :    17.132235788072690   Change is   -0.005890898661808
 Iteration     3 Dimension   240 NMult   180 NNew     60
 CISAX will form    60 AO SS matrices at one time.
 NMat=    60 NSing=    60 JSym2X=-1.
 Root      1 has converged.
 Root      2 has converged.
 Root      3 has converged.
 Root      4 has converged.
 Root      5 has converged.
 Root      6 has converged.
 Root      7 has converged.
 Root      8 has converged.
 Root      9 has converged.
 Root     10 has converged.
 Root     11 has converged.
 Root     12 has converged.
 Root     13 has converged.
 Root     14 has converged.
 Root     15 has converged.
 Root     16 has converged.
 Root     17 has converged.
 Root     18 has converged.
 Root     19 has converged.
 Root     20 has converged.
 Root     21 has converged.
 Root     22 has converged.
 Root     23 has converged.
 Root     24 has converged.
 Root     25 has converged.
 Root     26 has converged.
 Root     27 has converged.
 Root     28 has converged.
 Root     29 has converged.
 Root     30 has converged.
 Excitation Energies [eV] at current iteration:
 Root      1 :     5.551392620349985   Change is   -0.000002415066561
 Root      2 :     5.808243542926172   Change is   -0.000001644656204
 Root      3 :     6.603407643504651   Change is   -0.000001954646787
 Root      4 :     6.740833729262783   Change is   -0.000002279137012
 Root      5 :     7.594982910734155   Change is   -0.000001351464705
 Root      6 :     9.848960465660232   Change is   -0.000004004161436
 Root      7 :    10.093000537417010   Change is   -0.000002542950069
 Root      8 :    10.975012083687480   Change is   -0.000015614378520
 Root      9 :    11.160141219755350   Change is   -0.000001438032556
 Root     10 :    12.144896548911980   Change is   -0.000016152371966
 Root     11 :    12.360758001928720   Change is   -0.000009627847867
 Root     12 :    13.449401779998540   Change is   -0.000116409736934
 Root     13 :    13.771397498258940   Change is   -0.000032129776939
 Root     14 :    14.489598166669440   Change is   -0.000029431072533
 Root     15 :    14.495998598512660   Change is   -0.000017510431955
 Root     16 :    14.908874513798220   Change is   -0.000026290281462
 Root     17 :    14.914179638433540   Change is   -0.000003508209266
 Root     18 :    15.431949891110750   Change is   -0.000065873375148
 Root     19 :    15.496930451252420   Change is   -0.000149820997136
 Root     20 :    15.690659996097090   Change is   -0.000056057608311
 Root     21 :    15.711393354093980   Change is   -0.000168888716544
 Root     22 :    15.769934812141450   Change is   -0.000002391526353
 Root     23 :    15.835322976459820   Change is   -0.000004310206866
 Root     24 :    15.896090719566010   Change is   -0.000020043476594
 Root     25 :    16.220233435874900   Change is   -0.000005540895594
 Root     26 :    16.413933272884830   Change is   -0.000022952407737
 Root     27 :    16.423052679826450   Change is   -0.000024575159721
 Root     28 :    16.957646297873490   Change is   -0.000052394027534
 Root     29 :    17.034135448539150   Change is   -0.000033571111055
 Root     30 :    17.132217500568010   Change is   -0.000018287504686
 Convergence achieved on expansion vectors.
 ***********************************************************************
 Excited states from <AA,BB:AA,BB> singles matrix:
 ***********************************************************************
 
 1PDM for each excited state written to RWF  633
 Ground to excited state transition densities written to RWF  633
 Ground to excited state transition electric dipole moments (Au):
       state          X           Y           Z        Dip. S.      Osc.
         1        -0.0000     -0.0000      0.0000      0.0000      0.0000
         2         0.0000      0.7933     -0.0000      0.6293      0.0896
         3         0.0000     -0.3767      0.0000      0.1419      0.0230
         4         0.0000      0.0000     -0.4882      0.2384      0.0394
         5        -0.0000      0.0000      0.0000      0.0000      0.0000
         6        -0.0000      1.0162      0.0000      1.0327      0.2492
         7         0.0000      0.6156     -0.0000      0.3790      0.0937
         8         0.0000     -0.0000     -0.0083      0.0001      0.0000
         9         0.0000     -0.0000     -0.0000      0.0000      0.0000
        10        -0.0000      0.0000     -0.8657      0.7495      0.2230
        11        -0.0000     -0.3587     -0.0000      0.1286      0.0390
        12        -0.1146      0.0000     -0.0000      0.0131      0.0043
        13         0.0000      0.0000     -0.0116      0.0001      0.0000
        14         0.0000     -0.0000     -0.5570      0.3102      0.1101
        15         0.0000     -0.3446      0.0000      0.1187      0.0422
        16        -0.0000      0.2437      0.0000      0.0594      0.0217
        17        -0.3588     -0.0000     -0.0000      0.1287      0.0470
        18         0.0965      0.0000     -0.0000      0.0093      0.0035
        19        -0.0000     -0.0000      0.5063      0.2564      0.0973
        20        -0.0000     -0.0000      0.1559      0.0243      0.0093
        21        -0.5840     -0.0000     -0.0000      0.3410      0.1313
        22        -0.0000      0.0000      0.0000      0.0000      0.0000
        23        -0.0000      0.0000     -0.0000      0.0000      0.0000
        24        -0.3658     -0.0000     -0.0000      0.1338      0.0521
        25         0.0000     -0.4007      0.0000      0.1605      0.0638
        26         0.0000     -0.0942      0.0000      0.0089      0.0036
        27         0.0000     -0.0000     -0.4648      0.2160      0.0869
        28         0.0000     -0.0000      0.3776      0.1426      0.0592
        29         0.0000     -0.0000      0.1450      0.0210      0.0088
        30         0.0000     -0.1176     -0.0000      0.0138      0.0058
 Ground to excited state transition velocity dipole moments (Au):
       state          X           Y           Z        Dip. S.      Osc.
         1         0.0000     -0.0000     -0.0000      0.0000      0.0000
         2        -0.0000     -0.1643     -0.0000      0.0270      0.0843
         3        -0.0000      0.0926     -0.0000      0.0086      0.0235
         4        -0.0000     -0.0000      0.1151      0.0132      0.0357
         5         0.0000      0.0000     -0.0000      0.0000      0.0000
         6        -0.0000     -0.3785      0.0000      0.1433      0.2639
         7        -0.0000     -0.1977     -0.0000      0.0391      0.0702
         8         0.0000      0.0000      0.0024      0.0000      0.0000
         9         0.0000      0.0000      0.0000      0.0000      0.0000
        10        -0.0000     -0.0000      0.3861      0.1490      0.2226
        11         0.0000      0.1657     -0.0000      0.0275      0.0403
        12         0.0458     -0.0000     -0.0000      0.0021      0.0028
        13        -0.0000      0.0000      0.0055      0.0000      0.0000
        14        -0.0000      0.0000      0.2977      0.0886      0.1110
        15        -0.0000      0.1848     -0.0000      0.0342      0.0428
        16         0.0000     -0.1170     -0.0000      0.0137      0.0167
        17         0.2009      0.0000      0.0000      0.0404      0.0491
        18        -0.0514     -0.0000      0.0000      0.0026      0.0031
        19         0.0000      0.0000     -0.2816      0.0793      0.0928
        20         0.0000     -0.0000     -0.0898      0.0081      0.0093
        21         0.3356      0.0000      0.0000      0.1127      0.1301
        22         0.0000      0.0000     -0.0000      0.0000      0.0000
        23        -0.0000     -0.0000      0.0000      0.0000      0.0000
        24         0.2228     -0.0000      0.0000      0.0497      0.0567
        25        -0.0000      0.2387      0.0000      0.0570      0.0637
        26        -0.0000      0.0616     -0.0000      0.0038      0.0042
        27        -0.0000      0.0000      0.2721      0.0741      0.0818
        28        -0.0000      0.0000     -0.2388      0.0570      0.0610
        29        -0.0000      0.0000     -0.0888      0.0079      0.0084
        30         0.0000      0.0768      0.0000      0.0059      0.0062
 Ground to excited state transition magnetic dipole moments (Au):
       state          X           Y           Z
         1         0.0000      0.0000      1.2169
         2        -0.4364     -0.0000     -0.0000
         3        -0.7955      0.0000      0.0000
         4        -0.0000      0.0000      0.0000
         5        -0.0000     -0.0000      0.5502
         6        -0.5084      0.0000     -0.0000
         7        -1.1757     -0.0000     -0.0000
         8         0.0000      0.0000     -0.0000
         9         0.0000      0.0000      0.1692
        10        -0.0000      0.0000      0.0000
        11        -0.3645      0.0000      0.0000
        12         0.0000     -0.9264     -0.0000
        13         0.0000     -0.0000     -0.0000
        14        -0.0000     -0.0000     -0.0000
        15        -0.3733     -0.0000      0.0000
        16        -1.3032     -0.0000      0.0000
        17         0.0000     -0.0556     -0.0000
        18         0.0000     -1.0733      0.0000
        19         0.0000     -0.0000     -0.0000
        20        -0.0000     -0.0000     -0.0000
        21        -0.0000     -0.0226      0.0000
        22         0.0000     -0.0000     -0.1792
        23         0.0000     -0.0000     -0.2304
        24         0.0000     -0.1819      0.0000
        25         0.1950     -0.0000     -0.0000
        26         0.0490     -0.0000     -0.0000
        27         0.0000      0.0000      0.0000
        28         0.0000      0.0000     -0.0000
        29         0.0000      0.0000     -0.0000
        30         0.0338      0.0000     -0.0000
 Ground to excited state transition velocity quadrupole moments (Au):
       state          XX          YY          ZZ          XY          XZ          YZ
         1        -0.0000      0.0000      0.0000     -0.2649      0.0000      0.0000
         2        -0.0000     -0.0000     -0.0000      0.0000     -0.0000      0.4992
         3         0.0000      0.0000      0.0000      0.0000      0.0000     -0.2956
         4        -0.1982     -0.6708     -0.1813      0.0000      0.0000     -0.0000
         5         0.0000      0.0000      0.0000      0.0865     -0.0000      0.0000
         6         0.0000     -0.0000     -0.0000      0.0000     -0.0000      0.9544
         7        -0.0000     -0.0000     -0.0000     -0.0000     -0.0000      0.1323
         8         0.1872      0.6423      0.6288     -0.0000     -0.0000     -0.0000
         9         0.0000      0.0000      0.0000      0.2308      0.0000      0.0000
        10         0.0839     -0.7528     -0.7750     -0.0000     -0.0000      0.0000
        11         0.0000     -0.0000     -0.0000      0.0000      0.0000      0.0323
        12        -0.0000     -0.0000     -0.0000      0.0000     -0.3889      0.0000
        13         0.2204      0.4508      0.5155      0.0000     -0.0000      0.0000
        14         0.0519      0.0492     -0.0146      0.0000     -0.0000      0.0000
        15        -0.0000     -0.0000      0.0000     -0.0000     -0.0000      0.1600
        16         0.0000     -0.0000     -0.0000     -0.0000     -0.0000      0.1829
        17        -0.0000     -0.0000     -0.0000     -0.0000     -0.0101     -0.0000
        18        -0.0000     -0.0000     -0.0000     -0.0000     -0.7545     -0.0000
        19         0.7689      0.6801      0.1072      0.0000     -0.0000      0.0000
        20        -0.0483      0.3412      0.4552      0.0000     -0.0000     -0.0000
        21         0.0000     -0.0000     -0.0000     -0.0000     -0.3301      0.0000
        22         0.0000      0.0000      0.0000      0.3740     -0.0000      0.0000
        23        -0.0000     -0.0000     -0.0000      0.0359     -0.0000      0.0000
        24        -0.0000     -0.0000     -0.0000     -0.0000     -0.0754     -0.0000
        25         0.0000      0.0000      0.0000      0.0000     -0.0000     -0.2028
        26         0.0000      0.0000      0.0000     -0.0000     -0.0000     -0.2668
        27        -0.2588     -0.1033     -1.1655      0.0000      0.0000     -0.0000
        28        -0.2611      0.6819      0.2120     -0.0000      0.0000      0.0000
        29         0.1283      0.2724     -0.1027     -0.0000     -0.0000      0.0000
        30        -0.0000     -0.0000      0.0000     -0.0000      0.0000      0.3565
 <0|del|b> * <b|rxdel|0> + <0|del|b> * <b|delr+rdel|0>
 Rotatory Strengths (R) in cgs (10**-40 erg-esu-cm/Gauss)
       state          XX          YY          ZZ    R(velocity)    E-M Angle
         1        -0.0000     -0.0000      0.0000     -0.0000       90.00
         2        -0.0000     -0.0000      0.0000      0.0000       90.00
         3         0.0000      0.0000      0.0000      0.0000       90.00
         4         0.0000      0.0000     -0.0000      0.0000       90.00
         5        -0.0000     -0.0000     -0.0000     -0.0000       90.00
         6        -0.0000     -0.0000      0.0000      0.0000       90.00
         7        -0.0000      0.0000      0.0000      0.0000       90.00
         8        -0.0000      0.0000      0.0000     -0.0000       90.00
         9         0.0000     -0.0000      0.0000      0.0000       90.00
        10        -0.0000      0.0000     -0.0000      0.0000       90.00
        11         0.0000     -0.0000      0.0000     -0.0000       90.00
        12         0.0000      0.0000      0.0000      0.0000       90.00
        13        -0.0000     -0.0000     -0.0000     -0.0000       90.00
        14         0.0000     -0.0000     -0.0000     -0.0000       90.00
        15         0.0000      0.0000     -0.0000      0.0000       90.00
        16         0.0000     -0.0000     -0.0000     -0.0000       90.00
        17        -0.0000      0.0000      0.0000      0.0000       90.00
        18         0.0000      0.0000      0.0000      0.0000       90.00
        19         0.0000      0.0000     -0.0000      0.0000       90.00
        20        -0.0000      0.0000      0.0000      0.0000       90.00
        21         0.0000     -0.0000     -0.0000     -0.0000       90.00
        22        -0.0000      0.0000      0.0000      0.0000       90.00
        23        -0.0000     -0.0000      0.0000     -0.0000       90.00
        24         0.0000     -0.0000      0.0000      0.0000       90.00
        25         0.0000      0.0000     -0.0000     -0.0000       90.00
        26        -0.0000      0.0000     -0.0000     -0.0000       90.00
        27         0.0000     -0.0000     -0.0000      0.0000       90.00
        28         0.0000      0.0000      0.0000      0.0000       90.00
        29         0.0000      0.0000      0.0000      0.0000       90.00
        30         0.0000      0.0000      0.0000      0.0000       90.00
 1/2[<0|r|b>*<b|rxdel|0> + (<0|rxdel|b>*<b|r|0>)*]
 Rotatory Strengths (R) in cgs (10**-40 erg-esu-cm/Gauss)
       state          XX          YY          ZZ     R(length)
         1         0.0000      0.0000     -0.0000     -0.0000
         2         0.0000      0.0000     -0.0000      0.0000
         3         0.0000      0.0000     -0.0000      0.0000
         4         0.0000     -0.0000      0.0000      0.0000
         5        -0.0000      0.0000     -0.0000     -0.0000
         6        -0.0000     -0.0000      0.0000     -0.0000
         7         0.0000      0.0000     -0.0000      0.0000
         8        -0.0000      0.0000     -0.0000     -0.0000
         9        -0.0000      0.0000      0.0000      0.0000
        10        -0.0000     -0.0000      0.0000      0.0000
        11        -0.0000      0.0000      0.0000      0.0000
        12         0.0000      0.0000     -0.0000      0.0000
        13        -0.0000      0.0000     -0.0000     -0.0000
        14         0.0000     -0.0000     -0.0000     -0.0000
        15         0.0000     -0.0000     -0.0000     -0.0000
        16        -0.0000      0.0000     -0.0000     -0.0000
        17         0.0000     -0.0000     -0.0000      0.0000
        18        -0.0000      0.0000      0.0000      0.0000
        19         0.0000     -0.0000      0.0000      0.0000
        20        -0.0000     -0.0000      0.0000      0.0000
        21        -0.0000     -0.0000      0.0000     -0.0000
        22         0.0000      0.0000      0.0000      0.0000
        23         0.0000      0.0000     -0.0000     -0.0000
        24         0.0000     -0.0000      0.0000      0.0000
        25        -0.0000     -0.0000      0.0000     -0.0000
        26        -0.0000     -0.0000      0.0000     -0.0000
        27        -0.0000      0.0000      0.0000      0.0000
        28        -0.0000      0.0000      0.0000      0.0000
        29        -0.0000      0.0000      0.0000      0.0000
        30        -0.0000      0.0000     -0.0000      0.0000
  1/2[<0|del|b>*<b|r|0> + (<0|r|b>*<b|del|0>)*] (Au)
       state          X           Y           Z        Dip. S.   Osc.(frdel)
         1        -0.0000      0.0000     -0.0000      0.0000      0.0000
         2        -0.0000     -0.1303      0.0000      0.1303      0.0869
         3        -0.0000     -0.0349     -0.0000      0.0349      0.0232
         4        -0.0000     -0.0000     -0.0562      0.0562      0.0375
         5        -0.0000      0.0000     -0.0000      0.0000      0.0000
         6         0.0000     -0.3846      0.0000      0.3846      0.2564
         7        -0.0000     -0.1217      0.0000      0.1217      0.0811
         8         0.0000     -0.0000     -0.0000      0.0000      0.0000
         9         0.0000     -0.0000     -0.0000      0.0000      0.0000
        10         0.0000     -0.0000     -0.3342      0.3342      0.2228
        11        -0.0000     -0.0594      0.0000      0.0594      0.0396
        12        -0.0053     -0.0000      0.0000      0.0053      0.0035
        13        -0.0000      0.0000     -0.0001      0.0001      0.0000
        14        -0.0000     -0.0000     -0.1658      0.1658      0.1106
        15        -0.0000     -0.0637     -0.0000      0.0637      0.0425
        16        -0.0000     -0.0285     -0.0000      0.0285      0.0190
        17        -0.0721     -0.0000     -0.0000      0.0721      0.0481
        18        -0.0050     -0.0000     -0.0000      0.0050      0.0033
        19        -0.0000     -0.0000     -0.1426      0.1426      0.0951
        20        -0.0000      0.0000     -0.0140      0.0140      0.0093
        21        -0.1960     -0.0000     -0.0000      0.1960      0.1307
        22        -0.0000      0.0000     -0.0000      0.0000      0.0000
        23         0.0000     -0.0000     -0.0000      0.0000      0.0000
        24        -0.0815      0.0000     -0.0000      0.0815      0.0543
        25        -0.0000     -0.0957      0.0000      0.0957      0.0638
        26        -0.0000     -0.0058     -0.0000      0.0058      0.0039
        27        -0.0000     -0.0000     -0.1265      0.1265      0.0843
        28        -0.0000     -0.0000     -0.0902      0.0902      0.0601
        29        -0.0000     -0.0000     -0.0129      0.0129      0.0086
        30         0.0000     -0.0090     -0.0000      0.0090      0.0060

 Excitation energies and oscillator strengths:
 
 Excited State   1:      Singlet-A2     5.5514 eV  223.34 nm  f=0.0000  <S**2>=0.000
       3 -> 27         0.00275
       3 -> 35         0.00212
       3 -> 46         0.00110
       4 -> 10         0.00669
       4 -> 13         0.00837
       4 -> 17         0.00595
       4 -> 22        -0.00350
       4 -> 28         0.00295
       4 -> 32         0.00163
       4 -> 37         0.00332
       4 -> 43         0.00048
       4 -> 52         0.00066
       5 -> 27         0.00356
       5 -> 35        -0.00069
       5 -> 46        -0.00062
       6 -> 12        -0.00054
       6 -> 16        -0.00082
       6 -> 18        -0.00044
       6 -> 23         0.00169
       6 -> 24         0.00037
       6 -> 29        -0.00032
       6 -> 33         0.00024
       6 -> 36         0.00052
       6 -> 42         0.00050
       6 -> 47         0.00063
       6 -> 50        -0.00018
       6 -> 53         0.00025
       7 -> 27         0.00101
       7 -> 35        -0.00022
       7 -> 46         0.00107
       8 -> 10         0.69650
       8 -> 13         0.11783
       8 -> 17         0.03055
       8 -> 22        -0.00631
       8 -> 28         0.00482
       8 -> 32         0.00339
       8 -> 37        -0.00238
       8 -> 43        -0.00017
       8 -> 52         0.00085
       3 <- 27         0.00206
       3 <- 35         0.00182
       3 <- 46         0.00114
       4 <- 10         0.00025
       4 <- 13         0.00115
       4 <- 17         0.00015
       4 <- 22         0.00018
       4 <- 32        -0.00106
       4 <- 37         0.00153
       4 <- 43         0.00043
       4 <- 52         0.00016
       5 <- 27         0.00396
       5 <- 35        -0.00050
       5 <- 46        -0.00061
       6 <- 12        -0.00091
       6 <- 16         0.00155
       6 <- 18        -0.00302
       6 <- 23         0.00416
       6 <- 24        -0.00168
       6 <- 29         0.00164
       6 <- 33        -0.00081
       6 <- 36         0.00180
       6 <- 40        -0.00013
       6 <- 42         0.00082
       6 <- 47         0.00050
       6 <- 53         0.00067
       7 <- 27         0.00107
       7 <- 35        -0.00029
       7 <- 46         0.00087
       8 <- 10        -0.00720
       8 <- 13        -0.00863
       8 <- 17        -0.00434
       8 <- 22         0.00043
       8 <- 28        -0.00039
       8 <- 32         0.00288
       8 <- 37        -0.00223
       8 <- 52         0.00027
 This state for optimization and/or second-order correction.
 Total Energy, E(TD-HF/TD-DFT) =  -113.945645202    
 Copying the excited state density for this state as the 1-particle RhoCI density.
 
 Excited State   2:      Singlet-B2     5.8082 eV  213.46 nm  f=0.0896  <S**2>=0.000
       3 -> 12         0.00088
       3 -> 16         0.00027
       3 -> 18         0.00099
       3 -> 24         0.00113
       3 -> 29        -0.00020
       3 -> 42         0.00015
       3 -> 50        -0.00015
       4 ->  9         0.00181
       4 -> 11         0.00640
       4 -> 14         0.00516
       4 -> 15         0.00161
       4 -> 19         0.00372
       4 -> 20         0.00129
       4 -> 21         0.00274
       4 -> 25         0.00127
       4 -> 26        -0.00112
       4 -> 30        -0.00212
       4 -> 31         0.00034
       4 -> 34         0.00038
       4 -> 38        -0.00081
       4 -> 39         0.00013
       4 -> 41         0.00044
       4 -> 44         0.00042
       4 -> 45        -0.00058
       4 -> 48         0.00038
       5 -> 12        -0.00645
       5 -> 16         0.00125
       5 -> 18         0.00119
       5 -> 23        -0.00239
       5 -> 24         0.00409
       5 -> 29        -0.00062
       5 -> 33        -0.00103
       5 -> 36         0.00087
       5 -> 40        -0.00015
       5 -> 42         0.00044
       6 -> 27         0.00108
       6 -> 35         0.00028
       6 -> 46         0.00087
       7 -> 12         0.00254
       7 -> 16         0.00328
       7 -> 18         0.00361
       7 -> 23        -0.00208
       7 -> 24         0.00247
       7 -> 29         0.00011
       7 -> 36        -0.00022
       7 -> 42        -0.00037
       7 -> 47         0.00040
       7 -> 50         0.00049
       8 ->  9         0.70625
       8 -> 11         0.01229
       8 -> 14        -0.02177
       8 -> 15         0.01140
       8 -> 19         0.02040
       8 -> 20        -0.00772
       8 -> 21        -0.00804
       8 -> 25         0.00066
       8 -> 26        -0.00050
       8 -> 31         0.00292
       8 -> 34         0.00150
       8 -> 38         0.00088
       8 -> 39        -0.00052
       8 -> 41        -0.00043
       8 -> 44        -0.00025
       8 -> 45        -0.00107
       8 -> 48         0.00035
       8 -> 54        -0.00014
       3 <- 12         0.00029
       3 <- 18         0.00060
       3 <- 24         0.00082
       3 <- 29        -0.00018
       3 <- 42         0.00012
       3 <- 53         0.00011
       4 <-  9         0.00202
       4 <- 11        -0.00012
       4 <- 14         0.00408
       4 <- 15         0.00176
       4 <- 19         0.00094
       4 <- 20         0.00046
       4 <- 21         0.00173
       4 <- 25         0.00164
       4 <- 26        -0.00125
       4 <- 30        -0.00078
       4 <- 31        -0.00014
       4 <- 34         0.00016
       4 <- 38        -0.00052
       4 <- 39         0.00016
       4 <- 41         0.00044
       4 <- 44         0.00029
       4 <- 45        -0.00052
       4 <- 48         0.00033
       5 <- 12        -0.00016
       5 <- 16         0.00116
       5 <- 18         0.00230
       5 <- 23        -0.00140
       5 <- 24         0.00315
       5 <- 29        -0.00051
       5 <- 33        -0.00078
       5 <- 36         0.00066
       5 <- 40        -0.00019
       5 <- 42         0.00020
       6 <- 27         0.00085
       6 <- 35         0.00022
       6 <- 46         0.00073
       7 <- 12         0.00069
       7 <- 16         0.00207
       7 <- 18         0.00123
       7 <- 23        -0.00084
       7 <- 24         0.00116
       7 <- 29         0.00074
       7 <- 42        -0.00032
       7 <- 47         0.00038
       7 <- 50         0.00055
       8 <-  9        -0.00462
       8 <- 11         0.00231
       8 <- 14        -0.01345
       8 <- 15        -0.00233
       8 <- 19        -0.00113
       8 <- 20         0.00024
       8 <- 21        -0.00428
       8 <- 25        -0.00313
       8 <- 26        -0.00065
       8 <- 30         0.00049
       8 <- 31         0.00156
       8 <- 34         0.00154
       8 <- 38         0.00087
       8 <- 39        -0.00043
       8 <- 41        -0.00028
       8 <- 44        -0.00029
       8 <- 45        -0.00078
       8 <- 48         0.00032
 
 Excited State   3:      Singlet-B2     6.6034 eV  187.76 nm  f=0.0230  <S**2>=0.000
       3 -> 12         0.00011
       3 -> 16        -0.00064
       3 -> 23        -0.00019
       3 -> 24        -0.00044
       3 -> 29        -0.00091
       3 -> 33        -0.00014
       3 -> 36         0.00029
       3 -> 42         0.00030
       3 -> 47        -0.00019
       3 -> 50        -0.00021
       3 -> 53         0.00010
       4 ->  9         0.00476
       4 -> 14        -0.00278
       4 -> 15        -0.00445
       4 -> 19         0.00313
       4 -> 20        -0.00057
       4 -> 21        -0.00140
       4 -> 25        -0.00093
       4 -> 26        -0.00120
       4 -> 30         0.00074
       4 -> 31         0.00218
       4 -> 34         0.00041
       4 -> 39         0.00080
       4 -> 41         0.00066
       4 -> 45        -0.00061
       4 -> 48         0.00041
       4 -> 51         0.00020
       5 -> 12        -0.00261
       5 -> 16        -0.00452
       5 -> 18        -0.00140
       5 -> 23         0.00135
       5 -> 24        -0.00373
       5 -> 29         0.00125
       5 -> 33        -0.00055
       5 -> 40         0.00026
       5 -> 47        -0.00013
       5 -> 50        -0.00010
       6 -> 27         0.00088
       6 -> 35         0.00134
       6 -> 46         0.00103
       7 -> 12         0.00290
       7 -> 16         0.00020
       7 -> 18         0.00240
       7 -> 23        -0.00128
       7 -> 24         0.00046
       7 -> 33         0.00024
       7 -> 36        -0.00117
       7 -> 40         0.00031
       7 -> 42        -0.00063
       7 -> 47         0.00066
       7 -> 50         0.00057
       7 -> 53        -0.00017
       8 ->  9        -0.01259
       8 -> 11         0.70596
       8 -> 14         0.01833
       8 -> 15         0.02392
       8 -> 19         0.01659
       8 -> 20         0.01517
       8 -> 21         0.00316
       8 -> 25        -0.00040
       8 -> 26         0.00047
       8 -> 30        -0.00178
       8 -> 31        -0.00052
       8 -> 34        -0.00038
       8 -> 38         0.00014
       8 -> 39         0.00081
       8 -> 41         0.00123
       8 -> 44        -0.00012
       8 -> 45        -0.00069
       8 -> 48         0.00058
       8 -> 51         0.00010
       8 -> 54        -0.00016
       3 <- 12        -0.00022
       3 <- 16        -0.00060
       3 <- 18        -0.00021
       3 <- 24        -0.00049
       3 <- 29        -0.00060
       3 <- 33        -0.00017
       3 <- 36         0.00031
       3 <- 42         0.00026
       3 <- 47        -0.00015
       3 <- 50        -0.00011
       3 <- 53         0.00021
       4 <-  9        -0.00136
       4 <- 11        -0.00022
       4 <- 14        -0.00178
       4 <- 15        -0.00059
       4 <- 19        -0.00064
       4 <- 20         0.00031
       4 <- 21        -0.00102
       4 <- 25        -0.00093
       4 <- 26        -0.00094
       4 <- 30         0.00087
       4 <- 31         0.00086
       4 <- 34         0.00095
       4 <- 39         0.00059
       4 <- 41         0.00066
       4 <- 45        -0.00063
       4 <- 48         0.00028
       4 <- 51         0.00019
       5 <- 12        -0.00023
       5 <- 16        -0.00085
       5 <- 18        -0.00110
       5 <- 23         0.00125
       5 <- 24        -0.00186
       5 <- 29         0.00056
       5 <- 33        -0.00058
       5 <- 36        -0.00021
       5 <- 40         0.00026
       5 <- 50        -0.00019
       6 <- 27         0.00042
       6 <- 35         0.00111
       6 <- 46         0.00089
       7 <- 12         0.00037
       7 <- 16         0.00041
       7 <- 18         0.00020
       7 <- 23        -0.00024
       7 <- 29         0.00039
       7 <- 36        -0.00081
       7 <- 40         0.00024
       7 <- 42        -0.00044
       7 <- 47         0.00058
       7 <- 50         0.00054
       8 <-  9         0.00215
       8 <- 11         0.00135
       8 <- 14         0.00696
       8 <- 15         0.00171
       8 <- 19        -0.00188
       8 <- 20        -0.00209
       8 <- 21         0.00277
       8 <- 25         0.00045
       8 <- 26        -0.00076
       8 <- 30        -0.00124
       8 <- 31        -0.00112
       8 <- 38         0.00031
       8 <- 39         0.00056
       8 <- 41         0.00104
       8 <- 45        -0.00058
       8 <- 48         0.00037
       8 <- 51         0.00013
 
 Excited State   4:      Singlet-A1     6.7408 eV  183.93 nm  f=0.0394  <S**2>=0.000
       3 ->  9         0.00130
       3 -> 11         0.00079
       3 -> 15         0.00059
       3 -> 19         0.00132
       3 -> 20        -0.00029
       3 -> 21        -0.00033
       3 -> 25         0.00027
       3 -> 30        -0.00103
       3 -> 31        -0.00022
       3 -> 34        -0.00022
       3 -> 38        -0.00034
       3 -> 39        -0.00026
       3 -> 41        -0.00012
       3 -> 48        -0.00014
       3 -> 51        -0.00028
       3 -> 54         0.00020
       4 -> 12         0.00741
       4 -> 16         0.00806
       4 -> 18         0.00664
       4 -> 23         0.00091
       4 -> 24         0.00404
       4 -> 29         0.00067
       4 -> 33        -0.00015
       4 -> 36         0.00096
       4 -> 42        -0.00024
       4 -> 50        -0.00035
       4 -> 53        -0.00013
       5 ->  9         0.00567
       5 -> 11        -0.01068
       5 -> 14         0.00624
       5 -> 15         0.00228
       5 -> 19         0.00121
       5 -> 20        -0.00676
       5 -> 21         0.00191
       5 -> 25         0.00681
       5 -> 26        -0.00091
       5 -> 30         0.00084
       5 -> 31        -0.00078
       5 -> 34        -0.00107
       5 -> 38        -0.00034
       5 -> 39         0.00093
       5 -> 41         0.00012
       5 -> 44         0.00015
       5 -> 45        -0.00032
       5 -> 48        -0.00029
       6 -> 10         0.00713
       6 -> 13        -0.00313
       6 -> 17         0.00510
       6 -> 22         0.00398
       6 -> 28         0.00076
       6 -> 32         0.00090
       6 -> 37         0.00054
       6 -> 43         0.00046
       6 -> 49        -0.00037
       7 ->  9         0.01301
       7 -> 11         0.00540
       7 -> 14         0.00261
       7 -> 15        -0.00106
       7 -> 19         0.00810
       7 -> 20        -0.00265
       7 -> 21         0.00081
       7 -> 25         0.00190
       7 -> 26         0.00011
       7 -> 30        -0.00028
       7 -> 31         0.00067
       7 -> 34        -0.00096
       7 -> 39         0.00024
       7 -> 48        -0.00021
       7 -> 51         0.00042
       8 -> 12         0.70542
       8 -> 16         0.04301
       8 -> 18        -0.00378
       8 -> 23         0.00314
       8 -> 24         0.00168
       8 -> 29         0.00347
       8 -> 33         0.00157
       8 -> 36        -0.00260
       8 -> 40         0.00014
       8 -> 42         0.00146
       8 -> 47        -0.00048
       8 -> 53        -0.00011
       3 <-  9         0.00057
       3 <- 11         0.00031
       3 <- 15         0.00030
       3 <- 19         0.00075
       3 <- 20        -0.00011
       3 <- 21        -0.00012
       3 <- 25         0.00031
       3 <- 30        -0.00062
       3 <- 31        -0.00018
       3 <- 34        -0.00018
       3 <- 38        -0.00025
       3 <- 39        -0.00023
       3 <- 41        -0.00013
       3 <- 48        -0.00016
       3 <- 51        -0.00024
       3 <- 54         0.00018
       4 <- 12         0.00262
       4 <- 16         0.00250
       4 <- 18         0.00332
       4 <- 23         0.00088
       4 <- 24         0.00217
       4 <- 29         0.00024
       4 <- 33        -0.00028
       4 <- 36         0.00083
       4 <- 42        -0.00021
       4 <- 50        -0.00029
       4 <- 53        -0.00012
       5 <-  9         0.00591
       5 <- 11        -0.00393
       5 <- 14         0.00469
       5 <- 15         0.00215
       5 <- 19         0.00088
       5 <- 20        -0.00381
       5 <- 21         0.00051
       5 <- 25         0.00418
       5 <- 26        -0.00041
       5 <- 30         0.00018
       5 <- 31        -0.00099
       5 <- 34        -0.00089
       5 <- 38        -0.00044
       5 <- 39         0.00076
       5 <- 44         0.00022
       5 <- 45        -0.00029
       5 <- 48        -0.00024
       6 <- 10         0.00268
       6 <- 13        -0.00130
       6 <- 17         0.00241
       6 <- 22         0.00241
       6 <- 28         0.00048
       6 <- 32         0.00069
       6 <- 37         0.00044
       6 <- 43         0.00039
       6 <- 49        -0.00032
       7 <-  9         0.00454
       7 <- 11         0.00136
       7 <- 14         0.00126
       7 <- 15        -0.00039
       7 <- 19         0.00354
       7 <- 20        -0.00159
       7 <- 21         0.00023
       7 <- 25         0.00115
       7 <- 30        -0.00033
       7 <- 31         0.00041
       7 <- 34        -0.00067
       7 <- 38        -0.00015
       7 <- 39         0.00030
       7 <- 45        -0.00012
       7 <- 48        -0.00011
       7 <- 51         0.00039
       8 <- 12        -0.00397
       8 <- 16         0.00540
       8 <- 18        -0.01119
       8 <- 23        -0.00111
       8 <- 24        -0.00187
       8 <- 29         0.00183
       8 <- 33         0.00121
       8 <- 36        -0.00186
       8 <- 42         0.00118
       8 <- 47        -0.00054
       8 <- 53        -0.00013
 
 Excited State   5:      Singlet-A2     7.5950 eV  163.24 nm  f=0.0000  <S**2>=0.000
       3 -> 27         0.00191
       3 -> 35         0.00155
       3 -> 46         0.00074
       4 -> 10         0.00769
       4 -> 13         0.00873
       4 -> 17        -0.00178
       4 -> 22        -0.00171
       4 -> 28         0.00040
       4 -> 32         0.00222
       4 -> 37         0.00266
       4 -> 43         0.00032
       4 -> 49        -0.00010
       4 -> 52         0.00044
       5 -> 27         0.00120
       5 -> 35        -0.00078
       5 -> 46        -0.00025
       6 -> 12         0.00016
       6 -> 16        -0.00194
       6 -> 18        -0.00038
       6 -> 23         0.00142
       6 -> 24         0.00015
       6 -> 29        -0.00038
       6 -> 36         0.00041
       6 -> 42         0.00041
       6 -> 47         0.00040
       6 -> 53         0.00018
       7 -> 27         0.00031
       7 -> 35        -0.00020
       7 -> 46         0.00079
       8 -> 10        -0.11855
       8 -> 13         0.69656
       8 -> 17         0.00940
       8 -> 22        -0.02356
       8 -> 28         0.00220
       8 -> 32         0.00175
       8 -> 37        -0.00133
       8 -> 43        -0.00017
       8 -> 49        -0.00014
       8 -> 52         0.00048
       3 <- 27         0.00118
       3 <- 35         0.00126
       3 <- 46         0.00084
       4 <- 10         0.00032
       4 <- 13         0.00038
       4 <- 17        -0.00046
       4 <- 22         0.00010
       4 <- 32        -0.00035
       4 <- 37         0.00089
       4 <- 43         0.00026
       4 <- 52         0.00014
       5 <- 27         0.00177
       5 <- 35        -0.00012
       5 <- 46        -0.00031
       6 <- 12         0.00040
       6 <- 16        -0.00045
       6 <- 18        -0.00084
       6 <- 23         0.00270
       6 <- 24        -0.00067
       6 <- 29         0.00013
       6 <- 33        -0.00075
       6 <- 36         0.00140
       6 <- 42         0.00076
       6 <- 47         0.00018
       6 <- 53         0.00040
       7 <- 27         0.00053
       7 <- 35        -0.00027
       7 <- 46         0.00042
       8 <- 10        -0.00709
       8 <- 13        -0.00189
       8 <- 17        -0.00118
       8 <- 22         0.00058
       8 <- 28        -0.00028
       8 <- 32         0.00136
       8 <- 37        -0.00115
       8 <- 52         0.00019
 
 Excited State   6:      Singlet-B2     9.8490 eV  125.89 nm  f=0.2492  <S**2>=0.000
       3 -> 12        -0.00040
       3 -> 16         0.00132
       3 -> 18        -0.00085
       3 -> 23         0.00103
       3 -> 24         0.00051
       3 -> 29         0.00111
       3 -> 33        -0.00085
       3 -> 40         0.00043
       3 -> 42         0.00058
       3 -> 47         0.00031
       3 -> 50         0.00013
       4 ->  9         0.00850
       4 -> 11         0.00716
       4 -> 14         0.02130
       4 -> 15         0.00462
       4 -> 19         0.00417
       4 -> 20         0.01266
       4 -> 21         0.01292
       4 -> 25         0.00625
       4 -> 26        -0.00104
       4 -> 30         0.00168
       4 -> 31         0.00305
       4 -> 34         0.00197
       4 -> 38         0.00045
       4 -> 39        -0.00195
       4 -> 41         0.00021
       4 -> 44         0.00014
       4 -> 45        -0.00016
       4 -> 51        -0.00020
       5 -> 12        -0.01478
       5 -> 16         0.00815
       5 -> 18        -0.00382
       5 -> 23        -0.01149
       5 -> 24         0.01230
       5 -> 29        -0.00023
       5 -> 33         0.00272
       5 -> 36        -0.00343
       5 -> 40        -0.00021
       5 -> 42         0.00221
       6 -> 27         0.00696
       6 -> 35         0.00041
       6 -> 46        -0.00037
       7 -> 12         0.00160
       7 -> 16         0.00792
       7 -> 18         0.00415
       7 -> 23        -0.00537
       7 -> 24         0.00599
       7 -> 29         0.00114
       7 -> 33         0.00149
       7 -> 36        -0.00096
       7 -> 40        -0.00028
       7 -> 42         0.00057
       7 -> 47        -0.00033
       7 -> 50        -0.00012
       8 ->  9         0.02351
       8 -> 11        -0.00984
       8 -> 14         0.67082
       8 -> 15        -0.21705
       8 -> 19         0.01613
       8 -> 20        -0.01682
       8 -> 21        -0.03955
       8 -> 25        -0.01205
       8 -> 26         0.00073
       8 -> 30         0.00078
       8 -> 31         0.00474
       8 -> 34         0.00276
       8 -> 38        -0.00088
       8 -> 39         0.00460
       8 -> 41        -0.00263
       8 -> 45        -0.00114
       8 -> 48        -0.00079
       3 <- 12        -0.00021
       3 <- 16         0.00054
       3 <- 18        -0.00038
       3 <- 23         0.00054
       3 <- 24         0.00048
       3 <- 29         0.00056
       3 <- 33        -0.00051
       3 <- 40         0.00032
       3 <- 42         0.00048
       3 <- 47         0.00030
       4 <-  9         0.00287
       4 <- 11         0.00115
       4 <- 14         0.00889
       4 <- 15         0.00316
       4 <- 19         0.00167
       4 <- 20         0.00539
       4 <- 21         0.00671
       4 <- 25         0.00362
       4 <- 26        -0.00139
       4 <- 30         0.00120
       4 <- 31         0.00198
       4 <- 34         0.00037
       4 <- 38         0.00052
       4 <- 39        -0.00138
       4 <- 41         0.00016
       4 <- 48         0.00012
       5 <- 12        -0.00313
       5 <- 16         0.00314
       5 <- 18         0.00081
       5 <- 23        -0.00669
       5 <- 24         0.00693
       5 <- 29        -0.00011
       5 <- 33         0.00104
       5 <- 36        -0.00233
       5 <- 40        -0.00033
       5 <- 42         0.00163
       5 <- 47        -0.00011
       6 <- 27         0.00473
       6 <- 46        -0.00051
       7 <- 16         0.00273
       7 <- 18         0.00137
       7 <- 23        -0.00259
       7 <- 24         0.00288
       7 <- 29         0.00107
       7 <- 33         0.00089
       7 <- 36        -0.00058
       7 <- 40        -0.00032
       7 <- 42         0.00039
       7 <- 47        -0.00022
       7 <- 53         0.00012
       8 <-  9        -0.01315
       8 <- 11         0.00672
       8 <- 14        -0.02866
       8 <- 15        -0.00439
       8 <- 19         0.00173
       8 <- 20        -0.00392
       8 <- 21        -0.01969
       8 <- 25        -0.00638
       8 <- 30         0.00069
       8 <- 31         0.00215
       8 <- 34         0.00121
       8 <- 38        -0.00050
       8 <- 39         0.00290
       8 <- 41        -0.00186
       8 <- 44        -0.00016
       8 <- 45        -0.00060
       8 <- 48        -0.00061
       8 <- 51         0.00012
 
 Excited State   7:      Singlet-B2    10.0930 eV  122.84 nm  f=0.0937  <S**2>=0.000
       3 -> 16         0.00078
       3 -> 18        -0.00061
       3 -> 23         0.00155
       3 -> 24         0.00025
       3 -> 29         0.00083
       3 -> 33        -0.00057
       3 -> 36         0.00049
       3 -> 40         0.00016
       3 -> 42         0.00050
       4 ->  9         0.00279
       4 -> 11        -0.00303
       4 -> 14         0.00908
       4 -> 15         0.01284
       4 -> 19         0.00191
       4 -> 20         0.00657
       4 -> 21         0.00400
       4 -> 25         0.00227
       4 -> 26        -0.00400
       4 -> 30         0.00072
       4 -> 31         0.00255
       4 -> 34         0.00012
       4 -> 38         0.00040
       4 -> 39        -0.00036
       4 -> 41        -0.00040
       4 -> 44         0.00068
       4 -> 45         0.00039
       4 -> 48        -0.00016
       4 -> 51         0.00017
       4 -> 54         0.00017
       5 -> 12        -0.00786
       5 -> 16         0.00070
       5 -> 18        -0.00037
       5 -> 23        -0.00822
       5 -> 24         0.00349
       5 -> 33        -0.00023
       5 -> 36        -0.00116
       5 -> 40         0.00020
       5 -> 42         0.00093
       5 -> 47         0.00019
       6 -> 27         0.00348
       6 -> 35         0.00050
       6 -> 46        -0.00036
       7 -> 12         0.00132
       7 -> 16         0.00321
       7 -> 18         0.00231
       7 -> 23        -0.00025
       7 -> 24         0.00319
       7 -> 29         0.00153
       7 -> 33         0.00035
       7 -> 40        -0.00026
       7 -> 42         0.00043
       7 -> 47        -0.00023
       7 -> 50        -0.00022
       8 ->  9        -0.00441
       8 -> 11        -0.02922
       8 -> 14         0.21541
       8 -> 15         0.67173
       8 -> 19         0.02410
       8 -> 20         0.00975
       8 -> 21        -0.02509
       8 -> 25         0.00266
       8 -> 26        -0.00667
       8 -> 31         0.00198
       8 -> 34         0.00078
       8 -> 38         0.00082
       8 -> 39         0.00173
       8 -> 41        -0.00115
       8 -> 44        -0.00054
       8 -> 45        -0.00028
       8 -> 48        -0.00025
       8 -> 54         0.00013
       3 <- 12        -0.00028
       3 <- 16         0.00065
       3 <- 18        -0.00071
       3 <- 23         0.00077
       3 <- 24        -0.00024
       3 <- 29         0.00081
       3 <- 33        -0.00044
       3 <- 36         0.00040
       3 <- 40         0.00011
       3 <- 42         0.00034
       4 <-  9         0.00172
       4 <- 11         0.00096
       4 <- 14         0.00401
       4 <- 15         0.00193
       4 <- 19         0.00181
       4 <- 20         0.00296
       4 <- 21         0.00235
       4 <- 25         0.00185
       4 <- 26        -0.00099
       4 <- 30         0.00071
       4 <- 31         0.00158
       4 <- 39        -0.00029
       4 <- 44         0.00028
       4 <- 45         0.00016
       4 <- 48        -0.00012
       5 <- 12        -0.00106
       5 <- 16         0.00145
       5 <- 18         0.00099
       5 <- 23        -0.00283
       5 <- 24         0.00315
       5 <- 29         0.00013
       5 <- 33        -0.00059
       5 <- 36        -0.00103
       5 <- 42         0.00058
       5 <- 47         0.00015
       5 <- 50         0.00017
       6 <- 27         0.00209
       6 <- 35         0.00039
       6 <- 46        -0.00023
       7 <- 12         0.00052
       7 <- 16         0.00042
       7 <- 18         0.00155
       7 <- 23        -0.00073
       7 <- 24         0.00198
       7 <- 33         0.00018
       7 <- 36        -0.00021
       7 <- 40        -0.00019
       7 <- 42         0.00035
       7 <- 47        -0.00029
       7 <- 50        -0.00034
       7 <- 53        -0.00011
       8 <-  9        -0.00685
       8 <- 11         0.00379
       8 <- 14        -0.01361
       8 <- 15        -0.00072
       8 <- 19         0.00096
       8 <- 20        -0.00273
       8 <- 21        -0.00761
       8 <- 25        -0.00332
       8 <- 26         0.00028
       8 <- 30        -0.00061
       8 <- 31         0.00115
       8 <- 34         0.00045
       8 <- 38         0.00080
       8 <- 39         0.00109
       8 <- 41        -0.00085
       8 <- 44        -0.00036
       8 <- 45        -0.00017
       8 <- 48        -0.00027
 
 Excited State   8:      Singlet-A1    10.9750 eV  112.97 nm  f=0.0000  <S**2>=0.000
       3 ->  9        -0.00025
       3 -> 11        -0.00104
       3 -> 14         0.00128
       3 -> 15        -0.00155
       3 -> 19        -0.00148
       3 -> 20        -0.00146
       3 -> 21         0.00184
       3 -> 25        -0.00147
       3 -> 26        -0.00012
       3 -> 30        -0.00063
       3 -> 31        -0.00085
       3 -> 34         0.00258
       3 -> 38        -0.00053
       3 -> 39        -0.00036
       3 -> 41         0.00102
       3 -> 44        -0.00026
       3 -> 45        -0.00098
       3 -> 48        -0.00057
       3 -> 51        -0.00056
       3 -> 54         0.00034
       4 -> 12        -0.00379
       4 -> 16        -0.00283
       4 -> 18        -0.00348
       4 -> 23        -0.00419
       4 -> 24        -0.00334
       4 -> 29        -0.00213
       4 -> 33        -0.00082
       4 -> 36        -0.00046
       4 -> 40         0.00019
       4 -> 42         0.00133
       4 -> 47        -0.00060
       4 -> 50        -0.00076
       4 -> 53        -0.00034
       5 ->  9        -0.01366
       5 -> 11         0.00337
       5 -> 14        -0.00269
       5 -> 15        -0.00902
       5 -> 19        -0.00263
       5 -> 20         0.00825
       5 -> 21         0.00286
       5 -> 25        -0.00098
       5 -> 26         0.00295
       5 -> 30         0.00104
       5 -> 31         0.00289
       5 -> 34        -0.00130
       5 -> 38         0.00099
       5 -> 39        -0.00101
       5 -> 45         0.00040
       5 -> 48         0.00011
       5 -> 51        -0.00023
       5 -> 54        -0.00032
       6 -> 10        -0.03348
       6 -> 13        -0.00133
       6 -> 17        -0.01857
       6 -> 22        -0.00230
       6 -> 28        -0.00836
       6 -> 32        -0.00027
       6 -> 37         0.00051
       6 -> 43         0.00042
       6 -> 49        -0.00134
       6 -> 52        -0.00094
       7 ->  9        -0.02873
       7 -> 11        -0.01513
       7 -> 14        -0.00078
       7 -> 15         0.01352
       7 -> 19        -0.01453
       7 -> 20         0.00443
       7 -> 21        -0.00156
       7 -> 25        -0.00093
       7 -> 26        -0.00995
       7 -> 30         0.00295
       7 -> 31        -0.00268
       7 -> 34         0.00060
       7 -> 38         0.00114
       7 -> 39        -0.00014
       7 -> 41         0.00041
       7 -> 44        -0.00043
       7 -> 45        -0.00031
       7 -> 48         0.00065
       7 -> 51         0.00181
       7 -> 54         0.00066
       8 -> 12        -0.04003
       8 -> 16         0.69113
       8 -> 18         0.13111
       8 -> 23         0.01106
       8 -> 24         0.01009
       8 -> 29        -0.00350
       8 -> 33         0.00087
       8 -> 36         0.00091
       8 -> 40         0.00059
       8 -> 42        -0.00084
       8 -> 47        -0.00035
[...]
  46        4PY         0.00000  -0.00000  -0.06292  -0.12283  -0.16624
  47        4PZ         0.00144   0.00000   0.00598   0.01389  -0.00454
  48        5S          0.00144   0.00000  -0.01010  -0.01111  -0.00430
  49        5PX         0.00000  -0.00000   0.00000   0.00000   0.00000
  50        5PY         0.00000  -0.00000  -0.04130  -0.07107  -0.07427
  51        5PZ        -0.00018  -0.00000   0.00455   0.00649   0.00050
  52        6D 0       -0.00030  -0.00000  -0.00257  -0.00506   0.00065
  53        6D+1        0.00000   0.00000   0.00000   0.00000  -0.00000
  54        6D-1       -0.00000  -0.00000  -0.00311  -0.00264   0.00434
  55        6D+2       -0.00000   0.00000  -0.00012  -0.00022  -0.00002
  56        6D-2       -0.00000  -0.00000   0.00000  -0.00000  -0.00000
                          26        27        28        29        30
  26        4PX         0.00013
  27        4PY        -0.00000   0.00145
  28        4PZ         0.00000  -0.00058   0.00038
  29 3   H  1S          0.00000  -0.00407  -0.00078   0.08504
  30        2S          0.00000  -0.00590  -0.00122   0.12806   0.19792
  31        3S          0.00000  -0.00168  -0.00104   0.08431   0.14307
  32        4PX         0.00013   0.00000  -0.00000  -0.00000  -0.00000
  33        4PY         0.00000  -0.00082   0.00003   0.00694   0.00897
  34        4PZ         0.00000  -0.00003  -0.00018   0.00420   0.00564
  35 4   O  1S          0.00000  -0.00121  -0.00061   0.00384   0.00585
  36        2S          0.00000  -0.00246  -0.00037   0.00668   0.01078
  37        2PX         0.00397   0.00000  -0.00000  -0.00000  -0.00000
  38        2PY         0.00000  -0.00599   0.00390   0.02784   0.06465
  39        2PZ         0.00000  -0.00581   0.00032   0.00841   0.02065
  40        3S         -0.00000   0.00893  -0.00103  -0.02292  -0.03775
  41        3PX         0.00570   0.00000  -0.00000  -0.00000  -0.00000
  42        3PY         0.00000  -0.00850   0.00546   0.04232   0.09651
  43        3PZ         0.00000  -0.00834   0.00048   0.01235   0.02985
  44        4S         -0.00000   0.00461  -0.00116  -0.02322  -0.02874
  45        4PX         0.00361   0.00000  -0.00000  -0.00000  -0.00000
  46        4PY         0.00000  -0.00548   0.00261   0.06292   0.12283
  47        4PZ         0.00000  -0.00369   0.00024   0.00598   0.01389
  48        5S         -0.00000   0.00107  -0.00058  -0.01010  -0.01111
  49        5PX         0.00002   0.00000   0.00000  -0.00000  -0.00000
  50        5PY         0.00000  -0.00029  -0.00083   0.04130   0.07107
  51        5PZ         0.00000  -0.00110   0.00024   0.00455   0.00649
  52        6D 0       -0.00000   0.00127  -0.00012  -0.00257  -0.00506
  53        6D+1       -0.00065  -0.00000   0.00000  -0.00000  -0.00000
  54        6D-1       -0.00000   0.00092  -0.00079   0.00311   0.00264
  55        6D+2        0.00000   0.00005  -0.00001  -0.00012  -0.00022
  56        6D-2       -0.00000   0.00000  -0.00000   0.00000  -0.00000
                          31        32        33        34        35
  31        3S          0.14572
  32        4PX        -0.00000   0.00013
  33        4PY         0.00000  -0.00000   0.00145
  34        4PZ         0.00167  -0.00000   0.00058   0.00038
  35 4   O  1S          0.00251  -0.00000   0.00121  -0.00061   0.63967
  36        2S          0.00307  -0.00000   0.00246  -0.00037   0.56987
  37        2PX        -0.00000   0.00397   0.00000   0.00000   0.00000
  38        2PY         0.11117   0.00000  -0.00599  -0.00390   0.00000
  39        2PZ        -0.00640  -0.00000   0.00581   0.00032  -0.00185
  40        3S         -0.00602   0.00000  -0.00893  -0.00103  -0.12416
  41        3PX        -0.00000   0.00570   0.00000   0.00000   0.00000
  42        3PY         0.16252   0.00000  -0.00850  -0.00546   0.00000
  43        3PZ        -0.00892  -0.00000   0.00834   0.00048  -0.00606
  44        4S         -0.01230   0.00000  -0.00461  -0.00116  -0.12376
  45        4PX        -0.00000   0.00361   0.00000   0.00000   0.00000
  46        4PY         0.16624   0.00000  -0.00548  -0.00261   0.00000
  47        4PZ        -0.00454  -0.00000   0.00369   0.00024  -0.01311
  48        5S         -0.00430   0.00000  -0.00107  -0.00058  -0.01482
  49        5PX        -0.00000   0.00002   0.00000  -0.00000   0.00000
  50        5PY         0.07427   0.00000  -0.00029   0.00083  -0.00000
  51        5PZ         0.00050  -0.00000   0.00110   0.00024   0.00380
  52        6D 0        0.00065   0.00000  -0.00127  -0.00012  -0.00286
  53        6D+1        0.00000  -0.00065  -0.00000  -0.00000   0.00000
  54        6D-1       -0.00434  -0.00000   0.00092   0.00079   0.00000
  55        6D+2       -0.00002   0.00000  -0.00005  -0.00001  -0.00048
  56        6D-2       -0.00000   0.00000   0.00000  -0.00000  -0.00000
                          36        37        38        39        40
  36        2S          0.52558
  37        2PX         0.00000   0.12270
  38        2PY         0.00000   0.00000   0.17817
  39        2PZ        -0.00217   0.00000   0.00000   0.19235
  40        3S         -0.21842   0.00000   0.00000   0.00454   0.67382
  41        3PX         0.00000   0.17589  -0.00000   0.00000   0.00000
  42        3PY         0.00000  -0.00000   0.25587  -0.00000   0.00000
  43        3PZ        -0.00461   0.00000   0.00000   0.27151  -0.00218
  44        4S         -0.20030   0.00000   0.00000   0.15652   0.56846
  45        4PX         0.00000   0.11152  -0.00000   0.00000   0.00000
  46        4PY         0.00000  -0.00000   0.20622  -0.00000  -0.00000
  47        4PZ        -0.01965   0.00000   0.00000   0.13479   0.05113
  48        5S         -0.02484   0.00000   0.00000   0.05227   0.07410
  49        5PX         0.00000   0.00052  -0.00000   0.00000   0.00000
  50        5PY        -0.00000  -0.00000   0.05486  -0.00000   0.00000
  51        5PZ         0.00549   0.00000   0.00000   0.00993  -0.01368
  52        6D 0       -0.00633  -0.00000  -0.00000  -0.02840   0.02319
  53        6D+1        0.00000  -0.02010   0.00000   0.00000  -0.00000
  54        6D-1        0.00000   0.00000  -0.01882   0.00000  -0.00000
  55        6D+2       -0.00091   0.00000  -0.00000  -0.00033   0.00300
  56        6D-2       -0.00000   0.00000  -0.00000   0.00000   0.00000
                          41        42        43        44        45
  41        3PX         0.25213
  42        3PY        -0.00000   0.36756
  43        3PZ         0.00000   0.00000   0.38343
  44        4S          0.00000   0.00000   0.21377   0.60540
  45        4PX         0.15986  -0.00000   0.00000   0.00000   0.10136
  46        4PY        -0.00000   0.29759  -0.00000  -0.00000  -0.00000
  47        4PZ         0.00000   0.00000   0.18972   0.14921   0.00000
  48        5S          0.00000   0.00000   0.07281   0.10719   0.00000
  49        5PX         0.00075  -0.00000   0.00000   0.00000   0.00047
  50        5PY        -0.00000   0.08031  -0.00000   0.00000  -0.00000
  51        5PZ         0.00000   0.00000   0.01420  -0.00492   0.00000
  52        6D 0       -0.00000  -0.00000  -0.04039  -0.00300  -0.00000
  53        6D+1       -0.02881  -0.00000   0.00000  -0.00000  -0.01826
  54        6D-1       -0.00000  -0.02675   0.00000   0.00000   0.00000
  55        6D+2        0.00000  -0.00000  -0.00050   0.00225   0.00000
  56        6D-2        0.00000  -0.00000   0.00000   0.00000   0.00000
                          46        47        48        49        50
  46        4PY         0.25751
  47        4PZ         0.00000   0.09806
  48        5S          0.00000   0.04126   0.02541
  49        5PX        -0.00000   0.00000   0.00000   0.00000
  50        5PY         0.08356  -0.00000   0.00000  -0.00000   0.03828
  51        5PZ         0.00000   0.00616  -0.00003   0.00000   0.00000
  52        6D 0       -0.00000  -0.01821  -0.00496  -0.00000  -0.00000
  53        6D+1        0.00000   0.00000   0.00000  -0.00009   0.00000
  54        6D-1       -0.01807   0.00000   0.00000   0.00000  -0.00184
  55        6D+2       -0.00000  -0.00001   0.00024  -0.00000  -0.00000
  56        6D-2       -0.00000   0.00000   0.00000   0.00000   0.00000
                          51        52        53        54        55
  51        5PZ         0.00125
  52        6D 0       -0.00202   0.00506
  53        6D+1        0.00000   0.00000   0.00329
  54        6D-1        0.00000   0.00000   0.00000   0.00272
  55        6D+2       -0.00008   0.00016  -0.00000   0.00000   0.00001
  56        6D-2        0.00000   0.00000  -0.00000   0.00000  -0.00000
                          56
  56        6D-2        0.00000
          Condensed to atoms (all electrons):
               1          2          3          4
     1  C    4.532491   0.457957   0.457957   0.316028
     2  H    0.457957   0.900312  -0.181257  -0.169310
     3  H    0.457957  -0.181257   0.900312  -0.169310
     4  O    0.316028  -0.169310  -0.169310   8.242755
 Mulliken charges:
               1
     1  C    0.235566
     2  H   -0.007702
     3  H   -0.007702
     4  O   -0.220163
 Sum of Mulliken charges =   0.00000
 Mulliken charges with hydrogens summed into heavy atoms:
               1
     1  C    0.220163
     4  O   -0.220163
 Electronic spatial extent (au):  <R**2>=             50.0275
 Charge=              0.0000 electrons
 Dipole moment (field-independent basis, Debye):
    X=              0.0000    Y=             -0.0000    Z=             -0.3785  Tot=              0.3785
 Quadrupole moment (field-independent basis, Debye-Ang):
   XX=            -10.7293   YY=            -12.4365   ZZ=            -13.2602
   XY=             -0.0000   XZ=             -0.0000   YZ=             -0.0000
 Traceless Quadrupole moment (field-independent basis, Debye-Ang):
   XX=              1.4127   YY=             -0.2945   ZZ=             -1.1182
   XY=             -0.0000   XZ=             -0.0000   YZ=             -0.0000
 Octapole moment (field-independent basis, Debye-Ang**2):
  XXX=              0.0000  YYY=              0.0000  ZZZ=              3.9650  XYY=              0.0000
  XXY=             -0.0000  XXZ=              1.3063  XZZ=              0.0000  YZZ=             -0.0000
  YYZ=              2.6126  XYZ=              0.0000
 Hexadecapole moment (field-independent basis, Debye-Ang**3):
 XXXX=             -8.8583 YYYY=            -24.8447 ZZZZ=            -37.1365 XXXY=             -0.0000
 XXXZ=             -0.0000 YYYX=             -0.0000 YYYZ=             -0.0000 ZZZX=             -0.0000
 ZZZY=              0.0000 XXYY=             -5.6104 XXZZ=             -7.4006 YYZZ=            -11.6774
 XXYZ=             -0.0000 YYXZ=             -0.0000 ZZXY=             -0.0000
 N-N= 4.008527182836D+01 E-N=-3.500928950244D+02  KE= 1.168432944753D+02
 Symmetry A1   KE= 1.057317994511D+02
 Symmetry A2   KE= 8.040126897632D-36
 Symmetry B1   KE= 4.237978261566D+00
 Symmetry B2   KE= 6.873516762620D+00
 Leave Link  601 at Fri Sep 17 10:52:31 2021, MaxMem=   268435456 cpu:               0.1 elap:               0.0
 (Enter /software/gaussian/g16-a03/l9999.exe)
 Electronic transition elements 
                 1             2             3             4             5 
      1  -0.113946D+03 -0.113936D+03 -0.113907D+03 -0.113902D+03 -0.113871D+03
      2   0.000000D+00  0.000000D+00  0.000000D+00  0.000000D+00  0.000000D+00
      3   0.000000D+00  0.793303D+00 -0.376663D+00  0.000000D+00  0.000000D+00
      4   0.000000D+00  0.000000D+00  0.000000D+00 -0.488223D+00  0.000000D+00
      5   0.000000D+00  0.000000D+00  0.000000D+00  0.000000D+00  0.000000D+00
      6   0.000000D+00 -0.164284D+00  0.925659D-01  0.000000D+00  0.000000D+00
      7   0.000000D+00  0.000000D+00  0.000000D+00  0.115101D+00  0.000000D+00
      8   0.000000D+00 -0.436372D+00 -0.795506D+00  0.000000D+00  0.000000D+00
      9   0.000000D+00  0.000000D+00  0.000000D+00  0.000000D+00  0.000000D+00
     10   0.121691D+01  0.000000D+00  0.000000D+00  0.000000D+00  0.550246D+00
     11   0.000000D+00  0.000000D+00  0.000000D+00 -0.198197D+00  0.000000D+00
     12   0.000000D+00  0.000000D+00  0.000000D+00 -0.670780D+00  0.000000D+00
     13   0.000000D+00  0.000000D+00  0.000000D+00 -0.181280D+00  0.000000D+00
     14  -0.264946D+00  0.000000D+00  0.000000D+00  0.000000D+00  0.864857D-01
     15   0.000000D+00  0.000000D+00  0.000000D+00  0.000000D+00  0.000000D+00
     16   0.000000D+00  0.499238D+00 -0.295609D+00  0.000000D+00  0.000000D+00
                 6             7             8             9            10 
      1  -0.113788D+03 -0.113779D+03 -0.113746D+03 -0.113740D+03 -0.113703D+03
      2   0.000000D+00  0.000000D+00  0.000000D+00  0.000000D+00  0.000000D+00
      3   0.101620D+01  0.615590D+00  0.000000D+00  0.000000D+00  0.000000D+00
      4   0.000000D+00  0.000000D+00 -0.832810D-02  0.000000D+00 -0.865728D+00
      5   0.000000D+00  0.000000D+00  0.000000D+00  0.000000D+00  0.000000D+00
      6  -0.378503D+00 -0.197673D+00  0.000000D+00  0.000000D+00  0.000000D+00
      7   0.000000D+00  0.000000D+00  0.240075D-02  0.000000D+00  0.386055D+00
      8  -0.508354D+00 -0.117568D+01  0.000000D+00  0.000000D+00  0.000000D+00
      9   0.000000D+00  0.000000D+00  0.000000D+00  0.000000D+00  0.000000D+00
     10   0.000000D+00  0.000000D+00  0.000000D+00  0.169174D+00  0.000000D+00
     11   0.000000D+00  0.000000D+00  0.187174D+00  0.000000D+00  0.839006D-01
     12   0.000000D+00  0.000000D+00  0.642260D+00  0.000000D+00 -0.752800D+00
     13   0.000000D+00  0.000000D+00  0.628751D+00  0.000000D+00 -0.775003D+00
     14   0.000000D+00  0.000000D+00  0.000000D+00  0.230826D+00  0.000000D+00
     15   0.000000D+00  0.000000D+00  0.000000D+00  0.000000D+00  0.000000D+00
     16   0.954406D+00  0.132262D+00  0.000000D+00  0.000000D+00  0.000000D+00
                11            12            13            14            15 
      1  -0.113695D+03 -0.113655D+03 -0.113644D+03 -0.113617D+03 -0.113617D+03
      2   0.000000D+00 -0.114618D+00  0.000000D+00  0.000000D+00  0.000000D+00
      3  -0.358671D+00  0.000000D+00  0.000000D+00  0.000000D+00 -0.344564D+00
      4   0.000000D+00  0.000000D+00 -0.116499D-01 -0.556992D+00  0.000000D+00
      5   0.000000D+00  0.458047D-01  0.000000D+00  0.000000D+00  0.000000D+00
      6   0.165710D+00  0.000000D+00  0.000000D+00  0.000000D+00  0.184827D+00
      7   0.000000D+00  0.000000D+00  0.547599D-02  0.297718D+00  0.000000D+00
      8  -0.364452D+00  0.000000D+00  0.000000D+00  0.000000D+00 -0.373276D+00
      9   0.000000D+00 -0.926358D+00  0.000000D+00  0.000000D+00  0.000000D+00
     10   0.000000D+00  0.000000D+00  0.000000D+00  0.000000D+00  0.000000D+00
     11   0.000000D+00  0.000000D+00  0.220417D+00  0.518509D-01  0.000000D+00
     12   0.000000D+00  0.000000D+00  0.450803D+00  0.491961D-01  0.000000D+00
     13   0.000000D+00  0.000000D+00  0.515531D+00 -0.146067D-01  0.000000D+00
     14   0.000000D+00  0.000000D+00  0.000000D+00  0.000000D+00  0.000000D+00
     15   0.000000D+00 -0.388859D+00  0.000000D+00  0.000000D+00  0.000000D+00
     16   0.322679D-01  0.000000D+00  0.000000D+00  0.000000D+00  0.159959D+00
                16            17            18            19            20 
      1  -0.113602D+03 -0.113602D+03 -0.113583D+03 -0.113580D+03 -0.113573D+03
      2   0.000000D+00 -0.358771D+00  0.964672D-01  0.000000D+00  0.000000D+00
      3   0.243703D+00  0.000000D+00  0.000000D+00  0.000000D+00  0.000000D+00
      4   0.000000D+00  0.000000D+00  0.000000D+00  0.506339D+00  0.155908D+00
      5   0.000000D+00  0.200944D+00 -0.514163D-01  0.000000D+00  0.000000D+00
      6  -0.117007D+00  0.000000D+00  0.000000D+00  0.000000D+00  0.000000D+00
      7   0.000000D+00  0.000000D+00  0.000000D+00 -0.281590D+00 -0.898253D-01
      8  -0.130316D+01  0.000000D+00  0.000000D+00  0.000000D+00  0.000000D+00
      9   0.000000D+00 -0.556287D-01 -0.107329D+01  0.000000D+00  0.000000D+00
     10   0.000000D+00  0.000000D+00  0.000000D+00  0.000000D+00  0.000000D+00
     11   0.000000D+00  0.000000D+00  0.000000D+00  0.768934D+00 -0.483106D-01
     12   0.000000D+00  0.000000D+00  0.000000D+00  0.680064D+00  0.341185D+00
     13   0.000000D+00  0.000000D+00  0.000000D+00  0.107171D+00  0.455221D+00
     14   0.000000D+00  0.000000D+00  0.000000D+00  0.000000D+00  0.000000D+00
     15   0.000000D+00 -0.100879D-01 -0.754495D+00  0.000000D+00  0.000000D+00
     16   0.182871D+00  0.000000D+00  0.000000D+00  0.000000D+00  0.000000D+00
                21            22            23            24            25 
      1  -0.113572D+03 -0.113570D+03 -0.113568D+03 -0.113565D+03 -0.113554D+03
      2  -0.583963D+00  0.000000D+00  0.000000D+00 -0.365773D+00  0.000000D+00
      3   0.000000D+00  0.000000D+00  0.000000D+00  0.000000D+00 -0.400684D+00
      4   0.000000D+00  0.000000D+00  0.000000D+00  0.000000D+00  0.000000D+00
      5   0.335641D+00  0.000000D+00  0.000000D+00  0.222836D+00  0.000000D+00
      6   0.000000D+00  0.000000D+00  0.000000D+00  0.000000D+00  0.238742D+00
      7   0.000000D+00  0.000000D+00  0.000000D+00  0.000000D+00  0.000000D+00
      8   0.000000D+00  0.000000D+00  0.000000D+00  0.000000D+00  0.195046D+00
      9  -0.226151D-01  0.000000D+00  0.000000D+00 -0.181858D+00  0.000000D+00
     10   0.000000D+00 -0.179151D+00 -0.230365D+00  0.000000D+00  0.000000D+00
     11   0.000000D+00  0.000000D+00  0.000000D+00  0.000000D+00  0.000000D+00
     12   0.000000D+00  0.000000D+00  0.000000D+00  0.000000D+00  0.000000D+00
     13   0.000000D+00  0.000000D+00  0.000000D+00  0.000000D+00  0.000000D+00
     14   0.000000D+00  0.374027D+00  0.359240D-01  0.000000D+00  0.000000D+00
     15  -0.330067D+00  0.000000D+00  0.000000D+00 -0.753595D-01  0.000000D+00
     16   0.000000D+00  0.000000D+00  0.000000D+00  0.000000D+00 -0.202783D+00
                26            27            28            29            30 
      1  -0.113546D+03 -0.113546D+03 -0.113526D+03 -0.113524D+03 -0.113520D+03
      2   0.000000D+00  0.000000D+00  0.000000D+00  0.000000D+00  0.000000D+00
      3  -0.942234D-01  0.000000D+00  0.000000D+00  0.000000D+00 -0.117648D+00
      4   0.000000D+00 -0.464773D+00  0.377615D+00  0.145031D+00  0.000000D+00
      5   0.000000D+00  0.000000D+00  0.000000D+00  0.000000D+00  0.000000D+00
      6   0.616489D-01  0.000000D+00  0.000000D+00  0.000000D+00  0.767661D-01
      7   0.000000D+00  0.272137D+00 -0.238822D+00 -0.887710D-01  0.000000D+00
      8   0.489750D-01  0.000000D+00  0.000000D+00  0.000000D+00  0.337531D-01
      9   0.000000D+00  0.000000D+00  0.000000D+00  0.000000D+00  0.000000D+00
     10   0.000000D+00  0.000000D+00  0.000000D+00  0.000000D+00  0.000000D+00
     11   0.000000D+00 -0.258754D+00 -0.261052D+00  0.128321D+00  0.000000D+00
     12   0.000000D+00 -0.103283D+00  0.681921D+00  0.272377D+00  0.000000D+00
     13   0.000000D+00 -0.116547D+01  0.212020D+00 -0.102727D+00  0.000000D+00
     14   0.000000D+00  0.000000D+00  0.000000D+00  0.000000D+00  0.000000D+00
     15   0.000000D+00  0.000000D+00  0.000000D+00  0.000000D+00  0.000000D+00
     16  -0.266782D+00  0.000000D+00  0.000000D+00  0.000000D+00  0.356498D+00

 Test job not archived.
 1\1\GINC-BHD0007\SP\RB3LYP TD-FC\6-311+G(d,p)\C1H2O1\BWEIGHT\17-Sep-20
 21\0\\#p B3LYP/6-311+G** #p TD=(singlets,nstates=30)IOp(6/8=3) IOp(9/4
 0=4)\\Scan Step 74, Bond Length 0.87\\0,1\C,0,0.,0.,-0.52736\H,0,0.,0.
 93726,-1.11871\H,0,0.,-0.93726,-1.11871\O,0,0.,0.,0.34264\\Version=ES6
 4L-G16RevA.03\State=1-A1\HF=-114.1496551\RMSD=6.301e-09\PG=C02V [C2(C1
 O1),SGV(H2)]\\@


 ONE BIG VICE IN A MAN IS APT TO KEEP OUT MANY SMALLER ONES.

                           -- BRET HARTE
 Job cpu time:       0 days  0 hours  0 minutes 26.7 seconds.
 Elapsed time:       0 days  0 hours  0 minutes 27.5 seconds.
 File lengths (MBytes):  RWF=     79 Int=      0 D2E=      0 Chk=     32 Scr=      1
 Normal termination of Gaussian 16 at Fri Sep 17 10:52:31 2021.
