 Entering Gaussian System, Link 0=g16
 Initial command:
 /software/gaussian/g16-c01/sse4/g16/l1.exe "/local_scratch/24657483/Gau-31512.inp" -scrdir="/local_scratch/24657483/"
 Entering Link 1 = /software/gaussian/g16-c01/sse4/g16/l1.exe PID=     31515.
  
 Copyright (c) 1988-2019, Gaussian, Inc.  All Rights Reserved.
  
 This is part of the Gaussian(R) 16 program.  It is based on
 the Gaussian(R) 09 system (copyright 2009, Gaussian, Inc.),
 the Gaussian(R) 03 system (copyright 2003, Gaussian, Inc.),
 the Gaussian(R) 98 system (copyright 1998, Gaussian, Inc.),
 the Gaussian(R) 94 system (copyright 1995, Gaussian, Inc.),
 the Gaussian 92(TM) system (copyright 1992, Gaussian, Inc.),
 the Gaussian 90(TM) system (copyright 1990, Gaussian, Inc.),
 the Gaussian 88(TM) system (copyright 1988, Gaussian, Inc.),
 the Gaussian 86(TM) system (copyright 1986, Carnegie Mellon
 University), and the Gaussian 82(TM) system (copyright 1983,
 Carnegie Mellon University). Gaussian is a federally registered
 trademark of Gaussian, Inc.
  
 This software contains proprietary and confidential information,
 including trade secrets, belonging to Gaussian, Inc.
  
 This software is provided under written license and may be
 used, copied, transmitted, or stored only in accord with that
 written license.
  
 The following legend is applicable only to US Government
 contracts under FAR:
  
                    RESTRICTED RIGHTS LEGEND
  
 Use, reproduction and disclosure by the US Government is
 subject to restrictions as set forth in subparagraphs (a)
 and (c) of the Commercial Computer Software - Restricted
 Rights clause in FAR 52.227-19.
  
 Gaussian, Inc.
 340 Quinnipiac St., Bldg. 40, Wallingford CT 06492
  
  
 ---------------------------------------------------------------
 Warning -- This program may not be used in any manner that
 competes with the business of Gaussian, Inc. or will provide
 assistance to any competitor of Gaussian, Inc.  The licensee
 of this program is prohibited from giving any competitor of
 Gaussian, Inc. access to this program.  By using this program,
 the user acknowledges that Gaussian, Inc. is engaged in the
 business of creating and licensing software in the field of
 computational chemistry and represents and warrants to the
 licensee that it is not a competitor of Gaussian, Inc. and that
 it will not use this program in any manner prohibited above.
 ---------------------------------------------------------------
  

 Cite this work as:
 Gaussian 16, Revision C.01,
 M. J. Frisch, G. W. Trucks, H. B. Schlegel, G. E. Scuseria, 
 M. A. Robb, J. R. Cheeseman, G. Scalmani, V. Barone, 
 G. A. Petersson, H. Nakatsuji, X. Li, M. Caricato, A. V. Marenich, 
 J. Bloino, B. G. Janesko, R. Gomperts, B. Mennucci, H. P. Hratchian, 
 J. V. Ortiz, A. F. Izmaylov, J. L. Sonnenberg, D. Williams-Young, 
 F. Ding, F. Lipparini, F. Egidi, J. Goings, B. Peng, A. Petrone, 
 T. Henderson, D. Ranasinghe, V. G. Zakrzewski, J. Gao, N. Rega, 
 G. Zheng, W. Liang, M. Hada, M. Ehara, K. Toyota, R. Fukuda, 
 J. Hasegawa, M. Ishida, T. Nakajima, Y. Honda, O. Kitao, H. Nakai, 
 T. Vreven, K. Throssell, J. A. Montgomery, Jr., J. E. Peralta, 
 F. Ogliaro, M. J. Bearpark, J. J. Heyd, E. N. Brothers, K. N. Kudin, 
 V. N. Staroverov, T. A. Keith, R. Kobayashi, J. Normand, 
 K. Raghavachari, A. P. Rendell, J. C. Burant, S. S. Iyengar, 
 J. Tomasi, M. Cossi, J. M. Millam, M. Klene, C. Adamo, R. Cammi, 
 J. W. Ochterski, R. L. Martin, K. Morokuma, O. Farkas, 
 J. B. Foresman, and D. J. Fox, Gaussian, Inc., Wallingford CT, 2019.
 
 ******************************************
 Gaussian 16:  ES64L-G16RevC.01  3-Jul-2019
                 1-May-2024 
 ******************************************
 %chk=geometry.chk
 %mem=9GB
 %nprocshared=12
 Will use up to   12 processors via shared memory.
 ----------------------------------------
 #P wB97XD/6-311+G* NoSymm #P Field=Y-175
 ----------------------------------------
 1/38=1,172=1/1;
 2/12=2,15=1,17=6,18=5,40=1/2;
 3/5=4,6=6,7=11,11=2,14=2,15=-175,25=1,30=1,74=-58/1,2,3;
 4//1;
 5/5=2,38=5/2;
 6/7=2,8=2,9=2,10=2,28=1/1;
 99/5=1,9=1/99;
 Leave Link    1 at Wed May  1 14:45:54 2024, MaxMem=  1207959552 cpu:               1.3 elap:               1.3
 (Enter /software/gaussian/g16-c01/sse4/g16/l101.exe)
 -------
 TitleMe
 -------
 Symbolic Z-matrix:
 Charge =  1 Multiplicity = 1
 C                     0.0295    1.3397    0.0682 
 C                     1.4348    1.2867    0.0064 
 C                     2.1118    0.0511   -0.0054 
 C                     1.4451   -1.1372    0.0312 
 C                    -0.6879    0.1682    0.11 
 H                    -0.4713    2.2984    0.0781 
 H                     2.0273    2.1965   -0.0322 
 H                     1.9897   -2.0764    0.0232 
 H                    -1.7716    0.1804    0.1582 
 N                     3.5864    0.051    -0.0675 
 O                     4.1471   -1.0597   -0.0881 
 O                     4.145     1.1639   -0.0901 
 C                    -0.0236   -1.1458    0.0835 
 H                    -0.4367   -1.8725    0.7889 
 Br                   -0.5359   -1.8697   -1.7408 
 
 ITRead=  0  0  0  0  0  0  0  0  0  0  0  0  0  0  0
 MicOpt= -1 -1 -1 -1 -1 -1 -1 -1 -1 -1 -1 -1 -1 -1 -1
 NAtoms=     15 NQM=       15 NQMF=       0 NMMI=      0 NMMIF=      0
                NMic=       0 NMicF=      0.
                    Isotopes and Nuclear Properties:
 (Nuclear quadrupole moments (NQMom) in fm**2, nuclear magnetic moments (NMagM)
  in nuclear magnetons)

  Atom         1           2           3           4           5           6           7           8           9          10
 IAtWgt=          12          12          12          12          12           1           1           1           1          14
 AtmWgt=  12.0000000  12.0000000  12.0000000  12.0000000  12.0000000   1.0078250   1.0078250   1.0078250   1.0078250  14.0030740
 NucSpn=           0           0           0           0           0           1           1           1           1           2
 AtZEff=  -0.0000000  -0.0000000  -0.0000000  -0.0000000  -0.0000000  -0.0000000  -0.0000000  -0.0000000  -0.0000000  -0.0000000
 NQMom=    0.0000000   0.0000000   0.0000000   0.0000000   0.0000000   0.0000000   0.0000000   0.0000000   0.0000000   2.0440000
 NMagM=    0.0000000   0.0000000   0.0000000   0.0000000   0.0000000   2.7928460   2.7928460   2.7928460   2.7928460   0.4037610
 AtZNuc=   6.0000000   6.0000000   6.0000000   6.0000000   6.0000000   1.0000000   1.0000000   1.0000000   1.0000000   7.0000000

  Atom        11          12          13          14          15
 IAtWgt=          16          16          12           1          79
 AtmWgt=  15.9949146  15.9949146  12.0000000   1.0078250  78.9183361
 NucSpn=           0           0           0           1           3
 AtZEff=  -0.0000000  -0.0000000  -0.0000000  -0.0000000  -0.0000000
 NQMom=    0.0000000   0.0000000   0.0000000   0.0000000  31.3000000
 NMagM=    0.0000000   0.0000000   0.0000000   2.7928460   2.1063990
 AtZNuc=   8.0000000   8.0000000   6.0000000   1.0000000  35.0000000
 Leave Link  101 at Wed May  1 14:45:55 2024, MaxMem=  1207959552 cpu:               1.5 elap:               1.5
 (Enter /software/gaussian/g16-c01/sse4/g16/l202.exe)
                          Input orientation:                          
 ---------------------------------------------------------------------
 Center     Atomic      Atomic             Coordinates (Angstroms)
 Number     Number       Type             X           Y           Z
 ---------------------------------------------------------------------
      1          6           0        0.029500    1.339700    0.068200
      2          6           0        1.434800    1.286700    0.006400
      3          6           0        2.111800    0.051100   -0.005400
      4          6           0        1.445100   -1.137200    0.031200
      5          6           0       -0.687900    0.168200    0.110000
      6          1           0       -0.471300    2.298400    0.078100
      7          1           0        2.027300    2.196500   -0.032200
      8          1           0        1.989700   -2.076400    0.023200
      9          1           0       -1.771600    0.180400    0.158200
     10          7           0        3.586400    0.051000   -0.067500
     11          8           0        4.147100   -1.059700   -0.088100
     12          8           0        4.145000    1.163900   -0.090100
     13          6           0       -0.023600   -1.145800    0.083500
     14          1           0       -0.436700   -1.872500    0.788900
     15         35           0       -0.535900   -1.869700   -1.740800
 ---------------------------------------------------------------------
                    Distance matrix (angstroms):
                    1          2          3          4          5
     1  C    0.000000
     2  C    1.407656   0.000000
     3  C    2.449874   1.408963   0.000000
     4  C    2.853126   2.424049   1.363043   0.000000
     5  C    1.374344   2.401589   2.804523   2.501993   0.000000
     6  H    1.081667   2.159142   3.424870   3.934226   2.141421
     7  H    2.176095   1.086408   2.147231   3.384750   3.392128
     8  H    3.938800   3.408612   2.131193   1.085702   3.495040
     9  H    2.143837   3.395283   3.888995   3.478413   1.084840
    10  N    3.785591   2.482297   1.475907   2.450862   4.279589
    11  O    4.768247   3.587631   2.320164   2.705743   4.992415
    12  O    4.122294   2.714696   2.319353   3.549540   4.938459
    13  C    2.486114   2.837240   2.449573   1.469656   1.472614
    14  H    3.324903   3.754379   3.290289   2.157764   2.165286
    15  Br   3.727252   4.110867   3.702891   2.756973   2.757100
                    6          7          8          9         10
     6  H    0.000000
     7  H    2.503108   0.000000
     8  H    5.019802   4.273425   0.000000
     9  H    2.486588   4.304945   4.388479   0.000000
    10  N    4.640790   2.652397   2.661486   5.364313   0.000000
    11  O    5.712624   3.885809   2.387560   6.052233   1.244373
    12  O    4.756638   2.356750   3.893289   6.002923   1.245428
    13  C    3.473180   3.923079   2.218790   2.195425   3.806210
    14  H    4.231175   4.827242   2.552506   2.528663   4.540772
    15  Br   4.548146   5.101303   3.087568   3.055498   4.845862
                   11         12         13         14         15
    11  O    0.000000
    12  O    2.223602   0.000000
    13  C    4.175117   4.768865   0.000000
    14  H    4.737193   5.566358   1.093770   0.000000
    15  Br   5.031700   5.817075   2.028436   2.531646   0.000000
 Symmetry turned off by external request.
 Stoichiometry    C6H5BrNO2(1+)
 Framework group  C1[X(C6H5BrNO2)]
 Deg. of freedom    39
 Full point group                 C1      NOp   1
 Rotational constants (GHZ):           1.8252210           0.5518633           0.4576002
 Leave Link  202 at Wed May  1 14:45:57 2024, MaxMem=  1207959552 cpu:               1.1 elap:               1.1
 (Enter /software/gaussian/g16-c01/sse4/g16/l301.exe)
 Standard basis: 6-311+G(d) (5D, 7F)
 Ernie: Thresh=  0.10000D-02 Tol=  0.10000D-05 Strict=F.
 The following finite field(s) will be applied:
 An electric field of              0.0000 -0.0175  0.0000
   261 basis functions,   443 primitive gaussians,   273 cartesian basis functions
    49 alpha electrons       49 beta electrons
       nuclear repulsion energy       739.2122215416 Hartrees.
 IExCor= 4639 DFT=T Ex+Corr=wB97XD ExCW=0 ScaHFX=  1.000000
 ScaDFX=  1.000000  1.000000  1.000000  1.000000 ScalE2=  1.000000  1.000000
 IRadAn=      5 IRanWt=     -1 IRanGd=            0 ICorTp=0 IEmpDi=121
 HFx  wShort=  0.000000 wLong=  0.200000 cFull=  0.222036 cShort=  0.000000 cLong=  0.777964
 DFx  wShort=  0.000000 wLong=  0.200000 cFull=  0.000000 cShort=  0.000000 cLong=  1.000000
 NAtoms=   15 NActive=   15 NUniq=   15 SFac= 1.00D+00 NAtFMM=   60 NAOKFM=F Big=F
 Integral buffers will be    131072 words long.
 Raffenetti 2 integral format.
 Two-electron integral symmetry is turned off.
 R6Disp:  Grimme-D2 Dispersion energy=       -0.0077368520 Hartrees.
 Nuclear repulsion after empirical dispersion term =      739.2044846896 Hartrees.
 Leave Link  301 at Wed May  1 14:45:57 2024, MaxMem=  1207959552 cpu:               1.0 elap:               1.0
 (Enter /software/gaussian/g16-c01/sse4/g16/l302.exe)
 NPDir=0 NMtPBC=     1 NCelOv=     1 NCel=       1 NClECP=     1 NCelD=      1
         NCelK=      1 NCelE2=     1 NClLst=     1 CellRange=     0.0.
 One-electron integrals computed using PRISM.
 NBasis=   261 RedAO= T EigKep=  2.35D-06  NBF=   261
 NBsUse=   261 1.00D-06 EigRej= -1.00D+00 NBFU=   261
 Precomputing XC quadrature grid using
 IXCGrd= 4 IRadAn=           5 IRanWt=          -1 IRanGd=           0 AccXCQ= 0.00D+00.
 Generated NRdTot=       0 NPtTot=           0 NUsed=           0 NTot=          32
 NSgBfM=   273   273   273   273   273 MxSgAt=    15 MxSgA2=    15.
 Leave Link  302 at Wed May  1 14:46:18 2024, MaxMem=  1207959552 cpu:              20.9 elap:              20.9
 (Enter /software/gaussian/g16-c01/sse4/g16/l303.exe)
 DipDrv:  MaxL=1.
 The nuclear repulsion energy is now       741.1935352917 hartrees.
 Leave Link  303 at Wed May  1 14:46:22 2024, MaxMem=  1207959552 cpu:               3.2 elap:               3.2
 (Enter /software/gaussian/g16-c01/sse4/g16/l401.exe)
 ExpMin= 3.50D-02 ExpMax= 4.40D+05 ExpMxC= 1.51D+04 IAcc=3 IRadAn=         5 AccDes= 0.00D+00
 Harris functional with IExCor= 4639 and IRadAn=       5 diagonalized for initial guess.
 HarFok:  IExCor= 4639 AccDes= 0.00D+00 IRadAn=         5 IDoV= 1 UseB2=F ITyADJ=14
 ICtDFT=  3500011 ScaDFX=  1.000000  1.000000  1.000000  1.000000
 FoFCou: FMM=F IPFlag=           0 FMFlag=      100000 FMFlg1=           0
         NFxFlg=           0 DoJE=T BraDBF=F KetDBF=T FulRan=T
         wScrn=  0.000000 ICntrl=       500 IOpCl=  0 I1Cent=   200000004 NGrid=           0
         NMat0=    1 NMatS0=      1 NMatT0=    0 NMatD0=    1 NMtDS0=    0 NMtDT0=    0
 Symmetry not used in FoFCou.
 Harris En= -2970.66033231987    
 JPrj=0 DoOrth=F DoCkMO=F.
 Leave Link  401 at Wed May  1 14:46:51 2024, MaxMem=  1207959552 cpu:              29.9 elap:              29.9
 (Enter /software/gaussian/g16-c01/sse4/g16/l502.exe)
 Two-electron integral symmetry not used.
 Closed shell SCF:
 Using DIIS extrapolation, IDIIS=  1040.
 NGot=  1207959552 LenX=  1207804877 LenY=  1207729907
 Requested convergence on RMS density matrix=1.00D-08 within 128 cycles.
 Requested convergence on MAX density matrix=1.00D-06.
 Requested convergence on             energy=1.00D-06.
 No special actions if energy rises.
 Fock matrices will be formed incrementally for  20 cycles.

 Cycle   1  Pass 1  IDiag  1:
 FoFJK:  IHMeth= 1 ICntrl=       0 DoSepK=T KAlg= 0 I1Cent=           0 FoldK=F
 IRaf=         1 NMat=       1 IRICut=       1 DoRegI=T DoRafI=F ISym2E= 0 IDoP0=0 IntGTp=1.
 FoFCou: FMM=F IPFlag=           0 FMFlag=      100000 FMFlg1=           0
         NFxFlg=           0 DoJE=T BraDBF=F KetDBF=F FulRan=T
         wScrn=  0.000000 ICntrl=       500 IOpCl=  0 I1Cent=           0 NGrid=           0
         NMat0=    1 NMatS0=      1 NMatT0=    0 NMatD0=    1 NMtDS0=    0 NMtDT0=    0
 Symmetry not used in FoFCou.
 E= -3008.21270156249    
 DIIS: error= 3.23D-01 at cycle   1 NSaved=   1.
 NSaved= 1 IEnMin= 1 EnMin= -3008.21270156249     IErMin= 1 ErrMin= 3.23D-01
 ErrMax= 3.23D-01  0.00D+00 EMaxC= 1.00D-01 BMatC= 1.26D+01 BMatP= 1.26D+01
 IDIUse=3 WtCom= 0.00D+00 WtEn= 1.00D+00
 Coeff-Com:  0.100D+01
 Coeff-En:   0.100D+01
 Coeff:      0.100D+01
 Gap=    -0.900 Goal=   None    Shift=    0.000
 GapD=   -0.900 DampG=0.250 DampE=0.250 DampFc=0.2500 IDamp=-1.
 Damping current iteration by 2.50D-01
 RMSDP=1.94D-01 MaxDP=1.60D+01              OVMax= 8.02D-01

 Cycle   2  Pass 1  IDiag  1:
 RMSU=  2.12D-02    CP:  8.10D-01
 E= -3008.83005305711     Delta-E=       -0.617351494618 Rises=F Damp=T
 DIIS: error= 2.27D-01 at cycle   2 NSaved=   2.
 NSaved= 2 IEnMin= 2 EnMin= -3008.83005305711     IErMin= 2 ErrMin= 2.27D-01
 ErrMax= 2.27D-01  0.00D+00 EMaxC= 1.00D-01 BMatC= 5.63D+00 BMatP= 1.26D+01
 IDIUse=3 WtCom= 0.00D+00 WtEn= 1.00D+00
 Coeff-Com: -0.122D+01 0.222D+01
 Coeff-En:   0.225D+00 0.775D+00
 Coeff:      0.225D+00 0.775D+00
 Gap=     0.081 Goal=   None    Shift=    0.000
 RMSDP=1.52D-01 MaxDP=1.36D+01 DE=-6.17D-01 OVMax= 8.42D-01

 Cycle   3  Pass 1  IDiag  1:
 RMSU=  2.17D-02    CP:  1.62D-01  2.16D+00
 E= -3009.51798605390     Delta-E=       -0.687932996786 Rises=F Damp=F
 DIIS: error= 8.41D-02 at cycle   3 NSaved=   3.
 NSaved= 3 IEnMin= 3 EnMin= -3009.51798605390     IErMin= 3 ErrMin= 8.41D-02
 ErrMax= 8.41D-02  0.00D+00 EMaxC= 1.00D-01 BMatC= 2.22D+00 BMatP= 5.63D+00
 IDIUse=3 WtCom= 1.59D-01 WtEn= 8.41D-01
 EnCoef did   100 forward-backward iterations
 Coeff-Com:  0.137D+00 0.161D+00 0.702D+00
 Coeff-En:   0.309D+00 0.521D-02 0.686D+00
 Coeff:      0.282D+00 0.299D-01 0.688D+00
 Gap=     0.268 Goal=   None    Shift=    0.000
 RMSDP=2.58D-02 MaxDP=1.73D+00 DE=-6.88D-01 OVMax= 5.41D-01

 Cycle   4  Pass 1  IDiag  1:
 RMSU=  2.30D-02    CP:  1.59D-01  1.61D+00  1.08D+00
 E= -3009.95288329230     Delta-E=       -0.434897238403 Rises=F Damp=F
 DIIS: error= 9.02D-02 at cycle   4 NSaved=   4.
 NSaved= 4 IEnMin= 4 EnMin= -3009.95288329230     IErMin= 3 ErrMin= 8.41D-02
 ErrMax= 9.02D-02  0.00D+00 EMaxC= 1.00D-01 BMatC= 8.45D-01 BMatP= 2.22D+00
 IDIUse=3 WtCom= 9.83D-02 WtEn= 9.02D-01
 Coeff-Com:  0.184D+00-0.155D+00 0.429D+00 0.542D+00
 Coeff-En:   0.000D+00 0.000D+00 0.379D+00 0.621D+00
 Coeff:      0.181D-01-0.152D-01 0.384D+00 0.613D+00
 Gap=     0.204 Goal=   None    Shift=    0.000
 RMSDP=1.24D-02 MaxDP=6.53D-01 DE=-4.35D-01 OVMax= 3.71D-01

 Cycle   5  Pass 1  IDiag  1:
 RMSU=  9.20D-03    CP:  1.60D-01  1.47D+00  1.20D+00  6.81D-01
 E= -3010.41955313824     Delta-E=       -0.466669845935 Rises=F Damp=F
 DIIS: error= 3.82D-02 at cycle   5 NSaved=   5.
 NSaved= 5 IEnMin= 5 EnMin= -3010.41955313824     IErMin= 5 ErrMin= 3.82D-02
 ErrMax= 3.82D-02  0.00D+00 EMaxC= 1.00D-01 BMatC= 1.97D-01 BMatP= 8.45D-01
 IDIUse=3 WtCom= 6.18D-01 WtEn= 3.82D-01
 Coeff-Com:  0.201D-01-0.227D-01 0.158D+00 0.348D+00 0.497D+00
 Coeff-En:   0.000D+00 0.000D+00 0.000D+00 0.197D+00 0.803D+00
 Coeff:      0.124D-01-0.140D-01 0.974D-01 0.290D+00 0.614D+00
 Gap=     0.296 Goal=   None    Shift=    0.000
 RMSDP=8.19D-03 MaxDP=6.99D-01 DE=-4.67D-01 OVMax= 1.49D-01

 Cycle   6  Pass 1  IDiag  1:
 RMSU=  3.56D-03    CP:  1.42D-01  1.38D+00  1.10D+00  7.29D-01  4.39D-01
 E= -3010.53135774438     Delta-E=       -0.111804606146 Rises=F Damp=F
 DIIS: error= 1.57D-02 at cycle   6 NSaved=   6.
 NSaved= 6 IEnMin= 6 EnMin= -3010.53135774438     IErMin= 6 ErrMin= 1.57D-02
 ErrMax= 1.57D-02  0.00D+00 EMaxC= 1.00D-01 BMatC= 2.95D-02 BMatP= 1.97D-01
 IDIUse=3 WtCom= 8.43D-01 WtEn= 1.57D-01
 Coeff-Com: -0.286D-01 0.379D-01-0.144D-01 0.173D-01 0.295D+00 0.692D+00
 Coeff-En:   0.000D+00 0.000D+00 0.000D+00 0.000D+00 0.108D+00 0.892D+00
 Coeff:     -0.241D-01 0.319D-01-0.121D-01 0.146D-01 0.266D+00 0.724D+00
 Gap=     0.248 Goal=   None    Shift=    0.000
 RMSDP=1.87D-03 MaxDP=1.04D-01 DE=-1.12D-01 OVMax= 5.50D-02

 Cycle   7  Pass 1  IDiag  1:
 RMSU=  1.06D-03    CP:  1.42D-01  1.35D+00  1.10D+00  7.01D-01  5.68D-01
                    CP:  9.27D-01
 E= -3010.54734772519     Delta-E=       -0.015989980814 Rises=F Damp=F
 DIIS: error= 2.47D-03 at cycle   7 NSaved=   7.
 NSaved= 7 IEnMin= 7 EnMin= -3010.54734772519     IErMin= 7 ErrMin= 2.47D-03
 ErrMax= 2.47D-03  0.00D+00 EMaxC= 1.00D-01 BMatC= 1.42D-03 BMatP= 2.95D-02
 IDIUse=3 WtCom= 9.75D-01 WtEn= 2.47D-02
 Coeff-Com: -0.174D-01 0.237D-01-0.153D-01-0.108D-01 0.608D-01 0.294D+00
 Coeff-Com:  0.665D+00
 Coeff-En:   0.000D+00 0.000D+00 0.000D+00 0.000D+00 0.000D+00 0.000D+00
 Coeff-En:   0.100D+01
 Coeff:     -0.170D-01 0.231D-01-0.149D-01-0.105D-01 0.593D-01 0.287D+00
 Coeff:      0.673D+00
 Gap=     0.250 Goal=   None    Shift=    0.000
 RMSDP=8.75D-04 MaxDP=7.04D-02 DE=-1.60D-02 OVMax= 9.28D-03

 Cycle   8  Pass 1  IDiag  1:
 RMSU=  4.36D-04    CP:  1.41D-01  1.36D+00  1.09D+00  6.97D-01  5.20D-01
                    CP:  9.91D-01  7.59D-01
 E= -3010.54844458194     Delta-E=       -0.001096856741 Rises=F Damp=F
 DIIS: error= 5.34D-04 at cycle   8 NSaved=   8.
 NSaved= 8 IEnMin= 8 EnMin= -3010.54844458194     IErMin= 8 ErrMin= 5.34D-04
 ErrMax= 5.34D-04  0.00D+00 EMaxC= 1.00D-01 BMatC= 1.20D-04 BMatP= 1.42D-03
 IDIUse=3 WtCom= 9.95D-01 WtEn= 5.34D-03
 Coeff-Com: -0.692D-02 0.949D-02-0.191D-02-0.676D-03-0.190D-01-0.191D-01
 Coeff-Com:  0.230D+00 0.809D+00
 Coeff-En:   0.000D+00 0.000D+00 0.000D+00 0.000D+00 0.000D+00 0.000D+00
 Coeff-En:   0.000D+00 0.100D+01
 Coeff:     -0.688D-02 0.944D-02-0.190D-02-0.672D-03-0.189D-01-0.190D-01
 Coeff:      0.228D+00 0.810D+00
 Gap=     0.252 Goal=   None    Shift=    0.000
 RMSDP=3.19D-04 MaxDP=2.19D-02 DE=-1.10D-03 OVMax= 3.97D-03

 Cycle   9  Pass 1  IDiag  1:
 RMSU=  1.87D-04    CP:  1.41D-01  1.37D+00  1.09D+00  6.97D-01  5.05D-01
                    CP:  9.93D-01  7.73D-01  1.36D+00
 E= -3010.54859002399     Delta-E=       -0.000145442058 Rises=F Damp=F
 DIIS: error= 3.51D-04 at cycle   9 NSaved=   9.
 NSaved= 9 IEnMin= 9 EnMin= -3010.54859002399     IErMin= 9 ErrMin= 3.51D-04
 ErrMax= 3.51D-04  0.00D+00 EMaxC= 1.00D-01 BMatC= 1.47D-05 BMatP= 1.20D-04
 IDIUse=3 WtCom= 9.96D-01 WtEn= 3.51D-03
 Coeff-Com: -0.181D-02 0.253D-02 0.144D-02 0.216D-02-0.152D-01-0.519D-01
 Coeff-Com: -0.261D-01 0.230D+00 0.859D+00
 Coeff-En:   0.000D+00 0.000D+00 0.000D+00 0.000D+00 0.000D+00 0.000D+00
 Coeff-En:   0.000D+00 0.000D+00 0.100D+01
 Coeff:     -0.180D-02 0.252D-02 0.143D-02 0.216D-02-0.152D-01-0.517D-01
 Coeff:     -0.260D-01 0.229D+00 0.860D+00
 Gap=     0.253 Goal=   None    Shift=    0.000
 RMSDP=2.03D-04 MaxDP=1.56D-02 DE=-1.45D-04 OVMax= 2.60D-03

 Cycle  10  Pass 1  IDiag  1:
 RMSU=  5.85D-05    CP:  1.40D-01  1.37D+00  1.09D+00  6.95D-01  4.93D-01
                    CP:  1.00D+00  7.68D-01  1.55D+00  1.24D+00
 E= -3010.54861479379     Delta-E=       -0.000024769793 Rises=F Damp=F
 DIIS: error= 1.32D-04 at cycle  10 NSaved=  10.
 NSaved=10 IEnMin=10 EnMin= -3010.54861479379     IErMin=10 ErrMin= 1.32D-04
 ErrMax= 1.32D-04  0.00D+00 EMaxC= 1.00D-01 BMatC= 2.78D-06 BMatP= 1.47D-05
 IDIUse=3 WtCom= 9.99D-01 WtEn= 1.32D-03
 Coeff-Com: -0.470D-03 0.643D-03 0.334D-03 0.850D-03-0.156D-02-0.124D-01
 Coeff-Com: -0.434D-01-0.526D-01 0.349D+00 0.759D+00
 Coeff-En:   0.000D+00 0.000D+00 0.000D+00 0.000D+00 0.000D+00 0.000D+00
 Coeff-En:   0.000D+00 0.000D+00 0.000D+00 0.100D+01
 Coeff:     -0.470D-03 0.642D-03 0.333D-03 0.849D-03-0.156D-02-0.124D-01
 Coeff:     -0.433D-01-0.526D-01 0.349D+00 0.759D+00
 Gap=     0.253 Goal=   None    Shift=    0.000
 RMSDP=3.87D-05 MaxDP=3.20D-03 DE=-2.48D-05 OVMax= 1.23D-03

 Cycle  11  Pass 1  IDiag  1:
 RMSU=  1.97D-05    CP:  1.40D-01  1.37D+00  1.09D+00  6.95D-01  4.92D-01
                    CP:  1.00D+00  7.58D-01  1.58D+00  1.33D+00  1.12D+00
 E= -3010.54861887418     Delta-E=       -0.000004080397 Rises=F Damp=F
 DIIS: error= 3.59D-05 at cycle  11 NSaved=  11.
 NSaved=11 IEnMin=11 EnMin= -3010.54861887418     IErMin=11 ErrMin= 3.59D-05
 ErrMax= 3.59D-05  0.00D+00 EMaxC= 1.00D-01 BMatC= 3.66D-07 BMatP= 2.78D-06
 IDIUse=1 WtCom= 1.00D+00 WtEn= 0.00D+00
 Coeff-Com: -0.937D-05 0.338D-05-0.128D-03 0.189D-03 0.138D-02 0.189D-02
 Coeff-Com: -0.104D-01-0.450D-01 0.509D-02 0.278D+00 0.769D+00
 Coeff:     -0.937D-05 0.338D-05-0.128D-03 0.189D-03 0.138D-02 0.189D-02
 Coeff:     -0.104D-01-0.450D-01 0.509D-02 0.278D+00 0.769D+00
 Gap=     0.253 Goal=   None    Shift=    0.000
 RMSDP=1.86D-05 MaxDP=8.54D-04 DE=-4.08D-06 OVMax= 6.27D-04

 Cycle  12  Pass 1  IDiag  1:
 RMSU=  1.22D-05    CP:  1.40D-01  1.37D+00  1.09D+00  6.96D-01  4.92D-01
                    CP:  1.00D+00  7.57D-01  1.60D+00  1.35D+00  1.17D+00
                    CP:  1.33D+00
 E= -3010.54861973754     Delta-E=       -0.000000863360 Rises=F Damp=F
 DIIS: error= 1.54D-05 at cycle  12 NSaved=  12.
 NSaved=12 IEnMin=12 EnMin= -3010.54861973754     IErMin=12 ErrMin= 1.54D-05
 ErrMax= 1.54D-05  0.00D+00 EMaxC= 1.00D-01 BMatC= 6.30D-08 BMatP= 3.66D-07
 IDIUse=1 WtCom= 1.00D+00 WtEn= 0.00D+00
 Coeff-Com:  0.348D-04-0.600D-04-0.142D-03-0.675D-04 0.711D-03 0.278D-02
 Coeff-Com:  0.345D-02-0.670D-02-0.461D-01-0.237D-01 0.252D+00 0.818D+00
 Coeff:      0.348D-04-0.600D-04-0.142D-03-0.675D-04 0.711D-03 0.278D-02
 Coeff:      0.345D-02-0.670D-02-0.461D-01-0.237D-01 0.252D+00 0.818D+00
 Gap=     0.253 Goal=   None    Shift=    0.000
 RMSDP=1.27D-05 MaxDP=5.47D-04 DE=-8.63D-07 OVMax= 3.64D-04

 Cycle  13  Pass 1  IDiag  1:
 RMSU=  3.59D-06    CP:  1.40D-01  1.37D+00  1.09D+00  6.96D-01  4.93D-01
                    CP:  1.00D+00  7.59D-01  1.59D+00  1.33D+00  1.21D+00
                    CP:  1.61D+00  1.24D+00
 E= -3010.54861995089     Delta-E=       -0.000000213347 Rises=F Damp=F
 DIIS: error= 8.14D-06 at cycle  13 NSaved=  13.
 NSaved=13 IEnMin=13 EnMin= -3010.54861995089     IErMin=13 ErrMin= 8.14D-06
 ErrMax= 8.14D-06  0.00D+00 EMaxC= 1.00D-01 BMatC= 1.64D-08 BMatP= 6.30D-08
 IDIUse=1 WtCom= 1.00D+00 WtEn= 0.00D+00
 Coeff-Com:  0.364D-04-0.486D-04-0.976D-05-0.799D-04-0.154D-03 0.704D-03
 Coeff-Com:  0.417D-02 0.914D-02-0.144D-01-0.745D-01-0.124D+00 0.238D+00
 Coeff-Com:  0.961D+00
 Coeff:      0.364D-04-0.486D-04-0.976D-05-0.799D-04-0.154D-03 0.704D-03
 Coeff:      0.417D-02 0.914D-02-0.144D-01-0.745D-01-0.124D+00 0.238D+00
 Coeff:      0.961D+00
 Gap=     0.253 Goal=   None    Shift=    0.000
 RMSDP=7.53D-06 MaxDP=3.07D-04 DE=-2.13D-07 OVMax= 2.60D-04

 Cycle  14  Pass 1  IDiag  1:
 RMSU=  2.16D-06    CP:  1.40D-01  1.37D+00  1.09D+00  6.96D-01  4.93D-01
                    CP:  1.00D+00  7.59D-01  1.59D+00  1.32D+00  1.21D+00
                    CP:  1.78D+00  1.51D+00  1.47D+00
 E= -3010.54862001830     Delta-E=       -0.000000067410 Rises=F Damp=F
 DIIS: error= 2.64D-06 at cycle  14 NSaved=  14.
 NSaved=14 IEnMin=14 EnMin= -3010.54862001830     IErMin=14 ErrMin= 2.64D-06
 ErrMax= 2.64D-06  0.00D+00 EMaxC= 1.00D-01 BMatC= 3.22D-09 BMatP= 1.64D-08
 IDIUse=1 WtCom= 1.00D+00 WtEn= 0.00D+00
 Coeff-Com:  0.107D-04-0.127D-04 0.727D-05-0.366D-04-0.173D-03-0.112D-03
 Coeff-Com:  0.874D-03 0.411D-02 0.205D-02-0.247D-01-0.859D-01-0.324D-01
 Coeff-Com:  0.407D+00 0.730D+00
 Coeff:      0.107D-04-0.127D-04 0.727D-05-0.366D-04-0.173D-03-0.112D-03
 Coeff:      0.874D-03 0.411D-02 0.205D-02-0.247D-01-0.859D-01-0.324D-01
 Coeff:      0.407D+00 0.730D+00
 Gap=     0.253 Goal=   None    Shift=    0.000
 RMSDP=2.40D-06 MaxDP=1.10D-04 DE=-6.74D-08 OVMax= 9.07D-05

 Cycle  15  Pass 1  IDiag  1:
 RMSU=  8.69D-07    CP:  1.40D-01  1.37D+00  1.09D+00  6.96D-01  4.93D-01
                    CP:  1.00D+00  7.59D-01  1.59D+00  1.32D+00  1.21D+00
                    CP:  1.82D+00  1.58D+00  1.69D+00  1.01D+00
 E= -3010.54862002831     Delta-E=       -0.000000010008 Rises=F Damp=F
 DIIS: error= 1.45D-06 at cycle  15 NSaved=  15.
 NSaved=15 IEnMin=15 EnMin= -3010.54862002831     IErMin=15 ErrMin= 1.45D-06
 ErrMax= 1.45D-06  0.00D+00 EMaxC= 1.00D-01 BMatC= 3.49D-10 BMatP= 3.22D-09
 IDIUse=1 WtCom= 1.00D+00 WtEn= 0.00D+00
 Coeff-Com:  0.192D-05-0.292D-05 0.388D-05 0.114D-04-0.123D-04-0.229D-03
 Coeff-Com: -0.800D-03-0.112D-02 0.276D-02 0.104D-01 0.628D-02-0.523D-01
 Coeff-Com: -0.985D-01 0.939D-01 0.104D+01
 Coeff:      0.192D-05-0.292D-05 0.388D-05 0.114D-04-0.123D-04-0.229D-03
 Coeff:     -0.800D-03-0.112D-02 0.276D-02 0.104D-01 0.628D-02-0.523D-01
 Coeff:     -0.985D-01 0.939D-01 0.104D+01
 Gap=     0.253 Goal=   None    Shift=    0.000
 RMSDP=9.50D-07 MaxDP=3.91D-05 DE=-1.00D-08 OVMax= 5.59D-05

 Cycle  16  Pass 1  IDiag  1:
 RMSU=  3.27D-07    CP:  1.40D-01  1.37D+00  1.09D+00  6.96D-01  4.93D-01
                    CP:  1.00D+00  7.59D-01  1.59D+00  1.32D+00  1.21D+00
                    CP:  1.83D+00  1.61D+00  1.79D+00  1.17D+00  1.46D+00
 E= -3010.54862003058     Delta-E=       -0.000000002270 Rises=F Damp=F
 DIIS: error= 7.20D-07 at cycle  16 NSaved=  16.
 NSaved=16 IEnMin=16 EnMin= -3010.54862003058     IErMin=16 ErrMin= 7.20D-07
 ErrMax= 7.20D-07  0.00D+00 EMaxC= 1.00D-01 BMatC= 9.20D-11 BMatP= 3.49D-10
 IDIUse=1 WtCom= 1.00D+00 WtEn= 0.00D+00
 Coeff-Com:  0.452D-06-0.849D-06 0.146D-05 0.642D-05 0.214D-04-0.520D-04
 Coeff-Com: -0.367D-03-0.893D-03 0.175D-03 0.612D-02 0.110D-01-0.111D-01
 Coeff-Com: -0.729D-01-0.818D-01 0.335D+00 0.815D+00
 Coeff:      0.452D-06-0.849D-06 0.146D-05 0.642D-05 0.214D-04-0.520D-04
 Coeff:     -0.367D-03-0.893D-03 0.175D-03 0.612D-02 0.110D-01-0.111D-01
 Coeff:     -0.729D-01-0.818D-01 0.335D+00 0.815D+00
 Gap=     0.253 Goal=   None    Shift=    0.000
 RMSDP=2.99D-07 MaxDP=1.28D-05 DE=-2.27D-09 OVMax= 1.76D-05

 Cycle  17  Pass 1  IDiag  1:
 RMSU=  1.65D-07    CP:  1.40D-01  1.37D+00  1.09D+00  6.96D-01  4.93D-01
                    CP:  1.00D+00  7.59D-01  1.59D+00  1.32D+00  1.21D+00
                    CP:  1.84D+00  1.61D+00  1.82D+00  1.17D+00  1.65D+00
                    CP:  1.14D+00
 E= -3010.54862003090     Delta-E=       -0.000000000317 Rises=F Damp=F
 DIIS: error= 3.74D-07 at cycle  17 NSaved=  17.
 NSaved=17 IEnMin=17 EnMin= -3010.54862003090     IErMin=17 ErrMin= 3.74D-07
 ErrMax= 3.74D-07  0.00D+00 EMaxC= 1.00D-01 BMatC= 2.05D-11 BMatP= 9.20D-11
 IDIUse=1 WtCom= 1.00D+00 WtEn= 0.00D+00
 Coeff-Com: -0.412D-06 0.700D-06 0.560D-06-0.780D-06 0.123D-04 0.392D-04
 Coeff-Com:  0.741D-04-0.287D-04-0.673D-03-0.236D-03 0.191D-02 0.103D-01
 Coeff-Com:  0.254D-02-0.547D-01-0.129D+00 0.228D+00 0.942D+00
 Coeff:     -0.412D-06 0.700D-06 0.560D-06-0.780D-06 0.123D-04 0.392D-04
 Coeff:      0.741D-04-0.287D-04-0.673D-03-0.236D-03 0.191D-02 0.103D-01
 Coeff:      0.254D-02-0.547D-01-0.129D+00 0.228D+00 0.942D+00
 Gap=     0.253 Goal=   None    Shift=    0.000
 RMSDP=1.81D-07 MaxDP=9.73D-06 DE=-3.17D-10 OVMax= 8.05D-06

 Cycle  18  Pass 1  IDiag  1:
 RMSU=  5.43D-08    CP:  1.40D-01  1.37D+00  1.09D+00  6.96D-01  4.93D-01
                    CP:  1.00D+00  7.59D-01  1.59D+00  1.32D+00  1.21D+00
                    CP:  1.84D+00  1.61D+00  1.81D+00  1.18D+00  1.74D+00
                    CP:  1.32D+00  1.24D+00
 E= -3010.54862003098     Delta-E=       -0.000000000081 Rises=F Damp=F
 DIIS: error= 1.46D-07 at cycle  18 NSaved=  18.
 NSaved=18 IEnMin=18 EnMin= -3010.54862003098     IErMin=18 ErrMin= 1.46D-07
 ErrMax= 1.46D-07  0.00D+00 EMaxC= 1.00D-01 BMatC= 2.71D-12 BMatP= 2.05D-11
 IDIUse=1 WtCom= 1.00D+00 WtEn= 0.00D+00
 Coeff-Com: -0.248D-06 0.411D-06 0.208D-06-0.879D-06-0.790D-06 0.145D-04
 Coeff-Com:  0.786D-04 0.143D-03-0.120D-03-0.102D-02-0.182D-02 0.347D-02
 Coeff-Com:  0.129D-01 0.480D-02-0.752D-01-0.111D+00 0.156D+00 0.101D+01
 Coeff:     -0.248D-06 0.411D-06 0.208D-06-0.879D-06-0.790D-06 0.145D-04
 Coeff:      0.786D-04 0.143D-03-0.120D-03-0.102D-02-0.182D-02 0.347D-02
 Coeff:      0.129D-01 0.480D-02-0.752D-01-0.111D+00 0.156D+00 0.101D+01
 Gap=     0.253 Goal=   None    Shift=    0.000
 RMSDP=8.61D-08 MaxDP=4.84D-06 DE=-8.09D-11 OVMax= 3.76D-06

 Cycle  19  Pass 1  IDiag  1:
 RMSU=  2.68D-08    CP:  1.40D-01  1.37D+00  1.09D+00  6.96D-01  4.93D-01
                    CP:  1.00D+00  7.59D-01  1.59D+00  1.32D+00  1.21D+00
                    CP:  1.84D+00  1.61D+00  1.81D+00  1.18D+00  1.75D+00
                    CP:  1.33D+00  1.49D+00  1.41D+00
 E= -3010.54862003098     Delta-E=       -0.000000000001 Rises=F Damp=F
 DIIS: error= 5.10D-08 at cycle  19 NSaved=  19.
 NSaved=19 IEnMin=19 EnMin= -3010.54862003098     IErMin=19 ErrMin= 5.10D-08
 ErrMax= 5.10D-08  0.00D+00 EMaxC= 1.00D-01 BMatC= 4.64D-13 BMatP= 2.71D-12
 IDIUse=1 WtCom= 1.00D+00 WtEn= 0.00D+00
 Coeff-Com:  0.342D-08-0.183D-07-0.664D-07-0.235D-07-0.262D-05-0.378D-05
 Coeff-Com:  0.886D-05 0.422D-04 0.106D-03-0.256D-03-0.886D-03-0.107D-02
 Coeff-Com:  0.263D-02 0.126D-01 0.606D-02-0.816D-01-0.121D+00 0.305D+00
 Coeff-Com:  0.879D+00
 Coeff:      0.342D-08-0.183D-07-0.664D-07-0.235D-07-0.262D-05-0.378D-05
 Coeff:      0.886D-05 0.422D-04 0.106D-03-0.256D-03-0.886D-03-0.107D-02
 Coeff:      0.263D-02 0.126D-01 0.606D-02-0.816D-01-0.121D+00 0.305D+00
 Coeff:      0.879D+00
 Gap=     0.253 Goal=   None    Shift=    0.000
 RMSDP=2.39D-08 MaxDP=9.21D-07 DE=-9.09D-13 OVMax= 1.48D-06

 Cycle  20  Pass 1  IDiag  1:
 RMSU=  1.02D-08    CP:  1.40D-01  1.37D+00  1.09D+00  6.96D-01  4.93D-01
                    CP:  1.00D+00  7.59D-01  1.59D+00  1.32D+00  1.21D+00
                    CP:  1.84D+00  1.61D+00  1.81D+00  1.18D+00  1.74D+00
                    CP:  1.32D+00  1.54D+00  1.60D+00  1.36D+00
 E= -3010.54862003100     Delta-E=       -0.000000000025 Rises=F Damp=F
 DIIS: error= 2.45D-08 at cycle  20 NSaved=  20.
 NSaved=20 IEnMin=20 EnMin= -3010.54862003100     IErMin=20 ErrMin= 2.45D-08
 ErrMax= 2.45D-08  0.00D+00 EMaxC= 1.00D-01 BMatC= 9.30D-14 BMatP= 4.64D-13
 IDIUse=1 WtCom= 1.00D+00 WtEn= 0.00D+00
 Coeff-Com:  0.423D-07-0.718D-07-0.126D-06 0.107D-06-0.391D-06-0.224D-05
 Coeff-Com: -0.950D-05-0.160D-04 0.411D-04 0.109D-03 0.223D-03-0.657D-03
 Coeff-Com: -0.209D-02 0.150D-02 0.134D-01 0.159D-02-0.321D-01-0.141D+00
 Coeff-Com:  0.127D+00 0.103D+01
 Coeff:      0.423D-07-0.718D-07-0.126D-06 0.107D-06-0.391D-06-0.224D-05
 Coeff:     -0.950D-05-0.160D-04 0.411D-04 0.109D-03 0.223D-03-0.657D-03
 Coeff:     -0.209D-02 0.150D-02 0.134D-01 0.159D-02-0.321D-01-0.141D+00
 Coeff:      0.127D+00 0.103D+01
 Gap=     0.253 Goal=   None    Shift=    0.000
 RMSDP=1.43D-08 MaxDP=7.61D-07 DE=-2.55D-11 OVMax= 6.86D-07

 Cycle  21  Pass 1  IDiag  1:
 Restarting incremental Fock formation.
 E= -3010.54862003097     Delta-E=        0.000000000033 Rises=F Damp=F
 DIIS: error= 8.38D-09 at cycle  21 NSaved=  20.
 NSaved=20 IEnMin=19 EnMin= -3010.54862003100     IErMin=20 ErrMin= 8.38D-09
 ErrMax= 8.38D-09  0.00D+00 EMaxC= 1.00D-01 BMatC= 1.26D-14 BMatP= 9.30D-14
 IDIUse=1 WtCom= 1.00D+00 WtEn= 0.00D+00
 Coeff-Com: -0.115D-08-0.285D-07-0.129D-07 0.130D-06 0.432D-06-0.822D-06
 Coeff-Com: -0.435D-05-0.209D-05 0.337D-04 0.114D-03 0.812D-04-0.452D-03
 Coeff-Com: -0.125D-02-0.496D-03 0.812D-02 0.187D-01-0.529D-01-0.106D+00
 Coeff-Com:  0.115D+00 0.102D+01
 Coeff:     -0.115D-08-0.285D-07-0.129D-07 0.130D-06 0.432D-06-0.822D-06
 Coeff:     -0.435D-05-0.209D-05 0.337D-04 0.114D-03 0.812D-04-0.452D-03
 Coeff:     -0.125D-02-0.496D-03 0.812D-02 0.187D-01-0.529D-01-0.106D+00
 Coeff:      0.115D+00 0.102D+01
 Gap=     0.253 Goal=   None    Shift=    0.000
 RMSDP=5.20D-09 MaxDP=2.75D-07 DE= 3.27D-11 OVMax= 2.18D-07

 SCF Done:  E(RwB97XD) =  -3010.54862003     A.U. after   21 cycles
            NFock= 21  Conv=0.52D-08     -V/T= 2.0016
 KE= 3.005871201223D+03 PE=-8.634685879161D+03 EE= 1.877072522615D+03
 Leave Link  502 at Wed May  1 15:06:37 2024, MaxMem=  1207959552 cpu:            1185.9 elap:            1186.0
 (Enter /software/gaussian/g16-c01/sse4/g16/l601.exe)
 Copying SCF densities to generalized density rwf, IOpCl= 0 IROHF=0.

 **********************************************************************

            Population analysis using the SCF Density.

 **********************************************************************

 Alpha  occ. eigenvalues -- -483.34059 -62.89115 -56.68764 -56.68252 -56.68250
 Alpha  occ. eigenvalues --  -19.46488 -19.46081 -14.85717 -10.60631 -10.58046
 Alpha  occ. eigenvalues --  -10.57970 -10.57244 -10.56706 -10.52119  -9.04943
 Alpha  occ. eigenvalues --   -6.87500  -6.85813  -6.85805  -2.97433  -2.96981
 Alpha  occ. eigenvalues --   -2.96973  -2.95623  -2.95622  -1.50020  -1.32988
 Alpha  occ. eigenvalues --   -1.23483  -1.15384  -1.11930  -1.06516  -1.01399
 Alpha  occ. eigenvalues --   -0.96221  -0.91421  -0.85685  -0.81304  -0.80991
 Alpha  occ. eigenvalues --   -0.80433  -0.79308  -0.76428  -0.76017  -0.73510
 Alpha  occ. eigenvalues --   -0.69456  -0.67382  -0.64280  -0.61831  -0.59793
 Alpha  occ. eigenvalues --   -0.57561  -0.57031  -0.56468  -0.55834
 Alpha virt. eigenvalues --   -0.30572  -0.21776  -0.17713  -0.16172  -0.13642
 Alpha virt. eigenvalues --   -0.11547  -0.11336  -0.08072  -0.06802  -0.06416
 Alpha virt. eigenvalues --   -0.05290  -0.04603  -0.03077  -0.02759  -0.01527
 Alpha virt. eigenvalues --   -0.00383  -0.00157   0.01350   0.01907   0.02067
 Alpha virt. eigenvalues --    0.03046   0.03603   0.04321   0.04798   0.06277
 Alpha virt. eigenvalues --    0.06761   0.07372   0.08760   0.09432   0.09561
 Alpha virt. eigenvalues --    0.09821   0.11072   0.11511   0.12330   0.12845
 Alpha virt. eigenvalues --    0.13317   0.13667   0.14070   0.14603   0.15920
 Alpha virt. eigenvalues --    0.16958   0.18619   0.19624   0.19644   0.20420
 Alpha virt. eigenvalues --    0.20815   0.21853   0.22373   0.24416   0.25715
 Alpha virt. eigenvalues --    0.26148   0.26926   0.27192   0.27947   0.28588
 Alpha virt. eigenvalues --    0.30061   0.31654   0.32929   0.34791   0.35811
 Alpha virt. eigenvalues --    0.36760   0.37434   0.39694   0.40312   0.41126
 Alpha virt. eigenvalues --    0.43001   0.43315   0.44540   0.46005   0.46969
 Alpha virt. eigenvalues --    0.48183   0.48894   0.50586   0.51046   0.52391
 Alpha virt. eigenvalues --    0.52838   0.53372   0.56092   0.56781   0.59713
 Alpha virt. eigenvalues --    0.61023   0.61994   0.62958   0.64888   0.68060
 Alpha virt. eigenvalues --    0.69259   0.71425   0.72578   0.73208   0.75005
 Alpha virt. eigenvalues --    0.76007   0.79619   0.80085   0.81405   0.84567
 Alpha virt. eigenvalues --    0.85541   0.87854   0.91093   0.92346   0.97435
 Alpha virt. eigenvalues --    0.99504   1.01166   1.03595   1.05116   1.06013
 Alpha virt. eigenvalues --    1.08071   1.10465   1.11838   1.12300   1.14312
 Alpha virt. eigenvalues --    1.22208   1.24125   1.26197   1.32917   1.35968
 Alpha virt. eigenvalues --    1.36359   1.36780   1.44195   1.53871   1.56672
 Alpha virt. eigenvalues --    1.57748   1.58212   1.60316   1.61576   1.65633
 Alpha virt. eigenvalues --    1.68530   1.68852   1.73505   1.74987   1.78721
 Alpha virt. eigenvalues --    1.80335   1.85045   1.87665   1.90592   1.92622
 Alpha virt. eigenvalues --    1.96857   2.02374   2.03079   2.04893   2.07089
 Alpha virt. eigenvalues --    2.08186   2.14331   2.20492   2.22652   2.30763
 Alpha virt. eigenvalues --    2.36872   2.40366   2.41248   2.43106   2.52138
 Alpha virt. eigenvalues --    2.56506   2.62822   2.65732   2.67832   2.71489
 Alpha virt. eigenvalues --    2.72697   2.75923   2.77063   2.80570   2.81061
 Alpha virt. eigenvalues --    2.92679   2.95303   3.00202   3.03936   3.08437
 Alpha virt. eigenvalues --    3.12659   3.15353   3.19345   3.23332   3.24083
 Alpha virt. eigenvalues --    3.26965   3.38740   3.48126   3.50928   3.53769
 Alpha virt. eigenvalues --    3.56299   3.69491   3.73738   3.81831   3.86584
 Alpha virt. eigenvalues --    4.05770   4.06025   4.13794   4.18912   4.39823
 Alpha virt. eigenvalues --    4.43979   4.56798   4.59499   4.92755   4.95534
 Alpha virt. eigenvalues --    5.04057   5.08372   5.62418   6.15385   6.61547
 Alpha virt. eigenvalues --    7.44458   7.46027   7.55951  23.20813  23.60868
 Alpha virt. eigenvalues --   23.67539  23.79454  23.95904  24.01067  35.32236
 Alpha virt. eigenvalues --   47.88291  49.85106  49.93926 289.77651 289.79322
 Alpha virt. eigenvalues --  289.917951020.88762
          Condensed to atoms (all electrons):
               1          2          3          4          5          6
     1  C    8.557837  -1.845784   0.200363  -1.485886  -0.906888   0.303642
     2  C   -1.845784  12.072892  -1.843243  -2.715849   1.129914  -0.009522
     3  C    0.200363  -1.843243  12.915532  -2.621561  -1.399429   0.021890
     4  C   -1.485886  -2.715849  -2.621561  15.758475   0.817289   0.003730
     5  C   -0.906888   1.129914  -1.399429   0.817289   7.676200   0.008485
     6  H    0.303642  -0.009522   0.021890   0.003730   0.008485   0.276434
     7  H    0.045436   0.252183   0.048391  -0.017965  -0.014486  -0.000945
     8  H    0.010324  -0.035827   0.125953   0.152085  -0.028402   0.000003
     9  H    0.061163  -0.027044   0.009331  -0.019644   0.292960  -0.001955
    10  N   -0.089504   0.283928  -0.914679   0.318160   0.037147  -0.000386
    11  O    0.042089  -0.112740  -0.241593  -0.072323  -0.069775  -0.000029
    12  O    0.272047   0.057673  -0.295398  -0.090487  -0.033731  -0.000009
    13  C    1.379471  -1.717348   0.711684  -4.292307  -1.550528  -0.003482
    14  H   -0.020130   0.027049  -0.018631   0.078583  -0.003812  -0.000012
    15  Br   0.013678   0.042739  -0.062610  -0.078962  -0.002738  -0.000282
               7          8          9         10         11         12
     1  C    0.045436   0.010324   0.061163  -0.089504   0.042089   0.272047
     2  C    0.252183  -0.035827  -0.027044   0.283928  -0.112740   0.057673
     3  C    0.048391   0.125953   0.009331  -0.914679  -0.241593  -0.295398
     4  C   -0.017965   0.152085  -0.019644   0.318160  -0.072323  -0.090487
     5  C   -0.014486  -0.028402   0.292960   0.037147  -0.069775  -0.033731
     6  H   -0.000945   0.000003  -0.001955  -0.000386  -0.000029  -0.000009
     7  H    0.253585   0.000023   0.000050  -0.019307  -0.000960   0.017013
     8  H    0.000023   0.350234   0.000093  -0.030026   0.027682  -0.001397
     9  H    0.000050   0.000093   0.315922   0.000266   0.000008   0.000004
    10  N   -0.019307  -0.030026   0.000266   7.378325   0.113189   0.218805
    11  O   -0.000960   0.027682   0.000008   0.113189   8.002177   0.000835
    12  O    0.017013  -0.001397   0.000004   0.218805   0.000835   7.701611
    13  C    0.010399   0.116319   0.010989  -0.202688   0.369342   0.021272
    14  H   -0.000026  -0.006113  -0.005076  -0.000227  -0.000097  -0.000088
    15  Br   0.000074   0.006496   0.006592   0.016591  -0.001649   0.002201
              13         14         15
     1  C    1.379471  -0.020130   0.013678
     2  C   -1.717348   0.027049   0.042739
     3  C    0.711684  -0.018631  -0.062610
     4  C   -4.292307   0.078583  -0.078962
     5  C   -1.550528  -0.003812  -0.002738
     6  H   -0.003482  -0.000012  -0.000282
     7  H    0.010399  -0.000026   0.000074
     8  H    0.116319  -0.006113   0.006496
     9  H    0.010989  -0.005076   0.006592
    10  N   -0.202688  -0.000227   0.016591
    11  O    0.369342  -0.000097  -0.001649
    12  O    0.021272  -0.000088   0.002201
    13  C   11.144651   0.254006   0.210237
    14  H    0.254006   0.397873  -0.061988
    15  Br   0.210237  -0.061988  34.849626
 Mulliken charges:
               1
     1  C   -0.537858
     2  C    0.440979
     3  C   -0.636001
     4  C    0.266661
     5  C    0.047793
     6  H    0.402440
     7  H    0.426536
     8  H    0.312552
     9  H    0.356339
    10  N   -0.109595
    11  O   -0.056156
    12  O    0.129648
    13  C   -0.462020
    14  H    0.358687
    15  Br   0.059994
 Sum of Mulliken charges =   1.00000
 Mulliken charges with hydrogens summed into heavy atoms:
               1
     1  C   -0.135419
     2  C    0.867515
     3  C   -0.636001
     4  C    0.579213
     5  C    0.404132
    10  N   -0.109595
    11  O   -0.056156
    12  O    0.129648
    13  C   -0.103332
    15  Br   0.059994
 Electronic spatial extent (au):  <R**2>=           2800.7365
 Charge=              1.0000 electrons
 Dipole moment (field-independent basis, Debye):
    X=             -0.1991    Y=              4.4494    Z=              0.6214  Tot=              4.4970
 Quadrupole moment (field-independent basis, Debye-Ang):
   XX=            -70.2089   YY=            -54.6777   ZZ=            -64.1464
   XY=              6.9290   XZ=              0.5525   YZ=             -0.6505
 Traceless Quadrupole moment (field-independent basis, Debye-Ang):
   XX=             -7.1979   YY=              8.3333   ZZ=             -1.1353
   XY=              6.9290   XZ=              0.5525   YZ=             -0.6505
 Octapole moment (field-independent basis, Debye-Ang**2):
  XXX=           -293.2500  YYY=            118.3871  ZZZ=             81.6840  XYY=            -72.8125
  XXY=             57.0449  XXZ=             32.8962  XZZ=            -76.6900  YZZ=             24.4541
  YYZ=             32.4659  XYZ=             -2.2684
 Hexadecapole moment (field-independent basis, Debye-Ang**3):
 XXXX=          -2256.4878 YYYY=           -710.8446 ZZZZ=           -359.8666 XXXY=             24.8239
 XXXZ=            -23.8783 YYYX=            -42.6066 YYYZ=           -177.1487 ZZZX=            -21.3445
 ZZZY=           -149.2978 XXYY=           -456.5191 XXZZ=           -371.9085 YYZZ=           -179.4619
 XXYZ=            -58.8452 YYXZ=             -6.4643 ZZXY=             -8.0509
 N-N= 7.411935352917D+02 E-N=-8.634685879562D+03  KE= 3.005871201223D+03
 No NMR shielding tensors so no spin-rotation constants.
 Leave Link  601 at Wed May  1 15:06:45 2024, MaxMem=  1207959552 cpu:               7.5 elap:               7.5
 (Enter /software/gaussian/g16-c01/sse4/g16/l9999.exe)
 Unable to Open any file for archive entry.
 1\1\GINC-BHX0017\SP\RwB97XD\6-311+G(d)\C6H5Br1N1O2(1+)\BWEIGHT\01-May-
 2024\0\\#P wB97XD/6-311+G* NoSymm #P Field=Y-175\\TitleMe\\1,1\C,0,0.0
 295,1.3397,0.0682\C,0,1.4348,1.2867,0.0064\C,0,2.1118,0.0511,-0.0054\C
 ,0,1.4451,-1.1372,0.0312\C,0,-0.6879,0.1682,0.11\H,0,-0.4713,2.2984,0.
 0781\H,0,2.0273,2.1965,-0.0322\H,0,1.9897,-2.0764,0.0232\H,0,-1.7716,0
 .1804,0.1582\N,0,3.5864,0.051,-0.0675\O,0,4.1471,-1.0597,-0.0881\O,0,4
 .145,1.1639,-0.0901\C,0,-0.0236,-1.1458,0.0835\H,0,-0.4367,-1.8725,0.7
 889\Br,0,-0.5359,-1.8697,-1.7408\\Version=ES64L-G16RevC.01\HF=-3010.54
 862\RMSD=5.197e-09\Dipole=-1.9848831,2.8985939,1.3906534\Quadrupole=-5
 .3514819,6.1955858,-0.8441039,5.1515234,0.4107604,-0.4836506\PG=C01 [X
 (C6H5Br1N1O2)]\\@
 The archive entry for this job was punched.


 MARY HAD A LITTLE LAMB
      HIS FEET WERE BLACK AS SOOT,
           AND EVERYWHERE THAT MARY WENT
                HIS SOOTY FOOT HE PUT.

                    -- NONAME
 Job cpu time:       0 days  0 hours 20 minutes 53.2 seconds.
 Elapsed time:       0 days  0 hours 20 minutes 53.2 seconds.
 File lengths (MBytes):  RWF=     40 Int=      0 D2E=      0 Chk=     32 Scr=      1
 Normal termination of Gaussian 16 at Wed May  1 15:06:46 2024.
