 Entering Gaussian System, Link 0=g16
 Initial command:
 /software/gaussian/g16-a03/l1.exe "/local_scratch/6484885/Gau-1248.inp" -scrdir="/local_scratch/6484885/"
 Entering Link 1 = /software/gaussian/g16-a03/l1.exe PID=      1254.
  
 Copyright (c) 1988,1990,1992,1993,1995,1998,2003,2009,2016,
            Gaussian, Inc.  All Rights Reserved.
  
 This is part of the Gaussian(R) 16 program.  It is based on
 the Gaussian(R) 09 system (copyright 2009, Gaussian, Inc.),
 the Gaussian(R) 03 system (copyright 2003, Gaussian, Inc.),
 the Gaussian(R) 98 system (copyright 1998, Gaussian, Inc.),
 the Gaussian(R) 94 system (copyright 1995, Gaussian, Inc.),
 the Gaussian 92(TM) system (copyright 1992, Gaussian, Inc.),
 the Gaussian 90(TM) system (copyright 1990, Gaussian, Inc.),
 the Gaussian 88(TM) system (copyright 1988, Gaussian, Inc.),
 the Gaussian 86(TM) system (copyright 1986, Carnegie Mellon
 University), and the Gaussian 82(TM) system (copyright 1983,
 Carnegie Mellon University). Gaussian is a federally registered
 trademark of Gaussian, Inc.
  
 This software contains proprietary and confidential information,
 including trade secrets, belonging to Gaussian, Inc.
  
 This software is provided under written license and may be
 used, copied, transmitted, or stored only in accord with that
 written license.
  
 The following legend is applicable only to US Government
 contracts under FAR:
  
                    RESTRICTED RIGHTS LEGEND
  
 Use, reproduction and disclosure by the US Government is
 subject to restrictions as set forth in subparagraphs (a)
 and (c) of the Commercial Computer Software - Restricted
 Rights clause in FAR 52.227-19.
  
 Gaussian, Inc.
 340 Quinnipiac St., Bldg. 40, Wallingford CT 06492
  
  
 ---------------------------------------------------------------
 Warning -- This program may not be used in any manner that
 competes with the business of Gaussian, Inc. or will provide
 assistance to any competitor of Gaussian, Inc.  The licensee
 of this program is prohibited from giving any competitor of
 Gaussian, Inc. access to this program.  By using this program,
 the user acknowledges that Gaussian, Inc. is engaged in the
 business of creating and licensing software in the field of
 computational chemistry and represents and warrants to the
 licensee that it is not a competitor of Gaussian, Inc. and that
 it will not use this program in any manner prohibited above.
 ---------------------------------------------------------------
  

 Cite this work as:
 Gaussian 16, Revision A.03,
 M. J. Frisch, G. W. Trucks, H. B. Schlegel, G. E. Scuseria, 
 M. A. Robb, J. R. Cheeseman, G. Scalmani, V. Barone, 
 G. A. Petersson, H. Nakatsuji, X. Li, M. Caricato, A. V. Marenich, 
 J. Bloino, B. G. Janesko, R. Gomperts, B. Mennucci, H. P. Hratchian, 
 J. V. Ortiz, A. F. Izmaylov, J. L. Sonnenberg, D. Williams-Young, 
 F. Ding, F. Lipparini, F. Egidi, J. Goings, B. Peng, A. Petrone, 
 T. Henderson, D. Ranasinghe, V. G. Zakrzewski, J. Gao, N. Rega, 
 G. Zheng, W. Liang, M. Hada, M. Ehara, K. Toyota, R. Fukuda, 
 J. Hasegawa, M. Ishida, T. Nakajima, Y. Honda, O. Kitao, H. Nakai, 
 T. Vreven, K. Throssell, J. A. Montgomery, Jr., J. E. Peralta, 
 F. Ogliaro, M. J. Bearpark, J. J. Heyd, E. N. Brothers, K. N. Kudin, 
 V. N. Staroverov, T. A. Keith, R. Kobayashi, J. Normand, 
 K. Raghavachari, A. P. Rendell, J. C. Burant, S. S. Iyengar, 
 J. Tomasi, M. Cossi, J. M. Millam, M. Klene, C. Adamo, R. Cammi, 
 J. W. Ochterski, R. L. Martin, K. Morokuma, O. Farkas, 
 J. B. Foresman, and D. J. Fox, Gaussian, Inc., Wallingford CT, 2016.
 
 ******************************************
 Gaussian 16:  ES64L-G16RevA.03 25-Dec-2016
                17-Sep-2021 
 ******************************************
 %chk=geometry.chk
 %mem=2GB
 %nprocshared=1
 Will use up to    1 processors via shared memory.
 --------------------------------------------------------------------
 #p B3LYP/6-311+G** #p TD=(singlets,nstates=30)IOp(6/8=3) IOp(9/40=4)
 --------------------------------------------------------------------
 1/38=1,172=1/1;
 2/12=2,17=6,18=5,40=1/2;
 3/5=4,6=6,7=111,11=9,25=1,30=1,74=-5/1,2,3,8;
 4//1;
 5/5=2,38=5/2;
 8/6=1,10=2,108=30/1;
 9/40=4,41=30,42=1,48=1,70=2/14;
 6/7=2,8=3,9=2,10=2/1;
 99/5=1,9=1/99;
 Leave Link    1 at Fri Sep 17 10:52:17 2021, MaxMem=   268435456 cpu:               0.0 elap:               0.2
 (Enter /software/gaussian/g16-a03/l101.exe)
 -------------------------------
 Scan Step 154, Bond Length 1.27
 -------------------------------
 Symbolic Z-matrix:
 Charge =  0 Multiplicity = 1
 C                     0.        0.       -0.52736 
 H                     0.        0.93726  -1.11871 
 H                     0.       -0.93726  -1.11871 
 O                     0.        0.        0.74264 
 
 ITRead=  0  0  0  0
 MicOpt= -1 -1 -1 -1
 NAtoms=      4 NQM=        4 NQMF=       0 NMMI=      0 NMMIF=      0
                NMic=       0 NMicF=      0.
                    Isotopes and Nuclear Properties:
 (Nuclear quadrupole moments (NQMom) in fm**2, nuclear magnetic moments (NMagM)
  in nuclear magnetons)

  Atom         1           2           3           4
 IAtWgt=          12           1           1          16
 AtmWgt=  12.0000000   1.0078250   1.0078250  15.9949146
 NucSpn=           0           1           1           0
 AtZEff=  -0.0000000  -0.0000000  -0.0000000  -0.0000000
 NQMom=    0.0000000   0.0000000   0.0000000   0.0000000
 NMagM=    0.0000000   2.7928460   2.7928460   0.0000000
 AtZNuc=   6.0000000   1.0000000   1.0000000   8.0000000
 Leave Link  101 at Fri Sep 17 10:52:18 2021, MaxMem=   268435456 cpu:               0.1 elap:               0.1
 (Enter /software/gaussian/g16-a03/l202.exe)
                          Input orientation:                          
 ---------------------------------------------------------------------
 Center     Atomic      Atomic             Coordinates (Angstroms)
 Number     Number       Type             X           Y           Z
 ---------------------------------------------------------------------
      1          6           0        0.000000    0.000000   -0.527360
      2          1           0        0.000000    0.937260   -1.118710
      3          1           0        0.000000   -0.937260   -1.118710
      4          8           0        0.000000    0.000000    0.742640
 ---------------------------------------------------------------------
                    Distance matrix (angstroms):
                    1          2          3          4
     1  C    0.000000
     2  H    1.108220   0.000000
     3  H    1.108220   1.874520   0.000000
     4  O    1.270000   2.084006   2.084006   0.000000
 Stoichiometry    CH2O
 Framework group  C2V[C2(CO),SGV(H2)]
 Deg. of freedom     3
 Full point group                 C2V     NOp   4
 Largest Abelian subgroup         C2V     NOp   4
 Largest concise Abelian subgroup C2      NOp   2
                         Standard orientation:                         
 ---------------------------------------------------------------------
 Center     Atomic      Atomic             Coordinates (Angstroms)
 Number     Number       Type             X           Y           Z
 ---------------------------------------------------------------------
      1          6           0        0.000000    0.000000   -0.561081
      2          1           0        0.000000    0.937260   -1.152431
      3          1           0       -0.000000   -0.937260   -1.152431
      4          8           0        0.000000   -0.000000    0.708919
 ---------------------------------------------------------------------
 Rotational constants (GHZ):         285.4183527          35.2930267          31.4091679
 Leave Link  202 at Fri Sep 17 10:52:18 2021, MaxMem=   268435456 cpu:               0.0 elap:               0.0
 (Enter /software/gaussian/g16-a03/l301.exe)
 Standard basis: 6-311+G(d,p) (5D, 7F)
 Ernie: Thresh=  0.10000D-02 Tol=  0.10000D-05 Strict=F.
 There are    29 symmetry adapted cartesian basis functions of A1  symmetry.
 There are     3 symmetry adapted cartesian basis functions of A2  symmetry.
 There are    11 symmetry adapted cartesian basis functions of B1  symmetry.
 There are    15 symmetry adapted cartesian basis functions of B2  symmetry.
 There are    27 symmetry adapted basis functions of A1  symmetry.
 There are     3 symmetry adapted basis functions of A2  symmetry.
 There are    11 symmetry adapted basis functions of B1  symmetry.
 There are    15 symmetry adapted basis functions of B2  symmetry.
    56 basis functions,    88 primitive gaussians,    58 cartesian basis functions
     8 alpha electrons        8 beta electrons
       nuclear repulsion energy        30.0754926625 Hartrees.
 IExCor=  402 DFT=T Ex+Corr=B3LYP ExCW=0 ScaHFX=  0.200000
 ScaDFX=  0.800000  0.720000  1.000000  0.810000 ScalE2=  1.000000  1.000000
 IRadAn=      5 IRanWt=     -1 IRanGd=            0 ICorTp=0 IEmpDi=  4
 NAtoms=    4 NActive=    4 NUniq=    3 SFac= 1.78D+00 NAtFMM=   60 NAOKFM=F Big=F
 Integral buffers will be    131072 words long.
 Regular integral format.
 Two-electron integral symmetry is turned on.
 Leave Link  301 at Fri Sep 17 10:52:18 2021, MaxMem=   268435456 cpu:               0.1 elap:               0.1
 (Enter /software/gaussian/g16-a03/l302.exe)
 NPDir=0 NMtPBC=     1 NCelOv=     1 NCel=       1 NClECP=     1 NCelD=      1
         NCelK=      1 NCelE2=     1 NClLst=     1 CellRange=     0.0.
 One-electron integrals computed using PRISM.
 One-electron integral symmetry used in STVInt
 NBasis=    56 RedAO= T EigKep=  4.82D-03  NBF=    27     3    11    15
 NBsUse=    56 1.00D-06 EigRej= -1.00D+00 NBFU=    27     3    11    15
 Precomputing XC quadrature grid using
 IXCGrd= 4 IRadAn=           5 IRanWt=          -1 IRanGd=           0 AccXCQ= 0.00D+00.
 Generated NRdTot=       0 NPtTot=           0 NUsed=           0 NTot=          32
 NSgBfM=    58    58    58    58    58 MxSgAt=     4 MxSgA2=     4.
 Leave Link  302 at Fri Sep 17 10:52:18 2021, MaxMem=   268435456 cpu:               0.1 elap:               0.1
 (Enter /software/gaussian/g16-a03/l303.exe)
 DipDrv:  MaxL=1.
 Leave Link  303 at Fri Sep 17 10:52:18 2021, MaxMem=   268435456 cpu:               0.1 elap:               0.0
 (Enter /software/gaussian/g16-a03/l308.exe)
 Leave Link  308 at Fri Sep 17 10:52:18 2021, MaxMem=   268435456 cpu:               0.0 elap:               0.0
 (Enter /software/gaussian/g16-a03/l401.exe)
 ExpMin= 4.38D-02 ExpMax= 8.59D+03 ExpMxC= 1.30D+03 IAcc=3 IRadAn=         5 AccDes= 0.00D+00
 Harris functional with IExCor=  402 and IRadAn=       5 diagonalized for initial guess.
 HarFok:  IExCor=  402 AccDes= 0.00D+00 IRadAn=         5 IDoV= 1 UseB2=F ITyADJ=14
 ICtDFT=  3500011 ScaDFX=  1.000000  1.000000  1.000000  1.000000
 FoFCou: FMM=F IPFlag=           0 FMFlag=      100000 FMFlg1=           0
         NFxFlg=           0 DoJE=T BraDBF=F KetDBF=T FulRan=T
         wScrn=  0.000000 ICntrl=       500 IOpCl=  0 I1Cent=   200000004 NGrid=           0
         NMat0=    1 NMatS0=      1 NMatT0=    0 NMatD0=    1 NMtDS0=    0 NMtDT0=    0
 Petite list used in FoFCou.
 Harris En= -114.544734818105    
 JPrj=0 DoOrth=F DoCkMO=F.
 Initial guess orbital symmetries:
       Occupied  (A1) (A1) (A1) (A1) (B2) (A1) (B1) (B2)
       Virtual   (B1) (A1) (A1) (B2) (B1) (A1) (B2) (A1) (B1) (A1)
                 (B2) (A1) (A1) (B2) (B1) (A1) (B2) (A1) (A1) (A2)
                 (B1) (B2) (B1) (A1) (B2) (A1) (B2) (A1) (B1) (A2)
                 (A1) (B2) (A1) (B2) (B1) (A1) (A2) (A1) (A1) (B1)
                 (B2) (B2) (A1) (B1) (B2) (A1) (A1) (A1)
 The electronic state of the initial guess is 1-A1.
 Leave Link  401 at Fri Sep 17 10:52:19 2021, MaxMem=   268435456 cpu:               0.3 elap:               0.3
 (Enter /software/gaussian/g16-a03/l502.exe)
 Keep R1 ints in memory in symmetry-blocked form, NReq=2159909.
 FoFCou: FMM=F IPFlag=           0 FMFlag=           0 FMFlg1=           0
         NFxFlg=           0 DoJE=F BraDBF=F KetDBF=F FulRan=T
         wScrn=  0.000000 ICntrl=       600 IOpCl=  0 I1Cent=           0 NGrid=           0
         NMat0=    1 NMatS0=   1596 NMatT0=    0 NMatD0=    1 NMtDS0=    0 NMtDT0=    0
 Petite list used in FoFCou.
 Closed shell SCF:
 Using DIIS extrapolation, IDIIS=  1040.
 NGot=   268435456 LenX=   268074384 LenY=   268070579
 Requested convergence on RMS density matrix=1.00D-08 within 128 cycles.
 Requested convergence on MAX density matrix=1.00D-06.
 Requested convergence on             energy=1.00D-06.
 No special actions if energy rises.

 Cycle   1  Pass 1  IDiag  1:
 E= -114.481565403421    
 DIIS: error= 4.52D-02 at cycle   1 NSaved=   1.
 NSaved= 1 IEnMin= 1 EnMin= -114.481565403421     IErMin= 1 ErrMin= 4.52D-02
 ErrMax= 4.52D-02  0.00D+00 EMaxC= 1.00D-01 BMatC= 7.46D-02 BMatP= 7.46D-02
 IDIUse=3 WtCom= 5.48D-01 WtEn= 4.52D-01
 Coeff-Com:  0.100D+01
 Coeff-En:   0.100D+01
 Coeff:      0.100D+01
 Gap=     0.135 Goal=   None    Shift=    0.000
 GapD=    0.135 DampG=1.000 DampE=0.500 DampFc=0.5000 IDamp=-1.
 Damping current iteration by 5.00D-01
 RMSDP=1.05D-02 MaxDP=8.82D-02              OVMax= 3.29D-01

 Cycle   2  Pass 1  IDiag  1:
 E= -114.464250665433     Delta-E=        0.017314737988 Rises=F Damp=T
 DIIS: error= 3.77D-02 at cycle   2 NSaved=   2.
 NSaved= 2 IEnMin= 1 EnMin= -114.481565403421     IErMin= 2 ErrMin= 3.77D-02
 ErrMax= 3.77D-02  0.00D+00 EMaxC= 1.00D-01 BMatC= 3.56D-02 BMatP= 7.46D-02
 IDIUse=3 WtCom= 6.23D-01 WtEn= 3.77D-01
 Coeff-Com:  0.395D+00 0.605D+00
 Coeff-En:   0.587D+00 0.413D+00
 Coeff:      0.467D+00 0.533D+00
 Gap=     0.192 Goal=   None    Shift=    0.000
 RMSDP=2.19D-03 MaxDP=2.75D-02 DE= 1.73D-02 OVMax= 2.37D-01

 Cycle   3  Pass 1  IDiag  1:
 E= -114.533138321125     Delta-E=       -0.068887655692 Rises=F Damp=F
 DIIS: error= 8.53D-03 at cycle   3 NSaved=   3.
 NSaved= 3 IEnMin= 3 EnMin= -114.533138321125     IErMin= 3 ErrMin= 8.53D-03
 ErrMax= 8.53D-03  0.00D+00 EMaxC= 1.00D-01 BMatC= 2.50D-03 BMatP= 3.56D-02
 IDIUse=3 WtCom= 9.15D-01 WtEn= 8.53D-02
 Coeff-Com:  0.163D+00 0.159D+00 0.677D+00
 Coeff-En:   0.000D+00 0.000D+00 0.100D+01
 Coeff:      0.149D+00 0.146D+00 0.705D+00
 Gap=     0.202 Goal=   None    Shift=    0.000
 RMSDP=8.25D-04 MaxDP=1.70D-02 DE=-6.89D-02 OVMax= 1.73D-02

 Cycle   4  Pass 1  IDiag  1:
 E= -114.535082556401     Delta-E=       -0.001944235275 Rises=F Damp=F
 DIIS: error= 3.54D-03 at cycle   4 NSaved=   4.
 NSaved= 4 IEnMin= 4 EnMin= -114.535082556401     IErMin= 4 ErrMin= 3.54D-03
 ErrMax= 3.54D-03  0.00D+00 EMaxC= 1.00D-01 BMatC= 3.29D-04 BMatP= 2.50D-03
 IDIUse=3 WtCom= 9.65D-01 WtEn= 3.54D-02
 Coeff-Com:  0.250D-01-0.276D-02 0.296D+00 0.682D+00
 Coeff-En:   0.000D+00 0.000D+00 0.636D-02 0.994D+00
 Coeff:      0.241D-01-0.266D-02 0.285D+00 0.693D+00
 Gap=     0.204 Goal=   None    Shift=    0.000
 RMSDP=2.26D-04 MaxDP=5.21D-03 DE=-1.94D-03 OVMax= 5.85D-03

 Cycle   5  Pass 1  IDiag  1:
 E= -114.535389938350     Delta-E=       -0.000307381949 Rises=F Damp=F
 DIIS: error= 4.63D-04 at cycle   5 NSaved=   5.
 NSaved= 5 IEnMin= 5 EnMin= -114.535389938350     IErMin= 5 ErrMin= 4.63D-04
 ErrMax= 4.63D-04  0.00D+00 EMaxC= 1.00D-01 BMatC= 6.54D-06 BMatP= 3.29D-04
 IDIUse=3 WtCom= 9.95D-01 WtEn= 4.63D-03
 Coeff-Com:  0.393D-02-0.102D-01 0.539D-01 0.176D+00 0.776D+00
 Coeff-En:   0.000D+00 0.000D+00 0.000D+00 0.000D+00 0.100D+01
 Coeff:      0.391D-02-0.102D-01 0.536D-01 0.176D+00 0.777D+00
 Gap=     0.204 Goal=   None    Shift=    0.000
 RMSDP=3.09D-05 MaxDP=2.18D-04 DE=-3.07D-04 OVMax= 7.11D-04

 Cycle   6  Pass 1  IDiag  1:
 E= -114.535395445208     Delta-E=       -0.000005506858 Rises=F Damp=F
 DIIS: error= 6.41D-05 at cycle   6 NSaved=   6.
 NSaved= 6 IEnMin= 6 EnMin= -114.535395445208     IErMin= 6 ErrMin= 6.41D-05
 ErrMax= 6.41D-05  0.00D+00 EMaxC= 1.00D-01 BMatC= 1.13D-07 BMatP= 6.54D-06
 IDIUse=1 WtCom= 1.00D+00 WtEn= 0.00D+00
 Coeff-Com:  0.390D-03-0.109D-02-0.246D-03-0.369D-02-0.160D-01 0.102D+01
 Coeff:      0.390D-03-0.109D-02-0.246D-03-0.369D-02-0.160D-01 0.102D+01
 Gap=     0.204 Goal=   None    Shift=    0.000
 RMSDP=5.41D-06 MaxDP=4.94D-05 DE=-5.51D-06 OVMax= 9.96D-05

 Cycle   7  Pass 1  IDiag  1:
 E= -114.535395539488     Delta-E=       -0.000000094280 Rises=F Damp=F
 DIIS: error= 2.31D-06 at cycle   7 NSaved=   7.
 NSaved= 7 IEnMin= 7 EnMin= -114.535395539488     IErMin= 7 ErrMin= 2.31D-06
 ErrMax= 2.31D-06  0.00D+00 EMaxC= 1.00D-01 BMatC= 3.30D-10 BMatP= 1.13D-07
 IDIUse=1 WtCom= 1.00D+00 WtEn= 0.00D+00
 Coeff-Com:  0.215D-04-0.273D-04-0.145D-03-0.151D-02-0.859D-02 0.673D-01
 Coeff-Com:  0.943D+00
 Coeff:      0.215D-04-0.273D-04-0.145D-03-0.151D-02-0.859D-02 0.673D-01
 Coeff:      0.943D+00
 Gap=     0.204 Goal=   None    Shift=    0.000
 RMSDP=2.06D-07 MaxDP=3.77D-06 DE=-9.43D-08 OVMax= 5.19D-06

 Cycle   8  Pass 1  IDiag  1:
 E= -114.535395539720     Delta-E=       -0.000000000231 Rises=F Damp=F
 DIIS: error= 1.47D-06 at cycle   8 NSaved=   8.
 NSaved= 8 IEnMin= 8 EnMin= -114.535395539720     IErMin= 8 ErrMin= 1.47D-06
 ErrMax= 1.47D-06  0.00D+00 EMaxC= 1.00D-01 BMatC= 5.96D-11 BMatP= 3.30D-10
 IDIUse=1 WtCom= 1.00D+00 WtEn= 0.00D+00
 Coeff-Com:  0.529D-05-0.338D-05 0.145D-04-0.921D-04-0.201D-03-0.164D-01
 Coeff-Com:  0.622D-01 0.954D+00
 Coeff:      0.529D-05-0.338D-05 0.145D-04-0.921D-04-0.201D-03-0.164D-01
 Coeff:      0.622D-01 0.954D+00
 Gap=     0.204 Goal=   None    Shift=    0.000
 RMSDP=1.19D-07 MaxDP=9.58D-07 DE=-2.31D-10 OVMax= 2.39D-06

 Cycle   9  Pass 1  IDiag  1:
 E= -114.535395539770     Delta-E=       -0.000000000050 Rises=F Damp=F
 DIIS: error= 6.72D-08 at cycle   9 NSaved=   9.
 NSaved= 9 IEnMin= 9 EnMin= -114.535395539770     IErMin= 9 ErrMin= 6.72D-08
 ErrMax= 6.72D-08  0.00D+00 EMaxC= 1.00D-01 BMatC= 2.17D-13 BMatP= 5.96D-11
 IDIUse=1 WtCom= 1.00D+00 WtEn= 0.00D+00
 Coeff-Com:  0.882D-06-0.869D-06 0.303D-05 0.167D-06 0.797D-04-0.281D-02
 Coeff-Com: -0.237D-02 0.102D+00 0.903D+00
 Coeff:      0.882D-06-0.869D-06 0.303D-05 0.167D-06 0.797D-04-0.281D-02
 Coeff:     -0.237D-02 0.102D+00 0.903D+00
 Gap=     0.204 Goal=   None    Shift=    0.000
 RMSDP=4.06D-09 MaxDP=6.42D-08 DE=-5.00D-11 OVMax= 9.25D-08

 SCF Done:  E(RB3LYP) =  -114.535395540     A.U. after    9 cycles
            NFock=  9  Conv=0.41D-08     -V/T= 2.0056
 KE= 1.139018348595D+02 PE=-3.290431703963D+02 EE= 7.053044733454D+01
 Leave Link  502 at Fri Sep 17 10:52:21 2021, MaxMem=   268435456 cpu:               1.6 elap:               2.1
 (Enter /software/gaussian/g16-a03/l801.exe)
 DoSCS=F DFT=T ScalE2(SS,OS)=  1.000000  1.000000
 ExpMin= 4.38D-02 ExpMax= 8.59D+03 ExpMxC= 1.30D+03 IAcc=3 IRadAn=         5 AccDes= 0.00D+00
 HarFok:  IExCor=  205 AccDes= 0.00D+00 IRadAn=         5 IDoV=-2 UseB2=F ITyADJ=14
 ICtDFT= 12500011 ScaDFX=  1.000000  1.000000  1.000000  1.000000
 Largest valence mixing into a core orbital is  4.85D-05
 Largest core mixing into a valence orbital is  1.03D-05
 Range of M.O.s used for correlation:     3    56
 NBasis=    56 NAE=     8 NBE=     8 NFC=     2 NFV=     0
 NROrb=     54 NOA=     6 NOB=     6 NVA=    48 NVB=    48
 Leave Link  801 at Fri Sep 17 10:52:21 2021, MaxMem=   268435456 cpu:               0.2 elap:               0.2
 (Enter /software/gaussian/g16-a03/l914.exe)
 RHF ground state
 Keep R1, R2, and R3 ints in memory in symmetry-blocked form, NReq=6042848.
 FoFCou: FMM=F IPFlag=           0 FMFlag=           0 FMFlg1=           0
         NFxFlg=           0 DoJE=F BraDBF=F KetDBF=F FulRan=T
         wScrn=  0.000000 ICntrl=       600 IOpCl=  0 I1Cent=           0 NGrid=           0
         NMat0=    1 NMatS0=   1596 NMatT0=    0 NMatD0=    1 NMtDS0=    0 NMtDT0=    0
 Petite list used in FoFCou.
 MDV=   268435456 DFT=T DoStab=F Mixed=T DoRPA=T DoScal=F NonHer=T
 Making orbital integer symmetry assigments:
 Orbital symmetries:
       Occupied  (A1) (A1) (A1) (A1) (B2) (A1) (B1) (B2)
       Virtual   (B1) (A1) (A1) (B2) (B1) (A1) (B2) (A1) (B1) (B2)
                 (A1) (A1) (A1) (B2) (B1) (A1) (B2) (A1) (A2) (A1)
                 (B1) (B2) (B1) (A1) (B2) (A1) (B2) (A1) (B1) (A2)
                 (A1) (B2) (A1) (B2) (A1) (B1) (A2) (A1) (A1) (B1)
                 (B2) (B2) (A1) (B1) (B2) (A1) (A1) (A1)
   120 initial guesses have been made.
 Convergence on wavefunction:    0.001000000000000
 Davidson Disk Diagonalization:  ConvIn= 1.00D-03 SkipCon=T Conv= 1.00D-03.
 Max sub-space:  1728 roots to seek:   120 dimension of matrix:          576
 Iteration     1 Dimension   120 NMult     0 NNew    120
 CISAX will form   120 AO SS matrices at one time.
 NMat=   120 NSing=   120 JSym2X=-1.
 New state      3 was old state      4
 New state      4 was old state      5
 New state      5 was old state      7
 New state      7 was old state      3
 New state      8 was old state     10
 New state      9 was old state      8
 New state     10 was old state      9
 New state     13 was old state     16
 New state     16 was old state     13
 New state     17 was old state     20
 New state     18 was old state     17
 New state     19 was old state     18
 New state     20 was old state     19
 New state     21 was old state     23
 New state     23 was old state     21
 New state     24 was old state     26
 New state     25 was old state     24
 New state     26 was old state     25
 New state     27 was old state     28
 New state     28 was old state     27
 New state     29 was old state     30
 New state     30 was old state     31
 Excitation Energies [eV] at current iteration:
 Root      1 :     3.577670013438252
 Root      2 :     6.924578973079837
 Root      3 :     7.688859359651226
 Root      4 :     7.933456898502743
 Root      5 :     8.399339094174268
 Root      6 :     8.450598986589203
 Root      7 :     8.694300153638196
 Root      8 :     9.436809407457416
 Root      9 :     9.842268577526568
 Root     10 :    10.315246996102600
 Root     11 :    10.691670388819790
 Root     12 :    10.830563438062380
 Root     13 :    11.505592275392470
 Root     14 :    11.514223252263360
 Root     15 :    11.573327526978830
 Root     16 :    12.171403173985530
 Root     17 :    12.345737345932790
 Root     18 :    12.425959180033380
 Root     19 :    12.581270020443480
 Root     20 :    12.637670005929580
 Root     21 :    12.973584650826270
 Root     22 :    13.081833354127280
 Root     23 :    13.109188340501920
 Root     24 :    13.384693335270270
 Root     25 :    13.570566282458320
 Root     26 :    13.957098058087990
 Root     27 :    13.987845789517240
 Root     28 :    14.169098047738900
 Root     29 :    14.437662148619180
 Root     30 :    14.761279894845500
 Root     31 :    14.896180754256370
 Root     32 :    15.328402286771020
 Root     33 :    15.611761175226020
 Root     34 :    15.752103408877270
 Root     35 :    15.803591850053470
 Root     36 :    16.183768515690880
 Root     37 :    16.408668126215560
 Root     38 :    16.619791950696650
 Root     39 :    16.966651032375730
 Root     40 :    16.995565849878180
 Root     41 :    17.450222039295170
 Root     42 :    17.506186209261300
 Root     43 :    17.646424168932080
 Root     44 :    17.831746321772480
 Root     45 :    17.868998769076410
 Root     46 :    18.017027194957540
 Root     47 :    18.210323941789870
 Root     48 :    18.382649564724060
 Root     49 :    18.577738956042750
 Root     50 :    18.587857406118590
 Root     51 :    19.123940205021280
 Root     52 :    19.211831497882850
 Root     53 :    19.425849421232240
 Root     54 :    20.064404648832500
 Root     55 :    20.513201116531900
 Root     56 :    20.848018784162170
 Root     57 :    21.109748659741590
 Root     58 :    21.317537030156380
 Root     59 :    21.427679767586330
 Root     60 :    21.486994883576190
 Root     61 :    21.946351542422280
 Root     62 :    22.262785198833030
 Root     63 :    22.729871325578610
 Root     64 :    22.901952245991780
 Root     65 :    23.160973187339940
 Root     66 :    23.417722646780910
 Root     67 :    23.510408916230050
 Root     68 :    23.790843139753470
 Root     69 :    24.104948681706300
 Root     70 :    24.648603938632370
 Root     71 :    24.689422972697470
 Root     72 :    24.739052596022820
 Root     73 :    25.103639151884830
 Root     74 :    25.160559262961440
 Root     75 :    25.512480626070230
 Root     76 :    25.631530112757630
 Root     77 :    25.713184276970790
 Root     78 :    27.253939617075870
 Root     79 :    27.451552646874870
 Root     80 :    27.514982341981980
 Root     81 :    27.599522444901790
 Root     82 :    27.801711206024760
 Root     83 :    28.489868144652590
 Root     84 :    28.524560549291800
 Root     85 :    28.736168901454510
 Root     86 :    29.068010540472340
 Root     87 :    29.349549471698600
 Root     88 :    29.993319180234040
 Root     89 :    30.009093924643470
 Root     90 :    30.206302052354080
 Root     91 :    30.648342266078000
 Root     92 :    31.848606108438770
 Root     93 :    32.181818033177130
 Root     94 :    32.663573793386180
 Root     95 :    32.952825823615290
 Root     96 :    33.118356792788230
 Root     97 :    33.153609608455410
 Root     98 :    33.302648186296610
 Root     99 :    33.497265299522160
 Root    100 :    33.605854969303330
 Root    101 :    33.675509449170790
 Root    102 :    33.923677428376600
 Root    103 :    34.516981863946750
 Root    104 :    35.672800961294290
 Root    105 :    36.046964908985690
 Root    106 :    36.278017417571090
 Root    107 :    36.745626816787080
 Root    108 :    37.619834267450520
 Root    109 :    37.800250171486130
 Root    110 :    38.104102431918190
 Root    111 :    38.319648868930060
 Root    112 :    38.567493468965610
 Root    113 :    39.216857196742950
 Root    114 :    39.236728060051040
 Root    115 :    39.695783007284040
 Root    116 :    39.707216084451370
 Root    117 :    39.901959102926990
 Root    118 :    40.286383285146020
 Root    119 :    40.378047606419200
 Root    120 :    45.088576959984220
 Iteration     2 Dimension   180 NMult   120 NNew     60
 CISAX will form    60 AO SS matrices at one time.
 NMat=    60 NSing=    60 JSym2X=-1.
 Root      1 not converged, maximum delta is    0.005423392203385
 Root      2 not converged, maximum delta is    0.001969003754265
 Root      3 not converged, maximum delta is    0.004156886191417
 Root      4 not converged, maximum delta is    0.006916029386839
 Root      5 not converged, maximum delta is    0.012736922584193
 Root      6 not converged, maximum delta is    0.001232355443585
 Root      7 not converged, maximum delta is    0.018017237495632
 Root      8 not converged, maximum delta is    0.010364441890984
 Root      9 not converged, maximum delta is    0.001986828666197
 Root     10 not converged, maximum delta is    0.003467576076963
 Root     11 not converged, maximum delta is    0.004974281683160
 Root     12 not converged, maximum delta is    0.001842790746611
 Root     13 not converged, maximum delta is    0.002010927240236
 Root     14 not converged, maximum delta is    0.021611068124939
 Root     15 not converged, maximum delta is    0.026040626909703
 Root     16 not converged, maximum delta is    0.021409883217567
 Root     17 not converged, maximum delta is    0.001661377712112
 Root     18 not converged, maximum delta is    0.017120611605662
 Root     19 not converged, maximum delta is    0.017980161975063
 Root     20 not converged, maximum delta is    0.018534702827264
 Root     21 not converged, maximum delta is    0.003681037272293
 Root     22 not converged, maximum delta is    0.009110902538708
 Root     23 not converged, maximum delta is    0.003860403847433
 Root     24 not converged, maximum delta is    0.013921655442195
 Root     25 not converged, maximum delta is    0.013384145430133
 Root     26 not converged, maximum delta is    0.009411927898385
 Root     27 not converged, maximum delta is    0.004245766864278
 Root     28 not converged, maximum delta is    0.003630198213552
 Root     29 not converged, maximum delta is    0.025504381253432
 Root     30 not converged, maximum delta is    0.005591617722445
 Excitation Energies [eV] at current iteration:
 Root      1 :     3.565843908325780   Change is   -0.011826105112472
 Root      2 :     6.922916133798716   Change is   -0.001662839281122
 Root      3 :     7.680088459168913   Change is   -0.008770900482312
 Root      4 :     7.931005126330029   Change is   -0.002451772172714
 Root      5 :     8.337041040120081   Change is   -0.062298054054187
 Root      6 :     8.450232020908667   Change is   -0.000366965680537
 Root      7 :     8.625524871772770   Change is   -0.068775281865425
 Root      8 :     9.423301445049047   Change is   -0.013507962408368
 Root      9 :     9.841300241072920   Change is   -0.000968336453647
 Root     10 :    10.306235292541460   Change is   -0.009011703561146
 Root     11 :    10.685092368760820   Change is   -0.006578020058971
 Root     12 :    10.830002525327670   Change is   -0.000560912734712
 Root     13 :    11.503221103595620   Change is   -0.002371171796849
 Root     14 :    11.505498977074270   Change is   -0.008724275189090
 Root     15 :    11.561920698274230   Change is   -0.011406828704602
 Root     16 :    12.142183062045920   Change is   -0.029220111939614
 Root     17 :    12.344879820214350   Change is   -0.000857525718441
 Root     18 :    12.414918768092850   Change is   -0.011040411940524
 Root     19 :    12.578087188046470   Change is   -0.003182832397011
 Root     20 :    12.632062876906140   Change is   -0.005607129023434
 Root     21 :    12.969733851421870   Change is   -0.003850799404405
 Root     22 :    13.063748099987050   Change is   -0.018085254140231
 Root     23 :    13.107209164020550   Change is   -0.001979176481366
 Root     24 :    13.349895046211710   Change is   -0.034798289058553
 Root     25 :    13.562742163931130   Change is   -0.007824118527189
 Root     26 :    13.943686980290320   Change is   -0.013411077797670
 Root     27 :    13.985394414307080   Change is   -0.002451375210157
 Root     28 :    14.168301123162580   Change is   -0.000796924576321
 Root     29 :    14.430543037934920   Change is   -0.007119110684259
 Root     30 :    14.754152288749150   Change is   -0.007127606096353
 Iteration     3 Dimension   236 NMult   180 NNew     56
 CISAX will form    56 AO SS matrices at one time.
 NMat=    56 NSing=    56 JSym2X=-1.
 Root      1 has converged.
 Root      2 has converged.
 Root      3 has converged.
 Root      4 has converged.
 Root      5 has converged.
 Root      6 has converged.
 Root      7 has converged.
 Root      8 has converged.
 Root      9 has converged.
 Root     10 has converged.
 Root     11 has converged.
 Root     12 has converged.
 Root     13 has converged.
 Root     14 has converged.
 Root     15 has converged.
 Root     16 has converged.
 Root     17 has converged.
 Root     18 has converged.
 Root     19 has converged.
 Root     20 has converged.
 Root     21 has converged.
 Root     22 has converged.
 Root     23 has converged.
 Root     24 has converged.
 Root     25 has converged.
 Root     26 has converged.
 Root     27 has converged.
 Root     28 has converged.
 Root     29 has converged.
 Root     30 has converged.
 Excitation Energies [eV] at current iteration:
 Root      1 :     3.565842730811690   Change is   -0.000001177514090
 Root      2 :     6.922915009697069   Change is   -0.000001124101647
 Root      3 :     7.680082933967057   Change is   -0.000005525201856
 Root      4 :     7.931002890324532   Change is   -0.000002236005497
 Root      5 :     8.336944275522573   Change is   -0.000096764597509
 Root      6 :     8.450231982653918   Change is   -0.000000038254748
 Root      7 :     8.625437549562788   Change is   -0.000087322209983
 Root      8 :     9.423291603213354   Change is   -0.000009841835694
 Root      9 :     9.841299412601737   Change is   -0.000000828471184
 Root     10 :    10.306228556776400   Change is   -0.000006735765061
 Root     11 :    10.685082862053510   Change is   -0.000009506707303
 Root     12 :    10.830002238287970   Change is   -0.000000287039700
 Root     13 :    11.503217681900920   Change is   -0.000003421694698
 Root     14 :    11.505478437237330   Change is   -0.000020539836946
 Root     15 :    11.561893087936100   Change is   -0.000027610338130
 Root     16 :    12.142107058141660   Change is   -0.000076003904257
 Root     17 :    12.344879178519170   Change is   -0.000000641695185
 Root     18 :    12.414883917492730   Change is   -0.000034850600121
 Root     19 :    12.578082651430150   Change is   -0.000004536616314
 Root     20 :    12.632049930353000   Change is   -0.000012946553139
 Root     21 :    12.969727545268110   Change is   -0.000006306153753
 Root     22 :    13.063687918214030   Change is   -0.000060181773020
 Root     23 :    13.107205581489740   Change is   -0.000003582530809
 Root     24 :    13.349838795139590   Change is   -0.000056251072120
 Root     25 :    13.562734224124940   Change is   -0.000007939806195
 Root     26 :    13.943659492290420   Change is   -0.000027487999899
 Root     27 :    13.985389824647710   Change is   -0.000004589659378
 Root     28 :    14.168299699623970   Change is   -0.000001423538615
 Root     29 :    14.430530452225200   Change is   -0.000012585709719
 Root     30 :    14.754135388635600   Change is   -0.000016900113550
 Convergence achieved on expansion vectors.
 ***********************************************************************
 Excited states from <AA,BB:AA,BB> singles matrix:
 ***********************************************************************
 
 1PDM for each excited state written to RWF  633
 Ground to excited state transition densities written to RWF  633
 Ground to excited state transition electric dipole moments (Au):
       state          X           Y           Z        Dip. S.      Osc.
         1         0.0000     -0.0000      0.0000      0.0000      0.0000
         2         0.0000      0.3645      0.0000      0.1328      0.0225
         3         0.0000      0.3816      0.0000      0.1456      0.0274
         4        -0.0000      0.0000     -0.4535      0.2057      0.0400
         5         0.0761      0.0000     -0.0000      0.0058      0.0012
         6        -0.0000      0.0000     -0.0000      0.0000      0.0000
         7         0.0000      0.0000      0.8405      0.7064      0.1493
         8        -0.0000     -0.0000     -0.0000      0.0000      0.0000
         9        -0.4096     -0.0000      0.0000      0.1678      0.0404
        10        -0.0000      0.5804      0.0000      0.3368      0.0851
        11         0.4446     -0.0000      0.0000      0.1977      0.0517
        12        -0.0000     -0.0000     -0.0000      0.0000      0.0000
        13        -0.0000     -0.0503     -0.0000      0.0025      0.0007
        14         0.0000      0.0000     -0.1355      0.0184      0.0052
        15         0.0000     -0.0000     -0.2072      0.0429      0.0122
        16         0.0000     -0.0000     -0.5887      0.3466      0.1031
        17        -0.0000      0.0000      0.0000      0.0000      0.0000
        18         0.0000     -0.0000      0.9887      0.9776      0.2973
        19         0.0000     -0.3813     -0.0000      0.1454      0.0448
        20        -0.0000     -0.5857     -0.0000      0.3430      0.1062
        21         0.2524     -0.0000      0.0000      0.0637      0.0202
        22         0.0000     -0.0000     -0.4925      0.2425      0.0776
        23        -0.2081     -0.0000     -0.0000      0.0433      0.0139
        24        -0.0000     -0.1543     -0.0000      0.0238      0.0078
        25        -0.0000      0.3096     -0.0000      0.0959      0.0319
        26        -0.0000      0.0000      0.0903      0.0082      0.0028
        27         0.0000     -0.0000     -0.0000      0.0000      0.0000
        28        -0.0000      0.0000      0.0000      0.0000      0.0000
        29        -0.0208      0.0000      0.0000      0.0004      0.0002
        30        -0.0000      0.0000      0.2713      0.0736      0.0266
 Ground to excited state transition velocity dipole moments (Au):
       state          X           Y           Z        Dip. S.      Osc.
         1        -0.0000      0.0000     -0.0000      0.0000      0.0000
         2        -0.0000     -0.0944     -0.0000      0.0089      0.0233
         3        -0.0000     -0.1123      0.0000      0.0126      0.0298
         4         0.0000      0.0000      0.1295      0.0168      0.0383
         5        -0.0367     -0.0000      0.0000      0.0013      0.0029
         6        -0.0000     -0.0000      0.0000      0.0000      0.0000
         7         0.0000     -0.0000     -0.2550      0.0650      0.1367
         8         0.0000     -0.0000      0.0000      0.0000      0.0000
         9         0.1520      0.0000     -0.0000      0.0231      0.0426
        10         0.0000     -0.2190     -0.0000      0.0480      0.0844
        11        -0.1827      0.0000     -0.0000      0.0334      0.0567
        12         0.0000      0.0000      0.0000      0.0000      0.0000
        13         0.0000     -0.0010      0.0000      0.0000      0.0000
        14        -0.0000     -0.0000      0.0622      0.0039      0.0061
        15        -0.0000      0.0000      0.0898      0.0081      0.0127
        16        -0.0000      0.0000      0.2549      0.0650      0.0971
        17         0.0000      0.0000     -0.0000      0.0000      0.0000
        18        -0.0000      0.0000     -0.4586      0.2103      0.3073
        19        -0.0000      0.1738      0.0000      0.0302      0.0436
        20         0.0000      0.2691      0.0000      0.0724      0.1040
        21        -0.0991     -0.0000     -0.0000      0.0098      0.0137
        22        -0.0000      0.0000      0.2283      0.0521      0.0724
        23         0.0956      0.0000      0.0000      0.0091      0.0126
        24         0.0000      0.0792      0.0000      0.0063      0.0085
        25        -0.0000     -0.1558      0.0000      0.0243      0.0325
        26        -0.0000     -0.0000     -0.0392      0.0015      0.0020
        27        -0.0000      0.0000      0.0000      0.0000      0.0000
        28         0.0000     -0.0000     -0.0000      0.0000      0.0000
        29         0.0174     -0.0000     -0.0000      0.0003      0.0004
        30         0.0000     -0.0000     -0.1459      0.0213      0.0262
 Ground to excited state transition magnetic dipole moments (Au):
       state          X           Y           Z
         1         0.0000     -0.0000      1.1908
         2        -0.4143      0.0000      0.0000
         3         0.6689      0.0000      0.0000
         4        -0.0000      0.0000     -0.0000
         5        -0.0000     -1.5867     -0.0000
         6         0.0000     -0.0000     -0.0358
         7         0.0000      0.0000      0.0000
         8        -0.0000     -0.0000     -0.7316
         9         0.0000     -0.0033      0.0000
        10        -0.7919      0.0000      0.0000
        11         0.0000      0.0891     -0.0000
        12        -0.0000     -0.0000      0.0372
        13         0.5103      0.0000     -0.0000
        14         0.0000     -0.0000      0.0000
        15         0.0000      0.0000      0.0000
        16        -0.0000     -0.0000      0.0000
        17        -0.0000      0.0000     -0.0130
        18         0.0000      0.0000     -0.0000
        19        -0.1939     -0.0000      0.0000
        20         0.3572     -0.0000     -0.0000
        21        -0.0000     -0.1405      0.0000
        22         0.0000     -0.0000      0.0000
        23        -0.0000      0.3034     -0.0000
        24        -0.5736     -0.0000      0.0000
        25        -0.5445      0.0000     -0.0000
        26         0.0000      0.0000      0.0000
        27        -0.0000      0.0000     -0.0162
        28         0.0000      0.0000      0.0353
        29        -0.0000     -0.1662      0.0000
        30        -0.0000      0.0000      0.0000
 Ground to excited state transition velocity quadrupole moments (Au):
       state          XX          YY          ZZ          XY          XZ          YZ
         1         0.0000      0.0000      0.0000     -0.0822     -0.0000      0.0000
         2         0.0000      0.0000      0.0000     -0.0000      0.0000      0.4727
         3        -0.0000      0.0000     -0.0000     -0.0000      0.0000     -0.0256
         4        -0.0331     -0.2811     -0.2661      0.0000      0.0000      0.0000
         5        -0.0000      0.0000      0.0000      0.0000     -0.3169     -0.0000
         6         0.0000      0.0000      0.0000     -0.0584     -0.0000     -0.0000
         7         0.2244     -0.0223     -0.1919     -0.0000      0.0000     -0.0000
         8         0.0000      0.0000      0.0000      0.2122      0.0000      0.0000
         9        -0.0000     -0.0000     -0.0000      0.0000     -0.1306     -0.0000
        10        -0.0000     -0.0000      0.0000     -0.0000     -0.0000      0.4959
        11        -0.0000     -0.0000     -0.0000      0.0000     -0.2864     -0.0000
        12         0.0000      0.0000     -0.0000      0.2811      0.0000     -0.0000
        13         0.0000      0.0000     -0.0000      0.0000     -0.0000      0.3367
        14         0.5313      0.0400     -0.0996     -0.0000     -0.0000     -0.0000
        15         0.5021     -0.1418      0.0907     -0.0000     -0.0000      0.0000
        16        -0.2863     -0.7186     -0.6856     -0.0000     -0.0000      0.0000
        17        -0.0000     -0.0000      0.0000      0.3427      0.0000     -0.0000
        18        -0.0691      0.2418      0.3432     -0.0000      0.0000     -0.0000
        19         0.0000     -0.0000     -0.0000     -0.0000     -0.0000     -0.2304
        20         0.0000      0.0000     -0.0000      0.0000     -0.0000     -0.6477
        21        -0.0000     -0.0000     -0.0000      0.0000      0.0517      0.0000
        22         0.1921      0.5150      0.2489     -0.0000     -0.0000     -0.0000
        23         0.0000      0.0000      0.0000      0.0000     -0.0007      0.0000
        24         0.0000      0.0000      0.0000      0.0000     -0.0000      0.1795
        25         0.0000      0.0000      0.0000     -0.0000     -0.0000     -0.2805
        26         0.3309      1.0689      0.2557     -0.0000      0.0000      0.0000
        27         0.0000     -0.0000     -0.0000     -0.2626      0.0000      0.0000
        28        -0.0000      0.0000      0.0000      0.3025     -0.0000      0.0000
        29        -0.0000     -0.0000     -0.0000      0.0000      0.0112     -0.0000
        30        -0.1809      0.4560     -0.1476      0.0000      0.0000      0.0000
 <0|del|b> * <b|rxdel|0> + <0|del|b> * <b|delr+rdel|0>
 Rotatory Strengths (R) in cgs (10**-40 erg-esu-cm/Gauss)
       state          XX          YY          ZZ    R(velocity)    E-M Angle
         1        -0.0000     -0.0000     -0.0000     -0.0000       90.00
         2         0.0000     -0.0000     -0.0000      0.0000       90.00
         3        -0.0000     -0.0000     -0.0000     -0.0000       90.00
         4         0.0000     -0.0000     -0.0000     -0.0000       90.00
         5         0.0000      0.0000      0.0000      0.0000       90.00
         6        -0.0000      0.0000     -0.0000     -0.0000       90.00
         7         0.0000     -0.0000     -0.0000     -0.0000       90.00
         8        -0.0000     -0.0000     -0.0000     -0.0000       90.00
         9         0.0000      0.0000      0.0000      0.0000       90.00
        10        -0.0000     -0.0000     -0.0000     -0.0000       90.00
        11         0.0000      0.0000     -0.0000     -0.0000       90.00
        12         0.0000     -0.0000     -0.0000      0.0000       90.00
        13        -0.0000      0.0000      0.0000      0.0000       90.00
        14        -0.0000      0.0000      0.0000      0.0000       90.00
        15         0.0000      0.0000      0.0000      0.0000       90.00
        16        -0.0000      0.0000      0.0000      0.0000       90.00
        17        -0.0000      0.0000      0.0000      0.0000       90.00
        18         0.0000      0.0000      0.0000      0.0000       90.00
        19        -0.0000      0.0000     -0.0000     -0.0000       90.00
        20         0.0000     -0.0000      0.0000      0.0000       90.00
        21         0.0000      0.0000      0.0000      0.0000       90.00
        22        -0.0000      0.0000     -0.0000      0.0000       90.00
        23         0.0000     -0.0000     -0.0000     -0.0000       90.00
        24        -0.0000     -0.0000     -0.0000     -0.0000       90.00
        25        -0.0000      0.0000     -0.0000     -0.0000       90.00
        26         0.0000     -0.0000     -0.0000     -0.0000       90.00
        27        -0.0000      0.0000      0.0000     -0.0000       90.00
        28        -0.0000      0.0000     -0.0000     -0.0000       90.00
        29         0.0000     -0.0000      0.0000      0.0000       90.00
        30        -0.0000      0.0000     -0.0000     -0.0000       90.00
 1/2[<0|r|b>*<b|rxdel|0> + (<0|rxdel|b>*<b|r|0>)*]
 Rotatory Strengths (R) in cgs (10**-40 erg-esu-cm/Gauss)
       state          XX          YY          ZZ     R(length)
         1        -0.0000     -0.0000     -0.0000     -0.0000
         2         0.0000     -0.0000     -0.0000     -0.0000
         3        -0.0000     -0.0000     -0.0000     -0.0000
         4        -0.0000     -0.0000     -0.0000     -0.0000
         5         0.0000      0.0000     -0.0000      0.0000
         6         0.0000      0.0000     -0.0000     -0.0000
         7        -0.0000     -0.0000     -0.0000     -0.0000
         8        -0.0000     -0.0000     -0.0000     -0.0000
         9         0.0000     -0.0000     -0.0000      0.0000
        10        -0.0000     -0.0000     -0.0000     -0.0000
        11        -0.0000      0.0000      0.0000     -0.0000
        12        -0.0000     -0.0000      0.0000      0.0000
        13         0.0000      0.0000     -0.0000      0.0000
        14        -0.0000      0.0000      0.0000      0.0000
        15        -0.0000      0.0000      0.0000      0.0000
        16         0.0000     -0.0000      0.0000      0.0000
        17        -0.0000     -0.0000      0.0000      0.0000
        18        -0.0000      0.0000      0.0000      0.0000
        19         0.0000     -0.0000      0.0000     -0.0000
        20         0.0000     -0.0000     -0.0000      0.0000
        21         0.0000     -0.0000     -0.0000      0.0000
        22        -0.0000     -0.0000      0.0000      0.0000
        23        -0.0000      0.0000     -0.0000     -0.0000
        24        -0.0000     -0.0000      0.0000     -0.0000
        25        -0.0000     -0.0000     -0.0000     -0.0000
        26         0.0000     -0.0000     -0.0000     -0.0000
        27         0.0000      0.0000     -0.0000     -0.0000
        28         0.0000     -0.0000     -0.0000     -0.0000
        29        -0.0000      0.0000     -0.0000      0.0000
        30        -0.0000     -0.0000     -0.0000     -0.0000
  1/2[<0|del|b>*<b|r|0> + (<0|r|b>*<b|del|0>)*] (Au)
       state          X           Y           Z        Dip. S.   Osc.(frdel)
         1        -0.0000     -0.0000     -0.0000      0.0000      0.0000
         2        -0.0000     -0.0344     -0.0000      0.0344      0.0229
         3        -0.0000     -0.0429      0.0000      0.0429      0.0286
         4        -0.0000      0.0000     -0.0587      0.0587      0.0391
         5        -0.0028     -0.0000     -0.0000      0.0028      0.0019
         6         0.0000     -0.0000     -0.0000     -0.0000     -0.0000
         7         0.0000     -0.0000     -0.2143      0.2143      0.1429
         8        -0.0000      0.0000     -0.0000      0.0000      0.0000
         9        -0.0623     -0.0000     -0.0000      0.0623      0.0415
        10        -0.0000     -0.1271     -0.0000      0.1271      0.0847
        11        -0.0812     -0.0000     -0.0000      0.0812      0.0541
        12        -0.0000     -0.0000     -0.0000      0.0000      0.0000
        13        -0.0000      0.0001     -0.0000     -0.0001     -0.0000
        14        -0.0000     -0.0000     -0.0084      0.0084      0.0056
        15        -0.0000     -0.0000     -0.0186      0.0186      0.0124
        16        -0.0000     -0.0000     -0.1501      0.1501      0.1000
        17        -0.0000      0.0000     -0.0000     -0.0000     -0.0000
        18        -0.0000     -0.0000     -0.4534      0.4534      0.3023
        19        -0.0000     -0.0663     -0.0000      0.0663      0.0442
        20        -0.0000     -0.1576     -0.0000      0.1576      0.1051
        21        -0.0250      0.0000     -0.0000      0.0250      0.0167
        22        -0.0000     -0.0000     -0.1124      0.1124      0.0749
        23        -0.0199     -0.0000     -0.0000      0.0199      0.0133
        24        -0.0000     -0.0122     -0.0000      0.0122      0.0081
        25         0.0000     -0.0482     -0.0000      0.0482      0.0322
        26         0.0000     -0.0000     -0.0035      0.0035      0.0024
        27        -0.0000     -0.0000     -0.0000      0.0000      0.0000
        28        -0.0000     -0.0000     -0.0000      0.0000      0.0000
        29        -0.0004     -0.0000     -0.0000      0.0004      0.0002
        30        -0.0000     -0.0000     -0.0396      0.0396      0.0264

 Excitation energies and oscillator strengths:
 
 Excited State   1:      Singlet-A2     3.5658 eV  347.70 nm  f=0.0000  <S**2>=0.000
       3 -> 27         0.00226
       3 -> 38         0.00190
       3 -> 45         0.00267
       4 -> 27         0.00166
       4 -> 38        -0.00048
       4 -> 45        -0.00136
       5 ->  9         0.01980
       5 -> 13        -0.00201
       5 -> 17         0.00528
       5 -> 23         0.00036
       5 -> 29         0.00434
       5 -> 31        -0.00181
       5 -> 37         0.00309
       5 -> 44         0.00058
       5 -> 48         0.00014
       5 -> 52         0.00071
       6 -> 27        -0.00026
       6 -> 38        -0.00087
       6 -> 45         0.00177
       7 -> 12        -0.00062
       7 -> 15         0.00318
       7 -> 18        -0.00301
       7 -> 22         0.00043
       7 -> 25         0.00141
       7 -> 30        -0.00100
       7 -> 33         0.00045
       7 -> 35         0.00020
       7 -> 40         0.00019
       7 -> 42        -0.00011
       7 -> 49         0.00027
       7 -> 50         0.00032
       7 -> 53         0.00047
       8 ->  9         0.70601
       8 -> 13        -0.03572
       8 -> 17         0.02272
       8 -> 23        -0.00928
       8 -> 29         0.00973
       8 -> 31        -0.00196
       8 -> 37         0.00015
       8 -> 48        -0.00026
       8 -> 52         0.00176
       3 <- 27         0.00143
       3 <- 38         0.00156
       3 <- 45         0.00275
       4 <- 27         0.00246
       4 <- 45        -0.00114
       5 <-  9        -0.00051
       5 <- 13        -0.00079
       5 <- 17        -0.00101
       5 <- 23         0.00051
       5 <- 29        -0.00070
       5 <- 31         0.00079
       5 <- 37         0.00151
       5 <- 44         0.00022
       5 <- 48         0.00014
       5 <- 52         0.00019
       6 <- 27         0.00033
       6 <- 38        -0.00076
       6 <- 45         0.00138
       7 <- 12        -0.00066
       7 <- 15        -0.00778
       7 <- 18         0.00079
       7 <- 22         0.00743
       7 <- 30         0.00378
       7 <- 33        -0.00124
       7 <- 35         0.00223
       7 <- 40         0.00093
       7 <- 50         0.00022
       7 <- 53         0.00133
       8 <-  9        -0.02722
       8 <- 13         0.00252
       8 <- 17        -0.00464
       8 <- 23         0.00077
       8 <- 29        -0.00118
       8 <- 31        -0.00068
       8 <- 37        -0.00126
       8 <- 52         0.00050
 This state for optimization and/or second-order correction.
 Total Energy, E(TD-HF/TD-DFT) =  -114.404353231    
 Copying the excited state density for this state as the 1-particle RhoCI density.
 
 Excited State   2:      Singlet-B2     6.9229 eV  179.09 nm  f=0.0225  <S**2>=0.000
       3 -> 12         0.00161
       3 -> 15         0.00068
       3 -> 18         0.00124
       3 -> 22        -0.00033
       3 -> 25         0.00124
       3 -> 33         0.00023
       3 -> 35        -0.00047
       3 -> 40        -0.00017
       4 -> 12        -0.00273
       4 -> 15         0.00198
       4 -> 18         0.00192
       4 -> 22        -0.00326
       4 -> 25         0.00318
       4 -> 30         0.00034
       4 -> 33        -0.00038
       4 -> 35         0.00050
       4 -> 40         0.00044
       4 -> 42        -0.00013
       5 -> 10        -0.00778
       5 -> 11        -0.00766
       5 -> 14         0.00703
       5 -> 16        -0.00071
       5 -> 19        -0.00154
       5 -> 20         0.00276
       5 -> 21         0.00585
       5 -> 24        -0.00041
       5 -> 26         0.00223
       5 -> 28         0.00104
       5 -> 32        -0.00103
       5 -> 34        -0.00099
       5 -> 36        -0.00018
       5 -> 39        -0.00026
       5 -> 41        -0.00044
       5 -> 43        -0.00050
       5 -> 46        -0.00025
       5 -> 54         0.00012
       6 -> 12        -0.00049
       6 -> 15         0.00147
       6 -> 18         0.00152
       6 -> 22        -0.00236
       6 -> 25         0.00103
       6 -> 30        -0.00053
       6 -> 33        -0.00026
       6 -> 35         0.00051
       6 -> 42        -0.00017
       6 -> 49         0.00045
       6 -> 50        -0.00024
       7 -> 38        -0.00064
       7 -> 45         0.00028
       8 -> 10         0.70264
       8 -> 11        -0.07384
       8 -> 14         0.01772
       8 -> 16        -0.00477
       8 -> 19         0.00499
       8 -> 20         0.01693
       8 -> 21        -0.00253
       8 -> 26         0.00279
       8 -> 28         0.00093
       8 -> 32         0.00098
       8 -> 34         0.00089
       8 -> 36         0.00033
       8 -> 39         0.00033
       8 -> 41        -0.00022
       8 -> 43         0.00060
       8 -> 46        -0.00046
       8 -> 47         0.00016
       8 -> 51        -0.00013
       8 -> 54         0.00020
       3 <- 12         0.00037
       3 <- 15         0.00053
       3 <- 18         0.00047
       3 <- 22        -0.00050
       3 <- 25         0.00070
       3 <- 30        -0.00011
       3 <- 33         0.00020
       3 <- 35        -0.00042
       3 <- 40        -0.00018
       3 <- 49         0.00015
       4 <- 12         0.00077
       4 <- 15         0.00196
       4 <- 18         0.00184
       4 <- 22        -0.00203
       4 <- 25         0.00216
       4 <- 30         0.00024
       4 <- 33        -0.00019
       4 <- 35         0.00025
       4 <- 40         0.00012
       4 <- 42        -0.00023
       4 <- 50        -0.00013
       5 <- 10         0.00231
       5 <- 11        -0.00024
       5 <- 14         0.00470
       5 <- 16        -0.00060
       5 <- 19        -0.00026
       5 <- 20         0.00082
       5 <- 21         0.00184
       5 <- 24        -0.00206
       5 <- 26         0.00147
       5 <- 28         0.00012
       5 <- 32        -0.00074
       5 <- 34        -0.00091
       5 <- 36        -0.00025
       5 <- 39        -0.00015
       5 <- 41        -0.00026
       5 <- 43        -0.00039
       5 <- 46        -0.00022
       6 <- 15        -0.00019
       6 <- 18         0.00103
       6 <- 22        -0.00055
       6 <- 25         0.00034
       6 <- 30         0.00033
       6 <- 33        -0.00031
       6 <- 35         0.00057
       6 <- 42        -0.00016
       6 <- 49         0.00037
       6 <- 50        -0.00026
       6 <- 53         0.00016
       7 <- 27         0.00011
       7 <- 38        -0.00047
       7 <- 45         0.00026
       8 <- 10        -0.00152
       8 <- 11        -0.00055
       8 <- 14        -0.00464
       8 <- 16        -0.00052
       8 <- 19         0.00017
       8 <- 20        -0.00069
       8 <- 21        -0.00157
       8 <- 24         0.00196
       8 <- 26        -0.00082
       8 <- 28        -0.00046
       8 <- 32         0.00098
       8 <- 36         0.00032
       8 <- 39         0.00023
       8 <- 43         0.00038
       8 <- 46        -0.00027
 
 Excited State   3:      Singlet-B2     7.6801 eV  161.44 nm  f=0.0274  <S**2>=0.000
       3 -> 12        -0.00034
       3 -> 15        -0.00096
       3 -> 18         0.00107
       3 -> 22         0.00049
       3 -> 30         0.00245
       3 -> 33         0.00015
       3 -> 35        -0.00060
       3 -> 40        -0.00052
       3 -> 49         0.00059
       3 -> 50        -0.00019
       4 -> 12         0.00249
       4 -> 15         0.00036
       4 -> 18         0.00193
       4 -> 22        -0.00149
       4 -> 25         0.00282
       4 -> 30        -0.00137
       4 -> 33         0.00049
       4 -> 35        -0.00058
       4 -> 42        -0.00010
       4 -> 49         0.00023
       5 -> 10        -0.00590
       5 -> 11        -0.00021
       5 -> 14         0.00972
       5 -> 16        -0.00690
       5 -> 19        -0.00082
       5 -> 20        -0.00480
       5 -> 21         0.00232
       5 -> 24        -0.00084
       5 -> 26         0.00152
       5 -> 28         0.00156
       5 -> 32        -0.00013
       5 -> 34        -0.00088
       5 -> 36        -0.00037
       5 -> 39         0.00045
       5 -> 41        -0.00068
       5 -> 43         0.00019
       5 -> 46         0.00091
       5 -> 51        -0.00042
       6 -> 12        -0.00287
       6 -> 15        -0.00149
       6 -> 18        -0.00075
       6 -> 22         0.00113
       6 -> 25         0.00017
       6 -> 30         0.00115
       6 -> 33        -0.00055
       6 -> 35         0.00149
       6 -> 40         0.00112
       6 -> 49        -0.00127
       6 -> 50         0.00031
       6 -> 53         0.00012
       7 -> 27         0.00019
       7 -> 38        -0.00084
       7 -> 45        -0.00198
       8 -> 10         0.07401
       8 -> 11         0.70219
       8 -> 14        -0.00214
       8 -> 16         0.00892
       8 -> 19        -0.03436
       8 -> 20         0.00048
       8 -> 21        -0.00288
       8 -> 24         0.00025
       8 -> 26        -0.00074
       8 -> 28         0.00199
       8 -> 32         0.00012
       8 -> 34        -0.00021
       8 -> 36        -0.00021
       8 -> 39        -0.00026
       8 -> 41        -0.00111
       8 -> 43         0.00037
       8 -> 46         0.00231
       8 -> 47        -0.00011
       8 -> 51        -0.00107
       3 <- 12         0.00034
       3 <- 15        -0.00030
       3 <- 18         0.00099
       3 <- 25         0.00023
       3 <- 30         0.00133
       3 <- 33         0.00026
       3 <- 35        -0.00063
       3 <- 40        -0.00048
       3 <- 49         0.00052
       3 <- 50        -0.00012
       3 <- 53        -0.00032
       4 <- 12         0.00030
       4 <- 15         0.00084
       4 <- 18         0.00043
       4 <- 22        -0.00116
       4 <- 25         0.00120
       4 <- 30        -0.00071
       4 <- 33         0.00046
       4 <- 35        -0.00028
       4 <- 42        -0.00011
       4 <- 49         0.00018
       5 <- 10         0.00120
       5 <- 11        -0.00135
       5 <- 14         0.00272
       5 <- 16        -0.00043
       5 <- 19         0.00141
       5 <- 20        -0.00042
       5 <- 21         0.00080
       5 <- 24        -0.00141
       5 <- 26         0.00010
       5 <- 28         0.00065
       5 <- 32        -0.00091
       5 <- 36         0.00013
       5 <- 39         0.00011
       5 <- 41        -0.00071
       5 <- 43         0.00010
       5 <- 46         0.00086
       5 <- 47        -0.00012
       5 <- 51        -0.00030
       6 <- 12        -0.00028
       6 <- 15        -0.00101
       6 <- 18         0.00033
       6 <- 22         0.00089
       6 <- 25        -0.00014
       6 <- 30         0.00108
       6 <- 33        -0.00046
       6 <- 35         0.00129
       6 <- 40         0.00088
       6 <- 49        -0.00104
       6 <- 50         0.00024
       7 <- 27         0.00034
       7 <- 38        -0.00067
       7 <- 45        -0.00166
       8 <- 10        -0.00080
       8 <- 11        -0.00170
       8 <- 14        -0.00362
       8 <- 16         0.00041
       8 <- 19         0.00518
       8 <- 21        -0.00196
       8 <- 24        -0.00045
       8 <- 26        -0.00165
       8 <- 28         0.00057
       8 <- 32        -0.00126
       8 <- 34         0.00159
       8 <- 39        -0.00070
       8 <- 41        -0.00103
       8 <- 43         0.00018
       8 <- 46         0.00185
       8 <- 47        -0.00030
       8 <- 51        -0.00071
 
 Excited State   4:      Singlet-A1     7.9310 eV  156.33 nm  f=0.0400  <S**2>=0.000
       3 -> 10         0.00221
       3 -> 11        -0.00031
       3 -> 14         0.00131
       3 -> 19        -0.00198
       3 -> 20         0.00219
       3 -> 21         0.00108
       3 -> 24         0.00085
       3 -> 26         0.00135
       3 -> 28         0.00084
       3 -> 32         0.00017
       3 -> 34        -0.00086
       3 -> 36        -0.00016
       3 -> 41        -0.00019
       3 -> 46         0.00021
       3 -> 47        -0.00030
       3 -> 51        -0.00015
       3 -> 54        -0.00017
       4 -> 10         0.00496
       4 -> 11         0.00419
       4 -> 14         0.00453
       4 -> 16         0.00067
       4 -> 19         0.00029
       4 -> 20         0.00307
       4 -> 21        -0.00054
       4 -> 24        -0.00684
       4 -> 26         0.00223
       4 -> 28        -0.00027
       4 -> 32        -0.00062
       4 -> 34         0.00026
       4 -> 43         0.00016
       4 -> 46        -0.00020
       4 -> 51        -0.00013
       5 -> 12         0.00564
       5 -> 15         0.00362
       5 -> 18         0.00906
       5 -> 22        -0.00264
       5 -> 25         0.00555
       5 -> 30        -0.00036
       5 -> 33        -0.00023
       5 -> 35         0.00074
       5 -> 50         0.00015
       5 -> 53        -0.00012
       6 -> 10         0.01035
       6 -> 11        -0.00259
       6 -> 14         0.00391
       6 -> 16        -0.00054
       6 -> 19         0.00240
       6 -> 20         0.00162
       6 -> 21        -0.00151
       6 -> 24        -0.00484
       6 -> 26        -0.00057
       6 -> 28        -0.00238
       6 -> 32        -0.00025
       6 -> 34        -0.00016
       6 -> 39         0.00021
       6 -> 43         0.00016
       6 -> 47         0.00072
       6 -> 51         0.00020
       6 -> 54        -0.00012
       7 ->  9         0.03638
       7 -> 13         0.01247
       7 -> 17         0.00030
       7 -> 23         0.00518
       7 -> 29        -0.00094
       7 -> 31        -0.00100
       7 -> 37         0.00058
       7 -> 44         0.00060
       7 -> 48        -0.00031
       8 -> 12         0.70517
       8 -> 15         0.00282
       8 -> 18         0.02920
       8 -> 22         0.00204
       8 -> 25         0.00483
       8 -> 30        -0.00097
       8 -> 33         0.00174
       8 -> 35        -0.00204
       8 -> 40         0.00034
       8 -> 49        -0.00047
       8 -> 50         0.00024
       8 -> 53        -0.00026
       3 <- 10         0.00068
       3 <- 11         0.00043
       3 <- 14         0.00068
       3 <- 16         0.00016
       3 <- 19        -0.00120
       3 <- 20         0.00095
       3 <- 21         0.00073
       3 <- 24         0.00024
       3 <- 26         0.00093
       3 <- 28         0.00056
       3 <- 32         0.00028
       3 <- 34        -0.00059
       3 <- 36        -0.00011
       3 <- 41        -0.00011
       3 <- 46         0.00029
       3 <- 47        -0.00023
       3 <- 51        -0.00012
       3 <- 54        -0.00015
       4 <- 10         0.00398
       4 <- 11         0.00077
       4 <- 14         0.00329
       4 <- 20         0.00177
       4 <- 21        -0.00046
       4 <- 24        -0.00368
       4 <- 26         0.00136
       4 <- 32        -0.00082
       4 <- 34        -0.00015
       4 <- 41        -0.00013
       4 <- 43         0.00013
       4 <- 46        -0.00014
       4 <- 51        -0.00012
       5 <- 12         0.00275
       5 <- 15         0.00306
       5 <- 18         0.00324
       5 <- 22        -0.00102
       5 <- 25         0.00302
       5 <- 30        -0.00019
       5 <- 33        -0.00037
       5 <- 35         0.00066
       5 <- 53        -0.00010
       6 <- 10         0.00244
       6 <- 14         0.00148
       6 <- 16        -0.00023
       6 <- 19         0.00063
       6 <- 20         0.00073
       6 <- 21        -0.00090
       6 <- 24        -0.00233
       6 <- 26        -0.00015
       6 <- 28        -0.00155
       6 <- 32        -0.00033
       6 <- 34        -0.00019
       6 <- 46        -0.00016
       6 <- 47         0.00059
       6 <- 51         0.00022
       6 <- 54        -0.00011
       7 <-  9        -0.00267
       7 <- 13         0.00255
       7 <- 17        -0.00037
       7 <- 23         0.00262
       7 <- 29        -0.00075
       7 <- 31        -0.00065
       7 <- 37         0.00044
       7 <- 44         0.00051
       7 <- 48        -0.00028
       8 <- 12        -0.00037
       8 <- 15        -0.00355
       8 <- 18        -0.00163
       8 <- 25        -0.00126
       8 <- 30        -0.00123
       8 <- 33         0.00066
       8 <- 35        -0.00076
       8 <- 40         0.00042
       8 <- 42         0.00010
       8 <- 49        -0.00046
       8 <- 50         0.00015
       8 <- 53        -0.00026
 
 Excited State   5:      Singlet-B1     8.3369 eV  148.72 nm  f=0.0012  <S**2>=0.000
       3 ->  9        -0.03340
       3 -> 13         0.00500
       3 -> 17        -0.00701
       3 -> 23         0.00399
       3 -> 29        -0.00257
       3 -> 31        -0.00024
       3 -> 44         0.00065
       3 -> 48         0.00016
       3 -> 52         0.00113
       4 ->  9         0.01687
       4 -> 13        -0.00276
       4 -> 17         0.00098
       4 -> 23        -0.00249
       4 -> 31        -0.00250
       4 -> 37        -0.00040
       4 -> 48        -0.00162
       4 -> 52        -0.00097
       5 -> 27        -0.00174
       5 -> 38         0.00212
       5 -> 45         0.00288
       6 ->  9         0.70501
       6 -> 13        -0.03501
       6 -> 17         0.02281
       6 -> 23        -0.01243
       6 -> 29         0.00799
       6 -> 31         0.00367
       6 -> 37        -0.00262
       6 -> 44        -0.00351
       6 -> 48         0.00557
       6 -> 52         0.00196
       7 -> 10         0.00312
       7 -> 11         0.00896
       7 -> 14         0.00057
       7 -> 16        -0.01258
       7 -> 19        -0.00380
       7 -> 20         0.00272
       7 -> 21         0.00390
       7 -> 24         0.00293
       7 -> 26         0.00256
       7 -> 28        -0.00465
       7 -> 32        -0.00130
       7 -> 36        -0.00156
       7 -> 39         0.00034
       7 -> 41        -0.00217
       7 -> 43         0.00104
       7 -> 46         0.00499
       7 -> 47         0.00229
       7 -> 51         0.00109
       7 -> 54         0.00054
       8 -> 27         0.00306
       8 -> 38         0.00102
       8 -> 45         0.00684
       3 <-  9        -0.01036
       3 <- 13         0.00083
       3 <- 17        -0.00337
       3 <- 23         0.00055
       3 <- 29        -0.00152
       3 <- 31        -0.00013
       3 <- 37        -0.00017
       3 <- 44        -0.00011
       3 <- 48         0.00045
       3 <- 52         0.00091
       4 <-  9         0.00529
       4 <- 17         0.00250
       4 <- 23        -0.00032
       4 <- 29         0.00223
       4 <- 31        -0.00248
       4 <- 37         0.00022
       4 <- 44         0.00020
       4 <- 48        -0.00139
       4 <- 52        -0.00053
       5 <- 27        -0.00173
       5 <- 38         0.00160
       5 <- 45         0.00253
       6 <-  9        -0.02122
       6 <- 13         0.00329
       6 <- 17        -0.00307
       6 <- 23         0.00075
       6 <- 29        -0.00189
       6 <- 31         0.00322
       6 <- 37        -0.00270
       6 <- 44        -0.00218
       6 <- 48         0.00484
       6 <- 52         0.00071
       7 <- 10         0.00160
       7 <- 11         0.00254
       7 <- 14         0.00062
       7 <- 16         0.00031
       7 <- 19        -0.00669
       7 <- 20         0.00847
       7 <- 21         0.00710
       7 <- 24         0.00693
       7 <- 26         0.00460
       7 <- 28         0.00080
       7 <- 32        -0.00127
       7 <- 34         0.00152
       7 <- 36        -0.00249
       7 <- 39         0.00054
       7 <- 41        -0.00153
       7 <- 43         0.00101
       7 <- 46         0.00444
       7 <- 47         0.00184
       7 <- 51         0.00074
       7 <- 54         0.00100
       8 <- 27         0.00263
       8 <- 38         0.00100
       8 <- 45         0.00597
 
 Excited State   6:      Singlet-A2     8.4502 eV  146.72 nm  f=0.0000  <S**2>=0.000
       3 -> 27        -0.00038
       3 -> 38        -0.00033
       3 -> 45        -0.00014
       4 -> 27         0.00014
       4 -> 38         0.00043
       5 ->  9        -0.00026
       5 -> 13        -0.00600
       5 -> 17         0.00663
       5 -> 23        -0.00229
       5 -> 29        -0.00024
       5 -> 31         0.00121
       5 -> 37        -0.00084
       5 -> 44        -0.00018
       6 -> 27         0.00022
       6 -> 38         0.00030
       6 -> 45        -0.00015
       7 -> 12         0.00034
       7 -> 15        -0.00193
       7 -> 18         0.00203
       7 -> 22        -0.00076
       7 -> 35        -0.00012
       8 ->  9         0.03510
       8 -> 13         0.70562
       8 -> 17         0.02308
       8 -> 23         0.01562
       8 -> 29         0.00021
       8 -> 31         0.00178
       8 -> 37        -0.00041
       8 -> 48         0.00016
       3 <- 38        -0.00019
       3 <- 45        -0.00021
       4 <- 27        -0.00010
       5 <-  9        -0.00044
       5 <- 13        -0.00030
       5 <- 17         0.00045
       5 <- 37        -0.00018
       6 <- 38         0.00018
       7 <- 12        -0.00051
       7 <- 15        -0.00111
       7 <- 18         0.00080
       7 <- 22        -0.00082
       7 <- 25        -0.00043
       7 <- 30         0.00024
       7 <- 33         0.00032
       7 <- 35        -0.00052
       7 <- 40        -0.00033
       8 <-  9         0.00111
       8 <- 13         0.00114
       8 <- 17         0.00024
       8 <- 23        -0.00010
 
 Excited State   7:      Singlet-A1     8.6254 eV  143.74 nm  f=0.1493  <S**2>=0.000
       3 -> 10         0.00408
       3 -> 11         0.01248
       3 -> 14         0.00570
       3 -> 16        -0.00145
       3 -> 19        -0.02032
       3 -> 20         0.00828
       3 -> 21         0.00817
       3 -> 24         0.00831
       3 -> 26         0.01081
       3 -> 28         0.00303
       3 -> 32         0.00349
       3 -> 34        -0.00365
       3 -> 36        -0.00278
       3 -> 39         0.00172
       3 -> 41         0.00031
       3 -> 43         0.00093
       3 -> 46         0.00181
       3 -> 47         0.00041
       3 -> 51        -0.00018
       3 -> 54         0.00027
       4 -> 10         0.03320
       4 -> 11        -0.01281
       4 -> 14         0.01865
       4 -> 16         0.00042
       4 -> 19         0.01159
       4 -> 20         0.00874
       4 -> 21         0.00136
       4 -> 24        -0.00920
       4 -> 26         0.00585
       4 -> 28         0.00061
       4 -> 32        -0.00147
       4 -> 34         0.00344
       4 -> 36         0.00095
       4 -> 39        -0.00018
       4 -> 46        -0.00095
       4 -> 47        -0.00137
       5 -> 12         0.04065
       5 -> 15         0.04341
       5 -> 18         0.00389
       5 -> 22        -0.00290
       5 -> 25         0.01602
       5 -> 30        -0.00481
       5 -> 33        -0.00260
       5 -> 35         0.00048
       5 -> 40         0.00158
       5 -> 42         0.00086
       5 -> 49         0.00050
       5 -> 50        -0.00036
       5 -> 53        -0.00047
       6 -> 10        -0.02425
       6 -> 11        -0.03183
       6 -> 14        -0.00828
       6 -> 16        -0.02893
       6 -> 19         0.05095
       6 -> 20        -0.05388
       6 -> 21        -0.03308
       6 -> 24        -0.03122
       6 -> 26        -0.01725
       6 -> 28        -0.01281
       6 -> 32        -0.00016
       6 -> 34        -0.00387
       6 -> 36         0.00319
       6 -> 39        -0.00021
       6 -> 41        -0.00137
       6 -> 43         0.00012
       6 -> 46         0.00094
       6 -> 47         0.00164
       6 -> 51         0.00061
       6 -> 54        -0.00011
       7 ->  9         0.67026
       7 -> 13         0.04159
       7 -> 17        -0.02876
       7 -> 23         0.01083
       7 -> 29        -0.00607
       7 -> 31        -0.00017
       7 -> 37        -0.00023
       7 -> 44        -0.00059
       7 -> 48         0.00053
       7 -> 52         0.00098
       8 -> 12        -0.03574
       8 -> 15         0.18878
       8 -> 18        -0.02632
       8 -> 22        -0.05682
       8 -> 25         0.00565
       8 -> 30        -0.01486
       8 -> 33         0.00724
       8 -> 35        -0.00878
       8 -> 40        -0.00329
       8 -> 42        -0.00044
       8 -> 49         0.00055
       8 -> 50         0.00049
       8 -> 53        -0.00111
       3 <- 10         0.00186
       3 <- 11         0.00674
       3 <- 14         0.00387
       3 <- 16        -0.00024
       3 <- 19        -0.01227
       3 <- 20         0.00537
       3 <- 21         0.00632
       3 <- 24         0.00579
       3 <- 26         0.00703
       3 <- 28         0.00214
       3 <- 32         0.00295
       3 <- 34        -0.00217
       3 <- 36        -0.00195
       3 <- 39         0.00127
       3 <- 41         0.00017
       3 <- 43         0.00085
       3 <- 46         0.00193
       3 <- 47         0.00065
       3 <- 51        -0.00017
       3 <- 54         0.00026
       4 <- 10         0.01032
       4 <- 11        -0.00442
       4 <- 14         0.00668
       4 <- 16        -0.00013
       4 <- 19         0.00575
       4 <- 20         0.00441
       4 <- 21         0.00048
       4 <- 24        -0.00498
       4 <- 26         0.00384
       4 <- 28        -0.00013
       4 <- 32        -0.00183
       4 <- 34         0.00240
       4 <- 36         0.00053
       4 <- 39        -0.00013
       4 <- 41        -0.00021
       4 <- 46        -0.00040
       4 <- 47        -0.00128
       4 <- 51         0.00027
       5 <- 12         0.00912
       5 <- 15         0.01355
       5 <- 18         0.00190
       5 <- 22        -0.00141
       5 <- 25         0.00805
       5 <- 30        -0.00263
       5 <- 33        -0.00176
       5 <- 35         0.00055
       5 <- 40         0.00130
       5 <- 42         0.00063
       5 <- 49         0.00040
       5 <- 50        -0.00033
       5 <- 53        -0.00039
       6 <- 10        -0.00373
       6 <- 11        -0.00522
       6 <- 14        -0.00191
       6 <- 16        -0.00824
       6 <- 19         0.01699
       6 <- 20        -0.02030
       6 <- 21        -0.01443
       6 <- 24        -0.01548
       6 <- 26        -0.00968
       6 <- 28        -0.00748
       6 <- 32         0.00010
       6 <- 34        -0.00291
       6 <- 36         0.00217
       6 <- 41        -0.00090
       6 <- 46         0.00044
       6 <- 47         0.00135
       6 <- 51         0.00042
       7 <-  9        -0.08050
       7 <- 13         0.01434
       7 <- 17        -0.01369
       7 <- 23         0.00880
       7 <- 29        -0.00608
       7 <- 31         0.00097
       7 <- 37        -0.00044
       7 <- 44        -0.00011
       7 <- 52         0.00078
       8 <- 12         0.00106
       8 <- 15         0.02445
       8 <- 18        -0.00439
       8 <- 22        -0.01944
       8 <- 25         0.00166
       8 <- 30        -0.00829
       8 <- 33         0.00455
       8 <- 35        -0.00576
       8 <- 40        -0.00245
       8 <- 42        -0.00034
       8 <- 49         0.00035
       8 <- 50         0.00036
       8 <- 53        -0.00095
 
 Excited State   8:      Singlet-A2     9.4233 eV  131.57 nm  f=0.0000  <S**2>=0.000
       3 -> 27        -0.00095
       3 -> 38        -0.00045
       3 -> 45         0.00066
       4 -> 27        -0.00579
       4 -> 38         0.00055
       4 -> 45        -0.00072
       5 ->  9         0.70472
       5 -> 13        -0.04144
       5 -> 17         0.01342
       5 -> 23        -0.01486
       5 -> 29         0.00287
       5 -> 31        -0.00041
       5 -> 37        -0.00508
       5 -> 44        -0.00193
       5 -> 48        -0.00015
       5 -> 52         0.00042
       6 -> 27        -0.00150
       6 -> 38         0.00175
       6 -> 45         0.00072
       7 -> 12         0.01789
       7 -> 15         0.01478
       7 -> 18         0.00130
       7 -> 22        -0.00556
       7 -> 25         0.00107
       7 -> 30        -0.00120
       7 -> 35        -0.00077
       7 -> 40        -0.00024
       7 -> 42        -0.00022
       7 -> 49        -0.00039
       7 -> 50        -0.00064
       7 -> 53         0.00014
       8 ->  9        -0.02060
       8 -> 13         0.00015
       8 -> 17         0.01793
       8 -> 23         0.00239
       8 -> 29         0.00345
       8 -> 31         0.00033
       8 -> 37         0.00391
       8 -> 44         0.00033
       8 -> 48         0.00016
       8 -> 52         0.00068
       3 <- 27        -0.00142
       3 <- 38        -0.00059
       3 <- 45         0.00087
       4 <- 27        -0.00447
       4 <- 38         0.00056
       4 <- 45        -0.00021
       5 <-  9        -0.00964
       5 <- 13         0.00212
       5 <- 17        -0.00098
       5 <- 23         0.00012
       5 <- 29         0.00057
       5 <- 31        -0.00234
       5 <- 37        -0.00287
       5 <- 44        -0.00033
       5 <- 48        -0.00029
       5 <- 52         0.00015
       6 <- 27        -0.00153
       6 <- 38         0.00119
       6 <- 45         0.00046
       7 <- 12        -0.00163
       7 <- 15        -0.00197
       7 <- 22        -0.00172
       7 <- 25        -0.00239
       7 <- 30         0.00089
       7 <- 33         0.00044
       7 <- 35        -0.00070
       7 <- 40        -0.00056
       7 <- 42        -0.00047
       7 <- 49        -0.00055
       7 <- 50        -0.00072
       7 <- 53         0.00046
       8 <-  9         0.00028
       8 <- 13        -0.00043
       8 <- 17        -0.00158
       8 <- 23         0.00064
       8 <- 29        -0.00231
       8 <- 31         0.00259
       8 <- 37         0.00152
       8 <- 44        -0.00012
       8 <- 48         0.00013
       8 <- 52         0.00013
 
 Excited State   9:      Singlet-B1     9.8413 eV  125.98 nm  f=0.0404  <S**2>=0.000
       3 ->  9         0.00321
       3 -> 13         0.00129
       3 -> 17         0.00047
       3 -> 23        -0.00038
       3 -> 29        -0.00031
       3 -> 31        -0.00036
       3 -> 44        -0.00040
       3 -> 48         0.00021
       3 -> 52        -0.00015
       4 ->  9         0.01475
       4 -> 13        -0.00078
       4 -> 23        -0.00233
       4 -> 31         0.00101
       4 -> 37        -0.00049
       4 -> 44        -0.00012
       4 -> 48        -0.00025
       5 -> 27         0.00151
       5 -> 38         0.00075
[...]
  46        4PY         0.00000   0.00000  -0.03537  -0.08272  -0.11738
  47        4PZ        -0.00273  -0.00000   0.01264   0.01938   0.01054
  48        5S         -0.00141  -0.00000   0.00445   0.00752   0.00579
  49        5PX        -0.00000  -0.00000   0.00000   0.00000   0.00000
  50        5PY         0.00000   0.00000  -0.01879  -0.03440  -0.03198
  51        5PZ        -0.00024  -0.00000   0.00263   0.00343   0.00053
  52        6D 0        0.00030   0.00000  -0.00079  -0.00135  -0.00113
  53        6D+1       -0.00000   0.00000   0.00000   0.00000  -0.00000
  54        6D-1       -0.00000   0.00000  -0.00227  -0.00219   0.00239
  55        6D+2        0.00002  -0.00000  -0.00007  -0.00007  -0.00001
  56        6D-2       -0.00000   0.00000  -0.00000  -0.00000   0.00000
                          26        27        28        29        30
  26        4PX         0.00023
  27        4PY        -0.00000   0.00111
  28        4PZ         0.00000  -0.00047   0.00045
  29 3   H  1S          0.00000  -0.00215  -0.00220   0.08006
  30        2S          0.00000  -0.00246  -0.00350   0.11604   0.17265
  31        3S          0.00000  -0.00011  -0.00180   0.04641   0.07998
  32        4PX         0.00023   0.00000   0.00000  -0.00000  -0.00000
  33        4PY         0.00000  -0.00053  -0.00007   0.00787   0.01026
  34        4PZ        -0.00000   0.00007  -0.00010   0.00439   0.00606
  35 4   O  1S          0.00000  -0.00019  -0.00085   0.00235   0.00184
  36        2S          0.00000  -0.00046  -0.00097   0.00395   0.00363
  37        2PX         0.00509   0.00000  -0.00000  -0.00000  -0.00000
  38        2PY         0.00000  -0.00344   0.00159   0.02061   0.05389
  39        2PZ         0.00000  -0.00139  -0.00338   0.01224   0.01954
  40        3S         -0.00000   0.00209   0.00142  -0.01321  -0.01410
  41        3PX         0.00750   0.00000  -0.00000  -0.00000  -0.00000
  42        3PY         0.00000  -0.00505   0.00237   0.02904   0.07688
  43        3PZ         0.00000  -0.00197  -0.00482   0.01741   0.02776
  44        4S         -0.00000   0.00135  -0.00125  -0.00623  -0.00312
  45        4PX         0.00620   0.00000  -0.00000  -0.00000  -0.00000
  46        4PY         0.00000  -0.00381   0.00139   0.03537   0.08272
  47        4PZ         0.00000  -0.00156  -0.00259   0.01264   0.01938
  48        5S          0.00000  -0.00041  -0.00170   0.00445   0.00752
  49        5PX         0.00056   0.00000   0.00000  -0.00000  -0.00000
  50        5PY         0.00000   0.00002  -0.00057   0.01879   0.03440
  51        5PZ         0.00000  -0.00043   0.00007   0.00263   0.00343
  52        6D 0       -0.00000   0.00007   0.00037  -0.00079  -0.00135
  53        6D+1       -0.00049  -0.00000   0.00000  -0.00000  -0.00000
  54        6D-1       -0.00000   0.00042  -0.00034   0.00227   0.00219
  55        6D+2       -0.00000   0.00001   0.00001  -0.00007  -0.00007
  56        6D-2       -0.00000   0.00000   0.00000  -0.00000  -0.00000
                          31        32        33        34        35
  31        3S          0.06413
  32        4PX        -0.00000   0.00023
  33        4PY         0.00132  -0.00000   0.00111
  34        4PZ         0.00145  -0.00000   0.00047   0.00045
  35 4   O  1S          0.00078  -0.00000   0.00019  -0.00085   0.64005
  36        2S          0.00091  -0.00000   0.00046  -0.00097   0.56963
  37        2PX        -0.00000   0.00509   0.00000   0.00000   0.00000
  38        2PY         0.08651   0.00000  -0.00344  -0.00159   0.00000
  39        2PZ         0.01240  -0.00000   0.00139  -0.00338  -0.01146
  40        3S         -0.00156   0.00000  -0.00209   0.00142  -0.13705
  41        3PX        -0.00000   0.00750   0.00000   0.00000   0.00000
  42        3PY         0.12491   0.00000  -0.00505  -0.00237   0.00000
  43        3PZ         0.01764  -0.00000   0.00197  -0.00482  -0.01390
  44        4S          0.00638   0.00000  -0.00135  -0.00125  -0.13418
  45        4PX        -0.00000   0.00620   0.00000   0.00000   0.00000
  46        4PY         0.11738   0.00000  -0.00381  -0.00139   0.00000
  47        4PZ         0.01054  -0.00000   0.00156  -0.00259  -0.01265
  48        5S          0.00579  -0.00000   0.00041  -0.00170   0.00023
  49        5PX        -0.00000   0.00056   0.00000  -0.00000   0.00000
  50        5PY         0.03198   0.00000   0.00002   0.00057   0.00000
  51        5PZ         0.00053  -0.00000   0.00043   0.00007  -0.00151
  52        6D 0       -0.00113   0.00000  -0.00007   0.00037  -0.00065
  53        6D+1        0.00000  -0.00049  -0.00000  -0.00000   0.00000
  54        6D-1       -0.00239  -0.00000   0.00042   0.00034   0.00000
  55        6D+2       -0.00001   0.00000  -0.00001   0.00001  -0.00073
  56        6D-2        0.00000   0.00000  -0.00000   0.00000  -0.00000
                          36        37        38        39        40
  36        2S          0.52427
  37        2PX         0.00000   0.11135
  38        2PY         0.00000  -0.00000   0.18415
  39        2PZ        -0.01790  -0.00000   0.00000   0.13116
  40        3S         -0.23091   0.00000   0.00000   0.05186   0.71454
  41        3PX         0.00000   0.16415  -0.00000   0.00000   0.00000
  42        3PY         0.00000  -0.00000   0.26712  -0.00000  -0.00000
  43        3PZ        -0.02264  -0.00000   0.00000   0.18612   0.06893
  44        4S         -0.20920   0.00000   0.00000   0.12616   0.59424
  45        4PX         0.00000   0.13570  -0.00000   0.00000   0.00000
  46        4PY         0.00000  -0.00000   0.23698  -0.00000  -0.00000
  47        4PZ        -0.02131  -0.00000   0.00000   0.10997   0.06660
  48        5S         -0.00350   0.00000   0.00000   0.06248   0.02375
  49        5PX         0.00000   0.01234  -0.00000   0.00000   0.00000
  50        5PY         0.00000  -0.00000   0.04866  -0.00000  -0.00000
  51        5PZ        -0.00235  -0.00000   0.00000   0.00317   0.00656
  52        6D 0       -0.00122   0.00000  -0.00000  -0.01176   0.00408
  53        6D+1       -0.00000  -0.01080  -0.00000  -0.00000   0.00000
  54        6D-1        0.00000  -0.00000  -0.01002   0.00000  -0.00000
  55        6D+2       -0.00119  -0.00000  -0.00000   0.00023   0.00352
  56        6D-2       -0.00000   0.00000   0.00000   0.00000   0.00000
                          41        42        43        44        45
  41        3PX         0.24199
  42        3PY        -0.00000   0.38751
  43        3PZ        -0.00000   0.00000   0.26417
  44        4S          0.00000   0.00000   0.17533   0.54943
  45        4PX         0.20005  -0.00000   0.00000   0.00000   0.16538
  46        4PY        -0.00000   0.34360  -0.00000  -0.00000  -0.00000
  47        4PZ        -0.00000   0.00000   0.15590   0.12347  -0.00000
  48        5S          0.00000   0.00000   0.08871   0.05932   0.00000
  49        5PX         0.01819  -0.00000   0.00000   0.00000   0.01504
  50        5PY        -0.00000   0.07034  -0.00000  -0.00000  -0.00000
  51        5PZ        -0.00000   0.00000   0.00444   0.00691  -0.00000
  52        6D 0        0.00000  -0.00000  -0.01675  -0.00453   0.00000
  53        6D+1       -0.01592  -0.00000  -0.00000   0.00000  -0.01316
  54        6D-1       -0.00000  -0.01459   0.00000   0.00000   0.00000
  55        6D+2       -0.00000  -0.00000   0.00031   0.00291  -0.00000
  56        6D-2        0.00000   0.00000   0.00000   0.00000   0.00000
                          46        47        48        49        50
  46        4PY         0.30665
  47        4PZ         0.00000   0.09328
  48        5S          0.00000   0.05225   0.02997
  49        5PX        -0.00000   0.00000   0.00000   0.00137
  50        5PY         0.06514  -0.00000  -0.00000  -0.00000   0.01666
  51        5PZ         0.00000   0.00307   0.00135  -0.00000   0.00000
  52        6D 0       -0.00000  -0.00952  -0.00565   0.00000  -0.00000
  53        6D+1        0.00000  -0.00000  -0.00000  -0.00120   0.00000
  54        6D-1       -0.01225   0.00000   0.00000   0.00000  -0.00168
  55        6D+2       -0.00000   0.00031   0.00011   0.00000  -0.00000
  56        6D-2        0.00000   0.00000   0.00000   0.00000  -0.00000
                          51        52        53        54        55
  51        5PZ         0.00034
  52        6D 0       -0.00017   0.00118
  53        6D+1       -0.00000  -0.00000   0.00105
  54        6D-1        0.00000   0.00000   0.00000   0.00079
  55        6D+2        0.00003   0.00002   0.00000   0.00000   0.00002
  56        6D-2        0.00000   0.00000  -0.00000  -0.00000  -0.00000
                          56
  56        6D-2        0.00000
          Condensed to atoms (all electrons):
               1          2          3          4
     1  C    4.861265   0.377239   0.377239   0.381000
     2  H    0.377239   0.643448  -0.090957  -0.058093
     3  H    0.377239  -0.090957   0.643448  -0.058093
     4  O    0.381000  -0.058093  -0.058093   7.995166
 Mulliken charges:
               1
     1  C    0.003256
     2  H    0.128362
     3  H    0.128362
     4  O   -0.259981
 Sum of Mulliken charges =  -0.00000
 Mulliken charges with hydrogens summed into heavy atoms:
               1
     1  C    0.259981
     4  O   -0.259981
 Electronic spatial extent (au):  <R**2>=             63.5823
 Charge=             -0.0000 electrons
 Dipole moment (field-independent basis, Debye):
    X=             -0.0000    Y=             -0.0000    Z=             -2.7771  Tot=              2.7771
 Quadrupole moment (field-independent basis, Debye-Ang):
   XX=            -11.9501   YY=            -11.7303   ZZ=            -12.2588
   XY=              0.0000   XZ=              0.0000   YZ=              0.0000
 Traceless Quadrupole moment (field-independent basis, Debye-Ang):
   XX=              0.0296   YY=              0.2495   ZZ=             -0.2791
   XY=              0.0000   XZ=              0.0000   YZ=              0.0000
 Octapole moment (field-independent basis, Debye-Ang**2):
  XXX=              0.0000  YYY=             -0.0000  ZZZ=             -0.3255  XYY=             -0.0000
  XXY=             -0.0000  XXZ=              0.6203  XZZ=             -0.0000  YZZ=             -0.0000
  YYZ=             -0.9340  XYZ=             -0.0000
 Hexadecapole moment (field-independent basis, Debye-Ang**3):
 XXXX=            -11.1661 YYYY=            -18.6989 ZZZZ=            -49.6577 XXXY=             -0.0000
 XXXZ=             -0.0000 YYYX=             -0.0000 YYYZ=             -0.0000 ZZZX=             -0.0000
 ZZZY=              0.0000 XXYY=             -5.3163 XXZZ=            -10.2255 YYZZ=            -10.9138
 XXYZ=              0.0000 YYXZ=              0.0000 ZZXY=              0.0000
 N-N= 3.007549266248D+01 E-N=-3.290431711559D+02  KE= 1.139018348595D+02
 Symmetry A1   KE= 1.034698567805D+02
 Symmetry A2   KE= 1.258729501490D-35
 Symmetry B1   KE= 3.648632048864D+00
 Symmetry B2   KE= 6.783346030161D+00
 Leave Link  601 at Fri Sep 17 10:52:45 2021, MaxMem=   268435456 cpu:               0.1 elap:               0.0
 (Enter /software/gaussian/g16-a03/l9999.exe)
 Electronic transition elements 
                 1             2             3             4             5 
      1  -0.114404D+03 -0.114281D+03 -0.114253D+03 -0.114244D+03 -0.114229D+03
      2   0.000000D+00  0.000000D+00  0.000000D+00  0.000000D+00  0.761499D-01
      3   0.000000D+00  0.364482D+00  0.381599D+00  0.000000D+00  0.000000D+00
      4   0.000000D+00  0.000000D+00  0.000000D+00 -0.453497D+00  0.000000D+00
      5   0.000000D+00  0.000000D+00  0.000000D+00  0.000000D+00 -0.366643D-01
      6   0.000000D+00 -0.943949D-01 -0.112348D+00  0.000000D+00  0.000000D+00
      7   0.000000D+00  0.000000D+00  0.000000D+00  0.129480D+00  0.000000D+00
      8   0.000000D+00 -0.414312D+00  0.668899D+00  0.000000D+00  0.000000D+00
      9   0.000000D+00  0.000000D+00  0.000000D+00  0.000000D+00 -0.158666D+01
     10   0.119079D+01  0.000000D+00  0.000000D+00  0.000000D+00  0.000000D+00
     11   0.000000D+00  0.000000D+00  0.000000D+00 -0.330960D-01  0.000000D+00
     12   0.000000D+00  0.000000D+00  0.000000D+00 -0.281103D+00  0.000000D+00
     13   0.000000D+00  0.000000D+00  0.000000D+00 -0.266064D+00  0.000000D+00
     14  -0.822163D-01  0.000000D+00  0.000000D+00  0.000000D+00  0.000000D+00
     15   0.000000D+00  0.000000D+00  0.000000D+00  0.000000D+00 -0.316940D+00
     16   0.000000D+00  0.472680D+00 -0.256128D-01  0.000000D+00  0.000000D+00
                 6             7             8             9            10 
      1  -0.114225D+03 -0.114218D+03 -0.114189D+03 -0.114174D+03 -0.114157D+03
      2   0.000000D+00  0.000000D+00  0.000000D+00 -0.409583D+00  0.000000D+00
      3   0.000000D+00  0.000000D+00  0.000000D+00  0.000000D+00  0.580377D+00
      4   0.000000D+00  0.840482D+00  0.000000D+00  0.000000D+00  0.000000D+00
      5   0.000000D+00  0.000000D+00  0.000000D+00  0.151986D+00  0.000000D+00
      6   0.000000D+00  0.000000D+00  0.000000D+00  0.000000D+00 -0.218999D+00
      7   0.000000D+00 -0.254951D+00  0.000000D+00  0.000000D+00  0.000000D+00
      8   0.000000D+00  0.000000D+00  0.000000D+00  0.000000D+00 -0.791940D+00
      9   0.000000D+00  0.000000D+00  0.000000D+00 -0.328275D-02  0.000000D+00
     10  -0.358302D-01  0.000000D+00 -0.731579D+00  0.000000D+00  0.000000D+00
     11   0.000000D+00  0.224386D+00  0.000000D+00  0.000000D+00  0.000000D+00
     12   0.000000D+00 -0.223111D-01  0.000000D+00  0.000000D+00  0.000000D+00
     13   0.000000D+00 -0.191898D+00  0.000000D+00  0.000000D+00  0.000000D+00
     14  -0.583975D-01  0.000000D+00  0.212219D+00  0.000000D+00  0.000000D+00
     15   0.000000D+00  0.000000D+00  0.000000D+00 -0.130575D+00  0.000000D+00
     16   0.000000D+00  0.000000D+00  0.000000D+00  0.000000D+00  0.495921D+00
                11            12            13            14            15 
      1  -0.114143D+03 -0.114137D+03 -0.114113D+03 -0.114113D+03 -0.114111D+03
      2   0.444590D+00  0.000000D+00  0.000000D+00  0.000000D+00  0.000000D+00
      3   0.000000D+00  0.000000D+00 -0.503093D-01  0.000000D+00  0.000000D+00
      4   0.000000D+00  0.000000D+00  0.000000D+00 -0.135520D+00 -0.207183D+00
      5  -0.182680D+00  0.000000D+00  0.000000D+00  0.000000D+00  0.000000D+00
      6   0.000000D+00  0.000000D+00 -0.103424D-02  0.000000D+00  0.000000D+00
      7   0.000000D+00  0.000000D+00  0.000000D+00  0.622402D-01  0.898425D-01
      8   0.000000D+00  0.000000D+00  0.510279D+00  0.000000D+00  0.000000D+00
      9   0.890640D-01  0.000000D+00  0.000000D+00  0.000000D+00  0.000000D+00
     10   0.000000D+00  0.372310D-01  0.000000D+00  0.000000D+00  0.000000D+00
     11   0.000000D+00  0.000000D+00  0.000000D+00  0.531253D+00  0.502119D+00
     12   0.000000D+00  0.000000D+00  0.000000D+00  0.400343D-01 -0.141773D+00
     13   0.000000D+00  0.000000D+00  0.000000D+00 -0.995816D-01  0.906725D-01
     14   0.000000D+00  0.281117D+00  0.000000D+00  0.000000D+00  0.000000D+00
     15  -0.286355D+00  0.000000D+00  0.000000D+00  0.000000D+00  0.000000D+00
     16   0.000000D+00  0.000000D+00  0.336672D+00  0.000000D+00  0.000000D+00
                16            17            18            19            20 
      1  -0.114089D+03 -0.114082D+03 -0.114079D+03 -0.114073D+03 -0.114071D+03
      2   0.000000D+00  0.000000D+00  0.000000D+00  0.000000D+00  0.000000D+00
      3   0.000000D+00  0.000000D+00  0.000000D+00 -0.381329D+00 -0.585664D+00
      4  -0.588744D+00  0.000000D+00  0.988720D+00  0.000000D+00  0.000000D+00
      5   0.000000D+00  0.000000D+00  0.000000D+00  0.000000D+00  0.000000D+00
      6   0.000000D+00  0.000000D+00  0.000000D+00  0.173799D+00  0.269140D+00
      7   0.254893D+00  0.000000D+00 -0.458619D+00  0.000000D+00  0.000000D+00
      8   0.000000D+00  0.000000D+00  0.000000D+00 -0.193892D+00  0.357249D+00
      9   0.000000D+00  0.000000D+00  0.000000D+00  0.000000D+00  0.000000D+00
     10   0.000000D+00 -0.130028D-01  0.000000D+00  0.000000D+00  0.000000D+00
     11  -0.286345D+00  0.000000D+00 -0.690586D-01  0.000000D+00  0.000000D+00
     12  -0.718571D+00  0.000000D+00  0.241805D+00  0.000000D+00  0.000000D+00
     13  -0.685559D+00  0.000000D+00  0.343203D+00  0.000000D+00  0.000000D+00
     14   0.000000D+00  0.342695D+00  0.000000D+00  0.000000D+00  0.000000D+00
     15   0.000000D+00  0.000000D+00  0.000000D+00  0.000000D+00  0.000000D+00
     16   0.000000D+00  0.000000D+00  0.000000D+00 -0.230389D+00 -0.647724D+00
                21            22            23            24            25 
      1  -0.114059D+03 -0.114055D+03 -0.114054D+03 -0.114045D+03 -0.114037D+03
      2   0.252412D+00  0.000000D+00 -0.208079D+00  0.000000D+00  0.000000D+00
      3   0.000000D+00  0.000000D+00  0.000000D+00 -0.154289D+00  0.309630D+00
      4   0.000000D+00 -0.492454D+00  0.000000D+00  0.000000D+00  0.000000D+00
      5  -0.990655D-01  0.000000D+00  0.955932D-01  0.000000D+00  0.000000D+00
      6   0.000000D+00  0.000000D+00  0.000000D+00  0.792242D-01 -0.155807D+00
      7   0.000000D+00  0.228267D+00  0.000000D+00  0.000000D+00  0.000000D+00
      8   0.000000D+00  0.000000D+00  0.000000D+00 -0.573610D+00 -0.544538D+00
      9  -0.140516D+00  0.000000D+00  0.303354D+00  0.000000D+00  0.000000D+00
     10   0.000000D+00  0.000000D+00  0.000000D+00  0.000000D+00  0.000000D+00
     11   0.000000D+00  0.192112D+00  0.000000D+00  0.000000D+00  0.000000D+00
     12   0.000000D+00  0.515049D+00  0.000000D+00  0.000000D+00  0.000000D+00
     13   0.000000D+00  0.248872D+00  0.000000D+00  0.000000D+00  0.000000D+00
     14   0.000000D+00  0.000000D+00  0.000000D+00  0.000000D+00  0.000000D+00
     15   0.517102D-01  0.000000D+00 -0.690852D-03  0.000000D+00  0.000000D+00
     16   0.000000D+00  0.000000D+00  0.000000D+00  0.179467D+00 -0.280542D+00
                26            27            28            29            30 
      1  -0.114023D+03 -0.114021D+03 -0.114015D+03 -0.114005D+03 -0.113993D+03
      2   0.000000D+00  0.000000D+00  0.000000D+00 -0.207585D-01  0.000000D+00
      3   0.000000D+00  0.000000D+00  0.000000D+00  0.000000D+00  0.000000D+00
      4   0.902982D-01  0.000000D+00  0.000000D+00  0.000000D+00  0.271308D+00
      5   0.000000D+00  0.000000D+00  0.000000D+00  0.173821D-01  0.000000D+00
      6   0.000000D+00  0.000000D+00  0.000000D+00  0.000000D+00  0.000000D+00
      7  -0.392085D-01  0.000000D+00  0.000000D+00  0.000000D+00 -0.145887D+00
      8   0.000000D+00  0.000000D+00  0.000000D+00  0.000000D+00  0.000000D+00
      9   0.000000D+00  0.000000D+00  0.000000D+00 -0.166158D+00  0.000000D+00
     10   0.000000D+00 -0.162378D-01  0.352604D-01  0.000000D+00  0.000000D+00
     11   0.330865D+00  0.000000D+00  0.000000D+00  0.000000D+00 -0.180866D+00
     12   0.106894D+01  0.000000D+00  0.000000D+00  0.000000D+00  0.456003D+00
     13   0.255653D+00  0.000000D+00  0.000000D+00  0.000000D+00 -0.147564D+00
     14   0.000000D+00 -0.262640D+00  0.302457D+00  0.000000D+00  0.000000D+00
     15   0.000000D+00  0.000000D+00  0.000000D+00  0.112194D-01  0.000000D+00
     16   0.000000D+00  0.000000D+00  0.000000D+00  0.000000D+00  0.000000D+00

 Test job not archived.
 1\1\GINC-BHD0013\SP\RB3LYP TD-FC\6-311+G(d,p)\C1H2O1\BWEIGHT\17-Sep-20
 21\0\\#p B3LYP/6-311+G** #p TD=(singlets,nstates=30)IOp(6/8=3) IOp(9/4
 0=4)\\Scan Step 154, Bond Length 1.27\\0,1\C,0,0.,0.,-0.52736\H,0,0.,0
 .93726,-1.11871\H,0,0.,-0.93726,-1.11871\O,0,0.,0.,0.74264\\Version=ES
 64L-G16RevA.03\State=1-A1\HF=-114.5353955\RMSD=4.056e-09\PG=C02V [C2(C
 1O1),SGV(H2)]\\@


 THE MEEK SHALL INHERIT THE EARTH.
 (THE REST OF US WILL ESCAPE TO THE STARS)
 Job cpu time:       0 days  0 hours  0 minutes 26.1 seconds.
 Elapsed time:       0 days  0 hours  0 minutes 26.8 seconds.
 File lengths (MBytes):  RWF=     79 Int=      0 D2E=      0 Chk=     32 Scr=      1
 Normal termination of Gaussian 16 at Fri Sep 17 10:52:45 2021.
