 Entering Gaussian System, Link 0=g16
 Initial command:
 /software/gaussian/g16-c01/avx2/g16/l1.exe "/local_scratch/16833617/Gau-3768.inp" -scrdir="/local_scratch/16833617/"
 Entering Link 1 = /software/gaussian/g16-c01/avx2/g16/l1.exe PID=      3769.
  
 Copyright (c) 1988-2019, Gaussian, Inc.  All Rights Reserved.
  
 This is part of the Gaussian(R) 16 program.  It is based on
 the Gaussian(R) 09 system (copyright 2009, Gaussian, Inc.),
 the Gaussian(R) 03 system (copyright 2003, Gaussian, Inc.),
 the Gaussian(R) 98 system (copyright 1998, Gaussian, Inc.),
 the Gaussian(R) 94 system (copyright 1995, Gaussian, Inc.),
 the Gaussian 92(TM) system (copyright 1992, Gaussian, Inc.),
 the Gaussian 90(TM) system (copyright 1990, Gaussian, Inc.),
 the Gaussian 88(TM) system (copyright 1988, Gaussian, Inc.),
 the Gaussian 86(TM) system (copyright 1986, Carnegie Mellon
 University), and the Gaussian 82(TM) system (copyright 1983,
 Carnegie Mellon University). Gaussian is a federally registered
 trademark of Gaussian, Inc.
  
 This software contains proprietary and confidential information,
 including trade secrets, belonging to Gaussian, Inc.
  
 This software is provided under written license and may be
 used, copied, transmitted, or stored only in accord with that
 written license.
  
 The following legend is applicable only to US Government
 contracts under FAR:
  
                    RESTRICTED RIGHTS LEGEND
  
 Use, reproduction and disclosure by the US Government is
 subject to restrictions as set forth in subparagraphs (a)
 and (c) of the Commercial Computer Software - Restricted
 Rights clause in FAR 52.227-19.
  
 Gaussian, Inc.
 340 Quinnipiac St., Bldg. 40, Wallingford CT 06492
  
  
 ---------------------------------------------------------------
 Warning -- This program may not be used in any manner that
 competes with the business of Gaussian, Inc. or will provide
 assistance to any competitor of Gaussian, Inc.  The licensee
 of this program is prohibited from giving any competitor of
 Gaussian, Inc. access to this program.  By using this program,
 the user acknowledges that Gaussian, Inc. is engaged in the
 business of creating and licensing software in the field of
 computational chemistry and represents and warrants to the
 licensee that it is not a competitor of Gaussian, Inc. and that
 it will not use this program in any manner prohibited above.
 ---------------------------------------------------------------
  

 Cite this work as:
 Gaussian 16, Revision C.01,
 M. J. Frisch, G. W. Trucks, H. B. Schlegel, G. E. Scuseria, 
 M. A. Robb, J. R. Cheeseman, G. Scalmani, V. Barone, 
 G. A. Petersson, H. Nakatsuji, X. Li, M. Caricato, A. V. Marenich, 
 J. Bloino, B. G. Janesko, R. Gomperts, B. Mennucci, H. P. Hratchian, 
 J. V. Ortiz, A. F. Izmaylov, J. L. Sonnenberg, D. Williams-Young, 
 F. Ding, F. Lipparini, F. Egidi, J. Goings, B. Peng, A. Petrone, 
 T. Henderson, D. Ranasinghe, V. G. Zakrzewski, J. Gao, N. Rega, 
 G. Zheng, W. Liang, M. Hada, M. Ehara, K. Toyota, R. Fukuda, 
 J. Hasegawa, M. Ishida, T. Nakajima, Y. Honda, O. Kitao, H. Nakai, 
 T. Vreven, K. Throssell, J. A. Montgomery, Jr., J. E. Peralta, 
 F. Ogliaro, M. J. Bearpark, J. J. Heyd, E. N. Brothers, K. N. Kudin, 
 V. N. Staroverov, T. A. Keith, R. Kobayashi, J. Normand, 
 K. Raghavachari, A. P. Rendell, J. C. Burant, S. S. Iyengar, 
 J. Tomasi, M. Cossi, J. M. Millam, M. Klene, C. Adamo, R. Cammi, 
 J. W. Ochterski, R. L. Martin, K. Morokuma, O. Farkas, 
 J. B. Foresman, and D. J. Fox, Gaussian, Inc., Wallingford CT, 2019.
 
 ******************************************
 Gaussian 16:  ES64L-G16RevC.01  3-Jul-2019
                23-May-2023 
 ******************************************
 %chk=geometry.chk
 %mem=10GB
 %nprocshared=24
 Will use up to   24 processors via shared memory.
 ------------------------------------
 #P wB97XD/6-311+G* pop=(NBO,saveNBO)
 ------------------------------------
 1/38=1,172=1/1;
 2/12=2,17=6,18=5,40=1/2;
 3/5=4,6=6,7=11,11=2,25=1,30=1,74=-58/1,2,3;
 4//1;
 5/5=2,38=5/2;
 6/7=2,8=2,9=2,10=2,28=1,40=1,73=1/1,7;
 99/5=1,9=1/99;
 Leave Link    1 at Tue May 23 16:47:25 2023, MaxMem=  1342177280 cpu:               1.3 elap:               0.1
 (Enter /software/gaussian/g16-c01/avx2/g16/l101.exe)
 -------
 TitleMe
 -------
 Symbolic Z-matrix:
 Charge =  1 Multiplicity = 1
 C                     0.0295    1.33973   0.06818 
 C                     1.43483   1.28668   0.00635 
 C                     2.11179   0.05106  -0.00544 
 C                     1.44507  -1.1372    0.03117 
 C                    -0.68793   0.16822   0.10995 
 H                    -0.47127   2.2984    0.07811 
 H                     2.02733   2.19652  -0.03221 
 H                     1.98967  -2.07643   0.02318 
 H                    -1.77163   0.18041   0.1582 
 N                     3.58636   0.05097  -0.06745 
 O                     4.14712  -1.05966  -0.08808 
 O                     4.14498   1.16391  -0.09011 
 C                    -0.02361  -1.14583   0.08353 
 H                    -0.43675  -1.87247   0.7889 
 Br                   -0.53592  -1.86972  -1.74079 
 
 ITRead=  0  0  0  0  0  0  0  0  0  0  0  0  0  0  0
 MicOpt= -1 -1 -1 -1 -1 -1 -1 -1 -1 -1 -1 -1 -1 -1 -1
 NAtoms=     15 NQM=       15 NQMF=       0 NMMI=      0 NMMIF=      0
                NMic=       0 NMicF=      0.
                    Isotopes and Nuclear Properties:
 (Nuclear quadrupole moments (NQMom) in fm**2, nuclear magnetic moments (NMagM)
  in nuclear magnetons)

  Atom         1           2           3           4           5           6           7           8           9          10
 IAtWgt=          12          12          12          12          12           1           1           1           1          14
 AtmWgt=  12.0000000  12.0000000  12.0000000  12.0000000  12.0000000   1.0078250   1.0078250   1.0078250   1.0078250  14.0030740
 NucSpn=           0           0           0           0           0           1           1           1           1           2
 AtZEff=  -0.0000000  -0.0000000  -0.0000000  -0.0000000  -0.0000000  -0.0000000  -0.0000000  -0.0000000  -0.0000000  -0.0000000
 NQMom=    0.0000000   0.0000000   0.0000000   0.0000000   0.0000000   0.0000000   0.0000000   0.0000000   0.0000000   2.0440000
 NMagM=    0.0000000   0.0000000   0.0000000   0.0000000   0.0000000   2.7928460   2.7928460   2.7928460   2.7928460   0.4037610
 AtZNuc=   6.0000000   6.0000000   6.0000000   6.0000000   6.0000000   1.0000000   1.0000000   1.0000000   1.0000000   7.0000000

  Atom        11          12          13          14          15
 IAtWgt=          16          16          12           1          79
 AtmWgt=  15.9949146  15.9949146  12.0000000   1.0078250  78.9183361
 NucSpn=           0           0           0           1           3
 AtZEff=  -0.0000000  -0.0000000  -0.0000000  -0.0000000  -0.0000000
 NQMom=    0.0000000   0.0000000   0.0000000   0.0000000  31.3000000
 NMagM=    0.0000000   0.0000000   0.0000000   2.7928460   2.1063990
 AtZNuc=   8.0000000   8.0000000   6.0000000   1.0000000  35.0000000
 Leave Link  101 at Tue May 23 16:47:25 2023, MaxMem=  1342177280 cpu:               3.6 elap:               0.2
 (Enter /software/gaussian/g16-c01/avx2/g16/l202.exe)
                          Input orientation:                          
 ---------------------------------------------------------------------
 Center     Atomic      Atomic             Coordinates (Angstroms)
 Number     Number       Type             X           Y           Z
 ---------------------------------------------------------------------
      1          6           0        0.029500    1.339726    0.068177
      2          6           0        1.434833    1.286680    0.006353
      3          6           0        2.111790    0.051061   -0.005441
      4          6           0        1.445066   -1.137201    0.031166
      5          6           0       -0.687932    0.168222    0.109953
      6          1           0       -0.471270    2.298397    0.078114
      7          1           0        2.027328    2.196517   -0.032206
      8          1           0        1.989665   -2.076432    0.023185
      9          1           0       -1.771635    0.180405    0.158196
     10          7           0        3.586359    0.050973   -0.067453
     11          8           0        4.147118   -1.059661   -0.088078
     12          8           0        4.144979    1.163910   -0.090108
     13          6           0       -0.023612   -1.145828    0.083535
     14          1           0       -0.436750   -1.872474    0.788896
     15         35           0       -0.535916   -1.869722   -1.740787
 ---------------------------------------------------------------------
                    Distance matrix (angstroms):
                    1          2          3          4          5
     1  C    0.000000
     2  C    1.407692   0.000000
     3  C    2.449900   1.408958   0.000000
     4  C    2.853132   2.424029   1.363021   0.000000
     5  C    1.374363   2.401626   2.804547   2.502003   0.000000
     6  H    1.081628   2.159155   3.424865   3.934193   2.141401
     7  H    2.176117   1.086435   2.147285   3.384778   3.392171
     8  H    3.938833   3.408613   2.131188   1.085729   3.495072
     9  H    2.143878   3.395340   3.889023   3.478418   1.084845
    10  N    3.785568   2.482234   1.475872   2.450840   4.279577
    11  O    4.768254   3.587579   2.320149   2.705792   4.992456
    12  O    4.122273   2.714640   2.319365   3.549555   4.938465
    13  C    2.486169   2.837272   2.449572   1.469637   1.472666
    14  H    3.324914   3.754390   3.290291   2.157780   2.165293
    15  Br   3.727278   4.110866   3.702861   2.756936   2.757093
                    6          7          8          9         10
     6  H    0.000000
     7  H    2.503106   0.000000
     8  H    5.019795   4.273474   0.000000
     9  H    2.486614   4.305006   4.388499   0.000000
    10  N    4.640739   2.652392   2.661484   5.364305   0.000000
    11  O    5.712589   3.885785   2.387636   6.052276   1.244341
    12  O    4.756586   2.356709   3.893331   6.002937   1.245471
    13  C    3.473199   3.923139   2.218772   2.195462   3.806182
    14  H    4.231142   4.827274   2.552529   2.528638   4.540747
    15  Br   4.548163   5.101350   3.087537   3.055513   4.845851
                   11         12         13         14         15
    11  O    0.000000
    12  O    2.223572   0.000000
    13  C    4.175148   4.768877   0.000000
    14  H    4.737256   5.566373   1.093724   0.000000
    15  Br   5.031744   5.817081   2.028455   2.531627   0.000000
 Stoichiometry    C6H5BrNO2(1+)
 Framework group  C1[X(C6H5BrNO2)]
 Deg. of freedom    39
 Full point group                 C1      NOp   1
 Largest Abelian subgroup         C1      NOp   1
 Largest concise Abelian subgroup C1      NOp   1
                         Standard orientation:                         
 ---------------------------------------------------------------------
 Center     Atomic      Atomic             Coordinates (Angstroms)
 Number     Number       Type             X           Y           Z
 ---------------------------------------------------------------------
      1          6           0        0.185365    2.270990   -0.120569
      2          6           0        1.347247    1.496722   -0.299839
      3          6           0        1.401609    0.160972    0.145112
      4          6           0        0.340440   -0.440599    0.753273
      5          6           0       -0.910584    1.710178    0.490381
      6          1           0        0.164354    3.295210   -0.467630
      7          1           0        2.226796    1.912423   -0.783499
      8          1           0        0.407751   -1.470839    1.089253
      9          1           0       -1.818505    2.284437    0.641361
     10          7           0        2.645040   -0.606046   -0.064077
     11          8           0        2.650062   -1.785716    0.331824
     12          8           0        3.586069   -0.005525   -0.616377
     13          6           0       -0.904512    0.313369    0.956892
     14          1           0       -1.353871    0.167078    1.943252
     15         35           0       -2.193950   -0.591024   -0.321408
 ---------------------------------------------------------------------
 Rotational constants (GHZ):           1.8252382           0.5518607           0.4575990
 Leave Link  202 at Tue May 23 16:47:25 2023, MaxMem=  1342177280 cpu:               0.3 elap:               0.1
 (Enter /software/gaussian/g16-c01/avx2/g16/l301.exe)
 Standard basis: 6-311+G(d) (5D, 7F)
 Ernie: Thresh=  0.10000D-02 Tol=  0.10000D-05 Strict=F.
 There are   273 symmetry adapted cartesian basis functions of A   symmetry.
 There are   261 symmetry adapted basis functions of A   symmetry.
   261 basis functions,   443 primitive gaussians,   273 cartesian basis functions
    49 alpha electrons       49 beta electrons
       nuclear repulsion energy       739.2118429386 Hartrees.
 IExCor= 4639 DFT=T Ex+Corr=wB97XD ExCW=0 ScaHFX=  1.000000
 ScaDFX=  1.000000  1.000000  1.000000  1.000000 ScalE2=  1.000000  1.000000
 IRadAn=      5 IRanWt=     -1 IRanGd=            0 ICorTp=0 IEmpDi=121
 HFx  wShort=  0.000000 wLong=  0.200000 cFull=  0.222036 cShort=  0.000000 cLong=  0.777964
 DFx  wShort=  0.000000 wLong=  0.200000 cFull=  0.000000 cShort=  0.000000 cLong=  1.000000
 NAtoms=   15 NActive=   15 NUniq=   15 SFac= 1.00D+00 NAtFMM=   60 NAOKFM=F Big=F
 Integral buffers will be    131072 words long.
 Raffenetti 2 integral format.
 Two-electron integral symmetry is turned on.
 R6Disp:  Grimme-D2 Dispersion energy=       -0.0077368466 Hartrees.
 Nuclear repulsion after empirical dispersion term =      739.2041060920 Hartrees.
 Leave Link  301 at Tue May 23 16:47:25 2023, MaxMem=  1342177280 cpu:               2.6 elap:               0.1
 (Enter /software/gaussian/g16-c01/avx2/g16/l302.exe)
 NPDir=0 NMtPBC=     1 NCelOv=     1 NCel=       1 NClECP=     1 NCelD=      1
         NCelK=      1 NCelE2=     1 NClLst=     1 CellRange=     0.0.
 One-electron integrals computed using PRISM.
 One-electron integral symmetry used in STVInt
 NBasis=   261 RedAO= T EigKep=  2.35D-06  NBF=   261
 NBsUse=   261 1.00D-06 EigRej= -1.00D+00 NBFU=   261
 Precomputing XC quadrature grid using
 IXCGrd= 4 IRadAn=           5 IRanWt=          -1 IRanGd=           0 AccXCQ= 0.00D+00.
 Generated NRdTot=       0 NPtTot=           0 NUsed=           0 NTot=          32
 NSgBfM=   273   273   273   273   273 MxSgAt=    15 MxSgA2=    15.
 Leave Link  302 at Tue May 23 16:47:26 2023, MaxMem=  1342177280 cpu:               9.6 elap:               0.4
 (Enter /software/gaussian/g16-c01/avx2/g16/l303.exe)
 DipDrv:  MaxL=1.
 Leave Link  303 at Tue May 23 16:47:26 2023, MaxMem=  1342177280 cpu:               1.2 elap:               0.1
 (Enter /software/gaussian/g16-c01/avx2/g16/l401.exe)
 ExpMin= 3.50D-02 ExpMax= 4.40D+05 ExpMxC= 1.51D+04 IAcc=3 IRadAn=         5 AccDes= 0.00D+00
 Harris functional with IExCor= 4639 and IRadAn=       5 diagonalized for initial guess.
 HarFok:  IExCor= 4639 AccDes= 0.00D+00 IRadAn=         5 IDoV= 1 UseB2=F ITyADJ=14
 ICtDFT=  3500011 ScaDFX=  1.000000  1.000000  1.000000  1.000000
 FoFCou: FMM=F IPFlag=           0 FMFlag=      100000 FMFlg1=           0
         NFxFlg=           0 DoJE=T BraDBF=F KetDBF=T FulRan=T
         wScrn=  0.000000 ICntrl=       500 IOpCl=  0 I1Cent=   200000004 NGrid=           0
         NMat0=    1 NMatS0=      1 NMatT0=    0 NMatD0=    1 NMtDS0=    0 NMtDT0=    0
 Petite list used in FoFCou.
 Harris En= -2970.59594237898    
 JPrj=0 DoOrth=F DoCkMO=F.
 Leave Link  401 at Tue May 23 16:47:26 2023, MaxMem=  1342177280 cpu:              14.0 elap:               0.6
 (Enter /software/gaussian/g16-c01/avx2/g16/l502.exe)
 Integral symmetry usage will be decided dynamically.
 Closed shell SCF:
 Using DIIS extrapolation, IDIIS=  1040.
 NGot=  1342177280 LenX=  1342018707 LenY=  1341943737
 Requested convergence on RMS density matrix=1.00D-08 within 128 cycles.
 Requested convergence on MAX density matrix=1.00D-06.
 Requested convergence on             energy=1.00D-06.
 No special actions if energy rises.
 Fock matrices will be formed incrementally for  20 cycles.

 Cycle   1  Pass 1  IDiag  1:
 FoFJK:  IHMeth= 1 ICntrl=       0 DoSepK=T KAlg= 0 I1Cent=           0 FoldK=F
 IRaf=         1 NMat=       1 IRICut=       1 DoRegI=T DoRafI=F ISym2E= 0 IDoP0=0 IntGTp=1.
 FoFCou: FMM=F IPFlag=           0 FMFlag=      100000 FMFlg1=           0
         NFxFlg=           0 DoJE=T BraDBF=F KetDBF=F FulRan=T
         wScrn=  0.000000 ICntrl=       500 IOpCl=  0 I1Cent=           0 NGrid=           0
         NMat0=    1 NMatS0=      1 NMatT0=    0 NMatD0=    1 NMtDS0=    0 NMtDT0=    0
 Symmetry not used in FoFCou.
 E= -3009.72647290170    
 DIIS: error= 3.20D-01 at cycle   1 NSaved=   1.
 NSaved= 1 IEnMin= 1 EnMin= -3009.72647290170     IErMin= 1 ErrMin= 3.20D-01
 ErrMax= 3.20D-01  0.00D+00 EMaxC= 1.00D-01 BMatC= 1.19D+01 BMatP= 1.19D+01
 IDIUse=3 WtCom= 0.00D+00 WtEn= 1.00D+00
 Coeff-Com:  0.100D+01
 Coeff-En:   0.100D+01
 Coeff:      0.100D+01
 Gap=     0.324 Goal=   None    Shift=    0.000
 GapD=    0.324 DampG=1.000 DampE=0.250 DampFc=0.2500 IDamp=-1.
 Damping current iteration by 2.50D-01
 RMSDP=4.00D-02 MaxDP=4.14D+00              OVMax= 2.55D-01

 Cycle   2  Pass 1  IDiag  1:
 RMSU=  3.98D-03    CP:  8.97D-01
 E= -3010.00863393813     Delta-E=       -0.282161036429 Rises=F Damp=T
 DIIS: error= 2.25D-01 at cycle   2 NSaved=   2.
 NSaved= 2 IEnMin= 2 EnMin= -3010.00863393813     IErMin= 2 ErrMin= 2.25D-01
 ErrMax= 2.25D-01  0.00D+00 EMaxC= 1.00D-01 BMatC= 5.45D+00 BMatP= 1.19D+01
 IDIUse=3 WtCom= 0.00D+00 WtEn= 1.00D+00
 Coeff-Com: -0.184D+01 0.284D+01
 Coeff-En:   0.000D+00 0.100D+01
 Coeff:      0.000D+00 0.100D+01
 Gap=     0.295 Goal=   None    Shift=    0.000
 RMSDP=3.13D-02 MaxDP=3.22D+00 DE=-2.82D-01 OVMax= 7.50D-02

 Cycle   3  Pass 1  IDiag  1:
 RMSU=  4.21D-03    CP:  5.67D-01  3.00D+00
 E= -3010.38672807941     Delta-E=       -0.378094141281 Rises=F Damp=F
 DIIS: error= 6.55D-02 at cycle   3 NSaved=   3.
 NSaved= 3 IEnMin= 3 EnMin= -3010.38672807941     IErMin= 3 ErrMin= 6.55D-02
 ErrMax= 6.55D-02  0.00D+00 EMaxC= 1.00D-01 BMatC= 7.29D-01 BMatP= 5.45D+00
 IDIUse=3 WtCom= 3.45D-01 WtEn= 6.55D-01
 Coeff-Com:  0.277D+01-0.364D+01 0.187D+01
 Coeff-En:   0.242D-01 0.000D+00 0.976D+00
 Coeff:      0.971D+00-0.126D+01 0.129D+01
 Gap=     0.261 Goal=   None    Shift=    0.000
 RMSDP=8.21D-03 MaxDP=4.39D-01 DE=-3.78D-01 OVMax= 6.56D-02

 Cycle   4  Pass 1  IDiag  1:
 RMSU=  4.48D-03    CP:  5.83D-01  2.13D+00  2.10D+00
 E= -3010.48946516184     Delta-E=       -0.102737082426 Rises=F Damp=F
 DIIS: error= 3.83D-02 at cycle   4 NSaved=   4.
 NSaved= 4 IEnMin= 4 EnMin= -3010.48946516184     IErMin= 4 ErrMin= 3.83D-02
 ErrMax= 3.83D-02  0.00D+00 EMaxC= 1.00D-01 BMatC= 2.30D-01 BMatP= 7.29D-01
 IDIUse=3 WtCom= 6.17D-01 WtEn= 3.83D-01
 Coeff-Com: -0.185D+00 0.259D+00 0.270D+00 0.655D+00
 Coeff-En:   0.000D+00 0.000D+00 0.195D+00 0.805D+00
 Coeff:     -0.114D+00 0.160D+00 0.242D+00 0.712D+00
 Gap=     0.263 Goal=   None    Shift=    0.000
 RMSDP=3.34D-03 MaxDP=2.73D-01 DE=-1.03D-01 OVMax= 2.74D-02

 Cycle   5  Pass 1  IDiag  1:
 RMSU=  1.17D-03    CP:  5.54D-01  2.53D+00  1.95D+00  8.91D-01
 E= -3010.53373491288     Delta-E=       -0.044269751038 Rises=F Damp=F
 DIIS: error= 6.85D-03 at cycle   5 NSaved=   5.
 NSaved= 5 IEnMin= 5 EnMin= -3010.53373491288     IErMin= 5 ErrMin= 6.85D-03
 ErrMax= 6.85D-03  0.00D+00 EMaxC= 1.00D-01 BMatC= 7.31D-03 BMatP= 2.30D-01
 IDIUse=3 WtCom= 9.32D-01 WtEn= 6.85D-02
 Coeff-Com: -0.136D+00 0.184D+00 0.394D-01 0.316D+00 0.596D+00
 Coeff-En:   0.000D+00 0.000D+00 0.000D+00 0.000D+00 0.100D+01
 Coeff:     -0.126D+00 0.171D+00 0.367D-01 0.294D+00 0.624D+00
 Gap=     0.256 Goal=   None    Shift=    0.000
 RMSDP=5.34D-04 MaxDP=3.43D-02 DE=-4.43D-02 OVMax= 1.03D-02

 Cycle   6  Pass 1  IDiag  1:
 RMSU=  4.16D-04    CP:  5.53D-01  2.51D+00  1.95D+00  8.84D-01  7.33D-01
 E= -3010.53520280340     Delta-E=       -0.001467890526 Rises=F Damp=F
 DIIS: error= 1.19D-03 at cycle   6 NSaved=   6.
 NSaved= 6 IEnMin= 6 EnMin= -3010.53520280340     IErMin= 6 ErrMin= 1.19D-03
 ErrMax= 1.19D-03  0.00D+00 EMaxC= 1.00D-01 BMatC= 1.54D-04 BMatP= 7.31D-03
 IDIUse=3 WtCom= 9.88D-01 WtEn= 1.19D-02
 Coeff-Com: -0.860D-01 0.116D+00-0.499D-02 0.143D+00 0.357D+00 0.476D+00
 Coeff-En:   0.000D+00 0.000D+00 0.000D+00 0.000D+00 0.000D+00 0.100D+01
 Coeff:     -0.850D-01 0.114D+00-0.493D-02 0.141D+00 0.353D+00 0.482D+00
 Gap=     0.256 Goal=   None    Shift=    0.000
 RMSDP=1.78D-04 MaxDP=1.16D-02 DE=-1.47D-03 OVMax= 5.24D-03

 Cycle   7  Pass 1  IDiag  1:
 RMSU=  1.06D-04    CP:  5.52D-01  2.50D+00  1.97D+00  8.91D-01  8.24D-01
                    CP:  8.77D-01
 E= -3010.53531170728     Delta-E=       -0.000108903873 Rises=F Damp=F
 DIIS: error= 5.29D-04 at cycle   7 NSaved=   7.
 NSaved= 7 IEnMin= 7 EnMin= -3010.53531170728     IErMin= 7 ErrMin= 5.29D-04
 ErrMax= 5.29D-04  0.00D+00 EMaxC= 1.00D-01 BMatC= 2.40D-05 BMatP= 1.54D-04
 IDIUse=3 WtCom= 9.95D-01 WtEn= 5.29D-03
 Coeff-Com: -0.356D-01 0.474D-01-0.131D-01 0.348D-01 0.108D+00 0.294D+00
 Coeff-Com:  0.564D+00
 Coeff-En:   0.000D+00 0.000D+00 0.000D+00 0.000D+00 0.000D+00 0.239D-01
 Coeff-En:   0.976D+00
 Coeff:     -0.354D-01 0.471D-01-0.131D-01 0.347D-01 0.107D+00 0.293D+00
 Coeff:      0.566D+00
 Gap=     0.256 Goal=   None    Shift=    0.000
 RMSDP=8.49D-05 MaxDP=6.00D-03 DE=-1.09D-04 OVMax= 2.51D-03

 Cycle   8  Pass 1  IDiag  1:
 RMSU=  4.92D-05    CP:  5.53D-01  2.49D+00  1.97D+00  8.97D-01  8.51D-01
                    CP:  9.33D-01  8.61D-01
 E= -3010.53533356647     Delta-E=       -0.000021859197 Rises=F Damp=F
 DIIS: error= 1.12D-04 at cycle   8 NSaved=   8.
 NSaved= 8 IEnMin= 8 EnMin= -3010.53533356647     IErMin= 8 ErrMin= 1.12D-04
 ErrMax= 1.12D-04  0.00D+00 EMaxC= 1.00D-01 BMatC= 2.33D-06 BMatP= 2.40D-05
 IDIUse=3 WtCom= 9.99D-01 WtEn= 1.12D-03
 Coeff-Com:  0.618D-02-0.847D-02-0.289D-02-0.160D-01-0.408D-01-0.250D-01
 Coeff-Com:  0.169D+00 0.918D+00
 Coeff-En:   0.000D+00 0.000D+00 0.000D+00 0.000D+00 0.000D+00 0.000D+00
 Coeff-En:   0.000D+00 0.100D+01
 Coeff:      0.618D-02-0.847D-02-0.288D-02-0.160D-01-0.408D-01-0.250D-01
 Coeff:      0.169D+00 0.918D+00
 Gap=     0.256 Goal=   None    Shift=    0.000
 RMSDP=5.66D-05 MaxDP=4.64D-03 DE=-2.19D-05 OVMax= 2.00D-03

 Cycle   9  Pass 1  IDiag  1:
 RMSU=  2.21D-05    CP:  5.53D-01  2.49D+00  1.98D+00  8.97D-01  8.56D-01
                    CP:  1.02D+00  1.06D+00  1.29D+00
 E= -3010.53533861946     Delta-E=       -0.000005052982 Rises=F Damp=F
 DIIS: error= 4.57D-05 at cycle   9 NSaved=   9.
 NSaved= 9 IEnMin= 9 EnMin= -3010.53533861946     IErMin= 9 ErrMin= 4.57D-05
 ErrMax= 4.57D-05  0.00D+00 EMaxC= 1.00D-01 BMatC= 2.36D-07 BMatP= 2.33D-06
 IDIUse=1 WtCom= 1.00D+00 WtEn= 0.00D+00
 Coeff-Com:  0.664D-02-0.891D-02 0.806D-03-0.969D-02-0.252D-01-0.492D-01
 Coeff-Com: -0.315D-01 0.279D+00 0.838D+00
 Coeff:      0.664D-02-0.891D-02 0.806D-03-0.969D-02-0.252D-01-0.492D-01
 Coeff:     -0.315D-01 0.279D+00 0.838D+00
 Gap=     0.256 Goal=   None    Shift=    0.000
 RMSDP=1.65D-05 MaxDP=1.00D-03 DE=-5.05D-06 OVMax= 9.11D-04

 Cycle  10  Pass 1  IDiag  1:
 RMSU=  6.96D-06    CP:  5.53D-01  2.49D+00  1.98D+00  8.97D-01  8.61D-01
                    CP:  1.04D+00  1.11D+00  1.41D+00  1.10D+00
 E= -3010.53533941505     Delta-E=       -0.000000795589 Rises=F Damp=F
 DIIS: error= 1.59D-05 at cycle  10 NSaved=  10.
 NSaved=10 IEnMin=10 EnMin= -3010.53533941505     IErMin=10 ErrMin= 1.59D-05
 ErrMax= 1.59D-05  0.00D+00 EMaxC= 1.00D-01 BMatC= 5.27D-08 BMatP= 2.36D-07
 IDIUse=1 WtCom= 1.00D+00 WtEn= 0.00D+00
 Coeff-Com:  0.415D-03-0.533D-03 0.350D-03-0.200D-03 0.124D-02-0.665D-02
 Coeff-Com: -0.314D-01-0.587D-01 0.234D+00 0.861D+00
 Coeff:      0.415D-03-0.533D-03 0.350D-03-0.200D-03 0.124D-02-0.665D-02
 Coeff:     -0.314D-01-0.587D-01 0.234D+00 0.861D+00
 Gap=     0.256 Goal=   None    Shift=    0.000
 RMSDP=8.16D-06 MaxDP=5.88D-04 DE=-7.96D-07 OVMax= 3.59D-04

 Cycle  11  Pass 1  IDiag  1:
 RMSU=  3.92D-06    CP:  5.53D-01  2.49D+00  1.98D+00  8.97D-01  8.60D-01
                    CP:  1.05D+00  1.12D+00  1.44D+00  1.24D+00  1.10D+00
 E= -3010.53533953647     Delta-E=       -0.000000121427 Rises=F Damp=F
 DIIS: error= 6.86D-06 at cycle  11 NSaved=  11.
 NSaved=11 IEnMin=11 EnMin= -3010.53533953647     IErMin=11 ErrMin= 6.86D-06
 ErrMax= 6.86D-06  0.00D+00 EMaxC= 1.00D-01 BMatC= 3.15D-09 BMatP= 5.27D-08
 IDIUse=1 WtCom= 1.00D+00 WtEn= 0.00D+00
 Coeff-Com: -0.293D-03 0.394D-03 0.322D-04 0.777D-03 0.258D-02 0.524D-02
 Coeff-Com:  0.461D-02-0.279D-01-0.105D+00-0.103D-01 0.113D+01
 Coeff:     -0.293D-03 0.394D-03 0.322D-04 0.777D-03 0.258D-02 0.524D-02
 Coeff:      0.461D-02-0.279D-01-0.105D+00-0.103D-01 0.113D+01
 Gap=     0.256 Goal=   None    Shift=    0.000
 RMSDP=2.98D-06 MaxDP=1.49D-04 DE=-1.21D-07 OVMax= 1.75D-04

 Cycle  12  Pass 1  IDiag  1:
 RMSU=  1.04D-06    CP:  5.53D-01  2.49D+00  1.97D+00  8.97D-01  8.60D-01
                    CP:  1.05D+00  1.12D+00  1.44D+00  1.28D+00  1.28D+00
                    CP:  1.30D+00
 E= -3010.53533955510     Delta-E=       -0.000000018627 Rises=F Damp=F
 DIIS: error= 1.81D-06 at cycle  12 NSaved=  12.
 NSaved=12 IEnMin=12 EnMin= -3010.53533955510     IErMin=12 ErrMin= 1.81D-06
 ErrMax= 1.81D-06  0.00D+00 EMaxC= 1.00D-01 BMatC= 9.20D-10 BMatP= 3.15D-09
 IDIUse=1 WtCom= 1.00D+00 WtEn= 0.00D+00
 Coeff-Com: -0.165D-03 0.220D-03-0.156D-04 0.348D-03 0.750D-03 0.263D-02
 Coeff-Com:  0.570D-02-0.429D-02-0.730D-01-0.114D+00 0.497D+00 0.684D+00
 Coeff:     -0.165D-03 0.220D-03-0.156D-04 0.348D-03 0.750D-03 0.263D-02
 Coeff:      0.570D-02-0.429D-02-0.730D-01-0.114D+00 0.497D+00 0.684D+00
 Gap=     0.256 Goal=   None    Shift=    0.000
 RMSDP=1.06D-06 MaxDP=7.95D-05 DE=-1.86D-08 OVMax= 4.24D-05

 Cycle  13  Pass 1  IDiag  1:
 RMSU=  3.23D-07    CP:  5.53D-01  2.49D+00  1.97D+00  8.96D-01  8.60D-01
                    CP:  1.05D+00  1.12D+00  1.44D+00  1.28D+00  1.30D+00
                    CP:  1.44D+00  8.16D-01
 E= -3010.53533955707     Delta-E=       -0.000000001974 Rises=F Damp=F
 DIIS: error= 6.46D-07 at cycle  13 NSaved=  13.
 NSaved=13 IEnMin=13 EnMin= -3010.53533955707     IErMin=13 ErrMin= 6.46D-07
 ErrMax= 6.46D-07  0.00D+00 EMaxC= 1.00D-01 BMatC= 9.93D-11 BMatP= 9.20D-10
 IDIUse=1 WtCom= 1.00D+00 WtEn= 0.00D+00
 Coeff-Com: -0.251D-04 0.336D-04-0.785D-05-0.188D-04-0.318D-03-0.556D-03
 Coeff-Com:  0.102D-04 0.281D-02 0.293D-02-0.163D-01-0.590D-01 0.165D+00
 Coeff-Com:  0.905D+00
 Coeff:     -0.251D-04 0.336D-04-0.785D-05-0.188D-04-0.318D-03-0.556D-03
 Coeff:      0.102D-04 0.281D-02 0.293D-02-0.163D-01-0.590D-01 0.165D+00
 Coeff:      0.905D+00
 Gap=     0.256 Goal=   None    Shift=    0.000
 RMSDP=2.86D-07 MaxDP=1.42D-05 DE=-1.97D-09 OVMax= 1.08D-05

 Cycle  14  Pass 1  IDiag  1:
 RMSU=  1.64D-07    CP:  5.53D-01  2.49D+00  1.97D+00  8.96D-01  8.60D-01
                    CP:  1.05D+00  1.12D+00  1.44D+00  1.28D+00  1.30D+00
                    CP:  1.47D+00  9.70D-01  1.11D+00
 E= -3010.53533955725     Delta-E=       -0.000000000181 Rises=F Damp=F
 DIIS: error= 1.98D-07 at cycle  14 NSaved=  14.
 NSaved=14 IEnMin=14 EnMin= -3010.53533955725     IErMin=14 ErrMin= 1.98D-07
 ErrMax= 1.98D-07  0.00D+00 EMaxC= 1.00D-01 BMatC= 1.04D-11 BMatP= 9.93D-11
 IDIUse=1 WtCom= 1.00D+00 WtEn= 0.00D+00
 Coeff-Com: -0.485D-06 0.844D-06-0.352D-05-0.360D-04-0.183D-03-0.479D-03
 Coeff-Com: -0.558D-03 0.167D-02 0.889D-02 0.569D-02-0.818D-01-0.423D-03
 Coeff-Com:  0.293D+00 0.774D+00
 Coeff:     -0.485D-06 0.844D-06-0.352D-05-0.360D-04-0.183D-03-0.479D-03
 Coeff:     -0.558D-03 0.167D-02 0.889D-02 0.569D-02-0.818D-01-0.423D-03
 Coeff:      0.293D+00 0.774D+00
 Gap=     0.256 Goal=   None    Shift=    0.000
 RMSDP=7.42D-08 MaxDP=3.44D-06 DE=-1.81D-10 OVMax= 3.75D-06

 Cycle  15  Pass 1  IDiag  1:
 RMSU=  4.03D-08    CP:  5.53D-01  2.49D+00  1.97D+00  8.96D-01  8.60D-01
                    CP:  1.05D+00  1.12D+00  1.44D+00  1.28D+00  1.30D+00
                    CP:  1.47D+00  1.01D+00  1.17D+00  1.13D+00
 E= -3010.53533955729     Delta-E=       -0.000000000040 Rises=F Damp=F
 DIIS: error= 1.06D-07 at cycle  15 NSaved=  15.
 NSaved=15 IEnMin=15 EnMin= -3010.53533955729     IErMin=15 ErrMin= 1.06D-07
 ErrMax= 1.06D-07  0.00D+00 EMaxC= 1.00D-01 BMatC= 2.18D-12 BMatP= 1.04D-11
 IDIUse=1 WtCom= 1.00D+00 WtEn= 0.00D+00
 Coeff-Com:  0.431D-05-0.576D-05 0.195D-06-0.480D-05 0.154D-04-0.192D-04
 Coeff-Com: -0.112D-03-0.366D-04 0.136D-02 0.413D-02-0.110D-01-0.155D-01
 Coeff-Com: -0.106D+00 0.243D+00 0.884D+00
 Coeff:      0.431D-05-0.576D-05 0.195D-06-0.480D-05 0.154D-04-0.192D-04
 Coeff:     -0.112D-03-0.366D-04 0.136D-02 0.413D-02-0.110D-01-0.155D-01
 Coeff:     -0.106D+00 0.243D+00 0.884D+00
 Gap=     0.256 Goal=   None    Shift=    0.000
 RMSDP=4.46D-08 MaxDP=3.09D-06 DE=-4.00D-11 OVMax= 2.61D-06

 Cycle  16  Pass 1  IDiag  1:
 RMSU=  2.02D-08    CP:  5.53D-01  2.49D+00  1.97D+00  8.96D-01  8.60D-01
                    CP:  1.05D+00  1.12D+00  1.44D+00  1.28D+00  1.30D+00
                    CP:  1.47D+00  1.02D+00  1.17D+00  1.29D+00  1.30D+00
 E= -3010.53533955729     Delta-E=        0.000000000000 Rises=F Damp=F
 DIIS: error= 3.38D-08 at cycle  16 NSaved=  16.
 NSaved=16 IEnMin=15 EnMin= -3010.53533955729     IErMin=16 ErrMin= 3.38D-08
 ErrMax= 3.38D-08  0.00D+00 EMaxC= 1.00D-01 BMatC= 4.69D-13 BMatP= 2.18D-12
 IDIUse=1 WtCom= 1.00D+00 WtEn= 0.00D+00
 Coeff-Com:  0.114D-05-0.154D-05 0.577D-06 0.436D-05 0.337D-04 0.669D-04
 Coeff-Com:  0.414D-04-0.284D-03-0.982D-03 0.838D-03 0.774D-02-0.469D-04
 Coeff-Com: -0.896D-01-0.271D-01 0.295D+00 0.815D+00
 Coeff:      0.114D-05-0.154D-05 0.577D-06 0.436D-05 0.337D-04 0.669D-04
 Coeff:      0.414D-04-0.284D-03-0.982D-03 0.838D-03 0.774D-02-0.469D-04
 Coeff:     -0.896D-01-0.271D-01 0.295D+00 0.815D+00
 Gap=     0.256 Goal=   None    Shift=    0.000
 RMSDP=2.69D-08 MaxDP=1.70D-06 DE= 4.55D-13 OVMax= 1.27D-06

 Cycle  17  Pass 1  IDiag  1:
 RMSU=  7.23D-09    CP:  5.53D-01  2.49D+00  1.97D+00  8.96D-01  8.60D-01
                    CP:  1.05D+00  1.12D+00  1.44D+00  1.28D+00  1.30D+00
                    CP:  1.47D+00  1.04D+00  1.15D+00  1.34D+00  1.63D+00
                    CP:  1.25D+00
 E= -3010.53533955729     Delta-E=        0.000000000001 Rises=F Damp=F
 DIIS: error= 2.09D-08 at cycle  17 NSaved=  17.
 NSaved=17 IEnMin=15 EnMin= -3010.53533955729     IErMin=17 ErrMin= 2.09D-08
 ErrMax= 2.09D-08  0.00D+00 EMaxC= 1.00D-01 BMatC= 9.14D-14 BMatP= 4.69D-13
 IDIUse=1 WtCom= 1.00D+00 WtEn= 0.00D+00
 Coeff-Com: -0.303D-06 0.402D-06 0.145D-06 0.131D-05 0.210D-05 0.142D-04
 Coeff-Com:  0.298D-04-0.196D-04-0.478D-03-0.475D-03 0.310D-02 0.561D-02
 Coeff-Com: -0.185D-02-0.578D-01-0.145D+00 0.102D+00 0.109D+01
 Coeff:     -0.303D-06 0.402D-06 0.145D-06 0.131D-05 0.210D-05 0.142D-04
 Coeff:      0.298D-04-0.196D-04-0.478D-03-0.475D-03 0.310D-02 0.561D-02
 Coeff:     -0.185D-02-0.578D-01-0.145D+00 0.102D+00 0.109D+01
 Gap=     0.256 Goal=   None    Shift=    0.000
 RMSDP=1.98D-08 MaxDP=1.69D-06 DE= 9.09D-13 OVMax= 1.10D-06

 Cycle  18  Pass 1  IDiag  1:
 RMSU=  4.33D-09    CP:  5.53D-01  2.49D+00  1.97D+00  8.96D-01  8.60D-01
                    CP:  1.05D+00  1.12D+00  1.44D+00  1.28D+00  1.30D+00
                    CP:  1.47D+00  1.04D+00  1.13D+00  1.39D+00  1.79D+00
                    CP:  1.63D+00  1.47D+00
 E= -3010.53533955731     Delta-E=       -0.000000000021 Rises=F Damp=F
 DIIS: error= 6.68D-09 at cycle  18 NSaved=  18.
 NSaved=18 IEnMin=18 EnMin= -3010.53533955731     IErMin=18 ErrMin= 6.68D-09
 ErrMax= 6.68D-09  0.00D+00 EMaxC= 1.00D-01 BMatC= 2.70D-14 BMatP= 9.14D-14
 IDIUse=1 WtCom= 1.00D+00 WtEn= 0.00D+00
 Coeff-Com: -0.752D-07 0.103D-06-0.104D-06-0.136D-05-0.983D-05-0.164D-04
 Coeff-Com: -0.444D-05 0.972D-04 0.143D-03-0.377D-03-0.194D-02 0.252D-02
 Coeff-Com:  0.250D-01 0.222D-02-0.109D+00-0.266D+00 0.320D+00 0.103D+01
 Coeff:     -0.752D-07 0.103D-06-0.104D-06-0.136D-05-0.983D-05-0.164D-04
 Coeff:     -0.444D-05 0.972D-04 0.143D-03-0.377D-03-0.194D-02 0.252D-02
 Coeff:      0.250D-01 0.222D-02-0.109D+00-0.266D+00 0.320D+00 0.103D+01
 Gap=     0.256 Goal=   None    Shift=    0.000
 RMSDP=9.79D-09 MaxDP=4.11D-07 DE=-2.14D-11 OVMax= 5.59D-07

 SCF Done:  E(RwB97XD) =  -3010.53533956     A.U. after   18 cycles
            NFock= 18  Conv=0.98D-08     -V/T= 2.0016
 KE= 3.005854001614D+03 PE=-8.632138053437D+03 EE= 1.876544606174D+03
 Leave Link  502 at Tue May 23 16:47:50 2023, MaxMem=  1342177280 cpu:             567.5 elap:              23.7
 (Enter /software/gaussian/g16-c01/avx2/g16/l601.exe)
 Copying SCF densities to generalized density rwf, IOpCl= 0 IROHF=0.

 **********************************************************************

            Population analysis using the SCF Density.

 **********************************************************************

 Orbital symmetries:
       Occupied  (A) (A) (A) (A) (A) (A) (A) (A) (A) (A) (A) (A)
                 (A) (A) (A) (A) (A) (A) (A) (A) (A) (A) (A) (A)
                 (A) (A) (A) (A) (A) (A) (A) (A) (A) (A) (A) (A)
                 (A) (A) (A) (A) (A) (A) (A) (A) (A) (A) (A) (A)
                 (A)
       Virtual   (A) (A) (A) (A) (A) (A) (A) (A) (A) (A) (A) (A)
                 (A) (A) (A) (A) (A) (A) (A) (A) (A) (A) (A) (A)
                 (A) (A) (A) (A) (A) (A) (A) (A) (A) (A) (A) (A)
                 (A) (A) (A) (A) (A) (A) (A) (A) (A) (A) (A) (A)
                 (A) (A) (A) (A) (A) (A) (A) (A) (A) (A) (A) (A)
                 (A) (A) (A) (A) (A) (A) (A) (A) (A) (A) (A) (A)
                 (A) (A) (A) (A) (A) (A) (A) (A) (A) (A) (A) (A)
                 (A) (A) (A) (A) (A) (A) (A) (A) (A) (A) (A) (A)
                 (A) (A) (A) (A) (A) (A) (A) (A) (A) (A) (A) (A)
                 (A) (A) (A) (A) (A) (A) (A) (A) (A) (A) (A) (A)
                 (A) (A) (A) (A) (A) (A) (A) (A) (A) (A) (A) (A)
                 (A) (A) (A) (A) (A) (A) (A) (A) (A) (A) (A) (A)
                 (A) (A) (A) (A) (A) (A) (A) (A) (A) (A) (A) (A)
                 (A) (A) (A) (A) (A) (A) (A) (A) (A) (A) (A) (A)
                 (A) (A) (A) (A) (A) (A) (A) (A) (A) (A) (A) (A)
                 (A) (A) (A) (A) (A) (A) (A) (A) (A) (A) (A) (A)
                 (A) (A) (A) (A) (A) (A) (A) (A) (A) (A) (A) (A)
                 (A) (A) (A) (A) (A) (A) (A) (A)
 The electronic state is 1-A.
 Alpha  occ. eigenvalues -- -483.31077 -62.86104 -56.65793 -56.65225 -56.65223
 Alpha  occ. eigenvalues --  -19.45661 -19.45590 -14.85165 -10.58095 -10.57294
 Alpha  occ. eigenvalues --  -10.56966 -10.56773 -10.56520 -10.52725  -9.01911
 Alpha  occ. eigenvalues --   -6.84580  -6.82720  -6.82706  -2.94487  -2.93993
 Alpha  occ. eigenvalues --   -2.93980  -2.92492  -2.92491  -1.49427  -1.32401
 Alpha  occ. eigenvalues --   -1.22417  -1.13847  -1.11526  -1.04210  -1.00814
 Alpha  occ. eigenvalues --   -0.95232  -0.90722  -0.85053  -0.80530  -0.80415
 Alpha  occ. eigenvalues --   -0.79767  -0.78071  -0.75875  -0.75687  -0.72069
 Alpha  occ. eigenvalues --   -0.69115  -0.67321  -0.63456  -0.59921  -0.56937
 Alpha  occ. eigenvalues --   -0.56237  -0.55925  -0.55400  -0.55035
 Alpha virt. eigenvalues --   -0.29400  -0.21087  -0.15429  -0.13152  -0.08511
 Alpha virt. eigenvalues --   -0.05940  -0.05447  -0.04608  -0.04463  -0.02975
 Alpha virt. eigenvalues --   -0.02290  -0.02145  -0.01222  -0.00850   0.00539
 Alpha virt. eigenvalues --    0.01102   0.01759   0.01984   0.02780   0.02949
 Alpha virt. eigenvalues --    0.04612   0.05005   0.05242   0.06152   0.06882
 Alpha virt. eigenvalues --    0.07245   0.07504   0.07810   0.08912   0.09476
 Alpha virt. eigenvalues --    0.10714   0.11240   0.11272   0.12024   0.12724
 Alpha virt. eigenvalues --    0.12842   0.13242   0.13698   0.15222   0.16310
 Alpha virt. eigenvalues --    0.16616   0.17354   0.17879   0.18652   0.19109
 Alpha virt. eigenvalues --    0.19428   0.21112   0.21553   0.21860   0.24540
 Alpha virt. eigenvalues --    0.25422   0.27887   0.28284   0.29444   0.31498
 Alpha virt. eigenvalues --    0.33104   0.33806   0.34175   0.34910   0.36189
 Alpha virt. eigenvalues --    0.37324   0.38118   0.39241   0.40763   0.41841
 Alpha virt. eigenvalues --    0.42704   0.43863   0.44417   0.46521   0.47563
 Alpha virt. eigenvalues --    0.47889   0.50277   0.50996   0.52319   0.53694
 Alpha virt. eigenvalues --    0.54335   0.55300   0.56801   0.57077   0.59606
 Alpha virt. eigenvalues --    0.61369   0.62419   0.64234   0.66945   0.68753
 Alpha virt. eigenvalues --    0.70348   0.72231   0.72736   0.73397   0.74399
 Alpha virt. eigenvalues --    0.74638   0.79467   0.80070   0.83181   0.85267
 Alpha virt. eigenvalues --    0.86509   0.88125   0.91962   0.93204   0.98715
 Alpha virt. eigenvalues --    0.99758   1.01207   1.04805   1.05503   1.06701
 Alpha virt. eigenvalues --    1.09271   1.11122   1.12173   1.12620   1.14391
 Alpha virt. eigenvalues --    1.22202   1.24659   1.26887   1.33115   1.36642
 Alpha virt. eigenvalues --    1.37016   1.38153   1.45287   1.54524   1.57258
 Alpha virt. eigenvalues --    1.58639   1.58916   1.60759   1.62532   1.66454
 Alpha virt. eigenvalues --    1.69285   1.69857   1.73688   1.75445   1.79183
 Alpha virt. eigenvalues --    1.81260   1.85606   1.87519   1.93532   1.95640
 Alpha virt. eigenvalues --    1.97967   2.03066   2.03963   2.06969   2.08180
 Alpha virt. eigenvalues --    2.09739   2.14878   2.20534   2.22812   2.29497
 Alpha virt. eigenvalues --    2.37745   2.41311   2.42690   2.43643   2.52621
 Alpha virt. eigenvalues --    2.56818   2.63183   2.66231   2.68346   2.71889
 Alpha virt. eigenvalues --    2.73548   2.76670   2.77505   2.81196   2.81904
 Alpha virt. eigenvalues --    2.93643   2.96468   3.00831   3.05715   3.09075
 Alpha virt. eigenvalues --    3.13139   3.15077   3.19205   3.23842   3.24441
 Alpha virt. eigenvalues --    3.27530   3.39285   3.47779   3.51386   3.54637
 Alpha virt. eigenvalues --    3.57010   3.70109   3.74291   3.82310   3.87307
 Alpha virt. eigenvalues --    4.09031   4.09264   4.16763   4.21979   4.42801
 Alpha virt. eigenvalues --    4.44532   4.57578   4.60062   4.93380   4.96047
 Alpha virt. eigenvalues --    5.04695   5.08863   5.63013   6.15950   6.64745
 Alpha virt. eigenvalues --    7.47709   7.49284   7.59064  23.21449  23.61428
 Alpha virt. eigenvalues --   23.69717  23.79606  23.96180  24.01545  35.32792
 Alpha virt. eigenvalues --   47.91329  49.85762  49.94573 289.80660 289.82327
 Alpha virt. eigenvalues --  289.947701020.91752
          Condensed to atoms (all electrons):
               1          2          3          4          5          6
     1  C    8.828917  -2.296611   0.218982  -1.571632  -0.617642   0.309225
     2  C   -2.296611  12.737268  -1.767110  -2.572587   0.724354  -0.014057
     3  C    0.218982  -1.767110  13.042037  -3.139134  -1.254992   0.023441
     4  C   -1.571632  -2.572587  -3.139134  14.690251   1.251823   0.010144
     5  C   -0.617642   0.724354  -1.254992   1.251823   7.352503   0.014692
     6  H    0.309225  -0.014057   0.023441   0.010144   0.014692   0.335889
     7  H    0.068170   0.231335   0.077195  -0.032983  -0.019716  -0.001811
     8  H    0.003808  -0.010405   0.072926   0.246925  -0.018875   0.000001
     9  H    0.031573  -0.013677   0.003648  -0.006623   0.309224  -0.002327
    10  N   -0.144862   0.342513  -0.918352   0.321446   0.017321  -0.000622
    11  O    0.013704  -0.069945  -0.261646  -0.012769  -0.056200  -0.000023
    12  O    0.325024  -0.036957  -0.280670  -0.087583  -0.042853   0.000015
    13  C    1.376607  -1.774846   0.851086  -3.367491  -1.697223  -0.008027
    14  H   -0.010533  -0.002528   0.004119  -0.064440  -0.021272  -0.000052
    15  Br   0.042780   0.006058   0.045485   0.047241   0.054812  -0.000392
               7          8          9         10         11         12
     1  C    0.068170   0.003808   0.031573  -0.144862   0.013704   0.325024
     2  C    0.231335  -0.010405  -0.013677   0.342513  -0.069945  -0.036957
     3  C    0.077195   0.072926   0.003648  -0.918352  -0.261646  -0.280670
     4  C   -0.032983   0.246925  -0.006623   0.321446  -0.012769  -0.087583
     5  C   -0.019716  -0.018875   0.309224   0.017321  -0.056200  -0.042853
     6  H   -0.001811   0.000001  -0.002327  -0.000622  -0.000023   0.000015
     7  H    0.301398  -0.000002   0.000013  -0.025706  -0.001490   0.022309
     8  H   -0.000002   0.294651   0.000103  -0.023721   0.022710  -0.000884
     9  H    0.000013   0.000103   0.326328   0.000389   0.000006   0.000006
    10  N   -0.025706  -0.023721   0.000389   7.350464   0.189596   0.154748
    11  O   -0.001490   0.022710   0.000006   0.189596   7.837629   0.000756
    12  O    0.022309  -0.000884   0.000006   0.154748   0.000756   7.874251
    13  C    0.015108   0.040592   0.005093  -0.160452   0.306625   0.042029
    14  H   -0.000018  -0.004105  -0.005500  -0.000170  -0.000269  -0.000071
    15  Br  -0.000082   0.002523   0.000944   0.004320   0.000277   0.002021
              13         14         15
     1  C    1.376607  -0.010533   0.042780
     2  C   -1.774846  -0.002528   0.006058
     3  C    0.851086   0.004119   0.045485
     4  C   -3.367491  -0.064440   0.047241
     5  C   -1.697223  -0.021272   0.054812
     6  H   -0.008027  -0.000052  -0.000392
     7  H    0.015108  -0.000018  -0.000082
     8  H    0.040592  -0.004105   0.002523
     9  H    0.005093  -0.005500   0.000944
    10  N   -0.160452  -0.000170   0.004320
    11  O    0.306625  -0.000269   0.000277
    12  O    0.042029  -0.000071   0.002021
    13  C   10.468464   0.399431  -0.027071
    14  H    0.399431   0.342517  -0.041068
    15  Br  -0.027071  -0.041068  34.687030
 Mulliken charges:
               1
     1  C   -0.577511
     2  C    0.517193
     3  C   -0.717015
     4  C    0.287411
     5  C    0.004044
     6  H    0.333903
     7  H    0.366281
     8  H    0.373754
     9  H    0.350800
    10  N   -0.106913
    11  O    0.031038
    12  O    0.027859
    13  C   -0.469927
    14  H    0.403960
    15  Br   0.175122
 Sum of Mulliken charges =   1.00000
 Mulliken charges with hydrogens summed into heavy atoms:
               1
     1  C   -0.243608
     2  C    0.883474
     3  C   -0.717015
     4  C    0.661165
     5  C    0.354844
    10  N   -0.106913
    11  O    0.031038
    12  O    0.027859
    13  C   -0.065967
    15  Br   0.175122
 Electronic spatial extent (au):  <R**2>=           2171.0163
 Charge=              1.0000 electrons
 Dipole moment (field-independent basis, Debye):
    X=             -3.0078    Y=              5.6682    Z=              2.1990  Tot=              6.7831
 Quadrupole moment (field-independent basis, Debye-Ang):
   XX=            -63.4311   YY=            -51.8984   ZZ=            -61.1655
   XY=              5.1429   XZ=             -1.7456   YZ=             -0.8807
 Traceless Quadrupole moment (field-independent basis, Debye-Ang):
   XX=             -4.5994   YY=              6.9332   ZZ=             -2.3338
   XY=              5.1429   XZ=             -1.7456   YZ=             -0.8807
 Octapole moment (field-independent basis, Debye-Ang**2):
  XXX=            -96.8862  YYY=             19.8502  ZZZ=             -3.4441  XYY=            -23.9809
  XXY=              9.5394  XXZ=             -1.5120  XZZ=            -21.4177  YZZ=             -9.3791
  YYZ=             -8.6953  XYZ=             -8.1139
 Hexadecapole moment (field-independent basis, Debye-Ang**3):
 XXXX=          -1721.0236 YYYY=           -496.1990 ZZZZ=           -152.6754 XXXY=             78.0263
 XXXZ=             50.6101 YYYX=             41.6849 YYYZ=            -14.4549 ZZZX=              6.2533
 ZZZY=              2.0519 XXYY=           -356.0559 XXZZ=           -284.4214 YYZZ=           -123.8605
 XXYZ=             13.0115 YYXZ=             -8.6006 ZZXY=             10.4368
 N-N= 7.392041060920D+02 E-N=-8.632138055058D+03  KE= 3.005854001614D+03
 No NMR shielding tensors so no spin-rotation constants.
 Leave Link  601 at Tue May 23 16:47:50 2023, MaxMem=  1342177280 cpu:               3.2 elap:               0.2
 (Enter /software/gaussian/g16-c01/avx2/g16/l607.exe)
 ******************************Gaussian NBO Version 3.1******************************
             N A T U R A L   A T O M I C   O R B I T A L   A N D
          N A T U R A L   B O N D   O R B I T A L   A N A L Y S I S
 ******************************Gaussian NBO Version 3.1******************************
       /RESON  / : Allow strongly delocalized NBO set

 Analyzing the SCF density

 Job title: TitleMe                                                         

 Storage needed:    205731 in NPA,    273540 in NBO (1342176005 available)
 GSVD:  LWork=       22527 too small for GESVD, short by       67320 words or       67320 for optimal perf.


 NATURAL POPULATIONS:  Natural atomic orbital occupancies 
                                                          
   NAO  Atom  No  lang   Type(AO)    Occupancy      Energy
 ----------------------------------------------------------
     1    C    1  S      Cor( 1S)     1.99915     -10.38275
     2    C    1  S      Val( 2S)     0.97355      -0.41316
     3    C    1  S      Ryd( 3S)     0.00196       0.57664
     4    C    1  S      Ryd( 4S)     0.00016       0.82559
     5    C    1  S      Ryd( 5S)     0.00001      22.86178
     6    C    1  px     Val( 2p)     1.04710      -0.30076
     7    C    1  px     Ryd( 4p)     0.00402       0.65989
     8    C    1  px     Ryd( 3p)     0.00039       0.52546
     9    C    1  px     Ryd( 5p)     0.00013       2.61636
    10    C    1  py     Val( 2p)     1.19221      -0.32235
    11    C    1  py     Ryd( 4p)     0.00712       0.88087
    12    C    1  py     Ryd( 3p)     0.00033       0.27234
    13    C    1  py     Ryd( 5p)     0.00007       2.81577
    14    C    1  pz     Val( 2p)     1.02419      -0.33455
    15    C    1  pz     Ryd( 4p)     0.00153       0.50900
    16    C    1  pz     Ryd( 3p)     0.00012       0.43878
    17    C    1  pz     Ryd( 5p)     0.00003       2.40200
    18    C    1  dxy    Ryd( 3d)     0.00072       2.18873
    19    C    1  dxz    Ryd( 3d)     0.00031       1.78899
    20    C    1  dyz    Ryd( 3d)     0.00083       1.57114
    21    C    1  dx2y2  Ryd( 3d)     0.00084       1.95165
    22    C    1  dz2    Ryd( 3d)     0.00052       1.65991
 
    23    C    2  S      Cor( 1S)     1.99913     -10.42640
    24    C    2  S      Val( 2S)     0.99481      -0.44896
    25    C    2  S      Ryd( 3S)     0.00131       0.54449
    26    C    2  S      Ryd( 4S)     0.00017       0.88706
    27    C    2  S      Ryd( 5S)     0.00001      22.70836
    28    C    2  px     Val( 2p)     1.11053      -0.31607
    29    C    2  px     Ryd( 4p)     0.00644       0.78974
    30    C    2  px     Ryd( 3p)     0.00045       0.29044
    31    C    2  px     Ryd( 5p)     0.00011       2.93897
    32    C    2  py     Val( 2p)     1.01872      -0.29424
    33    C    2  py     Ryd( 4p)     0.00382       0.63037
    34    C    2  py     Ryd( 3p)     0.00053       0.35304
    35    C    2  py     Ryd( 5p)     0.00018       2.98636
    36    C    2  pz     Val( 2p)     0.77995      -0.32074
    37    C    2  pz     Ryd( 4p)     0.00213       0.45385
    38    C    2  pz     Ryd( 3p)     0.00027       0.25731
    39    C    2  pz     Ryd( 5p)     0.00004       2.62674
    40    C    2  dxy    Ryd( 3d)     0.00072       2.03901
    41    C    2  dxz    Ryd( 3d)     0.00084       1.57572
    42    C    2  dyz    Ryd( 3d)     0.00062       1.71497
    43    C    2  dx2y2  Ryd( 3d)     0.00090       2.12379
    44    C    2  dz2    Ryd( 3d)     0.00056       1.61806
 
    45    C    3  S      Cor( 1S)     1.99874     -10.43434
    46    C    3  S      Val( 2S)     0.88562      -0.38957
    47    C    3  S      Ryd( 3S)     0.00096       0.65305
    48    C    3  S      Ryd( 4S)     0.00048       0.80760
    49    C    3  S      Ryd( 5S)     0.00002      22.73067
    50    C    3  px     Val( 2p)     0.95606      -0.31327
    51    C    3  px     Ryd( 4p)     0.00647       0.78510
    52    C    3  px     Ryd( 3p)     0.00053       0.59269
    53    C    3  px     Ryd( 5p)     0.00014       2.63543
    54    C    3  py     Val( 2p)     1.04695      -0.32875
    55    C    3  py     Ryd( 4p)     0.00738       0.94828
    56    C    3  py     Ryd( 3p)     0.00042       0.54316
    57    C    3  py     Ryd( 5p)     0.00010       2.58247
    58    C    3  pz     Val( 2p)     1.08095      -0.36296
    59    C    3  pz     Ryd( 4p)     0.00201       0.59760
    60    C    3  pz     Ryd( 3p)     0.00041       0.54858
    61    C    3  pz     Ryd( 5p)     0.00006       2.30164
    62    C    3  dxy    Ryd( 3d)     0.00120       2.18255
    63    C    3  dxz    Ryd( 3d)     0.00061       1.76141
    64    C    3  dyz    Ryd( 3d)     0.00056       1.75456
    65    C    3  dx2y2  Ryd( 3d)     0.00088       2.18726
    66    C    3  dz2    Ryd( 3d)     0.00051       1.69479
 
    67    C    4  S      Cor( 1S)     1.99903     -10.41710
    68    C    4  S      Val( 2S)     0.98151      -0.44521
    69    C    4  S      Ryd( 3S)     0.00184       0.50497
    70    C    4  S      Ryd( 4S)     0.00024       0.88708
    71    C    4  S      Ryd( 5S)     0.00001      22.79856
    72    C    4  px     Val( 2p)     0.98359      -0.29851
    73    C    4  px     Ryd( 4p)     0.00435       0.56429
    74    C    4  px     Ryd( 3p)     0.00063       0.36435
    75    C    4  px     Ryd( 5p)     0.00019       3.10824
    76    C    4  py     Val( 2p)     1.17181      -0.33636
    77    C    4  py     Ryd( 4p)     0.00627       0.68109
    78    C    4  py     Ryd( 3p)     0.00053       0.25185
    79    C    4  py     Ryd( 5p)     0.00008       2.98946
    80    C    4  pz     Val( 2p)     0.81193      -0.32484
    81    C    4  pz     Ryd( 4p)     0.00317       0.40694
    82    C    4  pz     Ryd( 3p)     0.00060       0.27626
    83    C    4  pz     Ryd( 5p)     0.00006       2.69247
    84    C    4  dxy    Ryd( 3d)     0.00086       2.12280
    85    C    4  dxz    Ryd( 3d)     0.00063       1.78113
    86    C    4  dyz    Ryd( 3d)     0.00053       1.59268
    87    C    4  dx2y2  Ryd( 3d)     0.00093       1.93371
    88    C    4  dz2    Ryd( 3d)     0.00071       1.62369
 
    89    C    5  S      Cor( 1S)     1.99917     -10.41885
    90    C    5  S      Val( 2S)     0.98786      -0.45036
    91    C    5  S      Ryd( 3S)     0.00171       0.49278
    92    C    5  S      Ryd( 4S)     0.00025       0.98423
    93    C    5  S      Ryd( 5S)     0.00001      22.75631
    94    C    5  px     Val( 2p)     1.12106      -0.31296
    95    C    5  px     Ryd( 4p)     0.00520       0.64041
    96    C    5  px     Ryd( 3p)     0.00043       0.34643
    97    C    5  px     Ryd( 5p)     0.00010       2.86044
    98    C    5  py     Val( 2p)     1.01688      -0.30070
    99    C    5  py     Ryd( 4p)     0.00437       0.63157
   100    C    5  py     Ryd( 3p)     0.00055       0.42688
   101    C    5  py     Ryd( 5p)     0.00007       2.79625
   102    C    5  pz     Val( 2p)     0.81038      -0.32079
   103    C    5  pz     Ryd( 3p)     0.00228       0.43555
   104    C    5  pz     Ryd( 4p)     0.00035       0.47117
   105    C    5  pz     Ryd( 5p)     0.00003       2.42035
   106    C    5  dxy    Ryd( 3d)     0.00122       1.93100
   107    C    5  dxz    Ryd( 3d)     0.00069       1.67388
   108    C    5  dyz    Ryd( 3d)     0.00042       1.66559
   109    C    5  dx2y2  Ryd( 3d)     0.00071       1.99969
   110    C    5  dz2    Ryd( 3d)     0.00069       1.61099
 
   111    H    6  S      Val( 1S)     0.73224      -0.11740
   112    H    6  S      Ryd( 2S)     0.00037       0.95954
   113    H    6  S      Ryd( 3S)     0.00016       1.56010
 
   114    H    7  S      Val( 1S)     0.71789      -0.12017
   115    H    7  S      Ryd( 2S)     0.00089       0.95597
   116    H    7  S      Ryd( 3S)     0.00013       1.49241
 
   117    H    8  S      Val( 1S)     0.70956      -0.11786
   118    H    8  S      Ryd( 2S)     0.00113       0.90285
   119    H    8  S      Ryd( 3S)     0.00014       1.57414
 
   120    H    9  S      Val( 1S)     0.74215      -0.12944
   121    H    9  S      Ryd( 3S)     0.00037       1.30216
   122    H    9  S      Ryd( 2S)     0.00011       1.21194
 
   123    N   10  S      Cor( 1S)     1.99946     -14.71102
   124    N   10  S      Val( 2S)     1.10489      -0.73969
   125    N   10  S      Ryd( 4S)     0.00352       1.07174
   126    N   10  S      Ryd( 3S)     0.00026       0.63402
   127    N   10  S      Ryd( 5S)     0.00001      35.19809
   128    N   10  px     Val( 2p)     1.14851      -0.48807
   129    N   10  px     Ryd( 4p)     0.01134       0.77458
   130    N   10  px     Ryd( 3p)     0.00120       0.52532
   131    N   10  px     Ryd( 5p)     0.00004       4.01226
   132    N   10  py     Val( 2p)     1.07261      -0.46866
   133    N   10  py     Ryd( 4p)     0.01492       0.87041
   134    N   10  py     Ryd( 3p)     0.00057       0.46144
   135    N   10  py     Ryd( 5p)     0.00004       4.14659
   136    N   10  pz     Val( 2p)     1.14459      -0.50129
   137    N   10  pz     Ryd( 4p)     0.00537       0.62492
   138    N   10  pz     Ryd( 3p)     0.00027       0.47394
   139    N   10  pz     Ryd( 5p)     0.00005       3.69651
   140    N   10  dxy    Ryd( 3d)     0.00481       2.59489
   141    N   10  dxz    Ryd( 3d)     0.00165       2.22616
   142    N   10  dyz    Ryd( 3d)     0.00355       2.25782
   143    N   10  dx2y2  Ryd( 3d)     0.00369       2.60622
   144    N   10  dz2    Ryd( 3d)     0.00291       2.20465
 
   145    O   11  S      Cor( 1S)     1.99982     -19.24587
   146    O   11  S      Val( 2S)     1.76568      -1.15616
   147    O   11  S      Ryd( 3S)     0.00174       1.12004
   148    O   11  S      Ryd( 4S)     0.00036       1.43472
   149    O   11  S      Ryd( 5S)     0.00000      49.73100
   150    O   11  px     Val( 2p)     1.84056      -0.53434
   151    O   11  px     Ryd( 3p)     0.00252       0.79373
   152    O   11  px     Ryd( 4p)     0.00020       0.94969
   153    O   11  px     Ryd( 5p)     0.00002       4.64678
   154    O   11  py     Val( 2p)     1.26036      -0.44660
   155    O   11  py     Ryd( 3p)     0.00155       0.70366
   156    O   11  py     Ryd( 4p)     0.00015       0.73825
   157    O   11  py     Ryd( 5p)     0.00017       4.98957
   158    O   11  pz     Val( 2p)     1.44267      -0.48286
   159    O   11  pz     Ryd( 3p)     0.00179       0.69969
   160    O   11  pz     Ryd( 4p)     0.00013       0.85040
   161    O   11  pz     Ryd( 5p)     0.00003       4.66220
   162    O   11  dxy    Ryd( 3d)     0.00139       3.02579
   163    O   11  dxz    Ryd( 3d)     0.00017       2.77489
   164    O   11  dyz    Ryd( 3d)     0.00167       3.10363
   165    O   11  dx2y2  Ryd( 3d)     0.00128       3.31698
   166    O   11  dz2    Ryd( 3d)     0.00064       2.90421
 
   167    O   12  S      Cor( 1S)     1.99982     -19.24691
   168    O   12  S      Val( 2S)     1.76646      -1.15757
   169    O   12  S      Ryd( 3S)     0.00165       1.15394
   170    O   12  S      Ryd( 4S)     0.00036       1.40197
   171    O   12  S      Ryd( 5S)     0.00000      49.72620
   172    O   12  px     Val( 2p)     1.47333      -0.47954
   173    O   12  px     Ryd( 4p)     0.00176       0.74082
   174    O   12  px     Ryd( 3p)     0.00019       0.72985
   175    O   12  px     Ryd( 5p)     0.00009       4.89419
   176    O   12  py     Val( 2p)     1.69112      -0.51291
   177    O   12  py     Ryd( 3p)     0.00246       0.77745
   178    O   12  py     Ryd( 4p)     0.00018       0.94404
   179    O   12  py     Ryd( 5p)     0.00008       4.73942
   180    O   12  pz     Val( 2p)     1.38029      -0.47433
   181    O   12  pz     Ryd( 3p)     0.00163       0.69298
   182    O   12  pz     Ryd( 4p)     0.00013       0.79392
   183    O   12  pz     Ryd( 5p)     0.00005       4.71823
   184    O   12  dxy    Ryd( 3d)     0.00127       3.17493
   185    O   12  dxz    Ryd( 3d)     0.00124       3.10022
   186    O   12  dyz    Ryd( 3d)     0.00053       2.92277
   187    O   12  dx2y2  Ryd( 3d)     0.00113       3.05337
   188    O   12  dz2    Ryd( 3d)     0.00095       2.86686
 
   189    C   13  S      Cor( 1S)     1.99905     -10.44820
   190    C   13  S      Val( 2S)     1.04647      -0.53459
   191    C   13  S      Ryd( 4S)     0.00380       0.88913
   192    C   13  S      Ryd( 3S)     0.00090       0.59914
   193    C   13  S      Ryd( 5S)     0.00001      23.36503
   194    C   13  px     Val( 2p)     1.06701      -0.38645
   195    C   13  px     Ryd( 4p)     0.00554       0.46542
   196    C   13  px     Ryd( 3p)     0.00045       0.25447
   197    C   13  px     Ryd( 5p)     0.00016       2.84345
   198    C   13  py     Val( 2p)     1.06400      -0.37194
   199    C   13  py     Ryd( 4p)     0.00565       0.49582
   200    C   13  py     Ryd( 3p)     0.00028       0.24919
   201    C   13  py     Ryd( 5p)     0.00016       2.94183
   202    C   13  pz     Val( 2p)     1.17254      -0.40030
   203    C   13  pz     Ryd( 4p)     0.00416       0.52535
   204    C   13  pz     Ryd( 3p)     0.00067       0.42469
   205    C   13  pz     Ryd( 5p)     0.00010       2.64354
   206    C   13  dxy    Ryd( 3d)     0.00094       1.83749
   207    C   13  dxz    Ryd( 3d)     0.00119       1.61589
   208    C   13  dyz    Ryd( 3d)     0.00118       1.62457
   209    C   13  dx2y2  Ryd( 3d)     0.00112       1.91568
   210    C   13  dz2    Ryd( 3d)     0.00139       1.70968
 
   211    H   14  S      Val( 1S)     0.68121      -0.13251
   212    H   14  S      Ryd( 2S)     0.00075       0.47028
   213    H   14  S      Ryd( 3S)     0.00012       2.10375
 
   214   Br   15  S      Cor( 1S)     2.00000    -482.22520
   215   Br   15  S      Cor( 2S)     2.00000     -60.61884
   216   Br   15  S      Cor( 3S)     1.99986     -12.03308
   217   Br   15  S      Val( 4S)     1.91711      -1.28453
   218   Br   15  S      Ryd( 6S)     0.00121       0.88558
   219   Br   15  S      Ryd( 5S)     0.00021       0.21417
   220   Br   15  S      Ryd( 7S)     0.00000      14.86703
   221   Br   15  S      Ryd( 8S)     0.00000      71.42657
   222   Br   15  S      Ryd( 9S)     0.00000     988.65821
   223   Br   15  px     Cor( 2p)     2.00000     -56.41420
   224   Br   15  px     Cor( 3p)     1.99993      -7.07124
   225   Br   15  px     Val( 4p)     1.51329      -0.50763
   226   Br   15  px     Ryd( 6p)     0.00141       0.35911
   227   Br   15  px     Ryd( 5p)     0.00014       0.15843
   228   Br   15  px     Ryd( 7p)     0.00002       2.07853
   229   Br   15  px     Ryd( 8p)     0.00000      11.94436
   230   Br   15  px     Ryd( 9p)     0.00000     285.22199
   231   Br   15  py     Cor( 2p)     2.00000     -56.41295
   232   Br   15  py     Cor( 3p)     1.99996      -7.06749
   233   Br   15  py     Val( 4p)     1.74347      -0.53604
   234   Br   15  py     Ryd( 6p)     0.00115       0.35717
   235   Br   15  py     Ryd( 5p)     0.00016       0.15648
   236   Br   15  py     Ryd( 7p)     0.00002       2.00738
   237   Br   15  py     Ryd( 8p)     0.00000      11.91662
   238   Br   15  py     Ryd( 9p)     0.00000     285.21991
   239   Br   15  pz     Cor( 2p)     2.00000     -56.41370
   240   Br   15  pz     Cor( 3p)     1.99994      -7.06946
   241   Br   15  pz     Val( 4p)     1.58437      -0.51181
   242   Br   15  pz     Ryd( 6p)     0.00152       0.31765
   243   Br   15  pz     Ryd( 5p)     0.00023       0.14945
   244   Br   15  pz     Ryd( 7p)     0.00001       2.00319
   245   Br   15  pz     Ryd( 8p)     0.00000      11.90614
   246   Br   15  pz     Ryd( 9p)     0.00000     285.21902
   247   Br   15  dxy    Cor( 3d)     1.99995      -2.93454
   248   Br   15  dxy    Ryd( 4d)     0.00162       0.71469
   249   Br   15  dxy    Ryd( 5d)     0.00001       4.15754
   250   Br   15  dxz    Cor( 3d)     1.99991      -2.93648
   251   Br   15  dxz    Ryd( 4d)     0.00258       0.75205
   252   Br   15  dxz    Ryd( 5d)     0.00001       4.18778
   253   Br   15  dyz    Cor( 3d)     1.99995      -2.93313
   254   Br   15  dyz    Ryd( 4d)     0.00146       0.67184
   255   Br   15  dyz    Ryd( 5d)     0.00000       4.13480
   256   Br   15  dx2y2  Cor( 3d)     1.99998      -2.93460
   257   Br   15  dx2y2  Ryd( 4d)     0.00127       0.66281
   258   Br   15  dx2y2  Ryd( 5d)     0.00001       4.13347
   259   Br   15  dz2    Cor( 3d)     1.99997      -2.93499
   260   Br   15  dz2    Ryd( 4d)     0.00087       0.74837
   261   Br   15  dz2    Ryd( 5d)     0.00000       4.17051

 WARNING:  1 low occupancy (<1.9990e) core orbital  found on  C    3

 WARNING:  Population inversion found on atom  C    1
           Population inversion found on atom  C    2
           Population inversion found on atom  C    3
           Population inversion found on atom  C    4
           Population inversion found on atom  C    5
           Population inversion found on atom  H    9
           Population inversion found on atom  N   10
           Population inversion found on atom  O   11
           Population inversion found on atom  O   12
           Population inversion found on atom  C   13
           Population inversion found on atom Br   15


 Summary of Natural Population Analysis:                  
                                                          
                                       Natural Population 
                Natural  -----------------------------------------------
    Atom  No    Charge         Core      Valence    Rydberg      Total
 -----------------------------------------------------------------------
      C    1   -0.25528      1.99915     4.23706    0.01907     6.25528
      C    2    0.07776      1.99913     3.90400    0.01910     5.92224
      C    3    0.00895      1.99874     3.96958    0.02273     5.99105
      C    4    0.03048      1.99903     3.94884    0.02165     5.96952
      C    5    0.04558      1.99917     3.93618    0.01907     5.95442
      H    6    0.26723      0.00000     0.73224    0.00053     0.73277
      H    7    0.28108      0.00000     0.71789    0.00102     0.71892
      H    8    0.28917      0.00000     0.70956    0.00127     0.71083
      H    9    0.25737      0.00000     0.74215    0.00048     0.74263
      N   10    0.47574      1.99946     4.47060    0.05420     6.52426
      O   11   -0.32290      1.99982     6.30927    0.01381     8.32290
      O   12   -0.32474      1.99982     6.31120    0.01372     8.32474
      C   13   -0.37677      1.99905     4.35002    0.02770     6.37677
      H   14    0.31792      0.00000     0.68121    0.00087     0.68208
     Br   15    0.22840     27.99945     6.75825    0.01390    34.77160
 =======================================================================
   * Total *    1.00000     45.99280    51.77807    0.22913    98.00000

                                 Natural Population      
 --------------------------------------------------------
   Core                      45.99280 ( 99.9844% of  46)
   Valence                   51.77807 ( 99.5732% of  52)
   Natural Minimal Basis     97.77087 ( 99.7662% of  98)
   Natural Rydberg Basis      0.22913 (  0.2338% of  98)
 --------------------------------------------------------

    Atom  No          Natural Electron Configuration
 ----------------------------------------------------------------------------
      C    1      [core]2S( 0.97)2p( 3.26)4p( 0.01)
      C    2      [core]2S( 0.99)2p( 2.91)4p( 0.01)
      C    3      [core]2S( 0.89)2p( 3.08)4p( 0.02)
      C    4      [core]2S( 0.98)2p( 2.97)4p( 0.01)
      C    5      [core]2S( 0.99)2p( 2.95)4p( 0.01)
      H    6            1S( 0.73)
      H    7            1S( 0.72)
      H    8            1S( 0.71)
      H    9            1S( 0.74)
      N   10      [core]2S( 1.10)2p( 3.37)3d( 0.02)4p( 0.03)
      O   11      [core]2S( 1.77)2p( 4.54)3p( 0.01)3d( 0.01)
      O   12      [core]2S( 1.77)2p( 4.54)3d( 0.01)
      C   13      [core]2S( 1.05)2p( 3.30)3d( 0.01)4p( 0.02)
      H   14            1S( 0.68)
     Br   15      [core]4S( 1.92)4p( 4.84)4d( 0.01)


 NATURAL BOND ORBITAL ANALYSIS:

                       Occupancies       Lewis Structure    Low   High
           Occ.    -------------------  -----------------   occ   occ
  Cycle   Thresh.   Lewis   Non-Lewis     CR  BD  3C  LP    (L)   (NL)   Dev
 =============================================================================
   1(1)    1.90    93.46431   4.53569     23  16   0  10     7      6    0.87
   2(2)    1.90    93.46431   4.53569     23  16   0  10     7      6    0.87
   3(1)    1.80    94.71014   3.28986     23  16   0  10     3      5    0.56
   4(2)    1.80    94.71014   3.28986     23  16   0  10     3      5    0.56
   5(1)    1.70    94.71014   3.28986     23  16   0  10     3      5    0.56
   6(2)    1.70    94.71014   3.28986     23  16   0  10     3      5    0.56
   7(1)    1.60    95.93096   2.06904     23  18   0   8     1      5    0.51
   8(2)    1.60    95.92873   2.07127     23  18   0   8     1      5    0.52
   9(3)    1.60    95.93096   2.06904     23  18   0   8     1      5    0.51
  10(1)    1.50    95.93096   2.06904     23  18   0   8     1      5    0.51
  11(2)    1.50    95.92873   2.07127     23  18   0   8     1      5    0.52
  12(3)    1.50    95.93096   2.06904     23  18   0   8     1      5    0.51
  13(1)    1.60    95.93096   2.06904     23  18   0   8     1      5    0.51
 -----------------------------------------------------------------------------

 Structure accepted: RESONANCE keyword permits strongly delocalized structure

 WARNING:  1 low occupancy (<1.9990e) core orbital  found on  C    3

 --------------------------------------------------------
   Core                     45.99282 ( 99.984% of  46)
   Valence Lewis            49.93814 ( 96.035% of  52)
  ==================       ============================
   Total Lewis              95.93096 ( 97.889% of  98)
  -----------------------------------------------------
   Valence non-Lewis         1.91655 (  1.956% of  98)
   Rydberg non-Lewis         0.15249 (  0.156% of  98)
  ==================       ============================
   Total non-Lewis           2.06904 (  2.111% of  98)
 --------------------------------------------------------


       (Occupancy)   Bond orbital/ Coefficients/ Hybrids
 ---------------------------------------------------------------------------------
     1. (1.98023) BD ( 1) C   1 - C   2  
                ( 49.69%)   0.7049* C   1 s( 33.63%)p 1.97( 66.32%)d 0.00(  0.05%)
                                            0.0001  0.5798 -0.0135  0.0006  0.0002
                                            0.6804 -0.0293 -0.0076 -0.0008 -0.4304
                                           -0.0271  0.0086  0.0006 -0.1130  0.0207
                                           -0.0002  0.0002 -0.0180 -0.0028  0.0005
                                            0.0022 -0.0117
                ( 50.31%)   0.7093* C   2 s( 36.00%)p 1.78( 63.96%)d 0.00(  0.04%)
                                           -0.0001  0.5999 -0.0139  0.0022  0.0003
                                           -0.6535 -0.0140 -0.0115 -0.0013  0.4481
                                           -0.0370  0.0008  0.0027  0.0985  0.0183
                                            0.0042 -0.0003 -0.0126 -0.0066  0.0019
                                            0.0102 -0.0096
     2. (1.98396) BD ( 1) C   1 - C   5  
                ( 50.22%)   0.7087* C   1 s( 35.75%)p 1.80( 64.21%)d 0.00(  0.04%)
                                            0.0001  0.5976 -0.0191  0.0014 -0.0003
                                           -0.6495  0.0340  0.0069 -0.0004 -0.3131
                                           -0.0290  0.0073  0.0005  0.3464 -0.0036
                                           -0.0058 -0.0002  0.0129 -0.0119 -0.0088
                                            0.0039 -0.0053
                ( 49.78%)   0.7055* C   5 s( 36.93%)p 1.71( 63.02%)d 0.00(  0.04%)
                                           -0.0000  0.6075 -0.0160 -0.0006  0.0006
                                            0.6236  0.0096  0.0110  0.0025  0.3292
                                           -0.0423  0.0027  0.0011 -0.3617  0.0107
                                           -0.0058 -0.0011  0.0085 -0.0139 -0.0051
                                            0.0112 -0.0048
     3. (1.62241) BD ( 2) C   1 - C   5  
                ( 58.43%)   0.7644* C   1 s(  0.00%)p 1.00( 99.91%)d 0.00(  0.09%)
                                            0.0000  0.0063  0.0021  0.0010  0.0001
                                            0.3347  0.0031  0.0015  0.0003  0.3035
                                            0.0028  0.0016 -0.0001  0.8915  0.0089
                                            0.0044  0.0004 -0.0102 -0.0009 -0.0208
                                            0.0065  0.0167
                ( 41.57%)   0.6447* C   5 s(  0.00%)p 1.00( 99.88%)d 0.00(  0.11%)
                                           -0.0002  0.0040 -0.0031  0.0026  0.0003
                                            0.3499  0.0041  0.0019 -0.0013  0.3030
                                            0.0059 -0.0027  0.0003  0.8857  0.0082
                                           -0.0073 -0.0022  0.0097  0.0236 -0.0021
                                            0.0103 -0.0193
     4. (1.97835) BD ( 1) C   1 - H   6  
                ( 63.41%)   0.7963* C   1 s( 30.60%)p 2.27( 69.34%)d 0.00(  0.06%)
                                           -0.0004  0.5526  0.0258 -0.0019  0.0000
                                           -0.0152 -0.0009  0.0002 -0.0004  0.7884
                                            0.0180  0.0111  0.0016 -0.2667 -0.0055
                                           -0.0038 -0.0004 -0.0003  0.0003 -0.0126
                                           -0.0188 -0.0076
                ( 36.59%)   0.6049* H   6 s(100.00%)
                                            1.0000  0.0008  0.0011
     5. (1.97905) BD ( 1) C   2 - C   3  
                ( 48.45%)   0.6960* C   2 s( 34.16%)p 1.93( 65.79%)d 0.00(  0.05%)
                                            0.0001  0.5843 -0.0124 -0.0018  0.0004
                                            0.0474 -0.0260 -0.0011 -0.0001 -0.7691
                                            0.0073 -0.0100 -0.0033  0.2515  0.0075
                                            0.0040  0.0013 -0.0007 -0.0011 -0.0121
                                           -0.0162 -0.0086
                ( 51.55%)   0.7180* C   3 s( 36.38%)p 1.75( 63.59%)d 0.00(  0.04%)
                                           -0.0001  0.6031 -0.0026 -0.0046 -0.0004
                                            0.0027 -0.0268  0.0031 -0.0020  0.7520
                                            0.0038 -0.0069  0.0002 -0.2635  0.0088
                                            0.0013  0.0008 -0.0011 -0.0001 -0.0105
                                           -0.0147 -0.0072
     6. (1.97761) BD ( 1) C   2 - H   7  
                ( 64.04%)   0.8002* C   2 s( 29.78%)p 2.36( 70.15%)d 0.00(  0.07%)
                                           -0.0002  0.5453  0.0206 -0.0004 -0.0005
                                            0.6708  0.0166 -0.0071 -0.0023  0.3320
                                            0.0028 -0.0070  0.0018 -0.3754 -0.0073
                                            0.0051  0.0001  0.0140 -0.0160 -0.0064
                                            0.0129 -0.0043
                ( 35.96%)   0.5997* H   7 s(100.00%)
                                            1.0000  0.0015  0.0005
     7. (1.97946) BD ( 1) C   3 - C   4  
                ( 51.24%)   0.7158* C   3 s( 38.54%)p 1.59( 61.43%)d 0.00(  0.03%)
                                           -0.0000  0.6207 -0.0068 -0.0016 -0.0006
                                           -0.5950 -0.0113  0.0074 -0.0020 -0.3757
                                            0.0235  0.0010  0.0015  0.3440 -0.0048
                                           -0.0040 -0.0001  0.0109 -0.0109 -0.0069
                                            0.0061 -0.0046
                ( 48.76%)   0.6983* C   4 s( 35.90%)p 1.78( 64.05%)d 0.00(  0.05%)
                                            0.0000  0.5990 -0.0157 -0.0031  0.0008
                                            0.6306 -0.0205 -0.0068  0.0053  0.3303
                                            0.0223 -0.0047  0.0031 -0.3643 -0.0002
                                            0.0044 -0.0032  0.0129 -0.0140 -0.0093
                                            0.0061 -0.0050
     8. (1.66605) BD ( 2) C   3 - C   4  
                ( 61.46%)   0.7840* C   3 s(  0.01%)p 1.00( 99.97%)d 0.00(  0.03%)
                                            0.0000  0.0082  0.0014  0.0007 -0.0001
                                            0.3320  0.0022  0.0026  0.0011  0.3049
                                            0.0020  0.0010  0.0009  0.8924  0.0064
                                            0.0053  0.0035 -0.0045 -0.0122  0.0020
                                           -0.0050  0.0085
                ( 38.54%)   0.6208* C   4 s(  0.00%)p 1.00( 99.87%)d 0.00(  0.12%)
                                           -0.0002  0.0028 -0.0033  0.0025  0.0002
                                            0.3416  0.0010 -0.0002 -0.0003  0.3175
                                           -0.0030 -0.0022 -0.0010  0.8838 -0.0053
                                            0.0060 -0.0027  0.0144  0.0122  0.0169
                                           -0.0017 -0.0243
     9. (1.98872) BD ( 1) C   3 - N  10  
                ( 39.01%)   0.6246* C   3 s( 24.97%)p 3.00( 74.92%)d 0.00(  0.12%)
                                           -0.0002  0.4995  0.0051  0.0123  0.0009
                                            0.7310 -0.0010  0.0027 -0.0028 -0.4465
                                           -0.0018 -0.0011  0.0011 -0.1240  0.0013
                                           -0.0001  0.0008 -0.0264 -0.0066  0.0054
                                            0.0135 -0.0150
                ( 60.99%)   0.7810* N  10 s( 34.66%)p 1.88( 65.29%)d 0.00(  0.04%)
                                            0.0001  0.5876  0.0363  0.0013  0.0006
                                           -0.6807 -0.0200 -0.0157 -0.0015  0.4194
                                            0.0118  0.0095  0.0011  0.1133  0.0034
                                            0.0025  0.0002 -0.0167 -0.0012  0.0061
                                            0.0088 -0.0063
    10. (1.97571) BD ( 1) C   4 - H   8  
                ( 64.46%)   0.8029* C   4 s( 30.69%)p 2.26( 69.25%)d 0.00(  0.07%)
                                            0.0003 -0.5536 -0.0201  0.0002  0.0007
                                           -0.0407  0.0019  0.0028  0.0023  0.7874
                                            0.0140  0.0106 -0.0025 -0.2653 -0.0045
                                           -0.0043  0.0005  0.0043 -0.0019  0.0119
                                            0.0200  0.0094
                ( 35.54%)   0.5962* H   8 s(100.00%)
                                           -1.0000 -0.0017 -0.0007
    11. (1.97963) BD ( 1) C   4 - C  13  
                ( 48.91%)   0.6994* C   4 s( 33.35%)p 2.00( 66.61%)d 0.00(  0.04%)
                                           -0.0001  0.5774 -0.0110  0.0032  0.0000
                                           -0.6945  0.0164  0.0094 -0.0014  0.4095
                                            0.0301 -0.0082 -0.0008  0.1194 -0.0227
                                            0.0023  0.0007 -0.0170 -0.0015 -0.0001
                                            0.0026 -0.0111
                ( 51.09%)   0.7148* C  13 s( 30.59%)p 2.27( 69.36%)d 0.00(  0.05%)
                                            0.0001  0.5527  0.0187 -0.0055  0.0000
                                            0.7073 -0.0080 -0.0040  0.0057 -0.4245
                                            0.0248  0.0020 -0.0024 -0.1081 -0.0258
                                            0.0022 -0.0036 -0.0155 -0.0076  0.0053
                                            0.0098 -0.0100
    12. (1.98009) BD ( 1) C   5 - H   9  
                ( 62.86%)   0.7928* C   5 s( 30.00%)p 2.33( 69.93%)d 0.00(  0.07%)
                                            0.0003 -0.5473 -0.0195  0.0009  0.0006
                                            0.6973  0.0182 -0.0110  0.0023 -0.4449
                                           -0.0025  0.0065 -0.0007 -0.1208 -0.0050
                                            0.0013  0.0001  0.0214  0.0039 -0.0041
                                           -0.0098  0.0124
                ( 37.14%)   0.6094* H   9 s(100.00%)
                                           -1.0000 -0.0009 -0.0003
    13. (1.98372) BD ( 1) C   5 - C  13  
                ( 48.11%)   0.6936* C   5 s( 33.00%)p 2.03( 66.96%)d 0.00(  0.04%)
                                           -0.0000  0.5744 -0.0089  0.0014  0.0000
                                            0.0011  0.0321 -0.0004  0.0006 -0.7742
                                            0.0042 -0.0137  0.0020  0.2618 -0.0192
                                            0.0018 -0.0005 -0.0040  0.0002 -0.0091
                                           -0.0159 -0.0094
                ( 51.89%)   0.7204* C  13 s( 30.98%)p 2.23( 68.97%)d 0.00(  0.05%)
                                            0.0001  0.5562  0.0196 -0.0075 -0.0001
                                            0.0004  0.0213  0.0000  0.0011  0.7896
                                           -0.0249 -0.0037  0.0047 -0.2544 -0.0206
                                            0.0026 -0.0043  0.0019  0.0004 -0.0147
                                           -0.0161 -0.0059
    14. (1.99551) BD ( 1) N  10 - O  11  
                ( 50.06%)   0.7076* N  10 s( 32.58%)p 2.07( 67.29%)d 0.00(  0.12%)
                                           -0.0000 -0.5704  0.0215  0.0013  0.0005
                                           -0.0544  0.0223  0.0058  0.0002  0.7780
                                           -0.0517  0.0018 -0.0032 -0.2479  0.0087
                                           -0.0026  0.0010  0.0002 -0.0017  0.0179
                                            0.0284  0.0106
                ( 49.94%)   0.7067* O  11 s( 22.65%)p 3.41( 77.20%)d 0.01(  0.14%)
                                           -0.0000 -0.4748  0.0335  0.0002  0.0002
                                           -0.0072  0.0052 -0.0029  0.0000 -0.8329
                                            0.0314  0.0084  0.0012  0.2775 -0.0124
                                           -0.0018 -0.0004  0.0006 -0.0013  0.0190
                                            0.0304  0.0125
    15. (1.98417) BD ( 2) N  10 - O  11  
                ( 41.19%)   0.6418* N  10 s(  0.00%)p 1.00( 99.76%)d 0.00(  0.24%)
                                           -0.0000 -0.0031  0.0001  0.0007  0.0000
                                            0.3332  0.0115 -0.0040  0.0015  0.3047
                                            0.0100 -0.0039  0.0014  0.8901  0.0312
                                           -0.0126  0.0041 -0.0166  0.0015 -0.0355
                                            0.0123  0.0267
                ( 58.81%)   0.7669* O  11 s(  0.00%)p 1.00( 99.85%)d 0.00(  0.15%)
                                           -0.0000 -0.0025  0.0003  0.0001 -0.0000
                                            0.3331 -0.0028  0.0031 -0.0006  0.2965
[...]
    80. RY*(  13) C   2                  0.00002     1.99000   
    81. RY*(  14) C   2                  0.00001     1.47265   
    82. RY*(  15) C   2                  0.00000     3.15254   
    83. RY*(  16) C   2                  0.00000    19.58323   
    84. RY*(  17) C   2                  0.00001     1.53759   
    85. RY*(   1) C   3                  0.00807     1.22449   
    86. RY*(   2) C   3                  0.00679     0.86178   
    87. RY*(   3) C   3                  0.00099     0.80670   
    88. RY*(   4) C   3                  0.00085     0.77444   
    89. RY*(   5) C   3                  0.00065     1.18388   
    90. RY*(   6) C   3                  0.00057     1.37811   
    91. RY*(   7) C   3                  0.00043     1.13935   
    92. RY*(   8) C   3                  0.00040     1.47047   
    93. RY*(   9) C   3                  0.00022     1.99696   
    94. RY*(  10) C   3                  0.00015     2.31693   
    95. RY*(  11) C   3                  0.00012     1.93153   
    96. RY*(  12) C   3                  0.00010     2.01623   
    97. RY*(  13) C   3                  0.00004     1.95105   
    98. RY*(  14) C   3                  0.00002     1.22773   
    99. RY*(  15) C   3                  0.00001    20.74880   
   100. RY*(  16) C   3                  0.00000     2.60437   
   101. RY*(  17) C   3                  0.00001     1.65956   
   102. RY*(   1) C   4                  0.00601     0.76899   
   103. RY*(   2) C   4                  0.00335     0.62115   
   104. RY*(   3) C   4                  0.00306     0.42382   
   105. RY*(   4) C   4                  0.00098     1.04088   
   106. RY*(   5) C   4                  0.00063     0.64255   
   107. RY*(   6) C   4                  0.00051     1.05372   
   108. RY*(   7) C   4                  0.00040     0.68764   
   109. RY*(   8) C   4                  0.00026     1.33181   
   110. RY*(   9) C   4                  0.00017     2.94130   
   111. RY*(  10) C   4                  0.00010     1.10971   
   112. RY*(  11) C   4                  0.00005     2.64709   
   113. RY*(  12) C   4                  0.00003     1.45292   
   114. RY*(  13) C   4                  0.00004     2.78849   
   115. RY*(  14) C   4                  0.00002     3.57806   
   116. RY*(  15) C   4                  0.00001     1.81914   
   117. RY*(  16) C   4                  0.00000    18.73165   
   118. RY*(  17) C   4                  0.00000     2.92707   
   119. RY*(   1) C   5                  0.00494     0.77571   
   120. RY*(   2) C   5                  0.00274     0.50328   
   121. RY*(   3) C   5                  0.00218     0.84178   
   122. RY*(   4) C   5                  0.00082     1.35114   
   123. RY*(   5) C   5                  0.00061     0.83962   
   124. RY*(   6) C   5                  0.00036     1.28220   
   125. RY*(   7) C   5                  0.00031     0.90436   
   126. RY*(   8) C   5                  0.00009     1.99671   
   127. RY*(   9) C   5                  0.00005     1.87000   
   128. RY*(  10) C   5                  0.00004     1.20989   
   129. RY*(  11) C   5                  0.00001     0.55608   
   130. RY*(  12) C   5                  0.00000     2.23776   
   131. RY*(  13) C   5                  0.00000    22.30095   
   132. RY*(  14) C   5                  0.00001     1.43600   
   133. RY*(  15) C   5                  0.00001     1.55963   
   134. RY*(  16) C   5                  0.00001     2.05838   
   135. RY*(  17) C   5                  0.00001     2.40695   
   136. RY*(   1) H   6                  0.00037     0.96354   
   137. RY*(   2) H   6                  0.00016     1.55542   
   138. RY*(   1) H   7                  0.00089     0.95628   
   139. RY*(   2) H   7                  0.00013     1.49115   
   140. RY*(   1) H   8                  0.00113     0.90332   
   141. RY*(   2) H   8                  0.00014     1.57256   
   142. RY*(   1) H   9                  0.00037     1.30287   
   143. RY*(   2) H   9                  0.00011     1.21068   
   144. RY*(   1) N  10                  0.01778     1.01231   
   145. RY*(   2) N  10                  0.01098     1.36046   
   146. RY*(   3) N  10                  0.00833     2.00036   
   147. RY*(   4) N  10                  0.00281     2.75367   
   148. RY*(   5) N  10                  0.00277     1.66936   
   149. RY*(   6) N  10                  0.00174     0.85387   
   150. RY*(   7) N  10                  0.00036     1.48239   
   151. RY*(   8) N  10                  0.00012     2.01658   
   152. RY*(   9) N  10                  0.00007     0.52317   
   153. RY*(  10) N  10                  0.00003     1.42987   
   154. RY*(  11) N  10                  0.00004     1.22781   
   155. RY*(  12) N  10                  0.00000     3.68788   
   156. RY*(  13) N  10                  0.00001     1.65263   
   157. RY*(  14) N  10                  0.00000    34.27378   
   158. RY*(  15) N  10                  0.00000     3.91358   
   159. RY*(  16) N  10                  0.00000     3.76984   
   160. RY*(  17) N  10                  0.00000     0.73215   
   161. RY*(   1) O  11                  0.00235     0.83241   
   162. RY*(   2) O  11                  0.00206     0.80380   
   163. RY*(   3) O  11                  0.00122     1.57058   
   164. RY*(   4) O  11                  0.00037     0.68775   
   165. RY*(   5) O  11                  0.00011     1.16023   
   166. RY*(   6) O  11                  0.00006     1.52413   
   167. RY*(   7) O  11                  0.00003     3.83861   
   168. RY*(   8) O  11                  0.00002     1.30927   
   169. RY*(   9) O  11                  0.00000    49.37160   
   170. RY*(  10) O  11                  0.00000     4.68174   
   171. RY*(  11) O  11                  0.00000     1.04421   
   172. RY*(  12) O  11                  0.00000     4.61159   
   173. RY*(  13) O  11                  0.00001     2.94594   
   174. RY*(  14) O  11                  0.00001     2.70344   
   175. RY*(  15) O  11                  0.00000     3.26894   
   176. RY*(  16) O  11                  0.00000     3.29037   
   177. RY*(  17) O  11                  0.00000     2.78623   
   178. RY*(   1) O  12                  0.00238     0.84534   
   179. RY*(   2) O  12                  0.00165     0.81793   
   180. RY*(   3) O  12                  0.00121     1.57040   
   181. RY*(   4) O  12                  0.00034     0.72853   
   182. RY*(   5) O  12                  0.00010     1.33709   
   183. RY*(   6) O  12                  0.00005     1.26593   
   184. RY*(   7) O  12                  0.00002     1.46547   
   185. RY*(   8) O  12                  0.00000     4.84211   
   186. RY*(   9) O  12                  0.00001     4.66114   
   187. RY*(  10) O  12                  0.00000    49.40972   
   188. RY*(  11) O  12                  0.00000     0.73605   
   189. RY*(  12) O  12                  0.00000     4.61435   
   190. RY*(  13) O  12                  0.00000     2.87091   
   191. RY*(  14) O  12                  0.00001     2.94337   
   192. RY*(  15) O  12                  0.00000     2.79827   
   193. RY*(  16) O  12                  0.00001     2.73624   
   194. RY*(  17) O  12                  0.00000     2.77544   
   195. RY*(   1) C  13                  0.00716     0.49667   
   196. RY*(   2) C  13                  0.00521     0.61348   
   197. RY*(   3) C  13                  0.00107     1.02201   
   198. RY*(   4) C  13                  0.00104     1.36700   
   199. RY*(   5) C  13                  0.00074     1.26684   
   200. RY*(   6) C  13                  0.00043     1.10484   
   201. RY*(   7) C  13                  0.00036     0.92647   
   202. RY*(   8) C  13                  0.00031     1.48253   
   203. RY*(   9) C  13                  0.00012     2.42762   
   204. RY*(  10) C  13                  0.00009     1.28257   
   205. RY*(  11) C  13                  0.00004     2.48010   
   206. RY*(  12) C  13                  0.00003     1.79806   
   207. RY*(  13) C  13                  0.00001     2.03868   
   208. RY*(  14) C  13                  0.00001     1.73306   
   209. RY*(  15) C  13                  0.00000     1.63177   
   210. RY*(  16) C  13                  0.00000    20.89274   
   211. RY*(  17) C  13                  0.00000     1.82209   
   212. RY*(   1) H  14                  0.00076     0.46949   
   213. RY*(   2) H  14                  0.00012     2.10311   
   214. RY*(   1)Br  15                  0.00156     0.50475   
   215. RY*(   2)Br  15                  0.00126     0.50194   
   216. RY*(   3)Br  15                  0.00040     0.38271   
   217. RY*(   4)Br  15                  0.00019     0.54042   
   218. RY*(   5)Br  15                  0.00010     0.42156   
   219. RY*(   6)Br  15                  0.00007     0.71178   
   220. RY*(   7)Br  15                  0.00007     0.95177   
   221. RY*(   8)Br  15                  0.00003     0.92576   
   222. RY*(   9)Br  15                  0.00002     0.68164   
   223. RY*(  10)Br  15                  0.00002     0.60036   
   224. RY*(  11)Br  15                  0.00000    14.30753   
   225. RY*(  12)Br  15                  0.00000    71.46576   
   226. RY*(  13)Br  15                  0.00000     1.87566   
   227. RY*(  14)Br  15                  0.00000    11.84345   
   228. RY*(  15)Br  15                  0.00000   285.21387   
   229. RY*(  16)Br  15                  0.00000   988.64464   
   230. RY*(  17)Br  15                  0.00000     0.63950   
   231. RY*(  18)Br  15                  0.00000     1.96293   
   232. RY*(  19)Br  15                  0.00000    11.88922   
   233. RY*(  20)Br  15                  0.00000   285.22352   
   234. RY*(  21)Br  15                  0.00000     0.50772   
   235. RY*(  22)Br  15                  0.00000     4.09517   
   236. RY*(  23)Br  15                  0.00001     0.17002   
   237. RY*(  24)Br  15                  0.00000     4.12823   
   238. RY*(  25)Br  15                  0.00000     1.74507   
   239. RY*(  26)Br  15                  0.00000     4.10359   
   240. RY*(  27)Br  15                  0.00000    11.94405   
   241. RY*(  28)Br  15                  0.00000     4.07825   
   242. RY*(  29)Br  15                  0.00000   285.21913   
   243. RY*(  30)Br  15                  0.00000     4.10748   
   244. BD*(   1) C   1 - C   2          0.01419     0.39909   
   245. BD*(   1) C   1 - C   5          0.01398     0.44984   
   246. BD*(   2) C   1 - C   5          0.10496    -0.12548  261(v),42(v),251(r)
   247. BD*(   1) C   1 - H   6          0.01312     0.30681   
   248. BD*(   1) C   2 - C   3          0.02230     0.38014   
   249. BD*(   1) C   2 - H   7          0.01047     0.30399   
   250. BD*(   1) C   3 - C   4          0.02012     0.44945   
   251. BD*(   2) C   3 - C   4          0.13342    -0.13302  261(v),42(v),258(v),246(r)
                                                    104(g)
   252. BD*(   1) C   3 - N  10          0.10917     0.14448  254(v),253(v),88(g),249(v)
                                                    244(v),151(g),91(g),145(g)
   253. BD*(   1) C   4 - H   8          0.01147     0.30064   
   254. BD*(   1) C   4 - C  13          0.01822     0.29429   
   255. BD*(   1) C   5 - H   9          0.01067     0.30674   
   256. BD*(   1) C   5 - C  13          0.01892     0.29252   
   257. BD*(   1) N  10 - O  11          0.05345     0.30433   
   258. BD*(   2) N  10 - O  11          0.60470    -0.28173  47(v),251(v),146(g),162(g)
                                                    179(v),153(g),160(g)
   259. BD*(   1) N  10 - O  12          0.05402     0.30208   
   260. BD*(   1) C  13 - H  14          0.01892     0.26159   
   261. BD*(   1) C  13 -Br  15          0.01790    -0.10649   
       -------------------------------
              Total Lewis   95.93096  ( 97.8887%)
        Valence non-Lewis    1.91655  (  1.9557%)
        Rydberg non-Lewis    0.15249  (  0.1556%)
       -------------------------------
            Total unit  1   98.00000  (100.0000%)
           Charge unit  1    1.00000
 Sorting of NBOs:                   28   29   31   35   33   26   25   24   30   27
 Sorting of NBOs:                   21   20   23   22   19   32   36   34   38   41
 Sorting of NBOs:                   40   37   39   14   16   48    9   45   43    7
 Sorting of NBOs:                    2    5    1   11   13   12   10    6   17    4
 Sorting of NBOs:                   18   15   49   50    8   46   44    3   47   42
 Sorting of NBOs:                  258  251  246  261  252  236  260  256  254  253
 Sorting of NBOs:                  259  249  257  255  247   70  248  216  244  218
 Sorting of NBOs:                  104  250  245   61  212  195  215  120  214  234
 Sorting of NBOs:                  152  217  129  223   55  196  103  230  106  222
 Sorting of NBOs:                  108  164  219  181  160  188   72   53  102   88
 Sorting of NBOs:                  119   69  162   87  179  161  123  121  178  149
 Sorting of NBOs:                   86   68   51  140  125  221  201  220  138  136
 Sorting of NBOs:                  144   73  197  105  171   54  107  200  111   52
 Sorting of NBOs:                   91  165   89   63  128  143   85   98  154  183
 Sorting of NBOs:                  199  124  204   67  142   71   56  168  109  182
 Sorting of NBOs:                  122  145  198   90   78  153  132  113  184   92
 Sorting of NBOs:                   58   81  150  202  139  166   84  137  133   60
 Sorting of NBOs:                  180  163  141   76   57  209  156  101  148  208
 Sorting of NBOs:                  238  206  116  211   74  127  226   95   64   97
 Sorting of NBOs:                  231   80  126   93  146   96  151  207  134  213
 Sorting of NBOs:                   75   77  130   66   94  135  203  205   79   59
 Sorting of NBOs:                  100  112  174  193  147  194  177  114  192  190
 Sorting of NBOs:                  118  110  191  173   82  175  176  115  155  159
 Sorting of NBOs:                  167  158  241  235  239  243  237  172  189  186
 Sorting of NBOs:                  170  185   62  227  232  240  224  117   65   83
 Sorting of NBOs:                   99  210  131  157  169  187  225  228  242  233
 Sorting of NBOs:                  229
 Reordering of NBOs for storage:    28   29   31   35   33   26   25   24   30   27
 Reordering of NBOs for storage:    21   20   23   22   19   32   36   34   38   41
 Reordering of NBOs for storage:    40   37   39   14   16   48    9   45   43    7
 Reordering of NBOs for storage:     2    5    1   11   13   12   10    6   17    4
 Reordering of NBOs for storage:    18   15   49   50    8   46   44    3   47   42
 Reordering of NBOs for storage:   258  251  246  261  252  260  256  254  253  259
 Reordering of NBOs for storage:   249  257  255  247  248  244  250  245  236   70
 Reordering of NBOs for storage:   216  218  104   61  212  195  215  120  214  234
 Reordering of NBOs for storage:   152  217  129  223   55  196  103  230  106  222
 Reordering of NBOs for storage:   108  164  219  181  160  188   72   53  102   88
 Reordering of NBOs for storage:   119   69  162   87  179  161  123  121  178  149
 Reordering of NBOs for storage:    86   68   51  140  125  221  201  220  138  136
 Reordering of NBOs for storage:   144   73  197  105  171   54  107  200  111   52
 Reordering of NBOs for storage:    91  165   89   63  128  143   85   98  154  183
 Reordering of NBOs for storage:   199  124  204   67  142   71   56  168  109  182
 Reordering of NBOs for storage:   122  145  198   90   78  153  132  113  184   92
 Reordering of NBOs for storage:    58   81  150  202  139  166   84  137  133   60
 Reordering of NBOs for storage:   180  163  141   76   57  209  156  101  148  208
 Reordering of NBOs for storage:   238  206  116  211   74  127  226   95   64   97
 Reordering of NBOs for storage:   231   80  126   93  146   96  151  207  134  213
 Reordering of NBOs for storage:    75   77  130   66   94  135  203  205   79   59
 Reordering of NBOs for storage:   100  112  174  193  147  194  177  114  192  190
 Reordering of NBOs for storage:   118  110  191  173   82  175  176  115  155  159
 Reordering of NBOs for storage:   167  158  241  235  239  243  237  172  189  186
 Reordering of NBOs for storage:   170  185   62  227  232  240  224  117   65   83
 Reordering of NBOs for storage:    99  210  131  157  169  187  225  228  242  233
 Reordering of NBOs for storage:   229
 Labels of output orbitals:  CR  CR  CR  CR  CR  CR  CR  CR  CR  CR  CR  CR  CR  CR  CR  CR  CR  CR  CR  CR  
 Labels of output orbitals:  CR  CR  CR  BD  BD  LP  BD  LP  LP  BD  BD  BD  BD  BD  BD  BD  BD  BD  BD  BD  
 Labels of output orbitals:  BD  BD  LP  LP  BD  LP  LP  BD  LP  LP* BD* BD* BD* BD* BD* BD* BD* BD* BD* BD* 
 Labels of output orbitals:  BD* BD* BD* BD* BD* BD* BD* BD* RY* RY* RY* RY* RY* RY* RY* RY* RY* RY* RY* RY* 
 Labels of output orbitals:  RY* RY* RY* RY* RY* RY* RY* RY* RY* RY* RY* RY* RY* RY* RY* RY* RY* RY* RY* RY* 
 Labels of output orbitals:  RY* RY* RY* RY* RY* RY* RY* RY* RY* RY* RY* RY* RY* RY* RY* RY* RY* RY* RY* RY* 
 Labels of output orbitals:  RY* RY* RY* RY* RY* RY* RY* RY* RY* RY* RY* RY* RY* RY* RY* RY* RY* RY* RY* RY* 
 Labels of output orbitals:  RY* RY* RY* RY* RY* RY* RY* RY* RY* RY* RY* RY* RY* RY* RY* RY* RY* RY* RY* RY* 
 Labels of output orbitals:  RY* RY* RY* RY* RY* RY* RY* RY* RY* RY* RY* RY* RY* RY* RY* RY* RY* RY* RY* RY* 
 Labels of output orbitals:  RY* RY* RY* RY* RY* RY* RY* RY* RY* RY* RY* RY* RY* RY* RY* RY* RY* RY* RY* RY* 
 Labels of output orbitals:  RY* RY* RY* RY* RY* RY* RY* RY* RY* RY* RY* RY* RY* RY* RY* RY* RY* RY* RY* RY* 
 Labels of output orbitals:  RY* RY* RY* RY* RY* RY* RY* RY* RY* RY* RY* RY* RY* RY* RY* RY* RY* RY* RY* RY* 
 Labels of output orbitals:  RY* RY* RY* RY* RY* RY* RY* RY* RY* RY* RY* RY* RY* RY* RY* RY* RY* RY* RY* RY* 
 Labels of output orbitals:  RY* 
 GSVD:  LWork=       -2793 too small for GESVD, short by       12740 words or       12740 for optimal perf.
 GSVD:  LWork=      -46640 too small for GESVD, short by      227900 words or      227900 for optimal perf.
 Leave Link  607 at Tue May 23 16:47:52 2023, MaxMem=  1342177280 cpu:              28.4 elap:               1.2
 (Enter /software/gaussian/g16-c01/avx2/g16/l9999.exe)
 Unable to Open any file for archive entry.
 1\1\GINC-BHD0001\SP\RwB97XD\6-311+G(d)\C6H5Br1N1O2(1+)\BWEIGHT\23-May-
 2023\0\\#P wB97XD/6-311+G* pop=(NBO,saveNBO)\\TitleMe\\1,1\C,0,0.02949
 981,1.33972592,0.06817723\C,0,1.43483278,1.28667967,0.00635313\C,0,2.1
 1179024,0.05106117,-0.00544138\C,0,1.44506636,-1.13720058,0.03116583\C
 ,0,-0.68793171,0.1682222,0.10995314\H,0,-0.47126997,2.29839666,0.07811
 355\H,0,2.02732783,2.19651728,-0.03220624\H,0,1.98966526,-2.07643217,0
 .02318494\H,0,-1.7716348,0.18040547,0.15819632\N,0,3.58635895,0.050972
 92,-0.06745286\O,0,4.14711759,-1.05966097,-0.08807849\O,0,4.14497859,1
 .16390951,-0.09010823\C,0,-0.02361177,-1.14582791,0.08353483\H,0,-0.43
 674996,-1.87247364,0.78889576\Br,0,-0.53591638,-1.86972195,-1.74078671
 \\Version=ES64L-G16RevC.01\State=1-A\HF=-3010.5353396\RMSD=9.789e-09\D
 ipole=-2.2326734,0.9171932,1.1383388\Quadrupole=-4.3541391,5.8746574,-
 1.5205183,-1.1574885,-1.7181643,2.277624\PG=C01 [X(C6H5Br1N1O2)]\\@
 The archive entry for this job was punched.


 IN THE WOODS WE RETURN TO REASON AND FAITH.

                                 -- EMERSON
 Job cpu time:       0 days  0 hours 10 minutes 34.1 seconds.
 Elapsed time:       0 days  0 hours  0 minutes 26.9 seconds.
 File lengths (MBytes):  RWF=     40 Int=      0 D2E=      0 Chk=     32 Scr=      1
 Normal termination of Gaussian 16 at Tue May 23 16:47:53 2023.
