 Entering Gaussian System, Link 0=g16
 Initial command:
 /software/gaussian/g16-a03/l1.exe "/local_scratch/6484955/Gau-28377.inp" -scrdir="/local_scratch/6484955/"
 Entering Link 1 = /software/gaussian/g16-a03/l1.exe PID=     28487.
  
 Copyright (c) 1988,1990,1992,1993,1995,1998,2003,2009,2016,
            Gaussian, Inc.  All Rights Reserved.
  
 This is part of the Gaussian(R) 16 program.  It is based on
 the Gaussian(R) 09 system (copyright 2009, Gaussian, Inc.),
 the Gaussian(R) 03 system (copyright 2003, Gaussian, Inc.),
 the Gaussian(R) 98 system (copyright 1998, Gaussian, Inc.),
 the Gaussian(R) 94 system (copyright 1995, Gaussian, Inc.),
 the Gaussian 92(TM) system (copyright 1992, Gaussian, Inc.),
 the Gaussian 90(TM) system (copyright 1990, Gaussian, Inc.),
 the Gaussian 88(TM) system (copyright 1988, Gaussian, Inc.),
 the Gaussian 86(TM) system (copyright 1986, Carnegie Mellon
 University), and the Gaussian 82(TM) system (copyright 1983,
 Carnegie Mellon University). Gaussian is a federally registered
 trademark of Gaussian, Inc.
  
 This software contains proprietary and confidential information,
 including trade secrets, belonging to Gaussian, Inc.
  
 This software is provided under written license and may be
 used, copied, transmitted, or stored only in accord with that
 written license.
  
 The following legend is applicable only to US Government
 contracts under FAR:
  
                    RESTRICTED RIGHTS LEGEND
  
 Use, reproduction and disclosure by the US Government is
 subject to restrictions as set forth in subparagraphs (a)
 and (c) of the Commercial Computer Software - Restricted
 Rights clause in FAR 52.227-19.
  
 Gaussian, Inc.
 340 Quinnipiac St., Bldg. 40, Wallingford CT 06492
  
  
 ---------------------------------------------------------------
 Warning -- This program may not be used in any manner that
 competes with the business of Gaussian, Inc. or will provide
 assistance to any competitor of Gaussian, Inc.  The licensee
 of this program is prohibited from giving any competitor of
 Gaussian, Inc. access to this program.  By using this program,
 the user acknowledges that Gaussian, Inc. is engaged in the
 business of creating and licensing software in the field of
 computational chemistry and represents and warrants to the
 licensee that it is not a competitor of Gaussian, Inc. and that
 it will not use this program in any manner prohibited above.
 ---------------------------------------------------------------
  

 Cite this work as:
 Gaussian 16, Revision A.03,
 M. J. Frisch, G. W. Trucks, H. B. Schlegel, G. E. Scuseria, 
 M. A. Robb, J. R. Cheeseman, G. Scalmani, V. Barone, 
 G. A. Petersson, H. Nakatsuji, X. Li, M. Caricato, A. V. Marenich, 
 J. Bloino, B. G. Janesko, R. Gomperts, B. Mennucci, H. P. Hratchian, 
 J. V. Ortiz, A. F. Izmaylov, J. L. Sonnenberg, D. Williams-Young, 
 F. Ding, F. Lipparini, F. Egidi, J. Goings, B. Peng, A. Petrone, 
 T. Henderson, D. Ranasinghe, V. G. Zakrzewski, J. Gao, N. Rega, 
 G. Zheng, W. Liang, M. Hada, M. Ehara, K. Toyota, R. Fukuda, 
 J. Hasegawa, M. Ishida, T. Nakajima, Y. Honda, O. Kitao, H. Nakai, 
 T. Vreven, K. Throssell, J. A. Montgomery, Jr., J. E. Peralta, 
 F. Ogliaro, M. J. Bearpark, J. J. Heyd, E. N. Brothers, K. N. Kudin, 
 V. N. Staroverov, T. A. Keith, R. Kobayashi, J. Normand, 
 K. Raghavachari, A. P. Rendell, J. C. Burant, S. S. Iyengar, 
 J. Tomasi, M. Cossi, J. M. Millam, M. Klene, C. Adamo, R. Cammi, 
 J. W. Ochterski, R. L. Martin, K. Morokuma, O. Farkas, 
 J. B. Foresman, and D. J. Fox, Gaussian, Inc., Wallingford CT, 2016.
 
 ******************************************
 Gaussian 16:  ES64L-G16RevA.03 25-Dec-2016
                17-Sep-2021 
 ******************************************
 %chk=geometry.chk
 %mem=2GB
 %nprocshared=1
 Will use up to    1 processors via shared memory.
 --------------------------------------------------------------------
 #p B3LYP/6-311+G** #p TD=(singlets,nstates=30)IOp(6/8=3) IOp(9/40=4)
 --------------------------------------------------------------------
 1/38=1,172=1/1;
 2/12=2,17=6,18=5,40=1/2;
 3/5=4,6=6,7=111,11=9,25=1,30=1,74=-5/1,2,3,8;
 4//1;
 5/5=2,38=5/2;
 8/6=1,10=2,108=30/1;
 9/40=4,41=30,42=1,48=1,70=2/14;
 6/7=2,8=3,9=2,10=2/1;
 99/5=1,9=1/99;
 Leave Link    1 at Fri Sep 17 10:52:33 2021, MaxMem=   268435456 cpu:               0.1 elap:               0.2
 (Enter /software/gaussian/g16-a03/l101.exe)
 -------------------------------
 Scan Step 224, Bond Length 1.62
 -------------------------------
 Symbolic Z-matrix:
 Charge =  0 Multiplicity = 1
 C                     0.        0.       -0.52736 
 H                     0.        0.93726  -1.11871 
 H                     0.       -0.93726  -1.11871 
 O                     0.        0.        1.09264 
 
 ITRead=  0  0  0  0
 MicOpt= -1 -1 -1 -1
 NAtoms=      4 NQM=        4 NQMF=       0 NMMI=      0 NMMIF=      0
                NMic=       0 NMicF=      0.
                    Isotopes and Nuclear Properties:
 (Nuclear quadrupole moments (NQMom) in fm**2, nuclear magnetic moments (NMagM)
  in nuclear magnetons)

  Atom         1           2           3           4
 IAtWgt=          12           1           1          16
 AtmWgt=  12.0000000   1.0078250   1.0078250  15.9949146
 NucSpn=           0           1           1           0
 AtZEff=  -0.0000000  -0.0000000  -0.0000000  -0.0000000
 NQMom=    0.0000000   0.0000000   0.0000000   0.0000000
 NMagM=    0.0000000   2.7928460   2.7928460   0.0000000
 AtZNuc=   6.0000000   1.0000000   1.0000000   8.0000000
 Leave Link  101 at Fri Sep 17 10:52:34 2021, MaxMem=   268435456 cpu:               0.1 elap:               0.2
 (Enter /software/gaussian/g16-a03/l202.exe)
                          Input orientation:                          
 ---------------------------------------------------------------------
 Center     Atomic      Atomic             Coordinates (Angstroms)
 Number     Number       Type             X           Y           Z
 ---------------------------------------------------------------------
      1          6           0        0.000000    0.000000   -0.527360
      2          1           0        0.000000    0.937260   -1.118710
      3          1           0        0.000000   -0.937260   -1.118710
      4          8           0        0.000000    0.000000    1.092640
 ---------------------------------------------------------------------
                    Distance matrix (angstroms):
                    1          2          3          4
     1  C    0.000000
     2  H    1.108220   0.000000
     3  H    1.108220   1.874520   0.000000
     4  O    1.620000   2.401775   2.401775   0.000000
 Stoichiometry    CH2O
 Framework group  C2V[C2(CO),SGV(H2)]
 Deg. of freedom     3
 Full point group                 C2V     NOp   4
 Largest Abelian subgroup         C2V     NOp   4
 Largest concise Abelian subgroup C2      NOp   2
                         Standard orientation:                         
 ---------------------------------------------------------------------
 Center     Atomic      Atomic             Coordinates (Angstroms)
 Number     Number       Type             X           Y           Z
 ---------------------------------------------------------------------
      1          6           0        0.000000   -0.000000   -0.736081
      2          1           0        0.000000    0.937260   -1.327431
      3          1           0       -0.000000   -0.937260   -1.327431
      4          8           0        0.000000    0.000000    0.883919
 ---------------------------------------------------------------------
 Rotational constants (GHZ):         285.4183527          22.6423020          20.9781043
 Leave Link  202 at Fri Sep 17 10:52:34 2021, MaxMem=   268435456 cpu:               0.0 elap:               0.0
 (Enter /software/gaussian/g16-a03/l301.exe)
 Standard basis: 6-311+G(d,p) (5D, 7F)
 Ernie: Thresh=  0.10000D-02 Tol=  0.10000D-05 Strict=F.
 There are    29 symmetry adapted cartesian basis functions of A1  symmetry.
 There are     3 symmetry adapted cartesian basis functions of A2  symmetry.
 There are    11 symmetry adapted cartesian basis functions of B1  symmetry.
 There are    15 symmetry adapted cartesian basis functions of B2  symmetry.
 There are    27 symmetry adapted basis functions of A1  symmetry.
 There are     3 symmetry adapted basis functions of A2  symmetry.
 There are    11 symmetry adapted basis functions of B1  symmetry.
 There are    15 symmetry adapted basis functions of B2  symmetry.
    56 basis functions,    88 primitive gaussians,    58 cartesian basis functions
     8 alpha electrons        8 beta electrons
       nuclear repulsion energy        25.2168895625 Hartrees.
 IExCor=  402 DFT=T Ex+Corr=B3LYP ExCW=0 ScaHFX=  0.200000
 ScaDFX=  0.800000  0.720000  1.000000  0.810000 ScalE2=  1.000000  1.000000
 IRadAn=      5 IRanWt=     -1 IRanGd=            0 ICorTp=0 IEmpDi=  4
 NAtoms=    4 NActive=    4 NUniq=    3 SFac= 1.78D+00 NAtFMM=   60 NAOKFM=F Big=F
 Integral buffers will be    131072 words long.
 Regular integral format.
 Two-electron integral symmetry is turned on.
 Leave Link  301 at Fri Sep 17 10:52:34 2021, MaxMem=   268435456 cpu:               0.1 elap:               0.1
 (Enter /software/gaussian/g16-a03/l302.exe)
 NPDir=0 NMtPBC=     1 NCelOv=     1 NCel=       1 NClECP=     1 NCelD=      1
         NCelK=      1 NCelE2=     1 NClLst=     1 CellRange=     0.0.
 One-electron integrals computed using PRISM.
 One-electron integral symmetry used in STVInt
 NBasis=    56 RedAO= T EigKep=  9.99D-03  NBF=    27     3    11    15
 NBsUse=    56 1.00D-06 EigRej= -1.00D+00 NBFU=    27     3    11    15
 Precomputing XC quadrature grid using
 IXCGrd= 4 IRadAn=           5 IRanWt=          -1 IRanGd=           0 AccXCQ= 0.00D+00.
 Generated NRdTot=       0 NPtTot=           0 NUsed=           0 NTot=          32
 NSgBfM=    58    58    58    58    58 MxSgAt=     4 MxSgA2=     4.
 Leave Link  302 at Fri Sep 17 10:52:34 2021, MaxMem=   268435456 cpu:               0.3 elap:               0.3
 (Enter /software/gaussian/g16-a03/l303.exe)
 DipDrv:  MaxL=1.
 Leave Link  303 at Fri Sep 17 10:52:34 2021, MaxMem=   268435456 cpu:               0.1 elap:               0.1
 (Enter /software/gaussian/g16-a03/l308.exe)
 Leave Link  308 at Fri Sep 17 10:52:34 2021, MaxMem=   268435456 cpu:               0.1 elap:               0.1
 (Enter /software/gaussian/g16-a03/l401.exe)
 ExpMin= 4.38D-02 ExpMax= 8.59D+03 ExpMxC= 1.30D+03 IAcc=3 IRadAn=         5 AccDes= 0.00D+00
 Harris functional with IExCor=  402 and IRadAn=       5 diagonalized for initial guess.
 HarFok:  IExCor=  402 AccDes= 0.00D+00 IRadAn=         5 IDoV= 1 UseB2=F ITyADJ=14
 ICtDFT=  3500011 ScaDFX=  1.000000  1.000000  1.000000  1.000000
 FoFCou: FMM=F IPFlag=           0 FMFlag=      100000 FMFlg1=           0
         NFxFlg=           0 DoJE=T BraDBF=F KetDBF=T FulRan=T
         wScrn=  0.000000 ICntrl=       500 IOpCl=  0 I1Cent=   200000004 NGrid=           0
         NMat0=    1 NMatS0=      1 NMatT0=    0 NMatD0=    1 NMtDS0=    0 NMtDT0=    0
 Petite list used in FoFCou.
 Harris En= -114.444015128379    
 JPrj=0 DoOrth=F DoCkMO=F.
 Initial guess orbital symmetries:
       Occupied  (A1) (A1) (A1) (A1) (B2) (A1) (B1) (B2)
       Virtual   (B1) (A1) (A1) (B2) (B1) (A1) (A1) (B2) (A1) (B1)
                 (B2) (A1) (A1) (B2) (B1) (A1) (B2) (A1) (B1) (A2)
                 (A1) (B2) (B1) (A1) (B2) (A1) (A1) (B2) (B1) (A2)
                 (A1) (B2) (A1) (B2) (A1) (B1) (A1) (A2) (A1) (B1)
                 (B2) (B2) (A1) (B1) (B2) (A1) (A1) (A1)
 The electronic state of the initial guess is 1-A1.
 Leave Link  401 at Fri Sep 17 10:52:35 2021, MaxMem=   268435456 cpu:               0.6 elap:               0.6
 (Enter /software/gaussian/g16-a03/l502.exe)
 Keep R1 ints in memory in symmetry-blocked form, NReq=2159909.
 FoFCou: FMM=F IPFlag=           0 FMFlag=           0 FMFlg1=           0
         NFxFlg=           0 DoJE=F BraDBF=F KetDBF=F FulRan=T
         wScrn=  0.000000 ICntrl=       600 IOpCl=  0 I1Cent=           0 NGrid=           0
         NMat0=    1 NMatS0=   1596 NMatT0=    0 NMatD0=    1 NMtDS0=    0 NMtDT0=    0
 Petite list used in FoFCou.
 Closed shell SCF:
 Using DIIS extrapolation, IDIIS=  1040.
 NGot=   268435456 LenX=   268074384 LenY=   268070579
 Requested convergence on RMS density matrix=1.00D-08 within 128 cycles.
 Requested convergence on MAX density matrix=1.00D-06.
 Requested convergence on             energy=1.00D-06.
 No special actions if energy rises.

 Cycle   1  Pass 1  IDiag  1:
 E= -114.322378185929    
 DIIS: error= 6.49D-02 at cycle   1 NSaved=   1.
 NSaved= 1 IEnMin= 1 EnMin= -114.322378185929     IErMin= 1 ErrMin= 6.49D-02
 ErrMax= 6.49D-02  0.00D+00 EMaxC= 1.00D-01 BMatC= 1.11D-01 BMatP= 1.11D-01
 IDIUse=3 WtCom= 3.51D-01 WtEn= 6.49D-01
 Coeff-Com:  0.100D+01
 Coeff-En:   0.100D+01
 Coeff:      0.100D+01
 Gap=     0.088 Goal=   None    Shift=    0.000
 GapD=    0.088 DampG=0.500 DampE=0.500 DampFc=0.2500 IDamp=-1.
 Damping current iteration by 2.50D-01
 RMSDP=1.75D-02 MaxDP=1.50D-01              OVMax= 3.38D-01

 Cycle   2  Pass 1  IDiag  1:
 E= -114.328969233461     Delta-E=       -0.006591047531 Rises=F Damp=T
 DIIS: error= 1.35D-02 at cycle   2 NSaved=   2.
 NSaved= 2 IEnMin= 2 EnMin= -114.328969233461     IErMin= 2 ErrMin= 1.35D-02
 ErrMax= 1.35D-02  0.00D+00 EMaxC= 1.00D-01 BMatC= 1.29D-02 BMatP= 1.11D-01
 IDIUse=3 WtCom= 8.65D-01 WtEn= 1.35D-01
 Coeff-Com:  0.180D+00 0.820D+00
 Coeff-En:   0.472D+00 0.528D+00
 Coeff:      0.219D+00 0.781D+00
 Gap=     0.067 Goal=   None    Shift=    0.000
 RMSDP=2.45D-03 MaxDP=3.39D-02 DE=-6.59D-03 OVMax= 5.93D-01

 Cycle   3  Pass 1  IDiag  1:
 E= -114.418137215278     Delta-E=       -0.089167981817 Rises=F Damp=F
 DIIS: error= 8.22D-03 at cycle   3 NSaved=   3.
 NSaved= 3 IEnMin= 3 EnMin= -114.418137215278     IErMin= 3 ErrMin= 8.22D-03
 ErrMax= 8.22D-03  0.00D+00 EMaxC= 1.00D-01 BMatC= 2.32D-03 BMatP= 1.29D-02
 IDIUse=3 WtCom= 9.18D-01 WtEn= 8.22D-02
 Coeff-Com:  0.731D-01 0.241D+00 0.686D+00
 Coeff-En:   0.000D+00 0.000D+00 0.100D+01
 Coeff:      0.671D-01 0.221D+00 0.712D+00
 Gap=     0.135 Goal=   None    Shift=    0.000
 RMSDP=8.33D-04 MaxDP=1.69D-02 DE=-8.92D-02 OVMax= 2.77D-02

 Cycle   4  Pass 1  IDiag  1:
 E= -114.419762469050     Delta-E=       -0.001625253772 Rises=F Damp=F
 DIIS: error= 3.97D-03 at cycle   4 NSaved=   4.
 NSaved= 4 IEnMin= 4 EnMin= -114.419762469050     IErMin= 4 ErrMin= 3.97D-03
 ErrMax= 3.97D-03  0.00D+00 EMaxC= 1.00D-01 BMatC= 6.09D-04 BMatP= 2.32D-03
 IDIUse=3 WtCom= 9.60D-01 WtEn= 3.97D-02
 Coeff-Com:  0.397D-01-0.180D-01 0.283D+00 0.695D+00
 Coeff-En:   0.000D+00 0.000D+00 0.124D+00 0.876D+00
 Coeff:      0.381D-01-0.173D-01 0.277D+00 0.702D+00
 Gap=     0.140 Goal=   None    Shift=    0.000
 RMSDP=2.57D-04 MaxDP=6.10D-03 DE=-1.63D-03 OVMax= 6.76D-03

 Cycle   5  Pass 1  IDiag  1:
 E= -114.420319558127     Delta-E=       -0.000557089077 Rises=F Damp=F
 DIIS: error= 1.64D-03 at cycle   5 NSaved=   5.
 NSaved= 5 IEnMin= 5 EnMin= -114.420319558127     IErMin= 5 ErrMin= 1.64D-03
 ErrMax= 1.64D-03  0.00D+00 EMaxC= 1.00D-01 BMatC= 5.69D-05 BMatP= 6.09D-04
 IDIUse=3 WtCom= 9.84D-01 WtEn= 1.64D-02
 Coeff-Com:  0.221D-01-0.320D-01 0.742D-01 0.243D+00 0.693D+00
 Coeff-En:   0.000D+00 0.000D+00 0.000D+00 0.000D+00 0.100D+01
 Coeff:      0.217D-01-0.315D-01 0.730D-01 0.239D+00 0.698D+00
 Gap=     0.141 Goal=   None    Shift=    0.000
 RMSDP=5.36D-05 MaxDP=3.86D-04 DE=-5.57D-04 OVMax= 1.55D-03

 Cycle   6  Pass 1  IDiag  1:
 E= -114.420361958096     Delta-E=       -0.000042399969 Rises=F Damp=F
 DIIS: error= 7.14D-04 at cycle   6 NSaved=   6.
 NSaved= 6 IEnMin= 6 EnMin= -114.420361958096     IErMin= 6 ErrMin= 7.14D-04
 ErrMax= 7.14D-04  0.00D+00 EMaxC= 1.00D-01 BMatC= 9.68D-06 BMatP= 5.69D-05
 IDIUse=3 WtCom= 9.93D-01 WtEn= 7.14D-03
 Coeff-Com:  0.560D-02-0.574D-02 0.593D-02-0.313D-01-0.114D+00 0.114D+01
 Coeff-En:   0.000D+00 0.000D+00 0.000D+00 0.000D+00 0.000D+00 0.100D+01
 Coeff:      0.556D-02-0.570D-02 0.589D-02-0.311D-01-0.113D+00 0.114D+01
 Gap=     0.142 Goal=   None    Shift=    0.000
 RMSDP=2.60D-05 MaxDP=2.45D-04 DE=-4.24D-05 OVMax= 1.19D-03

 Cycle   7  Pass 1  IDiag  1:
 E= -114.420370749531     Delta-E=       -0.000008791435 Rises=F Damp=F
 DIIS: error= 9.23D-05 at cycle   7 NSaved=   7.
 NSaved= 7 IEnMin= 7 EnMin= -114.420370749531     IErMin= 7 ErrMin= 9.23D-05
 ErrMax= 9.23D-05  0.00D+00 EMaxC= 1.00D-01 BMatC= 1.59D-07 BMatP= 9.68D-06
 IDIUse=1 WtCom= 1.00D+00 WtEn= 0.00D+00
 Coeff-Com:  0.449D-03-0.394D-03 0.182D-02 0.154D-02 0.108D-02-0.972D-01
 Coeff-Com:  0.109D+01
 Coeff:      0.449D-03-0.394D-03 0.182D-02 0.154D-02 0.108D-02-0.972D-01
 Coeff:      0.109D+01
 Gap=     0.142 Goal=   None    Shift=    0.000
 RMSDP=2.76D-06 MaxDP=3.53D-05 DE=-8.79D-06 OVMax= 1.63D-04

 Cycle   8  Pass 1  IDiag  1:
 E= -114.420370893402     Delta-E=       -0.000000143871 Rises=F Damp=F
 DIIS: error= 1.73D-05 at cycle   8 NSaved=   8.
 NSaved= 8 IEnMin= 8 EnMin= -114.420370893402     IErMin= 8 ErrMin= 1.73D-05
 ErrMax= 1.73D-05  0.00D+00 EMaxC= 1.00D-01 BMatC= 4.98D-09 BMatP= 1.59D-07
 IDIUse=1 WtCom= 1.00D+00 WtEn= 0.00D+00
 Coeff-Com: -0.263D-04 0.461D-04 0.937D-05 0.848D-03 0.230D-02-0.447D-01
 Coeff-Com:  0.698D-01 0.972D+00
 Coeff:     -0.263D-04 0.461D-04 0.937D-05 0.848D-03 0.230D-02-0.447D-01
 Coeff:      0.698D-01 0.972D+00
 Gap=     0.142 Goal=   None    Shift=    0.000
 RMSDP=7.91D-07 MaxDP=9.99D-06 DE=-1.44D-07 OVMax= 4.60D-05

 Cycle   9  Pass 1  IDiag  1:
 E= -114.420370898075     Delta-E=       -0.000000004673 Rises=F Damp=F
 DIIS: error= 2.80D-06 at cycle   9 NSaved=   9.
 NSaved= 9 IEnMin= 9 EnMin= -114.420370898075     IErMin= 9 ErrMin= 2.80D-06
 ErrMax= 2.80D-06  0.00D+00 EMaxC= 1.00D-01 BMatC= 1.55D-10 BMatP= 4.98D-09
 IDIUse=1 WtCom= 1.00D+00 WtEn= 0.00D+00
 Coeff-Com: -0.272D-05 0.703D-07 0.192D-05 0.466D-04 0.153D-03 0.337D-02
 Coeff-Com: -0.142D-01 0.596D-01 0.951D+00
 Coeff:     -0.272D-05 0.703D-07 0.192D-05 0.466D-04 0.153D-03 0.337D-02
 Coeff:     -0.142D-01 0.596D-01 0.951D+00
 Gap=     0.142 Goal=   None    Shift=    0.000
 RMSDP=1.22D-07 MaxDP=9.49D-07 DE=-4.67D-09 OVMax= 4.64D-06

 Cycle  10  Pass 1  IDiag  1:
 E= -114.420370898216     Delta-E=       -0.000000000141 Rises=F Damp=F
 DIIS: error= 1.84D-07 at cycle  10 NSaved=  10.
 NSaved=10 IEnMin=10 EnMin= -114.420370898216     IErMin=10 ErrMin= 1.84D-07
 ErrMax= 1.84D-07  0.00D+00 EMaxC= 1.00D-01 BMatC= 7.58D-13 BMatP= 1.55D-10
 IDIUse=1 WtCom= 1.00D+00 WtEn= 0.00D+00
 Coeff-Com:  0.990D-07-0.478D-06 0.459D-05 0.561D-05 0.111D-04 0.678D-03
 Coeff-Com: -0.845D-03-0.873D-03 0.838D-01 0.917D+00
 Coeff:      0.990D-07-0.478D-06 0.459D-05 0.561D-05 0.111D-04 0.678D-03
 Coeff:     -0.845D-03-0.873D-03 0.838D-01 0.917D+00
 Gap=     0.142 Goal=   None    Shift=    0.000
 RMSDP=8.83D-09 MaxDP=8.41D-08 DE=-1.41D-10 OVMax= 3.13D-07

 SCF Done:  E(RB3LYP) =  -114.420370898     A.U. after   10 cycles
            NFock= 10  Conv=0.88D-08     -V/T= 2.0092
 KE= 1.133784146003D+02 PE=-3.189377932064D+02 EE= 6.592211814533D+01
 Leave Link  502 at Fri Sep 17 10:52:38 2021, MaxMem=   268435456 cpu:               2.3 elap:               2.6
 (Enter /software/gaussian/g16-a03/l801.exe)
 DoSCS=F DFT=T ScalE2(SS,OS)=  1.000000  1.000000
 ExpMin= 4.38D-02 ExpMax= 8.59D+03 ExpMxC= 1.30D+03 IAcc=3 IRadAn=         5 AccDes= 0.00D+00
 HarFok:  IExCor=  205 AccDes= 0.00D+00 IRadAn=         5 IDoV=-2 UseB2=F ITyADJ=14
 ICtDFT= 12500011 ScaDFX=  1.000000  1.000000  1.000000  1.000000
 Largest valence mixing into a core orbital is  5.36D-05
 Largest core mixing into a valence orbital is  1.25D-05
 Range of M.O.s used for correlation:     3    56
 NBasis=    56 NAE=     8 NBE=     8 NFC=     2 NFV=     0
 NROrb=     54 NOA=     6 NOB=     6 NVA=    48 NVB=    48
 Leave Link  801 at Fri Sep 17 10:52:38 2021, MaxMem=   268435456 cpu:               0.2 elap:               0.2
 (Enter /software/gaussian/g16-a03/l914.exe)
 RHF ground state
 Keep R1, R2, and R3 ints in memory in symmetry-blocked form, NReq=6042848.
 FoFCou: FMM=F IPFlag=           0 FMFlag=           0 FMFlg1=           0
         NFxFlg=           0 DoJE=F BraDBF=F KetDBF=F FulRan=T
         wScrn=  0.000000 ICntrl=       600 IOpCl=  0 I1Cent=           0 NGrid=           0
         NMat0=    1 NMatS0=   1596 NMatT0=    0 NMatD0=    1 NMtDS0=    0 NMtDT0=    0
 Petite list used in FoFCou.
 MDV=   268435456 DFT=T DoStab=F Mixed=T DoRPA=T DoScal=F NonHer=T
 Making orbital integer symmetry assigments:
 Orbital symmetries:
       Occupied  (A1) (A1) (A1) (A1) (B2) (A1) (B1) (B2)
       Virtual   (B1) (A1) (A1) (B2) (B1) (A1) (A1) (B2) (A1) (B1)
                 (B2) (A1) (A1) (B2) (B1) (A1) (B2) (A1) (A2) (B1)
                 (A1) (B2) (B1) (A1) (B2) (A1) (A1) (B2) (B1) (A2)
                 (A1) (B2) (A1) (B2) (A1) (B1) (A1) (A2) (A1) (B1)
                 (B2) (B2) (A1) (B1) (B2) (A1) (A1) (A1)
   120 initial guesses have been made.
 Convergence on wavefunction:    0.001000000000000
 Davidson Disk Diagonalization:  ConvIn= 1.00D-03 SkipCon=T Conv= 1.00D-03.
 Max sub-space:  1728 roots to seek:   120 dimension of matrix:          576
 Iteration     1 Dimension   120 NMult     0 NNew    120
 CISAX will form   120 AO SS matrices at one time.
 NMat=   120 NSing=   120 JSym2X=-1.
 New state      7 was old state      9
 New state      8 was old state      7
 New state      9 was old state      8
 New state     11 was old state     12
 New state     12 was old state     11
 New state     14 was old state     15
 New state     15 was old state     14
 New state     18 was old state     20
 New state     20 was old state     18
 New state     22 was old state     24
 New state     23 was old state     22
 New state     24 was old state     23
 New state     25 was old state     27
 New state     26 was old state     25
 New state     27 was old state     28
 New state     28 was old state     26
 New state     30 was old state     31
 Excitation Energies [eV] at current iteration:
 Root      1 :     1.918914723398422
 Root      2 :     4.943989432705871
 Root      3 :     5.297016014705868
 Root      4 :     5.913232714601715
 Root      5 :     7.028537802446212
 Root      6 :     7.052380988792524
 Root      7 :     7.461178056165797
 Root      8 :     8.046482418788132
 Root      9 :     8.055931558316360
 Root     10 :     8.602738137350835
 Root     11 :     8.961238899871786
 Root     12 :     9.026126149710365
 Root     13 :     9.644571703712934
 Root     14 :    10.010739349844420
 Root     15 :    10.083112278449040
 Root     16 :    10.228458309103770
 Root     17 :    10.605266467628210
 Root     18 :    11.143438567571320
 Root     19 :    11.363645594790160
 Root     20 :    11.387850934746030
 Root     21 :    11.514901565939070
 Root     22 :    11.626212746008600
 Root     23 :    11.652990056982450
 Root     24 :    11.926592526111430
 Root     25 :    12.208679651790480
 Root     26 :    12.367398376238820
 Root     27 :    12.785206093213260
 Root     28 :    13.038742452318120
 Root     29 :    13.157246019817330
 Root     30 :    13.410346418883420
 Root     31 :    13.831871553405240
 Root     32 :    13.907583554793440
 Root     33 :    13.964763200628890
 Root     34 :    14.171490437886880
 Root     35 :    14.517694330666100
 Root     36 :    14.654562736189340
 Root     37 :    14.779350062140700
 Root     38 :    14.882932964165660
 Root     39 :    15.716732845387110
 Root     40 :    15.942744347329700
 Root     41 :    15.960060355792370
 Root     42 :    16.074970900164290
 Root     43 :    16.309469739061320
 Root     44 :    16.609199234930800
 Root     45 :    17.468270597729790
 Root     46 :    17.531459661066160
 Root     47 :    17.757333918194230
 Root     48 :    17.985817086801170
 Root     49 :    18.094757872910410
 Root     50 :    18.367652858939250
 Root     51 :    18.470561117290700
 Root     52 :    18.651236471969430
 Root     53 :    19.083209486928340
 Root     54 :    19.132570387422590
 Root     55 :    19.200283016584010
 Root     56 :    19.675019918198320
 Root     57 :    20.314591472450660
 Root     58 :    20.377174076674390
 Root     59 :    20.402798068883330
 Root     60 :    20.503898678010310
 Root     61 :    20.984114438881530
 Root     62 :    21.160596382503980
 Root     63 :    21.350411067140750
 Root     64 :    21.546589088598630
 Root     65 :    21.841805403660100
 Root     66 :    22.027833837729520
 Root     67 :    22.116789260497080
 Root     68 :    22.623390505579700
 Root     69 :    23.248361261046990
 Root     70 :    23.251523822619200
 Root     71 :    23.352175289513730
 Root     72 :    23.508114618777350
 Root     73 :    23.815589012775970
 Root     74 :    23.899313713239180
 Root     75 :    24.194044396351490
 Root     76 :    24.528675818976520
 Root     77 :    24.856752849444000
 Root     78 :    25.099102715260770
 Root     79 :    25.221525525390800
 Root     80 :    25.357313416489040
 Root     81 :    25.580203879937030
 Root     82 :    25.723915784047670
 Root     83 :    25.901432124315850
 Root     84 :    26.192644546219940
 Root     85 :    26.559036285585480
 Root     86 :    26.567002988655080
 Root     87 :    26.782831923981550
 Root     88 :    27.611238483272010
 Root     89 :    28.020727500127110
 Root     90 :    28.466764080077240
 Root     91 :    28.756197227828940
 Root     92 :    29.141130218488460
 Root     93 :    29.240339881228740
 Root     94 :    29.839112644020180
 Root     95 :    30.024143091913860
 Root     96 :    30.552878338577710
 Root     97 :    30.881017904096330
 Root     98 :    31.188979970621250
 Root     99 :    32.139380484354530
 Root    100 :    32.866752211656810
 Root    101 :    33.057567650975480
 Root    102 :    33.311905472077200
 Root    103 :    33.532181516247650
 Root    104 :    34.532612487112970
 Root    105 :    34.556626710952920
 Root    106 :    34.730070017782770
 Root    107 :    34.792085936042350
 Root    108 :    35.080194844869040
 Root    109 :    35.960967054628770
 Root    110 :    36.228744227497100
 Root    111 :    36.273742178933760
 Root    112 :    36.631064686584250
 Root    113 :    37.162412566074390
 Root    114 :    37.566903151283620
 Root    115 :    37.990059784546990
 Root    116 :    38.611994448059970
 Root    117 :    38.613804674963620
 Root    118 :    39.017197835477480
 Root    119 :    39.864997490856350
 Root    120 :    43.859899944309380
 Iteration     2 Dimension   180 NMult   120 NNew     60
 CISAX will form    60 AO SS matrices at one time.
 NMat=    60 NSing=    60 JSym2X=-1.
 Root      1 not converged, maximum delta is    0.006688381200357
 Root      2 not converged, maximum delta is    0.005925502050854
 Root      3 not converged, maximum delta is    0.010122554646603
 Root      4 not converged, maximum delta is    0.007768618701244
 Root      5 not converged, maximum delta is    0.005898670754526
 Root      6 not converged, maximum delta is    0.007310170976055
 Root      7 not converged, maximum delta is    0.011217459376667
 Root      8 not converged, maximum delta is    0.001996887549772
 Root      9 not converged, maximum delta is    0.004251272446154
 Root     10 not converged, maximum delta is    0.001932810863432
 Root     11 not converged, maximum delta is    0.003868918326616
 Root     12 not converged, maximum delta is    0.001610630059430
 Root     13 not converged, maximum delta is    0.002884285239666
 Root     14 not converged, maximum delta is    0.003154820443889
 Root     15 not converged, maximum delta is    0.004058771789140
 Root     16 not converged, maximum delta is    0.002754694319118
 Root     17 not converged, maximum delta is    0.005541576565703
 Root     18 not converged, maximum delta is    0.004541408424321
 Root     19 not converged, maximum delta is    0.002995721305091
 Root     20 not converged, maximum delta is    0.008670389776069
 Root     21 not converged, maximum delta is    0.004149424067221
 Root     22 not converged, maximum delta is    0.170243273151303
 Root     23 not converged, maximum delta is    0.178928338417626
 Root     24 not converged, maximum delta is    0.001530703067716
 Root     25 not converged, maximum delta is    0.006861693448629
 Root     26 not converged, maximum delta is    0.006586565114588
 Root     27 not converged, maximum delta is    0.002855846022110
 Root     28 not converged, maximum delta is    0.012234949651103
 Root     29 not converged, maximum delta is    0.012726408474650
 Root     30 not converged, maximum delta is    0.004599746341065
 Excitation Energies [eV] at current iteration:
 Root      1 :     1.910386368786491   Change is   -0.008528354611931
 Root      2 :     4.924090816666678   Change is   -0.019898616039193
 Root      3 :     5.264308780695866   Change is   -0.032707234010002
 Root      4 :     5.882767677900334   Change is   -0.030465036701380
 Root      5 :     7.023510054830166   Change is   -0.005027747616046
 Root      6 :     7.035314431573995   Change is   -0.017066557218528
 Root      7 :     7.445942909674141   Change is   -0.015235146491656
 Root      8 :     8.045390375967566   Change is   -0.001092042820567
 Root      9 :     8.052541382389499   Change is   -0.003390175926861
 Root     10 :     8.602360281488510   Change is   -0.000377855862324
 Root     11 :     8.951612332586125   Change is   -0.009626567285662
 Root     12 :     9.025587425911274   Change is   -0.000538723799091
 Root     13 :     9.642127036749285   Change is   -0.002444666963649
 Root     14 :    10.006447903961200   Change is   -0.004291445883224
 Root     15 :    10.076108488545880   Change is   -0.007003789903159
 Root     16 :    10.226021029959930   Change is   -0.002437279143846
 Root     17 :    10.596361900416900   Change is   -0.008904567211311
 Root     18 :    11.140818715819330   Change is   -0.002619851751987
 Root     19 :    11.362152156454240   Change is   -0.001493438335924
 Root     20 :    11.374706931847760   Change is   -0.013144002898263
 Root     21 :    11.512528559497990   Change is   -0.002373006441078
 Root     22 :    11.617846836451310   Change is   -0.008365909557289
 Root     23 :    11.629018768757150   Change is   -0.023971288225300
 Root     24 :    11.925763497971540   Change is   -0.000829028139889
 Root     25 :    12.204891488799410   Change is   -0.003788162991077
 Root     26 :    12.360697255559130   Change is   -0.006701120679689
 Root     27 :    12.782898808730750   Change is   -0.002307284482509
 Root     28 :    13.024426143261000   Change is   -0.014316309057115
 Root     29 :    13.151549931289680   Change is   -0.005696088527649
 Root     30 :    13.404262780238980   Change is   -0.006083638644440
 Iteration     3 Dimension   240 NMult   180 NNew     60
 CISAX will form    60 AO SS matrices at one time.
 NMat=    60 NSing=    60 JSym2X=-1.
 Root      1 has converged.
 Root      2 has converged.
 Root      3 has converged.
 Root      4 has converged.
 Root      5 has converged.
 Root      6 has converged.
 Root      7 has converged.
 Root      8 has converged.
 Root      9 has converged.
 Root     10 has converged.
 Root     11 has converged.
 Root     12 has converged.
 Root     13 has converged.
 Root     14 has converged.
 Root     15 has converged.
 Root     16 has converged.
 Root     17 has converged.
 Root     18 has converged.
 Root     19 has converged.
 Root     20 has converged.
 Root     21 has converged.
 Root     22 has converged.
 Root     23 has converged.
 Root     24 has converged.
 Root     25 has converged.
 Root     26 has converged.
 Root     27 has converged.
 Root     28 has converged.
 Root     29 has converged.
 Root     30 has converged.
 Excitation Energies [eV] at current iteration:
 Root      1 :     1.910385229653555   Change is   -0.000001139132936
 Root      2 :     4.924073056965280   Change is   -0.000017759701398
 Root      3 :     5.264289441477784   Change is   -0.000019339218082
 Root      4 :     5.882750888796413   Change is   -0.000016789103921
 Root      5 :     7.023507093210482   Change is   -0.000002961619684
 Root      6 :     7.035307256297647   Change is   -0.000007175276348
 Root      7 :     7.445936726985255   Change is   -0.000006182688887
 Root      8 :     8.045389306619976   Change is   -0.000001069347590
 Root      9 :     8.052539824386926   Change is   -0.000001558002572
 Root     10 :     8.602360224729580   Change is   -0.000000056758931
 Root     11 :     8.951603495991309   Change is   -0.000008836594815
 Root     12 :     9.025587103027538   Change is   -0.000000322883735
 Root     13 :     9.642122435918774   Change is   -0.000004600830512
 Root     14 :    10.006444627762340   Change is   -0.000003276198860
 Root     15 :    10.076094416458510   Change is   -0.000014072087369
 Root     16 :    10.226019036205280   Change is   -0.000001993754652
 Root     17 :    10.596346142183880   Change is   -0.000015758233026
 Root     18 :    11.140815657988650   Change is   -0.000003057830679
 Root     19 :    11.362149826713400   Change is   -0.000002329740834
 Root     20 :    11.374671131448340   Change is   -0.000035800399427
 Root     21 :    11.512524788098420   Change is   -0.000003771399570
 Root     22 :    11.617834617138630   Change is   -0.000012219312681
 Root     23 :    11.628990779649120   Change is   -0.000027989108034
 Root     24 :    11.925762999164450   Change is   -0.000000498807094
 Root     25 :    12.204889950289370   Change is   -0.000001538510035
 Root     26 :    12.360689117263860   Change is   -0.000008138295276
 Root     27 :    12.782894510908120   Change is   -0.000004297822630
 Root     28 :    13.024392439550750   Change is   -0.000033703710251
 Root     29 :    13.151540630019500   Change is   -0.000009301270181
 Root     30 :    13.404245511045170   Change is   -0.000017269193811
 Convergence achieved on expansion vectors.
 ***********************************************************************
 Excited states from <AA,BB:AA,BB> singles matrix:
 ***********************************************************************
 
 1PDM for each excited state written to RWF  633
 Ground to excited state transition densities written to RWF  633
 Ground to excited state transition electric dipole moments (Au):
       state          X           Y           Z        Dip. S.      Osc.
         1         0.0000     -0.0000      0.0000      0.0000      0.0000
         2        -0.0000      0.0000      0.7644      0.5843      0.0705
         3         0.1027     -0.0000     -0.0000      0.0106      0.0014
         4        -0.0000     -0.2911     -0.0000      0.0848      0.0122
         5        -0.0000     -0.0979     -0.0000      0.0096      0.0016
         6        -0.1805      0.0000      0.0000      0.0326      0.0056
         7        -0.0000     -0.0000      0.0000      0.0000      0.0000
         8        -0.0000     -0.0000     -0.3093      0.0957      0.0189
         9        -0.6851     -0.0000      0.0000      0.4694      0.0926
        10        -0.0000      0.0000      0.0000      0.0000      0.0000
        11         0.0000     -0.2961      0.0000      0.0877      0.0192
        12        -0.0000      0.0000      0.0000      0.0000      0.0000
        13         0.0000      0.0000      0.2083      0.0434      0.0103
        14        -0.2034      0.0000     -0.0000      0.0414      0.0101
        15        -0.0000      0.0000     -0.7914      0.6263      0.1546
        16         0.0000     -0.3458     -0.0000      0.1196      0.0300
        17        -0.0000      0.0000     -0.3656      0.1337      0.0347
        18        -0.4044      0.0000     -0.0000      0.1635      0.0446
        19        -0.0000     -0.3260     -0.0000      0.1063      0.0296
        20         0.0000      0.0000     -1.0540      1.1109      0.3096
        21        -0.0000     -0.0000     -0.0000      0.0000      0.0000
        22         0.0000     -0.1475      0.0000      0.0218      0.0062
        23         0.0000      0.1904      0.0000      0.0362      0.0103
        24        -0.1209      0.0000     -0.0000      0.0146      0.0043
        25        -0.0000     -0.0000      0.0000      0.0000      0.0000
        26         0.0000     -0.6504     -0.0000      0.4230      0.1281
        27         0.1269      0.0000     -0.0000      0.0161      0.0050
        28        -0.0000     -0.0000      1.0207      1.0418      0.3324
        29         0.0000      0.0000     -0.3096      0.0958      0.0309
        30         0.0000      0.0000      0.3849      0.1481      0.0486
 Ground to excited state transition velocity dipole moments (Au):
       state          X           Y           Z        Dip. S.      Osc.
         1        -0.0000      0.0000     -0.0000      0.0000      0.0000
         2         0.0000     -0.0000     -0.1255      0.0158      0.0581
         3        -0.0383     -0.0000      0.0000      0.0015      0.0050
         4         0.0000      0.0620      0.0000      0.0038      0.0119
         5         0.0000      0.0216     -0.0000      0.0005      0.0012
         6         0.0376     -0.0000     -0.0000      0.0014      0.0036
         7         0.0000     -0.0000      0.0000      0.0000      0.0000
         8         0.0000      0.0000      0.0893      0.0080      0.0180
         9         0.2050      0.0000     -0.0000      0.0420      0.0946
        10        -0.0000     -0.0000     -0.0000      0.0000      0.0000
        11        -0.0000      0.1025     -0.0000      0.0105      0.0213
        12        -0.0000     -0.0000     -0.0000      0.0000      0.0000
        13        -0.0000     -0.0000     -0.0710      0.0050      0.0095
        14         0.0927      0.0000     -0.0000      0.0086      0.0156
        15         0.0000      0.0000      0.2978      0.0887      0.1596
        16        -0.0000      0.1330     -0.0000      0.0177      0.0314
        17         0.0000      0.0000      0.1537      0.0236      0.0405
        18         0.1508      0.0000      0.0000      0.0227      0.0370
        19        -0.0000      0.1364      0.0000      0.0186      0.0297
        20        -0.0000     -0.0000      0.4430      0.1962      0.3130
        21         0.0000      0.0000      0.0000      0.0000      0.0000
        22        -0.0000      0.0563     -0.0000      0.0032      0.0050
        23        -0.0000     -0.0893     -0.0000      0.0080      0.0124
        24         0.0482     -0.0000     -0.0000      0.0023      0.0035
        25         0.0000      0.0000     -0.0000      0.0000      0.0000
        26        -0.0000      0.2897      0.0000      0.0839      0.1232
        27        -0.0510     -0.0000      0.0000      0.0026      0.0037
        28        -0.0000      0.0000     -0.4748      0.2254      0.3140
        29        -0.0000     -0.0000      0.1389      0.0193      0.0266
        30        -0.0000     -0.0000     -0.1823      0.0332      0.0450
 Ground to excited state transition magnetic dipole moments (Au):
       state          X           Y           Z
         1         0.0000      0.0000      1.0286
         2        -0.0000      0.0000     -0.0000
         3        -0.0000     -1.7374     -0.0000
         4         0.2216      0.0000      0.0000
         5        -0.4005     -0.0000      0.0000
         6         0.0000     -0.5342      0.0000
         7        -0.0000     -0.0000     -0.9872
         8         0.0000      0.0000     -0.0000
         9         0.0000     -0.2299     -0.0000
        10         0.0000     -0.0000      0.0063
        11        -0.5715      0.0000     -0.0000
        12        -0.0000      0.0000      0.0268
        13         0.0000     -0.0000     -0.0000
        14        -0.0000      0.3847     -0.0000
        15        -0.0000      0.0000      0.0000
        16         0.4184      0.0000     -0.0000
        17         0.0000      0.0000      0.0000
        18         0.0000      0.2578     -0.0000
        19        -0.2118     -0.0000      0.0000
        20         0.0000      0.0000     -0.0000
        21        -0.0000      0.0000     -0.0565
        22        -0.0675      0.0000      0.0000
        23         0.4694      0.0000     -0.0000
        24         0.0000      0.1214      0.0000
        25         0.0000      0.0000     -0.0339
        26         0.9598      0.0000     -0.0000
        27        -0.0000     -0.0022      0.0000
        28         0.0000     -0.0000      0.0000
        29        -0.0000     -0.0000      0.0000
        30        -0.0000     -0.0000     -0.0000
 Ground to excited state transition velocity quadrupole moments (Au):
       state          XX          YY          ZZ          XY          XZ          YZ
         1        -0.0000     -0.0000      0.0000     -0.0364      0.0000      0.0000
         2         0.0829     -0.0052     -0.0457     -0.0000      0.0000      0.0000
         3        -0.0000     -0.0000      0.0000      0.0000     -0.1436      0.0000
         4         0.0000      0.0000      0.0000     -0.0000      0.0000     -0.0324
         5        -0.0000      0.0000     -0.0000      0.0000      0.0000      0.3173
         6         0.0000      0.0000      0.0000     -0.0000      0.2266     -0.0000
         7        -0.0000     -0.0000     -0.0000      0.1792      0.0000      0.0000
         8         0.0323      0.0183     -0.2252      0.0000      0.0000     -0.0000
         9        -0.0000     -0.0000      0.0000     -0.0000     -0.0750     -0.0000
        10        -0.0000      0.0000     -0.0000      0.0530      0.0000     -0.0000
        11         0.0000      0.0000      0.0000     -0.0000      0.0000      0.1885
        12        -0.0000      0.0000     -0.0000      0.2845      0.0000      0.0000
        13         0.8080      0.0437     -0.0650     -0.0000     -0.0000     -0.0000
        14         0.0000      0.0000     -0.0000     -0.0000      0.3014      0.0000
        15         0.0895      0.0532     -0.3280      0.0000      0.0000     -0.0000
        16         0.0000      0.0000     -0.0000     -0.0000      0.0000     -0.1072
        17         0.2683      0.3428      0.5375     -0.0000      0.0000      0.0000
        18         0.0000      0.0000     -0.0000      0.0000     -0.0338      0.0000
        19         0.0000     -0.0000     -0.0000      0.0000      0.0000     -0.4580
        20        -0.0410     -0.3954     -0.2093      0.0000      0.0000      0.0000
        21        -0.0000     -0.0000      0.0000     -0.2656     -0.0000     -0.0000
        22         0.0000      0.0000     -0.0000      0.0000     -0.0000      0.0957
        23         0.0000      0.0000     -0.0000     -0.0000      0.0000      0.7606
        24         0.0000      0.0000     -0.0000      0.0000     -0.1331      0.0000
        25        -0.0000     -0.0000      0.0000      0.3803      0.0000     -0.0000
        26         0.0000      0.0000     -0.0000     -0.0000      0.0000     -0.4934
        27         0.0000     -0.0000     -0.0000     -0.0000      0.2928      0.0000
        28        -0.2493      0.5908     -0.1611     -0.0000     -0.0000      0.0000
        29        -0.2004      0.4002      0.1733      0.0000      0.0000     -0.0000
        30         0.0354      0.5107      0.3317      0.0000     -0.0000      0.0000
 <0|del|b> * <b|rxdel|0> + <0|del|b> * <b|delr+rdel|0>
 Rotatory Strengths (R) in cgs (10**-40 erg-esu-cm/Gauss)
       state          XX          YY          ZZ    R(velocity)    E-M Angle
         1        -0.0000     -0.0000     -0.0000     -0.0000       90.00
         2         0.0000     -0.0000     -0.0000      0.0000       90.00
         3         0.0000      0.0000      0.0000      0.0000       90.00
         4         0.0000      0.0000      0.0000      0.0000       90.00
         5        -0.0000     -0.0000     -0.0000     -0.0000       90.00
         6         0.0000      0.0000      0.0000      0.0000       90.00
         7        -0.0000     -0.0000      0.0000     -0.0000       90.00
         8         0.0000     -0.0000      0.0000     -0.0000       90.00
         9        -0.0000      0.0000      0.0000      0.0000       90.00
        10        -0.0000      0.0000     -0.0000     -0.0000       90.00
        11         0.0000      0.0000      0.0000      0.0000       90.00
        12        -0.0000      0.0000      0.0000     -0.0000       90.00
        13         0.0000     -0.0000     -0.0000      0.0000       90.00
        14         0.0000     -0.0000     -0.0000     -0.0000       90.00
        15         0.0000     -0.0000      0.0000      0.0000       90.00
        16         0.0000     -0.0000     -0.0000     -0.0000       90.00
        17        -0.0000      0.0000      0.0000      0.0000       90.00
        18         0.0000      0.0000      0.0000      0.0000       90.00
        19        -0.0000      0.0000      0.0000     -0.0000       90.00
        20         0.0000     -0.0000     -0.0000     -0.0000       90.00
        21        -0.0000      0.0000      0.0000     -0.0000       90.00
        22         0.0000     -0.0000      0.0000      0.0000       90.00
        23         0.0000     -0.0000      0.0000     -0.0000       90.00
        24        -0.0000      0.0000     -0.0000      0.0000       90.00
        25        -0.0000      0.0000      0.0000      0.0000       90.00
        26         0.0000     -0.0000     -0.0000     -0.0000       90.00
        27         0.0000     -0.0000      0.0000      0.0000       90.00
        28         0.0000     -0.0000     -0.0000     -0.0000       90.00
        29         0.0000      0.0000     -0.0000      0.0000       90.00
        30        -0.0000      0.0000      0.0000      0.0000       90.00
 1/2[<0|r|b>*<b|rxdel|0> + (<0|rxdel|b>*<b|r|0>)*]
 Rotatory Strengths (R) in cgs (10**-40 erg-esu-cm/Gauss)
       state          XX          YY          ZZ     R(length)
         1        -0.0000      0.0000     -0.0000     -0.0000
         2        -0.0000     -0.0000      0.0000      0.0000
         3         0.0000     -0.0000     -0.0000     -0.0000
         4         0.0000      0.0000      0.0000      0.0000
         5        -0.0000     -0.0000      0.0000     -0.0000
         6         0.0000      0.0000     -0.0000      0.0000
         7        -0.0000     -0.0000      0.0000      0.0000
         8         0.0000      0.0000     -0.0000     -0.0000
         9         0.0000     -0.0000      0.0000      0.0000
        10         0.0000      0.0000     -0.0000     -0.0000
        11         0.0000      0.0000      0.0000      0.0000
        12        -0.0000     -0.0000     -0.0000     -0.0000
        13        -0.0000      0.0000      0.0000      0.0000
        14        -0.0000     -0.0000     -0.0000     -0.0000
        15        -0.0000     -0.0000      0.0000      0.0000
        16        -0.0000      0.0000     -0.0000      0.0000
        17         0.0000     -0.0000      0.0000      0.0000
        18         0.0000     -0.0000     -0.0000      0.0000
        19        -0.0000     -0.0000      0.0000     -0.0000
        20        -0.0000     -0.0000     -0.0000     -0.0000
        21        -0.0000      0.0000     -0.0000     -0.0000
        22         0.0000      0.0000     -0.0000      0.0000
        23        -0.0000     -0.0000      0.0000     -0.0000
        24         0.0000     -0.0000      0.0000      0.0000
        25         0.0000      0.0000      0.0000      0.0000
        26        -0.0000      0.0000     -0.0000      0.0000
        27         0.0000      0.0000      0.0000      0.0000
        28         0.0000     -0.0000     -0.0000     -0.0000
        29         0.0000      0.0000      0.0000      0.0000
        30         0.0000      0.0000      0.0000      0.0000
  1/2[<0|del|b>*<b|r|0> + (<0|r|b>*<b|del|0>)*] (Au)
       state          X           Y           Z        Dip. S.   Osc.(frdel)
         1        -0.0000     -0.0000     -0.0000      0.0000      0.0000
         2        -0.0000     -0.0000     -0.0960      0.0960      0.0640
         3        -0.0039      0.0000     -0.0000      0.0039      0.0026
         4        -0.0000     -0.0181     -0.0000      0.0181      0.0120
         5        -0.0000     -0.0021      0.0000      0.0021      0.0014
         6        -0.0068     -0.0000     -0.0000      0.0068      0.0045
         7        -0.0000      0.0000      0.0000     -0.0000     -0.0000
         8        -0.0000     -0.0000     -0.0276      0.0276      0.0184
         9        -0.1404     -0.0000     -0.0000      0.1404      0.0936
        10         0.0000     -0.0000     -0.0000     -0.0000     -0.0000
        11        -0.0000     -0.0303     -0.0000      0.0303      0.0202
        12         0.0000     -0.0000     -0.0000      0.0000      0.0000
        13        -0.0000     -0.0000     -0.0148      0.0148      0.0099
        14        -0.0189      0.0000      0.0000      0.0189      0.0126
        15        -0.0000      0.0000     -0.2357      0.2357      0.1571
        16        -0.0000     -0.0460      0.0000      0.0460      0.0307
        17        -0.0000      0.0000     -0.0562      0.0562      0.0375
        18        -0.0610      0.0000     -0.0000      0.0610      0.0407
        19         0.0000     -0.0444     -0.0000      0.0444      0.0296
        20        -0.0000     -0.0000     -0.4669      0.4669      0.3113
        21        -0.0000     -0.0000     -0.0000      0.0000      0.0000
        22        -0.0000     -0.0083     -0.0000      0.0083      0.0055
        23        -0.0000     -0.0170     -0.0000      0.0170      0.0113
        24        -0.0058     -0.0000      0.0000      0.0058      0.0039
        25        -0.0000     -0.0000     -0.0000      0.0000      0.0000
        26        -0.0000     -0.1884     -0.0000      0.1884      0.1256
        27        -0.0065     -0.0000     -0.0000      0.0065      0.0043
        28         0.0000     -0.0000     -0.4846      0.4846      0.3231
        29        -0.0000     -0.0000     -0.0430      0.0430      0.0287
        30        -0.0000     -0.0000     -0.0702      0.0702      0.0468

 Excitation energies and oscillator strengths:
 
 Excited State   1:      Singlet-A2     1.9104 eV  649.00 nm  f=0.0000  <S**2>=0.000
       3 -> 27         0.00113
       3 -> 38         0.00083
       3 -> 46         0.00331
       4 -> 27         0.00067
       4 -> 38        -0.00012
       4 -> 46        -0.00127
       5 ->  9         0.00677
       5 -> 13         0.00097
       5 -> 18         0.00276
       5 -> 23         0.00161
       5 -> 28         0.00238
       5 -> 31        -0.00015
       5 -> 37         0.00131
       5 -> 44         0.00032
       5 -> 52         0.00032
       6 -> 27        -0.00063
       6 -> 38        -0.00075
       6 -> 46         0.00130
       7 -> 12        -0.00094
       7 -> 16         0.00481
       7 -> 19        -0.00410
       7 -> 22        -0.00083
       7 -> 25         0.00091
       7 -> 30        -0.00158
       7 -> 33         0.00035
       7 -> 49         0.00012
       7 -> 50         0.00015
       7 -> 53         0.00044
       8 ->  9         0.70870
       8 -> 13        -0.01248
       8 -> 18         0.02157
       8 -> 23        -0.00315
       8 -> 28         0.01100
       8 -> 31         0.00115
       8 -> 37         0.00062
       8 -> 48        -0.00031
       8 -> 52         0.00193
       3 <- 27         0.00051
       3 <- 38         0.00056
       3 <- 46         0.00335
       4 <- 27         0.00117
       4 <- 38         0.00023
       4 <- 46        -0.00102
       5 <-  9        -0.00019
       5 <- 13        -0.00050
       5 <- 18        -0.00065
       5 <- 23         0.00026
       5 <- 28        -0.00045
       5 <- 31         0.00034
       5 <- 37         0.00074
       5 <- 44         0.00011
       6 <- 38        -0.00061
       6 <- 46         0.00100
       7 <- 12         0.00075
       7 <- 16        -0.01013
       7 <- 19         0.00392
       7 <- 22         0.00682
       7 <- 25         0.00055
       7 <- 30         0.00531
       7 <- 33        -0.00049
       7 <- 36         0.00074
       7 <- 40        -0.00045
       7 <- 42         0.00015
       7 <- 49        -0.00041
       7 <- 53         0.00146
       8 <-  9        -0.05364
       8 <- 13         0.00038
       8 <- 18        -0.00671
       8 <- 23         0.00011
       8 <- 28        -0.00242
       8 <- 31        -0.00065
       8 <- 37        -0.00043
       8 <- 52         0.00050
 This state for optimization and/or second-order correction.
 Total Energy, E(TD-HF/TD-DFT) =  -114.350165533    
 Copying the excited state density for this state as the 1-particle RhoCI density.
 
 Excited State   2:      Singlet-A1     4.9241 eV  251.79 nm  f=0.0705  <S**2>=0.000
       3 -> 10        -0.01656
       3 -> 11        -0.01258
       3 -> 14         0.01032
       3 -> 15         0.00534
       3 -> 17        -0.00349
       3 -> 20        -0.00394
       3 -> 21        -0.00097
       3 -> 24         0.00228
       3 -> 26         0.00370
       3 -> 29        -0.00122
       3 -> 32         0.00277
       3 -> 34         0.00229
       3 -> 35        -0.00109
       3 -> 39         0.00079
       3 -> 43         0.00045
       3 -> 45         0.00015
       3 -> 47         0.00227
       3 -> 51         0.00109
       3 -> 54         0.00017
       4 -> 10        -0.01068
       4 -> 11         0.01272
       4 -> 14         0.00533
       4 -> 15        -0.00978
       4 -> 17         0.00307
       4 -> 20         0.00498
       4 -> 21         0.00041
       4 -> 24        -0.00494
       4 -> 26         0.00492
       4 -> 29         0.00107
       4 -> 32        -0.00134
       4 -> 34        -0.00163
       4 -> 35         0.00042
       4 -> 41         0.00013
       4 -> 43        -0.00046
       4 -> 45        -0.00081
       4 -> 47        -0.00119
       4 -> 51        -0.00032
       4 -> 54         0.00011
       5 -> 12         0.01658
       5 -> 16         0.01020
       5 -> 19         0.00147
       5 -> 22         0.00744
       5 -> 25         0.00797
       5 -> 30        -0.00018
       5 -> 33        -0.00302
       5 -> 36         0.00276
       5 -> 40        -0.00146
       5 -> 42         0.00066
       5 -> 49         0.00044
       5 -> 50        -0.00069
       5 -> 53        -0.00013
       6 -> 10         0.15558
       6 -> 11         0.10236
       6 -> 14        -0.09371
       6 -> 15        -0.06051
       6 -> 17        -0.01982
       6 -> 20        -0.01017
       6 -> 21         0.01296
       6 -> 24        -0.01356
       6 -> 26        -0.00651
       6 -> 29        -0.00780
       6 -> 32         0.00098
       6 -> 34         0.00145
       6 -> 35        -0.00063
       6 -> 39         0.00088
       6 -> 41        -0.00038
       6 -> 43         0.00082
       6 -> 45         0.00081
       6 -> 47         0.00121
       6 -> 51         0.00081
       6 -> 54        -0.00070
       7 ->  9         0.68358
       7 -> 18        -0.01776
       7 -> 23        -0.00018
       7 -> 28        -0.00116
       7 -> 31        -0.00305
       7 -> 37         0.00093
       7 -> 44        -0.00105
       7 -> 48         0.00038
       7 -> 52         0.00105
       8 -> 12        -0.00748
       8 -> 16         0.06675
       8 -> 19        -0.02387
       8 -> 22        -0.02536
       8 -> 25         0.00055
       8 -> 30        -0.01174
       8 -> 33         0.00213
       8 -> 36        -0.00252
       8 -> 40         0.00122
       8 -> 42        -0.00035
       8 -> 49         0.00055
       8 -> 50         0.00023
       8 -> 53        -0.00069
       3 <- 10        -0.01127
       3 <- 11        -0.00901
       3 <- 14         0.00772
       3 <- 15         0.00352
       3 <- 17        -0.00181
       3 <- 20        -0.00289
       3 <- 21        -0.00131
       3 <- 24         0.00139
       3 <- 26         0.00218
       3 <- 29        -0.00073
       3 <- 32         0.00253
       3 <- 34         0.00146
       3 <- 35        -0.00094
       3 <- 39         0.00071
       3 <- 43         0.00054
       3 <- 45         0.00035
       3 <- 47         0.00236
       3 <- 51         0.00106
       3 <- 54         0.00027
       4 <- 10        -0.00520
       4 <- 11         0.00808
       4 <- 14         0.00276
       4 <- 15        -0.00587
       4 <- 17         0.00157
       4 <- 20         0.00428
       4 <- 21         0.00029
       4 <- 24        -0.00339
       4 <- 26         0.00392
       4 <- 29         0.00027
       4 <- 32        -0.00164
       4 <- 34        -0.00143
       4 <- 35         0.00065
       4 <- 39        -0.00013
       4 <- 43        -0.00045
       4 <- 45        -0.00090
       4 <- 47        -0.00080
       4 <- 51        -0.00017
       5 <- 12         0.00762
       5 <- 16         0.00532
       5 <- 19         0.00103
       5 <- 22         0.00466
       5 <- 25         0.00547
       5 <- 33        -0.00235
       5 <- 36         0.00226
       5 <- 40        -0.00128
       5 <- 42         0.00054
       5 <- 49         0.00039
       5 <- 50        -0.00063
       5 <- 53        -0.00012
       6 <- 10         0.04679
       6 <- 11         0.03307
       6 <- 14        -0.03716
       6 <- 15        -0.02618
       6 <- 17        -0.00978
       6 <- 20        -0.00660
       6 <- 21         0.00762
       6 <- 24        -0.00829
       6 <- 26        -0.00380
       6 <- 29        -0.00536
       6 <- 32         0.00142
       6 <- 34         0.00176
       6 <- 35        -0.00084
       6 <- 39         0.00094
       6 <- 41        -0.00027
       6 <- 43         0.00070
       6 <- 45         0.00072
       6 <- 47         0.00076
       6 <- 51         0.00064
       6 <- 54        -0.00059
       7 <-  9        -0.12509
       7 <- 13         0.00713
       7 <- 18        -0.01370
       7 <- 23         0.00329
       7 <- 28        -0.00370
       7 <- 31        -0.00142
       7 <- 37         0.00035
       7 <- 44        -0.00064
       7 <- 48        -0.00019
       7 <- 52         0.00092
       8 <- 12        -0.00183
       8 <- 16         0.02425
       8 <- 19        -0.01049
       8 <- 22        -0.01396
       8 <- 25         0.00011
       8 <- 30        -0.00854
       8 <- 33         0.00160
       8 <- 36        -0.00193
       8 <- 40         0.00098
       8 <- 42        -0.00028
       8 <- 49         0.00036
       8 <- 50         0.00019
       8 <- 53        -0.00063
 
 Excited State   3:      Singlet-B1     5.2643 eV  235.52 nm  f=0.0014  <S**2>=0.000
       3 ->  9        -0.02844
       3 -> 13         0.00165
       3 -> 18        -0.00458
       3 -> 23         0.00173
       3 -> 28        -0.00091
       3 -> 31        -0.00048
       3 -> 44         0.00024
       3 -> 48         0.00097
       3 -> 52         0.00095
       4 ->  9         0.01335
       4 -> 13        -0.00266
       4 -> 18         0.00024
       4 -> 23        -0.00240
       4 -> 28         0.00025
       4 -> 31        -0.00151
       4 -> 37        -0.00040
       4 -> 44         0.00013
       4 -> 48        -0.00107
       4 -> 52        -0.00057
       5 -> 38         0.00201
       5 -> 46         0.00088
       6 ->  9         0.70477
       6 -> 13        -0.01989
       6 -> 18         0.01661
       6 -> 23        -0.01092
       6 -> 28         0.00419
       6 -> 31         0.00321
       6 -> 37        -0.00214
       6 -> 44        -0.00278
       6 -> 48         0.00410
       6 -> 52         0.00142
       7 -> 10         0.04517
       7 -> 11         0.02612
       7 -> 14        -0.01827
       7 -> 15        -0.00676
       7 -> 17        -0.00910
       7 -> 20         0.00300
       7 -> 21         0.00027
       7 -> 24        -0.00068
       7 -> 26        -0.00158
       7 -> 29        -0.00389
       7 -> 32        -0.00056
       7 -> 34         0.00079
       7 -> 35         0.00177
       7 -> 39         0.00014
       7 -> 41        -0.00052
       7 -> 43         0.00054
       7 -> 45        -0.00030
       7 -> 47         0.00420
       7 -> 51         0.00118
       7 -> 54         0.00039
       8 -> 27         0.00047
       8 -> 46         0.00526
       3 <-  9        -0.00955
       3 <- 13        -0.00066
       3 <- 18        -0.00288
       3 <- 23        -0.00057
       3 <- 28        -0.00058
       3 <- 31        -0.00068
       3 <- 44        -0.00024
       3 <- 48         0.00114
       3 <- 52         0.00076
       4 <-  9         0.00674
       4 <- 13        -0.00029
       4 <- 18         0.00190
       4 <- 23        -0.00063
       4 <- 28         0.00161
       4 <- 31        -0.00102
       4 <- 37        -0.00022
       4 <- 48        -0.00092
       4 <- 52        -0.00032
       5 <- 27        -0.00062
       5 <- 38         0.00164
       5 <- 46         0.00078
       6 <-  9        -0.02586
       6 <- 13         0.00171
       6 <- 18        -0.00333
       6 <- 23        -0.00027
       6 <- 28        -0.00341
       6 <- 31         0.00117
       6 <- 37        -0.00185
       6 <- 44        -0.00147
       6 <- 48         0.00367
       6 <- 52         0.00047
       7 <- 10        -0.01802
       7 <- 11        -0.01262
       7 <- 14         0.01499
       7 <- 15         0.01210
       7 <- 17         0.00159
       7 <- 20         0.00489
       7 <- 21        -0.00425
       7 <- 24         0.00446
       7 <- 26         0.00174
       7 <- 29         0.00117
       7 <- 34         0.00078
       7 <- 35         0.00262
       7 <- 39         0.00045
       7 <- 41        -0.00017
       7 <- 43         0.00039
       7 <- 45        -0.00044
       7 <- 47         0.00384
       7 <- 51         0.00107
       7 <- 54         0.00106
       8 <- 27         0.00093
       8 <- 38         0.00026
       8 <- 46         0.00490
 
 Excited State   4:      Singlet-B2     5.8828 eV  210.76 nm  f=0.0122  <S**2>=0.000
       3 -> 12        -0.00153
       3 -> 16         0.00199
       3 -> 19        -0.00458
       3 -> 22         0.00055
       3 -> 25         0.00047
       3 -> 30        -0.00339
       3 -> 33        -0.00023
       3 -> 36         0.00216
       3 -> 40        -0.00180
       3 -> 42         0.00025
       3 -> 49        -0.00280
       3 -> 50         0.00022
       3 -> 53         0.00030
       4 -> 12         0.00044
       4 -> 16        -0.00264
       4 -> 19         0.00017
       4 -> 22         0.00303
       4 -> 25        -0.00184
       4 -> 30         0.00146
       4 -> 33        -0.00048
       4 -> 36         0.00054
       4 -> 40         0.00050
       4 -> 49         0.00046
       4 -> 50        -0.00012
       5 -> 10         0.00766
       5 -> 11         0.00558
       5 -> 14        -0.01154
       5 -> 15         0.00379
       5 -> 17         0.00050
       5 -> 20         0.00212
       5 -> 21         0.00599
       5 -> 24         0.00187
       5 -> 26        -0.00172
       5 -> 29        -0.00200
       5 -> 32        -0.00170
       5 -> 34        -0.00118
       5 -> 35        -0.00043
       5 -> 39        -0.00102
       5 -> 41         0.00072
       5 -> 45         0.00017
       5 -> 47        -0.00082
       5 -> 51         0.00050
       5 -> 54        -0.00024
       6 -> 12         0.00319
       6 -> 16        -0.00178
       6 -> 19         0.00315
       6 -> 22        -0.00020
       6 -> 25        -0.00085
       6 -> 30        -0.00052
       6 -> 33         0.00030
       6 -> 36        -0.00211
       6 -> 40         0.00172
       6 -> 42        -0.00042
       6 -> 49         0.00163
       6 -> 53        -0.00037
       7 -> 27        -0.00067
       7 -> 38         0.00082
       7 -> 46         0.00373
       8 -> 10         0.64524
       8 -> 11         0.25449
       8 -> 14        -0.12371
       8 -> 15        -0.05904
       8 -> 17        -0.01398
       8 -> 20        -0.00102
       8 -> 21         0.00710
       8 -> 24        -0.00672
       8 -> 26        -0.00562
       8 -> 29        -0.01020
       8 -> 32        -0.00313
       8 -> 34        -0.00194
       8 -> 35        -0.00028
       8 -> 39        -0.00066
       8 -> 41         0.00021
       8 -> 43        -0.00040
       8 -> 45         0.00171
       8 -> 47        -0.00442
       8 -> 51         0.00221
       8 -> 54        -0.00172
       3 <- 12        -0.00056
       3 <- 16         0.00054
       3 <- 19        -0.00216
       3 <- 22         0.00091
       3 <- 25         0.00044
       3 <- 30        -0.00135
       3 <- 33        -0.00020
       3 <- 36         0.00166
       3 <- 40        -0.00160
       3 <- 42         0.00022
       3 <- 49        -0.00288
       3 <- 50         0.00019
       3 <- 53         0.00085
       4 <- 12        -0.00016
       4 <- 16        -0.00232
       4 <- 19        -0.00015
       4 <- 22         0.00274
       4 <- 25        -0.00114
       4 <- 30         0.00131
       4 <- 33        -0.00055
       4 <- 36         0.00075
       4 <- 40         0.00017
       4 <- 42         0.00011
       4 <- 49         0.00035
       5 <- 10         0.00014
       5 <- 11        -0.00157
       5 <- 14        -0.00152
       5 <- 15         0.00385
       5 <- 17         0.00022
       5 <- 20         0.00058
       5 <- 21         0.00212
       5 <- 24         0.00252
       5 <- 26        -0.00051
       5 <- 29        -0.00050
       5 <- 34        -0.00028
       5 <- 39        -0.00035
       5 <- 41         0.00073
       5 <- 43         0.00011
       5 <- 45         0.00046
       5 <- 47        -0.00069
       5 <- 51         0.00027
       6 <- 16         0.00562
       6 <- 19        -0.00253
       6 <- 22        -0.00408
       6 <- 25        -0.00055
       6 <- 30        -0.00481
       6 <- 33         0.00059
       6 <- 36        -0.00210
       6 <- 40         0.00173
       6 <- 42        -0.00049
       6 <- 49         0.00179
       6 <- 53        -0.00108
       7 <- 27        -0.00066
       7 <- 38         0.00064
       7 <- 46         0.00309
       8 <- 10        -0.01636
       8 <- 11        -0.01199
       8 <- 14         0.01167
       8 <- 15         0.00439
       8 <- 17         0.00042
       8 <- 20        -0.00249
       8 <- 21        -0.00229
       8 <- 24         0.00139
       8 <- 26         0.00198
       8 <- 29        -0.00077
       8 <- 32         0.00249
       8 <- 34         0.00138
       8 <- 35        -0.00029
       8 <- 39         0.00150
       8 <- 41         0.00054
       8 <- 43         0.00033
       8 <- 45         0.00236
       8 <- 47        -0.00331
       8 <- 51         0.00137
       8 <- 54        -0.00043
 
 Excited State   5:      Singlet-B2     7.0235 eV  176.53 nm  f=0.0016  <S**2>=0.000
       3 -> 12         0.00154
       3 -> 16         0.00133
       3 -> 19        -0.00063
       3 -> 22        -0.00034
       3 -> 25         0.00090
       3 -> 30        -0.00210
       3 -> 33         0.00013
       3 -> 36         0.00035
       3 -> 40        -0.00035
       3 -> 49        -0.00056
       4 -> 12        -0.00117
       4 -> 16         0.00079
       4 -> 19         0.00095
       4 -> 22        -0.00108
       4 -> 25         0.00084
       4 -> 30         0.00109
       4 -> 36         0.00026
       4 -> 50        -0.00010
       5 -> 10         0.00601
       5 -> 11        -0.00487
       5 -> 14         0.00366
       5 -> 15         0.00490
       5 -> 17         0.00067
       5 -> 20         0.00142
       5 -> 21        -0.00024
       5 -> 24        -0.00046
       5 -> 26        -0.00022
       5 -> 29        -0.00033
       5 -> 32        -0.00140
       5 -> 34         0.00043
       5 -> 35        -0.00029
       5 -> 39        -0.00049
       5 -> 41        -0.00020
       5 -> 43        -0.00029
       5 -> 45         0.00027
       5 -> 47        -0.00030
       5 -> 51         0.00022
       6 -> 12        -0.00210
       6 -> 16        -0.00048
       6 -> 19         0.00013
       6 -> 22        -0.00082
       6 -> 25         0.00014
       6 -> 30        -0.00067
       6 -> 36         0.00010
       6 -> 40         0.00040
       6 -> 42        -0.00017
       6 -> 49         0.00108
       7 -> 27        -0.00058
       7 -> 38        -0.00029
       7 -> 46         0.00145
       8 -> 10        -0.26062
       8 -> 11         0.65639
       8 -> 14         0.00474
       8 -> 15        -0.02967
       8 -> 17        -0.00470
       8 -> 20         0.01456
       8 -> 21         0.00361
       8 -> 24        -0.00311
       8 -> 26         0.00188
       8 -> 29        -0.00235
       8 -> 32        -0.00051
       8 -> 34        -0.00068
       8 -> 35        -0.00056
       8 -> 39         0.00013
       8 -> 41        -0.00010
       8 -> 43         0.00028
       8 -> 45         0.00098
       8 -> 47        -0.00171
       8 -> 51         0.00081
       8 -> 54        -0.00029
       3 <- 16         0.00067
       3 <- 19        -0.00054
       3 <- 22        -0.00033
       3 <- 25         0.00039
       3 <- 30        -0.00110
       3 <- 36         0.00026
       3 <- 40        -0.00029
       3 <- 49        -0.00055
       3 <- 53         0.00022
       4 <- 12         0.00052
       4 <- 16         0.00066
       4 <- 19         0.00094
       4 <- 22        -0.00053
       4 <- 25         0.00063
       4 <- 30         0.00075
       4 <- 36         0.00017
       4 <- 42        -0.00013
       4 <- 50        -0.00014
       5 <- 10        -0.00168
       5 <- 11        -0.00066
       5 <- 14         0.00134
       5 <- 15         0.00024
       5 <- 20         0.00024
       5 <- 21         0.00032
       5 <- 24        -0.00073
       5 <- 26         0.00050
       5 <- 29        -0.00018
       5 <- 32        -0.00048
       5 <- 34         0.00064
       5 <- 39        -0.00020
       5 <- 43        -0.00019
       5 <- 45         0.00029
       5 <- 47        -0.00032
       5 <- 51         0.00016
       6 <- 12        -0.00036
       6 <- 16         0.00099
       6 <- 19        -0.00052
       6 <- 22        -0.00093
       6 <- 30        -0.00112
       6 <- 40         0.00043
       6 <- 42        -0.00019
       6 <- 49         0.00096
       6 <- 53        -0.00016
       7 <- 27        -0.00043
       7 <- 38        -0.00021
       7 <- 46         0.00123
       8 <- 10        -0.00376
       8 <- 11        -0.00343
       8 <- 14         0.00227
       8 <- 15         0.00170
       8 <- 17        -0.00100
       8 <- 20        -0.00237
       8 <- 21        -0.00011
       8 <- 24         0.00084
       8 <- 26         0.00031
       8 <- 29        -0.00073
       8 <- 32         0.00158
       8 <- 34         0.00088
       8 <- 35        -0.00098
       8 <- 39         0.00062
       8 <- 41         0.00023
       8 <- 43         0.00022
       8 <- 45         0.00087
       8 <- 47        -0.00132
       8 <- 51         0.00062
 
 Excited State   6:      Singlet-B1     7.0353 eV  176.23 nm  f=0.0056  <S**2>=0.000
       3 ->  9        -0.01551
       3 -> 13         0.00098
       3 -> 18        -0.00308
       3 -> 23         0.00115
       3 -> 28        -0.00344
       3 -> 31        -0.00146
       3 -> 44         0.00052
       3 -> 48        -0.00194
       4 ->  9        -0.03631
       4 -> 13         0.00633
       4 -> 18         0.00163
       4 -> 23         0.00463
       4 -> 28         0.00219
       4 -> 31        -0.00040
       4 -> 37         0.00040
       4 -> 44        -0.00042
       4 -> 48         0.00044
       5 -> 27        -0.00743
       5 -> 38        -0.00298
       5 -> 46         0.00064
       6 ->  9        -0.05237
       6 -> 13        -0.00435
       6 -> 18         0.00234
       6 -> 23        -0.00159
       6 -> 28         0.00316
       6 -> 31        -0.00353
       6 -> 37         0.00171
       6 -> 44        -0.00020
       6 -> 48         0.00111
       6 -> 52        -0.00042
       7 -> 10         0.66059
       7 -> 11         0.21168
       7 -> 14        -0.10768
       7 -> 15        -0.05810
       7 -> 17        -0.00854
       7 -> 20        -0.00585
       7 -> 21         0.00276
       7 -> 24        -0.00851
       7 -> 26        -0.00788
       7 -> 29        -0.00611
       7 -> 32        -0.00099
       7 -> 34        -0.00372
       7 -> 35        -0.00223
       7 -> 39        -0.00069
       7 -> 43         0.00049
       7 -> 45         0.00062
       7 -> 47         0.00218
       7 -> 51         0.00111
       7 -> 54        -0.00112
       8 -> 27         0.00139
       8 -> 38         0.00039
       8 -> 46         0.00249
       3 <-  9        -0.00318
       3 <- 13         0.00067
       3 <- 18        -0.00125
       3 <- 23         0.00067
       3 <- 28        -0.00206
       3 <- 31        -0.00027
       3 <- 37        -0.00022
       3 <- 44         0.00023
       3 <- 48        -0.00214
       3 <- 52         0.00043
       4 <-  9        -0.00966
       4 <- 13         0.00211
       4 <- 18         0.00056
       4 <- 23         0.00203
       4 <- 28         0.00188
       4 <- 31        -0.00051
       4 <- 37         0.00047
       4 <- 44        -0.00067
       5 <- 27        -0.00472
       5 <- 38        -0.00220
       5 <- 46         0.00056
       6 <-  9        -0.02077
       6 <- 13        -0.00019
       6 <- 18        -0.00331
       6 <- 28        -0.00064
       6 <- 31        -0.00372
       6 <- 37         0.00136
       6 <- 48         0.00133
       6 <- 52        -0.00092
       7 <- 10        -0.01285
       7 <- 11        -0.00929
       7 <- 14         0.00968
       7 <- 15         0.00100
       7 <- 17         0.00096
       7 <- 20        -0.00272
       7 <- 21        -0.00242
       7 <- 24        -0.00085
       7 <- 26         0.00080
       7 <- 32         0.00185
       7 <- 34        -0.00120
       7 <- 35        -0.00188
       7 <- 39         0.00043
       7 <- 41         0.00019
       7 <- 43         0.00063
       7 <- 45         0.00065
       7 <- 47         0.00171
       7 <- 51         0.00052
       7 <- 54        -0.00043
       8 <- 27         0.00085
       8 <- 38         0.00018
       8 <- 46         0.00181
 
 Excited State   7:      Singlet-A2     7.4459 eV  166.51 nm  f=0.0000  <S**2>=0.000
       3 -> 27        -0.00128
       3 -> 38        -0.00045
       3 -> 46         0.00029
       4 -> 27        -0.00590
       4 -> 38         0.00045
       4 -> 46        -0.00035
       5 ->  9         0.70605
       5 -> 13        -0.02697
       5 -> 18         0.00573
       5 -> 23        -0.01538
       5 -> 28         0.00105
       5 -> 31        -0.00135
       5 -> 37        -0.00582
       5 -> 44        -0.00213
       5 -> 48        -0.00014
       6 -> 27        -0.00103
       6 -> 38         0.00218
       6 -> 46         0.00028
       7 -> 12         0.01443
       7 -> 16         0.01370
       7 -> 19         0.00105
       7 -> 22        -0.00492
       7 -> 25         0.00027
       7 -> 30        -0.00072
       7 -> 33        -0.00045
       7 -> 36        -0.00031
       7 -> 42        -0.00027
       7 -> 49        -0.00015
       7 -> 50        -0.00080
       8 ->  9        -0.00673
       8 -> 13         0.01345
       8 -> 18         0.00529
       8 -> 23         0.00250
       8 -> 28         0.00116
       8 -> 31         0.00095
       8 -> 37         0.00175
       8 -> 44         0.00020
       8 -> 48         0.00011
       8 -> 52         0.00032
       3 <- 27        -0.00146
       3 <- 38        -0.00058
       3 <- 46         0.00037
       4 <- 27        -0.00526
       4 <- 38         0.00011
       5 <-  9        -0.01298
       5 <- 13         0.00201
       5 <- 28         0.00194
       5 <- 31        -0.00296
       5 <- 37        -0.00343
       5 <- 44        -0.00042
       5 <- 48        -0.00024
       6 <- 27        -0.00145
       6 <- 38         0.00160
       6 <- 46         0.00016
       7 <- 12        -0.00266
       7 <- 16        -0.00079
       7 <- 19        -0.00042
       7 <- 22        -0.00361
       7 <- 25        -0.00319
       7 <- 33         0.00040
       7 <- 36        -0.00085
       7 <- 40         0.00056
       7 <- 42        -0.00066
       7 <- 49        -0.00033
       7 <- 50        -0.00090
       7 <- 53         0.00018
       8 <-  9         0.00022
       8 <- 13        -0.00045
       8 <- 18        -0.00140
       8 <- 23        -0.00021
       8 <- 28        -0.00179
       8 <- 31         0.00112
       8 <- 37         0.00086
 
 Excited State   8:      Singlet-A1     8.0454 eV  154.11 nm  f=0.0189  <S**2>=0.000
       3 -> 10        -0.00345
       3 -> 11        -0.00012
       3 -> 14         0.00291
       3 -> 15         0.00072
       3 -> 17        -0.00035
       3 -> 20        -0.00034
       3 -> 21         0.00012
       3 -> 24         0.00011
       3 -> 32         0.00023
       3 -> 34         0.00061
       3 -> 35        -0.00074
       3 -> 41        -0.00017
       3 -> 45        -0.00015
       3 -> 54        -0.00010
       4 -> 10        -0.00087
       4 -> 11        -0.00037
       4 -> 14        -0.00061
       4 -> 15        -0.00146
       4 -> 17         0.00101
       4 -> 20         0.00085
       4 -> 21         0.00085
       4 -> 24        -0.00318
       4 -> 26         0.00145
       4 -> 29         0.00016
       4 -> 32        -0.00037
       4 -> 34        -0.00018
       4 -> 35         0.00017
       4 -> 39         0.00015
       4 -> 41        -0.00010
       5 -> 12        -0.00216
       5 -> 16        -0.00038
       5 -> 19         0.00275
       5 -> 22        -0.00236
       5 -> 25         0.00254
       5 -> 30        -0.00013
       5 -> 36         0.00046
       5 -> 40        -0.00013
       6 -> 10         0.00500
       6 -> 11         0.00512
       6 -> 14        -0.00365
       6 -> 15        -0.00385
       6 -> 17        -0.00320
       6 -> 20         0.00069
       6 -> 21         0.00136
       6 -> 24        -0.00260
       6 -> 26         0.00013
       6 -> 29        -0.00202
       6 -> 32         0.00042
       6 -> 34         0.00017
       6 -> 35         0.00020
       6 -> 39         0.00047
       6 -> 41         0.00011
       6 -> 43         0.00022
       6 -> 45         0.00038
       6 -> 54        -0.00016
       7 ->  9         0.00479
       7 -> 13         0.00749
       7 -> 18        -0.00502
       7 -> 23         0.00197
       7 -> 28        -0.00137
       7 -> 31        -0.00120
       7 -> 37         0.00048
       7 -> 44         0.00037
       7 -> 48        -0.00029
       7 -> 52        -0.00016
       8 -> 12         0.70644
       8 -> 16         0.01120
       8 -> 19         0.02277
       8 -> 22         0.00094
       8 -> 25         0.00694
       8 -> 30        -0.00213
       8 -> 33         0.00110
       8 -> 36        -0.00122
       8 -> 42        -0.00015
       8 -> 49        -0.00038
       8 -> 53        -0.00013
       3 <- 10        -0.00129
       3 <- 11        -0.00085
       3 <- 14         0.00082
       3 <- 15         0.00029
       3 <- 20        -0.00052
       3 <- 24        -0.00017
       3 <- 26         0.00023
       3 <- 32         0.00026
       3 <- 34         0.00035
       3 <- 35        -0.00057
       3 <- 45        -0.00013
       4 <- 10        -0.00118
       4 <- 11         0.00077
       4 <- 14         0.00039
       4 <- 15        -0.00115
       4 <- 17         0.00036
       4 <- 20         0.00047
       4 <- 21         0.00056
       4 <- 24        -0.00176
       4 <- 26         0.00078
       4 <- 29         0.00020
       4 <- 32        -0.00043
       4 <- 35         0.00010
       4 <- 41        -0.00016
       5 <- 12         0.00100
       5 <- 16         0.00132
       5 <- 19         0.00138
       5 <- 22        -0.00108
       5 <- 25         0.00147
[...]
  47        4PZ        -0.00435  -0.00000   0.01778   0.02582   0.01778
  48        5S         -0.00238  -0.00000   0.00806   0.01180   0.00966
  49        5PX        -0.00000  -0.00000   0.00000   0.00000   0.00000
  50        5PY         0.00000   0.00000  -0.01011  -0.01984  -0.02001
  51        5PZ        -0.00002  -0.00000   0.00180   0.00233  -0.00021
  52        6D 0        0.00027   0.00000  -0.00045  -0.00077  -0.00122
  53        6D+1       -0.00000   0.00000   0.00000   0.00000  -0.00000
  54        6D-1       -0.00000   0.00000  -0.00107  -0.00100   0.00127
  55        6D+2        0.00002   0.00000  -0.00004  -0.00002  -0.00000
  56        6D-2       -0.00000   0.00000  -0.00000  -0.00000   0.00000
                          26        27        28        29        30
  26        4PX         0.00027
  27        4PY        -0.00000   0.00106
  28        4PZ         0.00000  -0.00047   0.00063
  29 3   H  1S          0.00000  -0.00178  -0.00287   0.07777
  30        2S          0.00000  -0.00162  -0.00453   0.11013   0.15902
  31        3S         -0.00000   0.00077  -0.00242   0.03321   0.05473
  32        4PX         0.00027   0.00000   0.00000  -0.00000  -0.00000
  33        4PY         0.00000  -0.00057  -0.00007   0.00809   0.01079
  34        4PZ        -0.00000   0.00007   0.00003   0.00443   0.00620
  35 4   O  1S         -0.00000   0.00005  -0.00047   0.00133   0.00035
  36        2S         -0.00000   0.00011  -0.00062   0.00214   0.00064
  37        2PX         0.00565   0.00000  -0.00000  -0.00000  -0.00000
  38        2PY         0.00000  -0.00143   0.00091   0.01297   0.03712
  39        2PZ         0.00000  -0.00142  -0.00474   0.01569   0.02303
  40        3S          0.00000  -0.00027   0.00125  -0.00711  -0.00298
  41        3PX         0.00819   0.00000  -0.00000  -0.00000  -0.00000
  42        3PY         0.00000  -0.00207   0.00132   0.01823   0.05260
  43        3PZ         0.00000  -0.00204  -0.00709   0.02297   0.03375
  44        4S          0.00000  -0.00050  -0.00040  -0.00195   0.00330
  45        4PX         0.00734   0.00000  -0.00000  -0.00000  -0.00000
  46        4PY         0.00000  -0.00169   0.00098   0.01924   0.05174
  47        4PZ         0.00000  -0.00170  -0.00493   0.01778   0.02582
  48        5S          0.00000  -0.00058  -0.00289   0.00806   0.01180
  49        5PX         0.00114   0.00000   0.00000  -0.00000  -0.00000
  50        5PY         0.00000   0.00009  -0.00029   0.01011   0.01984
  51        5PZ         0.00000  -0.00037   0.00027   0.00180   0.00233
  52        6D 0        0.00000  -0.00003   0.00042  -0.00045  -0.00077
  53        6D+1       -0.00032  -0.00000   0.00000  -0.00000  -0.00000
  54        6D-1       -0.00000   0.00015  -0.00015   0.00107   0.00100
  55        6D+2        0.00000  -0.00000   0.00001  -0.00004  -0.00002
  56        6D-2        0.00000  -0.00000  -0.00000  -0.00000  -0.00000
                          31        32        33        34        35
  31        3S          0.03592
  32        4PX        -0.00000   0.00027
  33        4PY         0.00179  -0.00000   0.00106
  34        4PZ         0.00096  -0.00000   0.00047   0.00063
  35 4   O  1S         -0.00003   0.00000  -0.00005  -0.00047   0.64149
  36        2S         -0.00013   0.00000  -0.00011  -0.00062   0.57198
  37        2PX        -0.00000   0.00565   0.00000   0.00000   0.00000
  38        2PY         0.06158   0.00000  -0.00143  -0.00091   0.00000
  39        2PZ         0.01678  -0.00000   0.00142  -0.00474  -0.01009
  40        3S          0.00090  -0.00000   0.00027   0.00125  -0.14669
  41        3PX        -0.00000   0.00819   0.00000   0.00000   0.00000
  42        3PY         0.08789   0.00000  -0.00207  -0.00132   0.00000
  43        3PZ         0.02495  -0.00000   0.00204  -0.00709  -0.01151
  44        4S          0.00552  -0.00000   0.00050  -0.00040  -0.13993
  45        4PX        -0.00000   0.00734   0.00000   0.00000   0.00000
  46        4PY         0.08114   0.00000  -0.00169  -0.00098   0.00000
  47        4PZ         0.01778  -0.00000   0.00170  -0.00493  -0.00854
  48        5S          0.00966  -0.00000   0.00058  -0.00289   0.00779
  49        5PX        -0.00000   0.00114   0.00000  -0.00000   0.00000
  50        5PY         0.02001   0.00000   0.00009   0.00029   0.00000
  51        5PZ        -0.00021  -0.00000   0.00037   0.00027  -0.00494
  52        6D 0       -0.00122  -0.00000   0.00003   0.00042  -0.00081
  53        6D+1        0.00000  -0.00032  -0.00000  -0.00000   0.00000
  54        6D-1       -0.00127  -0.00000   0.00015   0.00015   0.00000
  55        6D+2       -0.00000  -0.00000   0.00000   0.00001  -0.00083
  56        6D-2        0.00000  -0.00000   0.00000  -0.00000  -0.00000
                          36        37        38        39        40
  36        2S          0.52807
  37        2PX         0.00000   0.11760
  38        2PY         0.00000  -0.00000   0.19165
  39        2PZ        -0.01568   0.00000  -0.00000   0.10116
  40        3S         -0.24614   0.00000   0.00000   0.04669   0.77005
  41        3PX         0.00000   0.17051  -0.00000   0.00000   0.00000
  42        3PY         0.00000  -0.00000   0.27407  -0.00000  -0.00000
  43        3PZ        -0.01908   0.00000  -0.00000   0.15015   0.06143
  44        4S         -0.21844   0.00000   0.00000   0.06670   0.63064
  45        4PX         0.00000   0.15269  -0.00000   0.00000   0.00000
  46        4PY         0.00000  -0.00000   0.24849  -0.00000  -0.00000
  47        4PZ        -0.01467   0.00000  -0.00000   0.10670   0.04873
  48        5S          0.00743   0.00000   0.00000   0.05693  -0.00383
  49        5PX         0.00000   0.02382  -0.00000   0.00000   0.00000
  50        5PY         0.00000  -0.00000   0.05121   0.00000  -0.00000
  51        5PZ        -0.00706   0.00000  -0.00000  -0.00103   0.01794
  52        6D 0       -0.00120  -0.00000   0.00000  -0.00732   0.00305
  53        6D+1        0.00000  -0.00667   0.00000   0.00000  -0.00000
  54        6D-1       -0.00000   0.00000  -0.00646   0.00000   0.00000
  55        6D+2       -0.00132  -0.00000  -0.00000   0.00020   0.00393
  56        6D-2       -0.00000   0.00000   0.00000   0.00000   0.00000
                          41        42        43        44        45
  41        3PX         0.24722
  42        3PY        -0.00000   0.39193
  43        3PZ         0.00000  -0.00000   0.22296
  44        4S          0.00000   0.00000   0.09264   0.52535
  45        4PX         0.22138  -0.00000   0.00000   0.00000   0.19825
  46        4PY        -0.00000   0.35534  -0.00000  -0.00000  -0.00000
  47        4PZ         0.00000  -0.00000   0.15836   0.06983   0.00000
  48        5S          0.00000   0.00000   0.08486   0.01320   0.00000
  49        5PX         0.03453  -0.00000   0.00000   0.00000   0.03092
  50        5PY        -0.00000   0.07318   0.00000  -0.00000  -0.00000
  51        5PZ         0.00000  -0.00000  -0.00176   0.01407   0.00000
  52        6D 0       -0.00000   0.00000  -0.01095   0.00032  -0.00000
  53        6D+1       -0.00967  -0.00000   0.00000  -0.00000  -0.00866
  54        6D-1       -0.00000  -0.00925   0.00000   0.00000   0.00000
  55        6D+2       -0.00000  -0.00000   0.00026   0.00321  -0.00000
  56        6D-2        0.00000   0.00000   0.00000   0.00000   0.00000
                          46        47        48        49        50
  46        4PY         0.32233
  47        4PZ        -0.00000   0.11260
  48        5S          0.00000   0.06003   0.03343
  49        5PX        -0.00000   0.00000   0.00000   0.00482
  50        5PY         0.06674   0.00000   0.00000  -0.00000   0.01464
  51        5PZ        -0.00000  -0.00100  -0.00146   0.00000  -0.00000
  52        6D 0        0.00000  -0.00769  -0.00442  -0.00000   0.00000
  53        6D+1        0.00000   0.00000   0.00000  -0.00135   0.00000
  54        6D-1       -0.00830   0.00000   0.00000   0.00000  -0.00151
  55        6D+2       -0.00000   0.00021  -0.00004   0.00000  -0.00000
  56        6D-2        0.00000   0.00000  -0.00000   0.00000  -0.00000
                          51        52        53        54        55
  51        5PZ         0.00067
  52        6D 0        0.00030   0.00061
  53        6D+1       -0.00000   0.00000   0.00038
  54        6D-1       -0.00000  -0.00000   0.00000   0.00027
  55        6D+2        0.00009   0.00002   0.00000   0.00000   0.00002
  56        6D-2        0.00000   0.00000  -0.00000  -0.00000   0.00000
                          56
  56        6D-2        0.00000
          Condensed to atoms (all electrons):
               1          2          3          4
     1  C    5.050461   0.358345   0.358345   0.297260
     2  H    0.358345   0.541434  -0.056030  -0.024434
     3  H    0.358345  -0.056030   0.541434  -0.024434
     4  O    0.297260  -0.024434  -0.024434   8.048568
 Mulliken charges:
               1
     1  C   -0.064410
     2  H    0.180685
     3  H    0.180685
     4  O   -0.296959
 Sum of Mulliken charges =  -0.00000
 Mulliken charges with hydrogens summed into heavy atoms:
               1
     1  C    0.296959
     4  O   -0.296959
 Electronic spatial extent (au):  <R**2>=             79.4953
 Charge=              0.0000 electrons
 Dipole moment (field-independent basis, Debye):
    X=             -0.0000    Y=             -0.0000    Z=             -3.7959  Tot=              3.7959
 Quadrupole moment (field-independent basis, Debye-Ang):
   XX=            -12.7655   YY=            -11.9009   ZZ=            -11.2544
   XY=              0.0000   XZ=              0.0000   YZ=              0.0000
 Traceless Quadrupole moment (field-independent basis, Debye-Ang):
   XX=             -0.7919   YY=              0.0727   ZZ=              0.7192
   XY=              0.0000   XZ=              0.0000   YZ=              0.0000
 Octapole moment (field-independent basis, Debye-Ang**2):
  XXX=              0.0000  YYY=             -0.0000  ZZZ=             -2.3108  XYY=             -0.0000
  XXY=             -0.0000  XXZ=              0.5207  XZZ=             -0.0000  YZZ=              0.0000
  YYZ=             -2.2638  XYZ=             -0.0000
 Hexadecapole moment (field-independent basis, Debye-Ang**3):
 XXXX=            -13.3505 YYYY=            -18.3809 ZZZZ=            -65.8400 XXXY=             -0.0000
 XXXZ=             -0.0000 YYYX=             -0.0000 YYYZ=             -0.0000 ZZZX=             -0.0000
 ZZZY=              0.0000 XXYY=             -5.7243 XXZZ=            -13.9193 YYZZ=            -12.6984
 XXYZ=             -0.0000 YYXZ=              0.0000 ZZXY=              0.0000
 N-N= 2.521688956250D+01 E-N=-3.189377902329D+02  KE= 1.133784146003D+02
 Symmetry A1   KE= 1.028987556551D+02
 Symmetry A2   KE= 1.817251033920D-35
 Symmetry B1   KE= 3.633249936348D+00
 Symmetry B2   KE= 6.846409008905D+00
 Leave Link  601 at Fri Sep 17 10:53:02 2021, MaxMem=   268435456 cpu:               0.0 elap:               0.0
 (Enter /software/gaussian/g16-a03/l9999.exe)
 Electronic transition elements 
                 1             2             3             4             5 
      1  -0.114350D+03 -0.114239D+03 -0.114227D+03 -0.114204D+03 -0.114162D+03
      2   0.000000D+00  0.000000D+00  0.102714D+00  0.000000D+00  0.000000D+00
      3   0.000000D+00  0.000000D+00  0.000000D+00 -0.291124D+00 -0.979218D-01
      4   0.000000D+00  0.764427D+00  0.000000D+00  0.000000D+00  0.000000D+00
      5   0.000000D+00  0.000000D+00 -0.382559D-01  0.000000D+00  0.000000D+00
      6   0.000000D+00  0.000000D+00  0.000000D+00  0.620118D-01  0.215707D-01
      7   0.000000D+00 -0.125533D+00  0.000000D+00  0.000000D+00  0.000000D+00
      8   0.000000D+00  0.000000D+00  0.000000D+00  0.221591D+00 -0.400488D+00
      9   0.000000D+00  0.000000D+00 -0.173739D+01  0.000000D+00  0.000000D+00
     10   0.102863D+01  0.000000D+00  0.000000D+00  0.000000D+00  0.000000D+00
     11   0.000000D+00  0.829358D-01  0.000000D+00  0.000000D+00  0.000000D+00
     12   0.000000D+00 -0.518354D-02  0.000000D+00  0.000000D+00  0.000000D+00
     13   0.000000D+00 -0.457358D-01  0.000000D+00  0.000000D+00  0.000000D+00
     14  -0.363615D-01  0.000000D+00  0.000000D+00  0.000000D+00  0.000000D+00
     15   0.000000D+00  0.000000D+00 -0.143551D+00  0.000000D+00  0.000000D+00
     16   0.000000D+00  0.000000D+00  0.000000D+00 -0.323986D-01  0.317279D+00
                 6             7             8             9            10 
      1  -0.114162D+03 -0.114147D+03 -0.114125D+03 -0.114124D+03 -0.114104D+03
      2  -0.180489D+00  0.000000D+00  0.000000D+00 -0.685134D+00  0.000000D+00
      3   0.000000D+00  0.000000D+00  0.000000D+00  0.000000D+00  0.000000D+00
      4   0.000000D+00  0.000000D+00 -0.309308D+00  0.000000D+00  0.000000D+00
      5   0.376087D-01  0.000000D+00  0.000000D+00  0.204973D+00  0.000000D+00
      6   0.000000D+00  0.000000D+00  0.000000D+00  0.000000D+00  0.000000D+00
      7   0.000000D+00  0.000000D+00  0.892818D-01  0.000000D+00  0.000000D+00
      8   0.000000D+00  0.000000D+00  0.000000D+00  0.000000D+00  0.000000D+00
      9  -0.534154D+00  0.000000D+00  0.000000D+00 -0.229917D+00  0.000000D+00
     10   0.000000D+00 -0.987223D+00  0.000000D+00  0.000000D+00  0.629658D-02
     11   0.000000D+00  0.000000D+00  0.322697D-01  0.000000D+00  0.000000D+00
     12   0.000000D+00  0.000000D+00  0.182669D-01  0.000000D+00  0.000000D+00
     13   0.000000D+00  0.000000D+00 -0.225206D+00  0.000000D+00  0.000000D+00
     14   0.000000D+00  0.179245D+00  0.000000D+00  0.000000D+00  0.529679D-01
     15   0.226623D+00  0.000000D+00  0.000000D+00 -0.750101D-01  0.000000D+00
     16   0.000000D+00  0.000000D+00  0.000000D+00  0.000000D+00  0.000000D+00
                11            12            13            14            15 
      1  -0.114091D+03 -0.114089D+03 -0.114066D+03 -0.114053D+03 -0.114050D+03
      2   0.000000D+00  0.000000D+00  0.000000D+00 -0.203409D+00  0.000000D+00
      3  -0.296080D+00  0.000000D+00  0.000000D+00  0.000000D+00  0.000000D+00
      4   0.000000D+00  0.000000D+00  0.208346D+00  0.000000D+00 -0.791366D+00
      5   0.000000D+00  0.000000D+00  0.000000D+00  0.927047D-01  0.000000D+00
      6   0.102486D+00  0.000000D+00  0.000000D+00  0.000000D+00  0.000000D+00
      7   0.000000D+00  0.000000D+00 -0.710130D-01  0.000000D+00  0.297777D+00
      8  -0.571544D+00  0.000000D+00  0.000000D+00  0.000000D+00  0.000000D+00
      9   0.000000D+00  0.000000D+00  0.000000D+00  0.384700D+00  0.000000D+00
     10   0.000000D+00  0.268394D-01  0.000000D+00  0.000000D+00  0.000000D+00
     11   0.000000D+00  0.000000D+00  0.808003D+00  0.000000D+00  0.895482D-01
     12   0.000000D+00  0.000000D+00  0.436660D-01  0.000000D+00  0.532276D-01
     13   0.000000D+00  0.000000D+00 -0.649779D-01  0.000000D+00 -0.327983D+00
     14   0.000000D+00  0.284485D+00  0.000000D+00  0.000000D+00  0.000000D+00
     15   0.000000D+00  0.000000D+00  0.000000D+00  0.301398D+00  0.000000D+00
     16   0.188497D+00  0.000000D+00  0.000000D+00  0.000000D+00  0.000000D+00
                16            17            18            19            20 
      1  -0.114045D+03 -0.114031D+03 -0.114011D+03 -0.114003D+03 -0.114002D+03
      2   0.000000D+00  0.000000D+00 -0.404370D+00  0.000000D+00  0.000000D+00
      3  -0.345791D+00  0.000000D+00  0.000000D+00 -0.325978D+00  0.000000D+00
      4   0.000000D+00 -0.365622D+00  0.000000D+00  0.000000D+00 -0.105399D+01
      5   0.000000D+00  0.000000D+00  0.150794D+00  0.000000D+00  0.000000D+00
      6   0.132960D+00  0.000000D+00  0.000000D+00  0.136354D+00  0.000000D+00
      7   0.000000D+00  0.153744D+00  0.000000D+00  0.000000D+00  0.442987D+00
      8   0.418400D+00  0.000000D+00  0.000000D+00 -0.211814D+00  0.000000D+00
      9   0.000000D+00  0.000000D+00  0.257828D+00  0.000000D+00  0.000000D+00
     10   0.000000D+00  0.000000D+00  0.000000D+00  0.000000D+00  0.000000D+00
     11   0.000000D+00  0.268292D+00  0.000000D+00  0.000000D+00 -0.409862D-01
     12   0.000000D+00  0.342801D+00  0.000000D+00  0.000000D+00 -0.395412D+00
     13   0.000000D+00  0.537501D+00  0.000000D+00  0.000000D+00 -0.209253D+00
     14   0.000000D+00  0.000000D+00  0.000000D+00  0.000000D+00  0.000000D+00
     15   0.000000D+00  0.000000D+00 -0.337727D-01  0.000000D+00  0.000000D+00
     16  -0.107179D+00  0.000000D+00  0.000000D+00 -0.458009D+00  0.000000D+00
                21            22            23            24            25 
      1  -0.113997D+03 -0.113993D+03 -0.113993D+03 -0.113982D+03 -0.113972D+03
      2   0.000000D+00  0.000000D+00  0.000000D+00 -0.120874D+00  0.000000D+00
      3   0.000000D+00 -0.147544D+00  0.190357D+00  0.000000D+00  0.000000D+00
      4   0.000000D+00  0.000000D+00  0.000000D+00  0.000000D+00  0.000000D+00
      5   0.000000D+00  0.000000D+00  0.000000D+00  0.481533D-01  0.000000D+00
      6   0.000000D+00  0.563045D-01 -0.892949D-01  0.000000D+00  0.000000D+00
      7   0.000000D+00  0.000000D+00  0.000000D+00  0.000000D+00  0.000000D+00
      8   0.000000D+00 -0.675079D-01  0.469421D+00  0.000000D+00  0.000000D+00
      9   0.000000D+00  0.000000D+00  0.000000D+00  0.121406D+00  0.000000D+00
     10  -0.564990D-01  0.000000D+00  0.000000D+00  0.000000D+00 -0.339434D-01
     11   0.000000D+00  0.000000D+00  0.000000D+00  0.000000D+00  0.000000D+00
     12   0.000000D+00  0.000000D+00  0.000000D+00  0.000000D+00  0.000000D+00
     13   0.000000D+00  0.000000D+00  0.000000D+00  0.000000D+00  0.000000D+00
     14  -0.265580D+00  0.000000D+00  0.000000D+00  0.000000D+00  0.380320D+00
     15   0.000000D+00  0.000000D+00  0.000000D+00 -0.133096D+00  0.000000D+00
     16   0.000000D+00  0.956948D-01  0.760613D+00  0.000000D+00  0.000000D+00
                26            27            28            29            30 
      1  -0.113966D+03 -0.113951D+03 -0.113942D+03 -0.113937D+03 -0.113928D+03
      2   0.000000D+00  0.126914D+00  0.000000D+00  0.000000D+00  0.000000D+00
      3  -0.650412D+00  0.000000D+00  0.000000D+00  0.000000D+00  0.000000D+00
      4   0.000000D+00  0.000000D+00  0.102067D+01 -0.309566D+00  0.384866D+00
      5   0.000000D+00 -0.510470D-01  0.000000D+00  0.000000D+00  0.000000D+00
      6   0.289710D+00  0.000000D+00  0.000000D+00  0.000000D+00  0.000000D+00
      7   0.000000D+00  0.000000D+00 -0.474792D+00  0.138861D+00 -0.182341D+00
      8   0.959763D+00  0.000000D+00  0.000000D+00  0.000000D+00  0.000000D+00
      9   0.000000D+00 -0.216859D-02  0.000000D+00  0.000000D+00  0.000000D+00
     10   0.000000D+00  0.000000D+00  0.000000D+00  0.000000D+00  0.000000D+00
     11   0.000000D+00  0.000000D+00 -0.249261D+00 -0.200368D+00  0.354096D-01
     12   0.000000D+00  0.000000D+00  0.590758D+00  0.400161D+00  0.510675D+00
     13   0.000000D+00  0.000000D+00 -0.161055D+00  0.173275D+00  0.331691D+00
     14   0.000000D+00  0.000000D+00  0.000000D+00  0.000000D+00  0.000000D+00
     15   0.000000D+00  0.292757D+00  0.000000D+00  0.000000D+00  0.000000D+00
     16  -0.493439D+00  0.000000D+00  0.000000D+00  0.000000D+00  0.000000D+00

 Test job not archived.
 1\1\GINC-BHD0003\SP\RB3LYP TD-FC\6-311+G(d,p)\C1H2O1\BWEIGHT\17-Sep-20
 21\0\\#p B3LYP/6-311+G** #p TD=(singlets,nstates=30)IOp(6/8=3) IOp(9/4
 0=4)\\Scan Step 224, Bond Length 1.62\\0,1\C,0,0.,0.,-0.52736\H,0,0.,0
 .93726,-1.11871\H,0,0.,-0.93726,-1.11871\O,0,0.,0.,1.09264\\Version=ES
 64L-G16RevA.03\State=1-A1\HF=-114.4203709\RMSD=8.827e-09\PG=C02V [C2(C
 1O1),SGV(H2)]\\@


 TRUTH, IN SCIENCE, CAN BE DEFINED AS THE WORKING HYPOTHESIS 
 BEST FITTED TO OPEN THE WAY TO THE NEXT BETTER ONE.

                              -- KONRAD LORENZ
 Job cpu time:       0 days  0 hours  0 minutes 28.4 seconds.
 Elapsed time:       0 days  0 hours  0 minutes 28.8 seconds.
 File lengths (MBytes):  RWF=     79 Int=      0 D2E=      0 Chk=     32 Scr=      1
 Normal termination of Gaussian 16 at Fri Sep 17 10:53:02 2021.
