 Entering Gaussian System, Link 0=g16
 Initial command:
 /software/gaussian/g16-c01/sse4/g16/l1.exe "/local_scratch/24657481/Gau-14159.inp" -scrdir="/local_scratch/24657481/"
 Entering Link 1 = /software/gaussian/g16-c01/sse4/g16/l1.exe PID=     14161.
  
 Copyright (c) 1988-2019, Gaussian, Inc.  All Rights Reserved.
  
 This is part of the Gaussian(R) 16 program.  It is based on
 the Gaussian(R) 09 system (copyright 2009, Gaussian, Inc.),
 the Gaussian(R) 03 system (copyright 2003, Gaussian, Inc.),
 the Gaussian(R) 98 system (copyright 1998, Gaussian, Inc.),
 the Gaussian(R) 94 system (copyright 1995, Gaussian, Inc.),
 the Gaussian 92(TM) system (copyright 1992, Gaussian, Inc.),
 the Gaussian 90(TM) system (copyright 1990, Gaussian, Inc.),
 the Gaussian 88(TM) system (copyright 1988, Gaussian, Inc.),
 the Gaussian 86(TM) system (copyright 1986, Carnegie Mellon
 University), and the Gaussian 82(TM) system (copyright 1983,
 Carnegie Mellon University). Gaussian is a federally registered
 trademark of Gaussian, Inc.
  
 This software contains proprietary and confidential information,
 including trade secrets, belonging to Gaussian, Inc.
  
 This software is provided under written license and may be
 used, copied, transmitted, or stored only in accord with that
 written license.
  
 The following legend is applicable only to US Government
 contracts under FAR:
  
                    RESTRICTED RIGHTS LEGEND
  
 Use, reproduction and disclosure by the US Government is
 subject to restrictions as set forth in subparagraphs (a)
 and (c) of the Commercial Computer Software - Restricted
 Rights clause in FAR 52.227-19.
  
 Gaussian, Inc.
 340 Quinnipiac St., Bldg. 40, Wallingford CT 06492
  
  
 ---------------------------------------------------------------
 Warning -- This program may not be used in any manner that
 competes with the business of Gaussian, Inc. or will provide
 assistance to any competitor of Gaussian, Inc.  The licensee
 of this program is prohibited from giving any competitor of
 Gaussian, Inc. access to this program.  By using this program,
 the user acknowledges that Gaussian, Inc. is engaged in the
 business of creating and licensing software in the field of
 computational chemistry and represents and warrants to the
 licensee that it is not a competitor of Gaussian, Inc. and that
 it will not use this program in any manner prohibited above.
 ---------------------------------------------------------------
  

 Cite this work as:
 Gaussian 16, Revision C.01,
 M. J. Frisch, G. W. Trucks, H. B. Schlegel, G. E. Scuseria, 
 M. A. Robb, J. R. Cheeseman, G. Scalmani, V. Barone, 
 G. A. Petersson, H. Nakatsuji, X. Li, M. Caricato, A. V. Marenich, 
 J. Bloino, B. G. Janesko, R. Gomperts, B. Mennucci, H. P. Hratchian, 
 J. V. Ortiz, A. F. Izmaylov, J. L. Sonnenberg, D. Williams-Young, 
 F. Ding, F. Lipparini, F. Egidi, J. Goings, B. Peng, A. Petrone, 
 T. Henderson, D. Ranasinghe, V. G. Zakrzewski, J. Gao, N. Rega, 
 G. Zheng, W. Liang, M. Hada, M. Ehara, K. Toyota, R. Fukuda, 
 J. Hasegawa, M. Ishida, T. Nakajima, Y. Honda, O. Kitao, H. Nakai, 
 T. Vreven, K. Throssell, J. A. Montgomery, Jr., J. E. Peralta, 
 F. Ogliaro, M. J. Bearpark, J. J. Heyd, E. N. Brothers, K. N. Kudin, 
 V. N. Staroverov, T. A. Keith, R. Kobayashi, J. Normand, 
 K. Raghavachari, A. P. Rendell, J. C. Burant, S. S. Iyengar, 
 J. Tomasi, M. Cossi, J. M. Millam, M. Klene, C. Adamo, R. Cammi, 
 J. W. Ochterski, R. L. Martin, K. Morokuma, O. Farkas, 
 J. B. Foresman, and D. J. Fox, Gaussian, Inc., Wallingford CT, 2019.
 
 ******************************************
 Gaussian 16:  ES64L-G16RevC.01  3-Jul-2019
                 1-May-2024 
 ******************************************
 %chk=geometry.chk
 %mem=9GB
 %nprocshared=12
 Will use up to   12 processors via shared memory.
 ----------------------------------------
 #P wB97XD/6-311+G* NoSymm #P Field=Y-194
 ----------------------------------------
 1/38=1,172=1/1;
 2/12=2,15=1,17=6,18=5,40=1/2;
 3/5=4,6=6,7=11,11=2,14=2,15=-194,25=1,30=1,74=-58/1,2,3;
 4//1;
 5/5=2,38=5/2;
 6/7=2,8=2,9=2,10=2,28=1/1;
 99/5=1,9=1/99;
 Leave Link    1 at Wed May  1 14:45:54 2024, MaxMem=  1207959552 cpu:               1.4 elap:               1.4
 (Enter /software/gaussian/g16-c01/sse4/g16/l101.exe)
 -------
 TitleMe
 -------
 Symbolic Z-matrix:
 Charge =  1 Multiplicity = 1
 C                     0.0295    1.3397    0.0682 
 C                     1.4348    1.2867    0.0064 
 C                     2.1118    0.0511   -0.0054 
 C                     1.4451   -1.1372    0.0312 
 C                    -0.6879    0.1682    0.11 
 H                    -0.4713    2.2984    0.0781 
 H                     2.0273    2.1965   -0.0322 
 H                     1.9897   -2.0764    0.0232 
 H                    -1.7716    0.1804    0.1582 
 N                     3.5864    0.051    -0.0675 
 O                     4.1471   -1.0597   -0.0881 
 O                     4.145     1.1639   -0.0901 
 C                    -0.0236   -1.1458    0.0835 
 H                    -0.4367   -1.8725    0.7889 
 Br                   -0.5359   -1.8697   -1.7408 
 
 ITRead=  0  0  0  0  0  0  0  0  0  0  0  0  0  0  0
 MicOpt= -1 -1 -1 -1 -1 -1 -1 -1 -1 -1 -1 -1 -1 -1 -1
 NAtoms=     15 NQM=       15 NQMF=       0 NMMI=      0 NMMIF=      0
                NMic=       0 NMicF=      0.
                    Isotopes and Nuclear Properties:
 (Nuclear quadrupole moments (NQMom) in fm**2, nuclear magnetic moments (NMagM)
  in nuclear magnetons)

  Atom         1           2           3           4           5           6           7           8           9          10
 IAtWgt=          12          12          12          12          12           1           1           1           1          14
 AtmWgt=  12.0000000  12.0000000  12.0000000  12.0000000  12.0000000   1.0078250   1.0078250   1.0078250   1.0078250  14.0030740
 NucSpn=           0           0           0           0           0           1           1           1           1           2
 AtZEff=  -0.0000000  -0.0000000  -0.0000000  -0.0000000  -0.0000000  -0.0000000  -0.0000000  -0.0000000  -0.0000000  -0.0000000
 NQMom=    0.0000000   0.0000000   0.0000000   0.0000000   0.0000000   0.0000000   0.0000000   0.0000000   0.0000000   2.0440000
 NMagM=    0.0000000   0.0000000   0.0000000   0.0000000   0.0000000   2.7928460   2.7928460   2.7928460   2.7928460   0.4037610
 AtZNuc=   6.0000000   6.0000000   6.0000000   6.0000000   6.0000000   1.0000000   1.0000000   1.0000000   1.0000000   7.0000000

  Atom        11          12          13          14          15
 IAtWgt=          16          16          12           1          79
 AtmWgt=  15.9949146  15.9949146  12.0000000   1.0078250  78.9183361
 NucSpn=           0           0           0           1           3
 AtZEff=  -0.0000000  -0.0000000  -0.0000000  -0.0000000  -0.0000000
 NQMom=    0.0000000   0.0000000   0.0000000   0.0000000  31.3000000
 NMagM=    0.0000000   0.0000000   0.0000000   2.7928460   2.1063990
 AtZNuc=   8.0000000   8.0000000   6.0000000   1.0000000  35.0000000
 Leave Link  101 at Wed May  1 14:45:55 2024, MaxMem=  1207959552 cpu:               1.3 elap:               1.3
 (Enter /software/gaussian/g16-c01/sse4/g16/l202.exe)
                          Input orientation:                          
 ---------------------------------------------------------------------
 Center     Atomic      Atomic             Coordinates (Angstroms)
 Number     Number       Type             X           Y           Z
 ---------------------------------------------------------------------
      1          6           0        0.029500    1.339700    0.068200
      2          6           0        1.434800    1.286700    0.006400
      3          6           0        2.111800    0.051100   -0.005400
      4          6           0        1.445100   -1.137200    0.031200
      5          6           0       -0.687900    0.168200    0.110000
      6          1           0       -0.471300    2.298400    0.078100
      7          1           0        2.027300    2.196500   -0.032200
      8          1           0        1.989700   -2.076400    0.023200
      9          1           0       -1.771600    0.180400    0.158200
     10          7           0        3.586400    0.051000   -0.067500
     11          8           0        4.147100   -1.059700   -0.088100
     12          8           0        4.145000    1.163900   -0.090100
     13          6           0       -0.023600   -1.145800    0.083500
     14          1           0       -0.436700   -1.872500    0.788900
     15         35           0       -0.535900   -1.869700   -1.740800
 ---------------------------------------------------------------------
                    Distance matrix (angstroms):
                    1          2          3          4          5
     1  C    0.000000
     2  C    1.407656   0.000000
     3  C    2.449874   1.408963   0.000000
     4  C    2.853126   2.424049   1.363043   0.000000
     5  C    1.374344   2.401589   2.804523   2.501993   0.000000
     6  H    1.081667   2.159142   3.424870   3.934226   2.141421
     7  H    2.176095   1.086408   2.147231   3.384750   3.392128
     8  H    3.938800   3.408612   2.131193   1.085702   3.495040
     9  H    2.143837   3.395283   3.888995   3.478413   1.084840
    10  N    3.785591   2.482297   1.475907   2.450862   4.279589
    11  O    4.768247   3.587631   2.320164   2.705743   4.992415
    12  O    4.122294   2.714696   2.319353   3.549540   4.938459
    13  C    2.486114   2.837240   2.449573   1.469656   1.472614
    14  H    3.324903   3.754379   3.290289   2.157764   2.165286
    15  Br   3.727252   4.110867   3.702891   2.756973   2.757100
                    6          7          8          9         10
     6  H    0.000000
     7  H    2.503108   0.000000
     8  H    5.019802   4.273425   0.000000
     9  H    2.486588   4.304945   4.388479   0.000000
    10  N    4.640790   2.652397   2.661486   5.364313   0.000000
    11  O    5.712624   3.885809   2.387560   6.052233   1.244373
    12  O    4.756638   2.356750   3.893289   6.002923   1.245428
    13  C    3.473180   3.923079   2.218790   2.195425   3.806210
    14  H    4.231175   4.827242   2.552506   2.528663   4.540772
    15  Br   4.548146   5.101303   3.087568   3.055498   4.845862
                   11         12         13         14         15
    11  O    0.000000
    12  O    2.223602   0.000000
    13  C    4.175117   4.768865   0.000000
    14  H    4.737193   5.566358   1.093770   0.000000
    15  Br   5.031700   5.817075   2.028436   2.531646   0.000000
 Symmetry turned off by external request.
 Stoichiometry    C6H5BrNO2(1+)
 Framework group  C1[X(C6H5BrNO2)]
 Deg. of freedom    39
 Full point group                 C1      NOp   1
 Rotational constants (GHZ):           1.8252210           0.5518633           0.4576002
 Leave Link  202 at Wed May  1 14:45:56 2024, MaxMem=  1207959552 cpu:               1.2 elap:               1.2
 (Enter /software/gaussian/g16-c01/sse4/g16/l301.exe)
 Standard basis: 6-311+G(d) (5D, 7F)
 Ernie: Thresh=  0.10000D-02 Tol=  0.10000D-05 Strict=F.
 The following finite field(s) will be applied:
 An electric field of              0.0000 -0.0194  0.0000
   261 basis functions,   443 primitive gaussians,   273 cartesian basis functions
    49 alpha electrons       49 beta electrons
       nuclear repulsion energy       739.2122215416 Hartrees.
 IExCor= 4639 DFT=T Ex+Corr=wB97XD ExCW=0 ScaHFX=  1.000000
 ScaDFX=  1.000000  1.000000  1.000000  1.000000 ScalE2=  1.000000  1.000000
 IRadAn=      5 IRanWt=     -1 IRanGd=            0 ICorTp=0 IEmpDi=121
 HFx  wShort=  0.000000 wLong=  0.200000 cFull=  0.222036 cShort=  0.000000 cLong=  0.777964
 DFx  wShort=  0.000000 wLong=  0.200000 cFull=  0.000000 cShort=  0.000000 cLong=  1.000000
 NAtoms=   15 NActive=   15 NUniq=   15 SFac= 1.00D+00 NAtFMM=   60 NAOKFM=F Big=F
 Integral buffers will be    131072 words long.
 Raffenetti 2 integral format.
 Two-electron integral symmetry is turned off.
 R6Disp:  Grimme-D2 Dispersion energy=       -0.0077368520 Hartrees.
 Nuclear repulsion after empirical dispersion term =      739.2044846896 Hartrees.
 Leave Link  301 at Wed May  1 14:45:57 2024, MaxMem=  1207959552 cpu:               0.9 elap:               0.9
 (Enter /software/gaussian/g16-c01/sse4/g16/l302.exe)
 NPDir=0 NMtPBC=     1 NCelOv=     1 NCel=       1 NClECP=     1 NCelD=      1
         NCelK=      1 NCelE2=     1 NClLst=     1 CellRange=     0.0.
 One-electron integrals computed using PRISM.
 NBasis=   261 RedAO= T EigKep=  2.35D-06  NBF=   261
 NBsUse=   261 1.00D-06 EigRej= -1.00D+00 NBFU=   261
 Precomputing XC quadrature grid using
 IXCGrd= 4 IRadAn=           5 IRanWt=          -1 IRanGd=           0 AccXCQ= 0.00D+00.
 Generated NRdTot=       0 NPtTot=           0 NUsed=           0 NTot=          32
 NSgBfM=   273   273   273   273   273 MxSgAt=    15 MxSgA2=    15.
 Leave Link  302 at Wed May  1 14:46:19 2024, MaxMem=  1207959552 cpu:              21.2 elap:              21.2
 (Enter /software/gaussian/g16-c01/sse4/g16/l303.exe)
 DipDrv:  MaxL=1.
 The nuclear repulsion energy is now       741.4094893570 hartrees.
 Leave Link  303 at Wed May  1 14:46:22 2024, MaxMem=  1207959552 cpu:               3.2 elap:               3.2
 (Enter /software/gaussian/g16-c01/sse4/g16/l401.exe)
 ExpMin= 3.50D-02 ExpMax= 4.40D+05 ExpMxC= 1.51D+04 IAcc=3 IRadAn=         5 AccDes= 0.00D+00
 Harris functional with IExCor= 4639 and IRadAn=       5 diagonalized for initial guess.
 HarFok:  IExCor= 4639 AccDes= 0.00D+00 IRadAn=         5 IDoV= 1 UseB2=F ITyADJ=14
 ICtDFT=  3500011 ScaDFX=  1.000000  1.000000  1.000000  1.000000
 FoFCou: FMM=F IPFlag=           0 FMFlag=      100000 FMFlg1=           0
         NFxFlg=           0 DoJE=T BraDBF=F KetDBF=T FulRan=T
         wScrn=  0.000000 ICntrl=       500 IOpCl=  0 I1Cent=   200000004 NGrid=           0
         NMat0=    1 NMatS0=      1 NMatT0=    0 NMatD0=    1 NMtDS0=    0 NMtDT0=    0
 Symmetry not used in FoFCou.
 Harris En= -2970.68944234880    
 JPrj=0 DoOrth=F DoCkMO=F.
 Leave Link  401 at Wed May  1 14:46:52 2024, MaxMem=  1207959552 cpu:              29.8 elap:              29.8
 (Enter /software/gaussian/g16-c01/sse4/g16/l502.exe)
 Two-electron integral symmetry not used.
 Closed shell SCF:
 Using DIIS extrapolation, IDIIS=  1040.
 NGot=  1207959552 LenX=  1207804877 LenY=  1207729907
 Requested convergence on RMS density matrix=1.00D-08 within 128 cycles.
 Requested convergence on MAX density matrix=1.00D-06.
 Requested convergence on             energy=1.00D-06.
 No special actions if energy rises.
 Fock matrices will be formed incrementally for  20 cycles.

 Cycle   1  Pass 1  IDiag  1:
 FoFJK:  IHMeth= 1 ICntrl=       0 DoSepK=T KAlg= 0 I1Cent=           0 FoldK=F
 IRaf=         1 NMat=       1 IRICut=       1 DoRegI=T DoRafI=F ISym2E= 0 IDoP0=0 IntGTp=1.
 FoFCou: FMM=F IPFlag=           0 FMFlag=      100000 FMFlg1=           0
         NFxFlg=           0 DoJE=T BraDBF=F KetDBF=F FulRan=T
         wScrn=  0.000000 ICntrl=       500 IOpCl=  0 I1Cent=           0 NGrid=           0
         NMat0=    1 NMatS0=      1 NMatT0=    0 NMatD0=    1 NMtDS0=    0 NMtDT0=    0
 Symmetry not used in FoFCou.
 E= -3007.99930348327    
 DIIS: error= 3.23D-01 at cycle   1 NSaved=   1.
 NSaved= 1 IEnMin= 1 EnMin= -3007.99930348327     IErMin= 1 ErrMin= 3.23D-01
 ErrMax= 3.23D-01  0.00D+00 EMaxC= 1.00D-01 BMatC= 1.27D+01 BMatP= 1.27D+01
 IDIUse=3 WtCom= 0.00D+00 WtEn= 1.00D+00
 Coeff-Com:  0.100D+01
 Coeff-En:   0.100D+01
 Coeff:      0.100D+01
 Gap=    -0.993 Goal=   None    Shift=    0.000
 GapD=   -0.993 DampG=0.250 DampE=0.250 DampFc=0.2500 IDamp=-1.
 Damping current iteration by 2.50D-01
 RMSDP=4.93D-01 MaxDP=4.99D+01              OVMax= 7.97D-01

 Cycle   2  Pass 1  IDiag  1:
 RMSU=  2.28D-02    CP:  7.68D-01
 E= -3008.71754870072     Delta-E=       -0.718245217449 Rises=F Damp=T
 DIIS: error= 2.26D-01 at cycle   2 NSaved=   2.
 NSaved= 2 IEnMin= 2 EnMin= -3008.71754870072     IErMin= 2 ErrMin= 2.26D-01
 ErrMax= 2.26D-01  0.00D+00 EMaxC= 1.00D-01 BMatC= 5.66D+00 BMatP= 1.27D+01
 IDIUse=3 WtCom= 0.00D+00 WtEn= 1.00D+00
 Coeff-Com: -0.121D+01 0.221D+01
 Coeff-En:   0.192D+00 0.808D+00
 Coeff:      0.192D+00 0.808D+00
 Gap=     0.289 Goal=   None    Shift=    0.000
 RMSDP=3.79D-01 MaxDP=4.01D+01 DE=-7.18D-01 OVMax= 8.56D-01

 Cycle   3  Pass 1  IDiag  1:
 RMSU=  2.27D-02    CP:  4.78D-02  2.36D+00
 E= -3009.51545857265     Delta-E=       -0.797909871929 Rises=F Damp=F
 DIIS: error= 8.42D-02 at cycle   3 NSaved=   3.
 NSaved= 3 IEnMin= 3 EnMin= -3009.51545857265     IErMin= 3 ErrMin= 8.42D-02
 ErrMax= 8.42D-02  0.00D+00 EMaxC= 1.00D-01 BMatC= 2.23D+00 BMatP= 5.66D+00
 IDIUse=3 WtCom= 1.58D-01 WtEn= 8.42D-01
 EnCoef did   100 forward-backward iterations
 Coeff-Com:  0.104D+00 0.206D+00 0.690D+00
 Coeff-En:   0.289D+00 0.494D-02 0.706D+00
 Coeff:      0.260D+00 0.368D-01 0.703D+00
 Gap=     0.289 Goal=   None    Shift=    0.000
 RMSDP=2.69D-02 MaxDP=1.91D+00 DE=-7.98D-01 OVMax= 5.53D-01

 Cycle   4  Pass 1  IDiag  1:
 RMSU=  2.49D-02    CP:  4.35D-02  1.93D+00  1.09D+00
 E= -3009.84629597313     Delta-E=       -0.330837400480 Rises=F Damp=F
 DIIS: error= 9.76D-02 at cycle   4 NSaved=   4.
 NSaved= 4 IEnMin= 4 EnMin= -3009.84629597313     IErMin= 3 ErrMin= 8.42D-02
 ErrMax= 9.76D-02  0.00D+00 EMaxC= 1.00D-01 BMatC= 1.01D+00 BMatP= 2.23D+00
 IDIUse=3 WtCom= 2.43D-02 WtEn= 9.76D-01
 Coeff-Com:  0.166D+00-0.126D+00 0.443D+00 0.518D+00
 Coeff-En:   0.000D+00 0.000D+00 0.417D+00 0.583D+00
 Coeff:      0.402D-02-0.306D-02 0.417D+00 0.582D+00
 Gap=     0.195 Goal=   None    Shift=    0.000
 RMSDP=1.38D-02 MaxDP=7.97D-01 DE=-3.31D-01 OVMax= 3.88D-01

 Cycle   5  Pass 1  IDiag  1:
 RMSU=  1.08D-02    CP:  4.48D-02  1.85D+00  1.28D+00  7.05D-01
 E= -3010.43791399745     Delta-E=       -0.591618024320 Rises=F Damp=F
 DIIS: error= 3.29D-02 at cycle   5 NSaved=   5.
 NSaved= 5 IEnMin= 5 EnMin= -3010.43791399745     IErMin= 5 ErrMin= 3.29D-02
 ErrMax= 3.29D-02  0.00D+00 EMaxC= 1.00D-01 BMatC= 1.89D-01 BMatP= 1.01D+00
 IDIUse=3 WtCom= 6.71D-01 WtEn= 3.29D-01
 Coeff-Com:  0.414D-02-0.245D-02 0.170D+00 0.316D+00 0.512D+00
 Coeff-En:   0.000D+00 0.000D+00 0.000D+00 0.141D+00 0.859D+00
 Coeff:      0.278D-02-0.164D-02 0.114D+00 0.259D+00 0.626D+00
 Gap=     0.292 Goal=   None    Shift=    0.000
 RMSDP=9.53D-03 MaxDP=8.40D-01 DE=-5.92D-01 OVMax= 1.46D-01

 Cycle   6  Pass 1  IDiag  1:
 RMSU=  3.72D-03    CP:  3.93D-02  1.67D+00  1.14D+00  7.09D-01  4.02D-01
 E= -3010.53462954080     Delta-E=       -0.096715543349 Rises=F Damp=F
 DIIS: error= 1.58D-02 at cycle   6 NSaved=   6.
 NSaved= 6 IEnMin= 6 EnMin= -3010.53462954080     IErMin= 6 ErrMin= 1.58D-02
 ErrMax= 1.58D-02  0.00D+00 EMaxC= 1.00D-01 BMatC= 3.05D-02 BMatP= 1.89D-01
 IDIUse=3 WtCom= 8.42D-01 WtEn= 1.58D-01
 Coeff-Com: -0.295D-01 0.398D-01-0.398D-02 0.108D-01 0.297D+00 0.686D+00
 Coeff-En:   0.000D+00 0.000D+00 0.000D+00 0.000D+00 0.123D+00 0.877D+00
 Coeff:     -0.248D-01 0.335D-01-0.335D-02 0.909D-02 0.270D+00 0.716D+00
 Gap=     0.248 Goal=   None    Shift=    0.000
 RMSDP=1.78D-03 MaxDP=9.88D-02 DE=-9.67D-02 OVMax= 5.31D-02

 Cycle   7  Pass 1  IDiag  1:
 RMSU=  9.95D-04    CP:  3.93D-02  1.65D+00  1.15D+00  6.80D-01  5.08D-01
                    CP:  9.64D-01
 E= -3010.55093273487     Delta-E=       -0.016303194073 Rises=F Damp=F
 DIIS: error= 2.25D-03 at cycle   7 NSaved=   7.
 NSaved= 7 IEnMin= 7 EnMin= -3010.55093273487     IErMin= 7 ErrMin= 2.25D-03
 ErrMax= 2.25D-03  0.00D+00 EMaxC= 1.00D-01 BMatC= 1.41D-03 BMatP= 3.05D-02
 IDIUse=3 WtCom= 9.78D-01 WtEn= 2.25D-02
 Coeff-Com: -0.183D-01 0.248D-01-0.140D-01-0.114D-01 0.651D-01 0.293D+00
 Coeff-Com:  0.661D+00
 Coeff-En:   0.000D+00 0.000D+00 0.000D+00 0.000D+00 0.000D+00 0.000D+00
 Coeff-En:   0.100D+01
 Coeff:     -0.178D-01 0.242D-01-0.137D-01-0.111D-01 0.636D-01 0.286D+00
 Coeff:      0.669D+00
 Gap=     0.248 Goal=   None    Shift=    0.000
 RMSDP=7.51D-04 MaxDP=5.80D-02 DE=-1.63D-02 OVMax= 7.71D-03

 Cycle   8  Pass 1  IDiag  1:
 RMSU=  4.21D-04    CP:  3.89D-02  1.65D+00  1.14D+00  6.80D-01  4.66D-01
                    CP:  1.01D+00  8.47D-01
 E= -3010.55198702161     Delta-E=       -0.001054286736 Rises=F Damp=F
 DIIS: error= 4.14D-04 at cycle   8 NSaved=   8.
 NSaved= 8 IEnMin= 8 EnMin= -3010.55198702161     IErMin= 8 ErrMin= 4.14D-04
 ErrMax= 4.14D-04  0.00D+00 EMaxC= 1.00D-01 BMatC= 1.14D-04 BMatP= 1.41D-03
 IDIUse=3 WtCom= 9.96D-01 WtEn= 4.14D-03
 Coeff-Com: -0.638D-02 0.872D-02-0.256D-02-0.542D-04-0.196D-01-0.236D-01
 Coeff-Com:  0.220D+00 0.823D+00
 Coeff-En:   0.000D+00 0.000D+00 0.000D+00 0.000D+00 0.000D+00 0.000D+00
 Coeff-En:   0.000D+00 0.100D+01
 Coeff:     -0.635D-02 0.869D-02-0.255D-02-0.540D-04-0.195D-01-0.235D-01
 Coeff:      0.219D+00 0.824D+00
 Gap=     0.252 Goal=   None    Shift=    0.000
 RMSDP=4.40D-04 MaxDP=2.49D-02 DE=-1.05D-03 OVMax= 3.43D-03

 Cycle   9  Pass 1  IDiag  1:
 RMSU=  2.25D-04    CP:  3.88D-02  1.66D+00  1.13D+00  6.79D-01  4.43D-01
                    CP:  1.01D+00  9.46D-01  1.51D+00
 E= -3010.55212763487     Delta-E=       -0.000140613262 Rises=F Damp=F
 DIIS: error= 3.27D-04 at cycle   9 NSaved=   9.
 NSaved= 9 IEnMin= 9 EnMin= -3010.55212763487     IErMin= 9 ErrMin= 3.27D-04
 ErrMax= 3.27D-04  0.00D+00 EMaxC= 1.00D-01 BMatC= 1.30D-05 BMatP= 1.14D-04
 IDIUse=3 WtCom= 9.97D-01 WtEn= 3.27D-03
 Coeff-Com: -0.161D-02 0.222D-02 0.596D-03 0.164D-02-0.138D-01-0.440D-01
 Coeff-Com: -0.355D-01 0.194D+00 0.896D+00
 Coeff-En:   0.000D+00 0.000D+00 0.000D+00 0.000D+00 0.000D+00 0.000D+00
 Coeff-En:   0.000D+00 0.000D+00 0.100D+01
 Coeff:     -0.161D-02 0.221D-02 0.594D-03 0.163D-02-0.137D-01-0.439D-01
 Coeff:     -0.354D-01 0.193D+00 0.897D+00
 Gap=     0.252 Goal=   None    Shift=    0.000
 RMSDP=1.82D-04 MaxDP=1.46D-02 DE=-1.41D-04 OVMax= 2.00D-03

 Cycle  10  Pass 1  IDiag  1:
 RMSU=  6.19D-05    CP:  3.87D-02  1.65D+00  1.13D+00  6.78D-01  4.31D-01
                    CP:  1.02D+00  9.65D-01  1.65D+00  1.15D+00
 E= -3010.55214800703     Delta-E=       -0.000020372161 Rises=F Damp=F
 DIIS: error= 1.01D-04 at cycle  10 NSaved=  10.
 NSaved=10 IEnMin=10 EnMin= -3010.55214800703     IErMin=10 ErrMin= 1.01D-04
 ErrMax= 1.01D-04  0.00D+00 EMaxC= 1.00D-01 BMatC= 1.83D-06 BMatP= 1.30D-05
 IDIUse=3 WtCom= 9.99D-01 WtEn= 1.01D-03
 Coeff-Com: -0.221D-03 0.317D-03 0.304D-03 0.793D-03-0.218D-02-0.106D-01
 Coeff-Com: -0.340D-01-0.323D-01 0.326D+00 0.752D+00
 Coeff-En:   0.000D+00 0.000D+00 0.000D+00 0.000D+00 0.000D+00 0.000D+00
 Coeff-En:   0.000D+00 0.000D+00 0.000D+00 0.100D+01
 Coeff:     -0.221D-03 0.317D-03 0.304D-03 0.792D-03-0.218D-02-0.106D-01
 Coeff:     -0.340D-01-0.323D-01 0.326D+00 0.752D+00
 Gap=     0.252 Goal=   None    Shift=    0.000
 RMSDP=5.61D-05 MaxDP=3.32D-03 DE=-2.04D-05 OVMax= 8.02D-04

 Cycle  11  Pass 1  IDiag  1:
 RMSU=  1.95D-05    CP:  3.87D-02  1.66D+00  1.13D+00  6.78D-01  4.28D-01
                    CP:  1.01D+00  9.62D-01  1.71D+00  1.27D+00  1.04D+00
 E= -3010.55215092739     Delta-E=       -0.000002920359 Rises=F Damp=F
 DIIS: error= 2.98D-05 at cycle  11 NSaved=  11.
 NSaved=11 IEnMin=11 EnMin= -3010.55215092739     IErMin=11 ErrMin= 2.98D-05
 ErrMax= 2.98D-05  0.00D+00 EMaxC= 1.00D-01 BMatC= 3.35D-07 BMatP= 1.83D-06
 IDIUse=1 WtCom= 1.00D+00 WtEn= 0.00D+00
 Coeff-Com:  0.355D-04-0.666D-04-0.164D-03 0.762D-04 0.143D-02 0.346D-02
 Coeff-Com: -0.545D-02-0.398D-01-0.105D-01 0.266D+00 0.785D+00
 Coeff:      0.355D-04-0.666D-04-0.164D-03 0.762D-04 0.143D-02 0.346D-02
 Coeff:     -0.545D-02-0.398D-01-0.105D-01 0.266D+00 0.785D+00
 Gap=     0.252 Goal=   None    Shift=    0.000
 RMSDP=2.13D-05 MaxDP=1.38D-03 DE=-2.92D-06 OVMax= 3.66D-04

 Cycle  12  Pass 1  IDiag  1:
 RMSU=  1.12D-05    CP:  3.87D-02  1.65D+00  1.13D+00  6.78D-01  4.29D-01
                    CP:  1.01D+00  9.65D-01  1.71D+00  1.25D+00  1.11D+00
                    CP:  1.26D+00
 E= -3010.55215159933     Delta-E=       -0.000000671938 Rises=F Damp=F
 DIIS: error= 1.73D-05 at cycle  12 NSaved=  12.
 NSaved=12 IEnMin=12 EnMin= -3010.55215159933     IErMin=12 ErrMin= 1.73D-05
 ErrMax= 1.73D-05  0.00D+00 EMaxC= 1.00D-01 BMatC= 7.10D-08 BMatP= 3.35D-07
 IDIUse=1 WtCom= 1.00D+00 WtEn= 0.00D+00
 Coeff-Com:  0.686D-04-0.104D-03-0.112D-03-0.404D-04 0.611D-03 0.264D-02
 Coeff-Com:  0.469D-02-0.489D-02-0.442D-01-0.259D-01 0.271D+00 0.797D+00
 Coeff:      0.686D-04-0.104D-03-0.112D-03-0.404D-04 0.611D-03 0.264D-02
 Coeff:      0.469D-02-0.489D-02-0.442D-01-0.259D-01 0.271D+00 0.797D+00
 Gap=     0.252 Goal=   None    Shift=    0.000
 RMSDP=9.46D-06 MaxDP=4.39D-04 DE=-6.72D-07 OVMax= 2.58D-04

 Cycle  13  Pass 1  IDiag  1:
 RMSU=  3.85D-06    CP:  3.87D-02  1.65D+00  1.13D+00  6.79D-01  4.29D-01
                    CP:  1.02D+00  9.65D-01  1.71D+00  1.24D+00  1.13D+00
                    CP:  1.51D+00  1.21D+00
 E= -3010.55215176703     Delta-E=       -0.000000167698 Rises=F Damp=F
 DIIS: error= 9.42D-06 at cycle  13 NSaved=  13.
 NSaved=13 IEnMin=13 EnMin= -3010.55215176703     IErMin=13 ErrMin= 9.42D-06
 ErrMax= 9.42D-06  0.00D+00 EMaxC= 1.00D-01 BMatC= 1.84D-08 BMatP= 7.10D-08
 IDIUse=1 WtCom= 1.00D+00 WtEn= 0.00D+00
 Coeff-Com:  0.347D-04-0.467D-04-0.159D-04-0.701D-04-0.115D-03 0.579D-03
 Coeff-Com:  0.337D-02 0.714D-02-0.115D-01-0.807D-01-0.138D+00 0.297D+00
 Coeff-Com:  0.922D+00
 Coeff:      0.347D-04-0.467D-04-0.159D-04-0.701D-04-0.115D-03 0.579D-03
 Coeff:      0.337D-02 0.714D-02-0.115D-01-0.807D-01-0.138D+00 0.297D+00
 Coeff:      0.922D+00
 Gap=     0.252 Goal=   None    Shift=    0.000
 RMSDP=7.47D-06 MaxDP=3.67D-04 DE=-1.68D-07 OVMax= 1.95D-04

 Cycle  14  Pass 1  IDiag  1:
 RMSU=  1.90D-06    CP:  3.87D-02  1.65D+00  1.13D+00  6.79D-01  4.29D-01
                    CP:  1.02D+00  9.65D-01  1.70D+00  1.23D+00  1.14D+00
                    CP:  1.64D+00  1.45D+00  1.37D+00
 E= -3010.55215182985     Delta-E=       -0.000000062827 Rises=F Damp=F
 DIIS: error= 2.83D-06 at cycle  14 NSaved=  14.
 NSaved=14 IEnMin=14 EnMin= -3010.55215182985     IErMin=14 ErrMin= 2.83D-06
 ErrMax= 2.83D-06  0.00D+00 EMaxC= 1.00D-01 BMatC= 3.47D-09 BMatP= 1.84D-08
 IDIUse=1 WtCom= 1.00D+00 WtEn= 0.00D+00
 Coeff-Com:  0.122D-04-0.143D-04 0.116D-04-0.217D-04-0.204D-03-0.318D-03
 Coeff-Com:  0.464D-03 0.413D-02 0.385D-02-0.260D-01-0.114D+00 0.650D-02
 Coeff-Com:  0.395D+00 0.731D+00
 Coeff:      0.122D-04-0.143D-04 0.116D-04-0.217D-04-0.204D-03-0.318D-03
 Coeff:      0.464D-03 0.413D-02 0.385D-02-0.260D-01-0.114D+00 0.650D-02
 Coeff:      0.395D+00 0.731D+00
 Gap=     0.252 Goal=   None    Shift=    0.000
 RMSDP=2.01D-06 MaxDP=7.47D-05 DE=-6.28D-08 OVMax= 6.52D-05

 Cycle  15  Pass 1  IDiag  1:
 RMSU=  8.75D-07    CP:  3.87D-02  1.65D+00  1.13D+00  6.79D-01  4.29D-01
                    CP:  1.02D+00  9.65D-01  1.70D+00  1.23D+00  1.13D+00
                    CP:  1.67D+00  1.56D+00  1.52D+00  1.06D+00
 E= -3010.55215183955     Delta-E=       -0.000000009699 Rises=F Damp=F
 DIIS: error= 9.51D-07 at cycle  15 NSaved=  15.
 NSaved=15 IEnMin=15 EnMin= -3010.55215183955     IErMin=15 ErrMin= 9.51D-07
 ErrMax= 9.51D-07  0.00D+00 EMaxC= 1.00D-01 BMatC= 3.70D-10 BMatP= 3.47D-09
 IDIUse=1 WtCom= 1.00D+00 WtEn= 0.00D+00
 Coeff-Com:  0.188D-05-0.292D-05 0.416D-05 0.112D-04-0.877D-05-0.203D-03
 Coeff-Com: -0.785D-03-0.110D-02 0.237D-02 0.146D-01 0.192D-02-0.472D-01
 Coeff-Com: -0.105D+00 0.786D-01 0.106D+01
 Coeff:      0.188D-05-0.292D-05 0.416D-05 0.112D-04-0.877D-05-0.203D-03
 Coeff:     -0.785D-03-0.110D-02 0.237D-02 0.146D-01 0.192D-02-0.472D-01
 Coeff:     -0.105D+00 0.786D-01 0.106D+01
 Gap=     0.252 Goal=   None    Shift=    0.000
 RMSDP=8.57D-07 MaxDP=4.29D-05 DE=-9.70D-09 OVMax= 4.88D-05

 Cycle  16  Pass 1  IDiag  1:
 RMSU=  3.34D-07    CP:  3.87D-02  1.65D+00  1.13D+00  6.79D-01  4.29D-01
                    CP:  1.02D+00  9.65D-01  1.70D+00  1.23D+00  1.13D+00
                    CP:  1.66D+00  1.58D+00  1.59D+00  1.18D+00  1.52D+00
 E= -3010.55215184184     Delta-E=       -0.000000002287 Rises=F Damp=F
 DIIS: error= 4.55D-07 at cycle  16 NSaved=  16.
 NSaved=16 IEnMin=16 EnMin= -3010.55215184184     IErMin=16 ErrMin= 4.55D-07
 ErrMax= 4.55D-07  0.00D+00 EMaxC= 1.00D-01 BMatC= 1.06D-10 BMatP= 3.70D-10
 IDIUse=1 WtCom= 1.00D+00 WtEn= 0.00D+00
 Coeff-Com:  0.662D-06-0.105D-05 0.200D-05 0.491D-05 0.263D-04-0.174D-04
 Coeff-Com: -0.285D-03-0.860D-03-0.323D-03 0.708D-02 0.122D-01-0.116D-01
 Coeff-Com: -0.722D-01-0.114D+00 0.327D+00 0.852D+00
 Coeff:      0.662D-06-0.105D-05 0.200D-05 0.491D-05 0.263D-04-0.174D-04
 Coeff:     -0.285D-03-0.860D-03-0.323D-03 0.708D-02 0.122D-01-0.116D-01
 Coeff:     -0.722D-01-0.114D+00 0.327D+00 0.852D+00
 Gap=     0.252 Goal=   None    Shift=    0.000
 RMSDP=3.46D-07 MaxDP=1.58D-05 DE=-2.29D-09 OVMax= 1.53D-05

 Cycle  17  Pass 1  IDiag  1:
 RMSU=  1.59D-07    CP:  3.87D-02  1.65D+00  1.13D+00  6.79D-01  4.29D-01
                    CP:  1.02D+00  9.65D-01  1.70D+00  1.23D+00  1.13D+00
                    CP:  1.66D+00  1.60D+00  1.61D+00  1.20D+00  1.73D+00
                    CP:  1.26D+00
 E= -3010.55215184215     Delta-E=       -0.000000000314 Rises=F Damp=F
 DIIS: error= 2.76D-07 at cycle  17 NSaved=  17.
 NSaved=17 IEnMin=17 EnMin= -3010.55215184215     IErMin=17 ErrMin= 2.76D-07
 ErrMax= 2.76D-07  0.00D+00 EMaxC= 1.00D-01 BMatC= 2.02D-11 BMatP= 1.06D-10
 IDIUse=1 WtCom= 1.00D+00 WtEn= 0.00D+00
 Coeff-Com: -0.296D-06 0.527D-06 0.791D-06-0.684D-06 0.125D-04 0.345D-04
 Coeff-Com:  0.632D-04-0.784D-04-0.548D-03-0.240D-03 0.364D-02 0.788D-02
 Coeff-Com:  0.222D-02-0.641D-01-0.810D-01 0.228D+00 0.904D+00
 Coeff:     -0.296D-06 0.527D-06 0.791D-06-0.684D-06 0.125D-04 0.345D-04
 Coeff:      0.632D-04-0.784D-04-0.548D-03-0.240D-03 0.364D-02 0.788D-02
 Coeff:      0.222D-02-0.641D-01-0.810D-01 0.228D+00 0.904D+00
 Gap=     0.252 Goal=   None    Shift=    0.000
 RMSDP=2.08D-07 MaxDP=1.46D-05 DE=-3.14D-10 OVMax= 6.18D-06

 Cycle  18  Pass 1  IDiag  1:
 RMSU=  4.95D-08    CP:  3.87D-02  1.65D+00  1.13D+00  6.79D-01  4.29D-01
                    CP:  1.02D+00  9.65D-01  1.70D+00  1.23D+00  1.13D+00
                    CP:  1.66D+00  1.60D+00  1.60D+00  1.20D+00  1.81D+00
                    CP:  1.40D+00  1.28D+00
 E= -3010.55215184222     Delta-E=       -0.000000000069 Rises=F Damp=F
 DIIS: error= 8.61D-08 at cycle  18 NSaved=  18.
 NSaved=18 IEnMin=18 EnMin= -3010.55215184222     IErMin=18 ErrMin= 8.61D-08
 ErrMax= 8.61D-08  0.00D+00 EMaxC= 1.00D-01 BMatC= 3.00D-12 BMatP= 2.02D-11
 IDIUse=1 WtCom= 1.00D+00 WtEn= 0.00D+00
 Coeff-Com: -0.161D-06 0.282D-06 0.338D-06-0.741D-06-0.903D-06 0.835D-05
 Coeff-Com:  0.611D-04 0.111D-03-0.510D-04-0.117D-02-0.172D-02 0.315D-02
 Coeff-Com:  0.126D-01 0.273D-02-0.631D-01-0.118D+00 0.207D+00 0.959D+00
 Coeff:     -0.161D-06 0.282D-06 0.338D-06-0.741D-06-0.903D-06 0.835D-05
 Coeff:      0.611D-04 0.111D-03-0.510D-04-0.117D-02-0.172D-02 0.315D-02
 Coeff:      0.126D-01 0.273D-02-0.631D-01-0.118D+00 0.207D+00 0.959D+00
 Gap=     0.252 Goal=   None    Shift=    0.000
 RMSDP=1.02D-07 MaxDP=6.18D-06 DE=-6.91D-11 OVMax= 2.64D-06

 Cycle  19  Pass 1  IDiag  1:
 RMSU=  2.66D-08    CP:  3.87D-02  1.65D+00  1.13D+00  6.79D-01  4.29D-01
                    CP:  1.02D+00  9.65D-01  1.70D+00  1.23D+00  1.13D+00
                    CP:  1.66D+00  1.60D+00  1.60D+00  1.20D+00  1.82D+00
                    CP:  1.42D+00  1.58D+00  1.45D+00
 E= -3010.55215184225     Delta-E=       -0.000000000025 Rises=F Damp=F
 DIIS: error= 3.09D-08 at cycle  19 NSaved=  19.
 NSaved=19 IEnMin=19 EnMin= -3010.55215184225     IErMin=19 ErrMin= 3.09D-08
 ErrMax= 3.09D-08  0.00D+00 EMaxC= 1.00D-01 BMatC= 3.01D-13 BMatP= 3.00D-12
 IDIUse=1 WtCom= 1.00D+00 WtEn= 0.00D+00
 Coeff-Com: -0.103D-07 0.740D-08-0.535D-07-0.561D-07-0.206D-05-0.348D-05
 Coeff-Com:  0.642D-05 0.341D-04 0.708D-04-0.227D-03-0.100D-02-0.275D-03
 Coeff-Com:  0.237D-02 0.111D-01 0.123D-02-0.741D-01-0.668D-01 0.236D+00
 Coeff-Com:  0.892D+00
 Coeff:     -0.103D-07 0.740D-08-0.535D-07-0.561D-07-0.206D-05-0.348D-05
 Coeff:      0.642D-05 0.341D-04 0.708D-04-0.227D-03-0.100D-02-0.275D-03
 Coeff:      0.237D-02 0.111D-01 0.123D-02-0.741D-01-0.668D-01 0.236D+00
 Coeff:      0.892D+00
 Gap=     0.252 Goal=   None    Shift=    0.000
 RMSDP=2.24D-08 MaxDP=9.97D-07 DE=-2.55D-11 OVMax= 7.22D-07

 Cycle  20  Pass 1  IDiag  1:
 RMSU=  9.51D-09    CP:  3.87D-02  1.65D+00  1.13D+00  6.79D-01  4.29D-01
                    CP:  1.02D+00  9.65D-01  1.70D+00  1.23D+00  1.13D+00
                    CP:  1.66D+00  1.60D+00  1.60D+00  1.19D+00  1.82D+00
                    CP:  1.41D+00  1.65D+00  1.62D+00  1.28D+00
 E= -3010.55215184222     Delta-E=        0.000000000031 Rises=F Damp=F
 DIIS: error= 1.65D-08 at cycle  20 NSaved=  20.
 NSaved=20 IEnMin=19 EnMin= -3010.55215184225     IErMin=20 ErrMin= 1.65D-08
 ErrMax= 1.65D-08  0.00D+00 EMaxC= 1.00D-01 BMatC= 7.65D-14 BMatP= 3.01D-13
 IDIUse=1 WtCom= 1.00D+00 WtEn= 0.00D+00
 Coeff-Com:  0.324D-07-0.556D-07-0.121D-06 0.955D-07-0.365D-06-0.165D-05
 Coeff-Com: -0.703D-05-0.116D-04 0.231D-04 0.144D-03 0.104D-03-0.516D-03
 Coeff-Com: -0.191D-02 0.217D-02 0.111D-01 0.191D-03-0.371D-01-0.145D+00
 Coeff-Com:  0.200D+00 0.971D+00
 Coeff:      0.324D-07-0.556D-07-0.121D-06 0.955D-07-0.365D-06-0.165D-05
 Coeff:     -0.703D-05-0.116D-04 0.231D-04 0.144D-03 0.104D-03-0.516D-03
 Coeff:     -0.191D-02 0.217D-02 0.111D-01 0.191D-03-0.371D-01-0.145D+00
 Coeff:      0.200D+00 0.971D+00
 Gap=     0.252 Goal=   None    Shift=    0.000
 RMSDP=1.29D-08 MaxDP=7.42D-07 DE= 3.14D-11 OVMax= 3.58D-07

 Cycle  21  Pass 1  IDiag  1:
 Restarting incremental Fock formation.
 E= -3010.55215184219     Delta-E=        0.000000000030 Rises=F Damp=F
 DIIS: error= 7.95D-09 at cycle  21 NSaved=  20.
 NSaved=20 IEnMin=18 EnMin= -3010.55215184225     IErMin=20 ErrMin= 7.95D-09
 ErrMax= 7.95D-09  0.00D+00 EMaxC= 1.00D-01 BMatC= 1.02D-14 BMatP= 7.65D-14
 IDIUse=1 WtCom= 1.00D+00 WtEn= 0.00D+00
 Coeff-Com: -0.208D-08-0.311D-07 0.132D-08 0.144D-06 0.471D-06-0.768D-06
 Coeff-Com: -0.475D-05-0.137D-05 0.466D-04 0.133D-03-0.602D-05-0.549D-03
 Coeff-Com: -0.121D-02 0.588D-03 0.893D-02 0.120D-01-0.547D-01-0.954D-01
 Coeff-Com:  0.103D+00 0.103D+01
 Coeff:     -0.208D-08-0.311D-07 0.132D-08 0.144D-06 0.471D-06-0.768D-06
 Coeff:     -0.475D-05-0.137D-05 0.466D-04 0.133D-03-0.602D-05-0.549D-03
 Coeff:     -0.121D-02 0.588D-03 0.893D-02 0.120D-01-0.547D-01-0.954D-01
 Coeff:      0.103D+00 0.103D+01
 Gap=     0.252 Goal=   None    Shift=    0.000
 RMSDP=4.76D-09 MaxDP=2.58D-07 DE= 3.05D-11 OVMax= 1.50D-07

 SCF Done:  E(RwB97XD) =  -3010.55215184     A.U. after   21 cycles
            NFock= 21  Conv=0.48D-08     -V/T= 2.0016
 KE= 3.005871674111D+03 PE=-8.634945987697D+03 EE= 1.877112672387D+03
 Leave Link  502 at Wed May  1 15:06:44 2024, MaxMem=  1207959552 cpu:            1192.0 elap:            1192.1
 (Enter /software/gaussian/g16-c01/sse4/g16/l601.exe)
 Copying SCF densities to generalized density rwf, IOpCl= 0 IROHF=0.

 **********************************************************************

            Population analysis using the SCF Density.

 **********************************************************************

 Alpha  occ. eigenvalues -- -483.34414 -62.89472 -56.69117 -56.68612 -56.68609
 Alpha  occ. eigenvalues --  -19.46605 -19.46159 -14.85791 -10.60923 -10.58188
 Alpha  occ. eigenvalues --  -10.58108 -10.57251 -10.56728 -10.52066  -9.05301
 Alpha  occ. eigenvalues --   -6.87846  -6.86180  -6.86170  -2.97782  -2.97335
 Alpha  occ. eigenvalues --   -2.97327  -2.95993  -2.95992  -1.50104  -1.33071
 Alpha  occ. eigenvalues --   -1.23626  -1.15576  -1.11987  -1.06781  -1.01481
 Alpha  occ. eigenvalues --   -0.96343  -0.91514  -0.85788  -0.81426  -0.81073
 Alpha  occ. eigenvalues --   -0.80522  -0.79454  -0.76500  -0.76060  -0.73703
 Alpha  occ. eigenvalues --   -0.69477  -0.67365  -0.64387  -0.62101  -0.60186
 Alpha  occ. eigenvalues --   -0.57670  -0.57196  -0.56552  -0.55890
 Alpha virt. eigenvalues --   -0.30722  -0.21861  -0.18135  -0.17193  -0.13869
 Alpha virt. eigenvalues --   -0.12513  -0.12218  -0.08667  -0.07393  -0.07125
 Alpha virt. eigenvalues --   -0.05779  -0.04877  -0.03440  -0.02950  -0.01654
 Alpha virt. eigenvalues --   -0.00804  -0.00401   0.01037   0.01692   0.01893
 Alpha virt. eigenvalues --    0.02847   0.03389   0.04301   0.04851   0.06095
 Alpha virt. eigenvalues --    0.06464   0.07393   0.08743   0.09384   0.09649
 Alpha virt. eigenvalues --    0.09894   0.11116   0.11516   0.12550   0.12996
 Alpha virt. eigenvalues --    0.13360   0.13815   0.14111   0.14503   0.15911
 Alpha virt. eigenvalues --    0.17035   0.18764   0.19563   0.19851   0.20476
 Alpha virt. eigenvalues --    0.21193   0.22108   0.22799   0.24734   0.25552
 Alpha virt. eigenvalues --    0.26564   0.26689   0.27268   0.27922   0.28611
 Alpha virt. eigenvalues --    0.29903   0.31610   0.32817   0.34697   0.35632
 Alpha virt. eigenvalues --    0.36676   0.37354   0.39448   0.40563   0.41260
 Alpha virt. eigenvalues --    0.43059   0.43261   0.44550   0.45960   0.46965
 Alpha virt. eigenvalues --    0.48044   0.48945   0.50514   0.50982   0.52161
 Alpha virt. eigenvalues --    0.52543   0.53250   0.56153   0.56795   0.59514
 Alpha virt. eigenvalues --    0.60914   0.61778   0.63300   0.64634   0.67869
 Alpha virt. eigenvalues --    0.69279   0.71296   0.72492   0.73074   0.75266
 Alpha virt. eigenvalues --    0.76091   0.79600   0.80136   0.81381   0.84500
 Alpha virt. eigenvalues --    0.85432   0.87821   0.90989   0.92250   0.97259
 Alpha virt. eigenvalues --    0.99464   1.01157   1.03450   1.05047   1.05947
 Alpha virt. eigenvalues --    1.07931   1.10335   1.11795   1.12265   1.14350
 Alpha virt. eigenvalues --    1.22235   1.24062   1.26112   1.32892   1.35869
 Alpha virt. eigenvalues --    1.36246   1.36659   1.44070   1.53788   1.56594
 Alpha virt. eigenvalues --    1.57608   1.58146   1.60261   1.61464   1.65534
 Alpha virt. eigenvalues --    1.68427   1.68731   1.73486   1.74931   1.78660
 Alpha virt. eigenvalues --    1.80218   1.84949   1.87673   1.90278   1.92274
 Alpha virt. eigenvalues --    1.96739   2.02265   2.02953   2.04671   2.06967
 Alpha virt. eigenvalues --    2.08020   2.14265   2.20477   2.22628   2.30877
 Alpha virt. eigenvalues --    2.36725   2.40249   2.41120   2.43057   2.52068
 Alpha virt. eigenvalues --    2.56475   2.62773   2.65670   2.67771   2.71411
 Alpha virt. eigenvalues --    2.72609   2.75820   2.76998   2.80468   2.80972
 Alpha virt. eigenvalues --    2.92575   2.95163   3.00114   3.03726   3.08359
 Alpha virt. eigenvalues --    3.12588   3.15365   3.19346   3.23242   3.24069
 Alpha virt. eigenvalues --    3.26885   3.38666   3.48154   3.50867   3.53660
 Alpha virt. eigenvalues --    3.56214   3.69408   3.73663   3.81771   3.86496
 Alpha virt. eigenvalues --    4.05389   4.05646   4.13445   4.18553   4.39474
 Alpha virt. eigenvalues --    4.43901   4.56702   4.59424   4.92660   4.95466
 Alpha virt. eigenvalues --    5.03960   5.08306   5.62334   6.15305   6.61174
 Alpha virt. eigenvalues --    7.44079   7.45647   7.55588  23.20729  23.60796
 Alpha virt. eigenvalues --   23.67288  23.79428  23.95849  24.01013  35.32162
 Alpha virt. eigenvalues --   47.87931  49.85009  49.93831 289.77294 289.78965
 Alpha virt. eigenvalues --  289.914421020.88406
          Condensed to atoms (all electrons):
               1          2          3          4          5          6
     1  C    8.570459  -1.839299   0.216807  -1.508938  -0.949580   0.302254
     2  C   -1.839299  12.124088  -1.908671  -2.667483   1.196153  -0.008939
     3  C    0.216807  -1.908671  13.009608  -2.619328  -1.455396   0.021502
     4  C   -1.508938  -2.667483  -2.619328  16.097657   0.773181   0.003070
     5  C   -0.949580   1.196153  -1.455396   0.773181   7.771424   0.008509
     6  H    0.302254  -0.008939   0.021502   0.003070   0.008509   0.270970
     7  H    0.043416   0.252555   0.046587  -0.016442  -0.014182  -0.000872
     8  H    0.011312  -0.039522   0.133673   0.136755  -0.029704   0.000003
     9  H    0.064360  -0.028534   0.009894  -0.020390   0.289926  -0.001917
    10  N   -0.087247   0.282514  -0.920700   0.319471   0.041708  -0.000353
    11  O    0.045712  -0.118853  -0.238762  -0.077656  -0.071917  -0.000030
    12  O    0.267262   0.068611  -0.297639  -0.091802  -0.032555  -0.000012
    13  C    1.408465  -1.822400   0.727702  -4.586056  -1.572212  -0.003286
    14  H   -0.021448   0.030386  -0.021017   0.097469  -0.001839  -0.000008
    15  Br   0.009176   0.045402  -0.075115  -0.109188  -0.004845  -0.000259
               7          8          9         10         11         12
     1  C    0.043416   0.011312   0.064360  -0.087247   0.045712   0.267262
     2  C    0.252555  -0.039522  -0.028534   0.282514  -0.118853   0.068611
     3  C    0.046587   0.133673   0.009894  -0.920700  -0.238762  -0.297639
     4  C   -0.016442   0.136755  -0.020390   0.319471  -0.077656  -0.091802
     5  C   -0.014182  -0.029704   0.289926   0.041708  -0.071917  -0.032555
     6  H   -0.000872   0.000003  -0.001917  -0.000353  -0.000030  -0.000012
     7  H    0.249169   0.000028   0.000055  -0.018750  -0.000903   0.016492
     8  H    0.000028   0.357205   0.000094  -0.030757   0.028182  -0.001458
     9  H    0.000055   0.000094   0.315003   0.000248   0.000009   0.000004
    10  N   -0.018750  -0.030757   0.000248   7.385280   0.103897   0.224858
    11  O   -0.000903   0.028182   0.000009   0.103897   8.020498   0.000724
    12  O    0.016492  -0.001458   0.000004   0.224858   0.000724   7.683653
    13  C    0.010142   0.127802   0.012026  -0.208651   0.376537   0.018890
    14  H   -0.000028  -0.006395  -0.005045  -0.000248  -0.000074  -0.000089
    15  Br   0.000096   0.007221   0.007260   0.018477  -0.002025   0.002239
              13         14         15
     1  C    1.408465  -0.021448   0.009176
     2  C   -1.822400   0.030386   0.045402
     3  C    0.727702  -0.021017  -0.075115
     4  C   -4.586056   0.097469  -0.109188
     5  C   -1.572212  -0.001839  -0.004845
     6  H   -0.003286  -0.000008  -0.000259
     7  H    0.010142  -0.000028   0.000096
     8  H    0.127802  -0.006395   0.007221
     9  H    0.012026  -0.005045   0.007260
    10  N   -0.208651  -0.000248   0.018477
    11  O    0.376537  -0.000074  -0.002025
    12  O    0.018890  -0.000089   0.002239
    13  C   11.492139   0.234938   0.248775
    14  H    0.234938   0.404645  -0.064999
    15  Br   0.248775  -0.064999  34.870178
 Mulliken charges:
               1
     1  C   -0.532711
     2  C    0.433991
     3  C   -0.629148
     4  C    0.269680
     5  C    0.051329
     6  H    0.409369
     7  H    0.432637
     8  H    0.305560
     9  H    0.357008
    10  N   -0.109745
    11  O   -0.065338
    12  O    0.140822
    13  C   -0.464811
    14  H    0.353750
    15  Br   0.047606
 Sum of Mulliken charges =   1.00000
 Mulliken charges with hydrogens summed into heavy atoms:
               1
     1  C   -0.123342
     2  C    0.866629
     3  C   -0.629148
     4  C    0.575240
     5  C    0.408337
    10  N   -0.109745
    11  O   -0.065338
    12  O    0.140822
    13  C   -0.111061
    15  Br   0.047606
 Electronic spatial extent (au):  <R**2>=           2801.0394
 Charge=              1.0000 electrons
 Dipole moment (field-independent basis, Debye):
    X=             -0.1254    Y=              5.0003    Z=              0.6893  Tot=              5.0492
 Quadrupole moment (field-independent basis, Debye-Ang):
   XX=            -70.0845   YY=            -55.0343   ZZ=            -64.3217
   XY=              7.5417   XZ=              0.4926   YZ=             -0.9064
 Traceless Quadrupole moment (field-independent basis, Debye-Ang):
   XX=             -6.9377   YY=              8.1126   ZZ=             -1.1749
   XY=              7.5417   XZ=              0.4926   YZ=             -0.9064
 Octapole moment (field-independent basis, Debye-Ang**2):
  XXX=           -292.4837  YYY=            121.8910  ZZZ=             82.1765  XYY=            -72.4807
  XXY=             59.9998  XXZ=             32.9733  XZZ=            -76.5391  YZZ=             25.3742
  YYZ=             33.2815  XYZ=             -2.1452
 Hexadecapole moment (field-independent basis, Debye-Ang**3):
 XXXX=          -2253.7877 YYYY=           -715.7273 ZZZZ=           -361.3464 XXXY=             34.9383
 XXXZ=            -24.1482 YYYX=            -40.8038 YYYZ=           -179.7501 ZZZX=            -21.6956
 ZZZY=           -150.9035 XXYY=           -456.8045 XXZZ=           -372.1453 YYZZ=           -181.4239
 XXYZ=            -59.3351 YYXZ=             -6.9620 ZZXY=             -8.0073
 N-N= 7.414094893570D+02 E-N=-8.634945988050D+03  KE= 3.005871674111D+03
 No NMR shielding tensors so no spin-rotation constants.
 Leave Link  601 at Wed May  1 15:06:51 2024, MaxMem=  1207959552 cpu:               7.4 elap:               7.4
 (Enter /software/gaussian/g16-c01/sse4/g16/l9999.exe)
 Unable to Open any file for archive entry.
 1\1\GINC-BHX0016\SP\RwB97XD\6-311+G(d)\C6H5Br1N1O2(1+)\BWEIGHT\01-May-
 2024\0\\#P wB97XD/6-311+G* NoSymm #P Field=Y-194\\TitleMe\\1,1\C,0,0.0
 295,1.3397,0.0682\C,0,1.4348,1.2867,0.0064\C,0,2.1118,0.0511,-0.0054\C
 ,0,1.4451,-1.1372,0.0312\C,0,-0.6879,0.1682,0.11\H,0,-0.4713,2.2984,0.
 0781\H,0,2.0273,2.1965,-0.0322\H,0,1.9897,-2.0764,0.0232\H,0,-1.7716,0
 .1804,0.1582\N,0,3.5864,0.051,-0.0675\O,0,4.1471,-1.0597,-0.0881\O,0,4
 .145,1.1639,-0.0901\C,0,-0.0236,-1.1458,0.0835\H,0,-0.4367,-1.8725,0.7
 889\Br,0,-0.5359,-1.8697,-1.7408\\Version=ES64L-G16RevC.01\HF=-3010.55
 21518\RMSD=4.756e-09\Dipole=-1.9558547,3.11537,1.4173753\Quadrupole=-5
 .158004,6.0314859,-0.8734819,5.6070323,0.3662373,-0.6738562\PG=C01 [X(
 C6H5Br1N1O2)]\\@
 The archive entry for this job was punched.


 EVERYTHING'S GOT A MORAL, IF ONLY YOU CAN FIND IT.

                                    -- LEWIS CARROL, ALICE IN WONDERLAND
 Job cpu time:       0 days  0 hours 20 minutes 59.3 seconds.
 Elapsed time:       0 days  0 hours 20 minutes 59.4 seconds.
 File lengths (MBytes):  RWF=     40 Int=      0 D2E=      0 Chk=     32 Scr=      1
 Normal termination of Gaussian 16 at Wed May  1 15:06:52 2024.
