 Entering Gaussian System, Link 0=g16
 Initial command:
 /software/gaussian/g16-c01/sse4/g16/l1.exe "/local_scratch/24657580/Gau-27683.inp" -scrdir="/local_scratch/24657580/"
 Entering Link 1 = /software/gaussian/g16-c01/sse4/g16/l1.exe PID=     27684.
  
 Copyright (c) 1988-2019, Gaussian, Inc.  All Rights Reserved.
  
 This is part of the Gaussian(R) 16 program.  It is based on
 the Gaussian(R) 09 system (copyright 2009, Gaussian, Inc.),
 the Gaussian(R) 03 system (copyright 2003, Gaussian, Inc.),
 the Gaussian(R) 98 system (copyright 1998, Gaussian, Inc.),
 the Gaussian(R) 94 system (copyright 1995, Gaussian, Inc.),
 the Gaussian 92(TM) system (copyright 1992, Gaussian, Inc.),
 the Gaussian 90(TM) system (copyright 1990, Gaussian, Inc.),
 the Gaussian 88(TM) system (copyright 1988, Gaussian, Inc.),
 the Gaussian 86(TM) system (copyright 1986, Carnegie Mellon
 University), and the Gaussian 82(TM) system (copyright 1983,
 Carnegie Mellon University). Gaussian is a federally registered
 trademark of Gaussian, Inc.
  
 This software contains proprietary and confidential information,
 including trade secrets, belonging to Gaussian, Inc.
  
 This software is provided under written license and may be
 used, copied, transmitted, or stored only in accord with that
 written license.
  
 The following legend is applicable only to US Government
 contracts under FAR:
  
                    RESTRICTED RIGHTS LEGEND
  
 Use, reproduction and disclosure by the US Government is
 subject to restrictions as set forth in subparagraphs (a)
 and (c) of the Commercial Computer Software - Restricted
 Rights clause in FAR 52.227-19.
  
 Gaussian, Inc.
 340 Quinnipiac St., Bldg. 40, Wallingford CT 06492
  
  
 ---------------------------------------------------------------
 Warning -- This program may not be used in any manner that
 competes with the business of Gaussian, Inc. or will provide
 assistance to any competitor of Gaussian, Inc.  The licensee
 of this program is prohibited from giving any competitor of
 Gaussian, Inc. access to this program.  By using this program,
 the user acknowledges that Gaussian, Inc. is engaged in the
 business of creating and licensing software in the field of
 computational chemistry and represents and warrants to the
 licensee that it is not a competitor of Gaussian, Inc. and that
 it will not use this program in any manner prohibited above.
 ---------------------------------------------------------------
  

 Cite this work as:
 Gaussian 16, Revision C.01,
 M. J. Frisch, G. W. Trucks, H. B. Schlegel, G. E. Scuseria, 
 M. A. Robb, J. R. Cheeseman, G. Scalmani, V. Barone, 
 G. A. Petersson, H. Nakatsuji, X. Li, M. Caricato, A. V. Marenich, 
 J. Bloino, B. G. Janesko, R. Gomperts, B. Mennucci, H. P. Hratchian, 
 J. V. Ortiz, A. F. Izmaylov, J. L. Sonnenberg, D. Williams-Young, 
 F. Ding, F. Lipparini, F. Egidi, J. Goings, B. Peng, A. Petrone, 
 T. Henderson, D. Ranasinghe, V. G. Zakrzewski, J. Gao, N. Rega, 
 G. Zheng, W. Liang, M. Hada, M. Ehara, K. Toyota, R. Fukuda, 
 J. Hasegawa, M. Ishida, T. Nakajima, Y. Honda, O. Kitao, H. Nakai, 
 T. Vreven, K. Throssell, J. A. Montgomery, Jr., J. E. Peralta, 
 F. Ogliaro, M. J. Bearpark, J. J. Heyd, E. N. Brothers, K. N. Kudin, 
 V. N. Staroverov, T. A. Keith, R. Kobayashi, J. Normand, 
 K. Raghavachari, A. P. Rendell, J. C. Burant, S. S. Iyengar, 
 J. Tomasi, M. Cossi, J. M. Millam, M. Klene, C. Adamo, R. Cammi, 
 J. W. Ochterski, R. L. Martin, K. Morokuma, O. Farkas, 
 J. B. Foresman, and D. J. Fox, Gaussian, Inc., Wallingford CT, 2019.
 
 ******************************************
 Gaussian 16:  ES64L-G16RevC.01  3-Jul-2019
                 1-May-2024 
 ******************************************
 %chk=geometry.chk
 %mem=9GB
 %nprocshared=12
 Will use up to   12 processors via shared memory.
 ----------------------------------------
 #P wB97XD/6-311+G* NoSymm #P Field=Z+184
 ----------------------------------------
 1/38=1,172=1/1;
 2/12=2,15=1,17=6,18=5,40=1/2;
 3/5=4,6=6,7=11,11=2,14=3,15=184,25=1,30=1,74=-58/1,2,3;
 4//1;
 5/5=2,38=5/2;
 6/7=2,8=2,9=2,10=2,28=1/1;
 99/5=1,9=1/99;
 Leave Link    1 at Wed May  1 15:09:06 2024, MaxMem=  1207959552 cpu:               1.0 elap:               1.0
 (Enter /software/gaussian/g16-c01/sse4/g16/l101.exe)
 -------
 TitleMe
 -------
 Symbolic Z-matrix:
 Charge =  1 Multiplicity = 1
 C                     0.0295    1.3397    0.0682 
 C                     1.4348    1.2867    0.0064 
 C                     2.1118    0.0511   -0.0054 
 C                     1.4451   -1.1372    0.0312 
 C                    -0.6879    0.1682    0.11 
 H                    -0.4713    2.2984    0.0781 
 H                     2.0273    2.1965   -0.0322 
 H                     1.9897   -2.0764    0.0232 
 H                    -1.7716    0.1804    0.1582 
 N                     3.5864    0.051    -0.0675 
 O                     4.1471   -1.0597   -0.0881 
 O                     4.145     1.1639   -0.0901 
 C                    -0.0236   -1.1458    0.0835 
 H                    -0.4367   -1.8725    0.7889 
 Br                   -0.5359   -1.8697   -1.7408 
 
 ITRead=  0  0  0  0  0  0  0  0  0  0  0  0  0  0  0
 MicOpt= -1 -1 -1 -1 -1 -1 -1 -1 -1 -1 -1 -1 -1 -1 -1
 NAtoms=     15 NQM=       15 NQMF=       0 NMMI=      0 NMMIF=      0
                NMic=       0 NMicF=      0.
                    Isotopes and Nuclear Properties:
 (Nuclear quadrupole moments (NQMom) in fm**2, nuclear magnetic moments (NMagM)
  in nuclear magnetons)

  Atom         1           2           3           4           5           6           7           8           9          10
 IAtWgt=          12          12          12          12          12           1           1           1           1          14
 AtmWgt=  12.0000000  12.0000000  12.0000000  12.0000000  12.0000000   1.0078250   1.0078250   1.0078250   1.0078250  14.0030740
 NucSpn=           0           0           0           0           0           1           1           1           1           2
 AtZEff=  -0.0000000  -0.0000000  -0.0000000  -0.0000000  -0.0000000  -0.0000000  -0.0000000  -0.0000000  -0.0000000  -0.0000000
 NQMom=    0.0000000   0.0000000   0.0000000   0.0000000   0.0000000   0.0000000   0.0000000   0.0000000   0.0000000   2.0440000
 NMagM=    0.0000000   0.0000000   0.0000000   0.0000000   0.0000000   2.7928460   2.7928460   2.7928460   2.7928460   0.4037610
 AtZNuc=   6.0000000   6.0000000   6.0000000   6.0000000   6.0000000   1.0000000   1.0000000   1.0000000   1.0000000   7.0000000

  Atom        11          12          13          14          15
 IAtWgt=          16          16          12           1          79
 AtmWgt=  15.9949146  15.9949146  12.0000000   1.0078250  78.9183361
 NucSpn=           0           0           0           1           3
 AtZEff=  -0.0000000  -0.0000000  -0.0000000  -0.0000000  -0.0000000
 NQMom=    0.0000000   0.0000000   0.0000000   0.0000000  31.3000000
 NMagM=    0.0000000   0.0000000   0.0000000   2.7928460   2.1063990
 AtZNuc=   8.0000000   8.0000000   6.0000000   1.0000000  35.0000000
 Leave Link  101 at Wed May  1 15:09:07 2024, MaxMem=  1207959552 cpu:               1.3 elap:               1.4
 (Enter /software/gaussian/g16-c01/sse4/g16/l202.exe)
                          Input orientation:                          
 ---------------------------------------------------------------------
 Center     Atomic      Atomic             Coordinates (Angstroms)
 Number     Number       Type             X           Y           Z
 ---------------------------------------------------------------------
      1          6           0        0.029500    1.339700    0.068200
      2          6           0        1.434800    1.286700    0.006400
      3          6           0        2.111800    0.051100   -0.005400
      4          6           0        1.445100   -1.137200    0.031200
      5          6           0       -0.687900    0.168200    0.110000
      6          1           0       -0.471300    2.298400    0.078100
      7          1           0        2.027300    2.196500   -0.032200
      8          1           0        1.989700   -2.076400    0.023200
      9          1           0       -1.771600    0.180400    0.158200
     10          7           0        3.586400    0.051000   -0.067500
     11          8           0        4.147100   -1.059700   -0.088100
     12          8           0        4.145000    1.163900   -0.090100
     13          6           0       -0.023600   -1.145800    0.083500
     14          1           0       -0.436700   -1.872500    0.788900
     15         35           0       -0.535900   -1.869700   -1.740800
 ---------------------------------------------------------------------
                    Distance matrix (angstroms):
                    1          2          3          4          5
     1  C    0.000000
     2  C    1.407656   0.000000
     3  C    2.449874   1.408963   0.000000
     4  C    2.853126   2.424049   1.363043   0.000000
     5  C    1.374344   2.401589   2.804523   2.501993   0.000000
     6  H    1.081667   2.159142   3.424870   3.934226   2.141421
     7  H    2.176095   1.086408   2.147231   3.384750   3.392128
     8  H    3.938800   3.408612   2.131193   1.085702   3.495040
     9  H    2.143837   3.395283   3.888995   3.478413   1.084840
    10  N    3.785591   2.482297   1.475907   2.450862   4.279589
    11  O    4.768247   3.587631   2.320164   2.705743   4.992415
    12  O    4.122294   2.714696   2.319353   3.549540   4.938459
    13  C    2.486114   2.837240   2.449573   1.469656   1.472614
    14  H    3.324903   3.754379   3.290289   2.157764   2.165286
    15  Br   3.727252   4.110867   3.702891   2.756973   2.757100
                    6          7          8          9         10
     6  H    0.000000
     7  H    2.503108   0.000000
     8  H    5.019802   4.273425   0.000000
     9  H    2.486588   4.304945   4.388479   0.000000
    10  N    4.640790   2.652397   2.661486   5.364313   0.000000
    11  O    5.712624   3.885809   2.387560   6.052233   1.244373
    12  O    4.756638   2.356750   3.893289   6.002923   1.245428
    13  C    3.473180   3.923079   2.218790   2.195425   3.806210
    14  H    4.231175   4.827242   2.552506   2.528663   4.540772
    15  Br   4.548146   5.101303   3.087568   3.055498   4.845862
                   11         12         13         14         15
    11  O    0.000000
    12  O    2.223602   0.000000
    13  C    4.175117   4.768865   0.000000
    14  H    4.737193   5.566358   1.093770   0.000000
    15  Br   5.031700   5.817075   2.028436   2.531646   0.000000
 Symmetry turned off by external request.
 Stoichiometry    C6H5BrNO2(1+)
 Framework group  C1[X(C6H5BrNO2)]
 Deg. of freedom    39
 Full point group                 C1      NOp   1
 Rotational constants (GHZ):           1.8252210           0.5518633           0.4576002
 Leave Link  202 at Wed May  1 15:09:08 2024, MaxMem=  1207959552 cpu:               1.2 elap:               1.2
 (Enter /software/gaussian/g16-c01/sse4/g16/l301.exe)
 Standard basis: 6-311+G(d) (5D, 7F)
 Ernie: Thresh=  0.10000D-02 Tol=  0.10000D-05 Strict=F.
 The following finite field(s) will be applied:
 An electric field of              0.0000  0.0000  0.0184
   261 basis functions,   443 primitive gaussians,   273 cartesian basis functions
    49 alpha electrons       49 beta electrons
       nuclear repulsion energy       739.2122215416 Hartrees.
 IExCor= 4639 DFT=T Ex+Corr=wB97XD ExCW=0 ScaHFX=  1.000000
 ScaDFX=  1.000000  1.000000  1.000000  1.000000 ScalE2=  1.000000  1.000000
 IRadAn=      5 IRanWt=     -1 IRanGd=            0 ICorTp=0 IEmpDi=121
 HFx  wShort=  0.000000 wLong=  0.200000 cFull=  0.222036 cShort=  0.000000 cLong=  0.777964
 DFx  wShort=  0.000000 wLong=  0.200000 cFull=  0.000000 cShort=  0.000000 cLong=  1.000000
 NAtoms=   15 NActive=   15 NUniq=   15 SFac= 1.00D+00 NAtFMM=   60 NAOKFM=F Big=F
 Integral buffers will be    131072 words long.
 Raffenetti 2 integral format.
 Two-electron integral symmetry is turned off.
 R6Disp:  Grimme-D2 Dispersion energy=       -0.0077368520 Hartrees.
 Nuclear repulsion after empirical dispersion term =      739.2044846896 Hartrees.
 Leave Link  301 at Wed May  1 15:09:09 2024, MaxMem=  1207959552 cpu:               0.9 elap:               0.9
 (Enter /software/gaussian/g16-c01/sse4/g16/l302.exe)
 NPDir=0 NMtPBC=     1 NCelOv=     1 NCel=       1 NClECP=     1 NCelD=      1
         NCelK=      1 NCelE2=     1 NClLst=     1 CellRange=     0.0.
 One-electron integrals computed using PRISM.
 NBasis=   261 RedAO= T EigKep=  2.35D-06  NBF=   261
 NBsUse=   261 1.00D-06 EigRej= -1.00D+00 NBFU=   261
 Precomputing XC quadrature grid using
 IXCGrd= 4 IRadAn=           5 IRanWt=          -1 IRanGd=           0 AccXCQ= 0.00D+00.
 Generated NRdTot=       0 NPtTot=           0 NUsed=           0 NTot=          32
 NSgBfM=   273   273   273   273   273 MxSgAt=    15 MxSgA2=    15.
 Leave Link  302 at Wed May  1 15:09:30 2024, MaxMem=  1207959552 cpu:              21.1 elap:              21.1
 (Enter /software/gaussian/g16-c01/sse4/g16/l303.exe)
 DipDrv:  MaxL=1.
 The nuclear repulsion energy is now       737.1166101984 hartrees.
 Leave Link  303 at Wed May  1 15:09:34 2024, MaxMem=  1207959552 cpu:               3.3 elap:               3.3
 (Enter /software/gaussian/g16-c01/sse4/g16/l401.exe)
 ExpMin= 3.50D-02 ExpMax= 4.40D+05 ExpMxC= 1.51D+04 IAcc=3 IRadAn=         5 AccDes= 0.00D+00
 Harris functional with IExCor= 4639 and IRadAn=       5 diagonalized for initial guess.
 HarFok:  IExCor= 4639 AccDes= 0.00D+00 IRadAn=         5 IDoV= 1 UseB2=F ITyADJ=14
 ICtDFT=  3500011 ScaDFX=  1.000000  1.000000  1.000000  1.000000
 FoFCou: FMM=F IPFlag=           0 FMFlag=      100000 FMFlg1=           0
         NFxFlg=           0 DoJE=T BraDBF=F KetDBF=T FulRan=T
         wScrn=  0.000000 ICntrl=       500 IOpCl=  0 I1Cent=   200000004 NGrid=           0
         NMat0=    1 NMatS0=      1 NMatT0=    0 NMatD0=    1 NMtDS0=    0 NMtDT0=    0
 Symmetry not used in FoFCou.
 Harris En= -2970.61794129540    
 JPrj=0 DoOrth=F DoCkMO=F.
 Leave Link  401 at Wed May  1 15:10:03 2024, MaxMem=  1207959552 cpu:              29.6 elap:              29.6
 (Enter /software/gaussian/g16-c01/sse4/g16/l502.exe)
 Two-electron integral symmetry not used.
 Closed shell SCF:
 Using DIIS extrapolation, IDIIS=  1040.
 NGot=  1207959552 LenX=  1207804877 LenY=  1207729907
 Requested convergence on RMS density matrix=1.00D-08 within 128 cycles.
 Requested convergence on MAX density matrix=1.00D-06.
 Requested convergence on             energy=1.00D-06.
 No special actions if energy rises.
 Fock matrices will be formed incrementally for  20 cycles.

 Cycle   1  Pass 1  IDiag  1:
 FoFJK:  IHMeth= 1 ICntrl=       0 DoSepK=T KAlg= 0 I1Cent=           0 FoldK=F
 IRaf=         1 NMat=       1 IRICut=       1 DoRegI=T DoRafI=F ISym2E= 0 IDoP0=0 IntGTp=1.
 FoFCou: FMM=F IPFlag=           0 FMFlag=      100000 FMFlg1=           0
         NFxFlg=           0 DoJE=T BraDBF=F KetDBF=F FulRan=T
         wScrn=  0.000000 ICntrl=       500 IOpCl=  0 I1Cent=           0 NGrid=           0
         NMat0=    1 NMatS0=      1 NMatT0=    0 NMatD0=    1 NMtDS0=    0 NMtDT0=    0
 Symmetry not used in FoFCou.
 E= -3009.68865632204    
 DIIS: error= 3.21D-01 at cycle   1 NSaved=   1.
 NSaved= 1 IEnMin= 1 EnMin= -3009.68865632204     IErMin= 1 ErrMin= 3.21D-01
 ErrMax= 3.21D-01  0.00D+00 EMaxC= 1.00D-01 BMatC= 1.20D+01 BMatP= 1.20D+01
 IDIUse=3 WtCom= 0.00D+00 WtEn= 1.00D+00
 Coeff-Com:  0.100D+01
 Coeff-En:   0.100D+01
 Coeff:      0.100D+01
 Gap=     0.329 Goal=   None    Shift=    0.000
 GapD=    0.329 DampG=1.000 DampE=0.250 DampFc=0.2500 IDamp=-1.
 Damping current iteration by 2.50D-01
 RMSDP=1.16D-01 MaxDP=1.61D+01              OVMax= 2.54D-01

 Cycle   2  Pass 1  IDiag  1:
 RMSU=  6.52D-03    CP:  8.30D-01
 E= -3009.99059847204     Delta-E=       -0.301942149995 Rises=F Damp=T
 DIIS: error= 2.25D-01 at cycle   2 NSaved=   2.
 NSaved= 2 IEnMin= 2 EnMin= -3009.99059847204     IErMin= 2 ErrMin= 2.25D-01
 ErrMax= 2.25D-01  0.00D+00 EMaxC= 1.00D-01 BMatC= 5.46D+00 BMatP= 1.20D+01
 IDIUse=3 WtCom= 0.00D+00 WtEn= 1.00D+00
 Coeff-Com: -0.181D+01 0.281D+01
 Coeff-En:   0.000D+00 0.100D+01
 Coeff:      0.000D+00 0.100D+01
 Gap=     0.291 Goal=   None    Shift=    0.000
 RMSDP=8.72D-02 MaxDP=1.21D+01 DE=-3.02D-01 OVMax= 6.21D-02

 Cycle   3  Pass 1  IDiag  1:
 RMSU=  5.35D-03    CP:  3.15D-01  3.00D+00
 E= -3010.38062689743     Delta-E=       -0.390028425390 Rises=F Damp=F
 DIIS: error= 6.66D-02 at cycle   3 NSaved=   3.
 NSaved= 3 IEnMin= 3 EnMin= -3010.38062689743     IErMin= 3 ErrMin= 6.66D-02
 ErrMax= 6.66D-02  0.00D+00 EMaxC= 1.00D-01 BMatC= 7.70D-01 BMatP= 5.46D+00
 IDIUse=3 WtCom= 3.34D-01 WtEn= 6.66D-01
 Coeff-Com:  0.268D+01-0.353D+01 0.184D+01
 Coeff-En:   0.494D-01 0.000D+00 0.951D+00
 Coeff:      0.929D+00-0.118D+01 0.125D+01
 Gap=     0.277 Goal=   None    Shift=    0.000
 RMSDP=8.74D-03 MaxDP=6.47D-01 DE=-3.90D-01 OVMax= 9.64D-02

 Cycle   4  Pass 1  IDiag  1:
 RMSU=  6.95D-03    CP:  3.43D-01  2.93D+00  1.28D+00
 E= -3010.49918492811     Delta-E=       -0.118558030683 Rises=F Damp=F
 DIIS: error= 3.72D-02 at cycle   4 NSaved=   4.
 NSaved= 4 IEnMin= 4 EnMin= -3010.49918492811     IErMin= 4 ErrMin= 3.72D-02
 ErrMax= 3.72D-02  0.00D+00 EMaxC= 1.00D-01 BMatC= 2.23D-01 BMatP= 7.70D-01
 IDIUse=3 WtCom= 6.28D-01 WtEn= 3.72D-01
 Coeff-Com: -0.275D+00 0.380D+00 0.211D+00 0.685D+00
 Coeff-En:   0.000D+00 0.000D+00 0.183D+00 0.817D+00
 Coeff:     -0.173D+00 0.239D+00 0.200D+00 0.734D+00
 Gap=     0.253 Goal=   None    Shift=    0.000
 RMSDP=5.78D-03 MaxDP=7.59D-01 DE=-1.19D-01 OVMax= 4.05D-02

 Cycle   5  Pass 1  IDiag  1:
 RMSU=  1.80D-03    CP:  3.12D-01  3.00D+00  1.23D+00  7.76D-01
 E= -3010.54523610405     Delta-E=       -0.046051175941 Rises=F Damp=F
 DIIS: error= 6.96D-03 at cycle   5 NSaved=   5.
 NSaved= 5 IEnMin= 5 EnMin= -3010.54523610405     IErMin= 5 ErrMin= 6.96D-03
 ErrMax= 6.96D-03  0.00D+00 EMaxC= 1.00D-01 BMatC= 7.73D-03 BMatP= 2.23D-01
 IDIUse=3 WtCom= 9.30D-01 WtEn= 6.96D-02
 Coeff-Com: -0.167D+00 0.226D+00 0.178D-01 0.330D+00 0.594D+00
 Coeff-En:   0.000D+00 0.000D+00 0.000D+00 0.000D+00 0.100D+01
 Coeff:     -0.156D+00 0.210D+00 0.165D-01 0.307D+00 0.622D+00
 Gap=     0.240 Goal=   None    Shift=    0.000
 RMSDP=5.98D-04 MaxDP=3.89D-02 DE=-4.61D-02 OVMax= 1.28D-02

 Cycle   6  Pass 1  IDiag  1:
 RMSU=  4.20D-04    CP:  3.11D-01  3.00D+00  1.25D+00  8.06D-01  8.59D-01
 E= -3010.54696658344     Delta-E=       -0.001730479391 Rises=F Damp=F
 DIIS: error= 4.46D-04 at cycle   6 NSaved=   6.
 NSaved= 6 IEnMin= 6 EnMin= -3010.54696658344     IErMin= 6 ErrMin= 4.46D-04
 ErrMax= 4.46D-04  0.00D+00 EMaxC= 1.00D-01 BMatC= 6.82D-05 BMatP= 7.73D-03
 IDIUse=3 WtCom= 9.96D-01 WtEn= 4.46D-03
 Coeff-Com: -0.783D-01 0.105D+00-0.159D-01 0.104D+00 0.262D+00 0.623D+00
 Coeff-En:   0.000D+00 0.000D+00 0.000D+00 0.000D+00 0.000D+00 0.100D+01
 Coeff:     -0.779D-01 0.104D+00-0.159D-01 0.104D+00 0.261D+00 0.625D+00
 Gap=     0.241 Goal=   None    Shift=    0.000
 RMSDP=2.08D-04 MaxDP=2.42D-02 DE=-1.73D-03 OVMax= 4.25D-03

 Cycle   7  Pass 1  IDiag  1:
 RMSU=  1.15D-04    CP:  3.10D-01  3.00D+00  1.25D+00  8.08D-01  9.33D-01
                    CP:  1.00D+00
 E= -3010.54704319487     Delta-E=       -0.000076611428 Rises=F Damp=F
 DIIS: error= 3.27D-04 at cycle   7 NSaved=   7.
 NSaved= 7 IEnMin= 7 EnMin= -3010.54704319487     IErMin= 7 ErrMin= 3.27D-04
 ErrMax= 3.27D-04  0.00D+00 EMaxC= 1.00D-01 BMatC= 1.62D-05 BMatP= 6.82D-05
 IDIUse=3 WtCom= 9.97D-01 WtEn= 3.27D-03
 Coeff-Com: -0.253D-01 0.336D-01-0.127D-01 0.176D-01 0.586D-01 0.323D+00
 Coeff-Com:  0.605D+00
 Coeff-En:   0.000D+00 0.000D+00 0.000D+00 0.000D+00 0.000D+00 0.000D+00
 Coeff-En:   0.100D+01
 Coeff:     -0.252D-01 0.335D-01-0.126D-01 0.176D-01 0.584D-01 0.322D+00
 Coeff:      0.606D+00
 Gap=     0.241 Goal=   None    Shift=    0.000
 RMSDP=9.68D-05 MaxDP=8.60D-03 DE=-7.66D-05 OVMax= 2.41D-03

 Cycle   8  Pass 1  IDiag  1:
 RMSU=  5.27D-05    CP:  3.10D-01  3.00D+00  1.25D+00  8.11D-01  9.54D-01
                    CP:  1.14D+00  1.22D+00
 E= -3010.54706376888     Delta-E=       -0.000020574012 Rises=F Damp=F
 DIIS: error= 2.33D-04 at cycle   8 NSaved=   8.
 NSaved= 8 IEnMin= 8 EnMin= -3010.54706376888     IErMin= 8 ErrMin= 2.33D-04
 ErrMax= 2.33D-04  0.00D+00 EMaxC= 1.00D-01 BMatC= 5.09D-06 BMatP= 1.62D-05
 IDIUse=3 WtCom= 9.98D-01 WtEn= 2.33D-03
 Coeff-Com:  0.939D-02-0.128D-01-0.319D-02-0.228D-01-0.527D-01-0.150D-01
 Coeff-Com:  0.397D+00 0.700D+00
 Coeff-En:   0.000D+00 0.000D+00 0.000D+00 0.000D+00 0.000D+00 0.000D+00
 Coeff-En:   0.000D+00 0.100D+01
 Coeff:      0.937D-02-0.128D-01-0.319D-02-0.228D-01-0.525D-01-0.150D-01
 Coeff:      0.396D+00 0.701D+00
 Gap=     0.241 Goal=   None    Shift=    0.000
 RMSDP=8.50D-05 MaxDP=7.42D-03 DE=-2.06D-05 OVMax= 2.40D-03

 Cycle   9  Pass 1  IDiag  1:
 RMSU=  2.80D-05    CP:  3.10D-01  3.00D+00  1.26D+00  8.11D-01  9.65D-01
                    CP:  1.27D+00  1.66D+00  1.21D+00
 E= -3010.54707530716     Delta-E=       -0.000011538277 Rises=F Damp=F
 DIIS: error= 4.51D-05 at cycle   9 NSaved=   9.
 NSaved= 9 IEnMin= 9 EnMin= -3010.54707530716     IErMin= 9 ErrMin= 4.51D-05
 ErrMax= 4.51D-05  0.00D+00 EMaxC= 1.00D-01 BMatC= 6.33D-07 BMatP= 5.09D-06
 IDIUse=1 WtCom= 1.00D+00 WtEn= 0.00D+00
 Coeff-Com:  0.797D-02-0.107D-01 0.155D-02-0.112D-01-0.283D-01-0.765D-01
 Coeff-Com: -0.328D-01 0.239D+00 0.911D+00
 Coeff:      0.797D-02-0.107D-01 0.155D-02-0.112D-01-0.283D-01-0.765D-01
 Coeff:     -0.328D-01 0.239D+00 0.911D+00
 Gap=     0.241 Goal=   None    Shift=    0.000
 RMSDP=3.74D-05 MaxDP=2.94D-03 DE=-1.15D-05 OVMax= 2.04D-03

 Cycle  10  Pass 1  IDiag  1:
 RMSU=  1.53D-05    CP:  3.10D-01  3.00D+00  1.26D+00  8.11D-01  9.73D-01
                    CP:  1.33D+00  1.77D+00  1.41D+00  1.28D+00
 E= -3010.54707872484     Delta-E=       -0.000003417679 Rises=F Damp=F
 DIIS: error= 1.74D-05 at cycle  10 NSaved=  10.
 NSaved=10 IEnMin=10 EnMin= -3010.54707872484     IErMin=10 ErrMin= 1.74D-05
 ErrMax= 1.74D-05  0.00D+00 EMaxC= 1.00D-01 BMatC= 1.46D-07 BMatP= 6.33D-07
 IDIUse=1 WtCom= 1.00D+00 WtEn= 0.00D+00
 Coeff-Com: -0.711D-03 0.101D-02 0.583D-03 0.185D-02 0.521D-02-0.896D-02
 Coeff-Com: -0.818D-01-0.719D-01 0.231D+00 0.923D+00
 Coeff:     -0.711D-03 0.101D-02 0.583D-03 0.185D-02 0.521D-02-0.896D-02
 Coeff:     -0.818D-01-0.719D-01 0.231D+00 0.923D+00
 Gap=     0.241 Goal=   None    Shift=    0.000
 RMSDP=2.46D-05 MaxDP=2.63D-03 DE=-3.42D-06 OVMax= 1.08D-03

 Cycle  11  Pass 1  IDiag  1:
 RMSU=  6.82D-06    CP:  3.10D-01  3.00D+00  1.26D+00  8.11D-01  9.72D-01
                    CP:  1.34D+00  1.78D+00  1.45D+00  1.56D+00  1.48D+00
 E= -3010.54707954466     Delta-E=       -0.000000819823 Rises=F Damp=F
 DIIS: error= 9.01D-06 at cycle  11 NSaved=  11.
 NSaved=11 IEnMin=11 EnMin= -3010.54707954466     IErMin=11 ErrMin= 9.01D-06
 ErrMax= 9.01D-06  0.00D+00 EMaxC= 1.00D-01 BMatC= 2.71D-08 BMatP= 1.46D-07
 IDIUse=1 WtCom= 1.00D+00 WtEn= 0.00D+00
 Coeff-Com: -0.123D-02 0.164D-02-0.146D-03 0.243D-02 0.700D-02 0.217D-01
 Coeff-Com:  0.114D-01-0.717D-01-0.268D+00 0.412D-01 0.126D+01
 Coeff:     -0.123D-02 0.164D-02-0.146D-03 0.243D-02 0.700D-02 0.217D-01
 Coeff:      0.114D-01-0.717D-01-0.268D+00 0.412D-01 0.126D+01
 Gap=     0.241 Goal=   None    Shift=    0.000
 RMSDP=1.47D-05 MaxDP=1.49D-03 DE=-8.20D-07 OVMax= 8.83D-04

 Cycle  12  Pass 1  IDiag  1:
 RMSU=  3.03D-06    CP:  3.10D-01  3.00D+00  1.26D+00  8.11D-01  9.73D-01
                    CP:  1.35D+00  1.76D+00  1.46D+00  1.75D+00  1.93D+00
                    CP:  1.44D+00
 E= -3010.54707982180     Delta-E=       -0.000000277133 Rises=F Damp=F
 DIIS: error= 3.71D-06 at cycle  12 NSaved=  12.
 NSaved=12 IEnMin=12 EnMin= -3010.54707982180     IErMin=12 ErrMin= 3.71D-06
 ErrMax= 3.71D-06  0.00D+00 EMaxC= 1.00D-01 BMatC= 8.08D-09 BMatP= 2.71D-08
 IDIUse=1 WtCom= 1.00D+00 WtEn= 0.00D+00
 Coeff-Com: -0.452D-03 0.596D-03-0.124D-03 0.798D-03 0.175D-02 0.949D-02
 Coeff-Com:  0.151D-01-0.208D-01-0.145D+00-0.104D+00 0.570D+00 0.672D+00
 Coeff:     -0.452D-03 0.596D-03-0.124D-03 0.798D-03 0.175D-02 0.949D-02
 Coeff:      0.151D-01-0.208D-01-0.145D+00-0.104D+00 0.570D+00 0.672D+00
 Gap=     0.241 Goal=   None    Shift=    0.000
 RMSDP=2.71D-06 MaxDP=2.75D-04 DE=-2.77D-07 OVMax= 1.96D-04

 Cycle  13  Pass 1  IDiag  1:
 RMSU=  1.70D-06    CP:  3.10D-01  3.00D+00  1.26D+00  8.11D-01  9.73D-01
                    CP:  1.35D+00  1.76D+00  1.46D+00  1.76D+00  1.99D+00
                    CP:  1.59D+00  1.09D+00
 E= -3010.54707984576     Delta-E=       -0.000000023967 Rises=F Damp=F
 DIIS: error= 1.85D-06 at cycle  13 NSaved=  13.
 NSaved=13 IEnMin=13 EnMin= -3010.54707984576     IErMin=13 ErrMin= 1.85D-06
 ErrMax= 1.85D-06  0.00D+00 EMaxC= 1.00D-01 BMatC= 9.38D-10 BMatP= 8.08D-09
 IDIUse=1 WtCom= 1.00D+00 WtEn= 0.00D+00
 Coeff-Com:  0.560D-04-0.743D-04-0.182D-04-0.338D-03-0.157D-02-0.415D-02
 Coeff-Com: -0.110D-02 0.130D-01 0.455D-01-0.324D-01-0.214D+00 0.875D-01
 Coeff-Com:  0.111D+01
 Coeff:      0.560D-04-0.743D-04-0.182D-04-0.338D-03-0.157D-02-0.415D-02
 Coeff:     -0.110D-02 0.130D-01 0.455D-01-0.324D-01-0.214D+00 0.875D-01
 Coeff:      0.111D+01
 Gap=     0.241 Goal=   None    Shift=    0.000
 RMSDP=1.52D-06 MaxDP=5.33D-05 DE=-2.40D-08 OVMax= 1.15D-04

 Cycle  14  Pass 1  IDiag  1:
 RMSU=  4.57D-07    CP:  3.10D-01  3.00D+00  1.26D+00  8.11D-01  9.73D-01
                    CP:  1.35D+00  1.76D+00  1.46D+00  1.76D+00  2.01D+00
                    CP:  1.65D+00  1.38D+00  1.36D+00
 E= -3010.54707985157     Delta-E=       -0.000000005811 Rises=F Damp=F
 DIIS: error= 8.93D-07 at cycle  14 NSaved=  14.
 NSaved=14 IEnMin=14 EnMin= -3010.54707985157     IErMin=14 ErrMin= 8.93D-07
 ErrMax= 8.93D-07  0.00D+00 EMaxC= 1.00D-01 BMatC= 1.24D-10 BMatP= 9.38D-10
 IDIUse=1 WtCom= 1.00D+00 WtEn= 0.00D+00
 Coeff-Com:  0.671D-04-0.891D-04 0.542D-05-0.161D-03-0.430D-03-0.167D-02
 Coeff-Com: -0.169D-02 0.499D-02 0.260D-01 0.353D-02-0.113D+00-0.635D-01
 Coeff-Com:  0.289D+00 0.857D+00
 Coeff:      0.671D-04-0.891D-04 0.542D-05-0.161D-03-0.430D-03-0.167D-02
 Coeff:     -0.169D-02 0.499D-02 0.260D-01 0.353D-02-0.113D+00-0.635D-01
 Coeff:      0.289D+00 0.857D+00
 Gap=     0.241 Goal=   None    Shift=    0.000
 RMSDP=5.12D-07 MaxDP=3.68D-05 DE=-5.81D-09 OVMax= 2.07D-05

 Cycle  15  Pass 1  IDiag  1:
 RMSU=  2.19D-07    CP:  3.10D-01  3.00D+00  1.26D+00  8.11D-01  9.73D-01
                    CP:  1.35D+00  1.76D+00  1.46D+00  1.76D+00  2.00D+00
                    CP:  1.64D+00  1.46D+00  1.54D+00  1.24D+00
 E= -3010.54707985206     Delta-E=       -0.000000000490 Rises=F Damp=F
 DIIS: error= 3.32D-07 at cycle  15 NSaved=  15.
 NSaved=15 IEnMin=15 EnMin= -3010.54707985206     IErMin=15 ErrMin= 3.32D-07
 ErrMax= 3.32D-07  0.00D+00 EMaxC= 1.00D-01 BMatC= 3.00D-11 BMatP= 1.24D-10
 IDIUse=1 WtCom= 1.00D+00 WtEn= 0.00D+00
 Coeff-Com:  0.213D-04-0.285D-04 0.465D-05-0.594D-05 0.142D-03 0.199D-03
 Coeff-Com: -0.396D-03-0.588D-03 0.168D-02 0.711D-02-0.722D-02-0.409D-01
 Coeff-Com: -0.653D-01 0.356D+00 0.749D+00
 Coeff:      0.213D-04-0.285D-04 0.465D-05-0.594D-05 0.142D-03 0.199D-03
 Coeff:     -0.396D-03-0.588D-03 0.168D-02 0.711D-02-0.722D-02-0.409D-01
 Coeff:     -0.653D-01 0.356D+00 0.749D+00
 Gap=     0.241 Goal=   None    Shift=    0.000
 RMSDP=1.67D-07 MaxDP=1.04D-05 DE=-4.90D-10 OVMax= 7.10D-06

 Cycle  16  Pass 1  IDiag  1:
 RMSU=  6.91D-08    CP:  3.10D-01  3.00D+00  1.26D+00  8.11D-01  9.73D-01
                    CP:  1.35D+00  1.76D+00  1.46D+00  1.76D+00  2.00D+00
                    CP:  1.64D+00  1.47D+00  1.58D+00  1.43D+00  1.08D+00
 E= -3010.54707985213     Delta-E=       -0.000000000069 Rises=F Damp=F
 DIIS: error= 1.24D-07 at cycle  16 NSaved=  16.
 NSaved=16 IEnMin=16 EnMin= -3010.54707985213     IErMin=16 ErrMin= 1.24D-07
 ErrMax= 1.24D-07  0.00D+00 EMaxC= 1.00D-01 BMatC= 2.34D-12 BMatP= 3.00D-11
 IDIUse=1 WtCom= 1.00D+00 WtEn= 0.00D+00
 Coeff-Com: -0.842D-06 0.107D-05 0.109D-05 0.163D-04 0.868D-04 0.275D-03
 Coeff-Com:  0.943D-04-0.906D-03-0.299D-02 0.227D-02 0.127D-01-0.358D-02
 Coeff-Com: -0.592D-01-0.301D-01 0.155D+00 0.927D+00
 Coeff:     -0.842D-06 0.107D-05 0.109D-05 0.163D-04 0.868D-04 0.275D-03
 Coeff:      0.943D-04-0.906D-03-0.299D-02 0.227D-02 0.127D-01-0.358D-02
 Coeff:     -0.592D-01-0.301D-01 0.155D+00 0.927D+00
 Gap=     0.241 Goal=   None    Shift=    0.000
 RMSDP=8.11D-08 MaxDP=4.19D-06 DE=-6.87D-11 OVMax= 3.25D-06

 Cycle  17  Pass 1  IDiag  1:
 RMSU=  2.23D-08    CP:  3.10D-01  3.00D+00  1.26D+00  8.11D-01  9.73D-01
                    CP:  1.35D+00  1.76D+00  1.46D+00  1.76D+00  2.00D+00
                    CP:  1.63D+00  1.48D+00  1.60D+00  1.50D+00  1.27D+00
                    CP:  1.17D+00
 E= -3010.54707985217     Delta-E=       -0.000000000033 Rises=F Damp=F
 DIIS: error= 5.04D-08 at cycle  17 NSaved=  17.
 NSaved=17 IEnMin=17 EnMin= -3010.54707985217     IErMin=17 ErrMin= 5.04D-08
 ErrMax= 5.04D-08  0.00D+00 EMaxC= 1.00D-01 BMatC= 3.26D-13 BMatP= 2.34D-12
 IDIUse=1 WtCom= 1.00D+00 WtEn= 0.00D+00
 Coeff-Com: -0.225D-05 0.300D-05-0.229D-06 0.325D-05 0.712D-06 0.354D-04
 Coeff-Com:  0.745D-04-0.970D-04-0.714D-03-0.184D-03 0.286D-02 0.357D-02
 Coeff-Com: -0.432D-02-0.395D-01-0.620D-01 0.213D+00 0.887D+00
 Coeff:     -0.225D-05 0.300D-05-0.229D-06 0.325D-05 0.712D-06 0.354D-04
 Coeff:      0.745D-04-0.970D-04-0.714D-03-0.184D-03 0.286D-02 0.357D-02
 Coeff:     -0.432D-02-0.395D-01-0.620D-01 0.213D+00 0.887D+00
 Gap=     0.241 Goal=   None    Shift=    0.000
 RMSDP=2.79D-08 MaxDP=2.44D-06 DE=-3.32D-11 OVMax= 9.33D-07

 Cycle  18  Pass 1  IDiag  1:
 RMSU=  7.32D-09    CP:  3.10D-01  3.00D+00  1.26D+00  8.11D-01  9.73D-01
                    CP:  1.35D+00  1.76D+00  1.46D+00  1.76D+00  2.00D+00
                    CP:  1.63D+00  1.48D+00  1.60D+00  1.51D+00  1.33D+00
                    CP:  1.31D+00  1.30D+00
 E= -3010.54707985212     Delta-E=        0.000000000049 Rises=F Damp=F
 DIIS: error= 1.16D-08 at cycle  18 NSaved=  18.
 NSaved=18 IEnMin=17 EnMin= -3010.54707985217     IErMin=18 ErrMin= 1.16D-08
 ErrMax= 1.16D-08  0.00D+00 EMaxC= 1.00D-01 BMatC= 7.88D-14 BMatP= 3.26D-13
 IDIUse=1 WtCom= 1.00D+00 WtEn= 0.00D+00
 Coeff-Com:  0.188D-07-0.251D-07-0.113D-06-0.218D-05-0.152D-04-0.326D-04
 Coeff-Com:  0.179D-04 0.105D-03 0.194D-03-0.460D-03-0.926D-03 0.219D-02
 Coeff-Com:  0.796D-02-0.880D-02-0.531D-01-0.783D-01 0.338D+00 0.793D+00
 Coeff:      0.188D-07-0.251D-07-0.113D-06-0.218D-05-0.152D-04-0.326D-04
 Coeff:      0.179D-04 0.105D-03 0.194D-03-0.460D-03-0.926D-03 0.219D-02
 Coeff:      0.796D-02-0.880D-02-0.531D-01-0.783D-01 0.338D+00 0.793D+00
 Gap=     0.241 Goal=   None    Shift=    0.000
 RMSDP=9.60D-09 MaxDP=5.14D-07 DE= 4.91D-11 OVMax= 2.41D-07

 SCF Done:  E(RwB97XD) =  -3010.54707985     A.U. after   18 cycles
            NFock= 18  Conv=0.96D-08     -V/T= 2.0016
 KE= 3.005823383625D+03 PE=-8.629402714019D+03 EE= 1.875915640344D+03
 Leave Link  502 at Wed May  1 15:27:00 2024, MaxMem=  1207959552 cpu:            1016.5 elap:            1016.7
 (Enter /software/gaussian/g16-c01/sse4/g16/l601.exe)
 Copying SCF densities to generalized density rwf, IOpCl= 0 IROHF=0.

 **********************************************************************

            Population analysis using the SCF Density.

 **********************************************************************

 Alpha  occ. eigenvalues -- -483.28475 -62.83452 -56.63195 -56.62553 -56.62552
 Alpha  occ. eigenvalues --  -19.45003 -19.44945 -14.84500 -10.56818 -10.56334
 Alpha  occ. eigenvalues --  -10.56175 -10.55946 -10.55764 -10.52054  -8.99223
 Alpha  occ. eigenvalues --   -6.82033  -6.79948  -6.79937  -2.91905  -2.91353
 Alpha  occ. eigenvalues --   -2.91343  -2.89677  -2.89677  -1.48764  -1.31744
 Alpha  occ. eigenvalues --   -1.21500  -1.12686  -1.10628  -1.02014  -1.00075
 Alpha  occ. eigenvalues --   -0.94256  -0.89932  -0.84381  -0.79878  -0.79619
 Alpha  occ. eigenvalues --   -0.79057  -0.77417  -0.75184  -0.74938  -0.70785
 Alpha  occ. eigenvalues --   -0.68289  -0.66548  -0.61982  -0.58651  -0.56186
 Alpha  occ. eigenvalues --   -0.55285  -0.54743  -0.53014  -0.52350
 Alpha virt. eigenvalues --   -0.28241  -0.20463  -0.14423  -0.13070  -0.11000
 Alpha virt. eigenvalues --   -0.09065  -0.08569  -0.06086  -0.04862  -0.04320
 Alpha virt. eigenvalues --   -0.02506  -0.01277  -0.00447   0.00805   0.01189
 Alpha virt. eigenvalues --    0.01747   0.02758   0.03802   0.03998   0.04840
 Alpha virt. eigenvalues --    0.05506   0.06192   0.06761   0.07100   0.07526
 Alpha virt. eigenvalues --    0.08280   0.08714   0.09355   0.10494   0.11218
 Alpha virt. eigenvalues --    0.11665   0.12027   0.12605   0.13160   0.13416
 Alpha virt. eigenvalues --    0.14374   0.15663   0.15797   0.16390   0.16608
 Alpha virt. eigenvalues --    0.17466   0.18255   0.18633   0.19062   0.19926
 Alpha virt. eigenvalues --    0.20643   0.22181   0.22466   0.23135   0.25947
 Alpha virt. eigenvalues --    0.26133   0.28627   0.29468   0.31692   0.34257
 Alpha virt. eigenvalues --    0.34770   0.35048   0.35822   0.37642   0.37870
 Alpha virt. eigenvalues --    0.39022   0.39203   0.40734   0.41482   0.43446
 Alpha virt. eigenvalues --    0.44108   0.44876   0.45254   0.46861   0.48352
 Alpha virt. eigenvalues --    0.48915   0.51457   0.52345   0.53502   0.54238
 Alpha virt. eigenvalues --    0.55316   0.56471   0.57200   0.58283   0.60336
 Alpha virt. eigenvalues --    0.62287   0.63340   0.65444   0.68257   0.69794
 Alpha virt. eigenvalues --    0.71032   0.73134   0.73488   0.74317   0.75083
 Alpha virt. eigenvalues --    0.75926   0.80108   0.80879   0.85342   0.86199
 Alpha virt. eigenvalues --    0.87839   0.88979   0.92619   0.94343   0.99621
 Alpha virt. eigenvalues --    1.00546   1.02038   1.05683   1.06205   1.07535
 Alpha virt. eigenvalues --    1.10438   1.11611   1.12989   1.13416   1.15073
 Alpha virt. eigenvalues --    1.22848   1.25290   1.27529   1.33883   1.37369
 Alpha virt. eigenvalues --    1.37723   1.39047   1.46372   1.55274   1.57991
 Alpha virt. eigenvalues --    1.59386   1.59691   1.61485   1.63264   1.67313
 Alpha virt. eigenvalues --    1.70008   1.70793   1.74435   1.76115   1.79945
 Alpha virt. eigenvalues --    1.81979   1.86284   1.88381   1.96120   1.98267
 Alpha virt. eigenvalues --    1.99803   2.03816   2.04864   2.08359   2.09386
 Alpha virt. eigenvalues --    2.11055   2.15754   2.21204   2.23469   2.30068
 Alpha virt. eigenvalues --    2.38306   2.41987   2.43140   2.44298   2.53357
 Alpha virt. eigenvalues --    2.57429   2.63889   2.66969   2.69058   2.72567
 Alpha virt. eigenvalues --    2.74237   2.77357   2.78196   2.81910   2.82807
 Alpha virt. eigenvalues --    2.94611   2.97302   3.01490   3.06555   3.09887
 Alpha virt. eigenvalues --    3.13804   3.15823   3.19875   3.24543   3.25116
 Alpha virt. eigenvalues --    3.28194   3.39972   3.48469   3.52108   3.55372
 Alpha virt. eigenvalues --    3.57727   3.70783   3.74973   3.83100   3.88148
 Alpha virt. eigenvalues --    4.12018   4.12228   4.19455   4.24722   4.45184
 Alpha virt. eigenvalues --    4.45472   4.58452   4.60770   4.94038   4.96699
 Alpha virt. eigenvalues --    5.05351   5.09519   5.63678   6.16606   6.67585
 Alpha virt. eigenvalues --    7.50741   7.52291   7.61900  23.22305  23.62206
 Alpha virt. eigenvalues --   23.70908  23.80508  23.96924  24.02329  35.33458
 Alpha virt. eigenvalues --   47.94015  49.86414  49.95224 289.83298 289.84965
 Alpha virt. eigenvalues --  289.973661020.94368
          Condensed to atoms (all electrons):
               1          2          3          4          5          6
     1  C    8.873362  -1.878818  -0.319764  -1.246506  -0.688938   0.305690
     2  C   -1.878818  12.988261  -1.329857  -3.926856   0.648796  -0.018526
     3  C   -0.319764  -1.329857  13.681183  -3.886949  -0.902972   0.031635
     4  C   -1.246506  -3.926856  -3.886949  17.456226   0.849118   0.003147
     5  C   -0.688938   0.648796  -0.902972   0.849118   7.740420   0.012774
     6  H    0.305690  -0.018526   0.031635   0.003147   0.012774   0.339684
     7  H    0.064696   0.228245   0.079240  -0.031071  -0.023635  -0.001672
     8  H    0.006332  -0.009023   0.078966   0.215824  -0.022998   0.000003
     9  H    0.037851  -0.024424   0.002980  -0.005869   0.293478  -0.002352
    10  N   -0.114717   0.356608  -1.003106   0.304480  -0.005918  -0.000726
    11  O    0.021800  -0.026582  -0.237255  -0.094808  -0.058957  -0.000023
    12  O    0.302300  -0.133729  -0.257101   0.011985  -0.046342   0.000079
    13  C    1.174510  -1.340687   0.710347  -3.875550  -1.739138  -0.000255
    14  H   -0.028532   0.004975  -0.001376   0.001392   0.020560  -0.000031
    15  Br   0.036946   0.015568   0.046353  -0.033147  -0.017158  -0.000059
               7          8          9         10         11         12
     1  C    0.064696   0.006332   0.037851  -0.114717   0.021800   0.302300
     2  C    0.228245  -0.009023  -0.024424   0.356608  -0.026582  -0.133729
     3  C    0.079240   0.078966   0.002980  -1.003106  -0.237255  -0.257101
     4  C   -0.031071   0.215824  -0.005869   0.304480  -0.094808   0.011985
     5  C   -0.023635  -0.022998   0.293478  -0.005918  -0.058957  -0.046342
     6  H   -0.001672   0.000003  -0.002352  -0.000726  -0.000023   0.000079
     7  H    0.301538   0.000022   0.000059  -0.026343  -0.001489   0.021756
     8  H    0.000022   0.302890   0.000176  -0.024676   0.023779  -0.000923
     9  H    0.000059   0.000176   0.339141   0.000550  -0.000018   0.000014
    10  N   -0.026343  -0.024676   0.000550   7.411026   0.185122   0.135625
    11  O   -0.001489   0.023779  -0.000018   0.185122   7.844151  -0.005133
    12  O    0.021756  -0.000923   0.000014   0.135625  -0.005133   7.893630
    13  C    0.021035   0.060126   0.016045  -0.107444   0.314444   0.043775
    14  H   -0.000055  -0.007832  -0.009090  -0.001200  -0.000075   0.000003
    15  Br   0.000329   0.006605   0.005425   0.003557   0.001673   0.003130
              13         14         15
     1  C    1.174510  -0.028532   0.036946
     2  C   -1.340687   0.004975   0.015568
     3  C    0.710347  -0.001376   0.046353
     4  C   -3.875550   0.001392  -0.033147
     5  C   -1.739138   0.020560  -0.017158
     6  H   -0.000255  -0.000031  -0.000059
     7  H    0.021035  -0.000055   0.000329
     8  H    0.060126  -0.007832   0.006605
     9  H    0.016045  -0.009090   0.005425
    10  N   -0.107444  -0.001200   0.003557
    11  O    0.314444  -0.000075   0.001673
    12  O    0.043775   0.000003   0.003130
    13  C   10.738668   0.287086   0.153908
    14  H    0.287086   0.450855  -0.055653
    15  Br   0.153908  -0.055653  34.487837
 Mulliken charges:
               1
     1  C   -0.546214
     2  C    0.446049
     3  C   -0.692323
     4  C    0.258584
     5  C   -0.059089
     6  H    0.330634
     7  H    0.367344
     8  H    0.370730
     9  H    0.346035
    10  N   -0.112838
    11  O    0.033370
    12  O    0.030931
    13  C   -0.456872
    14  H    0.338972
    15  Br   0.344686
 Sum of Mulliken charges =   1.00000
 Mulliken charges with hydrogens summed into heavy atoms:
               1
     1  C   -0.215580
     2  C    0.813394
     3  C   -0.692323
     4  C    0.629314
     5  C    0.286946
    10  N   -0.112838
    11  O    0.033370
    12  O    0.030931
    13  C   -0.117900
    15  Br   0.344686
 Electronic spatial extent (au):  <R**2>=           2795.8286
 Charge=              1.0000 electrons
 Dipole moment (field-independent basis, Debye):
    X=             -1.2813    Y=             -1.3028    Z=             -3.2363  Tot=              3.7166
 Quadrupole moment (field-independent basis, Debye-Ang):
   XX=            -71.9087   YY=            -51.0560   ZZ=            -59.4671
   XY=              1.8292   XZ=             -0.3758   YZ=              4.3832
 Traceless Quadrupole moment (field-independent basis, Debye-Ang):
   XX=            -11.0981   YY=              9.7546   ZZ=              1.3435
   XY=              1.8292   XZ=             -0.3758   YZ=              4.3832
 Octapole moment (field-independent basis, Debye-Ang**2):
  XXX=           -302.9543  YYY=             82.6526  ZZZ=             62.9998  XYY=            -77.9842
  XXY=             29.1959  XXZ=             21.4731  XZZ=            -80.3868  YZZ=              9.0577
  YYZ=             15.5576  XYZ=             -5.2543
 Hexadecapole moment (field-independent basis, Debye-Ang**3):
 XXXX=          -2291.5068 YYYY=           -666.9222 ZZZZ=           -318.6799 XXXY=            -66.3339
 XXXZ=            -51.2570 YYYX=            -56.2717 YYYZ=           -138.7973 ZZZX=            -16.1690
 ZZZY=           -115.1146 XXYY=           -456.4666 XXZZ=           -367.1137 YYZZ=           -147.9448
 XXYZ=            -52.0749 YYXZ=             -1.8184 ZZXY=             -4.3448
 N-N= 7.371166101984D+02 E-N=-8.629402715747D+03  KE= 3.005823383625D+03
 No NMR shielding tensors so no spin-rotation constants.
 Leave Link  601 at Wed May  1 15:27:08 2024, MaxMem=  1207959552 cpu:               7.8 elap:               7.9
 (Enter /software/gaussian/g16-c01/sse4/g16/l9999.exe)
 Unable to Open any file for archive entry.
 1\1\GINC-BHX0013\SP\RwB97XD\6-311+G(d)\C6H5Br1N1O2(1+)\BWEIGHT\01-May-
 2024\0\\#P wB97XD/6-311+G* NoSymm #P Field=Z+184\\TitleMe\\1,1\C,0,0.0
 295,1.3397,0.0682\C,0,1.4348,1.2867,0.0064\C,0,2.1118,0.0511,-0.0054\C
 ,0,1.4451,-1.1372,0.0312\C,0,-0.6879,0.1682,0.11\H,0,-0.4713,2.2984,0.
 0781\H,0,2.0273,2.1965,-0.0322\H,0,1.9897,-2.0764,0.0232\H,0,-1.7716,0
 .1804,0.1582\N,0,3.5864,0.051,-0.0675\O,0,4.1471,-1.0597,-0.0881\O,0,4
 .145,1.1639,-0.0901\C,0,-0.0236,-1.1458,0.0835\H,0,-0.4367,-1.8725,0.7
 889\Br,0,-0.5359,-1.8697,-1.7408\\Version=ES64L-G16RevC.01\HF=-3010.54
 70799\RMSD=9.596e-09\Dipole=-2.4106539,0.6355314,-0.127088\Quadrupole=
 -8.251177,7.2522923,0.9988847,1.3599768,-0.279396,3.2588106\PG=C01 [X(
 C6H5Br1N1O2)]\\@
 The archive entry for this job was punched.


 WE SHOULD BE CAREFUL TO GET OUT OF AN EXPERIENCE ONLY THE WISDOM
 THAT IS IN IT -- AND STOP THERE;
 LEST WE BE LIKE THE CAT THAT SITS DOWN ON A HOT STOVE-LID.
 SHE WILL NEVER SIT DOWN ON A HOT STOVE LID AGAIN;
 BUT ALSO SHE WILL NEVER SIT DOWN ON A COLD ONE ANY MORE.

                                                     -- MARK TWAIN
 Job cpu time:       0 days  0 hours 18 minutes  3.7 seconds.
 Elapsed time:       0 days  0 hours 18 minutes  3.9 seconds.
 File lengths (MBytes):  RWF=     40 Int=      0 D2E=      0 Chk=     32 Scr=      1
 Normal termination of Gaussian 16 at Wed May  1 15:27:09 2024.
