 Entering Gaussian System, Link 0=g16
 Initial command:
 /software/gaussian/g16-a03/l1.exe "/local_scratch/6484772/Gau-23826.inp" -scrdir="/local_scratch/6484772/"
 Entering Link 1 = /software/gaussian/g16-a03/l1.exe PID=     23840.
  
 Copyright (c) 1988,1990,1992,1993,1995,1998,2003,2009,2016,
            Gaussian, Inc.  All Rights Reserved.
  
 This is part of the Gaussian(R) 16 program.  It is based on
 the Gaussian(R) 09 system (copyright 2009, Gaussian, Inc.),
 the Gaussian(R) 03 system (copyright 2003, Gaussian, Inc.),
 the Gaussian(R) 98 system (copyright 1998, Gaussian, Inc.),
 the Gaussian(R) 94 system (copyright 1995, Gaussian, Inc.),
 the Gaussian 92(TM) system (copyright 1992, Gaussian, Inc.),
 the Gaussian 90(TM) system (copyright 1990, Gaussian, Inc.),
 the Gaussian 88(TM) system (copyright 1988, Gaussian, Inc.),
 the Gaussian 86(TM) system (copyright 1986, Carnegie Mellon
 University), and the Gaussian 82(TM) system (copyright 1983,
 Carnegie Mellon University). Gaussian is a federally registered
 trademark of Gaussian, Inc.
  
 This software contains proprietary and confidential information,
 including trade secrets, belonging to Gaussian, Inc.
  
 This software is provided under written license and may be
 used, copied, transmitted, or stored only in accord with that
 written license.
  
 The following legend is applicable only to US Government
 contracts under FAR:
  
                    RESTRICTED RIGHTS LEGEND
  
 Use, reproduction and disclosure by the US Government is
 subject to restrictions as set forth in subparagraphs (a)
 and (c) of the Commercial Computer Software - Restricted
 Rights clause in FAR 52.227-19.
  
 Gaussian, Inc.
 340 Quinnipiac St., Bldg. 40, Wallingford CT 06492
  
  
 ---------------------------------------------------------------
 Warning -- This program may not be used in any manner that
 competes with the business of Gaussian, Inc. or will provide
 assistance to any competitor of Gaussian, Inc.  The licensee
 of this program is prohibited from giving any competitor of
 Gaussian, Inc. access to this program.  By using this program,
 the user acknowledges that Gaussian, Inc. is engaged in the
 business of creating and licensing software in the field of
 computational chemistry and represents and warrants to the
 licensee that it is not a competitor of Gaussian, Inc. and that
 it will not use this program in any manner prohibited above.
 ---------------------------------------------------------------
  

 Cite this work as:
 Gaussian 16, Revision A.03,
 M. J. Frisch, G. W. Trucks, H. B. Schlegel, G. E. Scuseria, 
 M. A. Robb, J. R. Cheeseman, G. Scalmani, V. Barone, 
 G. A. Petersson, H. Nakatsuji, X. Li, M. Caricato, A. V. Marenich, 
 J. Bloino, B. G. Janesko, R. Gomperts, B. Mennucci, H. P. Hratchian, 
 J. V. Ortiz, A. F. Izmaylov, J. L. Sonnenberg, D. Williams-Young, 
 F. Ding, F. Lipparini, F. Egidi, J. Goings, B. Peng, A. Petrone, 
 T. Henderson, D. Ranasinghe, V. G. Zakrzewski, J. Gao, N. Rega, 
 G. Zheng, W. Liang, M. Hada, M. Ehara, K. Toyota, R. Fukuda, 
 J. Hasegawa, M. Ishida, T. Nakajima, Y. Honda, O. Kitao, H. Nakai, 
 T. Vreven, K. Throssell, J. A. Montgomery, Jr., J. E. Peralta, 
 F. Ogliaro, M. J. Bearpark, J. J. Heyd, E. N. Brothers, K. N. Kudin, 
 V. N. Staroverov, T. A. Keith, R. Kobayashi, J. Normand, 
 K. Raghavachari, A. P. Rendell, J. C. Burant, S. S. Iyengar, 
 J. Tomasi, M. Cossi, J. M. Millam, M. Klene, C. Adamo, R. Cammi, 
 J. W. Ochterski, R. L. Martin, K. Morokuma, O. Farkas, 
 J. B. Foresman, and D. J. Fox, Gaussian, Inc., Wallingford CT, 2016.
 
 ******************************************
 Gaussian 16:  ES64L-G16RevA.03 25-Dec-2016
                17-Sep-2021 
 ******************************************
 %chk=geometry.chk
 %mem=2GB
 %nprocshared=1
 Will use up to    1 processors via shared memory.
 --------------------------------------------------------------------
 #p B3LYP/6-311+G** #p TD=(singlets,nstates=30)IOp(6/8=3) IOp(9/40=4)
 --------------------------------------------------------------------
 1/38=1,172=1/1;
 2/12=2,17=6,18=5,40=1/2;
 3/5=4,6=6,7=111,11=9,25=1,30=1,74=-5/1,2,3,8;
 4//1;
 5/5=2,38=5/2;
 8/6=1,10=2,108=30/1;
 9/40=4,41=30,42=1,48=1,70=2/14;
 6/7=2,8=3,9=2,10=2/1;
 99/5=1,9=1/99;
 Leave Link    1 at Fri Sep 17 10:51:55 2021, MaxMem=   268435456 cpu:               0.0 elap:               0.1
 (Enter /software/gaussian/g16-a03/l101.exe)
 --------------------------------------------
 Scan Step 41, Bond Length 0.7050000000000001
 --------------------------------------------
 Symbolic Z-matrix:
 Charge =  0 Multiplicity = 1
 C                     0.        0.       -0.52736 
 H                     0.        0.93726  -1.11871 
 H                     0.       -0.93726  -1.11871 
 O                     0.        0.        0.17764 
 
 ITRead=  0  0  0  0
 MicOpt= -1 -1 -1 -1
 NAtoms=      4 NQM=        4 NQMF=       0 NMMI=      0 NMMIF=      0
                NMic=       0 NMicF=      0.
                    Isotopes and Nuclear Properties:
 (Nuclear quadrupole moments (NQMom) in fm**2, nuclear magnetic moments (NMagM)
  in nuclear magnetons)

  Atom         1           2           3           4
 IAtWgt=          12           1           1          16
 AtmWgt=  12.0000000   1.0078250   1.0078250  15.9949146
 NucSpn=           0           1           1           0
 AtZEff=  -0.0000000  -0.0000000  -0.0000000  -0.0000000
 NQMom=    0.0000000   0.0000000   0.0000000   0.0000000
 NMagM=    0.0000000   2.7928460   2.7928460   0.0000000
 AtZNuc=   6.0000000   1.0000000   1.0000000   8.0000000
 Leave Link  101 at Fri Sep 17 10:51:56 2021, MaxMem=   268435456 cpu:               0.1 elap:               0.1
 (Enter /software/gaussian/g16-a03/l202.exe)
                          Input orientation:                          
 ---------------------------------------------------------------------
 Center     Atomic      Atomic             Coordinates (Angstroms)
 Number     Number       Type             X           Y           Z
 ---------------------------------------------------------------------
      1          6           0        0.000000    0.000000   -0.527360
      2          1           0        0.000000    0.937260   -1.118710
      3          1           0        0.000000   -0.937260   -1.118710
      4          8           0        0.000000    0.000000    0.177640
 ---------------------------------------------------------------------
                    Distance matrix (angstroms):
                    1          2          3          4
     1  C    0.000000
     2  H    1.108220   0.000000
     3  H    1.108220   1.874520   0.000000
     4  O    0.705000   1.599681   1.599681   0.000000
 Stoichiometry    CH2O
 Framework group  C2V[C2(CO),SGV(H2)]
 Deg. of freedom     3
 Full point group                 C2V     NOp   4
 Largest Abelian subgroup         C2V     NOp   4
 Largest concise Abelian subgroup C2      NOp   2
                         Standard orientation:                         
 ---------------------------------------------------------------------
 Center     Atomic      Atomic             Coordinates (Angstroms)
 Number     Number       Type             X           Y           Z
 ---------------------------------------------------------------------
      1          6           0        0.000000    0.000000   -0.278581
      2          1           0        0.000000    0.937260   -0.869931
      3          1           0       -0.000000   -0.937260   -0.869931
      4          8           0        0.000000   -0.000000    0.426419
 ---------------------------------------------------------------------
 Rotational constants (GHZ):         285.4183527          95.9692710          71.8203464
 Leave Link  202 at Fri Sep 17 10:51:56 2021, MaxMem=   268435456 cpu:               0.0 elap:               0.0
 (Enter /software/gaussian/g16-a03/l301.exe)
 Standard basis: 6-311+G(d,p) (5D, 7F)
 Ernie: Thresh=  0.10000D-02 Tol=  0.10000D-05 Strict=F.
 There are    29 symmetry adapted cartesian basis functions of A1  symmetry.
 There are     3 symmetry adapted cartesian basis functions of A2  symmetry.
 There are    11 symmetry adapted cartesian basis functions of B1  symmetry.
 There are    15 symmetry adapted cartesian basis functions of B2  symmetry.
 There are    27 symmetry adapted basis functions of A1  symmetry.
 There are     3 symmetry adapted basis functions of A2  symmetry.
 There are    11 symmetry adapted basis functions of B1  symmetry.
 There are    15 symmetry adapted basis functions of B2  symmetry.
    56 basis functions,    88 primitive gaussians,    58 cartesian basis functions
     8 alpha electrons        8 beta electrons
       nuclear repulsion energy        47.3342382640 Hartrees.
 IExCor=  402 DFT=T Ex+Corr=B3LYP ExCW=0 ScaHFX=  0.200000
 ScaDFX=  0.800000  0.720000  1.000000  0.810000 ScalE2=  1.000000  1.000000
 IRadAn=      5 IRanWt=     -1 IRanGd=            0 ICorTp=0 IEmpDi=  4
 NAtoms=    4 NActive=    4 NUniq=    3 SFac= 1.78D+00 NAtFMM=   60 NAOKFM=F Big=F
 Integral buffers will be    131072 words long.
 Regular integral format.
 Two-electron integral symmetry is turned on.
 Leave Link  301 at Fri Sep 17 10:51:56 2021, MaxMem=   268435456 cpu:               0.1 elap:               0.1
 (Enter /software/gaussian/g16-a03/l302.exe)
 NPDir=0 NMtPBC=     1 NCelOv=     1 NCel=       1 NClECP=     1 NCelD=      1
         NCelK=      1 NCelE2=     1 NClLst=     1 CellRange=     0.0.
 One-electron integrals computed using PRISM.
 One-electron integral symmetry used in STVInt
 NBasis=    56 RedAO= T EigKep=  5.58D-04  NBF=    27     3    11    15
 NBsUse=    56 1.00D-06 EigRej= -1.00D+00 NBFU=    27     3    11    15
 Precomputing XC quadrature grid using
 IXCGrd= 4 IRadAn=           5 IRanWt=          -1 IRanGd=           0 AccXCQ= 0.00D+00.
 Generated NRdTot=       0 NPtTot=           0 NUsed=           0 NTot=          32
 NSgBfM=    58    58    58    58    58 MxSgAt=     4 MxSgA2=     4.
 Leave Link  302 at Fri Sep 17 10:51:56 2021, MaxMem=   268435456 cpu:               0.1 elap:               0.1
 (Enter /software/gaussian/g16-a03/l303.exe)
 DipDrv:  MaxL=1.
 Leave Link  303 at Fri Sep 17 10:51:56 2021, MaxMem=   268435456 cpu:               0.0 elap:               0.0
 (Enter /software/gaussian/g16-a03/l308.exe)
 Leave Link  308 at Fri Sep 17 10:51:56 2021, MaxMem=   268435456 cpu:               0.0 elap:               0.0
 (Enter /software/gaussian/g16-a03/l401.exe)
 ExpMin= 4.38D-02 ExpMax= 8.59D+03 ExpMxC= 1.30D+03 IAcc=3 IRadAn=         5 AccDes= 0.00D+00
 Harris functional with IExCor=  402 and IRadAn=       5 diagonalized for initial guess.
 HarFok:  IExCor=  402 AccDes= 0.00D+00 IRadAn=         5 IDoV= 1 UseB2=F ITyADJ=14
 ICtDFT=  3500011 ScaDFX=  1.000000  1.000000  1.000000  1.000000
 FoFCou: FMM=F IPFlag=           0 FMFlag=      100000 FMFlg1=           0
         NFxFlg=           0 DoJE=T BraDBF=F KetDBF=T FulRan=T
         wScrn=  0.000000 ICntrl=       500 IOpCl=  0 I1Cent=   200000004 NGrid=           0
         NMat0=    1 NMatS0=      1 NMatT0=    0 NMatD0=    1 NMtDS0=    0 NMtDT0=    0
 Petite list used in FoFCou.
 Harris En= -113.411426062077    
 JPrj=0 DoOrth=F DoCkMO=F.
 Initial guess orbital symmetries:
       Occupied  (A1) (A1) (A1) (B2) (B1) (A1) (A1) (B2)
       Virtual   (B1) (A1) (A1) (B2) (B1) (A1) (A1) (B2) (B1) (B2)
                 (A1) (A1) (A1) (B1) (B2) (B2) (A1) (A2) (A1) (B1)
                 (B2) (A1) (A1) (B2) (A1) (B1) (A2) (B2) (B1) (A1)
                 (A1) (B2) (B1) (A1) (B2) (A1) (A2) (A1) (B2) (B1)
                 (A1) (B2) (A1) (B1) (B2) (A1) (A1) (A1)
 The electronic state of the initial guess is 1-A1.
 Leave Link  401 at Fri Sep 17 10:51:57 2021, MaxMem=   268435456 cpu:               0.3 elap:               0.3
 (Enter /software/gaussian/g16-a03/l502.exe)
 Keep R1 ints in memory in symmetry-blocked form, NReq=2159909.
 FoFCou: FMM=F IPFlag=           0 FMFlag=           0 FMFlg1=           0
         NFxFlg=           0 DoJE=F BraDBF=F KetDBF=F FulRan=T
         wScrn=  0.000000 ICntrl=       600 IOpCl=  0 I1Cent=           0 NGrid=           0
         NMat0=    1 NMatS0=   1596 NMatT0=    0 NMatD0=    1 NMtDS0=    0 NMtDT0=    0
 Petite list used in FoFCou.
 Closed shell SCF:
 Using DIIS extrapolation, IDIIS=  1040.
 NGot=   268435456 LenX=   268074384 LenY=   268070579
 Requested convergence on RMS density matrix=1.00D-08 within 128 cycles.
 Requested convergence on MAX density matrix=1.00D-06.
 Requested convergence on             energy=1.00D-06.
 No special actions if energy rises.

 Cycle   1  Pass 1  IDiag  1:
 E= -112.785709647916    
 DIIS: error= 1.19D-01 at cycle   1 NSaved=   1.
 NSaved= 1 IEnMin= 1 EnMin= -112.785709647916     IErMin= 1 ErrMin= 1.19D-01
 ErrMax= 1.19D-01  0.00D+00 EMaxC= 1.00D-01 BMatC= 5.84D-01 BMatP= 5.84D-01
 IDIUse=3 WtCom= 0.00D+00 WtEn= 1.00D+00
 Coeff-Com:  0.100D+01
 Coeff-En:   0.100D+01
 Coeff:      0.100D+01
 Gap=     0.114 Goal=   None    Shift=    0.000
 GapD=    0.114 DampG=1.000 DampE=0.250 DampFc=0.2500 IDamp=-1.
 Damping current iteration by 2.50D-01
 RMSDP=2.12D-02 MaxDP=3.42D-01              OVMax= 3.69D-01

 Cycle   2  Pass 1  IDiag  1:
 E= -112.899753107621     Delta-E=       -0.114043459705 Rises=F Damp=T
 DIIS: error= 6.01D-02 at cycle   2 NSaved=   2.
 NSaved= 2 IEnMin= 2 EnMin= -112.899753107621     IErMin= 2 ErrMin= 6.01D-02
 ErrMax= 6.01D-02  0.00D+00 EMaxC= 1.00D-01 BMatC= 1.50D-01 BMatP= 5.84D-01
 IDIUse=3 WtCom= 3.99D-01 WtEn= 6.01D-01
 Coeff-Com: -0.974D+00 0.197D+01
 Coeff-En:   0.000D+00 0.100D+01
 Coeff:     -0.388D+00 0.139D+01
 Gap=     0.201 Goal=   None    Shift=    0.000
 RMSDP=7.07D-03 MaxDP=1.48D-01 DE=-1.14D-01 OVMax= 1.67D-01

 Cycle   3  Pass 1  IDiag  1:
 E= -113.090608024327     Delta-E=       -0.190854916706 Rises=F Damp=F
 DIIS: error= 2.18D-02 at cycle   3 NSaved=   3.
 NSaved= 3 IEnMin= 3 EnMin= -113.090608024327     IErMin= 3 ErrMin= 2.18D-02
 ErrMax= 2.18D-02  0.00D+00 EMaxC= 1.00D-01 BMatC= 2.55D-02 BMatP= 1.50D-01
 IDIUse=3 WtCom= 7.82D-01 WtEn= 2.18D-01
 Coeff-Com:  0.169D+00-0.582D-03 0.831D+00
 Coeff-En:   0.000D+00 0.000D+00 0.100D+01
 Coeff:      0.133D+00-0.455D-03 0.868D+00
 Gap=     0.226 Goal=   None    Shift=    0.000
 RMSDP=2.80D-03 MaxDP=3.99D-02 DE=-1.91D-01 OVMax= 4.81D-02

 Cycle   4  Pass 1  IDiag  1:
 E= -113.104941014755     Delta-E=       -0.014332990428 Rises=F Damp=F
 DIIS: error= 6.06D-03 at cycle   4 NSaved=   4.
 NSaved= 4 IEnMin= 4 EnMin= -113.104941014755     IErMin= 4 ErrMin= 6.06D-03
 ErrMax= 6.06D-03  0.00D+00 EMaxC= 1.00D-01 BMatC= 1.83D-03 BMatP= 2.55D-02
 IDIUse=3 WtCom= 9.39D-01 WtEn= 6.06D-02
 Coeff-Com:  0.802D-02-0.167D-02 0.234D+00 0.759D+00
 Coeff-En:   0.000D+00 0.000D+00 0.000D+00 0.100D+01
 Coeff:      0.754D-02-0.157D-02 0.220D+00 0.774D+00
 Gap=     0.218 Goal=   None    Shift=    0.000
 RMSDP=7.35D-04 MaxDP=9.82D-03 DE=-1.43D-02 OVMax= 1.51D-02

 Cycle   5  Pass 1  IDiag  1:
 E= -113.106260855162     Delta-E=       -0.001319840406 Rises=F Damp=F
 DIIS: error= 7.17D-04 at cycle   5 NSaved=   5.
 NSaved= 5 IEnMin= 5 EnMin= -113.106260855162     IErMin= 5 ErrMin= 7.17D-04
 ErrMax= 7.17D-04  0.00D+00 EMaxC= 1.00D-01 BMatC= 2.40D-05 BMatP= 1.83D-03
 IDIUse=3 WtCom= 9.93D-01 WtEn= 7.17D-03
 Coeff-Com: -0.759D-02 0.805D-02 0.166D-01 0.205D+00 0.778D+00
 Coeff-En:   0.000D+00 0.000D+00 0.000D+00 0.000D+00 0.100D+01
 Coeff:     -0.753D-02 0.800D-02 0.165D-01 0.204D+00 0.780D+00
 Gap=     0.219 Goal=   None    Shift=    0.000
 RMSDP=9.27D-05 MaxDP=1.31D-03 DE=-1.32D-03 OVMax= 1.70D-03

 Cycle   6  Pass 1  IDiag  1:
 E= -113.106282055230     Delta-E=       -0.000021200068 Rises=F Damp=F
 DIIS: error= 3.51D-05 at cycle   6 NSaved=   6.
 NSaved= 6 IEnMin= 6 EnMin= -113.106282055230     IErMin= 6 ErrMin= 3.51D-05
 ErrMax= 3.51D-05  0.00D+00 EMaxC= 1.00D-01 BMatC= 5.23D-08 BMatP= 2.40D-05
 IDIUse=1 WtCom= 1.00D+00 WtEn= 0.00D+00
 Coeff-Com: -0.124D-02 0.159D-02-0.967D-03 0.187D-02 0.229D-01 0.976D+00
 Coeff:     -0.124D-02 0.159D-02-0.967D-03 0.187D-02 0.229D-01 0.976D+00
 Gap=     0.219 Goal=   None    Shift=    0.000
 RMSDP=2.88D-06 MaxDP=4.41D-05 DE=-2.12D-05 OVMax= 1.09D-04

 Cycle   7  Pass 1  IDiag  1:
 E= -113.106282093818     Delta-E=       -0.000000038589 Rises=F Damp=F
 DIIS: error= 6.91D-06 at cycle   7 NSaved=   7.
 NSaved= 7 IEnMin= 7 EnMin= -113.106282093818     IErMin= 7 ErrMin= 6.91D-06
 ErrMax= 6.91D-06  0.00D+00 EMaxC= 1.00D-01 BMatC= 2.02D-09 BMatP= 5.23D-08
 IDIUse=1 WtCom= 1.00D+00 WtEn= 0.00D+00
 Coeff-Com: -0.105D-03 0.174D-03-0.377D-03-0.334D-02-0.112D-01 0.285D-01
 Coeff-Com:  0.986D+00
 Coeff:     -0.105D-03 0.174D-03-0.377D-03-0.334D-02-0.112D-01 0.285D-01
 Coeff:      0.986D+00
 Gap=     0.219 Goal=   None    Shift=    0.000
 RMSDP=7.05D-07 MaxDP=8.28D-06 DE=-3.86D-08 OVMax= 1.97D-05

 Cycle   8  Pass 1  IDiag  1:
 E= -113.106282095290     Delta-E=       -0.000000001471 Rises=F Damp=F
 DIIS: error= 6.50D-07 at cycle   8 NSaved=   8.
 NSaved= 8 IEnMin= 8 EnMin= -113.106282095290     IErMin= 8 ErrMin= 6.50D-07
 ErrMax= 6.50D-07  0.00D+00 EMaxC= 1.00D-01 BMatC= 1.24D-11 BMatP= 2.02D-09
 IDIUse=1 WtCom= 1.00D+00 WtEn= 0.00D+00
 Coeff-Com:  0.124D-04-0.161D-04-0.126D-04-0.230D-03-0.477D-03-0.116D-01
 Coeff-Com:  0.429D-01 0.969D+00
 Coeff:      0.124D-04-0.161D-04-0.126D-04-0.230D-03-0.477D-03-0.116D-01
 Coeff:      0.429D-01 0.969D+00
 Gap=     0.219 Goal=   None    Shift=    0.000
 RMSDP=7.14D-08 MaxDP=8.68D-07 DE=-1.47D-09 OVMax= 2.64D-06

 Cycle   9  Pass 1  IDiag  1:
 E= -113.106282095303     Delta-E=       -0.000000000013 Rises=F Damp=F
 DIIS: error= 7.21D-08 at cycle   9 NSaved=   9.
 NSaved= 9 IEnMin= 9 EnMin= -113.106282095303     IErMin= 9 ErrMin= 7.21D-08
 ErrMax= 7.21D-08  0.00D+00 EMaxC= 1.00D-01 BMatC= 2.03D-13 BMatP= 1.24D-11
 IDIUse=1 WtCom= 1.00D+00 WtEn= 0.00D+00
 Coeff-Com:  0.104D-05-0.120D-05 0.642D-06 0.177D-05 0.147D-05-0.105D-02
 Coeff-Com: -0.128D-02 0.106D+00 0.896D+00
 Coeff:      0.104D-05-0.120D-05 0.642D-06 0.177D-05 0.147D-05-0.105D-02
 Coeff:     -0.128D-02 0.106D+00 0.896D+00
 Gap=     0.219 Goal=   None    Shift=    0.000
 RMSDP=1.31D-08 MaxDP=2.10D-07 DE=-1.30D-11 OVMax= 2.00D-07

 Cycle  10  Pass 1  IDiag  1:
 E= -113.106282095303     Delta-E=       -0.000000000000 Rises=F Damp=F
 DIIS: error= 3.11D-09 at cycle  10 NSaved=  10.
 NSaved=10 IEnMin=10 EnMin= -113.106282095303     IErMin=10 ErrMin= 3.11D-09
 ErrMax= 3.11D-09  0.00D+00 EMaxC= 1.00D-01 BMatC= 4.69D-16 BMatP= 2.03D-13
 IDIUse=1 WtCom= 1.00D+00 WtEn= 0.00D+00
 Coeff-Com: -0.181D-06 0.244D-06 0.337D-06 0.391D-05 0.470D-05 0.626D-04
 Coeff-Com: -0.646D-03-0.113D-01-0.191D-01 0.103D+01
 Coeff:     -0.181D-06 0.244D-06 0.337D-06 0.391D-05 0.470D-05 0.626D-04
 Coeff:     -0.646D-03-0.113D-01-0.191D-01 0.103D+01
 Gap=     0.219 Goal=   None    Shift=    0.000
 RMSDP=1.60D-09 MaxDP=2.40D-08 DE=-1.14D-13 OVMax= 3.42D-08

 SCF Done:  E(RB3LYP) =  -113.106282095     A.U. after   10 cycles
            NFock= 10  Conv=0.16D-08     -V/T= 1.9416
 KE= 1.201206527939D+02 PE=-3.647868936541D+02 EE= 8.422572050093D+01
 Leave Link  502 at Fri Sep 17 10:51:59 2021, MaxMem=   268435456 cpu:               1.8 elap:               2.1
 (Enter /software/gaussian/g16-a03/l801.exe)
 DoSCS=F DFT=T ScalE2(SS,OS)=  1.000000  1.000000
 ExpMin= 4.38D-02 ExpMax= 8.59D+03 ExpMxC= 1.30D+03 IAcc=3 IRadAn=         5 AccDes= 0.00D+00
 HarFok:  IExCor=  205 AccDes= 0.00D+00 IRadAn=         5 IDoV=-2 UseB2=F ITyADJ=14
 ICtDFT= 12500011 ScaDFX=  1.000000  1.000000  1.000000  1.000000
 Largest valence mixing into a core orbital is  3.61D-04
 Largest core mixing into a valence orbital is  1.22D-04
 Range of M.O.s used for correlation:     3    56
 NBasis=    56 NAE=     8 NBE=     8 NFC=     2 NFV=     0
 NROrb=     54 NOA=     6 NOB=     6 NVA=    48 NVB=    48

 **** Warning!!: The largest alpha MO coefficient is  0.15818106D+02

 Leave Link  801 at Fri Sep 17 10:51:59 2021, MaxMem=   268435456 cpu:               0.2 elap:               0.2
 (Enter /software/gaussian/g16-a03/l914.exe)
 RHF ground state
 Keep R1, R2, and R3 ints in memory in symmetry-blocked form, NReq=6042848.
 FoFCou: FMM=F IPFlag=           0 FMFlag=           0 FMFlg1=           0
         NFxFlg=           0 DoJE=F BraDBF=F KetDBF=F FulRan=T
         wScrn=  0.000000 ICntrl=       600 IOpCl=  0 I1Cent=           0 NGrid=           0
         NMat0=    1 NMatS0=   1596 NMatT0=    0 NMatD0=    1 NMtDS0=    0 NMtDT0=    0
 Petite list used in FoFCou.
 MDV=   268435456 DFT=T DoStab=F Mixed=T DoRPA=T DoScal=F NonHer=T
 Making orbital integer symmetry assigments:
 Orbital symmetries:
       Occupied  (A1) (A1) (A1) (B2) (B1) (A1) (A1) (B2)
       Virtual   (A1) (B1) (B2) (A1) (B1) (A1) (A1) (B2) (B1) (A1)
                 (B2) (A1) (A1) (B2) (B1) (B2) (A1) (A1) (B1) (A2)
                 (B2) (A1) (A1) (B2) (A1) (B1) (A2) (B2) (B1) (A1)
                 (A1) (B2) (B1) (A1) (B2) (A1) (A2) (A1) (B2) (B1)
                 (A1) (B2) (A1) (B1) (B2) (A1) (A1) (A1)
   120 initial guesses have been made.
 Convergence on wavefunction:    0.001000000000000
 Davidson Disk Diagonalization:  ConvIn= 1.00D-03 SkipCon=T Conv= 1.00D-03.
 Max sub-space:  1728 roots to seek:   120 dimension of matrix:          576
 Iteration     1 Dimension   120 NMult     0 NNew    120
 CISAX will form   120 AO SS matrices at one time.
 NMat=   120 NSing=   120 JSym2X=-1.
 New state      3 was old state      4
 New state      4 was old state      3
 New state      6 was old state      7
 New state      7 was old state      6
 New state     12 was old state     13
 New state     13 was old state     12
 New state     15 was old state     16
 New state     16 was old state     15
 New state     23 was old state     26
 New state     25 was old state     28
 New state     26 was old state     25
 New state     28 was old state     23
 New state     30 was old state     37
 Excitation Energies [eV] at current iteration:
 Root      1 :     4.983764006634514
 Root      2 :     5.274164308922680
 Root      3 :     5.886663477176450
 Root      4 :     6.046814038435814
 Root      5 :     8.001968188083049
 Root      6 :     9.131198362679049
 Root      7 :     9.603781356994121
 Root      8 :     9.753218677022447
 Root      9 :    10.317884001535120
 Root     10 :    11.089448294005170
 Root     11 :    12.260702481671810
 Root     12 :    14.117184323331070
 Root     13 :    14.181878045566780
 Root     14 :    14.567687531812940
 Root     15 :    15.159418445189850
 Root     16 :    15.217556451356500
 Root     17 :    15.412670082497770
 Root     18 :    15.462200083610970
 Root     19 :    16.048263033867920
 Root     20 :    16.049488048528840
 Root     21 :    17.420937710186760
 Root     22 :    17.635719989100880
 Root     23 :    18.381199846101370
 Root     24 :    18.491568794880740
 Root     25 :    18.699522401484990
 Root     26 :    18.719907532874280
 Root     27 :    18.782522486617900
 Root     28 :    19.296844429683280
 Root     29 :    19.407532619346280
 Root     30 :    19.445780727099600
 Root     31 :    19.446184105184480
 Root     32 :    19.638810152339870
 Root     33 :    19.655113252465480
 Root     34 :    19.741632640155530
 Root     35 :    19.868403445768760
 Root     36 :    19.891153288261550
 Root     37 :    20.037316585239980
 Root     38 :    20.042246285775300
 Root     39 :    20.619169017902540
 Root     40 :    20.622015724028170
 Root     41 :    20.771874166403010
 Root     42 :    20.778488139717680
 Root     43 :    21.132175891832480
 Root     44 :    21.318224021891470
 Root     45 :    21.923142607613240
 Root     46 :    22.426846363467650
 Root     47 :    22.465306616971660
 Root     48 :    22.507585999549180
 Root     49 :    23.123724731307440
 Root     50 :    23.183551475514210
 Root     51 :    23.453613973593460
 Root     52 :    23.578953103958740
 Root     53 :    23.849319859232840
 Root     54 :    23.910800206902480
 Root     55 :    24.110284620513670
 Root     56 :    24.429140301851230
 Root     57 :    24.478321156825490
 Root     58 :    24.846617218631110
 Root     59 :    24.996008412868130
 Root     60 :    25.382581708125240
 Root     61 :    25.716216575846900
 Root     62 :    25.775276190255880
 Root     63 :    27.257365972251480
 Root     64 :    27.679455342274890
 Root     65 :    28.109240163634150
 Root     66 :    28.873346594729340
 Root     67 :    28.950017086777670
 Root     68 :    29.039717883996790
 Root     69 :    29.304532285711200
 Root     70 :    29.404881868343220
 Root     71 :    29.829422196816620
 Root     72 :    29.936954767872450
 Root     73 :    30.576233725425640
 Root     74 :    31.145340651326660
 Root     75 :    32.428459840731190
 Root     76 :    32.487290538327780
 Root     77 :    32.599468373294720
 Root     78 :    32.742980879550200
 Root     79 :    33.104176294099840
 Root     80 :    33.159497128037780
 Root     81 :    33.438076367183580
 Root     82 :    33.827217270621890
 Root     83 :    33.849448967805770
 Root     84 :    34.632179232089790
 Root     85 :    35.198030599034790
 Root     86 :    35.291079192938480
 Root     87 :    35.779025536604280
 Root     88 :    36.227230162913060
 Root     89 :    36.337959347943300
 Root     90 :    36.347877077981540
 Root     91 :    37.663925393858730
 Root     92 :    38.118022390862340
 Root     93 :    38.599596766644360
 Root     94 :    38.636818684172270
 Root     95 :    39.171352250294570
 Root     96 :    39.331352993772110
 Root     97 :    39.530532068106670
 Root     98 :    39.745207780958250
 Root     99 :    39.858785120541380
 Root    100 :    40.044628004259440
 Root    101 :    40.091788972689550
 Root    102 :    40.157414673289960
 Root    103 :    40.750192488591860
 Root    104 :    40.870121039997340
 Root    105 :    40.885792610470520
 Root    106 :    41.360208135427750
 Root    107 :    41.460449360294340
 Root    108 :    41.727247640096190
 Root    109 :    41.747481467868950
 Root    110 :    41.993836331192000
 Root    111 :    43.324491699216230
 Root    112 :    44.153592392263790
 Root    113 :    44.240272857318250
 Root    114 :    44.648120404706570
 Root    115 :    44.731434694295370
 Root    116 :    44.753679223382320
 Root    117 :    44.836521410527960
 Root    118 :    45.120220894562340
 Root    119 :    45.794700742641580
 Root    120 :    48.191374446362770
 Iteration     2 Dimension   180 NMult   120 NNew     60
 CISAX will form    60 AO SS matrices at one time.
 NMat=    60 NSing=    60 JSym2X=-1.
 Root      1 not converged, maximum delta is    0.002352682924112
 Root      2 not converged, maximum delta is    0.003683620493661
 Root      3 not converged, maximum delta is    0.003537404947932
 Root      4 not converged, maximum delta is    0.005565977793624
 Root      5 not converged, maximum delta is    0.004529712123237
 Root      6 not converged, maximum delta is    0.008688752739501
 Root      7 not converged, maximum delta is    0.008605120794625
 Root      8 not converged, maximum delta is    0.002882048261979
 Root      9 not converged, maximum delta is    0.003461464920875
 Root     10 not converged, maximum delta is    0.002469828377598
 Root     11 not converged, maximum delta is    0.006389452928787
 Root     12 not converged, maximum delta is    0.010698968956422
 Root     13 not converged, maximum delta is    0.010778792016952
 Root     14 not converged, maximum delta is    0.008938235976262
 Root     15 not converged, maximum delta is    0.007454178783125
 Root     16 not converged, maximum delta is    0.005825526874339
 Root     17 not converged, maximum delta is    0.009222087521658
 Root     18 not converged, maximum delta is    0.011828655199837
 Root     19 not converged, maximum delta is    0.006793967154807
 Root     20 not converged, maximum delta is    0.006232662310070
 Root     21 not converged, maximum delta is    0.028690994959193
 Root     22 not converged, maximum delta is    0.002549686629537
 Root     23 not converged, maximum delta is    0.008897401584148
 Root     24 not converged, maximum delta is    0.074684209739717
 Root     25 not converged, maximum delta is    0.003688223689540
 Root     26 not converged, maximum delta is    0.010043709887038
 Root     27 not converged, maximum delta is    0.058678123956737
 Root     28 not converged, maximum delta is    0.034800144362561
 Root     29 not converged, maximum delta is    0.014900386174553
 New state     30 was old state     31
 Root     30 not converged, maximum delta is    0.017272256788688
 Excitation Energies [eV] at current iteration:
 Root      1 :     4.980758365110884   Change is   -0.003005641523631
 Root      2 :     5.270855446360923   Change is   -0.003308862561758
 Root      3 :     5.882877599682536   Change is   -0.003785877493913
 Root      4 :     6.040337569118813   Change is   -0.006476469317001
 Root      5 :     7.995844964496619   Change is   -0.006123223586431
 Root      6 :     9.123576325622331   Change is   -0.007622037056719
 Root      7 :     9.589807500732800   Change is   -0.013973856261321
 Root      8 :     9.744590161033312   Change is   -0.008628515989136
 Root      9 :    10.314923888426580   Change is   -0.002960113108538
 Root     10 :    11.084705539285360   Change is   -0.004742754719812
 Root     11 :    12.246107006184740   Change is   -0.014595475487070
 Root     12 :    14.102831916720810   Change is   -0.014352406610261
 Root     13 :    14.161681555795460   Change is   -0.020196489771318
 Root     14 :    14.555995875610270   Change is   -0.011691656202673
 Root     15 :    15.141762738517210   Change is   -0.017655706672637
 Root     16 :    15.206577194667300   Change is   -0.010979256689198
 Root     17 :    15.393695286445830   Change is   -0.018974796051947
 Root     18 :    15.443786451906190   Change is   -0.018413631704780
 Root     19 :    16.036698823485000   Change is   -0.011564210382918
 Root     20 :    16.041943569821310   Change is   -0.007544478707528
 Root     21 :    17.326514085597170   Change is   -0.094423624589590
 Root     22 :    17.631743459123380   Change is   -0.003976529977499
 Root     23 :    18.373145873842190   Change is   -0.008053972259177
 Root     24 :    18.423412358384690   Change is   -0.068156436496048
 Root     25 :    18.696053809049590   Change is   -0.003468592435402
 Root     26 :    18.699350046348750   Change is   -0.020557486525533
 Root     27 :    18.762686181128020   Change is   -0.019836305489870
 Root     28 :    19.237622599868580   Change is   -0.059221829814699
 Root     29 :    19.388834051780400   Change is   -0.018698567565884
 Root     30 :    19.425058576844370   Change is   -0.021125528340107
 Iteration     3 Dimension   240 NMult   180 NNew     60
 CISAX will form    60 AO SS matrices at one time.
 NMat=    60 NSing=    60 JSym2X=-1.
 Root      1 has converged.
 Root      2 has converged.
 Root      3 has converged.
 Root      4 has converged.
 Root      5 has converged.
 Root      6 has converged.
 Root      7 has converged.
 Root      8 has converged.
 Root      9 has converged.
 Root     10 has converged.
 Root     11 has converged.
 Root     12 has converged.
 Root     13 has converged.
 Root     14 has converged.
 Root     15 has converged.
 Root     16 has converged.
 Root     17 has converged.
 Root     18 has converged.
 Root     19 has converged.
 Root     20 has converged.
 Root     21 has converged.
 Root     22 has converged.
 Root     23 has converged.
 Root     24 has converged.
 Root     25 has converged.
 Root     26 has converged.
 Root     27 has converged.
 Root     28 has converged.
 Root     29 has converged.
 Root     30 has converged.
 Excitation Energies [eV] at current iteration:
 Root      1 :     4.980757513584171   Change is   -0.000000851526712
 Root      2 :     5.270854320004426   Change is   -0.000001126356496
 Root      3 :     5.882876006475495   Change is   -0.000001593207041
 Root      4 :     6.040335591442494   Change is   -0.000001977676319
 Root      5 :     7.995841878142331   Change is   -0.000003086354288
 Root      6 :     9.123574674944070   Change is   -0.000001650678261
 Root      7 :     9.589800940401638   Change is   -0.000006560331162
 Root      8 :     9.744581981527013   Change is   -0.000008179506299
 Root      9 :    10.314920806954710   Change is   -0.000003081471869
 Root     10 :    11.084699921030040   Change is   -0.000005618255313
 Root     11 :    12.246085922215510   Change is   -0.000021083969230
 Root     12 :    14.102808692936330   Change is   -0.000023223784481
 Root     13 :    14.161647001575120   Change is   -0.000034554220340
 Root     14 :    14.555947997968770   Change is   -0.000047877641496
 Root     15 :    15.141725572333990   Change is   -0.000037166183219
 Root     16 :    15.206554214858820   Change is   -0.000022979808476
 Root     17 :    15.393654508985200   Change is   -0.000040777460627
 Root     18 :    15.443741088713360   Change is   -0.000045363192825
 Root     19 :    16.036683069119600   Change is   -0.000015754365403
 Root     20 :    16.041930674416670   Change is   -0.000012895404641
 Root     21 :    17.325983199120540   Change is   -0.000530886476633
 Root     22 :    17.631733318516740   Change is   -0.000010140606642
 Root     23 :    18.373125816039500   Change is   -0.000020057802695
 Root     24 :    18.423133138799930   Change is   -0.000279219584765
 Root     25 :    18.696042845409630   Change is   -0.000010963639959
 Root     26 :    18.699309892839210   Change is   -0.000040153509543
 Root     27 :    18.762598548548640   Change is   -0.000087632579389
 Root     28 :    19.237563031207340   Change is   -0.000059568661239
 Root     29 :    19.388765083041150   Change is   -0.000068968739250
 Root     30 :    19.424897819697230   Change is   -0.000160757147144
 Convergence achieved on expansion vectors.
 ***********************************************************************
 Excited states from <AA,BB:AA,BB> singles matrix:
 ***********************************************************************
 
 1PDM for each excited state written to RWF  633
 Ground to excited state transition densities written to RWF  633
 Ground to excited state transition electric dipole moments (Au):
       state          X           Y           Z        Dip. S.      Osc.
         1         0.0000      0.9843     -0.0000      0.9688      0.1182
         2        -0.0000      0.0000     -0.0000      0.0000      0.0000
         3         0.0000      0.4719      0.0000      0.2227      0.0321
         4         0.0000     -0.0000      0.3038      0.0923      0.0137
         5        -0.0000      0.0000     -0.0000      0.0000      0.0000
         6        -0.0000     -0.6335     -0.0000      0.4013      0.0897
         7        -0.0000     -1.2610     -0.0000      1.5901      0.3736
         8        -0.0000      0.0000     -0.1139      0.0130      0.0031
         9        -0.0000      0.0000     -0.0000      0.0000      0.0000
        10        -0.0000      0.3929     -0.0000      0.1544      0.0419
        11        -0.0000      0.0000      0.9375      0.8790      0.2637
        12        -0.0000     -0.1960     -0.0000      0.0384      0.0133
        13         0.0000     -0.0000      0.2458      0.0604      0.0210
        14         0.0247      0.0000      0.0000      0.0006      0.0002
        15         0.0000     -0.3125      0.0000      0.0976      0.0362
        16         0.0000      0.0000     -0.1820      0.0331      0.0123
        17         0.0000      0.0000      0.0615      0.0038      0.0014
        18        -0.5551     -0.0000     -0.0000      0.3081      0.1166
        19         0.0000     -0.1438     -0.0000      0.0207      0.0081
        20        -0.0000      0.0000     -0.5708      0.3258      0.1281
        21        -0.5361      0.0000     -0.0000      0.2874      0.1220
        22        -0.0000     -0.0000     -0.1581      0.0250      0.0108
        23        -0.0000     -0.0000      0.4407      0.1942      0.0874
        24         0.4446     -0.0000      0.0000      0.1977      0.0892
        25        -0.0000     -0.3359     -0.0000      0.1128      0.0517
        26         0.0000      0.0000      0.1621      0.0263      0.0120
        27         0.0535     -0.0000      0.0000      0.0029      0.0013
        28         0.0000     -0.1942      0.0000      0.0377      0.0178
        29        -0.0000      0.0000      0.1528      0.0233      0.0111
        30        -0.0687     -0.0000     -0.0000      0.0047      0.0022
 Ground to excited state transition velocity dipole moments (Au):
       state          X           Y           Z        Dip. S.      Osc.
         1         0.0000     -0.1710      0.0000      0.0292      0.1065
         2        -0.0000      0.0000      0.0000      0.0000      0.0000
         3        -0.0000     -0.0994     -0.0000      0.0099      0.0305
         4        -0.0000      0.0000     -0.0654      0.0043      0.0128
         5         0.0000     -0.0000      0.0000      0.0000      0.0000
         6         0.0000      0.2320      0.0000      0.0538      0.1070
         7         0.0000      0.4201     -0.0000      0.1765      0.3339
         8         0.0000     -0.0000      0.0351      0.0012      0.0023
         9         0.0000     -0.0000     -0.0000      0.0000      0.0000
        10         0.0000     -0.1539      0.0000      0.0237      0.0388
        11         0.0000     -0.0000     -0.4107      0.1687      0.2498
        12         0.0000      0.0706      0.0000      0.0050      0.0064
        13        -0.0000     -0.0000     -0.1253      0.0157      0.0201
        14        -0.0254     -0.0000      0.0000      0.0006      0.0008
        15         0.0000      0.1716     -0.0000      0.0295      0.0353
        16        -0.0000     -0.0000      0.1046      0.0109      0.0130
        17        -0.0000     -0.0000     -0.0286      0.0008      0.0010
        18         0.3058     -0.0000      0.0000      0.0935      0.1098
        19        -0.0000      0.0904      0.0000      0.0082      0.0092
        20         0.0000     -0.0000      0.3289      0.1082      0.1223
        21         0.3470     -0.0000      0.0000      0.1204      0.1261
        22         0.0000      0.0000      0.1015      0.0103      0.0106
        23         0.0000      0.0000     -0.2962      0.0877      0.0866
        24        -0.3151     -0.0000     -0.0000      0.0993      0.0978
        25         0.0000      0.2327      0.0000      0.0541      0.0525
        26        -0.0000     -0.0000     -0.1243      0.0155      0.0150
        27        -0.0409      0.0000      0.0000      0.0017      0.0016
        28        -0.0000      0.1614     -0.0000      0.0261      0.0246
        29         0.0000     -0.0000     -0.1078      0.0116      0.0109
        30         0.0517     -0.0000      0.0000      0.0027      0.0025
 Ground to excited state transition magnetic dipole moments (Au):
       state          X           Y           Z
         1        -0.4350     -0.0000      0.0000
         2         0.0000     -0.0000     -0.9650
         3         0.7886      0.0000      0.0000
         4        -0.0000      0.0000      0.0000
         5        -0.0000     -0.0000      0.8756
         6        -0.1871     -0.0000     -0.0000
         7         1.2371     -0.0000     -0.0000
         8        -0.0000     -0.0000     -0.0000
         9        -0.0000     -0.0000     -0.4417
        10         0.1134     -0.0000      0.0000
        11         0.0000     -0.0000     -0.0000
        12         1.4646     -0.0000     -0.0000
        13         0.0000      0.0000     -0.0000
        14         0.0000     -0.0683      0.0000
        15        -0.3029      0.0000      0.0000
        16         0.0000      0.0000      0.0000
        17         0.0000      0.0000     -0.0000
        18         0.0000     -0.6004     -0.0000
        19        -0.1277     -0.0000      0.0000
        20         0.0000     -0.0000      0.0000
        21         0.0000      0.8950     -0.0000
        22         0.0000     -0.0000     -0.0000
        23        -0.0000     -0.0000      0.0000
        24         0.0000      0.6201      0.0000
        25        -0.2942     -0.0000     -0.0000
        26         0.0000      0.0000      0.0000
        27         0.0000     -0.0474     -0.0000
        28         0.0805      0.0000      0.0000
        29        -0.0000     -0.0000      0.0000
        30         0.0000     -0.0463     -0.0000
 Ground to excited state transition velocity quadrupole moments (Au):
       state          XX          YY          ZZ          XY          XZ          YZ
         1         0.0000      0.0000     -0.0000      0.0000     -0.0000      0.3965
         2        -0.0000      0.0000      0.0000      0.3403     -0.0000     -0.0000
         3         0.0000      0.0000      0.0000     -0.0000      0.0000      0.4266
         4         0.2665      0.7821      0.1240     -0.0000      0.0000     -0.0000
         5        -0.0000      0.0000      0.0000     -0.0617     -0.0000      0.0000
         6        -0.0000     -0.0000     -0.0000     -0.0000     -0.0000     -0.7760
         7        -0.0000     -0.0000     -0.0000     -0.0000     -0.0000     -0.6505
         8        -0.2350     -0.6154     -0.5706      0.0000     -0.0000      0.0000
         9        -0.0000     -0.0000      0.0000     -0.1702     -0.0000      0.0000
        10         0.0000     -0.0000      0.0000      0.0000     -0.0000      0.0836
        11         0.0093      0.9899      0.8784      0.0000     -0.0000      0.0000
        12         0.0000      0.0000      0.0000      0.0000     -0.0000     -0.2043
        13        -0.0796     -0.0706     -0.2836      0.0000      0.0000     -0.0000
        14        -0.0000     -0.0000     -0.0000     -0.0000      0.1796     -0.0000
        15         0.0000      0.0000      0.0000     -0.0000     -0.0000      0.2745
        16        -0.2281     -0.4408      0.0686     -0.0000      0.0000     -0.0000
        17         0.4336      0.7052      0.7757      0.0000      0.0000     -0.0000
        18         0.0000      0.0000      0.0000      0.0000     -0.5811     -0.0000
        19        -0.0000     -0.0000     -0.0000     -0.0000     -0.0000      0.0524
        20        -0.1396     -0.2396     -1.0353     -0.0000     -0.0000     -0.0000
        21         0.0000      0.0000     -0.0000      0.0000      0.6470     -0.0000
        22        -0.0663     -0.2500      0.1403      0.0000     -0.0000     -0.0000
        23        -0.0063      0.2254     -0.9029     -0.0000     -0.0000      0.0000
        24        -0.0000     -0.0000     -0.0000     -0.0000      0.5127     -0.0000
        25        -0.0000      0.0000      0.0000      0.0000     -0.0000      0.5338
        26        -0.6224      1.1360      0.6385     -0.0000      0.0000     -0.0000
        27        -0.0000      0.0000      0.0000      0.0000     -0.1518      0.0000
        28        -0.0000      0.0000     -0.0000     -0.0000     -0.0000     -0.5194
        29         0.6349      0.4648     -0.2325     -0.0000      0.0000     -0.0000
        30        -0.0000     -0.0000     -0.0000     -0.0000      0.3661     -0.0000
 <0|del|b> * <b|rxdel|0> + <0|del|b> * <b|delr+rdel|0>
 Rotatory Strengths (R) in cgs (10**-40 erg-esu-cm/Gauss)
       state          XX          YY          ZZ    R(velocity)    E-M Angle
         1        -0.0000     -0.0000     -0.0000     -0.0000       90.00
         2        -0.0000     -0.0000     -0.0000     -0.0000       90.00
         3        -0.0000     -0.0000     -0.0000     -0.0000       90.00
         4         0.0000     -0.0000      0.0000     -0.0000       90.00
         5         0.0000      0.0000      0.0000      0.0000       90.00
         6         0.0000     -0.0000      0.0000     -0.0000       90.00
         7         0.0000      0.0000      0.0000      0.0000       90.00
         8         0.0000     -0.0000     -0.0000     -0.0000       90.00
         9         0.0000      0.0000     -0.0000      0.0000       90.00
        10         0.0000      0.0000      0.0000      0.0000       90.00
        11        -0.0000      0.0000      0.0000      0.0000       90.00
        12        -0.0000      0.0000      0.0000      0.0000       90.00
        13        -0.0000      0.0000     -0.0000      0.0000       90.00
        14         0.0000      0.0000     -0.0000      0.0000       90.00
        15         0.0000     -0.0000     -0.0000     -0.0000       90.00
        16        -0.0000      0.0000     -0.0000      0.0000       90.00
        17         0.0000      0.0000     -0.0000      0.0000       90.00
        18         0.0000     -0.0000      0.0000      0.0000       90.00
        19        -0.0000      0.0000     -0.0000     -0.0000       90.00
        20        -0.0000      0.0000      0.0000      0.0000       90.00
        21        -0.0000     -0.0000     -0.0000     -0.0000       90.00
        22         0.0000     -0.0000      0.0000     -0.0000       90.00
        23         0.0000     -0.0000     -0.0000     -0.0000       90.00
        24        -0.0000     -0.0000     -0.0000     -0.0000       90.00
        25        -0.0000      0.0000     -0.0000     -0.0000       90.00
        26        -0.0000     -0.0000     -0.0000     -0.0000       90.00
        27         0.0000     -0.0000     -0.0000     -0.0000       90.00
        28         0.0000      0.0000     -0.0000     -0.0000       90.00
        29         0.0000     -0.0000     -0.0000     -0.0000       90.00
        30         0.0000      0.0000     -0.0000      0.0000       90.00
 1/2[<0|r|b>*<b|rxdel|0> + (<0|rxdel|b>*<b|r|0>)*]
 Rotatory Strengths (R) in cgs (10**-40 erg-esu-cm/Gauss)
       state          XX          YY          ZZ     R(length)
         1         0.0000      0.0000      0.0000      0.0000
         2         0.0000      0.0000     -0.0000     -0.0000
         3        -0.0000     -0.0000     -0.0000     -0.0000
         4         0.0000      0.0000     -0.0000     -0.0000
         5        -0.0000      0.0000      0.0000      0.0000
         6        -0.0000     -0.0000     -0.0000     -0.0000
         7         0.0000     -0.0000     -0.0000     -0.0000
         8        -0.0000      0.0000     -0.0000     -0.0000
         9        -0.0000      0.0000     -0.0000     -0.0000
        10         0.0000      0.0000      0.0000      0.0000
        11         0.0000      0.0000      0.0000      0.0000
        12         0.0000     -0.0000     -0.0000      0.0000
        13        -0.0000      0.0000      0.0000      0.0000
        14        -0.0000      0.0000     -0.0000     -0.0000
        15         0.0000      0.0000     -0.0000      0.0000
        16        -0.0000     -0.0000      0.0000      0.0000
        17        -0.0000     -0.0000      0.0000      0.0000
        18         0.0000     -0.0000     -0.0000      0.0000
        19         0.0000     -0.0000      0.0000     -0.0000
        20         0.0000      0.0000      0.0000      0.0000
        21         0.0000     -0.0000     -0.0000      0.0000
        22         0.0000     -0.0000     -0.0000     -0.0000
        23        -0.0000     -0.0000     -0.0000     -0.0000
        24        -0.0000      0.0000     -0.0000     -0.0000
        25        -0.0000     -0.0000     -0.0000     -0.0000
        26        -0.0000     -0.0000     -0.0000     -0.0000
        27        -0.0000     -0.0000      0.0000     -0.0000
        28        -0.0000      0.0000     -0.0000     -0.0000
        29        -0.0000      0.0000     -0.0000     -0.0000
        30         0.0000     -0.0000     -0.0000      0.0000
  1/2[<0|del|b>*<b|r|0> + (<0|r|b>*<b|del|0>)*] (Au)
       state          X           Y           Z        Dip. S.   Osc.(frdel)
         1         0.0000     -0.1683     -0.0000      0.1683      0.1122
         2         0.0000      0.0000     -0.0000     -0.0000     -0.0000
         3        -0.0000     -0.0469     -0.0000      0.0469      0.0313
         4        -0.0000     -0.0000     -0.0199      0.0199      0.0132
         5        -0.0000     -0.0000     -0.0000      0.0000      0.0000
         6        -0.0000     -0.1470     -0.0000      0.1470      0.0980
         7        -0.0000     -0.5298      0.0000      0.5298      0.3532
         8        -0.0000     -0.0000     -0.0040      0.0040      0.0027
         9        -0.0000     -0.0000      0.0000      0.0000      0.0000
        10        -0.0000     -0.0605     -0.0000      0.0605      0.0403
        11        -0.0000     -0.0000     -0.3850      0.3850      0.2567
        12        -0.0000     -0.0138     -0.0000      0.0138      0.0092
        13        -0.0000      0.0000     -0.0308      0.0308      0.0205
        14        -0.0006     -0.0000      0.0000      0.0006      0.0004
        15         0.0000     -0.0536     -0.0000      0.0536      0.0358
        16        -0.0000     -0.0000     -0.0190      0.0190      0.0127
        17        -0.0000     -0.0000     -0.0018      0.0018      0.0012
        18        -0.1697      0.0000     -0.0000      0.1697      0.1132
        19        -0.0000     -0.0130     -0.0000      0.0130      0.0087
        20        -0.0000     -0.0000     -0.1877      0.1877      0.1252
        21        -0.1860     -0.0000     -0.0000      0.1860      0.1240
        22        -0.0000     -0.0000     -0.0161      0.0161      0.0107
        23        -0.0000     -0.0000     -0.1305      0.1305      0.0870
        24        -0.1401      0.0000     -0.0000      0.1401      0.0934
        25        -0.0000     -0.0782     -0.0000      0.0782      0.0521
        26        -0.0000     -0.0000     -0.0202      0.0202      0.0134
        27        -0.0022     -0.0000      0.0000      0.0022      0.0015
        28        -0.0000     -0.0314     -0.0000      0.0314      0.0209
        29        -0.0000     -0.0000     -0.0165      0.0165      0.0110
        30        -0.0036      0.0000     -0.0000      0.0036      0.0024

 Excitation energies and oscillator strengths:
 
 Excited State   1:      Singlet-B2     4.9808 eV  248.93 nm  f=0.1182  <S**2>=0.000
       3 -> 11         0.00075
       3 -> 16         0.00055
       3 -> 19         0.00078
       3 -> 22         0.00037
       3 -> 24        -0.00099
       3 -> 29        -0.00021
       3 -> 32        -0.00016
       3 -> 40         0.00018
       3 -> 43         0.00020
       3 -> 50        -0.00012
       3 -> 53         0.00014
       4 ->  9        -0.00290
       4 -> 12         0.00344
       4 -> 14         0.00373
       4 -> 15         0.00156
       4 -> 18         0.00302
       4 -> 20         0.00197
       4 -> 21         0.00180
       4 -> 25         0.00150
       4 -> 26        -0.00078
       4 -> 30         0.00018
       4 -> 31         0.00168
       4 -> 33         0.00035
       4 -> 38        -0.00070
       4 -> 42        -0.00050
       4 -> 44        -0.00033
       4 -> 46        -0.00077
       4 -> 49         0.00020
       5 -> 28         0.00170
       5 -> 35         0.00074
       5 -> 45         0.00082
       6 -> 11        -0.00583
       6 -> 16         0.00313
       6 -> 19         0.00063
       6 -> 22        -0.00118
       6 -> 24        -0.00469
       6 -> 29        -0.00078
       6 -> 32        -0.00086
       6 -> 36         0.00037
       6 -> 43         0.00021
       6 -> 47         0.00028
       7 -> 11         0.00713
       7 -> 16         0.00367
       7 -> 19         0.00283
       7 -> 22        -0.00020
       7 -> 24        -0.00093
       7 -> 29         0.00093
       7 -> 32         0.00072
       7 -> 36        -0.00069
       7 -> 43        -0.00043
       7 -> 47         0.00043
       7 -> 50         0.00044
       7 -> 53        -0.00011
       8 ->  9         0.70551
       8 -> 12        -0.00019
       8 -> 14         0.04402
       8 -> 15        -0.00748
       8 -> 18        -0.02183
       8 -> 20         0.00564
       8 -> 21         0.00994
       8 -> 25        -0.00023
       8 -> 26        -0.00020
       8 -> 30        -0.00268
       8 -> 31        -0.00241
       8 -> 33        -0.00111
       8 -> 38        -0.00112
       8 -> 39         0.00019
       8 -> 42        -0.00073
       8 -> 44         0.00028
       8 -> 46         0.00082
       8 -> 49        -0.00029
       8 -> 51         0.00012
       3 <- 11         0.00030
       3 <- 16         0.00022
       3 <- 19         0.00051
       3 <- 22         0.00028
       3 <- 24        -0.00075
       3 <- 29        -0.00018
       3 <- 32        -0.00017
       3 <- 40         0.00019
       3 <- 43         0.00019
       3 <- 53         0.00015
       4 <-  9        -0.00139
       4 <- 12        -0.00023
       4 <- 14         0.00305
       4 <- 15         0.00184
       4 <- 18         0.00066
       4 <- 20         0.00108
       4 <- 21         0.00136
       4 <- 25         0.00131
       4 <- 26        -0.00131
       4 <- 30         0.00025
       4 <- 31         0.00069
       4 <- 33         0.00026
       4 <- 38        -0.00045
       4 <- 39         0.00016
       4 <- 42        -0.00042
       4 <- 44        -0.00026
       4 <- 46        -0.00069
       4 <- 49         0.00014
       5 <- 28         0.00140
       5 <- 35         0.00059
       5 <- 45         0.00069
       6 <- 11        -0.00083
       6 <- 16         0.00285
       6 <- 19         0.00109
       6 <- 22        -0.00036
       6 <- 24        -0.00347
       6 <- 29        -0.00036
       6 <- 32        -0.00073
       6 <- 36         0.00037
       6 <- 43         0.00012
       6 <- 47         0.00025
       6 <- 50         0.00014
       7 <- 11         0.00144
       7 <- 16         0.00172
       7 <- 19         0.00023
       7 <- 29         0.00145
       7 <- 32         0.00055
       7 <- 36        -0.00040
       7 <- 43        -0.00030
       7 <- 47         0.00045
       7 <- 50         0.00051
       8 <-  9        -0.00761
       8 <- 12        -0.00486
       8 <- 14         0.01894
       8 <- 15         0.00558
       8 <- 18         0.00147
       8 <- 20         0.00037
       8 <- 21         0.00504
       8 <- 25         0.00313
       8 <- 26         0.00020
       8 <- 30        -0.00176
       8 <- 31        -0.00152
       8 <- 33        -0.00142
       8 <- 38        -0.00107
       8 <- 39         0.00014
       8 <- 42        -0.00059
       8 <- 46         0.00069
       8 <- 49        -0.00022
 This state for optimization and/or second-order correction.
 Total Energy, E(TD-HF/TD-DFT) =  -112.923242625    
 Copying the excited state density for this state as the 1-particle RhoCI density.
 
 Excited State   2:      Singlet-A2     5.2709 eV  235.23 nm  f=0.0000  <S**2>=0.000
       3 -> 28        -0.00192
       3 -> 35        -0.00125
       3 -> 45        -0.00048
       4 -> 10        -0.00109
       4 -> 13         0.00173
       4 -> 17        -0.00407
       4 -> 23         0.00197
       4 -> 27        -0.00230
       4 -> 34        -0.00012
       4 -> 37        -0.00169
       4 -> 41        -0.00020
       4 -> 48        -0.00013
       4 -> 52        -0.00032
       5 -> 11         0.00032
       5 -> 19         0.00036
       5 -> 22        -0.00102
       5 -> 24        -0.00020
       5 -> 29        -0.00016
       5 -> 32        -0.00013
       5 -> 36        -0.00035
       5 -> 43        -0.00040
       5 -> 47        -0.00040
       5 -> 50         0.00019
       5 -> 53        -0.00011
       6 -> 28        -0.00347
       6 -> 35         0.00050
       7 -> 28         0.00100
       7 -> 35        -0.00025
       7 -> 45        -0.00052
       8 -> 10         0.70557
       8 -> 13        -0.03722
       8 -> 17         0.02864
       8 -> 23         0.00232
       8 -> 27         0.00203
       8 -> 34         0.00317
       8 -> 37        -0.00204
       8 -> 41         0.00018
       8 -> 48         0.00013
       8 -> 52         0.00042
       3 <- 28        -0.00156
       3 <- 35        -0.00108
       3 <- 45        -0.00046
       4 <- 10        -0.00017
       4 <- 13         0.00080
       4 <- 17        -0.00070
       4 <- 27        -0.00032
       4 <- 34         0.00080
       4 <- 37        -0.00091
       4 <- 41        -0.00027
       5 <- 11         0.00066
       5 <- 16        -0.00063
       5 <- 19         0.00170
       5 <- 22        -0.00162
       5 <- 24        -0.00131
       5 <- 29        -0.00135
       5 <- 32         0.00028
       5 <- 36        -0.00085
       5 <- 43        -0.00046
       5 <- 47        -0.00038
       5 <- 53        -0.00029
       6 <- 28        -0.00342
       6 <- 35         0.00063
       7 <- 28         0.00110
       7 <- 35        -0.00030
       7 <- 45        -0.00051
       8 <- 10         0.00061
       8 <- 13         0.00602
       8 <- 17        -0.00576
       8 <- 23         0.00020
       8 <- 27        -0.00046
       8 <- 34         0.00305
       8 <- 37        -0.00164
       8 <- 41         0.00015
       8 <- 52         0.00014
 
 Excited State   3:      Singlet-B2     5.8829 eV  210.75 nm  f=0.0321  <S**2>=0.000
       3 -> 11        -0.00013
       3 -> 16         0.00048
       3 -> 19        -0.00026
       3 -> 22         0.00028
       3 -> 24        -0.00038
       3 -> 29         0.00047
       3 -> 32         0.00013
       3 -> 36        -0.00023
       3 -> 43        -0.00023
       3 -> 47         0.00016
       3 -> 50         0.00013
       3 -> 53        -0.00016
       4 ->  9         0.00219
       4 -> 12         0.00035
       4 -> 14         0.00143
       4 -> 15         0.00276
       4 -> 18        -0.00161
       4 -> 20        -0.00041
       4 -> 21         0.00130
       4 -> 25         0.00083
       4 -> 26         0.00071
       4 -> 30        -0.00209
       4 -> 31        -0.00092
       4 -> 33        -0.00011
       4 -> 38         0.00019
       4 -> 39        -0.00096
       4 -> 42         0.00034
       4 -> 46         0.00056
       4 -> 49        -0.00013
       5 -> 28        -0.00099
       5 -> 35        -0.00126
       5 -> 45        -0.00074
       6 -> 16         0.00423
       6 -> 19        -0.00133
       6 -> 22        -0.00017
       6 -> 24        -0.00257
       6 -> 29        -0.00180
       6 -> 32         0.00044
       6 -> 36         0.00054
       6 -> 40        -0.00041
       6 -> 43         0.00028
       6 -> 47        -0.00023
       6 -> 50        -0.00020
       6 -> 53         0.00011
       7 -> 11        -0.00252
       7 -> 16        -0.00361
       7 -> 19        -0.00161
       7 -> 22         0.00091
       7 -> 24         0.00280
       7 -> 29         0.00066
       7 -> 32        -0.00040
       7 -> 36         0.00069
       7 -> 40        -0.00013
       7 -> 43         0.00026
       7 -> 47        -0.00061
       7 -> 50        -0.00036
       7 -> 53         0.00016
       8 ->  9        -0.00082
       8 -> 12         0.70581
       8 -> 14         0.02883
       8 -> 15         0.02694
       8 -> 18         0.00972
       8 -> 20         0.01581
       8 -> 21         0.00511
       8 -> 25        -0.00084
       8 -> 26         0.00159
       8 -> 30        -0.00244
       8 -> 31         0.00022
       8 -> 33        -0.00029
       8 -> 38        -0.00024
       8 -> 39         0.00138
       8 -> 42        -0.00087
       8 -> 46        -0.00051
       8 -> 49         0.00015
       8 -> 54        -0.00015
       3 <- 16         0.00049
       3 <- 22         0.00013
       3 <- 24        -0.00043
       3 <- 29         0.00030
       3 <- 32         0.00013
       3 <- 36        -0.00024
       3 <- 43        -0.00020
       3 <- 47         0.00012
       3 <- 53        -0.00022
       4 <-  9        -0.00125
       4 <- 12        -0.00011
       4 <- 14         0.00138
       4 <- 15         0.00070
       4 <- 18         0.00063
       4 <- 20        -0.00043
       4 <- 21         0.00089
       4 <- 25         0.00097
       4 <- 26         0.00072
       4 <- 30        -0.00142
       4 <- 31        -0.00023
       4 <- 33        -0.00063
       4 <- 38         0.00013
       4 <- 39        -0.00072
       4 <- 42         0.00035
       4 <- 46         0.00053
       5 <- 28        -0.00057
       5 <- 35        -0.00108
       5 <- 45        -0.00065
       6 <- 11        -0.00032
       6 <- 16         0.00093
       6 <- 19         0.00052
       6 <- 22        -0.00071
       6 <- 24        -0.00186
       6 <- 29        -0.00124
       6 <- 32         0.00059
       6 <- 36         0.00057
       6 <- 40        -0.00037
       6 <- 43         0.00018
       6 <- 47        -0.00020
       6 <- 50        -0.00012
       7 <- 11        -0.00018
       7 <- 16        -0.00124
       7 <- 19        -0.00054
       7 <- 22         0.00049
       7 <- 24         0.00146
       7 <- 32        -0.00029
       7 <- 36         0.00032
       7 <- 43         0.00018
       7 <- 47        -0.00054
       7 <- 50        -0.00043
       8 <-  9        -0.00448
       8 <- 12         0.00123
       8 <- 14         0.01035
       8 <- 15         0.00384
       8 <- 18        -0.00120
       8 <- 20        -0.00289
       8 <- 21         0.00330
       8 <- 25         0.00065
       8 <- 26        -0.00017
       8 <- 30        -0.00215
       8 <- 31         0.00012
       8 <- 39         0.00117
       8 <- 42        -0.00076
       8 <- 46        -0.00042
 
 Excited State   4:      Singlet-A1     6.0403 eV  205.26 nm  f=0.0137  <S**2>=0.000
       3 ->  9         0.00122
       3 -> 12        -0.00054
       3 -> 14         0.00018
       3 -> 15        -0.00067
       3 -> 18        -0.00144
       3 -> 21         0.00070
       3 -> 25        -0.00053
       3 -> 26        -0.00026
       3 -> 30         0.00080
       3 -> 31        -0.00062
       3 -> 33         0.00036
       3 -> 38         0.00032
       3 -> 39         0.00032
       3 -> 46        -0.00012
       3 -> 51         0.00020
       3 -> 54        -0.00015
       4 -> 11        -0.00635
       4 -> 16        -0.00687
       4 -> 19        -0.00466
       4 -> 22        -0.00219
       4 -> 24         0.00333
       4 -> 29        -0.00047
       4 -> 36        -0.00104
       4 -> 43         0.00027
       4 -> 50         0.00023
       5 -> 10        -0.00403
       5 -> 13        -0.00315
       5 -> 17        -0.00354
       5 -> 23        -0.00338
       5 -> 27        -0.00100
       5 -> 34        -0.00091
       5 -> 37        -0.00058
       5 -> 41        -0.00018
       5 -> 48         0.00026
       6 ->  9         0.01059
       6 -> 12         0.00766
       6 -> 14        -0.00480
       6 -> 15        -0.00418
       6 -> 18        -0.00618
       6 -> 20         0.00561
       6 -> 21         0.00061
       6 -> 25        -0.00616
       6 -> 26         0.00101
       6 -> 30        -0.00038
       6 -> 31         0.00137
       6 -> 33         0.00184
       6 -> 38         0.00108
       6 -> 39        -0.00121
       6 -> 42         0.00010
       6 -> 44         0.00054
       6 -> 49         0.00046
       7 ->  9         0.00828
       7 -> 12        -0.01107
       7 -> 14         0.00109
       7 -> 15         0.00384
       7 -> 18        -0.00755
       7 -> 20        -0.00289
       7 -> 25         0.00132
       7 -> 26        -0.00227
       7 -> 30        -0.00033
       7 -> 31        -0.00166
       7 -> 33         0.00033
       7 -> 38        -0.00037
       7 -> 39         0.00040
       7 -> 44        -0.00026
       7 -> 51        -0.00019
       8 -> 11         0.70488
       8 -> 16         0.05066
       8 -> 19        -0.01745
       8 -> 22        -0.00013
       8 -> 24        -0.00524
       8 -> 29         0.00409
       8 -> 32         0.00185
       8 -> 36        -0.00311
       8 -> 40         0.00032
       8 -> 43         0.00179
       8 -> 47        -0.00080
       8 -> 50         0.00015
       3 <-  9         0.00064
       3 <- 12        -0.00026
       3 <- 14         0.00013
       3 <- 15        -0.00040
       3 <- 18        -0.00090
       3 <- 21         0.00043
       3 <- 25        -0.00043
       3 <- 26        -0.00021
       3 <- 30         0.00058
       3 <- 31        -0.00039
       3 <- 33         0.00032
       3 <- 38         0.00024
       3 <- 39         0.00027
       3 <- 46        -0.00016
       3 <- 51         0.00017
       3 <- 54        -0.00014
       4 <- 11        -0.00249
       4 <- 16        -0.00271
       4 <- 19        -0.00261
       4 <- 22        -0.00161
       4 <- 24         0.00178
       4 <- 29        -0.00022
       4 <- 32         0.00018
       4 <- 36        -0.00087
       4 <- 43         0.00025
       4 <- 50         0.00021
       5 <- 10        -0.00210
       5 <- 13        -0.00171
       5 <- 17        -0.00206
       5 <- 23        -0.00229
       5 <- 27        -0.00071
       5 <- 34        -0.00074
       5 <- 37        -0.00049
       5 <- 41        -0.00015
       5 <- 48         0.00024
       6 <-  9         0.00796
       6 <- 12         0.00364
       6 <- 14        -0.00375
       6 <- 15        -0.00346
       6 <- 18        -0.00339
       6 <- 20         0.00318
       6 <- 21         0.00125
       6 <- 25        -0.00407
       6 <- 26         0.00059
       6 <- 30         0.00014
       6 <- 31         0.00106
       6 <- 33         0.00133
       6 <- 38         0.00111
       6 <- 39        -0.00095
       6 <- 44         0.00054
       6 <- 49         0.00038
       7 <-  9         0.00108
       7 <- 12        -0.00432
       7 <- 14         0.00141
       7 <- 15         0.00268
       7 <- 18        -0.00352
       7 <- 20        -0.00136
       7 <- 21        -0.00033
       7 <- 25         0.00090
       7 <- 26        -0.00142
       7 <- 30        -0.00041
       7 <- 31        -0.00129
       7 <- 33         0.00022
       7 <- 38        -0.00034
       7 <- 39         0.00021
       7 <- 44        -0.00027
       7 <- 46         0.00010
       7 <- 51        -0.00018
       8 <- 11        -0.00810
       8 <- 16         0.00495
       8 <- 19        -0.01478
       8 <- 22        -0.00364
       8 <- 24        -0.00144
       8 <- 29         0.00276
       8 <- 32         0.00164
       8 <- 36        -0.00244
       8 <- 40         0.00010
       8 <- 43         0.00143
       8 <- 47        -0.00079
       8 <- 50         0.00015
 
 Excited State   5:      Singlet-A2     7.9958 eV  155.06 nm  f=0.0000  <S**2>=0.000
       3 -> 28         0.00267
       3 -> 35         0.00184
       3 -> 45         0.00067
       4 -> 10         0.00144
       4 -> 13        -0.00855
       4 -> 17         0.00128
       4 -> 23        -0.00350
       4 -> 27         0.00076
       4 -> 34         0.00131
       4 -> 37         0.00289
       4 -> 52         0.00041
       5 -> 16        -0.00081
       5 -> 19        -0.00044
       5 -> 22         0.00159
       5 -> 24         0.00058
       5 -> 29        -0.00012
       5 -> 32         0.00011
       5 -> 36         0.00049
       5 -> 43         0.00064
       5 -> 47         0.00052
       5 -> 50        -0.00013
       5 -> 53         0.00017
       6 -> 28         0.00293
       6 -> 35        -0.00074
       6 -> 45         0.00011
       7 -> 28        -0.00084
       7 -> 35         0.00037
       7 -> 45         0.00068
       8 -> 10         0.03905
       8 -> 13         0.70397
       8 -> 17        -0.04901
       8 -> 23         0.02161
       8 -> 27        -0.00294
       8 -> 34        -0.00276
       8 -> 37         0.00279
       8 -> 52        -0.00046
       3 <- 28         0.00182
       3 <- 35         0.00151
       3 <- 45         0.00074
       4 <- 10         0.00033
       4 <- 13        -0.00081
       4 <- 17         0.00032
       4 <- 23        -0.00014
       4 <- 27         0.00019
       4 <- 34        -0.00065
       4 <- 37         0.00109
       4 <- 41         0.00034
       4 <- 52         0.00014
       5 <- 11         0.00031
       5 <- 16        -0.00029
       5 <- 19        -0.00074
       5 <- 22         0.00220
       5 <- 24         0.00164
       5 <- 29         0.00043
       5 <- 32        -0.00067
       5 <- 36         0.00134
       5 <- 43         0.00080
       5 <- 47         0.00023
       5 <- 53         0.00036
       6 <- 28         0.00319
       6 <- 35        -0.00050
       6 <- 45        -0.00012
       7 <- 28        -0.00090
       7 <- 45         0.00043
       8 <- 10         0.00608
       8 <- 13        -0.00401
       8 <- 17         0.00363
       8 <- 23        -0.00075
       8 <- 27         0.00047
       8 <- 34        -0.00297
       8 <- 37         0.00172
       8 <- 41        -0.00018
       8 <- 52        -0.00019
 
 Excited State   6:      Singlet-B2     9.1236 eV  135.89 nm  f=0.0897  <S**2>=0.000
       3 -> 11         0.00039
       3 -> 16        -0.00073
       3 -> 19         0.00083
       3 -> 22        -0.00039
       3 -> 24         0.00022
       3 -> 29        -0.00064
       3 -> 32         0.00051
       3 -> 36         0.00011
       3 -> 40        -0.00040
       3 -> 43        -0.00026
       3 -> 47        -0.00018
       4 ->  9         0.00321
       4 -> 12        -0.00384
       4 -> 14        -0.00793
       4 -> 15         0.00023
       4 -> 18        -0.00159
       4 -> 20        -0.00502
       4 -> 21        -0.00687
       4 -> 25        -0.00220
       4 -> 26        -0.00026
       4 -> 30        -0.00236
       4 -> 31         0.00023
       4 -> 33        -0.00054
       4 -> 38        -0.00094
       4 -> 39         0.00081
       4 -> 44        -0.00018
       4 -> 46         0.00017
       4 -> 51         0.00021
       4 -> 54         0.00018
       5 -> 28        -0.00354
       5 -> 45         0.00034
       6 -> 11         0.01267
       6 -> 16        -0.00788
       6 -> 19         0.00892
       6 -> 22         0.00261
       6 -> 24         0.00835
       6 -> 29         0.00088
       6 -> 32        -0.00269
       6 -> 36         0.00267
       6 -> 40         0.00014
       6 -> 43        -0.00108
       6 -> 47         0.00021
       6 -> 50         0.00012
       7 -> 11        -0.00739
       7 -> 16        -0.00019
       7 -> 19        -0.00390
       7 -> 22         0.00013
       7 -> 24        -0.00203
       7 -> 29        -0.00064
       7 -> 32         0.00050
       7 -> 36        -0.00087
       7 -> 43         0.00051
       7 -> 47         0.00011
       8 ->  9        -0.03739
       8 -> 12        -0.00272
       8 -> 14         0.51656
       8 -> 15        -0.48043
       8 -> 18         0.00020
       8 -> 20        -0.01545
       8 -> 21        -0.03206
       8 -> 25        -0.01187
       8 -> 26         0.00374
       8 -> 30         0.00421
       8 -> 31         0.00225
       8 -> 33         0.00200
       8 -> 38        -0.00278
       8 -> 39         0.00149
       8 -> 42         0.00185
       8 -> 44        -0.00190
       8 -> 46         0.00022
       8 -> 49        -0.00044
       8 -> 51         0.00014
       3 <- 11         0.00011
       3 <- 16        -0.00029
       3 <- 19         0.00024
       3 <- 22        -0.00032
       3 <- 24         0.00035
       3 <- 29        -0.00016
       3 <- 32         0.00033
       3 <- 36         0.00014
       3 <- 40        -0.00033
       3 <- 43        -0.00025
       3 <- 47        -0.00016
       4 <-  9         0.00101
       4 <- 12        -0.00041
       4 <- 14        -0.00377
       4 <- 15        -0.00161
       4 <- 18        -0.00026
       4 <- 20        -0.00256
       4 <- 21        -0.00369
       4 <- 25        -0.00125
       4 <- 26         0.00076
       4 <- 30        -0.00126
       4 <- 31        -0.00015
       4 <- 33         0.00010
       4 <- 38        -0.00083
       4 <- 39         0.00051
       4 <- 44        -0.00029
       5 <- 28        -0.00271
       5 <- 35         0.00028
       5 <- 45         0.00044
       6 <- 11         0.00377
       6 <- 16        -0.00285
       6 <- 19         0.00268
       6 <- 22         0.00277
       6 <- 24         0.00482
       6 <- 29         0.00021
       6 <- 32        -0.00145
       6 <- 36         0.00176
       6 <- 40         0.00022
       6 <- 43        -0.00088
       6 <- 47         0.00023
       6 <- 53        -0.00011
       7 <- 11        -0.00159
       7 <- 16        -0.00037
       7 <- 19        -0.00056
       7 <- 22        -0.00078
       7 <- 24        -0.00131
       7 <- 29        -0.00089
       7 <- 32         0.00012
       7 <- 36        -0.00061
       7 <- 43         0.00041
       8 <-  9         0.01179
       8 <- 12         0.00643
       8 <- 14        -0.02274
       8 <- 15        -0.00736
       8 <- 18         0.00060
       8 <- 20        -0.00106
       8 <- 21        -0.01656
       8 <- 25        -0.00369
       8 <- 26         0.00024
       8 <- 30         0.00242
       8 <- 31         0.00057
       8 <- 33         0.00107
       8 <- 38        -0.00187
       8 <- 39         0.00090
       8 <- 42         0.00139
       8 <- 44        -0.00111
       8 <- 46         0.00015
       8 <- 49        -0.00037
       8 <- 51         0.00013
 
 Excited State   7:      Singlet-B2     9.5898 eV  129.29 nm  f=0.3736  <S**2>=0.000
       3 -> 16        -0.00132
       3 -> 19         0.00088
       3 -> 22        -0.00185
       3 -> 24         0.00044
       3 -> 29        -0.00135
       3 -> 32         0.00113
       3 -> 36        -0.00058
       3 -> 40        -0.00068
       3 -> 43        -0.00083
       4 ->  9         0.00402
       4 -> 12        -0.00152
       4 -> 14        -0.01192
       4 -> 15        -0.00965
       4 -> 18        -0.00238
       4 -> 20        -0.01053
       4 -> 21        -0.00776
       4 -> 25        -0.00393
       4 -> 26         0.00393
       4 -> 30        -0.00451
       4 -> 31        -0.00262
       4 -> 33        -0.00031
       4 -> 38        -0.00065
       4 -> 39         0.00064
       4 -> 42         0.00011
       4 -> 44         0.00031
       4 -> 51        -0.00025
       5 -> 28        -0.00678
       5 -> 35        -0.00117
       5 -> 45         0.00016
       6 -> 11         0.01966
       6 -> 16        -0.00897
       6 -> 19         0.00981
       6 -> 22         0.00684
       6 -> 24         0.01252
       6 -> 29        -0.00039
       6 -> 32        -0.00103
       6 -> 36         0.00288
       6 -> 40        -0.00036
       6 -> 43        -0.00156
       6 -> 47         0.00011
       6 -> 50         0.00021
       7 -> 11        -0.01651
       7 -> 16        -0.00593
       7 -> 19        -0.00745
       7 -> 22        -0.00456
       7 -> 24        -0.00032
       7 -> 29        -0.00237
       7 -> 32        -0.00053
       7 -> 36        -0.00096
       7 -> 40         0.00034
       7 -> 43         0.00059
       8 ->  9        -0.02339
       8 -> 12        -0.04000
       8 -> 14         0.47680
       8 -> 15         0.51699
       8 -> 18         0.03322
       8 -> 20        -0.00237
       8 -> 21        -0.05535
       8 -> 25        -0.00449
       8 -> 26        -0.00356
       8 -> 30         0.00517
       8 -> 31         0.00456
       8 -> 33         0.00285
       8 -> 38        -0.00173
       8 -> 39         0.00321
       8 -> 42         0.00294
       8 -> 44        -0.00157
       8 -> 46        -0.00023
       8 -> 49        -0.00031
       3 <- 11         0.00024
       3 <- 16        -0.00076
       3 <- 19         0.00077
       3 <- 22        -0.00105
       3 <- 24         0.00012
       3 <- 29        -0.00109
       3 <- 32         0.00083
       3 <- 36        -0.00047
       3 <- 40        -0.00052
       3 <- 43        -0.00067
       4 <-  9         0.00223
       4 <- 12        -0.00108
       4 <- 14        -0.00606
       4 <- 15        -0.00339
       4 <- 18        -0.00160
       4 <- 20        -0.00516
       4 <- 21        -0.00453
       4 <- 25        -0.00253
       4 <- 26         0.00207
       4 <- 30        -0.00314
       4 <- 31        -0.00129
       4 <- 33         0.00032
       4 <- 38        -0.00046
       4 <- 39         0.00031
       4 <- 42         0.00014
       4 <- 51        -0.00011
       5 <- 28        -0.00461
       5 <- 35        -0.00071
       5 <- 45         0.00022
       6 <- 11         0.00434
       6 <- 16        -0.00473
       6 <- 19         0.00185
       6 <- 22         0.00300
       6 <- 24         0.00813
       6 <- 29         0.00022
       6 <- 36         0.00220
       6 <- 40        -0.00015
       6 <- 43        -0.00117
       6 <- 47         0.00013
       7 <- 11        -0.00331
       7 <- 16        -0.00073
       7 <- 19        -0.00216
       7 <- 22        -0.00150
       7 <- 24        -0.00067
       7 <- 29        -0.00114
       7 <- 32        -0.00080
       7 <- 36        -0.00064
       7 <- 40         0.00022
       7 <- 43         0.00044
       8 <-  9         0.01956
       8 <- 12         0.01164
       8 <- 14        -0.03630
       8 <- 15        -0.00935
       8 <- 18         0.00112
       8 <- 20        -0.00448
       8 <- 21        -0.02121
       8 <- 25        -0.00645
       8 <- 26         0.00107
       8 <- 30         0.00252
       8 <- 31         0.00274
       8 <- 33         0.00200
       8 <- 38        -0.00070
       8 <- 39         0.00200
       8 <- 42         0.00223
       8 <- 44        -0.00108
       8 <- 49        -0.00028
 
 Excited State   8:      Singlet-A1     9.7446 eV  127.23 nm  f=0.0031  <S**2>=0.000
       3 ->  9        -0.00013
       3 -> 12         0.00031
       3 -> 14        -0.00091
       3 -> 15         0.00094
       3 -> 18         0.00051
       3 -> 20         0.00068
       3 -> 21        -0.00113
       3 -> 25         0.00090
       3 -> 33        -0.00159
       3 -> 39         0.00019
       3 -> 42         0.00050
       3 -> 44         0.00011
       3 -> 46         0.00047
       3 -> 49         0.00051
       3 -> 51         0.00060
       3 -> 54        -0.00036
       4 -> 11         0.00069
       4 -> 16         0.00094
       4 -> 19         0.00126
       4 -> 22         0.00254
       4 -> 24        -0.00089
       4 -> 29         0.00056
       4 -> 32         0.00081
       4 -> 36         0.00045
       4 -> 40        -0.00033
       4 -> 43        -0.00073
       4 -> 47         0.00074
       4 -> 50         0.00073
       4 -> 53         0.00019
       5 -> 10         0.00754
       5 -> 13         0.00151
       5 -> 17         0.00729
       5 -> 23         0.00186
       5 -> 27         0.00475
       5 -> 34         0.00038
       5 -> 37        -0.00045
       5 -> 48         0.00123
       5 -> 52         0.00056
       6 ->  9        -0.01403
       6 -> 12         0.00126
       6 -> 14        -0.00045
       6 -> 15         0.00297
       6 -> 18         0.00847
       6 -> 20        -0.00691
       6 -> 21        -0.00347
       6 -> 25         0.00097
       6 -> 26         0.00230
       6 -> 30        -0.00173
       6 -> 31         0.00026
       6 -> 33         0.00091
       6 -> 38        -0.00175
       6 -> 39         0.00022
       6 -> 44        -0.00064
       6 -> 46         0.00029
       6 -> 51        -0.00067
       7 ->  9        -0.00667
       7 -> 12         0.00597
       7 -> 14         0.00115
       7 -> 15        -0.01029
       7 -> 18         0.00523
       7 -> 20         0.00077
       7 -> 21         0.00345
       7 -> 25         0.00044
       7 -> 26         0.00759
       7 -> 30         0.00164
       7 -> 31         0.00095
       7 -> 33        -0.00122
       7 -> 38         0.00025
       7 -> 39        -0.00067
       7 -> 44        -0.00039
       7 -> 46         0.00084
       7 -> 49         0.00033
       7 -> 51        -0.00112
       7 -> 54        -0.00060
       8 -> 11        -0.04878
       8 -> 16         0.70283
[...]
  48        5S          0.00184   0.00000  -0.02498  -0.03298  -0.00800
  49        5PX         0.00000   0.00000   0.00000   0.00000   0.00000
  50        5PY         0.00000  -0.00000  -0.05295  -0.08882  -0.10240
  51        5PZ        -0.00005  -0.00000   0.00483   0.00699   0.00017
  52        6D 0       -0.00032  -0.00000  -0.00295  -0.00507   0.00115
  53        6D+1       -0.00000   0.00000   0.00000  -0.00000  -0.00000
  54        6D-1       -0.00000   0.00000  -0.00116   0.00080   0.01107
  55        6D+2       -0.00001   0.00000  -0.00023  -0.00037  -0.00002
  56        6D-2        0.00000  -0.00000  -0.00000  -0.00000   0.00000
                          26        27        28        29        30
  26        4PX         0.00009
  27        4PY        -0.00000   0.00162
  28        4PZ         0.00000  -0.00072   0.00056
  29 3   H  1S          0.00000  -0.00487  -0.00027   0.08719
  30        2S          0.00000  -0.00700  -0.00044   0.13226   0.20472
  31        3S          0.00000  -0.00273  -0.00003   0.10592   0.17622
  32        4PX         0.00009   0.00000   0.00000  -0.00000  -0.00000
  33        4PY         0.00000  -0.00086  -0.00008   0.00634   0.00809
  34        4PZ        -0.00000   0.00008  -0.00033   0.00391   0.00508
  35 4   O  1S          0.00000  -0.00169  -0.00053   0.00486   0.00822
  36        2S          0.00000  -0.00328  -0.00042   0.00864   0.01454
  37        2PX         0.00357   0.00000  -0.00000  -0.00000  -0.00000
  38        2PY         0.00000  -0.00765   0.00695   0.02790   0.05990
  39        2PZ         0.00000  -0.00771   0.00005   0.00776   0.01964
  40        3S         -0.00000   0.01114  -0.00042  -0.02892  -0.04722
  41        3PX         0.00494   0.00000  -0.00000  -0.00000  -0.00000
  42        3PY         0.00000  -0.01053   0.00941   0.04555   0.09434
  43        3PZ         0.00000  -0.00973  -0.00000   0.00872   0.02368
  44        4S         -0.00000   0.00895  -0.00156  -0.04157  -0.05646
  45        4PX         0.00256   0.00000  -0.00000  -0.00000  -0.00000
  46        4PY         0.00000  -0.00613   0.00438   0.07257   0.13143
  47        4PZ         0.00000  -0.00525  -0.00000   0.00387   0.01185
  48        5S         -0.00000   0.00503  -0.00132  -0.02498  -0.03298
  49        5PX        -0.00019   0.00000   0.00000  -0.00000  -0.00000
  50        5PY         0.00000  -0.00049  -0.00077   0.05295   0.08882
  51        5PZ         0.00000  -0.00138   0.00023   0.00483   0.00699
  52        6D 0       -0.00000   0.00135  -0.00012  -0.00295  -0.00507
  53        6D+1       -0.00078  -0.00000   0.00000  -0.00000   0.00000
  54        6D-1       -0.00000   0.00153  -0.00155   0.00116  -0.00080
  55        6D+2       -0.00000   0.00008  -0.00001  -0.00023  -0.00037
  56        6D-2       -0.00000   0.00000   0.00000  -0.00000  -0.00000
                          31        32        33        34        35
  31        3S          0.20361
  32        4PX         0.00000   0.00009
  33        4PY        -0.00112  -0.00000   0.00162
  34        4PZ         0.00086  -0.00000   0.00072   0.00056
  35 4   O  1S          0.00347  -0.00000   0.00169  -0.00053   0.64144
  36        2S          0.00470  -0.00000   0.00328  -0.00042   0.57428
  37        2PX        -0.00000   0.00357   0.00000   0.00000   0.00000
  38        2PY         0.11765   0.00000  -0.00765  -0.00695  -0.00000
  39        2PZ        -0.01657  -0.00000   0.00771   0.00005   0.00841
  40        3S         -0.01048   0.00000  -0.01114  -0.00042  -0.11771
  41        3PX        -0.00000   0.00494   0.00000   0.00000   0.00000
  42        3PY         0.17522   0.00000  -0.01053  -0.00941  -0.00000
  43        3PZ        -0.02201  -0.00000   0.00973  -0.00000   0.00124
  44        4S         -0.02437   0.00000  -0.00895  -0.00156  -0.11313
  45        4PX        -0.00000   0.00256   0.00000   0.00000   0.00000
  46        4PY         0.18744   0.00000  -0.00613  -0.00438   0.00000
  47        4PZ        -0.01389  -0.00000   0.00525  -0.00000  -0.01135
  48        5S         -0.00800   0.00000  -0.00503  -0.00132  -0.02105
  49        5PX        -0.00000  -0.00019   0.00000  -0.00000   0.00000
  50        5PY         0.10240   0.00000  -0.00049   0.00077  -0.00000
  51        5PZ         0.00017  -0.00000   0.00138   0.00023   0.00466
  52        6D 0        0.00115   0.00000  -0.00135  -0.00012  -0.00156
  53        6D+1        0.00000  -0.00078  -0.00000  -0.00000   0.00000
  54        6D-1       -0.01107  -0.00000   0.00153   0.00155   0.00000
  55        6D+2       -0.00002   0.00000  -0.00008  -0.00001  -0.00042
  56        6D-2        0.00000   0.00000  -0.00000   0.00000  -0.00000
                          36        37        38        39        40
  36        2S          0.53406
  37        2PX         0.00000   0.14137
  38        2PY        -0.00000   0.00000   0.18588
  39        2PZ         0.01620  -0.00000   0.00000   0.24624
  40        3S         -0.22137   0.00000   0.00000  -0.05476   0.69790
  41        3PX         0.00000   0.19530   0.00000   0.00000   0.00000
  42        3PY        -0.00000   0.00000   0.26140  -0.00000   0.00000
  43        3PZ         0.01116  -0.00000   0.00000   0.32082  -0.06225
  44        4S         -0.20296   0.00000   0.00000   0.10002   0.61403
  45        4PX         0.00000   0.10117  -0.00000   0.00000   0.00000
  46        4PY         0.00000  -0.00000   0.18763  -0.00000  -0.00000
  47        4PZ        -0.01126  -0.00000   0.00000   0.19077   0.00629
  48        5S         -0.04120   0.00000   0.00000   0.00929   0.13596
  49        5PX         0.00000  -0.00749  -0.00000   0.00000   0.00000
  50        5PY        -0.00000  -0.00000   0.05115  -0.00000   0.00000
  51        5PZ         0.00805  -0.00000   0.00000   0.01570  -0.02397
  52        6D 0       -0.00534   0.00000  -0.00000  -0.02665   0.02358
  53        6D+1       -0.00000  -0.03098   0.00000  -0.00000   0.00000
  54        6D-1        0.00000   0.00000  -0.03208   0.00000  -0.00000
  55        6D+2       -0.00088  -0.00000  -0.00000  -0.00085   0.00302
  56        6D-2       -0.00000   0.00000   0.00000   0.00000   0.00000
                          41        42        43        44        45
  41        3PX         0.26980
  42        3PY        -0.00000   0.36835
  43        3PZ        -0.00000   0.00000   0.41827
  44        4S          0.00000   0.00000   0.13953   0.64428
  45        4PX         0.13976  -0.00000   0.00000   0.00000   0.07240
  46        4PY        -0.00000   0.26917  -0.00000  -0.00000  -0.00000
  47        4PZ        -0.00000   0.00000   0.24937   0.12294  -0.00000
  48        5S          0.00000   0.00000   0.01461   0.14515   0.00000
  49        5PX        -0.01035  -0.00000   0.00000   0.00000  -0.00536
  50        5PY        -0.00000   0.07735  -0.00000   0.00000  -0.00000
  51        5PZ        -0.00000   0.00000   0.02005  -0.01500  -0.00000
  52        6D 0        0.00000  -0.00000  -0.03442   0.00643   0.00000
  53        6D+1       -0.04279   0.00000  -0.00000   0.00000  -0.02217
  54        6D-1        0.00000  -0.04440   0.00000  -0.00000   0.00000
  55        6D+2       -0.00000  -0.00000  -0.00107   0.00234  -0.00000
  56        6D-2        0.00000   0.00000   0.00000   0.00000   0.00000
                          46        47        48        49        50
  46        4PY         0.22677
  47        4PZ         0.00000   0.15147
  48        5S          0.00000   0.01713   0.04170
  49        5PX        -0.00000   0.00000   0.00000   0.00040
  50        5PY         0.08974  -0.00000   0.00000  -0.00000   0.05293
  51        5PZ         0.00000   0.01067  -0.00594  -0.00000   0.00000
  52        6D 0       -0.00000  -0.01934   0.00353  -0.00000  -0.00000
  53        6D+1        0.00000  -0.00000   0.00000   0.00164   0.00000
  54        6D-1       -0.02735   0.00000  -0.00000   0.00000  -0.00370
  55        6D+2       -0.00000  -0.00046   0.00060  -0.00000  -0.00000
  56        6D-2        0.00000  -0.00000   0.00000  -0.00000   0.00000
                          51        52        53        54        55
  51        5PZ         0.00204
  52        6D 0       -0.00240   0.00351
  53        6D+1       -0.00000  -0.00000   0.00679
  54        6D-1        0.00000   0.00000   0.00000   0.00621
  55        6D+2       -0.00015   0.00018  -0.00000   0.00000   0.00002
  56        6D-2        0.00000   0.00000  -0.00000   0.00000   0.00000
                          56
  56        6D-2        0.00000
          Condensed to atoms (all electrons):
               1          2          3          4
     1  C    4.733046   0.527592   0.527592  -0.121694
     2  H    0.527592   1.041870  -0.234022  -0.251226
     3  H    0.527592  -0.234022   1.041870  -0.251226
     4  O   -0.121694  -0.251226  -0.251226   8.789180
 Mulliken charges:
               1
     1  C    0.333464
     2  H   -0.084215
     3  H   -0.084215
     4  O   -0.165034
 Sum of Mulliken charges =   0.00000
 Mulliken charges with hydrogens summed into heavy atoms:
               1
     1  C    0.165034
     4  O   -0.165034
 Electronic spatial extent (au):  <R**2>=             46.2630
 Charge=             -0.0000 electrons
 Dipole moment (field-independent basis, Debye):
    X=              0.0000    Y=             -0.0000    Z=              0.9074  Tot=              0.9074
 Quadrupole moment (field-independent basis, Debye-Ang):
   XX=            -10.2964   YY=            -13.4065   ZZ=            -13.5900
   XY=             -0.0000   XZ=             -0.0000   YZ=             -0.0000
 Traceless Quadrupole moment (field-independent basis, Debye-Ang):
   XX=              2.1346   YY=             -0.9756   ZZ=             -1.1590
   XY=             -0.0000   XZ=             -0.0000   YZ=             -0.0000
 Octapole moment (field-independent basis, Debye-Ang**2):
  XXX=              0.0000  YYY=             -0.0000  ZZZ=              5.9724  XYY=              0.0000
  XXY=             -0.0000  XXZ=              1.8395  XZZ=              0.0000  YZZ=              0.0000
  YYZ=              4.7371  XYZ=              0.0000
 Hexadecapole moment (field-independent basis, Debye-Ang**3):
 XXXX=             -8.7098 YYYY=            -32.2536 ZZZZ=            -33.8938 XXXY=             -0.0000
 XXXZ=             -0.0000 YYYX=             -0.0000 YYYZ=             -0.0000 ZZZX=             -0.0000
 ZZZY=              0.0000 XXYY=             -6.5708 XXZZ=             -6.8036 YYZZ=            -13.0093
 XXYZ=             -0.0000 YYXZ=             -0.0000 ZZXY=             -0.0000
 N-N= 4.733423826397D+01 E-N=-3.647868937237D+02  KE= 1.201206527939D+02
 Symmetry A1   KE= 1.081079963001D+02
 Symmetry A2   KE= 1.107265405369D-35
 Symmetry B1   KE= 4.855323738288D+00
 Symmetry B2   KE= 7.157332755513D+00
 Leave Link  601 at Fri Sep 17 10:52:23 2021, MaxMem=   268435456 cpu:               0.1 elap:               0.0
 (Enter /software/gaussian/g16-a03/l9999.exe)
 Electronic transition elements 
                 1             2             3             4             5 
      1  -0.112923D+03 -0.112913D+03 -0.112890D+03 -0.112884D+03 -0.112812D+03
      2   0.000000D+00  0.000000D+00  0.000000D+00  0.000000D+00  0.000000D+00
      3   0.984286D+00  0.000000D+00  0.471896D+00  0.000000D+00  0.000000D+00
      4   0.000000D+00  0.000000D+00  0.000000D+00  0.303844D+00  0.000000D+00
      5   0.000000D+00  0.000000D+00  0.000000D+00  0.000000D+00  0.000000D+00
      6  -0.171026D+00  0.000000D+00 -0.993897D-01  0.000000D+00  0.000000D+00
      7   0.000000D+00  0.000000D+00  0.000000D+00 -0.653685D-01  0.000000D+00
      8  -0.435036D+00  0.000000D+00  0.788635D+00  0.000000D+00  0.000000D+00
      9   0.000000D+00  0.000000D+00  0.000000D+00  0.000000D+00  0.000000D+00
     10   0.000000D+00 -0.964969D+00  0.000000D+00  0.000000D+00  0.875625D+00
     11   0.000000D+00  0.000000D+00  0.000000D+00  0.266540D+00  0.000000D+00
     12   0.000000D+00  0.000000D+00  0.000000D+00  0.782135D+00  0.000000D+00
     13   0.000000D+00  0.000000D+00  0.000000D+00  0.124017D+00  0.000000D+00
     14   0.000000D+00  0.340319D+00  0.000000D+00  0.000000D+00 -0.617167D-01
     15   0.000000D+00  0.000000D+00  0.000000D+00  0.000000D+00  0.000000D+00
     16   0.396465D+00  0.000000D+00  0.426602D+00  0.000000D+00  0.000000D+00
                 6             7             8             9            10 
      1  -0.112771D+03 -0.112754D+03 -0.112748D+03 -0.112727D+03 -0.112699D+03
      2   0.000000D+00  0.000000D+00  0.000000D+00  0.000000D+00  0.000000D+00
      3  -0.633473D+00 -0.126101D+01  0.000000D+00  0.000000D+00  0.392900D+00
      4   0.000000D+00  0.000000D+00 -0.113859D+00  0.000000D+00  0.000000D+00
      5   0.000000D+00  0.000000D+00  0.000000D+00  0.000000D+00  0.000000D+00
      6   0.232016D+00  0.420119D+00  0.000000D+00  0.000000D+00 -0.153885D+00
      7   0.000000D+00  0.000000D+00  0.350903D-01  0.000000D+00  0.000000D+00
      8  -0.187074D+00  0.123712D+01  0.000000D+00  0.000000D+00  0.113389D+00
      9   0.000000D+00  0.000000D+00  0.000000D+00  0.000000D+00  0.000000D+00
     10   0.000000D+00  0.000000D+00  0.000000D+00 -0.441749D+00  0.000000D+00
     11   0.000000D+00  0.000000D+00 -0.235038D+00  0.000000D+00  0.000000D+00
     12   0.000000D+00  0.000000D+00 -0.615361D+00  0.000000D+00  0.000000D+00
     13   0.000000D+00  0.000000D+00 -0.570615D+00  0.000000D+00  0.000000D+00
     14   0.000000D+00  0.000000D+00  0.000000D+00 -0.170184D+00  0.000000D+00
     15   0.000000D+00  0.000000D+00  0.000000D+00  0.000000D+00  0.000000D+00
     16  -0.775954D+00 -0.650501D+00  0.000000D+00  0.000000D+00  0.836085D-01
                11            12            13            14            15 
      1  -0.112656D+03 -0.112588D+03 -0.112586D+03 -0.112571D+03 -0.112550D+03
      2   0.000000D+00  0.000000D+00  0.000000D+00  0.246631D-01  0.000000D+00
      3   0.000000D+00 -0.196027D+00  0.000000D+00  0.000000D+00 -0.312480D+00
      4   0.937526D+00  0.000000D+00  0.245756D+00  0.000000D+00  0.000000D+00
      5   0.000000D+00  0.000000D+00  0.000000D+00 -0.254480D-01  0.000000D+00
      6   0.000000D+00  0.706347D-01  0.000000D+00  0.000000D+00  0.171615D+00
      7  -0.410672D+00  0.000000D+00 -0.125298D+00  0.000000D+00  0.000000D+00
      8   0.000000D+00  0.146456D+01  0.000000D+00  0.000000D+00 -0.302893D+00
      9   0.000000D+00  0.000000D+00  0.000000D+00 -0.683394D-01  0.000000D+00
     10   0.000000D+00  0.000000D+00  0.000000D+00  0.000000D+00  0.000000D+00
     11   0.928205D-02  0.000000D+00 -0.795584D-01  0.000000D+00  0.000000D+00
     12   0.989930D+00  0.000000D+00 -0.706168D-01  0.000000D+00  0.000000D+00
     13   0.878432D+00  0.000000D+00 -0.283552D+00  0.000000D+00  0.000000D+00
     14   0.000000D+00  0.000000D+00  0.000000D+00  0.000000D+00  0.000000D+00
     15   0.000000D+00  0.000000D+00  0.000000D+00  0.179646D+00  0.000000D+00
     16   0.000000D+00 -0.204257D+00  0.000000D+00  0.000000D+00  0.274522D+00
                16            17            18            19            20 
      1  -0.112547D+03 -0.112541D+03 -0.112539D+03 -0.112517D+03 -0.112517D+03
      2   0.000000D+00  0.000000D+00 -0.555081D+00  0.000000D+00  0.000000D+00
      3   0.000000D+00  0.000000D+00  0.000000D+00 -0.143813D+00  0.000000D+00
      4  -0.181971D+00  0.614685D-01  0.000000D+00  0.000000D+00 -0.570814D+00
      5   0.000000D+00  0.000000D+00  0.305770D+00  0.000000D+00  0.000000D+00
      6   0.000000D+00  0.000000D+00  0.000000D+00  0.903842D-01  0.000000D+00
      7   0.104552D+00 -0.286296D-01  0.000000D+00  0.000000D+00  0.328904D+00
      8   0.000000D+00  0.000000D+00  0.000000D+00 -0.127731D+00  0.000000D+00
      9   0.000000D+00  0.000000D+00 -0.600387D+00  0.000000D+00  0.000000D+00
     10   0.000000D+00  0.000000D+00  0.000000D+00  0.000000D+00  0.000000D+00
     11  -0.228064D+00  0.433582D+00  0.000000D+00  0.000000D+00 -0.139553D+00
     12  -0.440814D+00  0.705169D+00  0.000000D+00  0.000000D+00 -0.239639D+00
     13   0.685781D-01  0.775669D+00  0.000000D+00  0.000000D+00 -0.103529D+01
     14   0.000000D+00  0.000000D+00  0.000000D+00  0.000000D+00  0.000000D+00
     15   0.000000D+00  0.000000D+00 -0.581104D+00  0.000000D+00  0.000000D+00
     16   0.000000D+00  0.000000D+00  0.000000D+00  0.523714D-01  0.000000D+00
                21            22            23            24            25 
      1  -0.112470D+03 -0.112458D+03 -0.112431D+03 -0.112429D+03 -0.112419D+03
      2  -0.536061D+00  0.000000D+00  0.000000D+00  0.444642D+00  0.000000D+00
      3   0.000000D+00  0.000000D+00  0.000000D+00  0.000000D+00 -0.335858D+00
      4   0.000000D+00 -0.158128D+00  0.440676D+00  0.000000D+00  0.000000D+00
      5   0.346974D+00  0.000000D+00  0.000000D+00 -0.315134D+00  0.000000D+00
      6   0.000000D+00  0.000000D+00  0.000000D+00  0.000000D+00  0.232696D+00
      7   0.000000D+00  0.101528D+00 -0.296159D+00  0.000000D+00  0.000000D+00
      8   0.000000D+00  0.000000D+00  0.000000D+00  0.000000D+00 -0.294167D+00
      9   0.895029D+00  0.000000D+00  0.000000D+00  0.620114D+00  0.000000D+00
     10   0.000000D+00  0.000000D+00  0.000000D+00  0.000000D+00  0.000000D+00
     11   0.000000D+00 -0.662667D-01 -0.626802D-02  0.000000D+00  0.000000D+00
     12   0.000000D+00 -0.250016D+00  0.225361D+00  0.000000D+00  0.000000D+00
     13   0.000000D+00  0.140268D+00 -0.902858D+00  0.000000D+00  0.000000D+00
     14   0.000000D+00  0.000000D+00  0.000000D+00  0.000000D+00  0.000000D+00
     15   0.647049D+00  0.000000D+00  0.000000D+00  0.512675D+00  0.000000D+00
     16   0.000000D+00  0.000000D+00  0.000000D+00  0.000000D+00  0.533764D+00
                26            27            28            29            30 
      1  -0.112419D+03 -0.112417D+03 -0.112399D+03 -0.112394D+03 -0.112392D+03
      2   0.000000D+00  0.534544D-01  0.000000D+00  0.000000D+00 -0.687294D-01
      3   0.000000D+00  0.000000D+00 -0.194198D+00  0.000000D+00  0.000000D+00
      4   0.162137D+00  0.000000D+00  0.000000D+00  0.152778D+00  0.000000D+00
      5   0.000000D+00 -0.408945D-01  0.000000D+00  0.000000D+00  0.517020D-01
      6   0.000000D+00  0.000000D+00  0.161446D+00  0.000000D+00  0.000000D+00
      7  -0.124311D+00  0.000000D+00  0.000000D+00 -0.107819D+00  0.000000D+00
      8   0.000000D+00  0.000000D+00  0.805466D-01  0.000000D+00  0.000000D+00
      9   0.000000D+00 -0.473742D-01  0.000000D+00  0.000000D+00 -0.462654D-01
     10   0.000000D+00  0.000000D+00  0.000000D+00  0.000000D+00  0.000000D+00
     11  -0.622377D+00  0.000000D+00  0.000000D+00  0.634939D+00  0.000000D+00
     12   0.113598D+01  0.000000D+00  0.000000D+00  0.464812D+00  0.000000D+00
     13   0.638451D+00  0.000000D+00  0.000000D+00 -0.232492D+00  0.000000D+00
     14   0.000000D+00  0.000000D+00  0.000000D+00  0.000000D+00  0.000000D+00
     15   0.000000D+00 -0.151798D+00  0.000000D+00  0.000000D+00  0.366120D+00
     16   0.000000D+00  0.000000D+00 -0.519402D+00  0.000000D+00  0.000000D+00

 Test job not archived.
 1\1\GINC-BHD0004\SP\RB3LYP TD-FC\6-311+G(d,p)\C1H2O1\BWEIGHT\17-Sep-20
 21\0\\#p B3LYP/6-311+G** #p TD=(singlets,nstates=30)IOp(6/8=3) IOp(9/4
 0=4)\\Scan Step 41, Bond Length 0.7050000000000001\\0,1\C,0,0.,0.,-0.5
 2736\H,0,0.,0.93726,-1.11871\H,0,0.,-0.93726,-1.11871\O,0,0.,0.,0.1776
 4\\Version=ES64L-G16RevA.03\State=1-A1\HF=-113.1062821\RMSD=1.603e-09\
 PG=C02V [C2(C1O1),SGV(H2)]\\@


 WE ARE REACHING THE STAGE WHERE THE PROBLEMS WE MUST SOLVE ARE 
 GOING TO BECOME INSOLUBLE WITHOUT COMPUTERS.
 I DO NOT FEAR COMPUTERS.  I FEAR THE LACK OF THEM.

                                   -- ISSAC ASIMOV
 Job cpu time:       0 days  0 hours  0 minutes 27.1 seconds.
 Elapsed time:       0 days  0 hours  0 minutes 27.6 seconds.
 File lengths (MBytes):  RWF=     79 Int=      0 D2E=      0 Chk=     32 Scr=      1
 Normal termination of Gaussian 16 at Fri Sep 17 10:52:23 2021.
