 Entering Gaussian System, Link 0=g16
 Initial command:
 /software/gaussian/g16-c01/sse4/g16/l1.exe "/local_scratch/24665258/Gau-22237.inp" -scrdir="/local_scratch/24665258/"
 Entering Link 1 = /software/gaussian/g16-c01/sse4/g16/l1.exe PID=     22284.
  
 Copyright (c) 1988-2019, Gaussian, Inc.  All Rights Reserved.
  
 This is part of the Gaussian(R) 16 program.  It is based on
 the Gaussian(R) 09 system (copyright 2009, Gaussian, Inc.),
 the Gaussian(R) 03 system (copyright 2003, Gaussian, Inc.),
 the Gaussian(R) 98 system (copyright 1998, Gaussian, Inc.),
 the Gaussian(R) 94 system (copyright 1995, Gaussian, Inc.),
 the Gaussian 92(TM) system (copyright 1992, Gaussian, Inc.),
 the Gaussian 90(TM) system (copyright 1990, Gaussian, Inc.),
 the Gaussian 88(TM) system (copyright 1988, Gaussian, Inc.),
 the Gaussian 86(TM) system (copyright 1986, Carnegie Mellon
 University), and the Gaussian 82(TM) system (copyright 1983,
 Carnegie Mellon University). Gaussian is a federally registered
 trademark of Gaussian, Inc.
  
 This software contains proprietary and confidential information,
 including trade secrets, belonging to Gaussian, Inc.
  
 This software is provided under written license and may be
 used, copied, transmitted, or stored only in accord with that
 written license.
  
 The following legend is applicable only to US Government
 contracts under FAR:
  
                    RESTRICTED RIGHTS LEGEND
  
 Use, reproduction and disclosure by the US Government is
 subject to restrictions as set forth in subparagraphs (a)
 and (c) of the Commercial Computer Software - Restricted
 Rights clause in FAR 52.227-19.
  
 Gaussian, Inc.
 340 Quinnipiac St., Bldg. 40, Wallingford CT 06492
  
  
 ---------------------------------------------------------------
 Warning -- This program may not be used in any manner that
 competes with the business of Gaussian, Inc. or will provide
 assistance to any competitor of Gaussian, Inc.  The licensee
 of this program is prohibited from giving any competitor of
 Gaussian, Inc. access to this program.  By using this program,
 the user acknowledges that Gaussian, Inc. is engaged in the
 business of creating and licensing software in the field of
 computational chemistry and represents and warrants to the
 licensee that it is not a competitor of Gaussian, Inc. and that
 it will not use this program in any manner prohibited above.
 ---------------------------------------------------------------
  

 Cite this work as:
 Gaussian 16, Revision C.01,
 M. J. Frisch, G. W. Trucks, H. B. Schlegel, G. E. Scuseria, 
 M. A. Robb, J. R. Cheeseman, G. Scalmani, V. Barone, 
 G. A. Petersson, H. Nakatsuji, X. Li, M. Caricato, A. V. Marenich, 
 J. Bloino, B. G. Janesko, R. Gomperts, B. Mennucci, H. P. Hratchian, 
 J. V. Ortiz, A. F. Izmaylov, J. L. Sonnenberg, D. Williams-Young, 
 F. Ding, F. Lipparini, F. Egidi, J. Goings, B. Peng, A. Petrone, 
 T. Henderson, D. Ranasinghe, V. G. Zakrzewski, J. Gao, N. Rega, 
 G. Zheng, W. Liang, M. Hada, M. Ehara, K. Toyota, R. Fukuda, 
 J. Hasegawa, M. Ishida, T. Nakajima, Y. Honda, O. Kitao, H. Nakai, 
 T. Vreven, K. Throssell, J. A. Montgomery, Jr., J. E. Peralta, 
 F. Ogliaro, M. J. Bearpark, J. J. Heyd, E. N. Brothers, K. N. Kudin, 
 V. N. Staroverov, T. A. Keith, R. Kobayashi, J. Normand, 
 K. Raghavachari, A. P. Rendell, J. C. Burant, S. S. Iyengar, 
 J. Tomasi, M. Cossi, J. M. Millam, M. Klene, C. Adamo, R. Cammi, 
 J. W. Ochterski, R. L. Martin, K. Morokuma, O. Farkas, 
 J. B. Foresman, and D. J. Fox, Gaussian, Inc., Wallingford CT, 2019.
 
 ******************************************
 Gaussian 16:  ES64L-G16RevC.01  3-Jul-2019
                 2-May-2024 
 ******************************************
 %chk=geometry.chk
 %mem=1GB
 %nprocshared=12
 Will use up to   12 processors via shared memory.
 ---------------------------------------
 #P wB97XD/6-311+G* NoSymm #P Field=X-48
 ---------------------------------------
 1/38=1,172=1/1;
 2/12=2,15=1,17=6,18=5,40=1/2;
 3/5=4,6=6,7=11,11=2,14=1,15=-48,25=1,30=1,74=-58/1,2,3;
 4//1;
 5/5=2,38=5/2;
 6/7=2,8=2,9=2,10=2,28=1/1;
 99/5=1,9=1/99;
 Leave Link    1 at Thu May  2 13:57:34 2024, MaxMem=   134217728 cpu:               3.1 elap:               3.1
 (Enter /software/gaussian/g16-c01/sse4/g16/l101.exe)
 -------
 TitleMe
 -------
 Symbolic Z-matrix:
 Charge =  1 Multiplicity = 1
 C                     0.5193    1.233    -0.0319 
 C                     1.9445    1.2692   -0.0367 
 C                     2.6204    0.0928   -0.025 
 C                    -0.196     0.0301    0.001 
 H                    -0.0207    2.1742   -0.0434 
 H                     2.4828    2.2089   -0.0361 
 H                    -1.2777    0.0399    0.0117 
 N                     4.0921    0.0959    0.0366 
 O                     4.6393   -1.0217    0.1446 
 O                     4.6649    1.1984   -0.0233 
 C                     0.4943   -1.1671    0.021 
 H                    -0.0325   -2.1149    0.0545 
 C                     1.9629   -1.2165   -0.0211 
 H                     2.4436   -1.9631    0.6151 
 Br                    2.173    -1.9491   -1.9062 
 
 ITRead=  0  0  0  0  0  0  0  0  0  0  0  0  0  0  0
 MicOpt= -1 -1 -1 -1 -1 -1 -1 -1 -1 -1 -1 -1 -1 -1 -1
 NAtoms=     15 NQM=       15 NQMF=       0 NMMI=      0 NMMIF=      0
                NMic=       0 NMicF=      0.
                    Isotopes and Nuclear Properties:
 (Nuclear quadrupole moments (NQMom) in fm**2, nuclear magnetic moments (NMagM)
  in nuclear magnetons)

  Atom         1           2           3           4           5           6           7           8           9          10
 IAtWgt=          12          12          12          12           1           1           1          14          16          16
 AtmWgt=  12.0000000  12.0000000  12.0000000  12.0000000   1.0078250   1.0078250   1.0078250  14.0030740  15.9949146  15.9949146
 NucSpn=           0           0           0           0           1           1           1           2           0           0
 AtZEff=  -0.0000000  -0.0000000  -0.0000000  -0.0000000  -0.0000000  -0.0000000  -0.0000000  -0.0000000  -0.0000000  -0.0000000
 NQMom=    0.0000000   0.0000000   0.0000000   0.0000000   0.0000000   0.0000000   0.0000000   2.0440000   0.0000000   0.0000000
 NMagM=    0.0000000   0.0000000   0.0000000   0.0000000   2.7928460   2.7928460   2.7928460   0.4037610   0.0000000   0.0000000
 AtZNuc=   6.0000000   6.0000000   6.0000000   6.0000000   1.0000000   1.0000000   1.0000000   7.0000000   8.0000000   8.0000000

  Atom        11          12          13          14          15
 IAtWgt=          12           1          12           1          79
 AtmWgt=  12.0000000   1.0078250  12.0000000   1.0078250  78.9183361
 NucSpn=           0           1           0           1           3
 AtZEff=  -0.0000000  -0.0000000  -0.0000000  -0.0000000  -0.0000000
 NQMom=    0.0000000   0.0000000   0.0000000   0.0000000  31.3000000
 NMagM=    0.0000000   2.7928460   0.0000000   2.7928460   2.1063990
 AtZNuc=   6.0000000   1.0000000   6.0000000   1.0000000  35.0000000
 Leave Link  101 at Thu May  2 13:57:37 2024, MaxMem=   134217728 cpu:               2.4 elap:               2.4
 (Enter /software/gaussian/g16-c01/sse4/g16/l202.exe)
                          Input orientation:                          
 ---------------------------------------------------------------------
 Center     Atomic      Atomic             Coordinates (Angstroms)
 Number     Number       Type             X           Y           Z
 ---------------------------------------------------------------------
      1          6           0        0.519300    1.233000   -0.031900
      2          6           0        1.944500    1.269200   -0.036700
      3          6           0        2.620400    0.092800   -0.025000
      4          6           0       -0.196000    0.030100    0.001000
      5          1           0       -0.020700    2.174200   -0.043400
      6          1           0        2.482800    2.208900   -0.036100
      7          1           0       -1.277700    0.039900    0.011700
      8          7           0        4.092100    0.095900    0.036600
      9          8           0        4.639300   -1.021700    0.144600
     10          8           0        4.664900    1.198400   -0.023300
     11          6           0        0.494300   -1.167100    0.021000
     12          1           0       -0.032500   -2.114900    0.054500
     13          6           0        1.962900   -1.216500   -0.021100
     14          1           0        2.443600   -1.963100    0.615100
     15         35           0        2.173000   -1.949100   -1.906200
 ---------------------------------------------------------------------
                    Distance matrix (angstroms):
                    1          2          3          4          5
     1  C    0.000000
     2  C    1.425668   0.000000
     3  C    2.390549   1.356796   0.000000
     4  C    1.399895   2.473566   2.817218   0.000000
     5  H    1.085168   2.163581   3.362733   2.151712   0.000000
     6  H    2.192654   1.082960   2.120598   3.453189   2.503751
     7  H    2.157452   3.449071   3.898632   1.081797   2.477564
     8  N    3.750012   2.448304   1.472992   4.288753   4.608780
     9  O    4.699917   3.541615   2.312322   4.950458   5.653735
    10  O    4.145753   2.721354   2.324292   4.999386   4.786171
    11  C    2.400813   2.835836   2.471794   1.382101   3.381369
    12  H    3.394169   3.920329   3.452266   2.151887   4.290233
    13  C    2.843264   2.485817   1.465124   2.493060   3.928360
    14  H    3.786370   3.334922   2.160489   3.364142   4.860416
    15  Br   4.046416   3.728900   2.812194   3.628609   5.028314
                    6          7          8          9         10
     6  H    0.000000
     7  H    4.341452   0.000000
     8  N    2.657047   5.370150   0.000000
     9  O    3.888434   6.012948   1.249048   0.000000
    10  O    2.404752   6.054572   1.243863   2.226587   0.000000
    11  C    3.918516   2.144043   3.813080   4.149391   4.794941
    12  H    5.003018   2.489080   4.679774   4.798846   5.748876
    13  C    3.464662   3.475788   2.501842   2.688591   3.623886
    14  H    4.222698   4.268978   2.700314   2.434893   3.916224
    15  Br   4.569706   4.420610   3.411663   3.338935   4.434144
                   11         12         13         14         15
    11  C    0.000000
    12  H    1.084880   0.000000
    13  C    1.470034   2.189625   0.000000
    14  H    2.187771   2.543302   1.092353   0.000000
    15  Br   2.672762   2.955683   2.033334   2.535818   0.000000
 Symmetry turned off by external request.
 Stoichiometry    C6H5BrNO2(1+)
 Framework group  C1[X(C6H5BrNO2)]
 Deg. of freedom    39
 Full point group                 C1      NOp   1
 Rotational constants (GHZ):           1.1632986           0.9594224           0.5957624
 Leave Link  202 at Thu May  2 13:57:38 2024, MaxMem=   134217728 cpu:               1.2 elap:               1.2
 (Enter /software/gaussian/g16-c01/sse4/g16/l301.exe)
 Standard basis: 6-311+G(d) (5D, 7F)
 Ernie: Thresh=  0.10000D-02 Tol=  0.10000D-05 Strict=F.
 The following finite field(s) will be applied:
 An electric field of             -0.0048  0.0000  0.0000
   261 basis functions,   443 primitive gaussians,   273 cartesian basis functions
    49 alpha electrons       49 beta electrons
       nuclear repulsion energy       772.8945969580 Hartrees.
 IExCor= 4639 DFT=T Ex+Corr=wB97XD ExCW=0 ScaHFX=  1.000000
 ScaDFX=  1.000000  1.000000  1.000000  1.000000 ScalE2=  1.000000  1.000000
 IRadAn=      5 IRanWt=     -1 IRanGd=            0 ICorTp=0 IEmpDi=121
 HFx  wShort=  0.000000 wLong=  0.200000 cFull=  0.222036 cShort=  0.000000 cLong=  0.777964
 DFx  wShort=  0.000000 wLong=  0.200000 cFull=  0.000000 cShort=  0.000000 cLong=  1.000000
 NAtoms=   15 NActive=   15 NUniq=   15 SFac= 1.00D+00 NAtFMM=   60 NAOKFM=F Big=F
 Integral buffers will be    131072 words long.
 Raffenetti 2 integral format.
 Two-electron integral symmetry is turned off.
 R6Disp:  Grimme-D2 Dispersion energy=       -0.0080346408 Hartrees.
 Nuclear repulsion after empirical dispersion term =      772.8865623173 Hartrees.
 Leave Link  301 at Thu May  2 13:57:40 2024, MaxMem=   134217728 cpu:               1.3 elap:               1.3
 (Enter /software/gaussian/g16-c01/sse4/g16/l302.exe)
 NPDir=0 NMtPBC=     1 NCelOv=     1 NCel=       1 NClECP=     1 NCelD=      1
         NCelK=      1 NCelE2=     1 NClLst=     1 CellRange=     0.0.
 One-electron integrals computed using PRISM.
 NBasis=   261 RedAO= T EigKep=  2.52D-06  NBF=   261
 NBsUse=   261 1.00D-06 EigRej= -1.00D+00 NBFU=   261
 Precomputing XC quadrature grid using
 IXCGrd= 4 IRadAn=           5 IRanWt=          -1 IRanGd=           0 AccXCQ= 0.00D+00.
 Generated NRdTot=       0 NPtTot=           0 NUsed=           0 NTot=          32
 NSgBfM=   273   273   273   273   273 MxSgAt=    15 MxSgA2=    15.
 Leave Link  302 at Thu May  2 13:58:02 2024, MaxMem=   134217728 cpu:              22.0 elap:              22.0
 (Enter /software/gaussian/g16-c01/sse4/g16/l303.exe)
 DipDrv:  MaxL=1.
 The nuclear repulsion energy is now       770.8293199842 hartrees.
 Leave Link  303 at Thu May  2 13:58:05 2024, MaxMem=   134217728 cpu:               3.2 elap:               3.2
 (Enter /software/gaussian/g16-c01/sse4/g16/l401.exe)
 ExpMin= 3.50D-02 ExpMax= 4.40D+05 ExpMxC= 1.51D+04 IAcc=3 IRadAn=         5 AccDes= 0.00D+00
 Harris functional with IExCor= 4639 and IRadAn=       5 diagonalized for initial guess.
 HarFok:  IExCor= 4639 AccDes= 0.00D+00 IRadAn=         5 IDoV= 1 UseB2=F ITyADJ=14
 ICtDFT=  3500011 ScaDFX=  1.000000  1.000000  1.000000  1.000000
 FoFCou: FMM=F IPFlag=           0 FMFlag=      100000 FMFlg1=           0
         NFxFlg=           0 DoJE=T BraDBF=F KetDBF=T FulRan=T
         wScrn=  0.000000 ICntrl=       500 IOpCl=  0 I1Cent=   200000004 NGrid=           0
         NMat0=    1 NMatS0=      1 NMatT0=    0 NMatD0=    1 NMtDS0=    0 NMtDT0=    0
 Symmetry not used in FoFCou.
 Harris En= -2970.61190053362    
 JPrj=0 DoOrth=F DoCkMO=F.
 Leave Link  401 at Thu May  2 13:58:36 2024, MaxMem=   134217728 cpu:              31.4 elap:              31.4
 (Enter /software/gaussian/g16-c01/sse4/g16/l502.exe)
 Two-electron integral symmetry not used.
 Closed shell SCF:
 Using DIIS extrapolation, IDIIS=  1040.
 NGot=   134217728 LenX=   134063053 LenY=   133988083
 Requested convergence on RMS density matrix=1.00D-08 within 128 cycles.
 Requested convergence on MAX density matrix=1.00D-06.
 Requested convergence on             energy=1.00D-06.
 No special actions if energy rises.
 Fock matrices will be formed incrementally for  20 cycles.

 Cycle   1  Pass 1  IDiag  1:
 FoFJK:  IHMeth= 1 ICntrl=       0 DoSepK=T KAlg= 0 I1Cent=           0 FoldK=F
 IRaf=         1 NMat=       1 IRICut=       1 DoRegI=T DoRafI=F ISym2E= 0 IDoP0=0 IntGTp=1.
 FoFCou: FMM=F IPFlag=           0 FMFlag=      100000 FMFlg1=           0
         NFxFlg=           0 DoJE=T BraDBF=F KetDBF=F FulRan=T
         wScrn=  0.000000 ICntrl=       500 IOpCl=  0 I1Cent=           0 NGrid=           0
         NMat0=    1 NMatS0=      1 NMatT0=    0 NMatD0=    1 NMtDS0=    0 NMtDT0=    0
 Symmetry not used in FoFCou.
 E= -3009.63686248495    
 DIIS: error= 2.90D-01 at cycle   1 NSaved=   1.
 NSaved= 1 IEnMin= 1 EnMin= -3009.63686248495     IErMin= 1 ErrMin= 2.90D-01
 ErrMax= 2.90D-01  0.00D+00 EMaxC= 1.00D-01 BMatC= 1.20D+01 BMatP= 1.20D+01
 IDIUse=3 WtCom= 0.00D+00 WtEn= 1.00D+00
 Coeff-Com:  0.100D+01
 Coeff-En:   0.100D+01
 Coeff:      0.100D+01
 Gap=     0.338 Goal=   None    Shift=    0.000
 GapD=    0.338 DampG=1.000 DampE=0.250 DampFc=0.2500 IDamp=-1.
 Damping current iteration by 2.50D-01
 RMSDP=4.88D-02 MaxDP=4.98D+00              OVMax= 3.11D-01

 Cycle   2  Pass 1  IDiag  1:
 RMSU=  5.07D-03    CP:  9.08D-01
 E= -3009.95076337176     Delta-E=       -0.313900886812 Rises=F Damp=T
 DIIS: error= 2.19D-01 at cycle   2 NSaved=   2.
 NSaved= 2 IEnMin= 2 EnMin= -3009.95076337176     IErMin= 2 ErrMin= 2.19D-01
 ErrMax= 2.19D-01  0.00D+00 EMaxC= 1.00D-01 BMatC= 5.46D+00 BMatP= 1.20D+01
 IDIUse=3 WtCom= 0.00D+00 WtEn= 1.00D+00
 Coeff-Com: -0.182D+01 0.282D+01
 Coeff-En:   0.000D+00 0.100D+01
 Coeff:      0.000D+00 0.100D+01
 Gap=     0.257 Goal=   None    Shift=    0.000
 RMSDP=3.89D-02 MaxDP=4.25D+00 DE=-3.14D-01 OVMax= 1.14D-01

 Cycle   3  Pass 1  IDiag  1:
 RMSU=  5.15D-03    CP:  6.05D-01  3.00D+00
 E= -3010.36423307784     Delta-E=       -0.413469706084 Rises=F Damp=F
 DIIS: error= 6.58D-02 at cycle   3 NSaved=   3.
 NSaved= 3 IEnMin= 3 EnMin= -3010.36423307784     IErMin= 3 ErrMin= 6.58D-02
 ErrMax= 6.58D-02  0.00D+00 EMaxC= 1.00D-01 BMatC= 7.48D-01 BMatP= 5.46D+00
 IDIUse=3 WtCom= 3.42D-01 WtEn= 6.58D-01
 Coeff-Com:  0.255D+01-0.334D+01 0.179D+01
 Coeff-En:   0.433D-01 0.000D+00 0.957D+00
 Coeff:      0.900D+00-0.114D+01 0.124D+01
 Gap=     0.295 Goal=   None    Shift=    0.000
 RMSDP=1.21D-02 MaxDP=1.16D+00 DE=-4.13D-01 OVMax= 1.13D-01

 Cycle   4  Pass 1  IDiag  1:
 RMSU=  6.04D-03    CP:  6.66D-01  2.05D+00  1.79D+00
 E= -3010.48968936224     Delta-E=       -0.125456284391 Rises=F Damp=F
 DIIS: error= 3.67D-02 at cycle   4 NSaved=   4.
 NSaved= 4 IEnMin= 4 EnMin= -3010.48968936224     IErMin= 4 ErrMin= 3.67D-02
 ErrMax= 3.67D-02  0.00D+00 EMaxC= 1.00D-01 BMatC= 2.15D-01 BMatP= 7.48D-01
 IDIUse=3 WtCom= 6.33D-01 WtEn= 3.67D-01
 Coeff-Com: -0.799D-03 0.147D-01 0.356D+00 0.630D+00
 Coeff-En:   0.000D+00 0.000D+00 0.165D+00 0.835D+00
 Coeff:     -0.506D-03 0.928D-02 0.286D+00 0.705D+00
 Gap=     0.253 Goal=   None    Shift=    0.000
 RMSDP=8.08D-03 MaxDP=1.10D+00 DE=-1.25D-01 OVMax= 5.11D-02

 Cycle   5  Pass 1  IDiag  1:
 RMSU=  2.66D-03    CP:  6.08D-01  2.39D+00  1.58D+00  6.21D-01
 E= -3010.53296943320     Delta-E=       -0.043280070965 Rises=F Damp=F
 DIIS: error= 8.50D-03 at cycle   5 NSaved=   5.
 NSaved= 5 IEnMin= 5 EnMin= -3010.53296943320     IErMin= 5 ErrMin= 8.50D-03
 ErrMax= 8.50D-03  0.00D+00 EMaxC= 1.00D-01 BMatC= 1.24D-02 BMatP= 2.15D-01
 IDIUse=3 WtCom= 9.15D-01 WtEn= 8.50D-02
 Coeff-Com: -0.129D+00 0.177D+00 0.106D+00 0.418D+00 0.428D+00
 Coeff-En:   0.000D+00 0.000D+00 0.000D+00 0.000D+00 0.100D+01
 Coeff:     -0.118D+00 0.162D+00 0.970D-01 0.382D+00 0.477D+00
 Gap=     0.244 Goal=   None    Shift=    0.000
 RMSDP=1.83D-03 MaxDP=2.21D-01 DE=-4.33D-02 OVMax= 2.59D-02

 Cycle   6  Pass 1  IDiag  1:
 RMSU=  6.88D-04    CP:  6.16D-01  2.35D+00  1.64D+00  7.77D-01  6.51D-01
 E= -3010.53736406629     Delta-E=       -0.004394633087 Rises=F Damp=F
 DIIS: error= 3.49D-03 at cycle   6 NSaved=   6.
 NSaved= 6 IEnMin= 6 EnMin= -3010.53736406629     IErMin= 6 ErrMin= 3.49D-03
 ErrMax= 3.49D-03  0.00D+00 EMaxC= 1.00D-01 BMatC= 9.62D-04 BMatP= 1.24D-02
 IDIUse=3 WtCom= 9.65D-01 WtEn= 3.49D-02
 Coeff-Com: -0.109D+00 0.147D+00-0.654D-02 0.170D+00 0.323D+00 0.476D+00
 Coeff-En:   0.000D+00 0.000D+00 0.000D+00 0.000D+00 0.871D-01 0.913D+00
 Coeff:     -0.105D+00 0.142D+00-0.632D-02 0.164D+00 0.315D+00 0.491D+00
 Gap=     0.238 Goal=   None    Shift=    0.000
 RMSDP=7.52D-04 MaxDP=8.88D-02 DE=-4.39D-03 OVMax= 1.32D-02

 Cycle   7  Pass 1  IDiag  1:
 RMSU=  2.88D-04    CP:  6.13D-01  2.36D+00  1.65D+00  7.42D-01  8.27D-01
                    CP:  8.09D-01
 E= -3010.53820443152     Delta-E=       -0.000840365232 Rises=F Damp=F
 DIIS: error= 4.33D-04 at cycle   7 NSaved=   7.
 NSaved= 7 IEnMin= 7 EnMin= -3010.53820443152     IErMin= 7 ErrMin= 4.33D-04
 ErrMax= 4.33D-04  0.00D+00 EMaxC= 1.00D-01 BMatC= 3.38D-05 BMatP= 9.62D-04
 IDIUse=3 WtCom= 9.96D-01 WtEn= 4.33D-03
 Coeff-Com: -0.320D-01 0.423D-01-0.217D-01 0.547D-02 0.322D-01 0.147D+00
 Coeff-Com:  0.827D+00
 Coeff-En:   0.000D+00 0.000D+00 0.000D+00 0.000D+00 0.000D+00 0.000D+00
 Coeff-En:   0.100D+01
 Coeff:     -0.318D-01 0.421D-01-0.216D-01 0.544D-02 0.320D-01 0.146D+00
 Coeff:      0.828D+00
 Gap=     0.239 Goal=   None    Shift=    0.000
 RMSDP=4.05D-04 MaxDP=4.48D-02 DE=-8.40D-04 OVMax= 1.01D-02

 Cycle   8  Pass 1  IDiag  1:
 RMSU=  1.52D-04    CP:  6.11D-01  2.34D+00  1.65D+00  7.45D-01  9.09D-01
                    CP:  9.73D-01  1.18D+00
 E= -3010.53835473233     Delta-E=       -0.000150300807 Rises=F Damp=F
 DIIS: error= 2.57D-04 at cycle   8 NSaved=   8.
 NSaved= 8 IEnMin= 8 EnMin= -3010.53835473233     IErMin= 8 ErrMin= 2.57D-04
 ErrMax= 2.57D-04  0.00D+00 EMaxC= 1.00D-01 BMatC= 8.69D-06 BMatP= 3.38D-05
 IDIUse=3 WtCom= 9.97D-01 WtEn= 2.57D-03
 Coeff-Com:  0.102D-01-0.141D-01-0.668D-02-0.330D-01-0.688D-01-0.867D-01
 Coeff-Com:  0.197D+00 0.100D+01
 Coeff-En:   0.000D+00 0.000D+00 0.000D+00 0.000D+00 0.000D+00 0.000D+00
 Coeff-En:   0.000D+00 0.100D+01
 Coeff:      0.102D-01-0.141D-01-0.666D-02-0.329D-01-0.686D-01-0.865D-01
 Coeff:      0.196D+00 0.100D+01
 Gap=     0.239 Goal=   None    Shift=    0.000
 RMSDP=2.42D-04 MaxDP=2.03D-02 DE=-1.50D-04 OVMax= 9.27D-03

 Cycle   9  Pass 1  IDiag  1:
 RMSU=  6.72D-05    CP:  6.10D-01  2.33D+00  1.66D+00  7.43D-01  9.63D-01
                    CP:  1.04D+00  1.61D+00  1.56D+00
 E= -3010.53842561634     Delta-E=       -0.000070884015 Rises=F Damp=F
 DIIS: error= 1.11D-04 at cycle   9 NSaved=   9.
 NSaved= 9 IEnMin= 9 EnMin= -3010.53842561634     IErMin= 9 ErrMin= 1.11D-04
 ErrMax= 1.11D-04  0.00D+00 EMaxC= 1.00D-01 BMatC= 2.19D-06 BMatP= 8.69D-06
 IDIUse=3 WtCom= 9.99D-01 WtEn= 1.11D-03
 Coeff-Com:  0.840D-02-0.111D-01 0.370D-02-0.805D-02-0.241D-01-0.564D-01
 Coeff-Com: -0.211D+00 0.290D+00 0.101D+01
 Coeff-En:   0.000D+00 0.000D+00 0.000D+00 0.000D+00 0.000D+00 0.000D+00
 Coeff-En:   0.000D+00 0.000D+00 0.100D+01
 Coeff:      0.839D-02-0.111D-01 0.370D-02-0.804D-02-0.241D-01-0.563D-01
 Coeff:     -0.210D+00 0.290D+00 0.101D+01
 Gap=     0.239 Goal=   None    Shift=    0.000
 RMSDP=1.99D-04 MaxDP=2.56D-02 DE=-7.09D-05 OVMax= 5.85D-03

 Cycle  10  Pass 1  IDiag  1:
 RMSU=  3.54D-05    CP:  6.09D-01  2.33D+00  1.67D+00  7.38D-01  9.97D-01
                    CP:  1.08D+00  1.79D+00  1.99D+00  1.55D+00
 E= -3010.53844526528     Delta-E=       -0.000019648941 Rises=F Damp=F
 DIIS: error= 7.25D-05 at cycle  10 NSaved=  10.
 NSaved=10 IEnMin=10 EnMin= -3010.53844526528     IErMin=10 ErrMin= 7.25D-05
 ErrMax= 7.25D-05  0.00D+00 EMaxC= 1.00D-01 BMatC= 4.60D-07 BMatP= 2.19D-06
 IDIUse=1 WtCom= 1.00D+00 WtEn= 0.00D+00
 Coeff-Com: -0.188D-02 0.263D-02 0.147D-02 0.487D-02 0.729D-02 0.649D-02
 Coeff-Com: -0.877D-01-0.964D-01 0.218D+00 0.945D+00
 Coeff:     -0.188D-02 0.263D-02 0.147D-02 0.487D-02 0.729D-02 0.649D-02
 Coeff:     -0.877D-01-0.964D-01 0.218D+00 0.945D+00
 Gap=     0.239 Goal=   None    Shift=    0.000
 RMSDP=3.98D-05 MaxDP=2.97D-03 DE=-1.96D-05 OVMax= 1.84D-03

 Cycle  11  Pass 1  IDiag  1:
 RMSU=  1.67D-05    CP:  6.09D-01  2.33D+00  1.67D+00  7.36D-01  1.00D+00
                    CP:  1.09D+00  1.82D+00  2.10D+00  1.78D+00  1.26D+00
 E= -3010.53844817229     Delta-E=       -0.000002907003 Rises=F Damp=F
 DIIS: error= 3.85D-05 at cycle  11 NSaved=  11.
 NSaved=11 IEnMin=11 EnMin= -3010.53844817229     IErMin=11 ErrMin= 3.85D-05
 ErrMax= 3.85D-05  0.00D+00 EMaxC= 1.00D-01 BMatC= 8.63D-08 BMatP= 4.60D-07
 IDIUse=1 WtCom= 1.00D+00 WtEn= 0.00D+00
 Coeff-Com: -0.460D-03 0.592D-03-0.190D-03 0.133D-02 0.403D-02 0.944D-02
 Coeff-Com:  0.567D-01-0.652D-01-0.269D+00 0.222D-01 0.124D+01
 Coeff:     -0.460D-03 0.592D-03-0.190D-03 0.133D-02 0.403D-02 0.944D-02
 Coeff:      0.567D-01-0.652D-01-0.269D+00 0.222D-01 0.124D+01
 Gap=     0.239 Goal=   None    Shift=    0.000
 RMSDP=3.01D-05 MaxDP=3.32D-03 DE=-2.91D-06 OVMax= 1.15D-03

 Cycle  12  Pass 1  IDiag  1:
 RMSU=  7.10D-06    CP:  6.09D-01  2.33D+00  1.67D+00  7.35D-01  1.01D+00
                    CP:  1.09D+00  1.84D+00  2.14D+00  1.94D+00  1.55D+00
                    CP:  1.42D+00
 E= -3010.53844891361     Delta-E=       -0.000000741322 Rises=F Damp=F
 DIIS: error= 1.22D-05 at cycle  12 NSaved=  12.
 NSaved=12 IEnMin=12 EnMin= -3010.53844891361     IErMin=12 ErrMin= 1.22D-05
 ErrMax= 1.22D-05  0.00D+00 EMaxC= 1.00D-01 BMatC= 1.57D-08 BMatP= 8.63D-08
 IDIUse=1 WtCom= 1.00D+00 WtEn= 0.00D+00
 Coeff-Com:  0.506D-04-0.855D-04-0.213D-03-0.456D-04 0.578D-03 0.180D-02
 Coeff-Com:  0.281D-01-0.147D-01-0.100D+00-0.980D-01 0.406D+00 0.776D+00
 Coeff:      0.506D-04-0.855D-04-0.213D-03-0.456D-04 0.578D-03 0.180D-02
 Coeff:      0.281D-01-0.147D-01-0.100D+00-0.980D-01 0.406D+00 0.776D+00
 Gap=     0.239 Goal=   None    Shift=    0.000
 RMSDP=8.68D-06 MaxDP=1.02D-03 DE=-7.41D-07 OVMax= 2.02D-04

 Cycle  13  Pass 1  IDiag  1:
 RMSU=  2.82D-06    CP:  6.09D-01  2.33D+00  1.67D+00  7.34D-01  1.01D+00
                    CP:  1.09D+00  1.85D+00  2.14D+00  1.95D+00  1.61D+00
                    CP:  1.47D+00  1.21D+00
 E= -3010.53844896847     Delta-E=       -0.000000054858 Rises=F Damp=F
 DIIS: error= 5.36D-06 at cycle  13 NSaved=  13.
 NSaved=13 IEnMin=13 EnMin= -3010.53844896847     IErMin=13 ErrMin= 5.36D-06
 ErrMax= 5.36D-06  0.00D+00 EMaxC= 1.00D-01 BMatC= 3.75D-09 BMatP= 1.57D-08
 IDIUse=1 WtCom= 1.00D+00 WtEn= 0.00D+00
 Coeff-Com:  0.218D-04-0.287D-04-0.945D-04-0.399D-03-0.910D-03-0.227D-02
 Coeff-Com: -0.720D-02 0.130D-01 0.529D-01-0.420D-01-0.255D+00 0.270D+00
 Coeff-Com:  0.972D+00
 Coeff:      0.218D-04-0.287D-04-0.945D-04-0.399D-03-0.910D-03-0.227D-02
 Coeff:     -0.720D-02 0.130D-01 0.529D-01-0.420D-01-0.255D+00 0.270D+00
 Coeff:      0.972D+00
 Gap=     0.239 Goal=   None    Shift=    0.000
 RMSDP=3.84D-06 MaxDP=2.50D-04 DE=-5.49D-08 OVMax= 1.30D-04

 Cycle  14  Pass 1  IDiag  1:
 RMSU=  1.46D-06    CP:  6.09D-01  2.33D+00  1.67D+00  7.34D-01  1.01D+00
                    CP:  1.09D+00  1.86D+00  2.14D+00  1.96D+00  1.63D+00
                    CP:  1.46D+00  1.56D+00  1.14D+00
 E= -3010.53844898454     Delta-E=       -0.000000016077 Rises=F Damp=F
 DIIS: error= 1.67D-06 at cycle  14 NSaved=  14.
 NSaved=14 IEnMin=14 EnMin= -3010.53844898454     IErMin=14 ErrMin= 1.67D-06
 ErrMax= 1.67D-06  0.00D+00 EMaxC= 1.00D-01 BMatC= 4.17D-10 BMatP= 3.75D-09
 IDIUse=1 WtCom= 1.00D+00 WtEn= 0.00D+00
 Coeff-Com: -0.771D-05 0.119D-04-0.540D-05-0.759D-04-0.165D-03-0.549D-03
 Coeff-Com: -0.400D-02 0.490D-02 0.191D-01 0.384D-02-0.106D+00-0.820D-02
 Coeff-Com:  0.236D+00 0.855D+00
 Coeff:     -0.771D-05 0.119D-04-0.540D-05-0.759D-04-0.165D-03-0.549D-03
 Coeff:     -0.400D-02 0.490D-02 0.191D-01 0.384D-02-0.106D+00-0.820D-02
 Coeff:      0.236D+00 0.855D+00
 Gap=     0.239 Goal=   None    Shift=    0.000
 RMSDP=1.17D-06 MaxDP=1.13D-04 DE=-1.61D-08 OVMax= 3.49D-05

 Cycle  15  Pass 1  IDiag  1:
 RMSU=  4.61D-07    CP:  6.09D-01  2.33D+00  1.67D+00  7.34D-01  1.01D+00
                    CP:  1.09D+00  1.86D+00  2.14D+00  1.96D+00  1.64D+00
                    CP:  1.44D+00  1.62D+00  1.26D+00  1.14D+00
 E= -3010.53844898587     Delta-E=       -0.000000001328 Rises=F Damp=F
 DIIS: error= 9.14D-07 at cycle  15 NSaved=  15.
 NSaved=15 IEnMin=15 EnMin= -3010.53844898587     IErMin=15 ErrMin= 9.14D-07
 ErrMax= 9.14D-07  0.00D+00 EMaxC= 1.00D-01 BMatC= 1.02D-10 BMatP= 4.17D-10
 IDIUse=1 WtCom= 1.00D+00 WtEn= 0.00D+00
 Coeff-Com: -0.180D-04 0.245D-04 0.118D-04 0.588D-04 0.147D-03 0.214D-03
 Coeff-Com: -0.297D-03-0.546D-03-0.289D-02 0.117D-01 0.387D-02-0.510D-01
 Coeff-Com: -0.918D-01 0.341D+00 0.790D+00
 Coeff:     -0.180D-04 0.245D-04 0.118D-04 0.588D-04 0.147D-03 0.214D-03
 Coeff:     -0.297D-03-0.546D-03-0.289D-02 0.117D-01 0.387D-02-0.510D-01
 Coeff:     -0.918D-01 0.341D+00 0.790D+00
 Gap=     0.239 Goal=   None    Shift=    0.000
 RMSDP=4.44D-07 MaxDP=2.93D-05 DE=-1.33D-09 OVMax= 1.25D-05

 Cycle  16  Pass 1  IDiag  1:
 RMSU=  1.20D-07    CP:  6.09D-01  2.33D+00  1.67D+00  7.34D-01  1.01D+00
                    CP:  1.09D+00  1.86D+00  2.14D+00  1.96D+00  1.64D+00
                    CP:  1.43D+00  1.65D+00  1.29D+00  1.25D+00  1.31D+00
 E= -3010.53844898611     Delta-E=       -0.000000000235 Rises=F Damp=F
 DIIS: error= 2.22D-07 at cycle  16 NSaved=  16.
 NSaved=16 IEnMin=16 EnMin= -3010.53844898611     IErMin=16 ErrMin= 2.22D-07
 ErrMax= 2.22D-07  0.00D+00 EMaxC= 1.00D-01 BMatC= 1.21D-11 BMatP= 1.02D-10
 IDIUse=1 WtCom= 1.00D+00 WtEn= 0.00D+00
 Coeff-Com: -0.815D-05 0.108D-04 0.190D-05 0.299D-04 0.655D-04 0.844D-04
 Coeff-Com:  0.326D-03-0.778D-03-0.265D-02 0.248D-02 0.127D-01-0.890D-02
 Coeff-Com: -0.541D-01-0.462D-01 0.180D+00 0.917D+00
 Coeff:     -0.815D-05 0.108D-04 0.190D-05 0.299D-04 0.655D-04 0.844D-04
 Coeff:      0.326D-03-0.778D-03-0.265D-02 0.248D-02 0.127D-01-0.890D-02
 Coeff:     -0.541D-01-0.462D-01 0.180D+00 0.917D+00
 Gap=     0.239 Goal=   None    Shift=    0.000
 RMSDP=1.88D-07 MaxDP=1.52D-05 DE=-2.35D-10 OVMax= 4.68D-06

 Cycle  17  Pass 1  IDiag  1:
 RMSU=  5.42D-08    CP:  6.09D-01  2.33D+00  1.67D+00  7.34D-01  1.01D+00
                    CP:  1.09D+00  1.86D+00  2.14D+00  1.96D+00  1.64D+00
                    CP:  1.43D+00  1.65D+00  1.31D+00  1.27D+00  1.50D+00
                    CP:  1.36D+00
 E= -3010.53844898618     Delta-E=       -0.000000000072 Rises=F Damp=F
 DIIS: error= 7.00D-08 at cycle  17 NSaved=  17.
 NSaved=17 IEnMin=17 EnMin= -3010.53844898618     IErMin=17 ErrMin= 7.00D-08
 ErrMax= 7.00D-08  0.00D+00 EMaxC= 1.00D-01 BMatC= 1.44D-12 BMatP= 1.21D-11
 IDIUse=1 WtCom= 1.00D+00 WtEn= 0.00D+00
 Coeff-Com:  0.352D-06-0.541D-06-0.951D-06-0.472D-06-0.259D-05-0.159D-04
 Coeff-Com:  0.117D-03-0.803D-04-0.358D-03-0.714D-03 0.250D-02 0.497D-02
 Coeff-Com: -0.364D-02-0.433D-01-0.504D-01 0.167D+00 0.924D+00
 Coeff:      0.352D-06-0.541D-06-0.951D-06-0.472D-06-0.259D-05-0.159D-04
 Coeff:      0.117D-03-0.803D-04-0.358D-03-0.714D-03 0.250D-02 0.497D-02
 Coeff:     -0.364D-02-0.433D-01-0.504D-01 0.167D+00 0.924D+00
 Gap=     0.239 Goal=   None    Shift=    0.000
 RMSDP=7.06D-08 MaxDP=3.64D-06 DE=-7.19D-11 OVMax= 2.42D-06

 Cycle  18  Pass 1  IDiag  1:
 RMSU=  2.36D-08    CP:  6.09D-01  2.33D+00  1.67D+00  7.34D-01  1.01D+00
                    CP:  1.09D+00  1.86D+00  2.14D+00  1.96D+00  1.64D+00
                    CP:  1.43D+00  1.65D+00  1.31D+00  1.28D+00  1.54D+00
                    CP:  1.57D+00  1.44D+00
 E= -3010.53844898625     Delta-E=       -0.000000000074 Rises=F Damp=F
 DIIS: error= 3.96D-08 at cycle  18 NSaved=  18.
 NSaved=18 IEnMin=18 EnMin= -3010.53844898625     IErMin=18 ErrMin= 3.96D-08
 ErrMax= 3.96D-08  0.00D+00 EMaxC= 1.00D-01 BMatC= 6.24D-13 BMatP= 1.44D-12
 IDIUse=1 WtCom= 1.00D+00 WtEn= 0.00D+00
 Coeff-Com:  0.830D-06-0.111D-05-0.988D-06-0.586D-05-0.139D-04-0.230D-04
 Coeff-Com: -0.752D-05 0.144D-03 0.342D-03-0.683D-03-0.204D-02 0.409D-02
 Coeff-Com:  0.947D-02-0.786D-03-0.572D-01-0.181D+00 0.393D+00 0.835D+00
 Coeff:      0.830D-06-0.111D-05-0.988D-06-0.586D-05-0.139D-04-0.230D-04
 Coeff:     -0.752D-05 0.144D-03 0.342D-03-0.683D-03-0.204D-02 0.409D-02
 Coeff:      0.947D-02-0.786D-03-0.572D-01-0.181D+00 0.393D+00 0.835D+00
 Gap=     0.239 Goal=   None    Shift=    0.000
 RMSDP=4.67D-08 MaxDP=3.67D-06 DE=-7.41D-11 OVMax= 1.40D-06

 Cycle  19  Pass 1  IDiag  1:
 RMSU=  1.53D-08    CP:  6.09D-01  2.33D+00  1.67D+00  7.34D-01  1.01D+00
                    CP:  1.09D+00  1.86D+00  2.14D+00  1.96D+00  1.64D+00
                    CP:  1.43D+00  1.66D+00  1.31D+00  1.29D+00  1.56D+00
                    CP:  1.66D+00  1.77D+00  1.31D+00
 E= -3010.53844898619     Delta-E=        0.000000000060 Rises=F Damp=F
 DIIS: error= 1.86D-08 at cycle  19 NSaved=  19.
 NSaved=19 IEnMin=18 EnMin= -3010.53844898625     IErMin=19 ErrMin= 1.86D-08
 ErrMax= 1.86D-08  0.00D+00 EMaxC= 1.00D-01 BMatC= 8.49D-14 BMatP= 6.24D-13
 IDIUse=1 WtCom= 1.00D+00 WtEn= 0.00D+00
 Coeff-Com: -0.718D-06 0.980D-06 0.810D-07 0.501D-06 0.735D-07 0.242D-05
 Coeff-Com: -0.137D-04 0.161D-04 0.496D-04 0.232D-03-0.755D-03-0.585D-03
 Coeff-Com:  0.886D-03 0.109D-01 0.866D-02-0.733D-01-0.135D+00-0.209D-01
 Coeff-Com:  0.121D+01
 Coeff:     -0.718D-06 0.980D-06 0.810D-07 0.501D-06 0.735D-07 0.242D-05
 Coeff:     -0.137D-04 0.161D-04 0.496D-04 0.232D-03-0.755D-03-0.585D-03
 Coeff:      0.886D-03 0.109D-01 0.866D-02-0.733D-01-0.135D+00-0.209D-01
 Coeff:      0.121D+01
 Gap=     0.239 Goal=   None    Shift=    0.000
 RMSDP=4.46D-08 MaxDP=3.80D-06 DE= 6.05D-11 OVMax= 1.01D-06

 Cycle  20  Pass 1  IDiag  1:
 RMSU=  8.16D-09    CP:  6.09D-01  2.33D+00  1.67D+00  7.34D-01  1.01D+00
                    CP:  1.09D+00  1.86D+00  2.14D+00  1.96D+00  1.64D+00
                    CP:  1.43D+00  1.66D+00  1.31D+00  1.30D+00  1.55D+00
                    CP:  1.68D+00  1.91D+00  1.86D+00  1.84D+00
 E= -3010.53844898628     Delta-E=       -0.000000000088 Rises=F Damp=F
 DIIS: error= 8.68D-09 at cycle  20 NSaved=  20.
 NSaved=20 IEnMin=20 EnMin= -3010.53844898628     IErMin=20 ErrMin= 8.68D-09
 ErrMax= 8.68D-09  0.00D+00 EMaxC= 1.00D-01 BMatC= 1.82D-14 BMatP= 8.49D-14
 IDIUse=1 WtCom= 1.00D+00 WtEn= 0.00D+00
 Coeff-Com: -0.450D-06 0.603D-06 0.148D-06 0.144D-05 0.300D-05 0.497D-05
 Coeff-Com:  0.448D-05-0.319D-04-0.728D-04 0.155D-03 0.397D-03-0.986D-03
 Coeff-Com: -0.217D-02 0.245D-02 0.157D-01 0.184D-01-0.852D-01-0.216D+00
 Coeff-Com:  0.229D+00 0.104D+01
 Coeff:     -0.450D-06 0.603D-06 0.148D-06 0.144D-05 0.300D-05 0.497D-05
 Coeff:      0.448D-05-0.319D-04-0.728D-04 0.155D-03 0.397D-03-0.986D-03
 Coeff:     -0.217D-02 0.245D-02 0.157D-01 0.184D-01-0.852D-01-0.216D+00
 Coeff:      0.229D+00 0.104D+01
 Gap=     0.239 Goal=   None    Shift=    0.000
 RMSDP=2.46D-08 MaxDP=2.44D-06 DE=-8.82D-11 OVMax= 4.15D-07

 Cycle  21  Pass 1  IDiag  1:
 Restarting incremental Fock formation.
 E= -3010.53844898622     Delta-E=        0.000000000060 Rises=F Damp=F
 DIIS: error= 2.10D-09 at cycle  21 NSaved=  20.
 NSaved=20 IEnMin=19 EnMin= -3010.53844898628     IErMin=20 ErrMin= 2.10D-09
 ErrMax= 2.10D-09  0.00D+00 EMaxC= 1.00D-01 BMatC= 2.31D-15 BMatP= 1.82D-14
 IDIUse=1 WtCom= 1.00D+00 WtEn= 0.00D+00
 Large coefficients: NSaved= 20 BigCof=    0.00 CofMax=   10.00 Det=-5.55D-15
 Inversion failed.  Reducing to 19 matrices.
 Large coefficients: NSaved= 19 BigCof=    0.00 CofMax=   10.00 Det=-5.52D-15
 Inversion failed.  Reducing to 18 matrices.
 Large coefficients: NSaved= 18 BigCof=    0.00 CofMax=   10.00 Det=-6.04D-15
 Inversion failed.  Reducing to 17 matrices.
 Large coefficients: NSaved= 17 BigCof=    0.00 CofMax=   10.00 Det=-6.65D-15
 Inversion failed.  Reducing to 16 matrices.
 Large coefficients: NSaved= 16 BigCof=    0.00 CofMax=   10.00 Det=-6.70D-15
 Inversion failed.  Reducing to 15 matrices.
 Coeff-Com: -0.234D-05-0.484D-05 0.735D-05 0.261D-05 0.622D-04-0.166D-03
 Coeff-Com: -0.281D-03 0.251D-03 0.249D-02 0.270D-02 0.527D-04-0.427D-01
 Coeff-Com: -0.581D-01 0.204D+00 0.891D+00
 Coeff:     -0.234D-05-0.484D-05 0.735D-05 0.261D-05 0.622D-04-0.166D-03
 Coeff:     -0.281D-03 0.251D-03 0.249D-02 0.270D-02 0.527D-04-0.427D-01
 Coeff:     -0.581D-01 0.204D+00 0.891D+00
 Gap=     0.239 Goal=   None    Shift=    0.000
 RMSDP=4.88D-09 MaxDP=3.97D-07 DE= 6.00D-11 OVMax= 9.99D-08

 SCF Done:  E(RwB97XD) =  -3010.53844899     A.U. after   21 cycles
            NFock= 21  Conv=0.49D-08     -V/T= 2.0016
 KE= 3.005844740407D+03 PE=-8.697265224158D+03 EE= 1.910052714780D+03
 Leave Link  502 at Thu May  2 14:20:16 2024, MaxMem=   134217728 cpu:            1298.9 elap:            1299.8
 (Enter /software/gaussian/g16-c01/sse4/g16/l601.exe)
 Copying SCF densities to generalized density rwf, IOpCl= 0 IROHF=0.

 **********************************************************************

            Population analysis using the SCF Density.

 **********************************************************************

 Alpha  occ. eigenvalues -- -483.29392 -62.84407 -56.64106 -56.63531 -56.63518
 Alpha  occ. eigenvalues --  -19.43189 -19.43174 -14.82680 -10.57423 -10.56219
 Alpha  occ. eigenvalues --  -10.55876 -10.55580 -10.51601 -10.51460  -9.00208
 Alpha  occ. eigenvalues --   -6.82902  -6.81014  -6.80975  -2.92802  -2.92307
 Alpha  occ. eigenvalues --   -2.92276  -2.90766  -2.90765  -1.46893  -1.29819
 Alpha  occ. eigenvalues --   -1.20736  -1.11234  -1.10624  -1.02991  -0.98324
 Alpha  occ. eigenvalues --   -0.93755  -0.88847  -0.82846  -0.78723  -0.78120
 Alpha  occ. eigenvalues --   -0.77565  -0.76216  -0.73941  -0.73244  -0.70312
 Alpha  occ. eigenvalues --   -0.67168  -0.65973  -0.61814  -0.58050  -0.54534
 Alpha  occ. eigenvalues --   -0.54336  -0.53791  -0.52836  -0.52273
 Alpha virt. eigenvalues --   -0.28401  -0.18160  -0.13810  -0.11070  -0.08411
 Alpha virt. eigenvalues --   -0.05750  -0.04917  -0.03589  -0.03245  -0.02145
 Alpha virt. eigenvalues --   -0.01101  -0.00254   0.00259   0.01057   0.02244
 Alpha virt. eigenvalues --    0.02699   0.03038   0.03726   0.04155   0.05048
 Alpha virt. eigenvalues --    0.05990   0.06322   0.07170   0.07533   0.07929
 Alpha virt. eigenvalues --    0.08845   0.09228   0.09930   0.10636   0.11365
 Alpha virt. eigenvalues --    0.11824   0.12076   0.13305   0.13820   0.14352
 Alpha virt. eigenvalues --    0.14448   0.15609   0.16186   0.16767   0.17606
 Alpha virt. eigenvalues --    0.18227   0.18797   0.19737   0.20165   0.20938
 Alpha virt. eigenvalues --    0.22029   0.23197   0.23843   0.25729   0.26608
 Alpha virt. eigenvalues --    0.27727   0.29808   0.30671   0.31857   0.34051
 Alpha virt. eigenvalues --    0.34414   0.35410   0.36687   0.37388   0.39141
 Alpha virt. eigenvalues --    0.39286   0.39700   0.41104   0.42410   0.43510
 Alpha virt. eigenvalues --    0.44647   0.46127   0.47155   0.48305   0.49227
 Alpha virt. eigenvalues --    0.50622   0.52358   0.53371   0.54160   0.55764
 Alpha virt. eigenvalues --    0.56888   0.57855   0.59423   0.60187   0.61389
 Alpha virt. eigenvalues --    0.62791   0.64110   0.66514   0.69282   0.69504
 Alpha virt. eigenvalues --    0.72356   0.73278   0.73597   0.75912   0.76419
 Alpha virt. eigenvalues --    0.77266   0.79165   0.81990   0.85240   0.87330
 Alpha virt. eigenvalues --    0.89050   0.90350   0.93848   0.95931   1.01285
 Alpha virt. eigenvalues --    1.03073   1.05023   1.05793   1.07451   1.09015
 Alpha virt. eigenvalues --    1.11561   1.15524   1.16042   1.16938   1.20698
 Alpha virt. eigenvalues --    1.23813   1.25889   1.30019   1.35252   1.38018
 Alpha virt. eigenvalues --    1.38595   1.40884   1.44958   1.56904   1.58454
 Alpha virt. eigenvalues --    1.59754   1.62041   1.63491   1.65921   1.67527
 Alpha virt. eigenvalues --    1.70440   1.73262   1.76275   1.77297   1.81288
 Alpha virt. eigenvalues --    1.85097   1.87337   1.89391   1.96912   1.98206
 Alpha virt. eigenvalues --    2.00189   2.04687   2.04917   2.09308   2.10762
 Alpha virt. eigenvalues --    2.14690   2.16394   2.23990   2.26000   2.28689
 Alpha virt. eigenvalues --    2.35179   2.42008   2.43923   2.46393   2.54877
 Alpha virt. eigenvalues --    2.59767   2.65040   2.67624   2.70465   2.74782
 Alpha virt. eigenvalues --    2.76098   2.79282   2.79757   2.83167   2.84381
 Alpha virt. eigenvalues --    2.95043   3.00383   3.04068   3.07836   3.10812
 Alpha virt. eigenvalues --    3.16416   3.17932   3.19291   3.25323   3.29171
 Alpha virt. eigenvalues --    3.30202   3.40334   3.48004   3.52220   3.57561
 Alpha virt. eigenvalues --    3.59851   3.71905   3.77216   3.85388   3.89157
 Alpha virt. eigenvalues --    4.11898   4.12755   4.21313   4.25434   4.45241
 Alpha virt. eigenvalues --    4.48243   4.56503   4.62508   4.96726   4.99572
 Alpha virt. eigenvalues --    5.08436   5.12903   5.65053   6.18294   6.69909
 Alpha virt. eigenvalues --    7.50776   7.53095   7.63181  23.23824  23.63022
 Alpha virt. eigenvalues --   23.73764  23.79579  23.97125  24.04018  35.34479
 Alpha virt. eigenvalues --   47.95952  49.88291  49.96953 289.83585 289.85923
 Alpha virt. eigenvalues --  289.985401020.97122
          Condensed to atoms (all electrons):
               1          2          3          4          5          6
     1  C    8.207943  -2.765003   0.932972  -0.130727   0.297711   0.060341
     2  C   -2.765003  17.878791  -4.416580   0.391941  -0.008047   0.177389
     3  C    0.932972  -4.416580  19.796751  -1.469413   0.025203   0.121167
     4  C   -0.130727   0.391941  -1.469413   6.549396   0.015503  -0.014032
     5  H    0.297711  -0.008047   0.025203   0.015503   0.343471  -0.001679
     6  H    0.060341   0.177389   0.121167  -0.014032  -0.001679   0.306362
     7  H    0.031172  -0.031641   0.025405   0.303503  -0.003126  -0.000007
     8  N   -0.128226   0.024818  -1.764647   0.028989  -0.000433  -0.029855
     9  O   -0.019963   0.258306  -0.077417  -0.021023  -0.000037  -0.002578
    10  O    0.300337  -0.199384  -0.240945  -0.023082   0.000028   0.023341
    11  C    0.887410  -0.564303   2.688991  -0.416443  -0.026391   0.008398
    12  H   -0.011441   0.014919   0.014808   0.011822   0.000011  -0.000017
    13  C   -1.555873  -4.740476  -9.387720   1.097628   0.024929  -0.004663
    14  H   -0.004337   0.003887  -0.006251   0.004491  -0.000031   0.000033
    15  Br   0.002537  -0.202991  -0.194648   0.002805  -0.000044  -0.000472
               7          8          9         10         11         12
     1  C    0.031172  -0.128226  -0.019963   0.300337   0.887410  -0.011441
     2  C   -0.031641   0.024818   0.258306  -0.199384  -0.564303   0.014919
     3  C    0.025405  -1.764647  -0.077417  -0.240945   2.688991   0.014808
     4  C    0.303503   0.028989  -0.021023  -0.023082  -0.416443   0.011822
     5  H   -0.003126  -0.000433  -0.000037   0.000028  -0.026391   0.000011
     6  H   -0.000007  -0.029855  -0.002578   0.023341   0.008398  -0.000017
     7  H    0.361118  -0.000035   0.000007   0.000000   0.035221  -0.002590
     8  N   -0.000035   7.753487   0.007120   0.161140  -0.404535   0.000724
     9  O    0.000007   0.007120   7.894249   0.011717   0.307438   0.000093
    10  O    0.000000   0.161140   0.011717   7.812910   0.002119  -0.000023
    11  C    0.035221  -0.404535   0.307438   0.002119   8.457466   0.306587
    12  H   -0.002590   0.000724   0.000093  -0.000023   0.306587   0.335964
    13  C   -0.025779   1.456310  -0.421109   0.057258  -5.159415  -0.008212
    14  H   -0.000036  -0.027340   0.013124  -0.001776   0.037798  -0.004977
    15  Br  -0.000378   0.163884  -0.056885   0.003502   0.064271  -0.002332
              13         14         15
     1  C   -1.555873  -0.004337   0.002537
     2  C   -4.740476   0.003887  -0.202991
     3  C   -9.387720  -0.006251  -0.194648
     4  C    1.097628   0.004491   0.002805
     5  H    0.024929  -0.000031  -0.000044
     6  H   -0.004663   0.000033  -0.000472
     7  H   -0.025779  -0.000036  -0.000378
     8  N    1.456310  -0.027340   0.163884
     9  O   -0.421109   0.013124  -0.056885
    10  O    0.057258  -0.001776   0.003502
    11  C   -5.159415   0.037798   0.064271
    12  H   -0.008212  -0.004977  -0.002332
    13  C   24.381619   0.290837   0.375339
    14  H    0.290837   0.315296  -0.037950
    15  Br   0.375339  -0.037950  34.689251
 Mulliken charges:
               1
     1  C   -0.104853
     2  C    0.178373
     3  C   -0.047677
     4  C   -0.331360
     5  H    0.332933
     6  H    0.356273
     7  H    0.307166
     8  N   -0.241400
     9  O    0.106958
    10  O    0.092859
    11  C   -0.224612
    12  H    0.344668
    13  C   -0.380672
    14  H    0.417233
    15  Br   0.194111
 Sum of Mulliken charges =   1.00000
 Mulliken charges with hydrogens summed into heavy atoms:
               1
     1  C    0.228080
     2  C    0.534646
     3  C   -0.047677
     4  C   -0.024194
     8  N   -0.241400
     9  O    0.106958
    10  O    0.092859
    11  C    0.120055
    13  C    0.036561
    15  Br   0.194111
 Electronic spatial extent (au):  <R**2>=           3942.0137
 Charge=              1.0000 electrons
 Dipole moment (field-independent basis, Debye):
    X=              4.1498    Y=             -0.9770    Z=             -0.8204  Tot=              4.3414
 Quadrupole moment (field-independent basis, Debye-Ang):
   XX=            -62.5497   YY=            -51.0567   ZZ=            -62.0207
   XY=             -3.3029   XZ=             -2.9431   YZ=              2.6238
 Traceless Quadrupole moment (field-independent basis, Debye-Ang):
   XX=             -4.0073   YY=              7.4857   ZZ=             -3.4783
   XY=             -3.3029   XZ=             -2.9431   YZ=              2.6238
 Octapole moment (field-independent basis, Debye-Ang**2):
  XXX=           -486.0998  YYY=             91.5215  ZZZ=             82.3816  XYY=           -133.3145
  XXY=             23.4857  XXZ=             24.1331  XZZ=           -130.7084  YZZ=             16.6433
  YYZ=             25.2428  XYZ=              8.8086
 Hexadecapole moment (field-independent basis, Debye-Ang**3):
 XXXX=          -3316.0881 YYYY=           -701.4706 ZZZZ=           -393.9420 XXXY=            177.3934
 XXXZ=            179.3674 YYYX=            182.7198 YYYZ=           -170.7802 ZZZX=            164.8027
 ZZZY=           -143.1569 XXYY=           -611.2811 XXZZ=           -519.5051 YYZZ=           -170.3673
 XXYZ=            -38.3084 YYXZ=             47.3022 ZZXY=             26.6362
 N-N= 7.708293199842D+02 E-N=-8.697265224306D+03  KE= 3.005844740407D+03
 No NMR shielding tensors so no spin-rotation constants.
 Leave Link  601 at Thu May  2 14:20:24 2024, MaxMem=   134217728 cpu:               7.3 elap:               7.3
 (Enter /software/gaussian/g16-c01/sse4/g16/l9999.exe)
 Unable to Open any file for archive entry.
 1\1\GINC-BHX0006\SP\RwB97XD\6-311+G(d)\C6H5Br1N1O2(1+)\BWEIGHT\02-May-
 2024\0\\#P wB97XD/6-311+G* NoSymm #P Field=X-48\\TitleMe\\1,1\C,0,0.51
 93,1.233,-0.0319\C,0,1.9445,1.2692,-0.0367\C,0,2.6204,0.0928,-0.025\C,
 0,-0.196,0.0301,0.001\H,0,-0.0207,2.1742,-0.0434\H,0,2.4828,2.2089,-0.
 0361\H,0,-1.2777,0.0399,0.0117\N,0,4.0921,0.0959,0.0366\O,0,4.6393,-1.
 0217,0.1446\O,0,4.6649,1.1984,-0.0233\C,0,0.4943,-1.1671,0.021\H,0,-0.
 0325,-2.1149,0.0545\C,0,1.9629,-1.2165,-0.0211\H,0,2.4436,-1.9631,0.61
 51\Br,0,2.173,-1.9491,-1.9062\\Version=ES64L-G16RevC.01\HF=-3010.53844
 9\RMSD=4.882e-09\Dipole=-2.6965713,0.8437458,0.9264312\Quadrupole=-2.9
 79359,5.5654076,-2.5860485,-2.455644,-2.1881506,1.95075\PG=C01 [X(C6H5
 Br1N1O2)]\\@
 The archive entry for this job was punched.


 I take a simple view of life: keep your eyes open and get on with it.
 -- Laurence Olivier
 Job cpu time:       0 days  0 hours 22 minutes 51.6 seconds.
 Elapsed time:       0 days  0 hours 22 minutes 52.6 seconds.
 File lengths (MBytes):  RWF=     40 Int=      0 D2E=      0 Chk=     32 Scr=      1
 Normal termination of Gaussian 16 at Thu May  2 14:20:25 2024.
