 Entering Gaussian System, Link 0=g16
 Initial command:
 /software/gaussian/g16-a03/l1.exe "/local_scratch/6484834/Gau-7507.inp" -scrdir="/local_scratch/6484834/"
 Entering Link 1 = /software/gaussian/g16-a03/l1.exe PID=      7567.
  
 Copyright (c) 1988,1990,1992,1993,1995,1998,2003,2009,2016,
            Gaussian, Inc.  All Rights Reserved.
  
 This is part of the Gaussian(R) 16 program.  It is based on
 the Gaussian(R) 09 system (copyright 2009, Gaussian, Inc.),
 the Gaussian(R) 03 system (copyright 2003, Gaussian, Inc.),
 the Gaussian(R) 98 system (copyright 1998, Gaussian, Inc.),
 the Gaussian(R) 94 system (copyright 1995, Gaussian, Inc.),
 the Gaussian 92(TM) system (copyright 1992, Gaussian, Inc.),
 the Gaussian 90(TM) system (copyright 1990, Gaussian, Inc.),
 the Gaussian 88(TM) system (copyright 1988, Gaussian, Inc.),
 the Gaussian 86(TM) system (copyright 1986, Carnegie Mellon
 University), and the Gaussian 82(TM) system (copyright 1983,
 Carnegie Mellon University). Gaussian is a federally registered
 trademark of Gaussian, Inc.
  
 This software contains proprietary and confidential information,
 including trade secrets, belonging to Gaussian, Inc.
  
 This software is provided under written license and may be
 used, copied, transmitted, or stored only in accord with that
 written license.
  
 The following legend is applicable only to US Government
 contracts under FAR:
  
                    RESTRICTED RIGHTS LEGEND
  
 Use, reproduction and disclosure by the US Government is
 subject to restrictions as set forth in subparagraphs (a)
 and (c) of the Commercial Computer Software - Restricted
 Rights clause in FAR 52.227-19.
  
 Gaussian, Inc.
 340 Quinnipiac St., Bldg. 40, Wallingford CT 06492
  
  
 ---------------------------------------------------------------
 Warning -- This program may not be used in any manner that
 competes with the business of Gaussian, Inc. or will provide
 assistance to any competitor of Gaussian, Inc.  The licensee
 of this program is prohibited from giving any competitor of
 Gaussian, Inc. access to this program.  By using this program,
 the user acknowledges that Gaussian, Inc. is engaged in the
 business of creating and licensing software in the field of
 computational chemistry and represents and warrants to the
 licensee that it is not a competitor of Gaussian, Inc. and that
 it will not use this program in any manner prohibited above.
 ---------------------------------------------------------------
  

 Cite this work as:
 Gaussian 16, Revision A.03,
 M. J. Frisch, G. W. Trucks, H. B. Schlegel, G. E. Scuseria, 
 M. A. Robb, J. R. Cheeseman, G. Scalmani, V. Barone, 
 G. A. Petersson, H. Nakatsuji, X. Li, M. Caricato, A. V. Marenich, 
 J. Bloino, B. G. Janesko, R. Gomperts, B. Mennucci, H. P. Hratchian, 
 J. V. Ortiz, A. F. Izmaylov, J. L. Sonnenberg, D. Williams-Young, 
 F. Ding, F. Lipparini, F. Egidi, J. Goings, B. Peng, A. Petrone, 
 T. Henderson, D. Ranasinghe, V. G. Zakrzewski, J. Gao, N. Rega, 
 G. Zheng, W. Liang, M. Hada, M. Ehara, K. Toyota, R. Fukuda, 
 J. Hasegawa, M. Ishida, T. Nakajima, Y. Honda, O. Kitao, H. Nakai, 
 T. Vreven, K. Throssell, J. A. Montgomery, Jr., J. E. Peralta, 
 F. Ogliaro, M. J. Bearpark, J. J. Heyd, E. N. Brothers, K. N. Kudin, 
 V. N. Staroverov, T. A. Keith, R. Kobayashi, J. Normand, 
 K. Raghavachari, A. P. Rendell, J. C. Burant, S. S. Iyengar, 
 J. Tomasi, M. Cossi, J. M. Millam, M. Klene, C. Adamo, R. Cammi, 
 J. W. Ochterski, R. L. Martin, K. Morokuma, O. Farkas, 
 J. B. Foresman, and D. J. Fox, Gaussian, Inc., Wallingford CT, 2016.
 
 ******************************************
 Gaussian 16:  ES64L-G16RevA.03 25-Dec-2016
                17-Sep-2021 
 ******************************************
 %chk=geometry.chk
 %mem=2GB
 %nprocshared=1
 Will use up to    1 processors via shared memory.
 --------------------------------------------------------------------
 #p B3LYP/6-311+G** #p TD=(singlets,nstates=30)IOp(6/8=3) IOp(9/40=4)
 --------------------------------------------------------------------
 1/38=1,172=1/1;
 2/12=2,17=6,18=5,40=1/2;
 3/5=4,6=6,7=111,11=9,25=1,30=1,74=-5/1,2,3,8;
 4//1;
 5/5=2,38=5/2;
 8/6=1,10=2,108=30/1;
 9/40=4,41=30,42=1,48=1,70=2/14;
 6/7=2,8=3,9=2,10=2/1;
 99/5=1,9=1/99;
 Leave Link    1 at Fri Sep 17 10:52:09 2021, MaxMem=   268435456 cpu:               0.0 elap:               0.7
 (Enter /software/gaussian/g16-a03/l101.exe)
 ---------------------------------------------
 Scan Step 103, Bond Length 1.0150000000000001
 ---------------------------------------------
 Symbolic Z-matrix:
 Charge =  0 Multiplicity = 1
 C                     0.        0.       -0.52736 
 H                     0.        0.93726  -1.11871 
 H                     0.       -0.93726  -1.11871 
 O                     0.        0.        0.48764 
 
 ITRead=  0  0  0  0
 MicOpt= -1 -1 -1 -1
 NAtoms=      4 NQM=        4 NQMF=       0 NMMI=      0 NMMIF=      0
                NMic=       0 NMicF=      0.
                    Isotopes and Nuclear Properties:
 (Nuclear quadrupole moments (NQMom) in fm**2, nuclear magnetic moments (NMagM)
  in nuclear magnetons)

  Atom         1           2           3           4
 IAtWgt=          12           1           1          16
 AtmWgt=  12.0000000   1.0078250   1.0078250  15.9949146
 NucSpn=           0           1           1           0
 AtZEff=  -0.0000000  -0.0000000  -0.0000000  -0.0000000
 NQMom=    0.0000000   0.0000000   0.0000000   0.0000000
 NMagM=    0.0000000   2.7928460   2.7928460   0.0000000
 AtZNuc=   6.0000000   1.0000000   1.0000000   8.0000000
 Leave Link  101 at Fri Sep 17 10:52:09 2021, MaxMem=   268435456 cpu:               0.1 elap:               0.1
 (Enter /software/gaussian/g16-a03/l202.exe)
                          Input orientation:                          
 ---------------------------------------------------------------------
 Center     Atomic      Atomic             Coordinates (Angstroms)
 Number     Number       Type             X           Y           Z
 ---------------------------------------------------------------------
      1          6           0        0.000000    0.000000   -0.527360
      2          1           0        0.000000    0.937260   -1.118710
      3          1           0        0.000000   -0.937260   -1.118710
      4          8           0        0.000000    0.000000    0.487640
 ---------------------------------------------------------------------
                    Distance matrix (angstroms):
                    1          2          3          4
     1  C    0.000000
     2  H    1.108220   0.000000
     3  H    1.108220   1.874520   0.000000
     4  O    1.015000   1.859789   1.859789   0.000000
 Stoichiometry    CH2O
 Framework group  C2V[C2(CO),SGV(H2)]
 Deg. of freedom     3
 Full point group                 C2V     NOp   4
 Largest Abelian subgroup         C2V     NOp   4
 Largest concise Abelian subgroup C2      NOp   2
                         Standard orientation:                         
 ---------------------------------------------------------------------
 Center     Atomic      Atomic             Coordinates (Angstroms)
 Number     Number       Type             X           Y           Z
 ---------------------------------------------------------------------
      1          6           0        0.000000    0.000000   -0.433581
      2          1           0        0.000000    0.937260   -1.024931
      3          1           0       -0.000000   -0.937260   -1.024931
      4          8           0        0.000000   -0.000000    0.581419
 ---------------------------------------------------------------------
 Rotational constants (GHZ):         285.4183527          52.4092589          44.2786907
 Leave Link  202 at Fri Sep 17 10:52:09 2021, MaxMem=   268435456 cpu:               0.0 elap:               0.0
 (Enter /software/gaussian/g16-a03/l301.exe)
 Standard basis: 6-311+G(d,p) (5D, 7F)
 Ernie: Thresh=  0.10000D-02 Tol=  0.10000D-05 Strict=F.
 There are    29 symmetry adapted cartesian basis functions of A1  symmetry.
 There are     3 symmetry adapted cartesian basis functions of A2  symmetry.
 There are    11 symmetry adapted cartesian basis functions of B1  symmetry.
 There are    15 symmetry adapted cartesian basis functions of B2  symmetry.
 There are    27 symmetry adapted basis functions of A1  symmetry.
 There are     3 symmetry adapted basis functions of A2  symmetry.
 There are    11 symmetry adapted basis functions of B1  symmetry.
 There are    15 symmetry adapted basis functions of B2  symmetry.
    56 basis functions,    88 primitive gaussians,    58 cartesian basis functions
     8 alpha electrons        8 beta electrons
       nuclear repulsion energy        35.5900312093 Hartrees.
 IExCor=  402 DFT=T Ex+Corr=B3LYP ExCW=0 ScaHFX=  0.200000
 ScaDFX=  0.800000  0.720000  1.000000  0.810000 ScalE2=  1.000000  1.000000
 IRadAn=      5 IRanWt=     -1 IRanGd=            0 ICorTp=0 IEmpDi=  4
 NAtoms=    4 NActive=    4 NUniq=    3 SFac= 1.78D+00 NAtFMM=   60 NAOKFM=F Big=F
 Integral buffers will be    131072 words long.
 Regular integral format.
 Two-electron integral symmetry is turned on.
 Leave Link  301 at Fri Sep 17 10:52:09 2021, MaxMem=   268435456 cpu:               0.0 elap:               0.1
 (Enter /software/gaussian/g16-a03/l302.exe)
 NPDir=0 NMtPBC=     1 NCelOv=     1 NCel=       1 NClECP=     1 NCelD=      1
         NCelK=      1 NCelE2=     1 NClLst=     1 CellRange=     0.0.
 One-electron integrals computed using PRISM.
 One-electron integral symmetry used in STVInt
 NBasis=    56 RedAO= T EigKep=  2.11D-03  NBF=    27     3    11    15
 NBsUse=    56 1.00D-06 EigRej= -1.00D+00 NBFU=    27     3    11    15
 Precomputing XC quadrature grid using
 IXCGrd= 4 IRadAn=           5 IRanWt=          -1 IRanGd=           0 AccXCQ= 0.00D+00.
 Generated NRdTot=       0 NPtTot=           0 NUsed=           0 NTot=          32
 NSgBfM=    58    58    58    58    58 MxSgAt=     4 MxSgA2=     4.
 Leave Link  302 at Fri Sep 17 10:52:09 2021, MaxMem=   268435456 cpu:               0.1 elap:               0.1
 (Enter /software/gaussian/g16-a03/l303.exe)
 DipDrv:  MaxL=1.
 Leave Link  303 at Fri Sep 17 10:52:09 2021, MaxMem=   268435456 cpu:               0.0 elap:               0.0
 (Enter /software/gaussian/g16-a03/l308.exe)
 Leave Link  308 at Fri Sep 17 10:52:09 2021, MaxMem=   268435456 cpu:               0.0 elap:               0.0
 (Enter /software/gaussian/g16-a03/l401.exe)
 ExpMin= 4.38D-02 ExpMax= 8.59D+03 ExpMxC= 1.30D+03 IAcc=3 IRadAn=         5 AccDes= 0.00D+00
 Harris functional with IExCor=  402 and IRadAn=       5 diagonalized for initial guess.
 HarFok:  IExCor=  402 AccDes= 0.00D+00 IRadAn=         5 IDoV= 1 UseB2=F ITyADJ=14
 ICtDFT=  3500011 ScaDFX=  1.000000  1.000000  1.000000  1.000000
 FoFCou: FMM=F IPFlag=           0 FMFlag=      100000 FMFlg1=           0
         NFxFlg=           0 DoJE=T BraDBF=F KetDBF=T FulRan=T
         wScrn=  0.000000 ICntrl=       500 IOpCl=  0 I1Cent=   200000004 NGrid=           0
         NMat0=    1 NMatS0=      1 NMatT0=    0 NMatD0=    1 NMtDS0=    0 NMtDT0=    0
 Petite list used in FoFCou.
 Harris En= -114.495666596508    
 JPrj=0 DoOrth=F DoCkMO=F.
 Initial guess orbital symmetries:
       Occupied  (A1) (A1) (A1) (A1) (B2) (A1) (B1) (B2)
       Virtual   (B1) (A1) (A1) (B2) (B1) (A1) (A1) (B2) (B2) (B1)
                 (A1) (A1) (A1) (B2) (B1) (B2) (A1) (A1) (A2) (B1)
                 (B2) (A1) (B1) (A1) (A1) (B2) (B2) (B1) (A2) (A1)
                 (A1) (B2) (A1) (B2) (B1) (A1) (A2) (A1) (B1) (B2)
                 (A1) (A1) (B2) (B1) (B2) (A1) (A1) (A1)
 The electronic state of the initial guess is 1-A1.
 Leave Link  401 at Fri Sep 17 10:52:10 2021, MaxMem=   268435456 cpu:               0.3 elap:               0.3
 (Enter /software/gaussian/g16-a03/l502.exe)
 Keep R1 ints in memory in symmetry-blocked form, NReq=2159909.
 FoFCou: FMM=F IPFlag=           0 FMFlag=           0 FMFlg1=           0
         NFxFlg=           0 DoJE=F BraDBF=F KetDBF=F FulRan=T
         wScrn=  0.000000 ICntrl=       600 IOpCl=  0 I1Cent=           0 NGrid=           0
         NMat0=    1 NMatS0=   1596 NMatT0=    0 NMatD0=    1 NMtDS0=    0 NMtDT0=    0
 Petite list used in FoFCou.
 Closed shell SCF:
 Using DIIS extrapolation, IDIIS=  1040.
 NGot=   268435456 LenX=   268074384 LenY=   268070579
 Requested convergence on RMS density matrix=1.00D-08 within 128 cycles.
 Requested convergence on MAX density matrix=1.00D-06.
 Requested convergence on             energy=1.00D-06.
 No special actions if energy rises.

 Cycle   1  Pass 1  IDiag  1:
 E= -114.370957623952    
 DIIS: error= 5.46D-02 at cycle   1 NSaved=   1.
 NSaved= 1 IEnMin= 1 EnMin= -114.370957623952     IErMin= 1 ErrMin= 5.46D-02
 ErrMax= 5.46D-02  0.00D+00 EMaxC= 1.00D-01 BMatC= 1.31D-01 BMatP= 1.31D-01
 IDIUse=3 WtCom= 4.54D-01 WtEn= 5.46D-01
 Coeff-Com:  0.100D+01
 Coeff-En:   0.100D+01
 Coeff:      0.100D+01
 Gap=     0.176 Goal=   None    Shift=    0.000
 GapD=    0.176 DampG=1.000 DampE=0.500 DampFc=0.5000 IDamp=-1.
 Damping current iteration by 5.00D-01
 RMSDP=1.10D-02 MaxDP=1.28D-01              OVMax= 2.29D-01

 Cycle   2  Pass 1  IDiag  1:
 E= -114.395264690769     Delta-E=       -0.024307066816 Rises=F Damp=T
 DIIS: error= 1.95D-02 at cycle   2 NSaved=   2.
 NSaved= 2 IEnMin= 2 EnMin= -114.395264690769     IErMin= 2 ErrMin= 1.95D-02
 ErrMax= 1.95D-02  0.00D+00 EMaxC= 1.00D-01 BMatC= 1.22D-02 BMatP= 1.31D-01
 IDIUse=3 WtCom= 8.05D-01 WtEn= 1.95D-01
 Coeff-Com:  0.175D+00 0.825D+00
 Coeff-En:   0.338D+00 0.662D+00
 Coeff:      0.207D+00 0.793D+00
 Gap=     0.275 Goal=   None    Shift=    0.000
 RMSDP=2.55D-03 MaxDP=2.93D-02 DE=-2.43D-02 OVMax= 1.56D-01

 Cycle   3  Pass 1  IDiag  1:
 E= -114.453216733151     Delta-E=       -0.057952042383 Rises=F Damp=F
 DIIS: error= 1.12D-02 at cycle   3 NSaved=   3.
 NSaved= 3 IEnMin= 3 EnMin= -114.453216733151     IErMin= 3 ErrMin= 1.12D-02
 ErrMax= 1.12D-02  0.00D+00 EMaxC= 1.00D-01 BMatC= 5.07D-03 BMatP= 1.22D-02
 IDIUse=3 WtCom= 8.88D-01 WtEn= 1.12D-01
 Coeff-Com:  0.288D-01 0.396D+00 0.575D+00
 Coeff-En:   0.000D+00 0.000D+00 0.100D+01
 Coeff:      0.256D-01 0.352D+00 0.622D+00
 Gap=     0.248 Goal=   None    Shift=    0.000
 RMSDP=9.47D-04 MaxDP=1.88D-02 DE=-5.80D-02 OVMax= 3.19D-02

 Cycle   4  Pass 1  IDiag  1:
 E= -114.456742784337     Delta-E=       -0.003526051186 Rises=F Damp=F
 DIIS: error= 3.94D-03 at cycle   4 NSaved=   4.
 NSaved= 4 IEnMin= 4 EnMin= -114.456742784337     IErMin= 4 ErrMin= 3.94D-03
 ErrMax= 3.94D-03  0.00D+00 EMaxC= 1.00D-01 BMatC= 4.88D-04 BMatP= 5.07D-03
 IDIUse=3 WtCom= 9.61D-01 WtEn= 3.94D-02
 Coeff-Com: -0.112D-01 0.481D-01 0.272D+00 0.691D+00
 Coeff-En:   0.000D+00 0.000D+00 0.285D-01 0.971D+00
 Coeff:     -0.107D-01 0.462D-01 0.262D+00 0.702D+00
 Gap=     0.249 Goal=   None    Shift=    0.000
 RMSDP=2.63D-04 MaxDP=5.97D-03 DE=-3.53D-03 OVMax= 5.84D-03

 Cycle   5  Pass 1  IDiag  1:
 E= -114.457144229741     Delta-E=       -0.000401445403 Rises=F Damp=F
 DIIS: error= 1.92D-04 at cycle   5 NSaved=   5.
 NSaved= 5 IEnMin= 5 EnMin= -114.457144229741     IErMin= 5 ErrMin= 1.92D-04
 ErrMax= 1.92D-04  0.00D+00 EMaxC= 1.00D-01 BMatC= 1.88D-06 BMatP= 4.88D-04
 IDIUse=3 WtCom= 9.98D-01 WtEn= 1.92D-03
 Coeff-Com: -0.300D-03-0.239D-02 0.270D-01 0.112D+00 0.864D+00
 Coeff-En:   0.000D+00 0.000D+00 0.000D+00 0.000D+00 0.100D+01
 Coeff:     -0.299D-03-0.239D-02 0.270D-01 0.111D+00 0.864D+00
 Gap=     0.249 Goal=   None    Shift=    0.000
 RMSDP=3.29D-05 MaxDP=3.12D-04 DE=-4.01D-04 OVMax= 6.00D-04

 Cycle   6  Pass 1  IDiag  1:
 E= -114.457146203770     Delta-E=       -0.000001974029 Rises=F Damp=F
 DIIS: error= 1.37D-05 at cycle   6 NSaved=   6.
 NSaved= 6 IEnMin= 6 EnMin= -114.457146203770     IErMin= 6 ErrMin= 1.37D-05
 ErrMax= 1.37D-05  0.00D+00 EMaxC= 1.00D-01 BMatC= 6.52D-09 BMatP= 1.88D-06
 IDIUse=1 WtCom= 1.00D+00 WtEn= 0.00D+00
 Coeff-Com:  0.219D-03-0.572D-03-0.180D-02-0.178D-02 0.188D-01 0.985D+00
 Coeff:      0.219D-03-0.572D-03-0.180D-02-0.178D-02 0.188D-01 0.985D+00
 Gap=     0.249 Goal=   None    Shift=    0.000
 RMSDP=1.67D-06 MaxDP=1.93D-05 DE=-1.97D-06 OVMax= 3.67D-05

 Cycle   7  Pass 1  IDiag  1:
 E= -114.457146211103     Delta-E=       -0.000000007334 Rises=F Damp=F
 DIIS: error= 1.80D-06 at cycle   7 NSaved=   7.
 NSaved= 7 IEnMin= 7 EnMin= -114.457146211103     IErMin= 7 ErrMin= 1.80D-06
 ErrMax= 1.80D-06  0.00D+00 EMaxC= 1.00D-01 BMatC= 9.49D-11 BMatP= 6.52D-09
 IDIUse=1 WtCom= 1.00D+00 WtEn= 0.00D+00
 Coeff-Com: -0.663D-05 0.123D-04-0.389D-04-0.674D-03-0.647D-02 0.836D-02
 Coeff-Com:  0.999D+00
 Coeff:     -0.663D-05 0.123D-04-0.389D-04-0.674D-03-0.647D-02 0.836D-02
 Coeff:      0.999D+00
 Gap=     0.249 Goal=   None    Shift=    0.000
 RMSDP=2.02D-07 MaxDP=1.87D-06 DE=-7.33D-09 OVMax= 3.57D-06

 Cycle   8  Pass 1  IDiag  1:
 E= -114.457146211198     Delta-E=       -0.000000000094 Rises=F Damp=F
 DIIS: error= 1.77D-07 at cycle   8 NSaved=   8.
 NSaved= 8 IEnMin= 8 EnMin= -114.457146211198     IErMin= 8 ErrMin= 1.77D-07
 ErrMax= 1.77D-07  0.00D+00 EMaxC= 1.00D-01 BMatC= 7.31D-13 BMatP= 9.49D-11
 IDIUse=1 WtCom= 1.00D+00 WtEn= 0.00D+00
 Coeff-Com: -0.124D-05 0.238D-05-0.161D-05-0.841D-04-0.831D-03-0.320D-02
 Coeff-Com:  0.811D-01 0.923D+00
 Coeff:     -0.124D-05 0.238D-05-0.161D-05-0.841D-04-0.831D-03-0.320D-02
 Coeff:      0.811D-01 0.923D+00
 Gap=     0.249 Goal=   None    Shift=    0.000
 RMSDP=2.67D-08 MaxDP=2.66D-07 DE=-9.40D-11 OVMax= 3.52D-07

 Cycle   9  Pass 1  IDiag  1:
 E= -114.457146211198     Delta-E=       -0.000000000001 Rises=F Damp=F
 DIIS: error= 2.63D-08 at cycle   9 NSaved=   9.
 NSaved= 9 IEnMin= 9 EnMin= -114.457146211198     IErMin= 9 ErrMin= 2.63D-08
 ErrMax= 2.63D-08  0.00D+00 EMaxC= 1.00D-01 BMatC= 3.59D-14 BMatP= 7.31D-13
 IDIUse=1 WtCom= 1.00D+00 WtEn= 0.00D+00
 Coeff-Com: -0.145D-06 0.464D-06 0.166D-05-0.288D-05-0.177D-04-0.109D-02
 Coeff-Com: -0.791D-02 0.137D+00 0.872D+00
 Coeff:     -0.145D-06 0.464D-06 0.166D-05-0.288D-05-0.177D-04-0.109D-02
 Coeff:     -0.791D-02 0.137D+00 0.872D+00
 Gap=     0.249 Goal=   None    Shift=    0.000
 RMSDP=2.32D-09 MaxDP=4.54D-08 DE=-9.09D-13 OVMax= 5.49D-08

 SCF Done:  E(RB3LYP) =  -114.457146211     A.U. after    9 cycles
            NFock=  9  Conv=0.23D-08     -V/T= 1.9933
 KE= 1.152288087042D+02 PE=-3.406663654102D+02 EE= 7.539037928553D+01
 Leave Link  502 at Fri Sep 17 10:52:12 2021, MaxMem=   268435456 cpu:               1.6 elap:               1.9
 (Enter /software/gaussian/g16-a03/l801.exe)
 DoSCS=F DFT=T ScalE2(SS,OS)=  1.000000  1.000000
 ExpMin= 4.38D-02 ExpMax= 8.59D+03 ExpMxC= 1.30D+03 IAcc=3 IRadAn=         5 AccDes= 0.00D+00
 HarFok:  IExCor=  205 AccDes= 0.00D+00 IRadAn=         5 IDoV=-2 UseB2=F ITyADJ=14
 ICtDFT= 12500011 ScaDFX=  1.000000  1.000000  1.000000  1.000000
 Largest valence mixing into a core orbital is  4.13D-05
 Largest core mixing into a valence orbital is  8.13D-06
 Range of M.O.s used for correlation:     3    56
 NBasis=    56 NAE=     8 NBE=     8 NFC=     2 NFV=     0
 NROrb=     54 NOA=     6 NOB=     6 NVA=    48 NVB=    48
 Leave Link  801 at Fri Sep 17 10:52:12 2021, MaxMem=   268435456 cpu:               0.2 elap:               0.2
 (Enter /software/gaussian/g16-a03/l914.exe)
 RHF ground state
 Keep R1, R2, and R3 ints in memory in symmetry-blocked form, NReq=6042848.
 FoFCou: FMM=F IPFlag=           0 FMFlag=           0 FMFlg1=           0
         NFxFlg=           0 DoJE=F BraDBF=F KetDBF=F FulRan=T
         wScrn=  0.000000 ICntrl=       600 IOpCl=  0 I1Cent=           0 NGrid=           0
         NMat0=    1 NMatS0=   1596 NMatT0=    0 NMatD0=    1 NMtDS0=    0 NMtDT0=    0
 Petite list used in FoFCou.
 MDV=   268435456 DFT=T DoStab=F Mixed=T DoRPA=T DoScal=F NonHer=T
 Making orbital integer symmetry assigments:
 Orbital symmetries:
       Occupied  (A1) (A1) (A1) (A1) (B2) (A1) (B1) (B2)
       Virtual   (B1) (A1) (A1) (B2) (B1) (A1) (A1) (B2) (B1) (B2)
                 (A1) (A1) (A1) (B2) (B1) (B2) (A1) (A1) (A2) (B1)
                 (B2) (A1) (B1) (A1) (A1) (B2) (B2) (B1) (A2) (A1)
                 (A1) (B2) (A1) (B2) (A1) (B1) (A1) (A2) (B1) (B2)
                 (A1) (B2) (A1) (B1) (B2) (A1) (A1) (A1)
   120 initial guesses have been made.
 Convergence on wavefunction:    0.001000000000000
 Davidson Disk Diagonalization:  ConvIn= 1.00D-03 SkipCon=T Conv= 1.00D-03.
 Max sub-space:  1728 roots to seek:   120 dimension of matrix:          576
 Iteration     1 Dimension   120 NMult     0 NNew    120
 CISAX will form   120 AO SS matrices at one time.
 NMat=   120 NSing=   120 JSym2X=-1.
 New state      9 was old state     11
 New state     11 was old state     12
 New state     12 was old state     13
 New state     13 was old state     20
 New state     16 was old state      9
 New state     17 was old state     16
 New state     18 was old state     17
 New state     20 was old state     18
 New state     21 was old state     23
 New state     23 was old state     21
 New state     25 was old state     26
 New state     26 was old state     27
 New state     27 was old state     25
 New state     29 was old state     31
 New state     30 was old state     29
 Excitation Energies [eV] at current iteration:
 Root      1 :     5.041053001428491
 Root      2 :     6.414095075626167
 Root      3 :     7.206592359672765
 Root      4 :     7.345853725327814
 Root      5 :     7.879286146769847
 Root      6 :    10.216954423615330
 Root      7 :    10.772443920593440
 Root      8 :    11.545458317940940
 Root      9 :    11.587887017979520
 Root     10 :    11.811011334109470
 Root     11 :    12.188918157305900
 Root     12 :    12.564274343553320
 Root     13 :    12.802991586740560
 Root     14 :    12.806320665789640
 Root     15 :    13.241164765895880
 Root     16 :    13.383296204821550
 Root     17 :    13.443165279738150
 Root     18 :    13.446113477455490
 Root     19 :    13.684783972759420
 Root     20 :    13.705900306501830
 Root     21 :    14.306399920591210
 Root     22 :    14.323963032869390
 Root     23 :    14.445586833442630
 Root     24 :    15.199721622819910
 Root     25 :    15.430047500775990
 Root     26 :    15.448949099006790
 Root     27 :    15.465756902712900
 Root     28 :    15.784708735525180
 Root     29 :    16.052139373594940
 Root     30 :    16.161846685968130
 Root     31 :    16.505428771218890
 Root     32 :    16.966843748916250
 Root     33 :    16.984966411623000
 Root     34 :    16.995326671180520
 Root     35 :    17.090281003423290
 Root     36 :    17.331753705116030
 Root     37 :    17.558909305910060
 Root     38 :    17.676334581366550
 Root     39 :    17.898745187733040
 Root     40 :    18.051647014596530
 Root     41 :    18.133687602962380
 Root     42 :    18.359803072083370
 Root     43 :    18.440627926816390
 Root     44 :    18.820053795253130
 Root     45 :    19.351648620602960
 Root     46 :    19.408100913486040
 Root     47 :    19.415065421035250
 Root     48 :    19.637567428842110
 Root     49 :    19.770825131023300
 Root     50 :    19.814919264946490
 Root     51 :    19.909128689838570
 Root     52 :    20.525570848807720
 Root     53 :    20.776604441125690
 Root     54 :    20.978829270933690
 Root     55 :    21.069702462744180
 Root     56 :    21.206603965230650
 Root     57 :    21.625370798639320
 Root     58 :    21.640316682043490
 Root     59 :    21.799951807523650
 Root     60 :    22.188540561846570
 Root     61 :    23.016389159547750
 Root     62 :    23.589695785733840
 Root     63 :    23.804814841914240
 Root     64 :    24.294429840925080
 Root     65 :    25.318462085798530
 Root     66 :    25.378036916344480
 Root     67 :    25.426005348873120
 Root     68 :    25.830053109614130
 Root     69 :    25.898003232357930
 Root     70 :    25.957817646691010
 Root     71 :    26.455303283838830
 Root     72 :    27.131408955883070
 Root     73 :    27.249363798400180
 Root     74 :    27.712419816493410
 Root     75 :    28.804707256588210
 Root     76 :    29.059328883889740
 Root     77 :    29.237649909497780
 Root     78 :    29.305823533508250
 Root     79 :    29.509086982323540
 Root     80 :    30.027248450825590
 Root     81 :    30.432215531048710
 Root     82 :    30.521600824835000
 Root     83 :    30.655706052364450
 Root     84 :    31.631684604646220
 Root     85 :    31.839053752516080
 Root     86 :    32.191630125874990
 Root     87 :    32.522873774430760
 Root     88 :    32.590949965980040
 Root     89 :    32.631685726610240
 Root     90 :    33.001962635866190
 Root     91 :    33.302711833731640
 Root     92 :    33.352768064285990
 Root     93 :    34.557547471291410
 Root     94 :    34.855698737110710
 Root     95 :    35.286245279253760
 Root     96 :    35.392715776698160
 Root     97 :    36.075954768039910
 Root     98 :    36.312529421578270
 Root     99 :    36.607707704885100
 Root    100 :    37.298774330590620
 Root    101 :    37.328854092548460
 Root    102 :    37.883056526192430
 Root    103 :    38.219077270797650
 Root    104 :    38.428015886806770
 Root    105 :    38.979000870692360
 Root    106 :    39.313460616715260
 Root    107 :    39.380577526108420
 Root    108 :    39.538867138928820
 Root    109 :    39.829044623766490
 Root    110 :    40.090713517836580
 Root    111 :    40.638926641039500
 Root    112 :    40.919193120325190
 Root    113 :    41.227813817235120
 Root    114 :    41.311974154645750
 Root    115 :    41.441196673840320
 Root    116 :    41.754406755399780
 Root    117 :    42.234412692707340
 Root    118 :    42.628499438682190
 Root    119 :    43.144703215898530
 Root    120 :    48.077466392785120
 Iteration     2 Dimension   180 NMult   120 NNew     60
 CISAX will form    60 AO SS matrices at one time.
 NMat=    60 NSing=    60 JSym2X=-1.
 Root      1 not converged, maximum delta is    0.005779766089385
 Root      2 not converged, maximum delta is    0.003603309679466
 Root      3 not converged, maximum delta is    0.002618518894749
 Root      4 not converged, maximum delta is    0.003659476707054
 Root      5 not converged, maximum delta is    0.001985516507032
 Root      6 not converged, maximum delta is    0.007116624872980
 Root      7 not converged, maximum delta is    0.002738317899577
 New state      8 was old state      9
 Root      8 not converged, maximum delta is    0.010907359896145
 New state      9 was old state      8
 Root      9 not converged, maximum delta is    0.007339992916655
 Root     10 not converged, maximum delta is    0.001539846730512
 Root     11 not converged, maximum delta is    0.019306722848676
 Root     12 not converged, maximum delta is    0.001361520308969
 New state     13 was old state     14
 Root     13 not converged, maximum delta is    0.026859903575236
 New state     14 was old state     13
 Root     14 not converged, maximum delta is    0.006578228494388
 Root     15 not converged, maximum delta is    0.009909405370821
 Root     16 not converged, maximum delta is    0.069104994730832
 Root     17 not converged, maximum delta is    0.005781631451061
 Root     18 not converged, maximum delta is    0.001028727939078
 New state     19 was old state     20
 Root     19 not converged, maximum delta is    0.045205361961982
 New state     20 was old state     19
 Root     20 not converged, maximum delta is    0.009654429730256
 Root     21 not converged, maximum delta is    0.011073726647168
 Root     22 not converged, maximum delta is    0.003268864045690
 Root     23 not converged, maximum delta is    0.023700070880206
 Root     24 not converged, maximum delta is    0.016040239259957
 Root     25 not converged, maximum delta is    0.045849053811052
 Root     26 not converged, maximum delta is    0.015258561504919
 Root     27 not converged, maximum delta is    0.017393720273393
 Root     28 not converged, maximum delta is    0.002349334633270
 Root     29 not converged, maximum delta is    0.004313628663873
 Root     30 not converged, maximum delta is    0.040686612634300
 Excitation Energies [eV] at current iteration:
 Root      1 :     5.028854448390466   Change is   -0.012198553038025
 Root      2 :     6.410959510693779   Change is   -0.003135564932388
 Root      3 :     7.201061128942695   Change is   -0.005531230730070
 Root      4 :     7.342689464439687   Change is   -0.003164260888127
 Root      5 :     7.877847189919447   Change is   -0.001438956850399
 Root      6 :    10.202743756898790   Change is   -0.014210666716536
 Root      7 :    10.770261980656610   Change is   -0.002181939936829
 Root      8 :    11.517948459354900   Change is   -0.069938558624613
 Root      9 :    11.533012793471160   Change is   -0.012445524469771
 Root     10 :    11.809814688319880   Change is   -0.001196645789586
 Root     11 :    12.167368327815440   Change is   -0.021549829490463
 Root     12 :    12.563392641956640   Change is   -0.000881701596680
 Root     13 :    12.781213219089010   Change is   -0.025107446700629
 Root     14 :    12.796350004450000   Change is   -0.006641582290561
 Root     15 :    13.232424828923310   Change is   -0.008739936972575
 Root     16 :    13.336637019106860   Change is   -0.046659185714699
 Root     17 :    13.437904192598520   Change is   -0.005261087139636
 Root     18 :    13.445715862232460   Change is   -0.000397615223028
 Root     19 :    13.674466926417730   Change is   -0.031433380084102
 Root     20 :    13.677781994996490   Change is   -0.007001977762930
 Root     21 :    14.294094591200810   Change is   -0.012305329390402
 Root     22 :    14.320568864170910   Change is   -0.003394168698486
 Root     23 :    14.397638031648030   Change is   -0.047948801794600
 Root     24 :    15.194761497526370   Change is   -0.004960125293544
 Root     25 :    15.377989444778300   Change is   -0.052058055997694
 Root     26 :    15.427927304019740   Change is   -0.021021794987048
 Root     27 :    15.444508532600540   Change is   -0.021248370112366
 Root     28 :    15.783725786666660   Change is   -0.000982948858511
 Root     29 :    16.047899200105200   Change is   -0.004240173489746
 Root     30 :    16.094360504042000   Change is   -0.067486181926130
 Iteration     3 Dimension   239 NMult   180 NNew     59
 CISAX will form    59 AO SS matrices at one time.
 NMat=    59 NSing=    59 JSym2X=-1.
 Root      1 has converged.
 Root      2 has converged.
 Root      3 has converged.
 Root      4 has converged.
 Root      5 has converged.
 Root      6 has converged.
 Root      7 has converged.
 Root      8 has converged.
 Root      9 has converged.
 Root     10 has converged.
 Root     11 has converged.
 Root     12 has converged.
 Root     13 has converged.
 Root     14 has converged.
 Root     15 has converged.
 Root     16 has converged.
 Root     17 has converged.
 Root     18 has converged.
 Root     19 has converged.
 Root     20 has converged.
 Root     21 has converged.
 Root     22 has converged.
 Root     23 has converged.
 Root     24 has converged.
 Root     25 has converged.
 Root     26 has converged.
 Root     27 has converged.
 Root     28 has converged.
 Root     29 has converged.
 Root     30 has converged.
 Excitation Energies [eV] at current iteration:
 Root      1 :     5.028851976977926   Change is   -0.000002471412540
 Root      2 :     6.410957221171346   Change is   -0.000002289522433
 Root      3 :     7.201058535088219   Change is   -0.000002593854477
 Root      4 :     7.342687520636832   Change is   -0.000001943802855
 Root      5 :     7.877846933474833   Change is   -0.000000256444614
 Root      6 :    10.202736814084340   Change is   -0.000006942814449
 Root      7 :    10.770258502335270   Change is   -0.000003478321336
 Root      8 :    11.517805747976910   Change is   -0.000142711377995
 Root      9 :    11.532993448294140   Change is   -0.000019345177028
 Root     10 :    11.809813834630070   Change is   -0.000000853689816
 Root     11 :    12.167326792239890   Change is   -0.000041535575556
 Root     12 :    12.563390976439060   Change is   -0.000001665517577
 Root     13 :    12.781166086262110   Change is   -0.000047132826897
 Root     14 :    12.796347274746940   Change is   -0.000002729703059
 Root     15 :    13.232412784740620   Change is   -0.000012044182687
 Root     16 :    13.336544510749480   Change is   -0.000092508357373
 Root     17 :    13.437889771573180   Change is   -0.000014421025339
 Root     18 :    13.445715644845410   Change is   -0.000000217387049
 Root     19 :    13.674385409195230   Change is   -0.000081517222495
 Root     20 :    13.677768385739620   Change is   -0.000013609256877
 Root     21 :    14.294060230401510   Change is   -0.000034360799299
 Root     22 :    14.320561515685360   Change is   -0.000007348485546
 Root     23 :    14.397542342233640   Change is   -0.000095689414387
 Root     24 :    15.194748714549520   Change is   -0.000012782976842
 Root     25 :    15.377913454187270   Change is   -0.000075990591024
 Root     26 :    15.427893933547420   Change is   -0.000033370472321
 Root     27 :    15.444452991407800   Change is   -0.000055541192735
 Root     28 :    15.783725317347100   Change is   -0.000000469319563
 Root     29 :    16.047889678486770   Change is   -0.000009521618426
 Root     30 :    16.094296494574460   Change is   -0.000064009467534
 Convergence achieved on expansion vectors.
 ***********************************************************************
 Excited states from <AA,BB:AA,BB> singles matrix:
 ***********************************************************************
 
 1PDM for each excited state written to RWF  633
 Ground to excited state transition densities written to RWF  633
 Ground to excited state transition electric dipole moments (Au):
       state          X           Y           Z        Dip. S.      Osc.
         1         0.0000      0.0000      0.0000      0.0000      0.0000
         2        -0.0000      0.6351      0.0000      0.4034      0.0634
         3        -0.0000      0.3415      0.0000      0.1166      0.0206
         4         0.0000      0.0000     -0.5409      0.2925      0.0526
         5        -0.0000     -0.0000     -0.0000      0.0000      0.0000
         6        -0.0000      0.9617      0.0000      0.9250      0.2312
         7        -0.0000     -0.1141      0.0000      0.0130      0.0034
         8        -0.0046      0.0000     -0.0000      0.0000      0.0000
         9        -0.0000      0.0000     -0.0973      0.0095      0.0027
        10        -0.0000      0.0000      0.0000      0.0000      0.0000
        11         0.0000      0.0000      0.4053      0.1643      0.0490
        12        -0.3616     -0.0000      0.0000      0.1307      0.0402
        13        -0.0000      0.0000     -0.5133      0.2635      0.0825
        14         0.0000      0.0000     -0.0000      0.0000      0.0000
        15         0.0000     -0.3620     -0.0000      0.1310      0.0425
        16         0.0000     -0.0000      1.0874      1.1824      0.3863
        17         0.2501      0.0000     -0.0000      0.0626      0.0206
        18         0.0000      0.0000     -0.0000      0.0000      0.0000
        19         0.0000     -0.0000      0.1609      0.0259      0.0087
        20         0.0000     -0.3559     -0.0000      0.1267      0.0425
        21        -0.2744     -0.0000     -0.0000      0.0753      0.0264
        22         0.0000     -0.5054     -0.0000      0.2555      0.0896
        23         0.0000      0.0000     -0.5928      0.3515      0.1240
        24        -0.0000      0.1923      0.0000      0.0370      0.0138
        25        -0.4065      0.0000     -0.0000      0.1652      0.0623
        26        -0.0000     -0.2492     -0.0000      0.0621      0.0235
        27         0.0000      0.0000     -0.2988      0.0893      0.0338
        28        -0.0000      0.0000     -0.0000      0.0000      0.0000
        29        -0.0000     -0.0000      0.0319      0.0010      0.0004
        30         0.6331      0.0000      0.0000      0.4008      0.1580
 Ground to excited state transition velocity dipole moments (Au):
       state          X           Y           Z        Dip. S.      Osc.
         1        -0.0000     -0.0000     -0.0000      0.0000      0.0000
         2         0.0000     -0.1476     -0.0000      0.0218      0.0616
         3        -0.0000     -0.0940     -0.0000      0.0088      0.0222
         4        -0.0000     -0.0000      0.1402      0.0197      0.0486
         5        -0.0000      0.0000      0.0000      0.0000      0.0000
         6        -0.0000     -0.3605     -0.0000      0.1299      0.2311
         7        -0.0000      0.0137     -0.0000      0.0002      0.0003
         8        -0.0078     -0.0000     -0.0000      0.0001      0.0001
         9         0.0000     -0.0000      0.0487      0.0024      0.0037
        10        -0.0000     -0.0000     -0.0000      0.0000      0.0000
        11         0.0000     -0.0000     -0.1795      0.0322      0.0480
        12         0.1703      0.0000     -0.0000      0.0290      0.0419
        13         0.0000     -0.0000      0.2387      0.0570      0.0809
        14         0.0000     -0.0000      0.0000      0.0000      0.0000
        15        -0.0000      0.1854      0.0000      0.0344      0.0471
        16        -0.0000      0.0000     -0.5299      0.2808      0.3819
        17        -0.1321      0.0000      0.0000      0.0175      0.0236
        18        -0.0000     -0.0000      0.0000      0.0000      0.0000
        19        -0.0000      0.0000     -0.0866      0.0075      0.0100
        20        -0.0000      0.1776      0.0000      0.0316      0.0419
        21         0.1376     -0.0000     -0.0000      0.0189      0.0240
        22        -0.0000      0.2641      0.0000      0.0697      0.0883
        23        -0.0000     -0.0000      0.3175      0.1008      0.1270
        24        -0.0000     -0.1119     -0.0000      0.0125      0.0150
        25         0.2461      0.0000      0.0000      0.0606      0.0714
        26         0.0000      0.1367      0.0000      0.0187      0.0220
        27        -0.0000     -0.0000      0.1752      0.0307      0.0361
        28         0.0000      0.0000      0.0000      0.0000      0.0000
        29         0.0000      0.0000     -0.0230      0.0005      0.0006
        30        -0.3661     -0.0000      0.0000      0.1340      0.1510
 Ground to excited state transition magnetic dipole moments (Au):
       state          X           Y           Z
         1         0.0000      0.0000      1.2915
         2        -0.4382     -0.0000     -0.0000
         3         0.7864     -0.0000     -0.0000
         4         0.0000     -0.0000      0.0000
         5        -0.0000     -0.0000     -0.1916
         6        -0.9103     -0.0000      0.0000
         7         0.7885     -0.0000     -0.0000
         8         0.0000     -1.3414     -0.0000
         9        -0.0000      0.0000     -0.0000
        10        -0.0000     -0.0000      0.0110
        11        -0.0000      0.0000      0.0000
        12         0.0000     -0.0434     -0.0000
        13         0.0000      0.0000      0.0000
        14        -0.0000     -0.0000     -0.4510
        15        -0.5526      0.0000      0.0000
        16        -0.0000     -0.0000     -0.0000
        17        -0.0000     -0.0447     -0.0000
        18         0.0000     -0.0000      0.0523
        19        -0.0000      0.0000      0.0000
        20        -0.2657     -0.0000     -0.0000
        21         0.0000      0.6374      0.0000
        22         0.2716     -0.0000     -0.0000
        23         0.0000     -0.0000     -0.0000
        24        -0.1207     -0.0000     -0.0000
        25        -0.0000     -0.4883     -0.0000
        26         1.0815     -0.0000     -0.0000
        27        -0.0000      0.0000     -0.0000
        28         0.0000     -0.0000      0.0832
        29         0.0000     -0.0000      0.0000
        30        -0.0000      0.1871      0.0000
 Ground to excited state transition velocity quadrupole moments (Au):
       state          XX          YY          ZZ          XY          XZ          YZ
         1         0.0000     -0.0000     -0.0000     -0.1712      0.0000      0.0000
         2        -0.0000     -0.0000     -0.0000     -0.0000     -0.0000      0.5354
         3         0.0000      0.0000      0.0000     -0.0000     -0.0000      0.1707
         4        -0.1387     -0.5502     -0.2270      0.0000     -0.0000      0.0000
         5         0.0000     -0.0000     -0.0000     -0.1329     -0.0000     -0.0000
         6         0.0000      0.0000      0.0000      0.0000     -0.0000      0.8192
         7         0.0000     -0.0000     -0.0000      0.0000     -0.0000      0.2722
         8        -0.0000     -0.0000     -0.0000     -0.0000     -0.4581     -0.0000
         9         0.1110     -0.6984     -0.8143      0.0000      0.0000      0.0000
        10        -0.0000     -0.0000     -0.0000      0.3008     -0.0000      0.0000
        11        -0.2643     -0.1516      0.0114     -0.0000      0.0000      0.0000
        12         0.0000     -0.0000      0.0000      0.0000     -0.0381     -0.0000
        13        -0.0575     -0.0185      0.2040     -0.0000      0.0000      0.0000
        14        -0.0000     -0.0000      0.0000      0.2255      0.0000     -0.0000
        15        -0.0000     -0.0000     -0.0000      0.0000     -0.0000      0.1286
        16         0.4641      0.7310      0.6223      0.0000     -0.0000      0.0000
        17         0.0000     -0.0000      0.0000     -0.0000     -0.2735      0.0000
        18        -0.0000     -0.0000     -0.0000      0.2502     -0.0000     -0.0000
        19        -0.4500     -0.4660     -0.1598     -0.0000     -0.0000      0.0000
        20         0.0000      0.0000      0.0000     -0.0000     -0.0000      0.0074
        21         0.0000     -0.0000     -0.0000     -0.0000      0.2479     -0.0000
        22         0.0000     -0.0000     -0.0000     -0.0000     -0.0000     -0.3663
        23         0.4032     -0.4235     -0.0419      0.0000     -0.0000      0.0000
        24        -0.0000      0.0000      0.0000     -0.0000     -0.0000     -0.3536
        25         0.0000      0.0000      0.0000      0.0000     -0.3505      0.0000
        26         0.0000      0.0000     -0.0000     -0.0000     -0.0000     -0.0773
        27         0.2294      0.5573     -0.0647     -0.0000      0.0000      0.0000
        28         0.0000      0.0000     -0.0000      0.2696     -0.0000     -0.0000
        29        -0.3536      0.1805     -0.2384      0.0000     -0.0000     -0.0000
        30        -0.0000      0.0000      0.0000      0.0000      0.4079      0.0000
 <0|del|b> * <b|rxdel|0> + <0|del|b> * <b|delr+rdel|0>
 Rotatory Strengths (R) in cgs (10**-40 erg-esu-cm/Gauss)
       state          XX          YY          ZZ    R(velocity)    E-M Angle
         1        -0.0000     -0.0000     -0.0000     -0.0000       90.00
         2         0.0000      0.0000     -0.0000     -0.0000       90.00
         3        -0.0000     -0.0000     -0.0000     -0.0000       90.00
         4         0.0000      0.0000     -0.0000      0.0000       90.00
         5        -0.0000     -0.0000      0.0000     -0.0000       90.00
         6        -0.0000      0.0000      0.0000      0.0000       90.00
         7         0.0000     -0.0000     -0.0000     -0.0000       90.00
         8         0.0000      0.0000      0.0000      0.0000       90.00
         9        -0.0000     -0.0000     -0.0000     -0.0000       90.00
        10        -0.0000      0.0000      0.0000     -0.0000       90.00
        11         0.0000     -0.0000     -0.0000     -0.0000       90.00
        12        -0.0000      0.0000      0.0000      0.0000       90.00
        13         0.0000      0.0000     -0.0000      0.0000       90.00
        14        -0.0000     -0.0000      0.0000     -0.0000       90.00
        15         0.0000      0.0000      0.0000      0.0000       90.00
        16        -0.0000      0.0000     -0.0000      0.0000       90.00
        17         0.0000     -0.0000      0.0000      0.0000       90.00
        18         0.0000     -0.0000     -0.0000      0.0000       90.00
        19         0.0000     -0.0000      0.0000     -0.0000       90.00
        20         0.0000      0.0000     -0.0000      0.0000       90.00
        21        -0.0000     -0.0000     -0.0000     -0.0000       90.00
        22        -0.0000      0.0000     -0.0000     -0.0000       90.00
        23         0.0000     -0.0000      0.0000     -0.0000       90.00
        24         0.0000      0.0000      0.0000      0.0000       90.00
        25        -0.0000      0.0000     -0.0000     -0.0000       90.00
        26        -0.0000      0.0000      0.0000      0.0000       90.00
        27        -0.0000      0.0000      0.0000     -0.0000       90.00
        28         0.0000     -0.0000      0.0000      0.0000       90.00
        29        -0.0000      0.0000      0.0000     -0.0000       90.00
        30         0.0000     -0.0000      0.0000      0.0000       90.00
 1/2[<0|r|b>*<b|rxdel|0> + (<0|rxdel|b>*<b|r|0>)*]
 Rotatory Strengths (R) in cgs (10**-40 erg-esu-cm/Gauss)
       state          XX          YY          ZZ     R(length)
         1        -0.0000     -0.0000     -0.0000     -0.0000
         2        -0.0000      0.0000      0.0000      0.0000
         3         0.0000      0.0000      0.0000      0.0000
         4        -0.0000      0.0000      0.0000      0.0000
         5        -0.0000     -0.0000     -0.0000     -0.0000
         6        -0.0000      0.0000     -0.0000      0.0000
         7         0.0000     -0.0000      0.0000      0.0000
         8         0.0000      0.0000     -0.0000      0.0000
         9        -0.0000     -0.0000     -0.0000     -0.0000
        10        -0.0000      0.0000     -0.0000     -0.0000
        11         0.0000     -0.0000     -0.0000     -0.0000
        12         0.0000     -0.0000      0.0000      0.0000
        13         0.0000     -0.0000      0.0000      0.0000
        14         0.0000      0.0000     -0.0000     -0.0000
        15         0.0000      0.0000      0.0000      0.0000
        16         0.0000     -0.0000      0.0000      0.0000
        17         0.0000      0.0000     -0.0000      0.0000
        18        -0.0000      0.0000      0.0000      0.0000
        19         0.0000      0.0000     -0.0000     -0.0000
        20         0.0000     -0.0000     -0.0000      0.0000
        21         0.0000      0.0000      0.0000      0.0000
        22        -0.0000     -0.0000     -0.0000     -0.0000
        23        -0.0000      0.0000     -0.0000     -0.0000
        24        -0.0000      0.0000      0.0000      0.0000
        25        -0.0000      0.0000     -0.0000     -0.0000
        26         0.0000     -0.0000     -0.0000      0.0000
        27         0.0000     -0.0000     -0.0000     -0.0000
        28         0.0000      0.0000      0.0000      0.0000
        29         0.0000     -0.0000     -0.0000     -0.0000
        30         0.0000     -0.0000     -0.0000      0.0000
  1/2[<0|del|b>*<b|r|0> + (<0|r|b>*<b|del|0>)*] (Au)
       state          X           Y           Z        Dip. S.   Osc.(frdel)
         1        -0.0000     -0.0000     -0.0000      0.0000      0.0000
         2        -0.0000     -0.0937     -0.0000      0.0937      0.0625
         3         0.0000     -0.0321     -0.0000      0.0321      0.0214
         4        -0.0000     -0.0000     -0.0758      0.0758      0.0506
         5         0.0000     -0.0000     -0.0000      0.0000      0.0000
         6         0.0000     -0.3467     -0.0000      0.3467      0.2311
         7         0.0000     -0.0016     -0.0000      0.0016      0.0010
         8         0.0000     -0.0000      0.0000     -0.0000     -0.0000
         9        -0.0000     -0.0000     -0.0047      0.0047      0.0032
        10         0.0000     -0.0000     -0.0000      0.0000      0.0000
        11         0.0000     -0.0000     -0.0727      0.0727      0.0485
        12        -0.0616     -0.0000     -0.0000      0.0616      0.0411
        13        -0.0000     -0.0000     -0.1225      0.1225      0.0817
        14         0.0000     -0.0000     -0.0000      0.0000      0.0000
        15        -0.0000     -0.0671     -0.0000      0.0671      0.0447
        16        -0.0000     -0.0000     -0.5762      0.5762      0.3841
        17        -0.0330      0.0000     -0.0000      0.0330      0.0220
        18        -0.0000     -0.0000     -0.0000      0.0000      0.0000
        19        -0.0000     -0.0000     -0.0139      0.0139      0.0093
        20        -0.0000     -0.0632     -0.0000      0.0632      0.0422
        21        -0.0378      0.0000      0.0000      0.0378      0.0252
        22        -0.0000     -0.1335     -0.0000      0.1335      0.0890
        23        -0.0000     -0.0000     -0.1882      0.1882      0.1255
        24         0.0000     -0.0215     -0.0000      0.0215      0.0143
        25        -0.1000      0.0000     -0.0000      0.1000      0.0667
        26        -0.0000     -0.0341     -0.0000      0.0341      0.0227
        27        -0.0000     -0.0000     -0.0524      0.0524      0.0349
        28        -0.0000      0.0000     -0.0000      0.0000      0.0000
        29        -0.0000     -0.0000     -0.0007      0.0007      0.0005
        30        -0.2317     -0.0000      0.0000      0.2317      0.1545

 Excitation energies and oscillator strengths:
 
 Excited State   1:      Singlet-A2     5.0289 eV  246.55 nm  f=0.0000  <S**2>=0.000
       3 -> 27         0.00298
       3 -> 37         0.00247
       3 -> 46         0.00176
       4 -> 27         0.00292
       4 -> 37        -0.00074
       4 -> 46        -0.00097
       5 ->  9         0.01700
       5 -> 13        -0.00837
       5 -> 17         0.00621
       5 -> 23        -0.00265
       5 -> 28         0.00364
       5 -> 31         0.00282
       5 -> 36         0.00402
       5 -> 44         0.00067
       5 -> 47         0.00011
       5 -> 52         0.00085
       6 -> 27         0.00061
       6 -> 37        -0.00056
       6 -> 46         0.00156
       7 -> 12        -0.00062
       7 -> 16         0.00174
       7 -> 18         0.00151
       7 -> 22         0.00161
       7 -> 24         0.00108
       7 -> 29        -0.00066
       7 -> 34         0.00034
       7 -> 35         0.00051
       7 -> 40        -0.00029
       7 -> 42        -0.00035
       7 -> 48         0.00063
       7 -> 50        -0.00018
       7 -> 53         0.00038
       8 ->  9         0.70013
       8 -> 13        -0.09409
       8 -> 17         0.02638
       8 -> 23        -0.01160
       8 -> 28         0.00665
       8 -> 31         0.00350
       8 -> 36        -0.00159
       8 -> 44        -0.00025
       8 -> 47        -0.00014
       8 -> 52         0.00127
       3 <- 27         0.00210
       3 <- 37         0.00210
       3 <- 46         0.00184
       4 <- 27         0.00366
       4 <- 37        -0.00025
       4 <- 46        -0.00089
       5 <-  9         0.00014
       5 <- 13        -0.00100
       5 <- 17        -0.00052
       5 <- 23         0.00046
       5 <- 28        -0.00035
       5 <- 31        -0.00111
       5 <- 36         0.00180
       5 <- 44         0.00040
       5 <- 47         0.00016
       5 <- 52         0.00022
       6 <- 27         0.00096
       6 <- 37        -0.00055
       6 <- 46         0.00121
       7 <- 12        -0.00097
       7 <- 16        -0.00459
       7 <- 18         0.00198
       7 <- 22         0.00616
       7 <- 24        -0.00102
       7 <- 29         0.00218
       7 <- 34        -0.00122
       7 <- 35         0.00245
       7 <- 40        -0.00052
       7 <- 42        -0.00091
       7 <- 48         0.00046
       7 <- 53         0.00100
       8 <-  9        -0.01527
       8 <- 13         0.00620
       8 <- 17        -0.00385
       8 <- 23         0.00068
       8 <- 28        -0.00048
       8 <- 31         0.00204
       8 <- 36        -0.00213
       8 <- 52         0.00038
 This state for optimization and/or second-order correction.
 Total Energy, E(TD-HF/TD-DFT) =  -114.272339301    
 Copying the excited state density for this state as the 1-particle RhoCI density.
 
 Excited State   2:      Singlet-B2     6.4110 eV  193.39 nm  f=0.0634  <S**2>=0.000
       3 -> 12         0.00111
       3 -> 16         0.00042
       3 -> 18        -0.00112
       3 -> 22        -0.00018
       3 -> 24         0.00127
       3 -> 29        -0.00014
       3 -> 35        -0.00021
       3 -> 50        -0.00012
       4 -> 12        -0.00496
       4 -> 16         0.00043
       4 -> 18        -0.00235
       4 -> 22        -0.00316
       4 -> 24         0.00392
       4 -> 29        -0.00016
       4 -> 34        -0.00087
       4 -> 35         0.00086
       4 -> 40        -0.00035
       4 -> 42        -0.00036
       5 -> 10        -0.00131
       5 -> 11        -0.00873
       5 -> 14         0.00640
       5 -> 15        -0.00140
       5 -> 19         0.00330
       5 -> 20        -0.00035
       5 -> 21         0.00406
       5 -> 25         0.00057
       5 -> 26        -0.00194
       5 -> 30         0.00248
       5 -> 32        -0.00032
       5 -> 33        -0.00038
       5 -> 38        -0.00053
       5 -> 39        -0.00026
       5 -> 43        -0.00052
       5 -> 45        -0.00057
       5 -> 49         0.00025
       6 -> 12         0.00160
       6 -> 16         0.00018
       6 -> 18        -0.00412
       6 -> 22        -0.00266
       6 -> 24         0.00191
       6 -> 29        -0.00020
       6 -> 34        -0.00010
       6 -> 42         0.00037
       6 -> 48         0.00036
       6 -> 50         0.00051
       7 -> 27         0.00062
       7 -> 37        -0.00014
       7 -> 46         0.00077
       8 -> 10         0.70555
       8 -> 11        -0.03917
       8 -> 14        -0.00435
       8 -> 15        -0.01044
       8 -> 19         0.01842
       8 -> 20         0.00981
       8 -> 21        -0.00585
       8 -> 25         0.00084
       8 -> 26        -0.00104
       8 -> 30         0.00041
       8 -> 32         0.00180
       8 -> 33         0.00196
       8 -> 38         0.00061
       8 -> 39         0.00056
       8 -> 41        -0.00018
       8 -> 43         0.00069
       8 -> 45        -0.00092
       8 -> 49         0.00013
       8 -> 54         0.00016
       3 <- 12         0.00032
       3 <- 16         0.00042
       3 <- 18        -0.00053
       3 <- 22        -0.00027
       3 <- 24         0.00086
       3 <- 29        -0.00013
       3 <- 35        -0.00020
       4 <- 12         0.00041
       4 <- 16         0.00095
       4 <- 18        -0.00268
       4 <- 22        -0.00193
       4 <- 24         0.00285
       4 <- 29        -0.00012
       4 <- 34        -0.00061
       4 <- 35         0.00060
       4 <- 40        -0.00028
       5 <- 10         0.00239
       5 <- 11        -0.00012
       5 <- 14         0.00478
       5 <- 15        -0.00135
       5 <- 19         0.00081
       5 <- 20         0.00012
       5 <- 21         0.00216
       5 <- 25         0.00167
       5 <- 26        -0.00140
       5 <- 30         0.00082
       5 <- 32        -0.00056
       5 <- 33        -0.00041
       5 <- 38        -0.00043
       5 <- 39        -0.00017
       5 <- 41         0.00020
       5 <- 43        -0.00035
       5 <- 45        -0.00048
       5 <- 49         0.00023
       6 <- 12         0.00046
       6 <- 16        -0.00058
       6 <- 18        -0.00181
       6 <- 22        -0.00099
       6 <- 24         0.00078
       6 <- 29         0.00047
       6 <- 34        -0.00017
       6 <- 35         0.00020
       6 <- 42         0.00035
       6 <- 48         0.00031
       6 <- 50         0.00053
       7 <- 27         0.00048
       7 <- 37        -0.00010
       7 <- 46         0.00065
       8 <- 10        -0.00316
       8 <- 11        -0.00104
       8 <- 14        -0.00961
       8 <- 15         0.00058
       8 <- 19        -0.00063
       8 <- 20        -0.00036
       8 <- 21        -0.00345
       8 <- 25        -0.00294
       8 <- 26        -0.00032
       8 <- 30        -0.00065
       8 <- 32         0.00058
       8 <- 33         0.00163
       8 <- 38         0.00062
       8 <- 39         0.00046
       8 <- 43         0.00054
       8 <- 45        -0.00063
       8 <- 49         0.00017
       8 <- 51         0.00012
 
 Excited State   3:      Singlet-B2     7.2011 eV  172.17 nm  f=0.0206  <S**2>=0.000
       3 -> 12        -0.00017
       3 -> 16        -0.00067
       3 -> 18        -0.00041
       3 -> 22         0.00021
       3 -> 24         0.00035
       3 -> 29         0.00134
       3 -> 34         0.00014
       3 -> 35        -0.00033
       3 -> 40         0.00011
       3 -> 42         0.00032
       3 -> 48         0.00023
       3 -> 50         0.00026
       4 -> 12         0.00313
       4 -> 16        -0.00182
       4 -> 18        -0.00335
       4 -> 22        -0.00156
       4 -> 24         0.00342
       4 -> 29        -0.00106
       4 -> 34         0.00055
       4 -> 35        -0.00034
       4 -> 40        -0.00016
       4 -> 42         0.00013
       4 -> 48         0.00017
       4 -> 50         0.00016
       5 -> 10        -0.00695
       5 -> 11         0.00033
       5 -> 14         0.00483
       5 -> 15        -0.00604
       5 -> 19        -0.00387
       5 -> 20        -0.00216
       5 -> 21         0.00109
       5 -> 25         0.00130
       5 -> 26         0.00104
       5 -> 30         0.00110
       5 -> 32        -0.00166
       5 -> 33        -0.00095
       5 -> 39         0.00054
       5 -> 41        -0.00086
       5 -> 45         0.00071
       5 -> 49        -0.00040
       5 -> 51        -0.00029
       6 -> 12        -0.00319
       6 -> 16        -0.00156
       6 -> 18         0.00187
       6 -> 22         0.00146
       6 -> 29         0.00035
       6 -> 34        -0.00037
       6 -> 35         0.00139
       6 -> 40        -0.00054
       6 -> 42        -0.00068
       6 -> 48        -0.00072
       6 -> 50        -0.00068
       6 -> 53         0.00013
       7 -> 27        -0.00060
       7 -> 37        -0.00123
       7 -> 46        -0.00132
       8 -> 10         0.03979
       8 -> 11         0.70502
       8 -> 14        -0.01342
       8 -> 15         0.01907
       8 -> 19        -0.02226
       8 -> 20         0.01321
       8 -> 21        -0.00208
       8 -> 25         0.00037
       8 -> 26         0.00097
       8 -> 30        -0.00132
       8 -> 32        -0.00013
       8 -> 33         0.00040
       8 -> 39         0.00017
       8 -> 41        -0.00143
       8 -> 45         0.00101
       8 -> 49        -0.00074
       8 -> 51        -0.00037
       8 -> 54        -0.00017
       3 <- 12         0.00030
       3 <- 16        -0.00038
       3 <- 18        -0.00066
       3 <- 24         0.00044
       3 <- 29         0.00084
       3 <- 34         0.00020
       3 <- 35        -0.00037
       3 <- 40         0.00011
       3 <- 42         0.00027
       3 <- 48         0.00019
       3 <- 50         0.00016
       3 <- 53        -0.00022
       4 <- 12         0.00035
       4 <- 16         0.00024
       4 <- 18        -0.00111
       4 <- 22        -0.00124
       4 <- 24         0.00146
       4 <- 29        -0.00044
       4 <- 34         0.00052
       4 <- 40        -0.00014
       4 <- 42         0.00018
       4 <- 48         0.00011
       4 <- 50         0.00022
       5 <- 10         0.00133
       5 <- 11        -0.00064
       5 <- 14         0.00209
       5 <- 15        -0.00047
       5 <- 19         0.00070
       5 <- 21         0.00095
       5 <- 25         0.00104
       5 <- 26         0.00076
       5 <- 30         0.00076
       5 <- 32        -0.00017
       5 <- 33        -0.00126
       5 <- 38         0.00016
       5 <- 39         0.00030
       5 <- 41        -0.00088
       5 <- 45         0.00067
       5 <- 49        -0.00027
       5 <- 51        -0.00028
       6 <- 12        -0.00036
       6 <- 18         0.00028
       6 <- 22         0.00039
       6 <- 34        -0.00017
       6 <- 35         0.00101
       6 <- 40        -0.00040
       6 <- 42        -0.00048
       6 <- 48        -0.00062
       6 <- 50        -0.00059
       7 <- 27        -0.00019
       7 <- 37        -0.00099
       7 <- 46        -0.00113
       8 <- 10        -0.00105
       8 <- 11         0.00069
       8 <- 14        -0.00490
       8 <- 15         0.00080
       8 <- 19         0.00260
       8 <- 20        -0.00155
       8 <- 21        -0.00226
       8 <- 25        -0.00010
       8 <- 26         0.00134
       8 <- 30        -0.00076
       8 <- 32         0.00120
       8 <- 38        -0.00022
       8 <- 41        -0.00120
       8 <- 45         0.00083
       8 <- 49        -0.00047
       8 <- 51        -0.00033
 
 Excited State   4:      Singlet-A1     7.3427 eV  168.85 nm  f=0.0526  <S**2>=0.000
       3 -> 10         0.00152
       3 -> 11        -0.00099
       3 -> 14         0.00039
       3 -> 15        -0.00045
       3 -> 19         0.00109
       3 -> 20         0.00082
       3 -> 21         0.00011
       3 -> 26        -0.00048
       3 -> 30         0.00121
       3 -> 32        -0.00032
       3 -> 33        -0.00024
       3 -> 38        -0.00034
       3 -> 39         0.00016
       3 -> 41        -0.00019
       3 -> 49        -0.00011
       3 -> 51        -0.00035
       3 -> 54        -0.00021
       4 -> 10         0.00548
       4 -> 11         0.00876
       4 -> 14         0.00601
       4 -> 15        -0.00059
       4 -> 19         0.00061
       4 -> 20         0.00592
       4 -> 21         0.00251
       4 -> 25         0.00708
       4 -> 26        -0.00085
       4 -> 30        -0.00056
       4 -> 32        -0.00018
       4 -> 33        -0.00086
       4 -> 39        -0.00045
       4 -> 41         0.00021
       4 -> 43         0.00012
       4 -> 45        -0.00027
       4 -> 49        -0.00023
       5 -> 12         0.00774
       5 -> 16        -0.00233
       5 -> 18        -0.01134
       5 -> 22        -0.00059
       5 -> 24         0.00485
       5 -> 29         0.00032
       5 -> 34        -0.00016
       5 -> 35         0.00086
       5 -> 42         0.00016
       5 -> 50        -0.00035
       5 -> 53        -0.00015
       6 -> 10         0.01339
       6 -> 11        -0.00448
       6 -> 14         0.00391
       6 -> 15         0.00148
       6 -> 19         0.00581
       6 -> 20         0.00422
       6 -> 21         0.00175
       6 -> 25         0.00230
       6 -> 26        -0.00057
       6 -> 30        -0.00059
       6 -> 32         0.00055
       6 -> 33        -0.00073
       6 -> 39        -0.00012
       6 -> 43         0.00011
       6 -> 49        -0.00021
       6 -> 51         0.00055
       7 ->  9         0.01042
       7 -> 13         0.00631
       7 -> 17         0.00485
       7 -> 23         0.00486
       7 -> 28         0.00018
       7 -> 31         0.00085
       7 -> 36         0.00054
       7 -> 44         0.00062
       7 -> 47        -0.00036
       8 -> 12         0.70565
       8 -> 16        -0.02846
       8 -> 18        -0.02346
       8 -> 22         0.00507
       8 -> 24         0.00181
       8 -> 29         0.00206
       8 -> 34         0.00151
       8 -> 35        -0.00225
       8 -> 40        -0.00028
       8 -> 42        -0.00106
       8 -> 48        -0.00036
       8 -> 50        -0.00025
       8 -> 53        -0.00018
       3 <- 10         0.00058
       3 <- 11        -0.00027
       3 <- 14         0.00025
       3 <- 15        -0.00015
       3 <- 19         0.00052
       3 <- 20         0.00037
       3 <- 21         0.00018
       3 <- 25         0.00018
       3 <- 26        -0.00024
       3 <- 30         0.00074
       3 <- 32        -0.00026
       3 <- 33        -0.00011
       3 <- 38        -0.00026
       3 <- 39         0.00014
       3 <- 41        -0.00017
       3 <- 45         0.00014
       3 <- 49        -0.00013
       3 <- 51        -0.00030
       3 <- 54        -0.00019
       4 <- 10         0.00521
       4 <- 11         0.00263
       4 <- 14         0.00441
       4 <- 15        -0.00092
       4 <- 19         0.00046
       4 <- 20         0.00335
       4 <- 21         0.00101
       4 <- 25         0.00408
       4 <- 26        -0.00045
       4 <- 32        -0.00047
       4 <- 33        -0.00099
       4 <- 38        -0.00016
       4 <- 39        -0.00044
       4 <- 45        -0.00026
       4 <- 49        -0.00019
       5 <- 12         0.00276
       5 <- 16         0.00057
       5 <- 18        -0.00441
       5 <- 24         0.00263
       5 <- 34        -0.00032
       5 <- 35         0.00078
       5 <- 42         0.00014
       5 <- 50        -0.00025
       5 <- 53        -0.00014
       6 <- 10         0.00402
       6 <- 11        -0.00073
       6 <- 14         0.00173
       6 <- 15         0.00049
       6 <- 19         0.00221
       6 <- 20         0.00222
       6 <- 21         0.00068
       6 <- 25         0.00127
       6 <- 26        -0.00057
       6 <- 30        -0.00025
       6 <- 32         0.00030
       6 <- 33        -0.00058
       6 <- 39        -0.00020
       6 <- 41         0.00014
       6 <- 51         0.00050
       7 <-  9         0.00230
       7 <- 13         0.00200
       7 <- 17         0.00182
       7 <- 23         0.00266
       7 <- 31         0.00062
       7 <- 36         0.00044
       7 <- 44         0.00052
       7 <- 47        -0.00031
       8 <- 12        -0.00227
       8 <- 16        -0.00828
       8 <- 18         0.00483
       8 <- 22         0.00047
       8 <- 24        -0.00237
       8 <- 29         0.00063
       8 <- 34         0.00093
       8 <- 35        -0.00138
       8 <- 40        -0.00028
       8 <- 42        -0.00088
       8 <- 48        -0.00043
       8 <- 50        -0.00021
       8 <- 53        -0.00019
 
 Excited State   5:      Singlet-A2     7.8778 eV  157.38 nm  f=0.0000  <S**2>=0.000
       3 -> 27        -0.00093
       3 -> 37        -0.00082
       3 -> 46        -0.00047
       4 -> 37         0.00061
       4 -> 46         0.00015
       5 ->  9        -0.00985
       5 -> 13         0.00172
       5 -> 17         0.00492
       5 -> 23        -0.00062
       5 -> 31        -0.00196
       5 -> 36        -0.00158
       5 -> 44        -0.00027
       5 -> 52        -0.00022
       6 -> 27         0.00013
       6 -> 37         0.00028
       6 -> 46        -0.00049
       7 -> 12        -0.00047
       7 -> 16        -0.00190
       7 -> 18        -0.00150
       7 -> 22        -0.00084
       7 -> 24        -0.00024
       7 -> 29         0.00022
       7 -> 35        -0.00022
       7 -> 40         0.00011
       7 -> 42         0.00017
       7 -> 48        -0.00018
       7 -> 53        -0.00011
       8 ->  9         0.09428
       8 -> 13         0.70036
       8 -> 17         0.00885
       8 -> 23         0.02027
       8 -> 28        -0.00052
       8 -> 31        -0.00125
       8 -> 36         0.00015
       8 -> 47         0.00018
       8 -> 52        -0.00027
       3 <- 27        -0.00045
       3 <- 37        -0.00063
       3 <- 46        -0.00056
       4 <- 27        -0.00051
       4 <- 46         0.00015
       5 <-  9        -0.00025
       5 <- 13        -0.00017
       5 <- 17         0.00063
       5 <- 36        -0.00042
       6 <- 27        -0.00015
       6 <- 37         0.00023
       6 <- 46        -0.00019
       7 <- 12        -0.00063
       7 <- 16        -0.00062
       7 <- 18        -0.00061
       7 <- 22        -0.00165
       7 <- 24        -0.00019
       7 <- 29         0.00013
       7 <- 34         0.00054
       7 <- 35        -0.00092
       7 <- 40         0.00022
       7 <- 42         0.00048
       7 <- 53        -0.00022
       8 <-  9         0.00425
       8 <- 13         0.00111
       8 <- 17         0.00030
       8 <- 23        -0.00035
       8 <- 28         0.00013
       8 <- 31        -0.00033
       8 <- 36         0.00042
       8 <- 52        -0.00012
 
 Excited State   6:      Singlet-B2    10.2027 eV  121.52 nm  f=0.2312  <S**2>=0.000
       3 -> 12        -0.00039
       3 -> 16        -0.00197
       3 -> 18        -0.00024
       3 -> 22         0.00145
       3 -> 24         0.00087
       3 -> 29         0.00136
       3 -> 34        -0.00082
       3 -> 40         0.00012
       3 -> 42        -0.00064
       3 -> 48         0.00032
       3 -> 50         0.00019
       4 -> 12        -0.00958
       4 -> 16        -0.00184
       4 -> 18        -0.00413
       4 -> 22        -0.01537
       4 -> 24         0.00972
       4 -> 29         0.00021
       4 -> 34         0.00248
       4 -> 35        -0.00296
       4 -> 40        -0.00102
       4 -> 42        -0.00223
       4 -> 48         0.00022
       4 -> 50         0.00011
       5 -> 10         0.01453
       5 -> 11        -0.00692
       5 -> 14         0.03154
       5 -> 15        -0.00817
       5 -> 19         0.00528
       5 -> 20        -0.01512
       5 -> 21         0.01581
       5 -> 25         0.00774
       5 -> 26        -0.00242
       5 -> 30        -0.00072
       5 -> 32         0.00194
       5 -> 33         0.00324
       5 -> 39         0.00225
       5 -> 41        -0.00071
       5 -> 43        -0.00065
       5 -> 49        -0.00014
       5 -> 51        -0.00025
       6 -> 12         0.00337
       6 -> 16         0.00054
       6 -> 18        -0.01003
       6 -> 22        -0.00853
       6 -> 24         0.00599
       6 -> 29         0.00120
       6 -> 34         0.00173
       6 -> 35        -0.00074
       6 -> 40        -0.00080
       6 -> 42        -0.00080
       6 -> 48        -0.00048
       6 -> 50        -0.00024
       7 -> 27         0.00735
       7 -> 37         0.00023
       7 -> 46        -0.00063
       8 -> 10         0.00393
       8 -> 11         0.01398
       8 -> 14         0.70494
       8 -> 15        -0.00944
       8 -> 19         0.02052
       8 -> 20         0.00842
       8 -> 21        -0.02976
       8 -> 25        -0.00823
       8 -> 26        -0.00131
       8 -> 30        -0.00087
       8 -> 32         0.00264
       8 -> 33         0.00270
       8 -> 38         0.00116
       8 -> 39        -0.00441
       8 -> 41        -0.00067
       8 -> 43         0.00190
       8 -> 45        -0.00048
       8 -> 49        -0.00089
       8 -> 51        -0.00011
       3 <- 12        -0.00030
       3 <- 16        -0.00097
       3 <- 22         0.00059
       3 <- 24         0.00048
       3 <- 29         0.00080
       3 <- 34        -0.00045
       3 <- 42        -0.00047
       3 <- 48         0.00032
       3 <- 50         0.00013
       3 <- 53        -0.00014
       4 <- 12        -0.00152
       4 <- 16         0.00023
       4 <- 18        -0.00355
       4 <- 22        -0.00775
       4 <- 24         0.00576
       4 <- 29         0.00030
       4 <- 34         0.00089
       4 <- 35        -0.00214
       4 <- 40        -0.00089
       4 <- 42        -0.00148
       4 <- 50         0.00025
       5 <- 10         0.00388
       5 <- 11        -0.00172
       5 <- 14         0.01129
       5 <- 15        -0.00271
       5 <- 19         0.00246
       5 <- 20        -0.00589
       5 <- 21         0.00777
       5 <- 25         0.00467
       5 <- 26        -0.00135
       5 <- 30        -0.00097
       5 <- 32         0.00150
       5 <- 33         0.00130
       5 <- 39         0.00170
       5 <- 41        -0.00037
       5 <- 43        -0.00047
       5 <- 45         0.00011
       5 <- 51        -0.00019
       6 <- 12         0.00051
       6 <- 16         0.00018
       6 <- 18        -0.00325
       6 <- 22        -0.00385
       6 <- 24         0.00280
       6 <- 29         0.00082
       6 <- 34         0.00093
       6 <- 35        -0.00044
       6 <- 40        -0.00068
       6 <- 42        -0.00051
       6 <- 48        -0.00041
       6 <- 50        -0.00013
       7 <- 27         0.00469
       7 <- 46        -0.00067
       8 <- 10        -0.00993
       8 <- 11        -0.00459
       8 <- 14        -0.02242
       8 <- 15         0.00071
       8 <- 19         0.00240
       8 <- 20         0.00404
       8 <- 21        -0.01543
       8 <- 25        -0.00615
       8 <- 26         0.00052
       8 <- 30        -0.00070
       8 <- 32         0.00126
       8 <- 33         0.00067
       8 <- 38         0.00072
       8 <- 39        -0.00274
       8 <- 41        -0.00047
       8 <- 43         0.00134
       8 <- 49        -0.00063
 
 Excited State   7:      Singlet-B2    10.7703 eV  115.12 nm  f=0.0034  <S**2>=0.000
       3 -> 16         0.00069
       3 -> 18        -0.00029
       3 -> 22        -0.00139
       3 -> 24        -0.00013
       3 -> 29        -0.00041
       3 -> 34         0.00016
       3 -> 35        -0.00044
       3 -> 40         0.00013
       3 -> 42         0.00015
       3 -> 53         0.00010
       4 -> 12         0.00089
       4 -> 16        -0.00281
       4 -> 22         0.00284
       4 -> 24         0.00236
       4 -> 29         0.00014
       4 -> 34         0.00091
       4 -> 35        -0.00013
       4 -> 40        -0.00023
       4 -> 48        -0.00020
       4 -> 50        -0.00016
       5 -> 10         0.00112
       5 -> 11        -0.01154
       5 -> 14         0.00095
       5 -> 15         0.01441
       5 -> 19         0.00059
       5 -> 20        -0.00027
       5 -> 21         0.00144
       5 -> 25         0.00124
       5 -> 26         0.00262
       5 -> 30         0.00248
       5 -> 32        -0.00083
       5 -> 33         0.00082
       5 -> 38        -0.00069
       5 -> 39         0.00058
       5 -> 41         0.00064
       5 -> 43         0.00042
       5 -> 45        -0.00036
       5 -> 49         0.00034
       5 -> 54         0.00021
       6 -> 12         0.00123
       6 -> 18        -0.00210
       6 -> 22        -0.00284
       6 -> 24        -0.00029
       6 -> 29        -0.00067
       6 -> 34         0.00027
       6 -> 35        -0.00050
       6 -> 40         0.00031
       6 -> 42         0.00025
       6 -> 48         0.00027
       6 -> 50         0.00038
       7 -> 46         0.00057
       8 -> 10         0.00949
       8 -> 11        -0.02010
       8 -> 14         0.01024
       8 -> 15         0.70591
       8 -> 19        -0.01562
       8 -> 20         0.01702
       8 -> 21         0.00821
       8 -> 25        -0.00548
       8 -> 26         0.00809
       8 -> 30         0.00248
       8 -> 32         0.00027
       8 -> 33         0.00093
       8 -> 38        -0.00096
       8 -> 39        -0.00041
       8 -> 41         0.00039
       8 -> 43        -0.00013
       8 -> 45        -0.00064
       8 -> 54         0.00025
       3 <- 12         0.00023
       3 <- 16         0.00087
       3 <- 18        -0.00021
       3 <- 22        -0.00065
       3 <- 24         0.00046
       3 <- 29        -0.00055
       3 <- 34         0.00021
       3 <- 35        -0.00038
       4 <- 12        -0.00021
       4 <- 16        -0.00020
       4 <- 18         0.00038
       4 <- 24         0.00011
       4 <- 29        -0.00021
       4 <- 34         0.00064
       4 <- 35         0.00015
       4 <- 40        -0.00018
       4 <- 42        -0.00012
       4 <- 48        -0.00020
       4 <- 50        -0.00020
       5 <- 10        -0.00032
       5 <- 11         0.00045
       5 <- 14         0.00015
       5 <- 15         0.00027
       5 <- 19        -0.00102
       5 <- 20         0.00026
       5 <- 21         0.00047
       5 <- 30         0.00029
       5 <- 32        -0.00043
       5 <- 38         0.00013
       5 <- 39         0.00031
       5 <- 41         0.00015
       5 <- 43         0.00015
       5 <- 45        -0.00019
       5 <- 49         0.00025
       5 <- 51         0.00014
       6 <- 12        -0.00025
       6 <- 16        -0.00137
       6 <- 18        -0.00027
       6 <- 22        -0.00031
       6 <- 24        -0.00066
       6 <- 29         0.00081
       6 <- 34         0.00015
       6 <- 35        -0.00011
       6 <- 40         0.00020
       6 <- 42         0.00027
       6 <- 48         0.00032
       6 <- 50         0.00053
       6 <- 53         0.00025
       7 <- 27         0.00018
       7 <- 37        -0.00014
       7 <- 46         0.00028
       8 <- 10         0.00047
       8 <- 11         0.00053
       8 <- 14         0.00033
       8 <- 15         0.00110
       8 <- 19        -0.00041
       8 <- 20        -0.00061
       8 <- 21        -0.00063
       8 <- 25         0.00025
       8 <- 26        -0.00031
       8 <- 30        -0.00052
       8 <- 32        -0.00018
       8 <- 33         0.00035
       8 <- 38        -0.00061
       8 <- 39        -0.00030
       8 <- 41         0.00017
       8 <- 43        -0.00015
       8 <- 45        -0.00038
       8 <- 49         0.00014
       8 <- 51         0.00022
 
 Excited State   8:      Singlet-B1    11.5178 eV  107.65 nm  f=0.0000  <S**2>=0.000
       3 ->  9        -0.02565
       3 -> 13         0.01101
       3 -> 17        -0.00793
       3 -> 23         0.00619
       3 -> 28        -0.00377
       3 -> 31        -0.00095
       3 -> 36        -0.00034
       3 -> 44         0.00079
       3 -> 47        -0.00040
       3 -> 52         0.00098
       4 ->  9         0.01463
       4 -> 13        -0.00271
       4 -> 17         0.00055
       4 -> 23        -0.00207
       4 -> 28        -0.00072
       4 -> 31         0.00360
       4 -> 36         0.00014
       4 -> 44        -0.00034
       4 -> 47        -0.00169
       4 -> 52        -0.00097
       5 -> 27        -0.00183
       5 -> 37         0.00280
       5 -> 46         0.00453
       6 ->  9         0.70003
       6 -> 13        -0.08216
       6 -> 17         0.03307
       6 -> 23        -0.01102
       6 -> 28         0.01108
       6 -> 31        -0.00128
       6 -> 36        -0.00224
       6 -> 44        -0.00260
       6 -> 47         0.00611
       6 -> 52         0.00194
       7 -> 10         0.00454
       7 -> 11         0.02813
       7 -> 14         0.00356
       7 -> 15        -0.01378
       7 -> 19        -0.00804
       7 -> 20         0.00421
       7 -> 21         0.00413
       7 -> 25        -0.00322
       7 -> 26        -0.00873
       7 -> 30         0.00182
       7 -> 32        -0.00094
       7 -> 33        -0.00081
       7 -> 38        -0.00233
       7 -> 39         0.00189
       7 -> 41        -0.00255
       7 -> 43         0.00167
       7 -> 45         0.00490
       7 -> 49        -0.00119
       7 -> 51         0.00192
       7 -> 54         0.00046
       8 -> 27         0.00693
       8 -> 37         0.00162
       8 -> 46         0.00603
       3 <-  9        -0.00741
       3 <- 13         0.00296
       3 <- 17        -0.00307
       3 <- 23         0.00181
       3 <- 28        -0.00175
       3 <- 31        -0.00066
       3 <- 36        -0.00039
       3 <- 52         0.00085
       4 <-  9         0.00245
       4 <- 13        -0.00022
       4 <- 17         0.00196
       4 <- 23        -0.00071
       4 <- 28         0.00133
       4 <- 31         0.00378
       4 <- 36         0.00092
       4 <- 47        -0.00141
       4 <- 52        -0.00046
       5 <- 27        -0.00151
       5 <- 37         0.00203
       5 <- 46         0.00378
       6 <-  9        -0.01610
       6 <- 13         0.00776
       6 <- 17        -0.00337
       6 <- 23         0.00305
       6 <- 31        -0.00350
       6 <- 36        -0.00286
       6 <- 44        -0.00144
       6 <- 47         0.00494
       6 <- 52         0.00055
[...]
  46        4PY         0.00000  -0.00000  -0.05247  -0.10928  -0.14687
  47        4PZ        -0.00019  -0.00000   0.00809   0.01530   0.00182
  48        5S          0.00046   0.00000  -0.00233  -0.00035  -0.00014
  49        5PX         0.00000  -0.00000   0.00000   0.00000   0.00000
  50        5PY         0.00000  -0.00000  -0.03100  -0.05448  -0.05287
  51        5PZ        -0.00028  -0.00000   0.00372   0.00510   0.00065
  52        6D 0        0.00005   0.00000  -0.00169  -0.00334  -0.00039
  53        6D+1        0.00000   0.00000   0.00000   0.00000  -0.00000
  54        6D-1       -0.00000  -0.00000  -0.00327  -0.00331   0.00261
  55        6D+2        0.00001   0.00000  -0.00008  -0.00013  -0.00001
  56        6D-2        0.00000   0.00000  -0.00000  -0.00000   0.00000
                          26        27        28        29        30
  26        4PX         0.00017
  27        4PY        -0.00000   0.00126
  28        4PZ         0.00000  -0.00049   0.00033
  29 3   H  1S          0.00000  -0.00321  -0.00133   0.08299
  30        2S          0.00000  -0.00441  -0.00215   0.12338   0.18860
  31        3S          0.00000  -0.00110  -0.00135   0.06725   0.11560
  32        4PX         0.00017   0.00000   0.00000  -0.00000  -0.00000
  33        4PY         0.00000  -0.00065  -0.00002   0.00734   0.00947
  34        4PZ        -0.00000   0.00002  -0.00016   0.00429   0.00583
  35 4   O  1S          0.00000  -0.00074  -0.00076   0.00317   0.00411
  36        2S          0.00000  -0.00160  -0.00061   0.00547   0.00783
  37        2PX         0.00443   0.00000  -0.00000  -0.00000  -0.00000
  38        2PY         0.00000  -0.00506   0.00262   0.02605   0.06327
  39        2PZ         0.00000  -0.00362  -0.00085   0.00959   0.01997
  40        3S         -0.00000   0.00605  -0.00033  -0.01822  -0.02778
  41        3PX         0.00647   0.00000  -0.00000  -0.00000  -0.00000
  42        3PY         0.00000  -0.00732   0.00378   0.03807   0.09219
  43        3PZ         0.00000  -0.00509  -0.00119   0.01344   0.02799
  44        4S         -0.00000   0.00290  -0.00127  -0.01339  -0.01416
  45        4PX         0.00466   0.00000  -0.00000  -0.00000  -0.00000
  46        4PY         0.00000  -0.00504   0.00188   0.05247   0.10928
  47        4PZ         0.00000  -0.00252  -0.00048   0.00809   0.01530
  48        5S          0.00000  -0.00020  -0.00059  -0.00233  -0.00035
  49        5PX         0.00019   0.00000   0.00000  -0.00000  -0.00000
  50        5PY         0.00000  -0.00012  -0.00078   0.03100   0.05448
  51        5PZ         0.00000  -0.00073   0.00013   0.00372   0.00510
  52        6D 0       -0.00000   0.00064   0.00011  -0.00169  -0.00334
  53        6D+1       -0.00058  -0.00000   0.00000  -0.00000  -0.00000
  54        6D-1       -0.00000   0.00068  -0.00054   0.00327   0.00331
  55        6D+2       -0.00000   0.00003  -0.00000  -0.00008  -0.00013
  56        6D-2       -0.00000   0.00000   0.00000  -0.00000  -0.00000
                          31        32        33        34        35
  31        3S          0.10610
  32        4PX        -0.00000   0.00017
  33        4PY         0.00071  -0.00000   0.00126
  34        4PZ         0.00183  -0.00000   0.00049   0.00033
  35 4   O  1S          0.00173  -0.00000   0.00074  -0.00076   0.63928
  36        2S          0.00200  -0.00000   0.00160  -0.00061   0.56867
  37        2PX        -0.00000   0.00443   0.00000   0.00000   0.00000
  38        2PY         0.10324   0.00000  -0.00506  -0.00262   0.00000
  39        2PZ         0.00228  -0.00000   0.00362  -0.00085  -0.00757
  40        3S         -0.00339   0.00000  -0.00605  -0.00033  -0.12773
  41        3PX        -0.00000   0.00647   0.00000   0.00000   0.00000
  42        3PY         0.14998   0.00000  -0.00732  -0.00378   0.00000
  43        3PZ         0.00321  -0.00000   0.00509  -0.00119  -0.01131
  44        4S         -0.00203   0.00000  -0.00290  -0.00127  -0.12694
  45        4PX        -0.00000   0.00466   0.00000   0.00000   0.00000
  46        4PY         0.14687   0.00000  -0.00504  -0.00188   0.00000
  47        4PZ         0.00182  -0.00000   0.00252  -0.00048  -0.01399
  48        5S         -0.00014  -0.00000   0.00020  -0.00059  -0.00827
  49        5PX        -0.00000   0.00019   0.00000  -0.00000   0.00000
  50        5PY         0.05287   0.00000  -0.00012   0.00078  -0.00000
  51        5PZ         0.00065  -0.00000   0.00073   0.00013   0.00180
  52        6D 0       -0.00039   0.00000  -0.00064   0.00011  -0.00193
  53        6D+1        0.00000  -0.00058  -0.00000  -0.00000   0.00000
  54        6D-1       -0.00261  -0.00000   0.00068   0.00054   0.00000
  55        6D+2       -0.00001   0.00000  -0.00003  -0.00000  -0.00056
  56        6D-2        0.00000   0.00000  -0.00000   0.00000  -0.00000
                          36        37        38        39        40
  36        2S          0.52306
  37        2PX         0.00000   0.11518
  38        2PY         0.00000  -0.00000   0.17892
  39        2PZ        -0.01177  -0.00000   0.00000   0.16399
  40        3S         -0.21880   0.00000   0.00000   0.03794   0.66870
  41        3PX         0.00000   0.16840  -0.00000   0.00000   0.00000
  42        3PY         0.00000  -0.00000   0.25941  -0.00000  -0.00000
  43        3PZ        -0.01617  -0.00000   0.00000   0.22915   0.04748
  44        4S         -0.19991   0.00000   0.00000   0.16549   0.56240
  45        4PX         0.00000   0.12126  -0.00000   0.00000   0.00000
  46        4PY         0.00000  -0.00000   0.22015  -0.00000  -0.00000
  47        4PZ        -0.02283  -0.00000   0.00000   0.11576   0.07003
  48        5S         -0.01474   0.00000   0.00000   0.06253   0.04914
  49        5PX         0.00000   0.00495  -0.00000   0.00000   0.00000
  50        5PY        -0.00000  -0.00000   0.05225  -0.00000   0.00000
  51        5PZ         0.00225  -0.00000   0.00000   0.00677  -0.00423
  52        6D 0       -0.00402   0.00000  -0.00000  -0.02125   0.01374
  53        6D+1       -0.00000  -0.01500   0.00000  -0.00000   0.00000
  54        6D-1        0.00000   0.00000  -0.01328   0.00000  -0.00000
  55        6D+2       -0.00098   0.00000  -0.00000   0.00003   0.00305
  56        6D-2       -0.00000   0.00000  -0.00000   0.00000   0.00000
                          41        42        43        44        45
  41        3PX         0.24622
  42        3PY        -0.00000   0.37613
  43        3PZ        -0.00000   0.00000   0.32029
  44        4S          0.00000   0.00000   0.22688   0.58555
  45        4PX         0.17730  -0.00000   0.00000   0.00000   0.12767
  46        4PY        -0.00000   0.31933  -0.00000  -0.00000  -0.00000
  47        4PZ        -0.00000   0.00000   0.16143   0.15049  -0.00000
  48        5S          0.00000   0.00000   0.08715   0.09165   0.00000
  49        5PX         0.00724  -0.00000   0.00000   0.00000   0.00522
  50        5PY        -0.00000   0.07589  -0.00000  -0.00000  -0.00000
  51        5PZ        -0.00000   0.00000   0.00948   0.00151  -0.00000
  52        6D 0        0.00000  -0.00000  -0.02986  -0.00667   0.00000
  53        6D+1       -0.02194   0.00000  -0.00000  -0.00000  -0.01580
  54        6D-1        0.00000  -0.01922   0.00000   0.00000  -0.00000
  55        6D+2        0.00000  -0.00000   0.00002   0.00244   0.00000
  56        6D-2        0.00000  -0.00000   0.00000   0.00000   0.00000
                          46        47        48        49        50
  46        4PY         0.27952
  47        4PZ         0.00000   0.08484
  48        5S          0.00000   0.04603   0.02654
  49        5PX        -0.00000   0.00000   0.00000   0.00021
  50        5PY         0.07416  -0.00000  -0.00000  -0.00000   0.02658
  51        5PZ         0.00000   0.00466   0.00173  -0.00000   0.00000
  52        6D 0       -0.00000  -0.01377  -0.00715   0.00000  -0.00000
  53        6D+1       -0.00000  -0.00000  -0.00000  -0.00065   0.00000
  54        6D-1       -0.01414   0.00000   0.00000   0.00000  -0.00136
  55        6D+2       -0.00000   0.00023   0.00017  -0.00000  -0.00000
  56        6D-2       -0.00000   0.00000   0.00000   0.00000   0.00000
                          51        52        53        54        55
  51        5PZ         0.00068
  52        6D 0       -0.00102   0.00328
  53        6D+1       -0.00000  -0.00000   0.00195
  54        6D-1        0.00000   0.00000   0.00000   0.00154
  55        6D+2       -0.00003   0.00008  -0.00000   0.00000   0.00001
  56        6D-2        0.00000  -0.00000  -0.00000   0.00000   0.00000
                          56
  56        6D-2        0.00000
          Condensed to atoms (all electrons):
               1          2          3          4
     1  C    4.663463   0.415485   0.415485   0.403443
     2  H    0.415485   0.786416  -0.140271  -0.113563
     3  H    0.415485  -0.140271   0.786416  -0.113563
     4  O    0.403443  -0.113563  -0.113563   8.029675
 Mulliken charges:
               1
     1  C    0.102123
     2  H    0.051934
     3  H    0.051934
     4  O   -0.205991
 Sum of Mulliken charges =  -0.00000
 Mulliken charges with hydrogens summed into heavy atoms:
               1
     1  C    0.205991
     4  O   -0.205991
 Electronic spatial extent (au):  <R**2>=             54.2627
 Charge=             -0.0000 electrons
 Dipole moment (field-independent basis, Debye):
    X=              0.0000    Y=              0.0000    Z=             -1.4247  Tot=              1.4247
 Quadrupole moment (field-independent basis, Debye-Ang):
   XX=            -11.1677   YY=            -11.9632   ZZ=            -12.9166
   XY=             -0.0000   XZ=              0.0000   YZ=              0.0000
 Traceless Quadrupole moment (field-independent basis, Debye-Ang):
   XX=              0.8482   YY=              0.0526   ZZ=             -0.9008
   XY=             -0.0000   XZ=              0.0000   YZ=              0.0000
 Octapole moment (field-independent basis, Debye-Ang**2):
  XXX=              0.0000  YYY=              0.0000  ZZZ=              2.1721  XYY=              0.0000
  XXY=             -0.0000  XXZ=              0.9416  XZZ=              0.0000  YZZ=              0.0000
  YYZ=              0.9969  XYZ=              0.0000
 Hexadecapole moment (field-independent basis, Debye-Ang**3):
 XXXX=             -9.4943 YYYY=            -21.1954 ZZZZ=            -40.8699 XXXY=             -0.0000
 XXXZ=             -0.0000 YYYX=             -0.0000 YYYZ=             -0.0000 ZZZX=             -0.0000
 ZZZY=             -0.0000 XXYY=             -5.2752 XXZZ=             -8.2091 YYZZ=            -10.9685
 XXYZ=              0.0000 YYXZ=             -0.0000 ZZXY=             -0.0000
 N-N= 3.559003120930D+01 E-N=-3.406663648876D+02  KE= 1.152288087042D+02
 Symmetry A1   KE= 1.045155982048D+02
 Symmetry A2   KE= 7.899573212393D-36
 Symmetry B1   KE= 3.918931560877D+00
 Symmetry B2   KE= 6.794278938473D+00
 Leave Link  601 at Fri Sep 17 10:52:36 2021, MaxMem=   268435456 cpu:               0.0 elap:               0.0
 (Enter /software/gaussian/g16-a03/l9999.exe)
 Electronic transition elements 
                 1             2             3             4             5 
      1  -0.114272D+03 -0.114222D+03 -0.114193D+03 -0.114187D+03 -0.114168D+03
      2   0.000000D+00  0.000000D+00  0.000000D+00  0.000000D+00  0.000000D+00
      3   0.000000D+00  0.635139D+00  0.341470D+00  0.000000D+00  0.000000D+00
      4   0.000000D+00  0.000000D+00  0.000000D+00 -0.540860D+00  0.000000D+00
      5   0.000000D+00  0.000000D+00  0.000000D+00  0.000000D+00  0.000000D+00
      6   0.000000D+00 -0.147590D+00 -0.939776D-01  0.000000D+00  0.000000D+00
      7   0.000000D+00  0.000000D+00  0.000000D+00  0.140224D+00  0.000000D+00
      8   0.000000D+00 -0.438179D+00  0.786398D+00  0.000000D+00  0.000000D+00
      9   0.000000D+00  0.000000D+00  0.000000D+00  0.000000D+00  0.000000D+00
     10   0.129153D+01  0.000000D+00  0.000000D+00  0.000000D+00 -0.191608D+00
     11   0.000000D+00  0.000000D+00  0.000000D+00 -0.138701D+00  0.000000D+00
     12   0.000000D+00  0.000000D+00  0.000000D+00 -0.550176D+00  0.000000D+00
     13   0.000000D+00  0.000000D+00  0.000000D+00 -0.227043D+00  0.000000D+00
     14  -0.171157D+00  0.000000D+00  0.000000D+00  0.000000D+00 -0.132862D+00
     15   0.000000D+00  0.000000D+00  0.000000D+00  0.000000D+00  0.000000D+00
     16   0.000000D+00  0.535407D+00  0.170703D+00  0.000000D+00  0.000000D+00
                 6             7             8             9            10 
      1  -0.114082D+03 -0.114061D+03 -0.114034D+03 -0.114033D+03 -0.114023D+03
      2   0.000000D+00  0.000000D+00 -0.462155D-02  0.000000D+00  0.000000D+00
      3   0.961746D+00 -0.114082D+00  0.000000D+00  0.000000D+00  0.000000D+00
      4   0.000000D+00  0.000000D+00  0.000000D+00 -0.973311D-01  0.000000D+00
      5   0.000000D+00  0.000000D+00 -0.779255D-02  0.000000D+00  0.000000D+00
      6  -0.360484D+00  0.136769D-01  0.000000D+00  0.000000D+00  0.000000D+00
      7   0.000000D+00  0.000000D+00  0.000000D+00  0.487371D-01  0.000000D+00
      8  -0.910310D+00  0.788500D+00  0.000000D+00  0.000000D+00  0.000000D+00
      9   0.000000D+00  0.000000D+00 -0.134143D+01  0.000000D+00  0.000000D+00
     10   0.000000D+00  0.000000D+00  0.000000D+00  0.000000D+00  0.109515D-01
     11   0.000000D+00  0.000000D+00  0.000000D+00  0.110989D+00  0.000000D+00
     12   0.000000D+00  0.000000D+00  0.000000D+00 -0.698436D+00  0.000000D+00
     13   0.000000D+00  0.000000D+00  0.000000D+00 -0.814312D+00  0.000000D+00
     14   0.000000D+00  0.000000D+00  0.000000D+00  0.000000D+00  0.300817D+00
     15   0.000000D+00  0.000000D+00 -0.458114D+00  0.000000D+00  0.000000D+00
     16   0.819211D+00  0.272212D+00  0.000000D+00  0.000000D+00  0.000000D+00
                11            12            13            14            15 
      1  -0.114010D+03 -0.113995D+03 -0.113987D+03 -0.113987D+03 -0.113971D+03
      2   0.000000D+00 -0.361577D+00  0.000000D+00  0.000000D+00  0.000000D+00
      3   0.000000D+00  0.000000D+00  0.000000D+00  0.000000D+00 -0.361959D+00
      4   0.405325D+00  0.000000D+00 -0.513340D+00  0.000000D+00  0.000000D+00
      5   0.000000D+00  0.170308D+00  0.000000D+00  0.000000D+00  0.000000D+00
      6   0.000000D+00  0.000000D+00  0.000000D+00  0.000000D+00  0.185365D+00
      7  -0.179461D+00  0.000000D+00  0.238688D+00  0.000000D+00  0.000000D+00
      8   0.000000D+00  0.000000D+00  0.000000D+00  0.000000D+00 -0.552627D+00
      9   0.000000D+00 -0.433891D-01  0.000000D+00  0.000000D+00  0.000000D+00
     10   0.000000D+00  0.000000D+00  0.000000D+00 -0.451038D+00  0.000000D+00
     11  -0.264262D+00  0.000000D+00 -0.574572D-01  0.000000D+00  0.000000D+00
     12  -0.151626D+00  0.000000D+00 -0.185151D-01  0.000000D+00  0.000000D+00
     13   0.114435D-01  0.000000D+00  0.203969D+00  0.000000D+00  0.000000D+00
     14   0.000000D+00  0.000000D+00  0.000000D+00  0.225481D+00  0.000000D+00
     15   0.000000D+00 -0.381338D-01  0.000000D+00  0.000000D+00  0.000000D+00
     16   0.000000D+00  0.000000D+00  0.000000D+00  0.000000D+00  0.128628D+00
                16            17            18            19            20 
      1  -0.113967D+03 -0.113963D+03 -0.113963D+03 -0.113955D+03 -0.113954D+03
      2   0.000000D+00  0.250146D+00  0.000000D+00  0.000000D+00  0.000000D+00
      3   0.000000D+00  0.000000D+00  0.000000D+00  0.000000D+00 -0.355930D+00
      4   0.108739D+01  0.000000D+00  0.000000D+00  0.160917D+00  0.000000D+00
      5   0.000000D+00 -0.132116D+00  0.000000D+00  0.000000D+00  0.000000D+00
      6   0.000000D+00  0.000000D+00  0.000000D+00  0.000000D+00  0.177645D+00
      7  -0.529860D+00  0.000000D+00  0.000000D+00 -0.866443D-01  0.000000D+00
      8   0.000000D+00  0.000000D+00  0.000000D+00  0.000000D+00 -0.265703D+00
      9   0.000000D+00 -0.447028D-01  0.000000D+00  0.000000D+00  0.000000D+00
     10   0.000000D+00  0.000000D+00  0.522788D-01  0.000000D+00  0.000000D+00
     11   0.464082D+00  0.000000D+00  0.000000D+00 -0.450018D+00  0.000000D+00
     12   0.731015D+00  0.000000D+00  0.000000D+00 -0.465973D+00  0.000000D+00
     13   0.622279D+00  0.000000D+00  0.000000D+00 -0.159834D+00  0.000000D+00
     14   0.000000D+00  0.000000D+00  0.250183D+00  0.000000D+00  0.000000D+00
     15   0.000000D+00 -0.273474D+00  0.000000D+00  0.000000D+00  0.000000D+00
     16   0.000000D+00  0.000000D+00  0.000000D+00  0.000000D+00  0.739641D-02
                21            22            23            24            25 
      1  -0.113932D+03 -0.113931D+03 -0.113928D+03 -0.113899D+03 -0.113892D+03
      2  -0.274389D+00  0.000000D+00  0.000000D+00  0.000000D+00 -0.406495D+00
      3   0.000000D+00 -0.505445D+00  0.000000D+00  0.192323D+00  0.000000D+00
      4   0.000000D+00  0.000000D+00 -0.592847D+00  0.000000D+00  0.000000D+00
      5   0.137641D+00  0.000000D+00  0.000000D+00  0.000000D+00  0.246088D+00
      6   0.000000D+00  0.264061D+00  0.000000D+00 -0.111904D+00  0.000000D+00
      7   0.000000D+00  0.000000D+00  0.317517D+00  0.000000D+00  0.000000D+00
      8   0.000000D+00  0.271591D+00  0.000000D+00 -0.120669D+00  0.000000D+00
      9   0.637448D+00  0.000000D+00  0.000000D+00  0.000000D+00 -0.488313D+00
     10   0.000000D+00  0.000000D+00  0.000000D+00  0.000000D+00  0.000000D+00
     11   0.000000D+00  0.000000D+00  0.403191D+00  0.000000D+00  0.000000D+00
     12   0.000000D+00  0.000000D+00 -0.423499D+00  0.000000D+00  0.000000D+00
     13   0.000000D+00  0.000000D+00 -0.418523D-01  0.000000D+00  0.000000D+00
     14   0.000000D+00  0.000000D+00  0.000000D+00  0.000000D+00  0.000000D+00
     15   0.247942D+00  0.000000D+00  0.000000D+00  0.000000D+00 -0.350472D+00
     16   0.000000D+00 -0.366328D+00  0.000000D+00 -0.353576D+00  0.000000D+00
                26            27            28            29            30 
      1  -0.113890D+03 -0.113890D+03 -0.113877D+03 -0.113867D+03 -0.113866D+03
      2   0.000000D+00  0.000000D+00  0.000000D+00  0.000000D+00  0.633053D+00
      3  -0.249153D+00  0.000000D+00  0.000000D+00  0.000000D+00  0.000000D+00
      4   0.000000D+00 -0.298777D+00  0.000000D+00  0.319082D-01  0.000000D+00
      5   0.000000D+00  0.000000D+00  0.000000D+00  0.000000D+00 -0.366059D+00
      6   0.136697D+00  0.000000D+00  0.000000D+00  0.000000D+00  0.000000D+00
      7   0.000000D+00  0.175227D+00  0.000000D+00 -0.230002D-01  0.000000D+00
      8   0.108151D+01  0.000000D+00  0.000000D+00  0.000000D+00  0.000000D+00
      9   0.000000D+00  0.000000D+00  0.000000D+00  0.000000D+00  0.187134D+00
     10   0.000000D+00  0.000000D+00  0.832132D-01  0.000000D+00  0.000000D+00
     11   0.000000D+00  0.229436D+00  0.000000D+00 -0.353585D+00  0.000000D+00
     12   0.000000D+00  0.557260D+00  0.000000D+00  0.180523D+00  0.000000D+00
     13   0.000000D+00 -0.646524D-01  0.000000D+00 -0.238373D+00  0.000000D+00
     14   0.000000D+00  0.000000D+00  0.269621D+00  0.000000D+00  0.000000D+00
     15   0.000000D+00  0.000000D+00  0.000000D+00  0.000000D+00  0.407896D+00
     16  -0.773255D-01  0.000000D+00  0.000000D+00  0.000000D+00  0.000000D+00

 Test job not archived.
 1\1\GINC-BHD0009\SP\RB3LYP TD-FC\6-311+G(d,p)\C1H2O1\BWEIGHT\17-Sep-20
 21\0\\#p B3LYP/6-311+G** #p TD=(singlets,nstates=30)IOp(6/8=3) IOp(9/4
 0=4)\\Scan Step 103, Bond Length 1.0150000000000001\\0,1\C,0,0.,0.,-0.
 52736\H,0,0.,0.93726,-1.11871\H,0,0.,-0.93726,-1.11871\O,0,0.,0.,0.487
 64\\Version=ES64L-G16RevA.03\State=1-A1\HF=-114.4571462\RMSD=2.316e-09
 \PG=C02V [C2(C1O1),SGV(H2)]\\@


 THE WISE MAN HAS THE POWER TO REASON AWAY
 WHAT A FOOL BELIEVES.
                     - DOOBIE BROTHERS
 Job cpu time:       0 days  0 hours  0 minutes 26.9 seconds.
 Elapsed time:       0 days  0 hours  0 minutes 27.8 seconds.
 File lengths (MBytes):  RWF=     79 Int=      0 D2E=      0 Chk=     32 Scr=      1
 Normal termination of Gaussian 16 at Fri Sep 17 10:52:36 2021.
