
Running Job 1 of 1 QCHEM.in
qchem QCHEM.in_15858.0 /local_scratch/16629273/QCLOCALSCR/save/ 0
/gpfs/fs2/scratch/phuo_lab/Program/Qchem/exe/qcprog.exe_s QCHEM.in_15858.0 /local_scratch/16629273/QCLOCALSCR/save/
                  Welcome to Q-Chem
     A Quantum Leap Into The Future Of Chemistry


 Q-Chem 6.0, Q-Chem, Inc., Pleasanton, CA (2022)

 License issued to: SRG Frank Huo, University of Rochester

 E. Epifanovsky,  A. T. B. Gilbert,  Xintian Feng,  Joonho Lee,  Yuezhi Mao,  
 N. Mardirossian,  P. Pokhilko,  A. White,  M. Wormit,  M. P. Coons,  
 A. L. Dempwolff,  Zhengting Gan,  D. Hait,  P. R. Horn,  L. D. Jacobson,  
 I. Kaliman,  J. Kussmann,  A. W. Lange,  Ka Un Lao,  D. S. Levine,  Jie Liu,  
 S. C. McKenzie,  A. F. Morrison,  K. Nanda,  F. Plasser,  D. R. Rehn,  
 M. L. Vidal,  Zhi-Qiang You,  Ying Zhu,  B. Alam,  B. Albrecht,  
 A. Aldossary,  E. Alguire,  J. H. Andersen,  V. Athavale,  D. Barton,  
 K. Begam,  A. Behn,  N. Bellonzi,  Y. A. Bernard,  E. J. Berquist,  
 H. Burton,  A. Carreras,  K. Carter-Fenk,  Romit Chakraborty,  
 Chandrima Chakravarty,  Junhan Chen,  A. D. Chien,  K. D. Closser,  
 V. Cofer-Shabica,  L. Cunha,  S. Dasgupta,  Jia Deng,  M. de Wergifosse,  
 M. Diedenhofen,  Hainam Do,  S. Ehlert,  Po-Tung Fang,  S. Fatehi,  
 Qingguo Feng,  T. Friedhoff,  B. Ganoe,  J. Gayvert,  Qinghui Ge,  
 G. Gidofalvi,  M. Goldey,  J. Gomes,  C. Gonzalez-Espinoza,  S. Gulania,  
 A. Gunina,  J. A. Gyamfi,  M. W. D. Hanson-Heine,  P. H. P. Harbach,  
 A. W. Hauser,  M. F. Herbst,  M. Hernandez Vera,  M. Hodecker,  
 Z. C. Holden,  S. Houck,  Xunkun Huang,  Kerwin Hui,  B. C. Huynh,  
 K. Ikeda,  M. Ivanov,  Hyunjun Ji,  Zuxin Jin,  Hanjie Jiang,  B. Kaduk,  
 S. Kaehler,  R. Kang,  K. Khistyaev,  Jaehoon Kim,  Yongbin Kim,  
 P. Klunzinger,  Z. Koczor-Benda,  Joong Hoon Koh,  D. Kosenkov,  
 Saikiran Kotaru,  L. Koulias,  T. Kowalczyk,  C. M. Krauter,  K. Kue,  
 A. Kunitsa,  T. Kus,  A. Landau,  K. V. Lawler,  D. Lefrancois,  S. Lehtola,  
 Rain Li,  Shaozhi Li,  Yi-Pei Li,  Jiashu Liang,  M. Liebenthal,  
 Hung-Hsuan Lin,  You-Sheng Lin,  Fenglai Liu,  Kuan-Yu Liu,  
 M. Loipersberger,  A. Luenser,  C. Malbon,  A. Manjanath,  P. Manohar,  
 E. Mansoor,  S. F. Manzer,  Shan-Ping Mao,  A. V. Marenich,  T. Markovich,  
 S. Mason,  F. Matz,  S. A. Maurer,  P. F. McLaughlin,  M. F. S. J. Menger,  
 J.-M. Mewes,  S. A. Mewes,  P. Morgante,  Mohammad Mostafanejad,  
 J. W. Mullinax,  K. J. Oosterbaan,  G. Paran,  V. Parravicini,  
 Alexander C. Paul,  Suranjan K. Paul,  F. Pavosevic,  Zheng Pei,  S. Prager,  
 E. I. Proynov,  E. Ramos,  B. Rana,  A. E. Rask,  A. Rettig,  R. M. Richard,  
 F. Rob,  E. Rossomme,  T. Scheele,  M. Scheurer,  M. Schneider,  
 P. E. Schneider,  N. Sergueev,  S. M. Sharada,  Hengyuan Shen,  
 W. Skomorowski,  D. W. Small,  C. J. Stein,  Yingli Su,  Yu-Chuan Su,  
 E. J. Sundstrom,  Zhen Tao,  J. Thirman,  Hung-Yi Tsai,  T. Tsuchimochi,  
 N. M. Tubman,  C. Utku,  S. P. Veccham,  O. Vydrov,  J. Wenzel,  
 Jonathan Wong,  J. Witte,  A. Yamada,  Chou-Hsun Yang,  Kun Yao,  
 S. Yeganeh,  S. R. Yost,  A. Zech,  F. Zeller,  Igor Ying Zhang,  
 Xing Zhang,  Yu Zhang,  D. Zuev,  A. Aspuru-Guzik,  A. T. Bell,  
 N. A. Besley,  K. B. Bravaya,  B. R. Brooks,  D. Casanova,  Jeng-Da Chai,  
 Hsing-Ta Chen,  S. Coriani,  C. J. Cramer,  A. E. DePrince, III,  
 R. A. DiStasio Jr.,  A. Dreuw,  B. D. Dunietz,  T. R. Furlani,  
 W. A. Goddard III,  S. Grimme,  S. Hammes-Schiffer,  T. Head-Gordon,  
 W. J. Hehre,  Chao-Ping Hsu,  T.-C. Jagau,  Yousung Jung,  A. Klamt,  
 Jing Kong,  D. S. Lambrecht,  Xiangyuan Li,  WanZhen Liang,  N. J. Mayhall,  
 C. W. McCurdy,  J. B. Neaton,  T. Neudecker,  C. Ochsenfeld,  
 J. A. Parkhill,  R. Peverati,  V. A. Rassolov,  Haisheng Ren,  Yihan Shao,  
 L. V. Slipchenko,  R. P. Steele,  J. E. Subotnik,  A. J. W. Thom,  
 A. Tkatchenko,  D. G. Truhlar,  T. Van Voorhis,  Fan Wang,  
 T. A. Wesolowski,  K. B. Whaley,  H. L. Woodcock III,  P. M. Zimmerman,  
 S. Faraji,  P. M. W. Gill,  M. Head-Gordon,  J. M. Herbert,  A. I. Krylov

 Contributors to earlier versions of Q-Chem not listed above: 
 R. D. Adamson,  B. Austin,  R. Baer,  J. Baker,  G. J. O. Beran,  
 K. Brandhorst,  S. T. Brown,  E. F. C. Byrd,  Arup K. Chakraborty,  
 G. K. L. Chan,  Chun-Min Chang,  Yunqing Chen,  C.-L. Cheng,  
 Siu Hung Chien,  D. M. Chipman,  D. L. Crittenden,  H. Dachsel,  
 R. J. Doerksen,  A. D. Dutoi,  R. G. Edgar,  J. Fosso-Tande,  
 L. Fusti-Molnar,  D. Ghosh,  A. Ghysels,  A. Golubeva-Zadorozhnaya,  
 J. Gonthier,  M. S. Gordon,  S. R. Gwaltney,  G. Hawkins,  J. E. Herr,  
 A. Heyden,  S. Hirata,  E. G. Hohenstein,  G. Kedziora,  F. J. Keil,  
 C. Kelley,  Jihan Kim,  R. A. King,  R. Z. Khaliullin,  P. P. Korambath,  
 W. Kurlancheek,  A. Laurent,  A. M. Lee,  M. S. Lee,  S. V. Levchenko,  
 Ching Yeh Lin,  D. Liotard,  E. Livshits,  R. C. Lochan,  I. Lotan,  
 L. A. Martinez-Martinez,  P. E. Maslen,  N. Nair,  D. P. O'Neill,  
 D. Neuhauser,  E. Neuscamman,  C. M. Oana,  R. Olivares-Amaya,  R. Olson,  
 T. M. Perrine,  B. Peters,  P. A. Pieniazek,  A. Prociuk,  Y. M. Rhee,  
 J. Ritchie,  M. A. Rohrdanz,  E. Rosta,  N. J. Russ,  H. F. Schaefer III,  
 M. W. Schmidt,  N. E. Schultz,  S. Sharma,  N. Shenvi,  C. D. Sherrill,  
 A. C. Simmonett,  A. Sodt,  T. Stein,  D. Stuck,  K. S. Thanthiriwatte,  
 V. Vanovschi,  L. Vogt,  Tao Wang,  A. Warshel,  M. A. Watson,  
 C. F. Williams,  Q. Wu,  X. Xu,  Jun Yang,  W. Zhang,  Yan Zhao

   Please cite Q-Chem as follows:
  "Software for the frontiers of quantum chemistry:
   An overview of developments in the Q-Chem 5 package"
   J. Chem. Phys. 155, 084801 (2021)
   https://doi.org/10.1063/5.0055522 (open access)

 Q-Chem 6.0.2 for Intel X86 EM64T Linux

 Parts of Q-Chem use Armadillo 9.900.5 (Nocturnal Misbehaviour).
 http://arma.sourceforge.net/

 Q-Chem begins on Thu May 18 12:29:44 2023  

 Host: 
0

     Scratch files written to /local_scratch/16629273/QCLOCALSCR/save//
 Dec722 |scratch|qcdevops|jenkins|workspace|build_RNUM 9024   
 Processing $rem in /gpfs/fs2/scratch/phuo_lab/Program/Qchem/config/preferences:
 Processing $rem in /home/bweight/.qchemrc:

 Checking the input file for inconsistencies... 	...done.

--------------------------------------------------------------
User input:
--------------------------------------------------------------
$molecule
1 1
C                 -0.80658313    1.22973465    0.03041801
C                  0.56153576    1.23725234    0.01622618
C                  1.22915389    0.01001055    0.01220575
H                 -1.36676923    2.15803094    0.04420367
H                  1.14116413    2.14927050    0.01037697
N                  2.71357475    0.03144573   -0.00289824
O                  3.28013247   -1.09741954   -0.00254733
O                  3.24714953    1.17621948   -0.01252002
C                 -0.77042978   -1.26805414    0.04039660
H                 -1.30353926   -2.21202933    0.06122375
C                  0.59726287   -1.23605918    0.02634378
H                  1.20308359   -2.13089607    0.02793117
C                 -1.56287141   -0.03049318    0.01040538
H                 -2.41148563   -0.03994459    0.70143946
Br                -2.40993182   -0.04931830   -1.82359612
$end

$rem
!SCF_GUESS         read
!SKIP_CIS_RPA      TRUE
METHOD             wB97XD
RPA                TRUE
BASIS              6-311+G*
CIS_N_ROOTS        100
CIS_SINGLETS       TRUE
CIS_TRIPLETS       FALSE
MAKE_CUBE_FILES    TRUE
PLOTS              TRUE
STS_MOM            TRUE
SYM_IGNORE         TRUE
SYMMETRY           FALSE
NTO_PAIRS          1
! NBO                2
$end

$plots
grid_points                    75 75 75
total_density                  0-100
transition_density             1-100
natural_transition_orbital     1-100
$end

! natural_bond_orbital           1-5 ! How many here ? Is it physical to mix these ?
! nbo_state                      0-10






























--------------------------------------------------------------
 ----------------------------------------------------------------
             Standard Nuclear Orientation (Angstroms)
    I     Atom           X                Y                Z
 ----------------------------------------------------------------
    1      C      -0.8065831300     1.2297346500     0.0304180100
    2      C       0.5615357600     1.2372523400     0.0162261800
    3      C       1.2291538900     0.0100105500     0.0122057500
    4      H      -1.3667692300     2.1580309400     0.0442036700
    5      H       1.1411641300     2.1492705000     0.0103769700
    6      N       2.7135747500     0.0314457300    -0.0028982400
    7      O       3.2801324700    -1.0974195400    -0.0025473300
    8      O       3.2471495300     1.1762194800    -0.0125200200
    9      C      -0.7704297800    -1.2680541400     0.0403966000
   10      H      -1.3035392600    -2.2120293300     0.0612237500
   11      C       0.5972628700    -1.2360591800     0.0263437800
   12      H       1.2030835900    -2.1308960700     0.0279311700
   13      C      -1.5628714100    -0.0304931800     0.0104053800
   14      H      -2.4114856300    -0.0399445900     0.7014394600
   15      Br     -2.4099318200    -0.0493183000    -1.8235961200
 ----------------------------------------------------------------
 Nuclear Repulsion Energy =         731.01509957 hartrees
 There are       49 alpha and       49 beta electrons
 Requested basis set is 6-311+G(d)
 There are 88 shells and 261 basis functions

 Total QAlloc Memory Limit   2000 MB
 Mega-Array Size       188 MB
 MEM_STATIC part       192 MB


                       Distance Matrix (Angstroms)
             C (  1)   C (  2)   C (  3)   H (  4)   H (  5)   N (  6)
   C (  2)  1.368213
   C (  3)  2.373243  1.397087
   H (  4)  1.084312  2.137048  3.369545
   H (  5)  2.153989  1.080639  2.141070  2.508177
   N (  6)  3.718672  2.466902  1.484652  4.601499  2.637770
   O (  7)  4.702975  3.583548  2.330908  5.673961  3.887975  1.263062
   O (  8)  4.054313  2.686461  2.330871  4.717565  2.320027  1.263052
   C (  9)  2.498070  2.837477  2.373305  3.477599  3.915763  3.718718
   H ( 10)  3.477593  3.921489  3.369629  4.370551  5.000010  4.601575
   C ( 11)  2.837418  2.473590  1.397203  3.921427  3.428781  2.467022
   H ( 12)  3.915687  3.428723  2.141123  4.999930  4.280650  2.637851
   C ( 13)  1.469880  2.473928  2.792320  2.197552  3.473209  4.276915
   H ( 14)  2.153617  3.307507  3.705644  2.520811  4.229840  5.173725
   Br( 15)  2.764791  3.724222  4.076350  3.073964  4.561527  5.437994
             O (  7)   O (  8)   C (  9)   H ( 10)   C ( 11)   H ( 12)
   O (  8)  2.273900
   C (  9)  4.054382  4.703001
   H ( 10)  4.717676  5.674014  1.084310
   C ( 11)  2.686605  3.583643  1.368139  2.137003
   H ( 12)  2.320158  3.888040  2.153928  2.508157  1.080627
   C ( 13)  4.959152  4.959131  1.469837  2.197484  2.473828  3.473112
   H ( 14)  5.831669  5.831719  2.153670  2.520987  3.307418  4.229752
   Br( 15)  6.065605  6.065023  2.765457  3.074731  3.724762  4.562346
             C ( 13)   H ( 14)
   H ( 14)  1.094424
   Br( 15)  2.020254  2.525053
 
 A cutoff of  1.0D-12 yielded   3323 shell pairs
 There are     30441 function pairs (     33208 Cartesian)
 Smallest overlap matrix eigenvalue = 2.60E-06

 Scale SEOQF with 1.000000e-01/1.000000e-01/1.000000e-01

 Standard Electronic Orientation quadrupole field applied
 Nucleus-field energy     =     0.0000000098 hartrees
 Guess from superposition of atomic densities
 Warning:  Energy on first SCF cycle will be non-variational
 SAD guess density has 99.000000 electrons

 -----------------------------------------------------------------------
  General SCF calculation program by
  Eric Jon Sundstrom, Paul Horn, Yuezhi Mao, Dmitri Zuev, Alec White,
  David Stuck, Shaama M.S., Shane Yost, Joonho Lee, David Small,
  Daniel Levine, Susi Lehtola, Hugh Burton, Evgeny Epifanovsky,
  Bang C. Huynh
 -----------------------------------------------------------------------
 Exchange:     0.2220 Hartree-Fock + 1.0000 wB97X-D + LR-HF
 Correlation:  1.0000 wB97X-D
 Using SG-2 standard quadrature grid
 Dispersion:   Grimme D
 using 12 threads for integral computing
 -------------------------------------------------------
 OpenMP Integral computing Module                
 Release: version 1.0, May 2013, Q-Chem Inc. Pittsburgh 
 -------------------------------------------------------
 A restricted SCF calculation will be
 performed using DIIS
 SCF converges when DIIS error is below 1.0e-08
 ---------------------------------------
  Cycle       Energy         DIIS error
 ---------------------------------------
    1   -3013.4019450762      3.96e-02  
    2   -3010.2445033264      6.30e-03  
    3   -3009.9608322947      1.00e-02  
    4   -3010.5159925313      6.20e-04  
    5   -3010.5173716515      4.46e-04  
    6   -3010.5188310881      8.65e-05  
    7   -3010.5188952491      3.25e-05  
    8   -3010.5189043052      7.37e-06  
    9   -3010.5189052314      2.08e-06  
   10   -3010.5189053028      9.05e-07  
   11   -3010.5189053102      7.35e-07  
   12   -3010.5189053142      1.97e-07  
   13   -3010.5189053149      7.11e-08  
   14   -3010.5189053151      3.04e-08  
   15   -3010.5189053152      1.22e-08  
   16   -3010.5189053152      4.04e-09  Convergence criterion met
 ---------------------------------------
 SCF time:   CPU 260.55s  wall 22.00s 
 SCF   energy in the final basis set =    -3010.5189053152
 Total energy in the final basis set =    -3010.5189053152
 
 MAX_CIS_SUBSPACE fits in available memory
 Direct TDDFT/TDA calculation will be performed
 Exchange:     0.2220 Hartree-Fock + 1.0000 wB97X-D + LR-HF
 Correlation:  1.0000 wB97X-D
 Using SG-2 standard quadrature grid
 Dispersion:   Grimme D
 Singlet excitation energies requested
 CIS energy converged when residual is below 10e- 6
 ---------------------------------------------------
 Iter    Rts Conv    Rts Left    Ttl Dev     Max Dev
 ---------------------------------------------------
   1         0         100      0.045125    0.001896
   2         0         100      0.014411    0.001305
   3         0         100      0.007855    0.000719
   4         5          95      0.003800    0.000445
   5        33          67      0.001465    0.000178
   6        57          43      0.000456    0.000069
   7        80          20      0.000120    0.000019
   8        95           5      0.000044    0.000005
   9        98           2      0.000029    0.000001
  10       100           0      0.000027    0.000001    Roots Converged
 ---------------------------------------------------
 
 ---------------------------------------------------
         TDDFT/TDA Excitation Energies              
 ---------------------------------------------------

 Excited state   1: excitation energy (eV) =    2.4560
 Total energy for state  1:                 -3010.42864993 au
    Multiplicity: Singlet
    Trans. Mom.: -0.0052 X   0.2990 Y  -0.0018 Z
    Strength   :     0.0053797523
    D(   49) --> V(    1) amplitude =  0.9422

 Excited state   2: excitation energy (eV) =    2.6961
 Total energy for state  2:                 -3010.41982400 au
    Multiplicity: Singlet
    Trans. Mom.:  0.0009 X  -0.0737 Y   0.0003 Z
    Strength   :     0.0003592429
    D(   47) --> V(    1) amplitude =  0.8720
    D(   47) --> V(    2) amplitude = -0.4374

 Excited state   3: excitation energy (eV) =    2.7230
 Total energy for state  3:                 -3010.41883768 au
    Multiplicity: Singlet
    Trans. Mom.:  0.2927 X   0.0049 Y   0.2027 Z
    Strength   :     0.0084569458
    D(   48) --> V(    1) amplitude =  0.9694

 Excited state   4: excitation energy (eV) =    2.9935
 Total energy for state  4:                 -3010.40889579 au
    Multiplicity: Singlet
    Trans. Mom.: -0.0221 X  -0.0003 Y   0.0038 Z
    Strength   :     0.0000367408
    D(   45) --> V(    1) amplitude =  0.9100
    D(   45) --> V(    2) amplitude = -0.4011

 Excited state   5: excitation energy (eV) =    3.8391
 Total energy for state  5:                 -3010.37782129 au
    Multiplicity: Singlet
    Trans. Mom.:  0.0002 X  -0.0191 Y  -0.0002 Z
    Strength   :     0.0000344482
    D(   46) --> V(    1) amplitude =  0.9253

 Excited state   6: excitation energy (eV) =    4.1210
 Total energy for state  6:                 -3010.36746246 au
    Multiplicity: Singlet
    Trans. Mom.: -0.0151 X   1.0697 Y  -0.0040 Z
    Strength   :     0.1155487547
    D(   44) --> V(    1) amplitude =  0.9121
    D(   46) --> V(    1) amplitude =  0.2487

 Excited state   7: excitation energy (eV) =    4.8264
 Total energy for state  7:                 -3010.34153739 au
    Multiplicity: Singlet
    Trans. Mom.: -0.0018 X   0.1021 Y  -0.0005 Z
    Strength   :     0.0012321526
    D(   42) --> V(    1) amplitude =  0.2472
    D(   47) --> V(    1) amplitude =  0.4238
    D(   47) --> V(    2) amplitude =  0.7879
    D(   47) --> V(    4) amplitude = -0.2929

 Excited state   8: excitation energy (eV) =    4.9860
 Total energy for state  8:                 -3010.33567184 au
    Multiplicity: Singlet
    Trans. Mom.: -0.0034 X   0.2336 Y  -0.0013 Z
    Strength   :     0.0066665032
    D(   42) --> V(    1) amplitude =  0.9424

 Excited state   9: excitation energy (eV) =    5.0726
 Total energy for state  9:                 -3010.33248947 au
    Multiplicity: Singlet
    Trans. Mom.: -0.0539 X  -0.0014 Y  -0.0944 Z
    Strength   :     0.0014685843
    D(   45) --> V(    1) amplitude =  0.3899
    D(   45) --> V(    2) amplitude =  0.8406
    D(   45) --> V(    4) amplitude = -0.3096

 Excited state  10: excitation energy (eV) =    5.3007
 Total energy for state 10:                 -3010.32410788 au
    Multiplicity: Singlet
    Trans. Mom.:  1.4715 X   0.0231 Y   0.5507 Z
    Strength   :     0.3206506734
    D(   43) --> V(    1) amplitude =  0.9021
    D(   49) --> V(    3) amplitude =  0.3411

 Excited state  11: excitation energy (eV) =    5.7943
 Total energy for state 11:                 -3010.30597014 au
    Multiplicity: Singlet
    Trans. Mom.:  0.3175 X   0.0035 Y  -0.2531 Z
    Strength   :     0.0234093134
    D(   40) --> V(    1) amplitude =  0.2259
    D(   41) --> V(    1) amplitude =  0.9293

 Excited state  12: excitation energy (eV) =    5.8205
 Total energy for state 12:                 -3010.30500688 au
    Multiplicity: Singlet
    Trans. Mom.:  0.0020 X  -0.0057 Y   0.0002 Z
    Strength   :     0.0000052694
    D(   49) --> V(    2) amplitude =  0.8161
    D(   49) --> V(    4) amplitude =  0.4822

 Excited state  13: excitation energy (eV) =    6.0769
 Total energy for state 13:                 -3010.29558406 au
    Multiplicity: Singlet
    Trans. Mom.: -0.1886 X  -0.0026 Y   0.0164 Z
    Strength   :     0.0053358906
    D(   48) --> V(    2) amplitude =  0.6822
    D(   48) --> V(    4) amplitude =  0.6672

 Excited state  14: excitation energy (eV) =    6.5712
 Total energy for state 14:                 -3010.27741981 au
    Multiplicity: Singlet
    Trans. Mom.: -0.0023 X   0.0788 Y  -0.0006 Z
    Strength   :     0.0010002856
    D(   44) --> V(    2) amplitude =  0.5471
    D(   48) --> V(    3) amplitude =  0.5133
    D(   49) --> V(    2) amplitude =  0.3005
    D(   49) --> V(    4) amplitude = -0.5189

 Excited state  15: excitation energy (eV) =    6.6303
 Total energy for state 15:                 -3010.27524654 au
    Multiplicity: Singlet
    Trans. Mom.:  0.0022 X   0.0773 Y   0.0007 Z
    Strength   :     0.0009711379
    D(   44) --> V(    2) amplitude = -0.2819
    D(   48) --> V(    3) amplitude =  0.8474
    D(   49) --> V(    4) amplitude =  0.3523

 Excited state  16: excitation energy (eV) =    6.7477
 Total energy for state 16:                 -3010.27093332 au
    Multiplicity: Singlet
    Trans. Mom.: -1.5047 X  -0.0230 Y  -0.3172 Z
    Strength   :     0.3910137221
    D(   43) --> V(    1) amplitude = -0.2538
    D(   44) --> V(    3) amplitude = -0.3262
    D(   49) --> V(    3) amplitude =  0.8108

 Excited state  17: excitation energy (eV) =    7.0903
 Total energy for state 17:                 -3010.25834202 au
    Multiplicity: Singlet
    Trans. Mom.:  0.4655 X   0.0083 Y   0.1336 Z
    Strength   :     0.0407462425
    D(   47) --> V(    3) amplitude =  0.9674

 Excited state  18: excitation energy (eV) =    7.1751
 Total energy for state 18:                 -3010.25522667 au
    Multiplicity: Singlet
    Trans. Mom.:  0.0130 X  -0.9166 Y   0.0039 Z
    Strength   :     0.1477241179
    D(   46) --> V(    2) amplitude =  0.8855

 Excited state  19: excitation energy (eV) =    7.2088
 Total energy for state 19:                 -3010.25398836 au
    Multiplicity: Singlet
    Trans. Mom.:  0.0038 X  -0.1715 Y   0.0012 Z
    Strength   :     0.0051983751
    D(   39) --> V(    1) amplitude = -0.5627
    D(   45) --> V(    3) amplitude =  0.7833

 Excited state  20: excitation energy (eV) =    7.2781
 Total energy for state 20:                 -3010.25144000 au
    Multiplicity: Singlet
    Trans. Mom.:  0.6890 X   0.0103 Y   0.2192 Z
    Strength   :     0.0932371749
    D(   40) --> V(    1) amplitude =  0.2156
    D(   46) --> V(    3) amplitude =  0.9358
    D(   49) --> V(    3) amplitude = -0.2217

 Excited state  21: excitation energy (eV) =    7.2998
 Total energy for state 21:                 -3010.25064392 au
    Multiplicity: Singlet
    Trans. Mom.:  0.0004 X   0.0859 Y  -0.0002 Z
    Strength   :     0.0013193550
    D(   39) --> V(    1) amplitude =  0.7562
    D(   45) --> V(    3) amplitude =  0.5933

 Excited state  22: excitation energy (eV) =    7.4234
 Total energy for state 22:                 -3010.24610023 au
    Multiplicity: Singlet
    Trans. Mom.:  0.6906 X   0.0133 Y   0.3922 Z
    Strength   :     0.1147405314
    D(   37) --> V(    1) amplitude =  0.2478
    D(   40) --> V(    1) amplitude =  0.7072
    D(   44) --> V(    3) amplitude = -0.3647
    D(   46) --> V(    3) amplitude = -0.2146
    D(   48) --> V(    2) amplitude = -0.2866
    D(   48) --> V(    4) amplitude =  0.2315

 Excited state  23: excitation energy (eV) =    7.4387
 Total energy for state 23:                 -3010.24553932 au
    Multiplicity: Singlet
    Trans. Mom.:  0.0090 X  -0.3988 Y   0.0036 Z
    Strength   :     0.0290014058
    D(   43) --> V(    3) amplitude =  0.2165
    D(   44) --> V(    2) amplitude =  0.5819
    D(   44) --> V(    4) amplitude =  0.4084
    D(   49) --> V(    2) amplitude = -0.3098
    D(   49) --> V(    4) amplitude =  0.5256

 Excited state  24: excitation energy (eV) =    7.5997
 Total energy for state 24:                 -3010.23962097 au
    Multiplicity: Singlet
    Trans. Mom.: -0.2634 X  -0.0050 Y  -0.2635 Z
    Strength   :     0.0258517308
    D(   37) --> V(    1) amplitude = -0.4043
    D(   40) --> V(    1) amplitude = -0.2670
    D(   48) --> V(    2) amplitude = -0.5228
    D(   48) --> V(    4) amplitude =  0.5781

 Excited state  25: excitation energy (eV) =    7.7617
 Total energy for state 25:                 -3010.23366641 au
    Multiplicity: Singlet
    Trans. Mom.: -1.1182 X  -0.0172 Y  -0.3082 Z
    Strength   :     0.2558775641
    D(   37) --> V(    1) amplitude =  0.6219
    D(   42) --> V(    3) amplitude = -0.2851
    D(   43) --> V(    2) amplitude =  0.2276
    D(   44) --> V(    3) amplitude =  0.4521
    D(   48) --> V(    2) amplitude = -0.2777
    D(   48) --> V(    4) amplitude =  0.3079

 Excited state  26: excitation energy (eV) =    7.8588
 Total energy for state 26:                 -3010.23010090 au
    Multiplicity: Singlet
    Trans. Mom.:  0.0005 X  -0.0552 Y   0.0001 Z
    Strength   :     0.0005866901
    D(   35) --> V(    1) amplitude = -0.4198
    D(   38) --> V(    1) amplitude =  0.8023
    D(   42) --> V(    2) amplitude =  0.2757

 Excited state  27: excitation energy (eV) =    8.0104
 Total energy for state 27:                 -3010.22453005 au
    Multiplicity: Singlet
    Trans. Mom.:  0.1633 X   0.0051 Y   0.5872 Z
    Strength   :     0.0729119989
    D(   37) --> V(    1) amplitude = -0.4023
    D(   40) --> V(    1) amplitude =  0.3004
    D(   43) --> V(    2) amplitude =  0.7148
    D(   44) --> V(    3) amplitude =  0.2261

 Excited state  28: excitation energy (eV) =    8.2326
 Total energy for state 28:                 -3010.21636104 au
    Multiplicity: Singlet
    Trans. Mom.: -1.2457 X  -0.0201 Y  -0.0771 Z
    Strength   :     0.3142602868
    D(   37) --> V(    1) amplitude = -0.2880
    D(   40) --> V(    1) amplitude =  0.3656
    D(   43) --> V(    2) amplitude = -0.4734
    D(   44) --> V(    3) amplitude =  0.6171

 Excited state  29: excitation energy (eV) =    8.2372
 Total energy for state 29:                 -3010.21619557 au
    Multiplicity: Singlet
    Trans. Mom.:  0.0172 X  -0.1810 Y   0.0014 Z
    Strength   :     0.0066723336
    D(   43) --> V(    3) amplitude =  0.4900
    D(   44) --> V(    2) amplitude = -0.4294
    D(   44) --> V(    4) amplitude =  0.6205

 Excited state  30: excitation energy (eV) =    8.4044
 Total energy for state 30:                 -3010.21004792 au
    Multiplicity: Singlet
    Trans. Mom.:  0.0007 X  -0.0217 Y  -0.0001 Z
    Strength   :     0.0000967394
    D(   47) --> V(    2) amplitude =  0.3242
    D(   47) --> V(    4) amplitude =  0.8632

 Excited state  31: excitation energy (eV) =    8.5564
 Total energy for state 31:                 -3010.20446361 au
    Multiplicity: Singlet
    Trans. Mom.: -0.2651 X   0.0071 Y   0.1053 Z
    Strength   :     0.0170715033
    D(   37) --> V(    1) amplitude =  0.2661
    D(   42) --> V(    3) amplitude =  0.7740
    D(   45) --> V(    4) amplitude = -0.4302

 Excited state  32: excitation energy (eV) =    8.5603
 Total energy for state 32:                 -3010.20431970 au
    Multiplicity: Singlet
    Trans. Mom.: -0.0034 X   0.5760 Y  -0.0044 Z
    Strength   :     0.0695986221
    D(   38) --> V(    1) amplitude =  0.2182
    D(   43) --> V(    3) amplitude =  0.6052
    D(   44) --> V(    4) amplitude = -0.3997
    D(   49) --> V(    5) amplitude =  0.4812

 Excited state  33: excitation energy (eV) =    8.5978
 Total energy for state 33:                 -3010.20294058 au
    Multiplicity: Singlet
    Trans. Mom.: -0.0796 X  -0.0017 Y   0.0413 Z
    Strength   :     0.0016956579
    D(   42) --> V(    3) amplitude =  0.4724
    D(   45) --> V(    2) amplitude =  0.2748
    D(   45) --> V(    4) amplitude =  0.7586

 Excited state  34: excitation energy (eV) =    8.6608
 Total energy for state 34:                 -3010.20062812 au
    Multiplicity: Singlet
    Trans. Mom.: -0.0039 X   0.2112 Y  -0.0011 Z
    Strength   :     0.0094644201
    D(   35) --> V(    1) amplitude =  0.3851
    D(   42) --> V(    2) amplitude =  0.8164

 Excited state  35: excitation energy (eV) =    8.6983
 Total energy for state 35:                 -3010.19924907 au
    Multiplicity: Singlet
    Trans. Mom.: -0.0027 X   0.1819 Y  -0.0009 Z
    Strength   :     0.0070548526
    D(   44) --> V(    4) amplitude =  0.2960
    D(   46) --> V(    4) amplitude =  0.8580

 Excited state  36: excitation energy (eV) =    8.7775
 Total energy for state 36:                 -3010.19633800 au
    Multiplicity: Singlet
    Trans. Mom.:  0.0091 X  -0.6625 Y   0.0025 Z
    Strength   :     0.0944063314
    D(   35) --> V(    1) amplitude = -0.3756
    D(   38) --> V(    1) amplitude = -0.3126
    D(   41) --> V(    3) amplitude =  0.2775
    D(   42) --> V(    2) amplitude =  0.2483
    D(   43) --> V(    3) amplitude = -0.2452
    D(   49) --> V(    5) amplitude =  0.6460

 Excited state  37: excitation energy (eV) =    8.8526
 Total energy for state 37:                 -3010.19357648 au
    Multiplicity: Singlet
    Trans. Mom.:  0.0124 X  -0.8552 Y   0.0038 Z
    Strength   :     0.1586759649
    D(   35) --> V(    1) amplitude =  0.5559
    D(   38) --> V(    1) amplitude =  0.2792
    D(   38) --> V(    2) amplitude = -0.2537
    D(   43) --> V(    3) amplitude = -0.4062
    D(   44) --> V(    4) amplitude =  0.2398
    D(   49) --> V(    5) amplitude =  0.4495

 Excited state  38: excitation energy (eV) =    8.8989
 Total energy for state 38:                 -3010.19187803 au
    Multiplicity: Singlet
    Trans. Mom.:  0.1786 X   0.0035 Y   0.2297 Z
    Strength   :     0.0184634204
    D(   34) --> V(    1) amplitude =  0.6622
    D(   36) --> V(    1) amplitude = -0.3096
    D(   40) --> V(    2) amplitude = -0.2330
    D(   41) --> V(    2) amplitude = -0.5429

 Excited state  39: excitation energy (eV) =    8.9999
 Total energy for state 39:                 -3010.18816335 au
    Multiplicity: Singlet
    Trans. Mom.:  0.4332 X   0.0059 Y  -0.0350 Z
    Strength   :     0.0416638089
    D(   48) --> V(    5) amplitude =  0.8870
    D(   48) --> V(    7) amplitude =  0.2222
    D(   48) --> V(    9) amplitude =  0.3151

 Excited state  40: excitation energy (eV) =    9.1983
 Total energy for state 40:                 -3010.18087380 au
    Multiplicity: Singlet
    Trans. Mom.: -0.0023 X   0.1925 Y  -0.0006 Z
    Strength   :     0.0083545175
    D(   35) --> V(    1) amplitude =  0.2684
    D(   41) --> V(    3) amplitude =  0.8146
    D(   47) --> V(    5) amplitude =  0.2465

 Excited state  41: excitation energy (eV) =    9.3112
 Total energy for state 41:                 -3010.17672663 au
    Multiplicity: Singlet
    Trans. Mom.:  0.0059 X  -0.3475 Y   0.0024 Z
    Strength   :     0.0275488400
    D(   41) --> V(    3) amplitude = -0.3098
    D(   47) --> V(    5) amplitude =  0.5912
    D(   47) --> V(    7) amplitude = -0.3389
    D(   47) --> V(    8) amplitude =  0.2807
    D(   47) --> V(   11) amplitude = -0.2745
    D(   47) --> V(   12) amplitude =  0.3141

 Excited state  42: excitation energy (eV) =    9.3303
 Total energy for state 42:                 -3010.17602203 au
    Multiplicity: Singlet
    Trans. Mom.:  0.1704 X   0.0049 Y   0.2668 Z
    Strength   :     0.0229152769
    D(   36) --> V(    1) amplitude =  0.7518
    D(   43) --> V(    4) amplitude =  0.3736
    D(   45) --> V(    5) amplitude = -0.2154

 Excited state  43: excitation energy (eV) =    9.3693
 Total energy for state 43:                 -3010.17458921 au
    Multiplicity: Singlet
    Trans. Mom.:  0.0012 X  -0.0715 Y   0.0005 Z
    Strength   :     0.0011749958
    D(   46) --> V(    5) amplitude =  0.5994
    D(   46) --> V(    7) amplitude = -0.3463
    D(   46) --> V(   11) amplitude = -0.2795
    D(   46) --> V(   12) amplitude =  0.3163
    D(   49) --> V(    7) amplitude =  0.2478

 Excited state  44: excitation energy (eV) =    9.5094
 Total energy for state 44:                 -3010.16944270 au
    Multiplicity: Singlet
    Trans. Mom.: -0.1237 X  -0.0021 Y  -0.1796 Z
    Strength   :     0.0110818266
    D(   33) --> V(    1) amplitude = -0.2231
    D(   34) --> V(    1) amplitude =  0.6021
    D(   41) --> V(    2) amplitude =  0.6444

 Excited state  45: excitation energy (eV) =    9.5195
 Total energy for state 45:                 -3010.16906880 au
    Multiplicity: Singlet
    Trans. Mom.: -0.0008 X   0.0861 Y  -0.0002 Z
    Strength   :     0.0017271833
    D(   44) --> V(    8) amplitude =  0.2372
    D(   49) --> V(    7) amplitude =  0.6157
    D(   49) --> V(    8) amplitude =  0.6148
    D(   49) --> V(    9) amplitude = -0.2508

 Excited state  46: excitation energy (eV) =    9.5609
 Total energy for state 46:                 -3010.16754874 au
    Multiplicity: Singlet
    Trans. Mom.: -0.0040 X   0.2082 Y  -0.0003 Z
    Strength   :     0.0101546075
    D(   44) --> V(    5) amplitude =  0.6443
    D(   49) --> V(    9) amplitude = -0.5524

 Excited state  47: excitation energy (eV) =    9.6058
 Total energy for state 47:                 -3010.16589899 au
    Multiplicity: Singlet
    Trans. Mom.: -0.5935 X  -0.0074 Y   0.3093 Z
    Strength   :     0.1054199896
    D(   43) --> V(    4) amplitude =  0.6239
    D(   45) --> V(    5) amplitude =  0.3604
    D(   45) --> V(    7) amplitude = -0.2411
    D(   49) --> V(    6) amplitude = -0.3717

 Excited state  48: excitation energy (eV) =    9.7289
 Total energy for state 48:                 -3010.16137623 au
    Multiplicity: Singlet
    Trans. Mom.: -0.0002 X  -0.0188 Y  -0.0001 Z
    Strength   :     0.0000845761
    D(   44) --> V(    8) amplitude =  0.2167
    D(   49) --> V(    7) amplitude = -0.5019
    D(   49) --> V(    8) amplitude =  0.5811
    D(   49) --> V(    9) amplitude =  0.4232

 Excited state  49: excitation energy (eV) =    9.7814
 Total energy for state 49:                 -3010.15944525 au
    Multiplicity: Singlet
    Trans. Mom.: -0.3728 X  -0.0041 Y   0.3043 Z
    Strength   :     0.0554962038
    D(   45) --> V(    5) amplitude =  0.3589
    D(   45) --> V(    7) amplitude = -0.3007
    D(   49) --> V(    6) amplitude =  0.7161

 Excited state  50: excitation energy (eV) =    9.8077
 Total energy for state 50:                 -3010.15848055 au
    Multiplicity: Singlet
    Trans. Mom.:  0.0006 X   0.0168 Y  -0.0009 Z
    Strength   :     0.0000683060
    D(   39) --> V(    2) amplitude =  0.2445
    D(   42) --> V(    4) amplitude =  0.8897

 Excited state  51: excitation energy (eV) =    9.8468
 Total energy for state 51:                 -3010.15704353 au
    Multiplicity: Singlet
    Trans. Mom.: -0.0026 X   0.2598 Y  -0.0016 Z
    Strength   :     0.0162858618
    D(   47) --> V(    5) amplitude = -0.2199
    D(   47) --> V(    7) amplitude =  0.4420
    D(   47) --> V(    8) amplitude =  0.6802
    D(   47) --> V(   12) amplitude =  0.2166
    D(   47) --> V(   16) amplitude = -0.2609

 Excited state  52: excitation energy (eV) =    9.8601
 Total energy for state 52:                 -3010.15655158 au
    Multiplicity: Singlet
    Trans. Mom.:  0.1130 X   0.0003 Y  -0.3742 Z
    Strength   :     0.0369058235
    D(   36) --> V(    1) amplitude =  0.3174
    D(   43) --> V(    4) amplitude = -0.3472
    D(   45) --> V(    5) amplitude =  0.3839
    D(   45) --> V(    7) amplitude = -0.3516
    D(   45) --> V(    8) amplitude = -0.2183
    D(   48) --> V(    7) amplitude = -0.3577
    D(   48) --> V(    9) amplitude =  0.2417
    D(   49) --> V(    6) amplitude = -0.3217

 Excited state  53: excitation energy (eV) =    9.9501
 Total energy for state 53:                 -3010.15324612 au
    Multiplicity: Singlet
    Trans. Mom.:  0.0001 X  -0.0225 Y   0.0003 Z
    Strength   :     0.0001233630
    D(   46) --> V(    7) amplitude =  0.4484
    D(   46) --> V(    8) amplitude =  0.6965
    D(   46) --> V(   16) amplitude = -0.2801

 Excited state  54: excitation energy (eV) =    9.9738
 Total energy for state 54:                 -3010.15237407 au
    Multiplicity: Singlet
    Trans. Mom.:  0.2928 X   0.0041 Y  -0.0375 Z
    Strength   :     0.0213031077
    D(   33) --> V(    1) amplitude =  0.2829
    D(   41) --> V(    4) amplitude =  0.3101
    D(   43) --> V(    4) amplitude =  0.2514
    D(   48) --> V(    7) amplitude = -0.4553
    D(   48) --> V(    9) amplitude =  0.5511
    D(   49) --> V(    6) amplitude =  0.2312

 Excited state  55: excitation energy (eV) =   10.1156
 Total energy for state 55:                 -3010.14716449 au
    Multiplicity: Singlet
    Trans. Mom.: -0.5151 X  -0.0085 Y  -0.1247 Z
    Strength   :     0.0696401090
    D(   33) --> V(    1) amplitude =  0.5629
    D(   34) --> V(    2) amplitude = -0.2302
    D(   41) --> V(    4) amplitude =  0.3406
    D(   48) --> V(    9) amplitude = -0.3675

 Excited state  56: excitation energy (eV) =   10.1306
 Total energy for state 56:                 -3010.14661225 au
    Multiplicity: Singlet
    Trans. Mom.: -0.0060 X   0.0944 Y  -0.0019 Z
    Strength   :     0.0022198699
    D(   48) --> V(    6) amplitude =  0.8775
    D(   48) --> V(   10) amplitude = -0.3632
    D(   48) --> V(   13) amplitude = -0.2197

 Excited state  57: excitation energy (eV) =   10.3018
 Total energy for state 57:                 -3010.14031977 au
    Multiplicity: Singlet
    Trans. Mom.: -0.0085 X   0.5949 Y  -0.0017 Z
    Strength   :     0.0893548336
    D(   44) --> V(    5) amplitude = -0.5026
    D(   49) --> V(    7) amplitude = -0.2167
    D(   49) --> V(    9) amplitude = -0.4121
    D(   49) --> V(   11) amplitude =  0.5114

 Excited state  58: excitation energy (eV) =   10.3357
 Total energy for state 58:                 -3010.13907660 au
    Multiplicity: Singlet
    Trans. Mom.:  0.0945 X   0.0004 Y   0.1617 Z
    Strength   :     0.0088823976
    D(   44) --> V(    6) amplitude =  0.2556
    D(   49) --> V(   10) amplitude =  0.7935

 Excited state  59: excitation energy (eV) =   10.3425
 Total energy for state 59:                 -3010.13882490 au
    Multiplicity: Singlet
    Trans. Mom.: -0.6373 X  -0.0094 Y  -0.0414 Z
    Strength   :     0.1033610844
    D(   36) --> V(    1) amplitude =  0.2461
    D(   45) --> V(    7) amplitude =  0.2484
    D(   45) --> V(    8) amplitude =  0.6053

 Excited state  60: excitation energy (eV) =   10.4478
 Total energy for state 60:                 -3010.13495689 au
    Multiplicity: Singlet
    Trans. Mom.:  0.0191 X   0.0618 Y  -0.0112 Z
    Strength   :     0.0011035234
    D(   44) --> V(    5) amplitude =  0.3035
    D(   47) --> V(    5) amplitude = -0.2272
    D(   49) --> V(    9) amplitude =  0.2417
    D(   49) --> V(   11) amplitude =  0.5398
    D(   49) --> V(   12) amplitude =  0.4103

 Excited state  61: excitation energy (eV) =   10.4480
 Total energy for state 61:                 -3010.13494741 au
    Multiplicity: Singlet
    Trans. Mom.: -0.0818 X   0.0147 Y   0.0462 Z
    Strength   :     0.0023154262
    D(   33) --> V(    1) amplitude = -0.2855
    D(   41) --> V(    4) amplitude =  0.3924
    D(   45) --> V(    8) amplitude = -0.3083
    D(   48) --> V(    5) amplitude =  0.2163
    D(   48) --> V(    7) amplitude = -0.3129
    D(   48) --> V(    9) amplitude = -0.2816
    D(   48) --> V(   11) amplitude =  0.2291

 Excited state  62: excitation energy (eV) =   10.4699
 Total energy for state 62:                 -3010.13414393 au
    Multiplicity: Singlet
    Trans. Mom.: -0.1109 X  -0.0019 Y  -0.0642 Z
    Strength   :     0.0042118756
    D(   41) --> V(    4) amplitude = -0.3382
    D(   48) --> V(    8) amplitude =  0.8063

 Excited state  63: excitation energy (eV) =   10.5313
 Total energy for state 63:                 -3010.13188774 au
    Multiplicity: Singlet
    Trans. Mom.: -0.0016 X   0.1422 Y   0.0000 Z
    Strength   :     0.0052158958
    D(   46) --> V(    5) amplitude = -0.2347
    D(   47) --> V(    5) amplitude =  0.2669
    D(   47) --> V(    7) amplitude =  0.2912
    D(   47) --> V(   11) amplitude = -0.2167
    D(   47) --> V(   12) amplitude = -0.2960
    D(   49) --> V(   11) amplitude =  0.4417
    D(   49) --> V(   12) amplitude = -0.2502

 Excited state  64: excitation energy (eV) =   10.5658
 Total energy for state 64:                 -3010.13061982 au
    Multiplicity: Singlet
    Trans. Mom.: -0.0074 X   0.4534 Y  -0.0036 Z
    Strength   :     0.0532324790
    D(   47) --> V(    5) amplitude =  0.2146
    D(   47) --> V(    7) amplitude =  0.3190
    D(   47) --> V(   12) amplitude = -0.2820
    D(   49) --> V(   12) amplitude =  0.5897

 Excited state  65: excitation energy (eV) =   10.5757
 Total energy for state 65:                 -3010.13025643 au
    Multiplicity: Singlet
    Trans. Mom.: -0.3336 X  -0.0076 Y  -0.5493 Z
    Strength   :     0.1070184469
    D(   41) --> V(    4) amplitude =  0.3882
    D(   44) --> V(    6) amplitude = -0.3087
    D(   48) --> V(    7) amplitude =  0.3462
    D(   48) --> V(    8) amplitude =  0.3006
    D(   48) --> V(    9) amplitude =  0.2350
    D(   48) --> V(   14) amplitude = -0.2262
    D(   49) --> V(   13) amplitude = -0.3669

 Excited state  66: excitation energy (eV) =   10.6295
 Total energy for state 66:                 -3010.12828021 au
    Multiplicity: Singlet
    Trans. Mom.: -0.0010 X   0.0870 Y  -0.0003 Z
    Strength   :     0.0019702345
    D(   35) --> V(    1) amplitude = -0.2525
    D(   38) --> V(    1) amplitude = -0.2711
    D(   38) --> V(    2) amplitude = -0.7545
    D(   38) --> V(    4) amplitude =  0.2485

 Excited state  67: excitation energy (eV) =   10.6873
 Total energy for state 67:                 -3010.12615465 au
    Multiplicity: Singlet
    Trans. Mom.:  0.0016 X  -0.1403 Y  -0.0007 Z
    Strength   :     0.0051545915
    D(   38) --> V(    2) amplitude =  0.2301
    D(   46) --> V(    5) amplitude = -0.2746
    D(   46) --> V(    7) amplitude = -0.2614
    D(   46) --> V(   12) amplitude =  0.2557
    D(   48) --> V(   10) amplitude =  0.5261
    D(   48) --> V(   13) amplitude = -0.3386

 Excited state  68: excitation energy (eV) =   10.7108
 Total energy for state 68:                 -3010.12528995 au
    Multiplicity: Singlet
    Trans. Mom.:  0.0265 X   0.0006 Y   0.0059 Z
    Strength   :     0.0001940139
    D(   45) --> V(    5) amplitude = -0.3281
    D(   45) --> V(    7) amplitude = -0.2690
    D(   45) --> V(    8) amplitude =  0.2288
    D(   45) --> V(   11) amplitude =  0.2696
    D(   45) --> V(   12) amplitude =  0.2501
    D(   47) --> V(    6) amplitude =  0.4792
    D(   47) --> V(   10) amplitude =  0.3606

 Excited state  69: excitation energy (eV) =   10.7311
 Total energy for state 69:                 -3010.12454585 au
    Multiplicity: Singlet
    Trans. Mom.:  0.1458 X  -0.0033 Y   0.0308 Z
    Strength   :     0.0058446026
    D(   43) --> V(    5) amplitude = -0.2630
    D(   44) --> V(    6) amplitude = -0.2878
    D(   45) --> V(    5) amplitude =  0.2227
    D(   45) --> V(    7) amplitude =  0.3075
    D(   45) --> V(   12) amplitude = -0.2632
    D(   47) --> V(    6) amplitude =  0.2580
    D(   48) --> V(   11) amplitude =  0.3147
    D(   49) --> V(   13) amplitude = -0.2563

 Excited state  70: excitation energy (eV) =   10.7354
 Total energy for state 70:                 -3010.12438603 au
    Multiplicity: Singlet
    Trans. Mom.:  0.0013 X  -0.2818 Y   0.0000 Z
    Strength   :     0.0208820910
    D(   46) --> V(    5) amplitude =  0.3521
    D(   46) --> V(    7) amplitude =  0.2919
    D(   46) --> V(   12) amplitude = -0.3513
    D(   48) --> V(   10) amplitude =  0.4550
    D(   48) --> V(   13) amplitude = -0.2997

 Excited state  71: excitation energy (eV) =   10.7709
 Total energy for state 71:                 -3010.12308212 au
    Multiplicity: Singlet
    Trans. Mom.:  0.0764 X   0.0021 Y   0.2541 Z
    Strength   :     0.0185771499
    D(   33) --> V(    1) amplitude =  0.2685
    D(   39) --> V(    3) amplitude = -0.6125
    D(   44) --> V(    6) amplitude =  0.2435
    D(   47) --> V(    6) amplitude =  0.2810
    D(   49) --> V(   13) amplitude =  0.2736

 Excited state  72: excitation energy (eV) =   10.7949
 Total energy for state 72:                 -3010.12219988 au
    Multiplicity: Singlet
    Trans. Mom.: -0.0005 X   0.0259 Y   0.0006 Z
    Strength   :     0.0001781522
    D(   40) --> V(    3) amplitude = -0.2957
    D(   44) --> V(    7) amplitude =  0.5834
    D(   44) --> V(    8) amplitude =  0.2696
    D(   44) --> V(    9) amplitude = -0.2755
    D(   49) --> V(   16) amplitude = -0.2675

 Excited state  73: excitation energy (eV) =   10.8156
 Total energy for state 73:                 -3010.12144026 au
    Multiplicity: Singlet
    Trans. Mom.:  0.0238 X   0.0002 Y  -0.0720 Z
    Strength   :     0.0015247136
    D(   39) --> V(    3) amplitude =  0.3889
    D(   45) --> V(    7) amplitude =  0.2844
    D(   45) --> V(   12) amplitude = -0.3459
    D(   47) --> V(    6) amplitude =  0.3820
    D(   48) --> V(   11) amplitude = -0.3102

 Excited state  74: excitation energy (eV) =   10.8376
 Total energy for state 74:                 -3010.12062941 au
    Multiplicity: Singlet
    Trans. Mom.:  0.0003 X   0.0021 Y  -0.0002 Z
    Strength   :     0.0000011639
    D(   37) --> V(    3) amplitude =  0.2941
    D(   39) --> V(    2) amplitude = -0.2762
    D(   40) --> V(    3) amplitude =  0.5857
    D(   44) --> V(    9) amplitude = -0.2565
    D(   49) --> V(   14) amplitude = -0.3069

 Excited state  75: excitation energy (eV) =   10.8705
 Total energy for state 75:                 -3010.11942214 au
    Multiplicity: Singlet
    Trans. Mom.: -0.0009 X   0.1690 Y  -0.0008 Z
    Strength   :     0.0076062753
    D(   40) --> V(    3) amplitude =  0.2750
    D(   44) --> V(    7) amplitude =  0.3206
    D(   44) --> V(    9) amplitude =  0.2605
    D(   45) --> V(    6) amplitude = -0.2346
    D(   46) --> V(    9) amplitude = -0.2256
    D(   49) --> V(   14) amplitude =  0.5861

 Excited state  76: excitation energy (eV) =   10.8749
 Total energy for state 76:                 -3010.11925887 au
    Multiplicity: Singlet
    Trans. Mom.: -0.1434 X  -0.0009 Y   0.0237 Z
    Strength   :     0.0056318232
    D(   39) --> V(    3) amplitude =  0.4130
    D(   40) --> V(    2) amplitude =  0.2569
    D(   48) --> V(   11) amplitude =  0.6509
    D(   48) --> V(   12) amplitude =  0.2249
    D(   48) --> V(   14) amplitude = -0.2463

 Excited state  77: excitation energy (eV) =   10.9279
 Total energy for state 77:                 -3010.11731329 au
    Multiplicity: Singlet
    Trans. Mom.:  0.0029 X   0.0015 Y   0.3216 Z
    Strength   :     0.0276925816
    D(   44) --> V(    6) amplitude =  0.3682
    D(   46) --> V(    6) amplitude =  0.6316
    D(   46) --> V(   10) amplitude =  0.4947

 Excited state  78: excitation energy (eV) =   10.9511
 Total energy for state 78:                 -3010.11646079 au
    Multiplicity: Singlet
    Trans. Mom.: -0.0010 X   0.0680 Y  -0.0010 Z
    Strength   :     0.0012400163
    D(   45) --> V(    6) amplitude =  0.2278
    D(   47) --> V(    5) amplitude =  0.2388
    D(   47) --> V(    9) amplitude =  0.5404
    D(   47) --> V(   14) amplitude =  0.4810

 Excited state  79: excitation energy (eV) =   10.9875
 Total energy for state 79:                 -3010.11512233 au
    Multiplicity: Singlet
    Trans. Mom.: -0.0021 X   0.1565 Y  -0.0006 Z
    Strength   :     0.0065960924
    D(   44) --> V(    7) amplitude = -0.2220
    D(   44) --> V(    8) amplitude =  0.5198
    D(   47) --> V(    9) amplitude =  0.3498
    D(   47) --> V(   14) amplitude =  0.2183
    D(   49) --> V(   15) amplitude =  0.2828
    D(   49) --> V(   16) amplitude =  0.2534

 Excited state  80: excitation energy (eV) =   10.9996
 Total energy for state 80:                 -3010.11467695 au
    Multiplicity: Singlet
    Trans. Mom.:  0.0009 X  -0.0572 Y  -0.0000 Z
    Strength   :     0.0008811261
    D(   44) --> V(    8) amplitude =  0.3267
    D(   45) --> V(    6) amplitude =  0.5196
    D(   45) --> V(   10) amplitude =  0.3005
    D(   47) --> V(    9) amplitude = -0.2599

 Excited state  81: excitation energy (eV) =   11.0572
 Total energy for state 81:                 -3010.11256172 au
    Multiplicity: Singlet
    Trans. Mom.: -0.0147 X  -0.0004 Y  -0.0299 Z
    Strength   :     0.0003008890
    D(   40) --> V(    2) amplitude =  0.5919
    D(   48) --> V(   11) amplitude = -0.2574
    D(   48) --> V(   12) amplitude =  0.2956
    D(   48) --> V(   14) amplitude =  0.3634

 Excited state  82: excitation energy (eV) =   11.1509
 Total energy for state 82:                 -3010.10911784 au
    Multiplicity: Singlet
    Trans. Mom.: -0.0017 X   0.1350 Y  -0.0007 Z
    Strength   :     0.0049824298
    D(   46) --> V(    9) amplitude =  0.6361
    D(   46) --> V(   14) amplitude =  0.4834

 Excited state  83: excitation energy (eV) =   11.1676
 Total energy for state 83:                 -3010.10850268 au
    Multiplicity: Singlet
    Trans. Mom.:  0.0846 X  -0.0008 Y   0.0240 Z
    Strength   :     0.0021166336
    D(   43) --> V(    5) amplitude =  0.7404
    D(   44) --> V(    6) amplitude = -0.2848
    D(   48) --> V(   12) amplitude =  0.3754

 Excited state  84: excitation energy (eV) =   11.1736
 Total energy for state 84:                 -3010.10828220 au
    Multiplicity: Singlet
    Trans. Mom.:  0.0001 X   0.1259 Y  -0.0000 Z
    Strength   :     0.0043420757
    D(   39) --> V(    2) amplitude = -0.2660
    D(   47) --> V(    5) amplitude =  0.3424
    D(   47) --> V(   11) amplitude =  0.6901

 Excited state  85: excitation energy (eV) =   11.1809
 Total energy for state 85:                 -3010.10801391 au
    Multiplicity: Singlet
    Trans. Mom.: -0.0045 X   0.2812 Y  -0.0017 Z
    Strength   :     0.0216720940
    D(   37) --> V(    3) amplitude = -0.4363
    D(   39) --> V(    2) amplitude =  0.4829
    D(   40) --> V(    3) amplitude =  0.5069

 Excited state  86: excitation energy (eV) =   11.2061
 Total energy for state 86:                 -3010.10708716 au
    Multiplicity: Singlet
    Trans. Mom.: -0.0829 X  -0.0015 Y  -0.1934 Z
    Strength   :     0.0121583615
    D(   40) --> V(    2) amplitude = -0.2457
    D(   45) --> V(    5) amplitude =  0.2264
    D(   45) --> V(    9) amplitude =  0.5648
    D(   45) --> V(   14) amplitude =  0.4314

 Excited state  87: excitation energy (eV) =   11.2341
 Total energy for state 87:                 -3010.10606113 au
    Multiplicity: Singlet
    Trans. Mom.:  0.2615 X   0.0056 Y   0.4534 Z
    Strength   :     0.0754098550
    D(   40) --> V(    2) amplitude =  0.3197
    D(   43) --> V(    5) amplitude =  0.2346
    D(   45) --> V(    9) amplitude =  0.4012
    D(   45) --> V(   14) amplitude =  0.3062
    D(   48) --> V(   12) amplitude = -0.3726
    D(   48) --> V(   14) amplitude = -0.2614

 Excited state  88: excitation energy (eV) =   11.2403
 Total energy for state 88:                 -3010.10583036 au
    Multiplicity: Singlet
    Trans. Mom.:  0.0017 X   0.0481 Y   0.0033 Z
    Strength   :     0.0006411004
    D(   37) --> V(    3) amplitude =  0.3818
    D(   39) --> V(    2) amplitude =  0.4250
    D(   44) --> V(   11) amplitude = -0.2364
    D(   46) --> V(    5) amplitude =  0.2131
    D(   46) --> V(   11) amplitude =  0.5151

 Excited state  89: excitation energy (eV) =   11.2781
 Total energy for state 89:                 -3010.10444276 au
    Multiplicity: Singlet
    Trans. Mom.:  0.0002 X   0.0285 Y   0.0009 Z
    Strength   :     0.0002250829
    D(   37) --> V(    3) amplitude =  0.3945
    D(   39) --> V(    2) amplitude =  0.4725
    D(   46) --> V(   11) amplitude = -0.4324

 Excited state  90: excitation energy (eV) =   11.3347
 Total energy for state 90:                 -3010.10236187 au
    Multiplicity: Singlet
    Trans. Mom.:  0.2458 X   0.0050 Y   0.3408 Z
    Strength   :     0.0490239626
    D(   35) --> V(    3) amplitude =  0.2949
    D(   38) --> V(    3) amplitude = -0.2874
    D(   45) --> V(    5) amplitude =  0.3328
    D(   45) --> V(   11) amplitude =  0.5803

 Excited state  91: excitation energy (eV) =   11.3420
 Total energy for state 91:                 -3010.10209469 au
    Multiplicity: Singlet
    Trans. Mom.: -0.0224 X   0.0004 Y   0.3890 Z
    Strength   :     0.0421901051
    D(   44) --> V(    6) amplitude = -0.3702
    D(   44) --> V(   10) amplitude =  0.2744
    D(   45) --> V(   11) amplitude = -0.2125
    D(   49) --> V(   10) amplitude =  0.2470
    D(   49) --> V(   13) amplitude =  0.5927

 Excited state  92: excitation energy (eV) =   11.3634
 Total energy for state 92:                 -3010.10130741 au
    Multiplicity: Singlet
    Trans. Mom.: -0.0008 X   0.0617 Y   0.0034 Z
    Strength   :     0.0010624106
    D(   44) --> V(    9) amplitude =  0.4971
    D(   44) --> V(   11) amplitude = -0.4805
    D(   46) --> V(   11) amplitude = -0.3305
    D(   49) --> V(   14) amplitude = -0.2508

 Excited state  93: excitation energy (eV) =   11.4319
 Total energy for state 93:                 -3010.09879160 au
    Multiplicity: Singlet
    Trans. Mom.:  0.1723 X   0.0019 Y  -0.1891 Z
    Strength   :     0.0183346861
    D(   32) --> V(    1) amplitude = -0.2653
    D(   35) --> V(    3) amplitude = -0.3868
    D(   38) --> V(    3) amplitude =  0.4536
    D(   43) --> V(    8) amplitude =  0.2926
    D(   45) --> V(   11) amplitude =  0.4291

 Excited state  94: excitation energy (eV) =   11.4585
 Total energy for state 94:                 -3010.09781194 au
    Multiplicity: Singlet
    Trans. Mom.: -0.1353 X  -0.0026 Y  -0.1182 Z
    Strength   :     0.0090627263
    D(   37) --> V(    2) amplitude = -0.6485
    D(   43) --> V(    8) amplitude =  0.3376

 Excited state  95: excitation energy (eV) =   11.4891
 Total energy for state 95:                 -3010.09668825 au
    Multiplicity: Singlet
    Trans. Mom.:  0.0005 X  -0.0269 Y  -0.0008 Z
    Strength   :     0.0002039891
    D(   44) --> V(    8) amplitude = -0.2240
    D(   44) --> V(    9) amplitude = -0.2150
    D(   48) --> V(    6) amplitude =  0.2238
    D(   48) --> V(   10) amplitude =  0.2187
    D(   48) --> V(   13) amplitude =  0.4718
    D(   48) --> V(   17) amplitude = -0.2250
    D(   49) --> V(   12) amplitude =  0.2389
    D(   49) --> V(   15) amplitude =  0.2529
    D(   49) --> V(   16) amplitude =  0.3918

 Excited state  96: excitation energy (eV) =   11.5211
 Total energy for state 96:                 -3010.09551127 au
    Multiplicity: Singlet
    Trans. Mom.:  0.0009 X  -0.0637 Y  -0.0004 Z
    Strength   :     0.0011460431
    D(   44) --> V(    8) amplitude =  0.2192
    D(   48) --> V(    6) amplitude =  0.2356
    D(   48) --> V(   10) amplitude =  0.2359
    D(   48) --> V(   13) amplitude =  0.4424
    D(   49) --> V(   15) amplitude = -0.3975
    D(   49) --> V(   19) amplitude =  0.2422

 Excited state  97: excitation energy (eV) =   11.5428
 Total energy for state 97:                 -3010.09471619 au
    Multiplicity: Singlet
    Trans. Mom.: -0.0021 X   0.1249 Y  -0.0007 Z
    Strength   :     0.0044151062
    D(   44) --> V(   11) amplitude = -0.3636
    D(   44) --> V(   12) amplitude = -0.2431
    D(   49) --> V(   15) amplitude =  0.3299
    D(   49) --> V(   19) amplitude =  0.2424

 Excited state  98: excitation energy (eV) =   11.5624
 Total energy for state 98:                 -3010.09399358 au
    Multiplicity: Singlet
    Trans. Mom.:  0.1076 X   0.0025 Y   0.2457 Z
    Strength   :     0.0203827019
    D(   35) --> V(    3) amplitude = -0.2483
    D(   37) --> V(    2) amplitude = -0.4749
    D(   38) --> V(    3) amplitude =  0.2903
    D(   43) --> V(    8) amplitude = -0.3862
    D(   44) --> V(   10) amplitude = -0.3639

 Excited state  99: excitation energy (eV) =   11.5898
 Total energy for state 99:                 -3010.09298634 au
    Multiplicity: Singlet
    Trans. Mom.: -0.0003 X   0.0140 Y   0.0002 Z
    Strength   :     0.0000555972
    D(   44) --> V(    7) amplitude =  0.2218
    D(   46) --> V(    8) amplitude = -0.2529
    D(   48) --> V(   13) amplitude = -0.2212
    D(   49) --> V(   15) amplitude = -0.3468
    D(   49) --> V(   16) amplitude =  0.4890

 Excited state 100: excitation energy (eV) =   11.5991
 Total energy for state100:                 -3010.09264674 au
    Multiplicity: Singlet
    Trans. Mom.:  0.0009 X  -0.0377 Y   0.0004 Z
    Strength   :     0.0004048510
    D(   45) --> V(    6) amplitude =  0.3553
    D(   47) --> V(    7) amplitude =  0.3103
    D(   47) --> V(    8) amplitude = -0.3479
    D(   47) --> V(   12) amplitude =  0.2672
    D(   47) --> V(   16) amplitude = -0.2323
    D(   49) --> V(   15) amplitude = -0.2186
    D(   49) --> V(   16) amplitude =  0.3621
 
 ---------------------------------------------------

 Direct TDDFT calculation will be performed
 Exchange:     0.2220 Hartree-Fock + 1.0000 wB97X-D + LR-HF
 Correlation:  1.0000 wB97X-D
 Using SG-2 standard quadrature grid
 Dispersion:   Grimme D
 ---------------------------------------------------
 Iter    Rts Conv    Rts Left    Ttl Dev     Max Dev
 ---------------------------------------------------
   1         0         100      0.026252    0.001081
   2         0         100      0.006566    0.000140
   3         0         100      0.002165    0.000048
   4         1          99      0.001042    0.000029
   5        12          88      0.000490    0.000021
   6        36          64      0.000210    0.000013
   7        65          35      0.000094    0.000007
   8        95           5      0.000052    0.000003
   9        99           1      0.000046    0.000002
  10        99           1      0.000047    0.000003
  11        99           1      0.000116    0.000072
  12        99           1      0.000069    0.000025
  13        99           1      0.000055    0.000011
  14        99           1      0.000050    0.000006
  15        99           1      0.000047    0.000003
  16        99           1      0.000045    0.000001
  17       100           0      0.000044    0.000001    Roots Converged
 ---------------------------------------------------
 
 ---------------------------------------------------
             TDDFT Excitation Energies              
 ---------------------------------------------------

 Excited state   1: excitation energy (eV) =    2.3535
 Total energy for state  1:                 -3010.43241655 au
    Multiplicity: Singlet 
    Trans. Mom.: -0.0046 X   0.2580 Y  -0.0015 Z
    Strength   :     0.0038392850
    X: D(   49) --> V(    1) amplitude =  0.9711

 Excited state   2: excitation energy (eV) =    2.6707
 Total energy for state  2:                 -3010.42075753 au
    Multiplicity: Singlet 
    Trans. Mom.:  0.0006 X  -0.0524 Y   0.0002 Z
    Strength   :     0.0001793758
    X: D(   47) --> V(    1) amplitude =  0.8767
    X: D(   47) --> V(    2) amplitude = -0.4471

 Excited state   3: excitation energy (eV) =    2.6799
 Total energy for state  3:                 -3010.42042177 au
    Multiplicity: Singlet 
    Trans. Mom.:  0.2926 X   0.0048 Y   0.1563 Z
    Strength   :     0.0072263921
    X: D(   48) --> V(    1) amplitude =  0.9719

 Excited state   4: excitation energy (eV) =    2.9663
 Total energy for state  4:                 -3010.40989740 au
    Multiplicity: Singlet 
    Trans. Mom.: -0.0211 X  -0.0002 Y   0.0161 Z
    Strength   :     0.0000512316
    X: D(   45) --> V(    1) amplitude =  0.9083
    X: D(   45) --> V(    2) amplitude = -0.4077

 Excited state   5: excitation energy (eV) =    3.6635
 Total energy for state  5:                 -3010.38427590 au
    Multiplicity: Singlet 
    Trans. Mom.:  0.0018 X  -0.1307 Y   0.0002 Z
    Strength   :     0.0015335359
    X: D(   44) --> V(    1) amplitude = -0.4033
    X: D(   46) --> V(    1) amplitude =  0.8796

 Excited state   6: excitation energy (eV) =    3.8785
 Total energy for state  6:                 -3010.37637292 au
    Multiplicity: Singlet 
    Trans. Mom.: -0.0124 X   0.8796 Y  -0.0033 Z
    Strength   :     0.0735359645
    X: D(   44) --> V(    1) amplitude =  0.8841
    X: D(   46) --> V(    1) amplitude =  0.4280

 Excited state   7: excitation energy (eV) =    4.8124
 Total energy for state  7:                 -3010.34205404 au
    Multiplicity: Singlet 
    Trans. Mom.: -0.0015 X   0.0703 Y  -0.0005 Z
    Strength   :     0.0005834013
    X: D(   42) --> V(    1) amplitude =  0.2757
    X: D(   47) --> V(    1) amplitude =  0.4277
    X: D(   47) --> V(    2) amplitude =  0.7801
    X: D(   47) --> V(    4) amplitude = -0.2906

 Excited state   8: excitation energy (eV) =    4.9625
 Total energy for state  8:                 -3010.33653673 au
    Multiplicity: Singlet 
    Trans. Mom.: -0.0024 X   0.1572 Y  -0.0010 Z
    Strength   :     0.0030066469
    X: D(   42) --> V(    1) amplitude =  0.9417
    X: D(   47) --> V(    2) amplitude = -0.2236

 Excited state   9: excitation energy (eV) =    5.0583
 Total energy for state  9:                 -3010.33301557 au
    Multiplicity: Singlet 
    Trans. Mom.: -0.1986 X  -0.0036 Y  -0.1438 Z
    Strength   :     0.0074490216
    X: D(   45) --> V(    1) amplitude =  0.3913
    X: D(   45) --> V(    2) amplitude =  0.8294
    X: D(   45) --> V(    4) amplitude = -0.3061

 Excited state  10: excitation energy (eV) =    5.1130
 Total energy for state 10:                 -3010.33100425 au
    Multiplicity: Singlet 
    Trans. Mom.:  1.4403 X   0.0225 Y   0.4962 Z
    Strength   :     0.2907569399
    X: D(   43) --> V(    1) amplitude =  0.9397
    X: D(   49) --> V(    3) amplitude =  0.2582

 Excited state  11: excitation energy (eV) =    5.7375
 Total energy for state 11:                 -3010.30805471 au
    Multiplicity: Singlet 
    Trans. Mom.:  0.2374 X   0.0023 Y  -0.2719 Z
    Strength   :     0.0183136261
    X: D(   41) --> V(    1) amplitude =  0.9488

 Excited state  12: excitation energy (eV) =    5.7745
 Total energy for state 12:                 -3010.30669623 au
    Multiplicity: Singlet 
    Trans. Mom.:  0.0013 X   0.0083 Y   0.0002 Z
    Strength   :     0.0000099395
    X: D(   49) --> V(    2) amplitude =  0.8236
    X: D(   49) --> V(    4) amplitude =  0.4731

 Excited state  13: excitation energy (eV) =    6.0397
 Total energy for state 13:                 -3010.29695009 au
    Multiplicity: Singlet 
    Trans. Mom.: -0.1330 X  -0.0018 Y   0.0124 Z
    Strength   :     0.0026398475
    X: D(   48) --> V(    2) amplitude =  0.6779
    X: D(   48) --> V(    4) amplitude =  0.6751

 Excited state  14: excitation energy (eV) =    6.4443
 Total energy for state 14:                 -3010.28208218 au
    Multiplicity: Singlet 
    Trans. Mom.:  0.0105 X  -0.5640 Y   0.0031 Z
    Strength   :     0.0502327283
    X: D(   44) --> V(    2) amplitude = -0.3231
    X: D(   46) --> V(    2) amplitude =  0.7320
    X: D(   49) --> V(    2) amplitude = -0.2567
    X: D(   49) --> V(    4) amplitude =  0.4626

 Excited state  15: excitation energy (eV) =    6.5850
 Total energy for state 15:                 -3010.27691089 au
    Multiplicity: Singlet 
    Trans. Mom.: -1.4932 X  -0.0221 Y  -0.3021 Z
    Strength   :     0.3745283713
    X: D(   43) --> V(    1) amplitude = -0.2306
    X: D(   49) --> V(    3) amplitude =  0.9168

 Excited state  16: excitation energy (eV) =    6.5919
 Total energy for state 16:                 -3010.27665724 au
    Multiplicity: Singlet 
    Trans. Mom.: -0.0209 X  -0.1969 Y  -0.0038 Z
    Strength   :     0.0063325677
    X: D(   44) --> V(    2) amplitude =  0.2908
    X: D(   46) --> V(    2) amplitude =  0.2824
    X: D(   48) --> V(    3) amplitude =  0.8727

 Excited state  17: excitation energy (eV) =    6.6679
 Total energy for state 17:                 -3010.27386618 au
    Multiplicity: Singlet 
    Trans. Mom.: -0.0118 X   0.6290 Y  -0.0031 Z
    Strength   :     0.0646650660
    X: D(   44) --> V(    2) amplitude = -0.4756
    X: D(   46) --> V(    2) amplitude = -0.5233
    X: D(   48) --> V(    3) amplitude =  0.4727
    X: D(   49) --> V(    4) amplitude =  0.4037

 Excited state  18: excitation energy (eV) =    7.0735
 Total energy for state 18:                 -3010.25895992 au
    Multiplicity: Singlet 
    Trans. Mom.:  0.4184 X   0.0063 Y   0.1286 Z
    Strength   :     0.0332129095
    X: D(   47) --> V(    3) amplitude =  0.9763

 Excited state  19: excitation energy (eV) =    7.2024
 Total energy for state 19:                 -3010.25422261 au
    Multiplicity: Singlet 
    Trans. Mom.:  0.0026 X  -0.0524 Y   0.0010 Z
    Strength   :     0.0004866481
    X: D(   39) --> V(    1) amplitude = -0.6004
    X: D(   45) --> V(    3) amplitude =  0.7603

 Excited state  20: excitation energy (eV) =    7.2484
 Total energy for state 20:                 -3010.25253100 au
    Multiplicity: Singlet 
    Trans. Mom.:  0.6881 X   0.0108 Y   0.2665 Z
    Strength   :     0.0967238643
    X: D(   40) --> V(    1) amplitude =  0.3788
    X: D(   44) --> V(    3) amplitude = -0.2234
    X: D(   46) --> V(    3) amplitude =  0.8606

 Excited state  21: excitation energy (eV) =    7.2931
 Total energy for state 21:                 -3010.25088762 au
    Multiplicity: Singlet 
    Trans. Mom.:  0.0000 X   0.0675 Y  -0.0004 Z
    Strength   :     0.0008131929
    X: D(   39) --> V(    1) amplitude =  0.7236
    X: D(   45) --> V(    3) amplitude =  0.6289

 Excited state  22: excitation energy (eV) =    7.3706
 Total energy for state 22:                 -3010.24803975 au
    Multiplicity: Singlet 
    Trans. Mom.:  0.4979 X   0.0090 Y   0.3544 Z
    Strength   :     0.0674594772
    X: D(   40) --> V(    1) amplitude =  0.6775
    X: D(   44) --> V(    3) amplitude = -0.4107
    X: D(   46) --> V(    3) amplitude = -0.4521

 Excited state  23: excitation energy (eV) =    7.4156
 Total energy for state 23:                 -3010.24638683 au
    Multiplicity: Singlet 
    Trans. Mom.:  0.0049 X  -0.2784 Y   0.0018 Z
    Strength   :     0.0140854020
    X: D(   44) --> V(    2) amplitude =  0.5604
    X: D(   44) --> V(    4) amplitude =  0.4354
    X: D(   49) --> V(    2) amplitude = -0.3006
    X: D(   49) --> V(    4) amplitude =  0.5340

 Excited state  24: excitation energy (eV) =    7.5635
 Total energy for state 24:                 -3010.24095143 au
    Multiplicity: Singlet 
    Trans. Mom.: -0.0699 X  -0.0021 Y  -0.2279 Z
    Strength   :     0.0105302711
    X: D(   37) --> V(    1) amplitude = -0.3266
    X: D(   43) --> V(    2) amplitude = -0.2934
    X: D(   48) --> V(    2) amplitude = -0.5376
    X: D(   48) --> V(    4) amplitude =  0.5829

 Excited state  25: excitation energy (eV) =    7.6343
 Total energy for state 25:                 -3010.23835071 au
    Multiplicity: Singlet 
    Trans. Mom.: -0.8608 X  -0.0127 Y  -0.1197 Z
    Strength   :     0.1412847758
    X: D(   37) --> V(    1) amplitude =  0.5076
    X: D(   42) --> V(    3) amplitude = -0.2522
    X: D(   44) --> V(    3) amplitude =  0.6458
    X: D(   48) --> V(    2) amplitude = -0.3072
    X: D(   48) --> V(    4) amplitude =  0.2991

 Excited state  26: excitation energy (eV) =    7.8334
 Total energy for state 26:                 -3010.23103380 au
    Multiplicity: Singlet 
    Trans. Mom.:  0.0006 X  -0.0448 Y   0.0002 Z
    Strength   :     0.0003846222
    X: D(   35) --> V(    1) amplitude = -0.4089
    X: D(   38) --> V(    1) amplitude =  0.8046
    X: D(   42) --> V(    2) amplitude =  0.2753

 Excited state  27: excitation energy (eV) =    7.9079
 Total energy for state 27:                 -3010.22829559 au
    Multiplicity: Singlet 
    Trans. Mom.: -0.0400 X   0.0019 Y   0.5237 Z
    Strength   :     0.0534523702
    X: D(   37) --> V(    1) amplitude = -0.5822
    X: D(   40) --> V(    1) amplitude =  0.3378
    X: D(   43) --> V(    2) amplitude =  0.5243
    X: D(   44) --> V(    3) amplitude =  0.3593

 Excited state  28: excitation energy (eV) =    7.9963
 Total energy for state 28:                 -3010.22504675 au
    Multiplicity: Singlet 
    Trans. Mom.: -0.4068 X  -0.0058 Y  -0.0025 Z
    Strength   :     0.0324225566
    X: D(   37) --> V(    1) amplitude = -0.3190
    X: D(   40) --> V(    1) amplitude =  0.3255
    X: D(   43) --> V(    2) amplitude = -0.7190
    X: D(   44) --> V(    3) amplitude =  0.3519

 Excited state  29: excitation energy (eV) =    8.2029
 Total energy for state 29:                 -3010.21745317 au
    Multiplicity: Singlet 
    Trans. Mom.:  0.0011 X  -0.0838 Y   0.0001 Z
    Strength   :     0.0014123802
    X: D(   43) --> V(    3) amplitude =  0.5687
    X: D(   44) --> V(    2) amplitude = -0.4163
    X: D(   44) --> V(    4) amplitude =  0.5823

 Excited state  30: excitation energy (eV) =    8.4023
 Total energy for state 30:                 -3010.21012794 au
    Multiplicity: Singlet 
    Trans. Mom.:  0.0003 X  -0.0203 Y  -0.0001 Z
    Strength   :     0.0000844756
    X: D(   47) --> V(    2) amplitude =  0.3240
    X: D(   47) --> V(    4) amplitude =  0.8625

 Excited state  31: excitation energy (eV) =    8.4510
 Total energy for state 31:                 -3010.20833806 au
    Multiplicity: Singlet 
    Trans. Mom.: -0.0104 X   0.7073 Y  -0.0031 Z
    Strength   :     0.1036110052
    X: D(   43) --> V(    3) amplitude =  0.7066
    X: D(   44) --> V(    4) amplitude = -0.4747
    X: D(   46) --> V(    4) amplitude =  0.2405
    X: D(   49) --> V(    5) amplitude =  0.2167

 Excited state  32: excitation energy (eV) =    8.5440
 Total energy for state 32:                 -3010.20492036 au
    Multiplicity: Singlet 
    Trans. Mom.: -0.1613 X  -0.0025 Y   0.1172 Z
    Strength   :     0.0083219965
    X: D(   37) --> V(    1) amplitude =  0.2959
    X: D(   42) --> V(    3) amplitude =  0.8179
    X: D(   45) --> V(    4) amplitude = -0.3521

 Excited state  33: excitation energy (eV) =    8.5920
 Total energy for state 33:                 -3010.20315374 au
    Multiplicity: Singlet 
    Trans. Mom.:  0.0044 X   0.0000 Y   0.0339 Z
    Strength   :     0.0002461471
    X: D(   42) --> V(    3) amplitude =  0.3970
    X: D(   45) --> V(    2) amplitude =  0.2905
    X: D(   45) --> V(    4) amplitude =  0.7946

 Excited state  34: excitation energy (eV) =    8.6455
 Total energy for state 34:                 -3010.20118962 au
    Multiplicity: Singlet 
    Trans. Mom.: -0.0029 X   0.1625 Y  -0.0008 Z
    Strength   :     0.0055925449
    X: D(   35) --> V(    1) amplitude =  0.3987
    X: D(   42) --> V(    2) amplitude =  0.7355
    X: D(   46) --> V(    4) amplitude =  0.3673

 Excited state  35: excitation energy (eV) =    8.6558
 Total energy for state 35:                 -3010.20080984 au
    Multiplicity: Singlet 
    Trans. Mom.: -0.0005 X   0.0451 Y  -0.0002 Z
    Strength   :     0.0004309575
    X: D(   35) --> V(    1) amplitude = -0.2435
    X: D(   42) --> V(    2) amplitude = -0.2710
    X: D(   44) --> V(    4) amplitude =  0.3082
    X: D(   46) --> V(    4) amplitude =  0.7695

 Excited state  36: excitation energy (eV) =    8.7431
 Total energy for state 36:                 -3010.19760370 au
    Multiplicity: Singlet 
    Trans. Mom.:  0.0093 X  -0.6702 Y   0.0026 Z
    Strength   :     0.0962279655
    X: D(   42) --> V(    2) amplitude =  0.2292
    X: D(   43) --> V(    3) amplitude = -0.2156
    X: D(   49) --> V(    5) amplitude =  0.8490

 Excited state  37: excitation energy (eV) =    8.7794
 Total energy for state 37:                 -3010.19626885 au
    Multiplicity: Singlet 
    Trans. Mom.:  0.0063 X  -0.4280 Y   0.0021 Z
    Strength   :     0.0394051901
    X: D(   35) --> V(    1) amplitude =  0.6102
    X: D(   38) --> V(    1) amplitude =  0.3869
    X: D(   38) --> V(    2) amplitude = -0.3150
    X: D(   41) --> V(    3) amplitude = -0.2186
    X: D(   42) --> V(    2) amplitude = -0.3348
    X: D(   49) --> V(    5) amplitude =  0.2517

 Excited state  38: excitation energy (eV) =    8.8612
 Total energy for state 38:                 -3010.19326223 au
    Multiplicity: Singlet 
    Trans. Mom.:  0.1257 X   0.0027 Y   0.2155 Z
    Strength   :     0.0135126061
    X: D(   34) --> V(    1) amplitude =  0.6681
    X: D(   36) --> V(    1) amplitude = -0.3040
    X: D(   40) --> V(    2) amplitude = -0.2278
    X: D(   41) --> V(    2) amplitude = -0.5414

 Excited state  39: excitation energy (eV) =    8.9948
 Total energy for state 39:                 -3010.18835198 au
    Multiplicity: Singlet 
    Trans. Mom.:  0.4401 X   0.0060 Y  -0.0236 Z
    Strength   :     0.0428059405
    X: D(   48) --> V(    5) amplitude =  0.8846
    X: D(   48) --> V(    7) amplitude =  0.2226
    X: D(   48) --> V(    9) amplitude =  0.3159

 Excited state  40: excitation energy (eV) =    9.1700
 Total energy for state 40:                 -3010.18191253 au
    Multiplicity: Singlet 
    Trans. Mom.: -0.0012 X   0.1058 Y  -0.0002 Z
    Strength   :     0.0025160427
    X: D(   35) --> V(    1) amplitude =  0.2900
    X: D(   41) --> V(    3) amplitude =  0.8512

 Excited state  41: excitation energy (eV) =    9.2840
 Total energy for state 41:                 -3010.17772449 au
    Multiplicity: Singlet 
    Trans. Mom.:  0.0863 X  -0.0036 Y   0.2051 Z
    Strength   :     0.0112694800
    X: D(   34) --> V(    1) amplitude =  0.2246
    X: D(   36) --> V(    1) amplitude =  0.7919
    X: D(   43) --> V(    4) amplitude =  0.3390

 Excited state  42: excitation energy (eV) =    9.2871
 Total energy for state 42:                 -3010.17761249 au
    Multiplicity: Singlet 
    Trans. Mom.:  0.0019 X  -0.2463 Y  -0.0038 Z
    Strength   :     0.0138106337
    X: D(   41) --> V(    3) amplitude = -0.2582
    X: D(   47) --> V(    5) amplitude =  0.6057
    X: D(   47) --> V(    7) amplitude = -0.3623
    X: D(   47) --> V(    8) amplitude =  0.2778
    X: D(   47) --> V(   11) amplitude = -0.2863
    X: D(   47) --> V(   12) amplitude =  0.3280

 Excited state  43: excitation energy (eV) =    9.3546
 Total energy for state 43:                 -3010.17512850 au
    Multiplicity: Singlet 
    Trans. Mom.:  0.0013 X  -0.0962 Y   0.0003 Z
    Strength   :     0.0021200171
    X: D(   46) --> V(    5) amplitude =  0.6006
    X: D(   46) --> V(    7) amplitude = -0.3498
    X: D(   46) --> V(   11) amplitude = -0.2837
    X: D(   46) --> V(   12) amplitude =  0.3215
    X: D(   49) --> V(    7) amplitude =  0.2378

 Excited state  44: excitation energy (eV) =    9.4611
 Total energy for state 44:                 -3010.17121579 au
    Multiplicity: Singlet 
    Trans. Mom.: -0.0328 X  -0.0024 Y  -0.4455 Z
    Strength   :     0.0462458718
    X: D(   34) --> V(    1) amplitude =  0.4958
    X: D(   41) --> V(    2) amplitude =  0.5109
    X: D(   43) --> V(    4) amplitude = -0.4409

 Excited state  45: excitation energy (eV) =    9.5135
 Total energy for state 45:                 -3010.16928921 au
    Multiplicity: Singlet 
    Trans. Mom.: -0.0010 X   0.0818 Y  -0.0002 Z
    Strength   :     0.0015600673
    X: D(   44) --> V(    8) amplitude =  0.2415
    X: D(   49) --> V(    7) amplitude =  0.6112
    X: D(   49) --> V(    8) amplitude =  0.6205
    X: D(   49) --> V(    9) amplitude = -0.2478

 Excited state  46: excitation energy (eV) =    9.5264
 Total energy for state 46:                 -3010.16881527 au
    Multiplicity: Singlet 
    Trans. Mom.: -0.3216 X  -0.0031 Y   0.1926 Z
    Strength   :     0.0328013233
    X: D(   34) --> V(    1) amplitude =  0.3445
    X: D(   41) --> V(    2) amplitude =  0.4138
    X: D(   43) --> V(    4) amplitude =  0.6333
    X: D(   49) --> V(    6) amplitude = -0.2171

 Excited state  47: excitation energy (eV) =    9.5539
 Total energy for state 47:                 -3010.16780627 au
    Multiplicity: Singlet 
    Trans. Mom.: -0.0018 X   0.2004 Y  -0.0016 Z
    Strength   :     0.0094034634
    X: D(   44) --> V(    5) amplitude =  0.6510
    X: D(   49) --> V(    9) amplitude = -0.5604

 Excited state  48: excitation energy (eV) =    9.7192
 Total energy for state 48:                 -3010.16173150 au
    Multiplicity: Singlet 
    Trans. Mom.: -0.0002 X  -0.0035 Y  -0.0002 Z
    Strength   :     0.0000029801
    X: D(   44) --> V(    8) amplitude =  0.2176
    X: D(   49) --> V(    7) amplitude = -0.5136
    X: D(   49) --> V(    8) amplitude =  0.5786
    X: D(   49) --> V(    9) amplitude =  0.4119

 Excited state  49: excitation energy (eV) =    9.7488
 Total energy for state 49:                 -3010.16064274 au
    Multiplicity: Singlet 
    Trans. Mom.: -0.5466 X  -0.0073 Y   0.1158 Z
    Strength   :     0.0745651184
    X: D(   36) --> V(    1) amplitude =  0.2912
    X: D(   45) --> V(    5) amplitude =  0.5402
    X: D(   45) --> V(    7) amplitude = -0.4289
    X: D(   45) --> V(   11) amplitude = -0.2321
    X: D(   49) --> V(    6) amplitude =  0.4746

 Excited state  50: excitation energy (eV) =    9.7975
 Total energy for state 50:                 -3010.15885553 au
    Multiplicity: Singlet 
    Trans. Mom.:  0.0004 X   0.0193 Y   0.0018 Z
    Strength   :     0.0000898850
    X: D(   39) --> V(    2) amplitude =  0.2449
    X: D(   42) --> V(    4) amplitude =  0.8912

 Excited state  51: excitation energy (eV) =    9.8074
 Total energy for state 51:                 -3010.15848877 au
    Multiplicity: Singlet 
    Trans. Mom.: -0.0516 X  -0.0020 Y  -0.4243 Z
    Strength   :     0.0439066626
    X: D(   43) --> V(    4) amplitude = -0.2836
    X: D(   45) --> V(    5) amplitude =  0.2762
    X: D(   45) --> V(    7) amplitude = -0.2300
    X: D(   48) --> V(    7) amplitude = -0.2960
    X: D(   49) --> V(    6) amplitude = -0.6883

 Excited state  52: excitation energy (eV) =    9.8347
 Total energy for state 52:                 -3010.15748642 au
    Multiplicity: Singlet 
    Trans. Mom.: -0.0017 X   0.1999 Y  -0.0010 Z
    Strength   :     0.0096278584
    X: D(   47) --> V(    5) amplitude = -0.2163
    X: D(   47) --> V(    7) amplitude =  0.4532
    X: D(   47) --> V(    8) amplitude =  0.6875
    X: D(   47) --> V(   16) amplitude = -0.2665

 Excited state  53: excitation energy (eV) =    9.9446
 Total energy for state 53:                 -3010.15344785 au
    Multiplicity: Singlet 
    Trans. Mom.:  0.0002 X  -0.0047 Y   0.0001 Z
    Strength   :     0.0000053866
    X: D(   46) --> V(    7) amplitude =  0.4507
    X: D(   46) --> V(    8) amplitude =  0.6957
    X: D(   46) --> V(   16) amplitude = -0.2793

 Excited state  54: excitation energy (eV) =    9.9492
 Total energy for state 54:                 -3010.15327799 au
    Multiplicity: Singlet 
    Trans. Mom.:  0.3314 X   0.0044 Y  -0.1064 Z
    Strength   :     0.0295276961
    X: D(   33) --> V(    1) amplitude =  0.2496
    X: D(   41) --> V(    4) amplitude =  0.2748
    X: D(   48) --> V(    7) amplitude = -0.5209
    X: D(   48) --> V(    9) amplitude =  0.5899

 Excited state  55: excitation energy (eV) =   10.0693
 Total energy for state 55:                 -3010.14886606 au
    Multiplicity: Singlet 
    Trans. Mom.: -0.5331 X  -0.0080 Y  -0.1158 Z
    Strength   :     0.0734441230
    X: D(   33) --> V(    1) amplitude =  0.5665
    X: D(   34) --> V(    2) amplitude = -0.2520
    X: D(   41) --> V(    4) amplitude =  0.4025
    X: D(   48) --> V(    9) amplitude = -0.3387

 Excited state  56: excitation energy (eV) =   10.1283
 Total energy for state 56:                 -3010.14669633 au
    Multiplicity: Singlet 
    Trans. Mom.: -0.0025 X   0.0886 Y  -0.0010 Z
    Strength   :     0.0019496608
    X: D(   48) --> V(    6) amplitude =  0.8763
    X: D(   48) --> V(   10) amplitude = -0.3673
    X: D(   48) --> V(   13) amplitude = -0.2179

 Excited state  57: excitation energy (eV) =   10.2180
 Total energy for state 57:                 -3010.14339956 au
    Multiplicity: Singlet 
    Trans. Mom.: -0.0069 X   0.4696 Y  -0.0015 Z
    Strength   :     0.0552185076
    X: D(   44) --> V(    5) amplitude = -0.4098
    X: D(   49) --> V(    9) amplitude = -0.3668
    X: D(   49) --> V(   11) amplitude =  0.6429

 Excited state  58: excitation energy (eV) =   10.2750
 Total energy for state 58:                 -3010.14130659 au
    Multiplicity: Singlet 
    Trans. Mom.: -0.6587 X  -0.0101 Y  -0.1028 Z
    Strength   :     0.1119255450
    X: D(   36) --> V(    1) amplitude =  0.2204
    X: D(   45) --> V(    7) amplitude =  0.2999
    X: D(   45) --> V(    8) amplitude =  0.7148
    X: D(   45) --> V(   12) amplitude =  0.2467
    X: D(   45) --> V(   16) amplitude = -0.2427

 Excited state  59: excitation energy (eV) =   10.3294
 Total energy for state 59:                 -3010.13930801 au
    Multiplicity: Singlet 
    Trans. Mom.: -0.0534 X  -0.0002 Y   0.1383 Z
    Strength   :     0.0055612884
    X: D(   44) --> V(    6) amplitude =  0.2618
    X: D(   49) --> V(   10) amplitude =  0.7936

 Excited state  60: excitation energy (eV) =   10.4178
 Total energy for state 60:                 -3010.13605660 au
    Multiplicity: Singlet 
    Trans. Mom.: -0.1706 X  -0.0024 Y   0.0351 Z
    Strength   :     0.0077437969
    X: D(   33) --> V(    1) amplitude = -0.3782
    X: D(   41) --> V(    4) amplitude =  0.5204
    X: D(   48) --> V(    5) amplitude =  0.2245
    X: D(   48) --> V(    7) amplitude = -0.3323
    X: D(   48) --> V(    9) amplitude = -0.3146

[...]

  Excited state 61:  10.4201 eV (singlet)
    e-/hole pair  1:  ampl =  0.7841   (61.8 %)
    e-/hole pair  2:  ampl =  0.5343   (28.7 %)
    e-/hole pair  3:  ampl =  0.2634   ( 7.0 %)
  These amplitudes account for 97.4 % of total amplitude

  Excited state 62:  10.4614 eV (singlet)
    e-/hole pair  1:  ampl =  0.9033   (81.7 %)
    e-/hole pair  2:  ampl =  0.2770   ( 7.7 %)
    e-/hole pair  3:  ampl =  0.2312   ( 5.4 %)
    e-/hole pair  4:  ampl =  0.1691   ( 2.9 %)
  These amplitudes account for 97.6 % of total amplitude

  Excited state 63:  10.5227 eV (singlet)
    e-/hole pair  1:  ampl =  0.8155   (66.7 %)
    e-/hole pair  2:  ampl =  0.4466   (20.0 %)
    e-/hole pair  3:  ampl =  0.2362   ( 5.6 %)
    e-/hole pair  4:  ampl =  0.2218   ( 4.9 %)
  These amplitudes account for 97.2 % of total amplitude

  Excited state 64:  10.5541 eV (singlet)
    e-/hole pair  1:  ampl =  0.6786   (46.3 %)
    e-/hole pair  2:  ampl =  0.4467   (20.1 %)
    e-/hole pair  3:  ampl =  0.4002   (16.1 %)
    e-/hole pair  4:  ampl =  0.3017   ( 9.1 %)
    e-/hole pair  5:  ampl =  0.1649   ( 2.7 %)
  These amplitudes account for 94.3 % of total amplitude

  Excited state 65:  10.5549 eV (singlet)
    e-/hole pair  1:  ampl =  0.7588   (57.6 %)
    e-/hole pair  2:  ampl =  0.5135   (26.4 %)
    e-/hole pair  3:  ampl =  0.2915   ( 8.5 %)
    e-/hole pair  4:  ampl =  0.1980   ( 3.9 %)
  These amplitudes account for 96.3 % of total amplitude

  Excited state 66:  10.5929 eV (singlet)
    e-/hole pair  1:  ampl =  0.9206   (86.2 %)
    e-/hole pair  2:  ampl =  0.2113   ( 4.5 %)
    e-/hole pair  3:  ampl =  0.1778   ( 3.2 %)
    e-/hole pair  4:  ampl =  0.1509   ( 2.3 %)
  These amplitudes account for 96.2 % of total amplitude

  Excited state 67:  10.6769 eV (singlet)
    e-/hole pair  1:  ampl =  0.7148   (51.1 %)
    e-/hole pair  2:  ampl =  0.5640   (31.8 %)
    e-/hole pair  3:  ampl =  0.3274   (10.7 %)
    e-/hole pair  4:  ampl =  0.1982   ( 3.9 %)
  These amplitudes account for 97.5 % of total amplitude

  Excited state 68:  10.6952 eV (singlet)
    e-/hole pair  1:  ampl =  0.6606   (43.8 %)
    e-/hole pair  2:  ampl =  0.4556   (20.8 %)
    e-/hole pair  3:  ampl =  0.3325   (11.1 %)
    e-/hole pair  4:  ampl =  0.2933   ( 8.6 %)
    e-/hole pair  5:  ampl =  0.2404   ( 5.8 %)
    e-/hole pair  6:  ampl =  0.1770   ( 3.1 %)
    e-/hole pair  7:  ampl =  0.1576   ( 2.5 %)
  These amplitudes account for 95.8 % of total amplitude

  Excited state 69:  10.7135 eV (singlet)
    e-/hole pair  1:  ampl =  0.7448   (55.7 %)
    e-/hole pair  2:  ampl =  0.3729   (14.0 %)
    e-/hole pair  3:  ampl =  0.2990   ( 9.0 %)
    e-/hole pair  4:  ampl =  0.2511   ( 6.3 %)
    e-/hole pair  5:  ampl =  0.2229   ( 5.0 %)
    e-/hole pair  6:  ampl =  0.1706   ( 2.9 %)
    e-/hole pair  7:  ampl =  0.1652   ( 2.7 %)
    e-/hole pair  8:  ampl =  0.1533   ( 2.4 %)
  These amplitudes account for 98.0 % of total amplitude

  Excited state 70:  10.7206 eV (singlet)
    e-/hole pair  1:  ampl =  0.7074   (50.2 %)
    e-/hole pair  2:  ampl =  0.6066   (36.9 %)
    e-/hole pair  3:  ampl =  0.2409   ( 5.8 %)
    e-/hole pair  4:  ampl =  0.1830   ( 3.4 %)
  These amplitudes account for 96.4 % of total amplitude

  Excited state 71:  10.7562 eV (singlet)
    e-/hole pair  1:  ampl =  0.5877   (34.8 %)
    e-/hole pair  2:  ampl =  0.5112   (26.3 %)
    e-/hole pair  3:  ampl =  0.3219   (10.4 %)
    e-/hole pair  4:  ampl =  0.2875   ( 8.3 %)
    e-/hole pair  5:  ampl =  0.2763   ( 7.7 %)
    e-/hole pair  6:  ampl =  0.2106   ( 4.5 %)
    e-/hole pair  7:  ampl =  0.2035   ( 4.2 %)
  These amplitudes account for 96.1 % of total amplitude

  Excited state 72:  10.7801 eV (singlet)
    e-/hole pair  1:  ampl =  0.6825   (46.9 %)
    e-/hole pair  2:  ampl =  0.5085   (26.0 %)
    e-/hole pair  3:  ampl =  0.3419   (11.8 %)
    e-/hole pair  4:  ampl =  0.2629   ( 7.0 %)
    e-/hole pair  5:  ampl =  0.2206   ( 4.9 %)
  These amplitudes account for 96.5 % of total amplitude

  Excited state 73:  10.7963 eV (singlet)
    e-/hole pair  1:  ampl =  0.6178   (38.5 %)
    e-/hole pair  2:  ampl =  0.5333   (28.7 %)
    e-/hole pair  3:  ampl =  0.4091   (16.9 %)
    e-/hole pair  4:  ampl =  0.2781   ( 7.8 %)
  These amplitudes account for 91.8 % of total amplitude

  Excited state 74:  10.8021 eV (singlet)
    e-/hole pair  1:  ampl =  0.6523   (42.6 %)
    e-/hole pair  2:  ampl =  0.4735   (22.4 %)
    e-/hole pair  3:  ampl =  0.4539   (20.6 %)
    e-/hole pair  4:  ampl =  0.2261   ( 5.1 %)
    e-/hole pair  5:  ampl =  0.1940   ( 3.8 %)
    e-/hole pair  6:  ampl =  0.1518   ( 2.3 %)
  These amplitudes account for 96.8 % of total amplitude

  Excited state 75:  10.8530 eV (singlet)
    e-/hole pair  1:  ampl =  0.7276   (53.1 %)
    e-/hole pair  2:  ampl =  0.5222   (27.3 %)
    e-/hole pair  3:  ampl =  0.2585   ( 6.7 %)
    e-/hole pair  4:  ampl =  0.2305   ( 5.3 %)
    e-/hole pair  5:  ampl =  0.1570   ( 2.5 %)
  These amplitudes account for 94.9 % of total amplitude

  Excited state 76:  10.8618 eV (singlet)
    e-/hole pair  1:  ampl =  0.7789   (61.0 %)
    e-/hole pair  2:  ampl =  0.4398   (19.4 %)
    e-/hole pair  3:  ampl =  0.3045   ( 9.3 %)
    e-/hole pair  4:  ampl =  0.2117   ( 4.5 %)
  These amplitudes account for 94.3 % of total amplitude

  Excited state 77:  10.9237 eV (singlet)
    e-/hole pair  1:  ampl =  0.9278   (86.1 %)
    e-/hole pair  2:  ampl =  0.2186   ( 4.8 %)
    e-/hole pair  3:  ampl =  0.1866   ( 3.5 %)
  These amplitudes account for 94.4 % of total amplitude

  Excited state 78:  10.9400 eV (singlet)
    e-/hole pair  1:  ampl =  0.8200   (67.5 %)
    e-/hole pair  2:  ampl =  0.4316   (18.7 %)
    e-/hole pair  3:  ampl =  0.2616   ( 6.9 %)
    e-/hole pair  4:  ampl =  0.1995   ( 4.0 %)
  These amplitudes account for 97.1 % of total amplitude

  Excited state 79:  10.9798 eV (singlet)
    e-/hole pair  1:  ampl =  0.7097   (50.4 %)
    e-/hole pair  2:  ampl =  0.4607   (21.2 %)
    e-/hole pair  3:  ampl =  0.3936   (15.5 %)
    e-/hole pair  4:  ampl =  0.3093   ( 9.6 %)
  These amplitudes account for 96.8 % of total amplitude

  Excited state 80:  10.9870 eV (singlet)
    e-/hole pair  1:  ampl =  0.6196   (38.5 %)
    e-/hole pair  2:  ampl =  0.4964   (24.7 %)
    e-/hole pair  3:  ampl =  0.4752   (22.6 %)
    e-/hole pair  4:  ampl =  0.3236   (10.5 %)
  These amplitudes account for 96.4 % of total amplitude

  Excited state 81:  11.0256 eV (singlet)
    e-/hole pair  1:  ampl =  0.6956   (48.7 %)
    e-/hole pair  2:  ampl =  0.5680   (32.5 %)
    e-/hole pair  3:  ampl =  0.2609   ( 6.9 %)
    e-/hole pair  4:  ampl =  0.2012   ( 4.1 %)
    e-/hole pair  5:  ampl =  0.1741   ( 3.1 %)
  These amplitudes account for 95.2 % of total amplitude

  Excited state 82:  11.1338 eV (singlet)
    e-/hole pair  1:  ampl =  0.8609   (74.3 %)
    e-/hole pair  2:  ampl =  0.2836   ( 8.1 %)
    e-/hole pair  3:  ampl =  0.2548   ( 6.5 %)
    e-/hole pair  4:  ampl =  0.1858   ( 3.5 %)
    e-/hole pair  5:  ampl =  0.1641   ( 2.7 %)
  These amplitudes account for 95.0 % of total amplitude

  Excited state 83:  11.1486 eV (singlet)
    e-/hole pair  1:  ampl =  0.8437   (71.5 %)
    e-/hole pair  2:  ampl =  0.3420   (11.7 %)
    e-/hole pair  3:  ampl =  0.2431   ( 5.9 %)
    e-/hole pair  4:  ampl =  0.2037   ( 4.2 %)
    e-/hole pair  5:  ampl =  0.1711   ( 2.9 %)
  These amplitudes account for 96.3 % of total amplitude

  Excited state 84:  11.1557 eV (singlet)
    e-/hole pair  1:  ampl =  0.6680   (44.9 %)
    e-/hole pair  2:  ampl =  0.4930   (24.5 %)
    e-/hole pair  3:  ampl =  0.3729   (14.0 %)
    e-/hole pair  4:  ampl =  0.2960   ( 8.8 %)
    e-/hole pair  5:  ampl =  0.1623   ( 2.7 %)
  These amplitudes account for 94.8 % of total amplitude

  Excited state 85:  11.1683 eV (singlet)
    e-/hole pair  1:  ampl =  0.8831   (78.1 %)
    e-/hole pair  2:  ampl =  0.3288   (10.8 %)
    e-/hole pair  3:  ampl =  0.2207   ( 4.9 %)
    e-/hole pair  4:  ampl =  0.1664   ( 2.8 %)
  These amplitudes account for 96.6 % of total amplitude

  Excited state 86:  11.1831 eV (singlet)
    e-/hole pair  1:  ampl =  0.7862   (62.1 %)
    e-/hole pair  2:  ampl =  0.3803   (14.5 %)
    e-/hole pair  3:  ampl =  0.3057   ( 9.4 %)
    e-/hole pair  4:  ampl =  0.1901   ( 3.6 %)
    e-/hole pair  5:  ampl =  0.1886   ( 3.6 %)
    e-/hole pair  6:  ampl =  0.1570   ( 2.5 %)
  These amplitudes account for 95.7 % of total amplitude

  Excited state 87:  11.2149 eV (singlet)
    e-/hole pair  1:  ampl =  0.9108   (83.1 %)
    e-/hole pair  2:  ampl =  0.2849   ( 8.1 %)
    e-/hole pair  3:  ampl =  0.2230   ( 5.0 %)
  These amplitudes account for 96.2 % of total amplitude

  Excited state 88:  11.2295 eV (singlet)
    e-/hole pair  1:  ampl =  0.6264   (39.4 %)
    e-/hole pair  2:  ampl =  0.5423   (29.6 %)
    e-/hole pair  3:  ampl =  0.3880   (15.1 %)
    e-/hole pair  4:  ampl =  0.2854   ( 8.2 %)
    e-/hole pair  5:  ampl =  0.1947   ( 3.8 %)
    e-/hole pair  6:  ampl =  0.1507   ( 2.3 %)
  These amplitudes account for 98.4 % of total amplitude

  Excited state 89:  11.2657 eV (singlet)
    e-/hole pair  1:  ampl =  0.6483   (42.3 %)
    e-/hole pair  2:  ampl =  0.4805   (23.2 %)
    e-/hole pair  3:  ampl =  0.3486   (12.2 %)
    e-/hole pair  4:  ampl =  0.3213   (10.4 %)
    e-/hole pair  5:  ampl =  0.2357   ( 5.6 %)
    e-/hole pair  6:  ampl =  0.2004   ( 4.0 %)
  These amplitudes account for 97.8 % of total amplitude

  Excited state 90:  11.3246 eV (singlet)
    e-/hole pair  1:  ampl =  0.6759   (45.9 %)
    e-/hole pair  2:  ampl =  0.3958   (15.7 %)
    e-/hole pair  3:  ampl =  0.3227   (10.5 %)
    e-/hole pair  4:  ampl =  0.2977   ( 8.9 %)
    e-/hole pair  5:  ampl =  0.2953   ( 8.8 %)
    e-/hole pair  6:  ampl =  0.1856   ( 3.5 %)
    e-/hole pair  7:  ampl =  0.1542   ( 2.4 %)
  These amplitudes account for 95.6 % of total amplitude

  Excited state 91:  11.3336 eV (singlet)
    e-/hole pair  1:  ampl =  0.6276   (39.4 %)
    e-/hole pair  2:  ampl =  0.5075   (25.8 %)
    e-/hole pair  3:  ampl =  0.4127   (17.1 %)
    e-/hole pair  4:  ampl =  0.2207   ( 4.9 %)
    e-/hole pair  5:  ampl =  0.2163   ( 4.7 %)
    e-/hole pair  6:  ampl =  0.2118   ( 4.5 %)
  These amplitudes account for 96.3 % of total amplitude

  Excited state 92:  11.3477 eV (singlet)
    e-/hole pair  1:  ampl =  0.8556   (73.4 %)
    e-/hole pair  2:  ampl =  0.3893   (15.2 %)
    e-/hole pair  3:  ampl =  0.2760   ( 7.6 %)
  These amplitudes account for 96.2 % of total amplitude

  Excited state 93:  11.4244 eV (singlet)
    e-/hole pair  1:  ampl =  0.5680   (32.3 %)
    e-/hole pair  2:  ampl =  0.5148   (26.5 %)
    e-/hole pair  3:  ampl =  0.3913   (15.3 %)
    e-/hole pair  4:  ampl =  0.2952   ( 8.7 %)
    e-/hole pair  5:  ampl =  0.2555   ( 6.5 %)
    e-/hole pair  6:  ampl =  0.1731   ( 3.0 %)
    e-/hole pair  7:  ampl =  0.1637   ( 2.7 %)
  These amplitudes account for 95.1 % of total amplitude

  Excited state 94:  11.4453 eV (singlet)
    e-/hole pair  1:  ampl =  0.6937   (48.3 %)
    e-/hole pair  2:  ampl =  0.3927   (15.5 %)
    e-/hole pair  3:  ampl =  0.3011   ( 9.1 %)
    e-/hole pair  4:  ampl =  0.2621   ( 6.9 %)
    e-/hole pair  5:  ampl =  0.2286   ( 5.2 %)
    e-/hole pair  6:  ampl =  0.2155   ( 4.7 %)
    e-/hole pair  7:  ampl =  0.2101   ( 4.4 %)
    e-/hole pair  8:  ampl =  0.1581   ( 2.5 %)
  These amplitudes account for 96.7 % of total amplitude

  Excited state 95:  11.4855 eV (singlet)
    e-/hole pair  1:  ampl =  0.6377   (40.6 %)
    e-/hole pair  2:  ampl =  0.6080   (36.9 %)
    e-/hole pair  3:  ampl =  0.4176   (17.4 %)
    e-/hole pair  4:  ampl =  0.1526   ( 2.3 %)
  These amplitudes account for 97.2 % of total amplitude

  Excited state 96:  11.5111 eV (singlet)
    e-/hole pair  1:  ampl =  0.7699   (59.6 %)
    e-/hole pair  2:  ampl =  0.4579   (21.1 %)
    e-/hole pair  3:  ampl =  0.2604   ( 6.8 %)
    e-/hole pair  4:  ampl =  0.2217   ( 4.9 %)
    e-/hole pair  5:  ampl =  0.1896   ( 3.6 %)
  These amplitudes account for 96.0 % of total amplitude

  Excited state 97:  11.5176 eV (singlet)
    e-/hole pair  1:  ampl =  0.6924   (48.0 %)
    e-/hole pair  2:  ampl =  0.6066   (36.8 %)
    e-/hole pair  3:  ampl =  0.3325   (11.1 %)
  These amplitudes account for 95.9 % of total amplitude

  Excited state 98:  11.5427 eV (singlet)
    e-/hole pair  1:  ampl =  0.5203   (27.2 %)
    e-/hole pair  2:  ampl =  0.4690   (22.1 %)
    e-/hole pair  3:  ampl =  0.3957   (15.7 %)
    e-/hole pair  4:  ampl =  0.3763   (14.2 %)
    e-/hole pair  5:  ampl =  0.2616   ( 6.9 %)
    e-/hole pair  6:  ampl =  0.2556   ( 6.6 %)
    e-/hole pair  7:  ampl =  0.2167   ( 4.7 %)
  These amplitudes account for 97.5 % of total amplitude

  Excited state 99:  11.5866 eV (singlet)
    e-/hole pair  1:  ampl =  0.6626   (43.9 %)
    e-/hole pair  2:  ampl =  0.5295   (28.1 %)
    e-/hole pair  3:  ampl =  0.3372   (11.4 %)
    e-/hole pair  4:  ampl =  0.3247   (10.5 %)
    e-/hole pair  5:  ampl =  0.1691   ( 2.9 %)
  These amplitudes account for 96.8 % of total amplitude

  Excited state 100:  11.5921 eV (singlet)
    e-/hole pair  1:  ampl =  0.5943   (35.5 %)
    e-/hole pair  2:  ampl =  0.3640   (13.3 %)
    e-/hole pair  3:  ampl =  0.3317   (11.1 %)
    e-/hole pair  4:  ampl =  0.3195   (10.3 %)
    e-/hole pair  5:  ampl =  0.3077   ( 9.5 %)
    e-/hole pair  6:  ampl =  0.2368   ( 5.6 %)
    e-/hole pair  7:  ampl =  0.2215   ( 4.9 %)
    e-/hole pair  8:  ampl =  0.2074   ( 4.3 %)
  These amplitudes account for 94.6 % of total amplitude

 =======================================================
 
 --------------------------------------------------------------
 
                    Orbital Energies (a.u.)
 --------------------------------------------------------------
 
 Alpha MOs
 -- Occupied --
******** -62.8594 -56.6565 -56.6507 -56.6507 -19.4719 -19.4719 -14.8610
-10.6073 -10.5750 -10.5617 -10.5617 -10.5258 -10.5258  -9.0167  -6.8435
 -6.8248  -6.8246  -2.9425  -2.9377  -2.9374  -2.9224  -2.9224  -1.4916
 -1.3281  -1.2234  -1.1437  -1.1026  -1.0618  -0.9957  -0.9476  -0.9105
 -0.8526  -0.8059  -0.8049  -0.7989  -0.7658  -0.7655  -0.7537  -0.7352
 -0.6848  -0.6658  -0.6342  -0.5960  -0.5773  -0.5694  -0.5657  -0.5607
 -0.5478
 -- Virtual --
 -0.3037  -0.1938  -0.1664  -0.1357  -0.0840  -0.0560  -0.0539  -0.0500
 -0.0414  -0.0274  -0.0258  -0.0172  -0.0062  -0.0042   0.0074   0.0120
  0.0264   0.0294   0.0298   0.0312   0.0392   0.0432   0.0502   0.0606
  0.0718   0.0734   0.0810   0.0881   0.0926   0.0976   0.1009   0.1130
  0.1157   0.1173   0.1220   0.1246   0.1339   0.1381   0.1428   0.1577
  0.1598   0.1724   0.1846   0.1906   0.1922   0.1996   0.1997   0.2117
  0.2198   0.2505   0.2554   0.2724   0.2802   0.2939   0.3250   0.3294
  0.3335   0.3445   0.3500   0.3643   0.3732   0.3847   0.3973   0.3992
  0.4099   0.4301   0.4464   0.4500   0.4580   0.4664   0.4772   0.4815
  0.4956   0.5013   0.5453   0.5503   0.5638   0.5692   0.5753   0.5915
  0.6146   0.6241   0.6313   0.6602   0.6980   0.7073   0.7113   0.7202
  0.7236   0.7482   0.7564   0.7925   0.8050   0.8145   0.8558   0.8579
  0.8660   0.9092   0.9294   0.9863   0.9889   1.0280   1.0283   1.0581
  1.0756   1.0989   1.1011   1.1222   1.1293   1.1301   1.2055   1.2089
  1.2923   1.3512   1.3534   1.3780   1.3898   1.4476   1.5532   1.5829
  1.5871   1.5973   1.6205   1.6245   1.6750   1.6881   1.7247   1.7393
  1.7461   1.7791   1.8060   1.8587   1.8776   1.9505   1.9577   1.9799
  2.0232   2.0267   2.0704   2.0806   2.1453   2.1577   2.1973   2.2069
  2.3059   2.3619   2.4091   2.4243   2.4416   2.5233   2.5504   2.6394
  2.6557   2.7034   2.7392   2.7431   2.7760   2.7795   2.7928   2.8215
  2.9416   2.9638   2.9687   3.0412   3.0994   3.1032   3.1824   3.2093
  3.2259   3.2378   3.2819   3.3361   3.4847   3.4925   3.5231   3.5497
  3.6701   3.7186   3.8312   3.8832   3.9631   3.9642   4.0406   4.0893
  4.2880   4.4175   4.5614   4.5666   4.9169   4.9453   5.0368   5.0645
  5.5865   6.0995   6.6557   7.4888   7.5027   7.6038  23.2273  23.6205
 23.6997  23.8220  23.9838  24.0344  35.2856  47.9205  49.8426  49.9149
289.8179 289.8332 289.96271020.9259
 --------------------------------------------------------------
 
          Ground-State Mulliken Net Atomic Charges

     Atom                 Charge (a.u.)
  ----------------------------------------
      1 C                    -0.258972
      2 C                     0.053455
      3 C                    -0.339036
      4 H                     0.348982
      5 H                     0.351197
      6 N                    -0.114705
      7 O                     0.057521
      8 O                     0.057522
      9 C                    -0.258767
     10 H                     0.348926
     11 C                     0.053045
     12 H                     0.351195
     13 C                    -0.179880
     14 H                     0.394867
     15 Br                    0.134649
  ----------------------------------------
  Sum of atomic charges =     1.000000

 -----------------------------------------------------------------
                    Cartesian Multipole Moments
 -----------------------------------------------------------------
    Charge (ESU x 10^10)
                 4.8032
    Dipole Moment (Debye)
         X      -4.9614      Y      -0.1099      Z      -0.2653
       Tot       4.9697
    Quadrupole Moments (Debye-Ang)
        XX     -61.3862     XY      -0.0479     YY     -54.9518
        XZ       2.2361     YZ       0.0043     ZZ     -62.6164
    Octopole Moments (Debye-Ang^2)
       XXX     -63.6410    XXY      -0.0429    XYY     -10.9374
       YYY       1.1755    XXZ      22.4987    XYZ      -0.1714
       YYZ      32.7657    XZZ     -13.9067    YZZ       0.3402
       ZZZ      79.6305
    Hexadecapole Moments (Debye-Ang^3)
      XXXX   -1897.5706   XXXY     -11.5843   XXYY    -371.0122
      XYYY     -12.0498   YYYY    -322.8901   XXXZ    -196.0456
      XXYZ      -0.4872   XYYZ     -78.5075   YYYZ      -4.4965
      XXZZ    -314.0794   XYZZ      -2.4739   YYZZ    -141.5888
      XZZZ    -180.4814   YZZZ      -2.9536   ZZZZ    -371.4842
 -----------------------------------------------------------------
Grid information in Angstroms:
 x:         75  min =  -5.411486 max =   6.280132
 y:         75  min =  -5.212029 max =   5.158031
 z:         75  min =  -4.823596 max =   3.701439
 Plotting NTOs for the following states:  1 2 3 4 5 6 7 8 9 10 11 12 13 14 15 16 17 18 19 20 21 22 23 24 25 26 27 28 29 30 31 32 33 34 35 36 37 38 39 40 41 42 43 44 45 46 47 48 49 50 51 52 53 54 55 56 57 58 59 60 61 62 63 64 65 66 67 68 69 70 71 72 73 74 75 76 77 78 79 80 81 82 83 84 85 86 87 88 89 90 91 92 93 94 95 96 97 98 99 100
 Created directory /local_scratch/16629273/QCLOCALSCR/save/plots
 Plotting total densities:  0 1 2 3 4 5 6 7 8 9 10 11 12 13 14 15 16 17 18 19 20 21 22 23 24 25 26 27 28 29 30 31 32 33 34 35 36 37 38 39 40 41 42 43 44 45 46 47 48 49 50 51 52 53 54 55 56 57 58 59 60 61 62 63 64 65 66 67 68 69 70 71 72 73 74 75 76 77 78 79 80 81 82 83 84 85 86 87 88 89 90 91 92 93 94 95 96 97 98 99 100
 Plotting transition densities:  1 2 3 4 5 6 7 8 9 10 11 12 13 14 15 16 17 18 19 20 21 22 23 24 25 26 27 28 29 30 31 32 33 34 35 36 37 38 39 40 41 42 43 44 45 46 47 48 49 50 51 52 53 54 55 56 57 58 59 60 61 62 63 64 65 66 67 68 69 70 71 72 73 74 75 76 77 78 79 80 81 82 83 84 85 86 87 88 89 90 91 92 93 94 95 96 97 98 99 100
 Total job time:  1437.77s(wall), 14042.30s(cpu) 
 Thu May 18 12:53:42 2023

        *************************************************************
        *                                                           *
        *  Thank you very much for using Q-Chem.  Have a nice day.  *
        *                                                           *
        *************************************************************


