 Entering Gaussian System, Link 0=g16
 Initial command:
 /software/gaussian/g16-c01/sse4/g16/l1.exe "/local_scratch/24657445/Gau-26285.inp" -scrdir="/local_scratch/24657445/"
 Entering Link 1 = /software/gaussian/g16-c01/sse4/g16/l1.exe PID=     26288.
  
 Copyright (c) 1988-2019, Gaussian, Inc.  All Rights Reserved.
  
 This is part of the Gaussian(R) 16 program.  It is based on
 the Gaussian(R) 09 system (copyright 2009, Gaussian, Inc.),
 the Gaussian(R) 03 system (copyright 2003, Gaussian, Inc.),
 the Gaussian(R) 98 system (copyright 1998, Gaussian, Inc.),
 the Gaussian(R) 94 system (copyright 1995, Gaussian, Inc.),
 the Gaussian 92(TM) system (copyright 1992, Gaussian, Inc.),
 the Gaussian 90(TM) system (copyright 1990, Gaussian, Inc.),
 the Gaussian 88(TM) system (copyright 1988, Gaussian, Inc.),
 the Gaussian 86(TM) system (copyright 1986, Carnegie Mellon
 University), and the Gaussian 82(TM) system (copyright 1983,
 Carnegie Mellon University). Gaussian is a federally registered
 trademark of Gaussian, Inc.
  
 This software contains proprietary and confidential information,
 including trade secrets, belonging to Gaussian, Inc.
  
 This software is provided under written license and may be
 used, copied, transmitted, or stored only in accord with that
 written license.
  
 The following legend is applicable only to US Government
 contracts under FAR:
  
                    RESTRICTED RIGHTS LEGEND
  
 Use, reproduction and disclosure by the US Government is
 subject to restrictions as set forth in subparagraphs (a)
 and (c) of the Commercial Computer Software - Restricted
 Rights clause in FAR 52.227-19.
  
 Gaussian, Inc.
 340 Quinnipiac St., Bldg. 40, Wallingford CT 06492
  
  
 ---------------------------------------------------------------
 Warning -- This program may not be used in any manner that
 competes with the business of Gaussian, Inc. or will provide
 assistance to any competitor of Gaussian, Inc.  The licensee
 of this program is prohibited from giving any competitor of
 Gaussian, Inc. access to this program.  By using this program,
 the user acknowledges that Gaussian, Inc. is engaged in the
 business of creating and licensing software in the field of
 computational chemistry and represents and warrants to the
 licensee that it is not a competitor of Gaussian, Inc. and that
 it will not use this program in any manner prohibited above.
 ---------------------------------------------------------------
  

 Cite this work as:
 Gaussian 16, Revision C.01,
 M. J. Frisch, G. W. Trucks, H. B. Schlegel, G. E. Scuseria, 
 M. A. Robb, J. R. Cheeseman, G. Scalmani, V. Barone, 
 G. A. Petersson, H. Nakatsuji, X. Li, M. Caricato, A. V. Marenich, 
 J. Bloino, B. G. Janesko, R. Gomperts, B. Mennucci, H. P. Hratchian, 
 J. V. Ortiz, A. F. Izmaylov, J. L. Sonnenberg, D. Williams-Young, 
 F. Ding, F. Lipparini, F. Egidi, J. Goings, B. Peng, A. Petrone, 
 T. Henderson, D. Ranasinghe, V. G. Zakrzewski, J. Gao, N. Rega, 
 G. Zheng, W. Liang, M. Hada, M. Ehara, K. Toyota, R. Fukuda, 
 J. Hasegawa, M. Ishida, T. Nakajima, Y. Honda, O. Kitao, H. Nakai, 
 T. Vreven, K. Throssell, J. A. Montgomery, Jr., J. E. Peralta, 
 F. Ogliaro, M. J. Bearpark, J. J. Heyd, E. N. Brothers, K. N. Kudin, 
 V. N. Staroverov, T. A. Keith, R. Kobayashi, J. Normand, 
 K. Raghavachari, A. P. Rendell, J. C. Burant, S. S. Iyengar, 
 J. Tomasi, M. Cossi, J. M. Millam, M. Klene, C. Adamo, R. Cammi, 
 J. W. Ochterski, R. L. Martin, K. Morokuma, O. Farkas, 
 J. B. Foresman, and D. J. Fox, Gaussian, Inc., Wallingford CT, 2019.
 
 ******************************************
 Gaussian 16:  ES64L-G16RevC.01  3-Jul-2019
                 1-May-2024 
 ******************************************
 %chk=geometry.chk
 %mem=9GB
 %nprocshared=12
 Will use up to   12 processors via shared memory.
 ---------------------------------------
 #P wB97XD/6-311+G* NoSymm #P Field=X+38
 ---------------------------------------
 1/38=1,172=1/1;
 2/12=2,15=1,17=6,18=5,40=1/2;
 3/5=4,6=6,7=11,11=2,14=1,15=38,25=1,30=1,74=-58/1,2,3;
 4//1;
 5/5=2,38=5/2;
 6/7=2,8=2,9=2,10=2,28=1/1;
 99/5=1,9=1/99;
 Leave Link    1 at Wed May  1 14:27:44 2024, MaxMem=  1207959552 cpu:               1.5 elap:               1.5
 (Enter /software/gaussian/g16-c01/sse4/g16/l101.exe)
 -------
 TitleMe
 -------
 Symbolic Z-matrix:
 Charge =  1 Multiplicity = 1
 C                     0.0295    1.3397    0.0682 
 C                     1.4348    1.2867    0.0064 
 C                     2.1118    0.0511   -0.0054 
 C                     1.4451   -1.1372    0.0312 
 C                    -0.6879    0.1682    0.11 
 H                    -0.4713    2.2984    0.0781 
 H                     2.0273    2.1965   -0.0322 
 H                     1.9897   -2.0764    0.0232 
 H                    -1.7716    0.1804    0.1582 
 N                     3.5864    0.051    -0.0675 
 O                     4.1471   -1.0597   -0.0881 
 O                     4.145     1.1639   -0.0901 
 C                    -0.0236   -1.1458    0.0835 
 H                    -0.4367   -1.8725    0.7889 
 Br                   -0.5359   -1.8697   -1.7408 
 
 ITRead=  0  0  0  0  0  0  0  0  0  0  0  0  0  0  0
 MicOpt= -1 -1 -1 -1 -1 -1 -1 -1 -1 -1 -1 -1 -1 -1 -1
 NAtoms=     15 NQM=       15 NQMF=       0 NMMI=      0 NMMIF=      0
                NMic=       0 NMicF=      0.
                    Isotopes and Nuclear Properties:
 (Nuclear quadrupole moments (NQMom) in fm**2, nuclear magnetic moments (NMagM)
  in nuclear magnetons)

  Atom         1           2           3           4           5           6           7           8           9          10
 IAtWgt=          12          12          12          12          12           1           1           1           1          14
 AtmWgt=  12.0000000  12.0000000  12.0000000  12.0000000  12.0000000   1.0078250   1.0078250   1.0078250   1.0078250  14.0030740
 NucSpn=           0           0           0           0           0           1           1           1           1           2
 AtZEff=  -0.0000000  -0.0000000  -0.0000000  -0.0000000  -0.0000000  -0.0000000  -0.0000000  -0.0000000  -0.0000000  -0.0000000
 NQMom=    0.0000000   0.0000000   0.0000000   0.0000000   0.0000000   0.0000000   0.0000000   0.0000000   0.0000000   2.0440000
 NMagM=    0.0000000   0.0000000   0.0000000   0.0000000   0.0000000   2.7928460   2.7928460   2.7928460   2.7928460   0.4037610
 AtZNuc=   6.0000000   6.0000000   6.0000000   6.0000000   6.0000000   1.0000000   1.0000000   1.0000000   1.0000000   7.0000000

  Atom        11          12          13          14          15
 IAtWgt=          16          16          12           1          79
 AtmWgt=  15.9949146  15.9949146  12.0000000   1.0078250  78.9183361
 NucSpn=           0           0           0           1           3
 AtZEff=  -0.0000000  -0.0000000  -0.0000000  -0.0000000  -0.0000000
 NQMom=    0.0000000   0.0000000   0.0000000   0.0000000  31.3000000
 NMagM=    0.0000000   0.0000000   0.0000000   2.7928460   2.1063990
 AtZNuc=   8.0000000   8.0000000   6.0000000   1.0000000  35.0000000
 Leave Link  101 at Wed May  1 14:27:45 2024, MaxMem=  1207959552 cpu:               1.3 elap:               1.3
 (Enter /software/gaussian/g16-c01/sse4/g16/l202.exe)
                          Input orientation:                          
 ---------------------------------------------------------------------
 Center     Atomic      Atomic             Coordinates (Angstroms)
 Number     Number       Type             X           Y           Z
 ---------------------------------------------------------------------
      1          6           0        0.029500    1.339700    0.068200
      2          6           0        1.434800    1.286700    0.006400
      3          6           0        2.111800    0.051100   -0.005400
      4          6           0        1.445100   -1.137200    0.031200
      5          6           0       -0.687900    0.168200    0.110000
      6          1           0       -0.471300    2.298400    0.078100
      7          1           0        2.027300    2.196500   -0.032200
      8          1           0        1.989700   -2.076400    0.023200
      9          1           0       -1.771600    0.180400    0.158200
     10          7           0        3.586400    0.051000   -0.067500
     11          8           0        4.147100   -1.059700   -0.088100
     12          8           0        4.145000    1.163900   -0.090100
     13          6           0       -0.023600   -1.145800    0.083500
     14          1           0       -0.436700   -1.872500    0.788900
     15         35           0       -0.535900   -1.869700   -1.740800
 ---------------------------------------------------------------------
                    Distance matrix (angstroms):
                    1          2          3          4          5
     1  C    0.000000
     2  C    1.407656   0.000000
     3  C    2.449874   1.408963   0.000000
     4  C    2.853126   2.424049   1.363043   0.000000
     5  C    1.374344   2.401589   2.804523   2.501993   0.000000
     6  H    1.081667   2.159142   3.424870   3.934226   2.141421
     7  H    2.176095   1.086408   2.147231   3.384750   3.392128
     8  H    3.938800   3.408612   2.131193   1.085702   3.495040
     9  H    2.143837   3.395283   3.888995   3.478413   1.084840
    10  N    3.785591   2.482297   1.475907   2.450862   4.279589
    11  O    4.768247   3.587631   2.320164   2.705743   4.992415
    12  O    4.122294   2.714696   2.319353   3.549540   4.938459
    13  C    2.486114   2.837240   2.449573   1.469656   1.472614
    14  H    3.324903   3.754379   3.290289   2.157764   2.165286
    15  Br   3.727252   4.110867   3.702891   2.756973   2.757100
                    6          7          8          9         10
     6  H    0.000000
     7  H    2.503108   0.000000
     8  H    5.019802   4.273425   0.000000
     9  H    2.486588   4.304945   4.388479   0.000000
    10  N    4.640790   2.652397   2.661486   5.364313   0.000000
    11  O    5.712624   3.885809   2.387560   6.052233   1.244373
    12  O    4.756638   2.356750   3.893289   6.002923   1.245428
    13  C    3.473180   3.923079   2.218790   2.195425   3.806210
    14  H    4.231175   4.827242   2.552506   2.528663   4.540772
    15  Br   4.548146   5.101303   3.087568   3.055498   4.845862
                   11         12         13         14         15
    11  O    0.000000
    12  O    2.223602   0.000000
    13  C    4.175117   4.768865   0.000000
    14  H    4.737193   5.566358   1.093770   0.000000
    15  Br   5.031700   5.817075   2.028436   2.531646   0.000000
 Symmetry turned off by external request.
 Stoichiometry    C6H5BrNO2(1+)
 Framework group  C1[X(C6H5BrNO2)]
 Deg. of freedom    39
 Full point group                 C1      NOp   1
 Rotational constants (GHZ):           1.8252210           0.5518633           0.4576002
 Leave Link  202 at Wed May  1 14:27:47 2024, MaxMem=  1207959552 cpu:               1.1 elap:               1.1
 (Enter /software/gaussian/g16-c01/sse4/g16/l301.exe)
 Standard basis: 6-311+G(d) (5D, 7F)
 Ernie: Thresh=  0.10000D-02 Tol=  0.10000D-05 Strict=F.
 The following finite field(s) will be applied:
 An electric field of              0.0038  0.0000  0.0000
   261 basis functions,   443 primitive gaussians,   273 cartesian basis functions
    49 alpha electrons       49 beta electrons
       nuclear repulsion energy       739.2122215416 Hartrees.
 IExCor= 4639 DFT=T Ex+Corr=wB97XD ExCW=0 ScaHFX=  1.000000
 ScaDFX=  1.000000  1.000000  1.000000  1.000000 ScalE2=  1.000000  1.000000
 IRadAn=      5 IRanWt=     -1 IRanGd=            0 ICorTp=0 IEmpDi=121
 HFx  wShort=  0.000000 wLong=  0.200000 cFull=  0.222036 cShort=  0.000000 cLong=  0.777964
 DFx  wShort=  0.000000 wLong=  0.200000 cFull=  0.000000 cShort=  0.000000 cLong=  1.000000
 NAtoms=   15 NActive=   15 NUniq=   15 SFac= 1.00D+00 NAtFMM=   60 NAOKFM=F Big=F
 Integral buffers will be    131072 words long.
 Raffenetti 2 integral format.
 Two-electron integral symmetry is turned off.
 R6Disp:  Grimme-D2 Dispersion energy=       -0.0077368520 Hartrees.
 Nuclear repulsion after empirical dispersion term =      739.2044846896 Hartrees.
 Leave Link  301 at Wed May  1 14:27:48 2024, MaxMem=  1207959552 cpu:               1.0 elap:               1.0
 (Enter /software/gaussian/g16-c01/sse4/g16/l302.exe)
 NPDir=0 NMtPBC=     1 NCelOv=     1 NCel=       1 NClECP=     1 NCelD=      1
         NCelK=      1 NCelE2=     1 NClLst=     1 CellRange=     0.0.
 One-electron integrals computed using PRISM.
 NBasis=   261 RedAO= T EigKep=  2.35D-06  NBF=   261
 NBsUse=   261 1.00D-06 EigRej= -1.00D+00 NBFU=   261
 Precomputing XC quadrature grid using
 IXCGrd= 4 IRadAn=           5 IRanWt=          -1 IRanGd=           0 AccXCQ= 0.00D+00.
 Generated NRdTot=       0 NPtTot=           0 NUsed=           0 NTot=          32
 NSgBfM=   273   273   273   273   273 MxSgAt=    15 MxSgA2=    15.
 Leave Link  302 at Wed May  1 14:28:09 2024, MaxMem=  1207959552 cpu:              20.9 elap:              20.9
 (Enter /software/gaussian/g16-c01/sse4/g16/l303.exe)
 DipDrv:  MaxL=1.
 The nuclear repulsion energy is now       739.9217239285 hartrees.
 Leave Link  303 at Wed May  1 14:28:12 2024, MaxMem=  1207959552 cpu:               3.2 elap:               3.2
 (Enter /software/gaussian/g16-c01/sse4/g16/l401.exe)
 ExpMin= 3.50D-02 ExpMax= 4.40D+05 ExpMxC= 1.51D+04 IAcc=3 IRadAn=         5 AccDes= 0.00D+00
 Harris functional with IExCor= 4639 and IRadAn=       5 diagonalized for initial guess.
 HarFok:  IExCor= 4639 AccDes= 0.00D+00 IRadAn=         5 IDoV= 1 UseB2=F ITyADJ=14
 ICtDFT=  3500011 ScaDFX=  1.000000  1.000000  1.000000  1.000000
 FoFCou: FMM=F IPFlag=           0 FMFlag=      100000 FMFlg1=           0
         NFxFlg=           0 DoJE=T BraDBF=F KetDBF=T FulRan=T
         wScrn=  0.000000 ICntrl=       500 IOpCl=  0 I1Cent=   200000004 NGrid=           0
         NMat0=    1 NMatS0=      1 NMatT0=    0 NMatD0=    1 NMtDS0=    0 NMtDT0=    0
 Symmetry not used in FoFCou.
 Harris En= -2970.59775013985    
 JPrj=0 DoOrth=F DoCkMO=F.
 Leave Link  401 at Wed May  1 14:28:43 2024, MaxMem=  1207959552 cpu:              30.1 elap:              30.1
 (Enter /software/gaussian/g16-c01/sse4/g16/l502.exe)
 Two-electron integral symmetry not used.
 Closed shell SCF:
 Using DIIS extrapolation, IDIIS=  1040.
 NGot=  1207959552 LenX=  1207804877 LenY=  1207729907
 Requested convergence on RMS density matrix=1.00D-08 within 128 cycles.
 Requested convergence on MAX density matrix=1.00D-06.
 Requested convergence on             energy=1.00D-06.
 No special actions if energy rises.
 Fock matrices will be formed incrementally for  20 cycles.

 Cycle   1  Pass 1  IDiag  1:
 FoFJK:  IHMeth= 1 ICntrl=       0 DoSepK=T KAlg= 0 I1Cent=           0 FoldK=F
 IRaf=         1 NMat=       1 IRICut=       1 DoRegI=T DoRafI=F ISym2E= 0 IDoP0=0 IntGTp=1.
 FoFCou: FMM=F IPFlag=           0 FMFlag=      100000 FMFlg1=           0
         NFxFlg=           0 DoJE=T BraDBF=F KetDBF=F FulRan=T
         wScrn=  0.000000 ICntrl=       500 IOpCl=  0 I1Cent=           0 NGrid=           0
         NMat0=    1 NMatS0=      1 NMatT0=    0 NMatD0=    1 NMtDS0=    0 NMtDT0=    0
 Symmetry not used in FoFCou.
 E= -3009.73328617327    
 DIIS: error= 3.20D-01 at cycle   1 NSaved=   1.
 NSaved= 1 IEnMin= 1 EnMin= -3009.73328617327     IErMin= 1 ErrMin= 3.20D-01
 ErrMax= 3.20D-01  0.00D+00 EMaxC= 1.00D-01 BMatC= 1.19D+01 BMatP= 1.19D+01
 IDIUse=3 WtCom= 0.00D+00 WtEn= 1.00D+00
 Coeff-Com:  0.100D+01
 Coeff-En:   0.100D+01
 Coeff:      0.100D+01
 Gap=     0.318 Goal=   None    Shift=    0.000
 GapD=    0.318 DampG=1.000 DampE=0.250 DampFc=0.2500 IDamp=-1.
 Damping current iteration by 2.50D-01
 RMSDP=4.15D-02 MaxDP=4.10D+00              OVMax= 2.59D-01

 Cycle   2  Pass 1  IDiag  1:
 RMSU=  4.02D-03    CP:  8.94D-01
 E= -3010.01405605750     Delta-E=       -0.280769884229 Rises=F Damp=T
 DIIS: error= 2.25D-01 at cycle   2 NSaved=   2.
 NSaved= 2 IEnMin= 2 EnMin= -3010.01405605750     IErMin= 2 ErrMin= 2.25D-01
 ErrMax= 2.25D-01  0.00D+00 EMaxC= 1.00D-01 BMatC= 5.45D+00 BMatP= 1.19D+01
 IDIUse=3 WtCom= 0.00D+00 WtEn= 1.00D+00
 Coeff-Com: -0.184D+01 0.284D+01
 Coeff-En:   0.000D+00 0.100D+01
 Coeff:      0.000D+00 0.100D+01
 Gap=     0.293 Goal=   None    Shift=    0.000
 RMSDP=3.25D-02 MaxDP=3.23D+00 DE=-2.81D-01 OVMax= 7.50D-02

 Cycle   3  Pass 1  IDiag  1:
 RMSU=  4.19D-03    CP:  5.54D-01  3.00D+00
 E= -3010.38898753263     Delta-E=       -0.374931475136 Rises=F Damp=F
 DIIS: error= 6.57D-02 at cycle   3 NSaved=   3.
 NSaved= 3 IEnMin= 3 EnMin= -3010.38898753263     IErMin= 3 ErrMin= 6.57D-02
 ErrMax= 6.57D-02  0.00D+00 EMaxC= 1.00D-01 BMatC= 7.32D-01 BMatP= 5.45D+00
 IDIUse=3 WtCom= 3.43D-01 WtEn= 6.57D-01
 Coeff-Com:  0.276D+01-0.364D+01 0.187D+01
 Coeff-En:   0.270D-01 0.000D+00 0.973D+00
 Coeff:      0.966D+00-0.125D+01 0.128D+01
 Gap=     0.260 Goal=   None    Shift=    0.000
 RMSDP=8.09D-03 MaxDP=4.43D-01 DE=-3.75D-01 OVMax= 6.36D-02

 Cycle   4  Pass 1  IDiag  1:
 RMSU=  4.56D-03    CP:  5.66D-01  2.17D+00  2.09D+00
 E= -3010.49166625467     Delta-E=       -0.102678722038 Rises=F Damp=F
 DIIS: error= 3.82D-02 at cycle   4 NSaved=   4.
 NSaved= 4 IEnMin= 4 EnMin= -3010.49166625467     IErMin= 4 ErrMin= 3.82D-02
 ErrMax= 3.82D-02  0.00D+00 EMaxC= 1.00D-01 BMatC= 2.29D-01 BMatP= 7.32D-01
 IDIUse=3 WtCom= 6.18D-01 WtEn= 3.82D-01
 Coeff-Com: -0.198D+00 0.277D+00 0.263D+00 0.658D+00
 Coeff-En:   0.000D+00 0.000D+00 0.197D+00 0.803D+00
 Coeff:     -0.122D+00 0.171D+00 0.238D+00 0.714D+00
 Gap=     0.265 Goal=   None    Shift=    0.000
 RMSDP=3.17D-03 MaxDP=2.21D-01 DE=-1.03D-01 OVMax= 2.82D-02

 Cycle   5  Pass 1  IDiag  1:
 RMSU=  1.22D-03    CP:  5.39D-01  2.55D+00  1.96D+00  9.00D-01
 E= -3010.53587989720     Delta-E=       -0.044213642525 Rises=F Damp=F
 DIIS: error= 6.76D-03 at cycle   5 NSaved=   5.
 NSaved= 5 IEnMin= 5 EnMin= -3010.53587989720     IErMin= 5 ErrMin= 6.76D-03
 ErrMax= 6.76D-03  0.00D+00 EMaxC= 1.00D-01 BMatC= 7.14D-03 BMatP= 2.29D-01
 IDIUse=3 WtCom= 9.32D-01 WtEn= 6.76D-02
 Coeff-Com: -0.136D+00 0.184D+00 0.382D-01 0.315D+00 0.599D+00
 Coeff-En:   0.000D+00 0.000D+00 0.000D+00 0.000D+00 0.100D+01
 Coeff:     -0.126D+00 0.171D+00 0.356D-01 0.293D+00 0.626D+00
 Gap=     0.254 Goal=   None    Shift=    0.000
 RMSDP=5.48D-04 MaxDP=4.15D-02 DE=-4.42D-02 OVMax= 1.03D-02

 Cycle   6  Pass 1  IDiag  1:
 RMSU=  4.11D-04    CP:  5.38D-01  2.53D+00  1.96D+00  8.94D-01  7.23D-01
 E= -3010.53730638716     Delta-E=       -0.001426489959 Rises=F Damp=F
 DIIS: error= 1.18D-03 at cycle   6 NSaved=   6.
 NSaved= 6 IEnMin= 6 EnMin= -3010.53730638716     IErMin= 6 ErrMin= 1.18D-03
 ErrMax= 1.18D-03  0.00D+00 EMaxC= 1.00D-01 BMatC= 1.51D-04 BMatP= 7.14D-03
 IDIUse=3 WtCom= 9.88D-01 WtEn= 1.18D-02
 Coeff-Com: -0.852D-01 0.114D+00-0.478D-02 0.143D+00 0.359D+00 0.474D+00
 Coeff-En:   0.000D+00 0.000D+00 0.000D+00 0.000D+00 0.000D+00 0.100D+01
 Coeff:     -0.841D-01 0.113D+00-0.472D-02 0.141D+00 0.355D+00 0.480D+00
 Gap=     0.255 Goal=   None    Shift=    0.000
 RMSDP=1.78D-04 MaxDP=1.12D-02 DE=-1.43D-03 OVMax= 5.19D-03

 Cycle   7  Pass 1  IDiag  1:
 RMSU=  9.70D-05    CP:  5.38D-01  2.52D+00  1.98D+00  9.01D-01  8.08D-01
                    CP:  8.44D-01
 E= -3010.53740995536     Delta-E=       -0.000103568202 Rises=F Damp=F
 DIIS: error= 4.94D-04 at cycle   7 NSaved=   7.
 NSaved= 7 IEnMin= 7 EnMin= -3010.53740995536     IErMin= 7 ErrMin= 4.94D-04
 ErrMax= 4.94D-04  0.00D+00 EMaxC= 1.00D-01 BMatC= 2.18D-05 BMatP= 1.51D-04
 IDIUse=3 WtCom= 9.95D-01 WtEn= 4.94D-03
 Coeff-Com: -0.350D-01 0.467D-01-0.122D-01 0.363D-01 0.110D+00 0.289D+00
 Coeff-Com:  0.565D+00
 Coeff-En:   0.000D+00 0.000D+00 0.000D+00 0.000D+00 0.000D+00 0.330D-01
 Coeff-En:   0.967D+00
 Coeff:     -0.349D-01 0.465D-01-0.121D-01 0.362D-01 0.110D+00 0.288D+00
 Coeff:      0.567D+00
 Gap=     0.255 Goal=   None    Shift=    0.000
 RMSDP=8.41D-05 MaxDP=5.52D-03 DE=-1.04D-04 OVMax= 2.00D-03

 Cycle   8  Pass 1  IDiag  1:
 RMSU=  4.61D-05    CP:  5.38D-01  2.51D+00  1.99D+00  9.08D-01  8.34D-01
                    CP:  8.78D-01  8.46D-01
 E= -3010.53742714991     Delta-E=       -0.000017194548 Rises=F Damp=F
 DIIS: error= 1.15D-04 at cycle   8 NSaved=   8.
 NSaved= 8 IEnMin= 8 EnMin= -3010.53742714991     IErMin= 8 ErrMin= 1.15D-04
 ErrMax= 1.15D-04  0.00D+00 EMaxC= 1.00D-01 BMatC= 2.07D-06 BMatP= 2.18D-05
 IDIUse=3 WtCom= 9.99D-01 WtEn= 1.15D-03
 Coeff-Com:  0.440D-02-0.608D-02-0.293D-02-0.130D-01-0.333D-01-0.111D-01
 Coeff-Com:  0.179D+00 0.883D+00
 Coeff-En:   0.000D+00 0.000D+00 0.000D+00 0.000D+00 0.000D+00 0.000D+00
 Coeff-En:   0.000D+00 0.100D+01
 Coeff:      0.440D-02-0.607D-02-0.293D-02-0.130D-01-0.332D-01-0.111D-01
 Coeff:      0.179D+00 0.883D+00
 Gap=     0.255 Goal=   None    Shift=    0.000
 RMSDP=4.77D-05 MaxDP=3.59D-03 DE=-1.72D-05 OVMax= 9.91D-04

 Cycle   9  Pass 1  IDiag  1:
 RMSU=  1.91D-05    CP:  5.38D-01  2.51D+00  1.99D+00  9.09D-01  8.36D-01
                    CP:  9.47D-01  1.01D+00  1.20D+00
 E= -3010.53743005549     Delta-E=       -0.000002905578 Rises=F Damp=F
 DIIS: error= 2.42D-05 at cycle   9 NSaved=   9.
 NSaved= 9 IEnMin= 9 EnMin= -3010.53743005549     IErMin= 9 ErrMin= 2.42D-05
 ErrMax= 2.42D-05  0.00D+00 EMaxC= 1.00D-01 BMatC= 1.69D-07 BMatP= 2.07D-06
 IDIUse=1 WtCom= 1.00D+00 WtEn= 0.00D+00
 Coeff-Com:  0.594D-02-0.798D-02 0.512D-03-0.895D-02-0.228D-01-0.394D-01
 Coeff-Com: -0.162D-01 0.278D+00 0.811D+00
 Coeff:      0.594D-02-0.798D-02 0.512D-03-0.895D-02-0.228D-01-0.394D-01
 Coeff:     -0.162D-01 0.278D+00 0.811D+00
 Gap=     0.255 Goal=   None    Shift=    0.000
 RMSDP=1.43D-05 MaxDP=7.64D-04 DE=-2.91D-06 OVMax= 4.40D-04

 Cycle  10  Pass 1  IDiag  1:
 RMSU=  6.19D-06    CP:  5.38D-01  2.50D+00  1.99D+00  9.09D-01  8.40D-01
                    CP:  9.60D-01  1.05D+00  1.30D+00  1.08D+00
 E= -3010.53743043913     Delta-E=       -0.000000383642 Rises=F Damp=F
 DIIS: error= 1.33D-05 at cycle  10 NSaved=  10.
 NSaved=10 IEnMin=10 EnMin= -3010.53743043913     IErMin=10 ErrMin= 1.33D-05
 ErrMax= 1.33D-05  0.00D+00 EMaxC= 1.00D-01 BMatC= 3.93D-08 BMatP= 1.69D-07
 IDIUse=1 WtCom= 1.00D+00 WtEn= 0.00D+00
 Coeff-Com:  0.716D-03-0.944D-03 0.258D-03-0.791D-03-0.933D-04-0.600D-02
 Coeff-Com: -0.252D-01-0.389D-01 0.247D+00 0.824D+00
 Coeff:      0.716D-03-0.944D-03 0.258D-03-0.791D-03-0.933D-04-0.600D-02
 Coeff:     -0.252D-01-0.389D-01 0.247D+00 0.824D+00
 Gap=     0.255 Goal=   None    Shift=    0.000
 RMSDP=6.12D-06 MaxDP=4.54D-04 DE=-3.84D-07 OVMax= 1.68D-04

 Cycle  11  Pass 1  IDiag  1:
 RMSU=  2.69D-06    CP:  5.38D-01  2.50D+00  1.99D+00  9.09D-01  8.39D-01
                    CP:  9.66D-01  1.06D+00  1.31D+00  1.21D+00  9.85D-01
 E= -3010.53743049565     Delta-E=       -0.000000056527 Rises=F Damp=F
 DIIS: error= 3.60D-06 at cycle  11 NSaved=  11.
 NSaved=11 IEnMin=11 EnMin= -3010.53743049565     IErMin=11 ErrMin= 3.60D-06
 ErrMax= 3.60D-06  0.00D+00 EMaxC= 1.00D-01 BMatC= 2.03D-09 BMatP= 3.93D-08
 IDIUse=1 WtCom= 1.00D+00 WtEn= 0.00D+00
 Coeff-Com: -0.122D-03 0.164D-03 0.359D-04 0.457D-03 0.196D-02 0.365D-02
 Coeff-Com:  0.209D-02-0.235D-01-0.630D-01 0.166D-01 0.106D+01
 Coeff:     -0.122D-03 0.164D-03 0.359D-04 0.457D-03 0.196D-02 0.365D-02
 Coeff:      0.209D-02-0.235D-01-0.630D-01 0.166D-01 0.106D+01
 Gap=     0.255 Goal=   None    Shift=    0.000
 RMSDP=2.29D-06 MaxDP=1.14D-04 DE=-5.65D-08 OVMax= 7.91D-05

 Cycle  12  Pass 1  IDiag  1:
 RMSU=  7.46D-07    CP:  5.38D-01  2.50D+00  1.99D+00  9.09D-01  8.39D-01
                    CP:  9.68D-01  1.06D+00  1.31D+00  1.25D+00  1.12D+00
                    CP:  1.24D+00
 E= -3010.53743050530     Delta-E=       -0.000000009648 Rises=F Damp=F
 DIIS: error= 1.31D-06 at cycle  12 NSaved=  12.
 NSaved=12 IEnMin=12 EnMin= -3010.53743050530     IErMin=12 ErrMin= 1.31D-06
 ErrMax= 1.31D-06  0.00D+00 EMaxC= 1.00D-01 BMatC= 8.81D-10 BMatP= 2.03D-09
 IDIUse=1 WtCom= 1.00D+00 WtEn= 0.00D+00
 Coeff-Com: -0.151D-03 0.200D-03-0.134D-04 0.338D-03 0.824D-03 0.265D-02
 Coeff-Com:  0.565D-02-0.501D-02-0.769D-01-0.158D+00 0.533D+00 0.698D+00
 Coeff:     -0.151D-03 0.200D-03-0.134D-04 0.338D-03 0.824D-03 0.265D-02
 Coeff:      0.565D-02-0.501D-02-0.769D-01-0.158D+00 0.533D+00 0.698D+00
 Gap=     0.255 Goal=   None    Shift=    0.000
 RMSDP=1.19D-06 MaxDP=6.79D-05 DE=-9.65D-09 OVMax= 3.37D-05

 Cycle  13  Pass 1  IDiag  1:
 RMSU=  4.45D-07    CP:  5.38D-01  2.50D+00  1.99D+00  9.09D-01  8.39D-01
                    CP:  9.69D-01  1.06D+00  1.31D+00  1.27D+00  1.15D+00
                    CP:  1.47D+00  1.02D+00
 E= -3010.53743050751     Delta-E=       -0.000000002206 Rises=F Damp=F
 DIIS: error= 4.85D-07 at cycle  13 NSaved=  13.
 NSaved=13 IEnMin=13 EnMin= -3010.53743050751     IErMin=13 ErrMin= 4.85D-07
 ErrMax= 4.85D-07  0.00D+00 EMaxC= 1.00D-01 BMatC= 7.11D-11 BMatP= 8.81D-10
 IDIUse=1 WtCom= 1.00D+00 WtEn= 0.00D+00
 Coeff-Com: -0.167D-04 0.224D-04-0.694D-05-0.292D-04-0.323D-03-0.555D-03
 Coeff-Com: -0.909D-04 0.265D-02 0.656D-02-0.164D-01-0.716D-01 0.677D-02
 Coeff-Com:  0.107D+01
 Coeff:     -0.167D-04 0.224D-04-0.694D-05-0.292D-04-0.323D-03-0.555D-03
 Coeff:     -0.909D-04 0.265D-02 0.656D-02-0.164D-01-0.716D-01 0.677D-02
 Coeff:      0.107D+01
 Gap=     0.255 Goal=   None    Shift=    0.000
 RMSDP=2.79D-07 MaxDP=1.82D-05 DE=-2.21D-09 OVMax= 1.74D-05

 Cycle  14  Pass 1  IDiag  1:
 RMSU=  1.43D-07    CP:  5.38D-01  2.50D+00  1.99D+00  9.09D-01  8.39D-01
                    CP:  9.69D-01  1.06D+00  1.31D+00  1.27D+00  1.15D+00
                    CP:  1.52D+00  1.12D+00  1.29D+00
 E= -3010.53743050785     Delta-E=       -0.000000000346 Rises=F Damp=F
 DIIS: error= 2.02D-07 at cycle  14 NSaved=  14.
 NSaved=14 IEnMin=14 EnMin= -3010.53743050785     IErMin=14 ErrMin= 2.02D-07
 ErrMax= 2.02D-07  0.00D+00 EMaxC= 1.00D-01 BMatC= 2.05D-11 BMatP= 7.11D-11
 IDIUse=1 WtCom= 1.00D+00 WtEn= 0.00D+00
 Coeff-Com:  0.777D-05-0.102D-04-0.299D-05-0.525D-04-0.214D-03-0.554D-03
 Coeff-Com: -0.825D-03 0.165D-02 0.145D-01 0.167D-01-0.105D+00-0.144D+00
 Coeff-Com:  0.380D+00 0.838D+00
 Coeff:      0.777D-05-0.102D-04-0.299D-05-0.525D-04-0.214D-03-0.554D-03
 Coeff:     -0.825D-03 0.165D-02 0.145D-01 0.167D-01-0.105D+00-0.144D+00
 Coeff:      0.380D+00 0.838D+00
 Gap=     0.255 Goal=   None    Shift=    0.000
 RMSDP=1.71D-07 MaxDP=1.26D-05 DE=-3.46D-10 OVMax= 9.33D-06

 Cycle  15  Pass 1  IDiag  1:
 RMSU=  5.01D-08    CP:  5.38D-01  2.50D+00  1.99D+00  9.09D-01  8.39D-01
                    CP:  9.70D-01  1.06D+00  1.31D+00  1.28D+00  1.15D+00
                    CP:  1.55D+00  1.17D+00  1.52D+00  1.15D+00
 E= -3010.53743050794     Delta-E=       -0.000000000087 Rises=F Damp=F
 DIIS: error= 1.30D-07 at cycle  15 NSaved=  15.
 NSaved=15 IEnMin=15 EnMin= -3010.53743050794     IErMin=15 ErrMin= 1.30D-07
 ErrMax= 1.30D-07  0.00D+00 EMaxC= 1.00D-01 BMatC= 4.75D-12 BMatP= 2.05D-11
 IDIUse=1 WtCom= 1.00D+00 WtEn= 0.00D+00
 Coeff-Com:  0.916D-05-0.123D-04 0.102D-05-0.607D-05 0.492D-04 0.487D-04
 Coeff-Com: -0.131D-03-0.448D-03 0.181D-02 0.780D-02 0.125D-03-0.599D-01
 Coeff-Com: -0.194D+00 0.265D+00 0.979D+00
 Coeff:      0.916D-05-0.123D-04 0.102D-05-0.607D-05 0.492D-04 0.487D-04
 Coeff:     -0.131D-03-0.448D-03 0.181D-02 0.780D-02 0.125D-03-0.599D-01
 Coeff:     -0.194D+00 0.265D+00 0.979D+00
 Gap=     0.255 Goal=   None    Shift=    0.000
 RMSDP=1.06D-07 MaxDP=4.39D-06 DE=-8.73D-11 OVMax= 6.22D-06

 Cycle  16  Pass 1  IDiag  1:
 RMSU=  3.34D-08    CP:  5.38D-01  2.50D+00  1.99D+00  9.09D-01  8.39D-01
                    CP:  9.70D-01  1.06D+00  1.31D+00  1.28D+00  1.15D+00
                    CP:  1.57D+00  1.17D+00  1.67D+00  1.37D+00  1.44D+00
 E= -3010.53743050803     Delta-E=       -0.000000000085 Rises=F Damp=F
 DIIS: error= 4.96D-08 at cycle  16 NSaved=  16.
 NSaved=16 IEnMin=16 EnMin= -3010.53743050803     IErMin=16 ErrMin= 4.96D-08
 ErrMax= 4.96D-08  0.00D+00 EMaxC= 1.00D-01 BMatC= 6.45D-13 BMatP= 4.75D-12
 IDIUse=1 WtCom= 1.00D+00 WtEn= 0.00D+00
 Coeff-Com:  0.169D-05-0.230D-05 0.924D-06 0.681D-05 0.515D-04 0.116D-03
 Coeff-Com:  0.941D-04-0.500D-03-0.186D-02-0.227D-03 0.197D-01 0.473D-03
 Coeff-Com: -0.113D+00-0.425D-01 0.255D+00 0.882D+00
 Coeff:      0.169D-05-0.230D-05 0.924D-06 0.681D-05 0.515D-04 0.116D-03
 Coeff:      0.941D-04-0.500D-03-0.186D-02-0.227D-03 0.197D-01 0.473D-03
 Coeff:     -0.113D+00-0.425D-01 0.255D+00 0.882D+00
 Gap=     0.255 Goal=   None    Shift=    0.000
 RMSDP=3.07D-08 MaxDP=1.20D-06 DE=-8.46D-11 OVMax= 2.25D-06

 Cycle  17  Pass 1  IDiag  1:
 RMSU=  9.43D-09    CP:  5.38D-01  2.50D+00  1.99D+00  9.09D-01  8.39D-01
                    CP:  9.70D-01  1.06D+00  1.31D+00  1.28D+00  1.15D+00
                    CP:  1.57D+00  1.17D+00  1.70D+00  1.42D+00  1.75D+00
                    CP:  1.19D+00
 E= -3010.53743050799     Delta-E=        0.000000000033 Rises=F Damp=F
 DIIS: error= 1.85D-08 at cycle  17 NSaved=  17.
 NSaved=17 IEnMin=16 EnMin= -3010.53743050803     IErMin=17 ErrMin= 1.85D-08
 ErrMax= 1.85D-08  0.00D+00 EMaxC= 1.00D-01 BMatC= 1.44D-13 BMatP= 6.45D-13
 IDIUse=1 WtCom= 1.00D+00 WtEn= 0.00D+00
 Coeff-Com: -0.375D-06 0.499D-06 0.173D-06 0.136D-05 0.996D-06 0.157D-04
 Coeff-Com:  0.388D-04-0.206D-04-0.603D-03-0.108D-02 0.426D-02 0.724D-02
 Coeff-Com:  0.648D-02-0.567D-01-0.150D+00 0.228D+00 0.962D+00
 Coeff:     -0.375D-06 0.499D-06 0.173D-06 0.136D-05 0.996D-06 0.157D-04
 Coeff:      0.388D-04-0.206D-04-0.603D-03-0.108D-02 0.426D-02 0.724D-02
 Coeff:      0.648D-02-0.567D-01-0.150D+00 0.228D+00 0.962D+00
 Gap=     0.255 Goal=   None    Shift=    0.000
 RMSDP=1.97D-08 MaxDP=9.53D-07 DE= 3.27D-11 OVMax= 1.23D-06

 Cycle  18  Pass 1  IDiag  1:
 RMSU=  4.80D-09    CP:  5.38D-01  2.50D+00  1.99D+00  9.09D-01  8.39D-01
                    CP:  9.70D-01  1.06D+00  1.30D+00  1.28D+00  1.15D+00
                    CP:  1.58D+00  1.16D+00  1.72D+00  1.45D+00  1.85D+00
                    CP:  1.46D+00  1.30D+00
 E= -3010.53743050800     Delta-E=       -0.000000000006 Rises=F Damp=F
 DIIS: error= 6.63D-09 at cycle  18 NSaved=  18.
 NSaved=18 IEnMin=16 EnMin= -3010.53743050803     IErMin=18 ErrMin= 6.63D-09
 ErrMax= 6.63D-09  0.00D+00 EMaxC= 1.00D-01 BMatC= 2.38D-14 BMatP= 1.44D-13
 IDIUse=1 WtCom= 1.00D+00 WtEn= 0.00D+00
 Coeff-Com: -0.516D-07 0.712D-07-0.856D-07-0.139D-05-0.102D-04-0.177D-04
 Coeff-Com: -0.624D-05 0.101D-03 0.197D-03-0.344D-03-0.261D-02 0.857D-03
 Coeff-Com:  0.267D-01-0.674D-04-0.891D-01-0.115D+00 0.273D+00 0.907D+00
 Coeff:     -0.516D-07 0.712D-07-0.856D-07-0.139D-05-0.102D-04-0.177D-04
 Coeff:     -0.624D-05 0.101D-03 0.197D-03-0.344D-03-0.261D-02 0.857D-03
 Coeff:      0.267D-01-0.674D-04-0.891D-01-0.115D+00 0.273D+00 0.907D+00
 Gap=     0.255 Goal=   None    Shift=    0.000
 RMSDP=6.77D-09 MaxDP=5.38D-07 DE=-5.91D-12 OVMax= 2.91D-07

 SCF Done:  E(RwB97XD) =  -3010.53743051     A.U. after   18 cycles
            NFock= 18  Conv=0.68D-08     -V/T= 2.0016
 KE= 3.005851133350D+03 PE=-8.632809589179D+03 EE= 1.876499301393D+03
 Leave Link  502 at Wed May  1 14:45:33 2024, MaxMem=  1207959552 cpu:            1009.9 elap:            1010.1
 (Enter /software/gaussian/g16-c01/sse4/g16/l601.exe)
 Copying SCF densities to generalized density rwf, IOpCl= 0 IROHF=0.

 **********************************************************************

            Population analysis using the SCF Density.

 **********************************************************************

 Alpha  occ. eigenvalues -- -483.31330 -62.86351 -56.66047 -56.65470 -56.65467
 Alpha  occ. eigenvalues --  -19.47619 -19.47545 -14.87070 -10.58405 -10.57942
 Alpha  occ. eigenvalues --  -10.57885 -10.57550 -10.56917 -10.53089  -9.02153
 Alpha  occ. eigenvalues --   -6.84840  -6.82954  -6.82937  -2.94742  -2.94242
 Alpha  occ. eigenvalues --   -2.94227  -2.92719  -2.92719  -1.51375  -1.34374
 Alpha  occ. eigenvalues --   -1.23053  -1.14543  -1.12096  -1.04620  -1.01853
 Alpha  occ. eigenvalues --   -0.95786  -0.91466  -0.86227  -0.81692  -0.81586
 Alpha  occ. eigenvalues --   -0.81285  -0.78591  -0.77614  -0.76231  -0.72617
 Alpha  occ. eigenvalues --   -0.69554  -0.67857  -0.64044  -0.60404  -0.58852
 Alpha  occ. eigenvalues --   -0.58039  -0.57436  -0.56393  -0.55378
 Alpha virt. eigenvalues --   -0.29880  -0.22545  -0.15845  -0.13987  -0.08835
 Alpha virt. eigenvalues --   -0.06298  -0.05850  -0.05108  -0.04822  -0.03473
 Alpha virt. eigenvalues --   -0.02854  -0.02424  -0.01526  -0.00790   0.00325
 Alpha virt. eigenvalues --    0.00675   0.01299   0.01652   0.02195   0.02744
 Alpha virt. eigenvalues --    0.03791   0.04394   0.04586   0.05471   0.05703
 Alpha virt. eigenvalues --    0.06672   0.06784   0.07366   0.08183   0.09126
 Alpha virt. eigenvalues --    0.10111   0.10272   0.10507   0.10873   0.11603
 Alpha virt. eigenvalues --    0.11947   0.12212   0.12715   0.14406   0.15297
 Alpha virt. eigenvalues --    0.16060   0.16786   0.17012   0.17580   0.18553
 Alpha virt. eigenvalues --    0.19040   0.19377   0.20076   0.21107   0.22965
 Alpha virt. eigenvalues --    0.23194   0.25616   0.27140   0.29270   0.31404
 Alpha virt. eigenvalues --    0.31603   0.32145   0.33245   0.33966   0.34800
 Alpha virt. eigenvalues --    0.36885   0.37110   0.38595   0.40382   0.41462
 Alpha virt. eigenvalues --    0.42175   0.43181   0.43252   0.45950   0.46282
 Alpha virt. eigenvalues --    0.47074   0.49852   0.50318   0.52074   0.52362
 Alpha virt. eigenvalues --    0.53576   0.54663   0.56285   0.56495   0.58845
 Alpha virt. eigenvalues --    0.61176   0.61794   0.63919   0.66667   0.68164
 Alpha virt. eigenvalues --    0.69958   0.70829   0.72590   0.72956   0.73833
 Alpha virt. eigenvalues --    0.74143   0.78161   0.79095   0.82621   0.84282
 Alpha virt. eigenvalues --    0.85865   0.86761   0.91091   0.92352   0.97277
 Alpha virt. eigenvalues --    0.97661   1.00249   1.03866   1.04525   1.05942
 Alpha virt. eigenvalues --    1.08067   1.09687   1.10455   1.10896   1.12454
 Alpha virt. eigenvalues --    1.20214   1.23466   1.25750   1.32528   1.35979
 Alpha virt. eigenvalues --    1.36400   1.37544   1.44732   1.53689   1.56365
 Alpha virt. eigenvalues --    1.57244   1.57691   1.59976   1.61495   1.65897
 Alpha virt. eigenvalues --    1.68245   1.69263   1.73163   1.73747   1.78501
 Alpha virt. eigenvalues --    1.80861   1.84877   1.86600   1.93203   1.95239
 Alpha virt. eigenvalues --    1.97144   2.01867   2.03012   2.06527   2.07617
 Alpha virt. eigenvalues --    2.09110   2.14280   2.19789   2.21699   2.29018
 Alpha virt. eigenvalues --    2.36611   2.40139   2.41958   2.42883   2.51976
 Alpha virt. eigenvalues --    2.56267   2.62453   2.65481   2.67496   2.70166
 Alpha virt. eigenvalues --    2.71943   2.74915   2.76463   2.79367   2.81241
 Alpha virt. eigenvalues --    2.93105   2.95838   2.98966   3.05175   3.08190
 Alpha virt. eigenvalues --    3.12294   3.14343   3.18573   3.22182   3.23733
 Alpha virt. eigenvalues --    3.25516   3.38009   3.47251   3.50242   3.53224
 Alpha virt. eigenvalues --    3.55763   3.68265   3.72359   3.81678   3.86646
 Alpha virt. eigenvalues --    4.08829   4.09059   4.16512   4.21747   4.42488
 Alpha virt. eigenvalues --    4.42571   4.56863   4.58485   4.91324   4.93972
 Alpha virt. eigenvalues --    5.02631   5.06798   5.61062   6.13917   6.64534
 Alpha virt. eigenvalues --    7.47509   7.49080   7.58839  23.20874  23.60826
 Alpha virt. eigenvalues --   23.69349  23.78996  23.95615  24.00854  35.30892
 Alpha virt. eigenvalues --   47.91087  49.83795  49.92606 289.80411 289.82078
 Alpha virt. eigenvalues --  289.945161020.91501
          Condensed to atoms (all electrons):
               1          2          3          4          5          6
     1  C    8.644334  -2.239479   0.294273  -1.488184  -0.646029   0.307367
     2  C   -2.239479  12.757265  -1.859469  -2.673503   0.847686  -0.015870
     3  C    0.294273  -1.859469  12.906030  -2.912422  -1.285166   0.021675
     4  C   -1.488184  -2.673503  -2.912422  14.205172   1.252309   0.009979
     5  C   -0.646029   0.847686  -1.285166   1.252309   7.305824   0.019821
     6  H    0.307367  -0.015870   0.021675   0.009979   0.019821   0.328539
     7  H    0.062781   0.239037   0.078804  -0.032766  -0.020403  -0.001822
     8  H    0.002484  -0.009874   0.067450   0.258813  -0.014395   0.000002
     9  H    0.026742  -0.008983   0.001718  -0.005370   0.315883  -0.002122
    10  N   -0.125635   0.330774  -0.918041   0.299414   0.026024  -0.000582
    11  O    0.017076  -0.052679  -0.259820  -0.023757  -0.053942  -0.000021
    12  O    0.299905  -0.039222  -0.281280  -0.066520  -0.042858  -0.000002
    13  C    1.387382  -1.801668   0.814090  -3.095539  -1.744070  -0.008328
    14  H   -0.005938  -0.007453   0.006946  -0.058604  -0.040076  -0.000055
    15  Br   0.050219   0.002327   0.052712   0.061720   0.063613  -0.000396
               7          8          9         10         11         12
     1  C    0.062781   0.002484   0.026742  -0.125635   0.017076   0.299905
     2  C    0.239037  -0.009874  -0.008983   0.330774  -0.052679  -0.039222
     3  C    0.078804   0.067450   0.001718  -0.918041  -0.259820  -0.281280
     4  C   -0.032766   0.258813  -0.005370   0.299414  -0.023757  -0.066520
     5  C   -0.020403  -0.014395   0.315883   0.026024  -0.053942  -0.042858
     6  H   -0.001822   0.000002  -0.002122  -0.000582  -0.000021  -0.000002
     7  H    0.307900   0.000002   0.000013  -0.025988  -0.001495   0.020267
     8  H    0.000002   0.301385   0.000109  -0.023522   0.020819  -0.000905
     9  H    0.000013   0.000109   0.310636   0.000413   0.000004   0.000005
    10  N   -0.025988  -0.023522   0.000413   7.285848   0.216250   0.181706
    11  O   -0.001495   0.020819   0.000004   0.216250   7.841242  -0.004568
    12  O    0.020267  -0.000905   0.000005   0.181706  -0.004568   7.877383
    13  C    0.014407   0.032583  -0.002480  -0.143898   0.286610   0.043363
    14  H   -0.000016  -0.004426  -0.005108  -0.000528  -0.000228  -0.000070
    15  Br  -0.000131   0.001319   0.000900   0.003251   0.000478   0.001987
              13         14         15
     1  C    1.387382  -0.005938   0.050219
     2  C   -1.801668  -0.007453   0.002327
     3  C    0.814090   0.006946   0.052712
     4  C   -3.095539  -0.058604   0.061720
     5  C   -1.744070  -0.040076   0.063613
     6  H   -0.008328  -0.000055  -0.000396
     7  H    0.014407  -0.000016  -0.000131
     8  H    0.032583  -0.004426   0.001319
     9  H   -0.002480  -0.005108   0.000900
    10  N   -0.143898  -0.000528   0.003251
    11  O    0.286610  -0.000228   0.000478
    12  O    0.043363  -0.000070   0.001987
    13  C   10.328519   0.408195  -0.055317
    14  H    0.408195   0.336623  -0.039485
    15  Br  -0.055317  -0.039485  34.660908
 Mulliken charges:
               1
     1  C   -0.587298
     2  C    0.531112
     3  C   -0.727501
     4  C    0.269259
     5  C    0.015780
     6  H    0.341815
     7  H    0.359412
     8  H    0.368156
     9  H    0.367640
    10  N   -0.105486
    11  O    0.014031
    12  O    0.010809
    13  C   -0.463847
    14  H    0.410223
    15  Br   0.195895
 Sum of Mulliken charges =   1.00000
 Mulliken charges with hydrogens summed into heavy atoms:
               1
     1  C   -0.245483
     2  C    0.890524
     3  C   -0.727501
     4  C    0.637415
     5  C    0.383420
    10  N   -0.105486
    11  O    0.014031
    12  O    0.010809
    13  C   -0.053625
    15  Br   0.195895
 Electronic spatial extent (au):  <R**2>=           2800.0688
 Charge=              1.0000 electrons
 Dipole moment (field-independent basis, Debye):
    X=             -1.9646    Y=             -0.7157    Z=             -0.1132  Tot=              2.0940
 Quadrupole moment (field-independent basis, Debye-Ang):
   XX=            -73.9203   YY=            -51.8708   ZZ=            -62.3440
   XY=              1.4789   XZ=              1.4020   YZ=              1.9251
 Traceless Quadrupole moment (field-independent basis, Debye-Ang):
   XX=            -11.2086   YY=             10.8409   ZZ=              0.3676
   XY=              1.4789   XZ=              1.4020   YZ=              1.9251
 Octapole moment (field-independent basis, Debye-Ang**2):
  XXX=           -315.1242  YYY=             86.6521  ZZZ=             76.5814  XYY=            -78.7920
  XXY=             29.5138  XXZ=             32.1296  XZZ=            -79.4134  YZZ=             15.5390
  YYZ=             24.7569  XYZ=             -3.9237
 Hexadecapole moment (field-independent basis, Debye-Ang**3):
 XXXX=          -2346.1501 YYYY=           -674.4118 ZZZZ=           -345.2923 XXXY=            -68.2468
 XXXZ=            -19.6584 YYYX=            -58.3516 YYYZ=           -153.4970 ZZZX=            -16.6559
 ZZZY=           -133.6916 XXYY=           -461.1705 XXZZ=           -371.2233 YYZZ=           -161.5890
 XXYZ=            -53.8236 YYXZ=             -0.7322 ZZXY=             -7.3794
 N-N= 7.399217239285D+02 E-N=-8.632809591022D+03  KE= 3.005851133350D+03
 No NMR shielding tensors so no spin-rotation constants.
 Leave Link  601 at Wed May  1 14:45:40 2024, MaxMem=  1207959552 cpu:               7.4 elap:               7.4
 (Enter /software/gaussian/g16-c01/sse4/g16/l9999.exe)
 Unable to Open any file for archive entry.
 1\1\GINC-BHX0018\SP\RwB97XD\6-311+G(d)\C6H5Br1N1O2(1+)\BWEIGHT\01-May-
 2024\0\\#P wB97XD/6-311+G* NoSymm #P Field=X+38\\TitleMe\\1,1\C,0,0.02
 95,1.3397,0.0682\C,0,1.4348,1.2867,0.0064\C,0,2.1118,0.0511,-0.0054\C,
 0,1.4451,-1.1372,0.0312\C,0,-0.6879,0.1682,0.11\H,0,-0.4713,2.2984,0.0
 781\H,0,2.0273,2.1965,-0.0322\H,0,1.9897,-2.0764,0.0232\H,0,-1.7716,0.
 1804,0.1582\N,0,3.5864,0.051,-0.0675\O,0,4.1471,-1.0597,-0.0881\O,0,4.
 145,1.1639,-0.0901\C,0,-0.0236,-1.1458,0.0835\H,0,-0.4367,-1.8725,0.78
 89\Br,0,-0.5359,-1.8697,-1.7408\\Version=ES64L-G16RevC.01\HF=-3010.537
 4305\RMSD=6.771e-09\Dipole=-2.6794674,0.8664927,1.1016255\Quadrupole=-
 8.3332987,8.05996,0.2733387,1.0995556,1.0423772,1.4312997\PG=C01 [X(C6
 H5Br1N1O2)]\\@
 The archive entry for this job was punched.


 GOD DOES NOT PLAY WITH DICE.
               -- A. EINSTEIN
 Job cpu time:       0 days  0 hours 17 minutes 57.3 seconds.
 Elapsed time:       0 days  0 hours 17 minutes 57.5 seconds.
 File lengths (MBytes):  RWF=     40 Int=      0 D2E=      0 Chk=     32 Scr=      1
 Normal termination of Gaussian 16 at Wed May  1 14:45:42 2024.
