 Entering Gaussian System, Link 0=g16
 Initial command:
 /software/gaussian/g16-c01/sse4/g16/l1.exe "/local_scratch/24665371/Gau-25843.inp" -scrdir="/local_scratch/24665371/"
 Entering Link 1 = /software/gaussian/g16-c01/sse4/g16/l1.exe PID=     25889.
  
 Copyright (c) 1988-2019, Gaussian, Inc.  All Rights Reserved.
  
 This is part of the Gaussian(R) 16 program.  It is based on
 the Gaussian(R) 09 system (copyright 2009, Gaussian, Inc.),
 the Gaussian(R) 03 system (copyright 2003, Gaussian, Inc.),
 the Gaussian(R) 98 system (copyright 1998, Gaussian, Inc.),
 the Gaussian(R) 94 system (copyright 1995, Gaussian, Inc.),
 the Gaussian 92(TM) system (copyright 1992, Gaussian, Inc.),
 the Gaussian 90(TM) system (copyright 1990, Gaussian, Inc.),
 the Gaussian 88(TM) system (copyright 1988, Gaussian, Inc.),
 the Gaussian 86(TM) system (copyright 1986, Carnegie Mellon
 University), and the Gaussian 82(TM) system (copyright 1983,
 Carnegie Mellon University). Gaussian is a federally registered
 trademark of Gaussian, Inc.
  
 This software contains proprietary and confidential information,
 including trade secrets, belonging to Gaussian, Inc.
  
 This software is provided under written license and may be
 used, copied, transmitted, or stored only in accord with that
 written license.
  
 The following legend is applicable only to US Government
 contracts under FAR:
  
                    RESTRICTED RIGHTS LEGEND
  
 Use, reproduction and disclosure by the US Government is
 subject to restrictions as set forth in subparagraphs (a)
 and (c) of the Commercial Computer Software - Restricted
 Rights clause in FAR 52.227-19.
  
 Gaussian, Inc.
 340 Quinnipiac St., Bldg. 40, Wallingford CT 06492
  
  
 ---------------------------------------------------------------
 Warning -- This program may not be used in any manner that
 competes with the business of Gaussian, Inc. or will provide
 assistance to any competitor of Gaussian, Inc.  The licensee
 of this program is prohibited from giving any competitor of
 Gaussian, Inc. access to this program.  By using this program,
 the user acknowledges that Gaussian, Inc. is engaged in the
 business of creating and licensing software in the field of
 computational chemistry and represents and warrants to the
 licensee that it is not a competitor of Gaussian, Inc. and that
 it will not use this program in any manner prohibited above.
 ---------------------------------------------------------------
  

 Cite this work as:
 Gaussian 16, Revision C.01,
 M. J. Frisch, G. W. Trucks, H. B. Schlegel, G. E. Scuseria, 
 M. A. Robb, J. R. Cheeseman, G. Scalmani, V. Barone, 
 G. A. Petersson, H. Nakatsuji, X. Li, M. Caricato, A. V. Marenich, 
 J. Bloino, B. G. Janesko, R. Gomperts, B. Mennucci, H. P. Hratchian, 
 J. V. Ortiz, A. F. Izmaylov, J. L. Sonnenberg, D. Williams-Young, 
 F. Ding, F. Lipparini, F. Egidi, J. Goings, B. Peng, A. Petrone, 
 T. Henderson, D. Ranasinghe, V. G. Zakrzewski, J. Gao, N. Rega, 
 G. Zheng, W. Liang, M. Hada, M. Ehara, K. Toyota, R. Fukuda, 
 J. Hasegawa, M. Ishida, T. Nakajima, Y. Honda, O. Kitao, H. Nakai, 
 T. Vreven, K. Throssell, J. A. Montgomery, Jr., J. E. Peralta, 
 F. Ogliaro, M. J. Bearpark, J. J. Heyd, E. N. Brothers, K. N. Kudin, 
 V. N. Staroverov, T. A. Keith, R. Kobayashi, J. Normand, 
 K. Raghavachari, A. P. Rendell, J. C. Burant, S. S. Iyengar, 
 J. Tomasi, M. Cossi, J. M. Millam, M. Klene, C. Adamo, R. Cammi, 
 J. W. Ochterski, R. L. Martin, K. Morokuma, O. Farkas, 
 J. B. Foresman, and D. J. Fox, Gaussian, Inc., Wallingford CT, 2019.
 
 ******************************************
 Gaussian 16:  ES64L-G16RevC.01  3-Jul-2019
                 2-May-2024 
 ******************************************
 %chk=geometry.chk
 %mem=1GB
 %nprocshared=12
 Will use up to   12 processors via shared memory.
 ----------------------------------------
 #P wB97XD/6-311+G* NoSymm #P Field=Z-116
 ----------------------------------------
 1/38=1,172=1/1;
 2/12=2,15=1,17=6,18=5,40=1/2;
 3/5=4,6=6,7=11,11=2,14=3,15=-116,25=1,30=1,74=-58/1,2,3;
 4//1;
 5/5=2,38=5/2;
 6/7=2,8=2,9=2,10=2,28=1/1;
 99/5=1,9=1/99;
 Leave Link    1 at Thu May  2 13:58:18 2024, MaxMem=   134217728 cpu:               1.1 elap:               1.1
 (Enter /software/gaussian/g16-c01/sse4/g16/l101.exe)
 -------
 TitleMe
 -------
 Symbolic Z-matrix:
 Charge =  1 Multiplicity = 1
 C                     0.5193    1.233    -0.0319 
 C                     1.9445    1.2692   -0.0367 
 C                     2.6204    0.0928   -0.025 
 C                    -0.196     0.0301    0.001 
 H                    -0.0207    2.1742   -0.0434 
 H                     2.4828    2.2089   -0.0361 
 H                    -1.2777    0.0399    0.0117 
 N                     4.0921    0.0959    0.0366 
 O                     4.6393   -1.0217    0.1446 
 O                     4.6649    1.1984   -0.0233 
 C                     0.4943   -1.1671    0.021 
 H                    -0.0325   -2.1149    0.0545 
 C                     1.9629   -1.2165   -0.0211 
 H                     2.4436   -1.9631    0.6151 
 Br                    2.173    -1.9491   -1.9062 
 
 ITRead=  0  0  0  0  0  0  0  0  0  0  0  0  0  0  0
 MicOpt= -1 -1 -1 -1 -1 -1 -1 -1 -1 -1 -1 -1 -1 -1 -1
 NAtoms=     15 NQM=       15 NQMF=       0 NMMI=      0 NMMIF=      0
                NMic=       0 NMicF=      0.
                    Isotopes and Nuclear Properties:
 (Nuclear quadrupole moments (NQMom) in fm**2, nuclear magnetic moments (NMagM)
  in nuclear magnetons)

  Atom         1           2           3           4           5           6           7           8           9          10
 IAtWgt=          12          12          12          12           1           1           1          14          16          16
 AtmWgt=  12.0000000  12.0000000  12.0000000  12.0000000   1.0078250   1.0078250   1.0078250  14.0030740  15.9949146  15.9949146
 NucSpn=           0           0           0           0           1           1           1           2           0           0
 AtZEff=  -0.0000000  -0.0000000  -0.0000000  -0.0000000  -0.0000000  -0.0000000  -0.0000000  -0.0000000  -0.0000000  -0.0000000
 NQMom=    0.0000000   0.0000000   0.0000000   0.0000000   0.0000000   0.0000000   0.0000000   2.0440000   0.0000000   0.0000000
 NMagM=    0.0000000   0.0000000   0.0000000   0.0000000   2.7928460   2.7928460   2.7928460   0.4037610   0.0000000   0.0000000
 AtZNuc=   6.0000000   6.0000000   6.0000000   6.0000000   1.0000000   1.0000000   1.0000000   7.0000000   8.0000000   8.0000000

  Atom        11          12          13          14          15
 IAtWgt=          12           1          12           1          79
 AtmWgt=  12.0000000   1.0078250  12.0000000   1.0078250  78.9183361
 NucSpn=           0           1           0           1           3
 AtZEff=  -0.0000000  -0.0000000  -0.0000000  -0.0000000  -0.0000000
 NQMom=    0.0000000   0.0000000   0.0000000   0.0000000  31.3000000
 NMagM=    0.0000000   2.7928460   0.0000000   2.7928460   2.1063990
 AtZNuc=   6.0000000   1.0000000   6.0000000   1.0000000  35.0000000
 Leave Link  101 at Thu May  2 13:58:21 2024, MaxMem=   134217728 cpu:               1.4 elap:               1.4
 (Enter /software/gaussian/g16-c01/sse4/g16/l202.exe)
                          Input orientation:                          
 ---------------------------------------------------------------------
 Center     Atomic      Atomic             Coordinates (Angstroms)
 Number     Number       Type             X           Y           Z
 ---------------------------------------------------------------------
      1          6           0        0.519300    1.233000   -0.031900
      2          6           0        1.944500    1.269200   -0.036700
      3          6           0        2.620400    0.092800   -0.025000
      4          6           0       -0.196000    0.030100    0.001000
      5          1           0       -0.020700    2.174200   -0.043400
      6          1           0        2.482800    2.208900   -0.036100
      7          1           0       -1.277700    0.039900    0.011700
      8          7           0        4.092100    0.095900    0.036600
      9          8           0        4.639300   -1.021700    0.144600
     10          8           0        4.664900    1.198400   -0.023300
     11          6           0        0.494300   -1.167100    0.021000
     12          1           0       -0.032500   -2.114900    0.054500
     13          6           0        1.962900   -1.216500   -0.021100
     14          1           0        2.443600   -1.963100    0.615100
     15         35           0        2.173000   -1.949100   -1.906200
 ---------------------------------------------------------------------
                    Distance matrix (angstroms):
                    1          2          3          4          5
     1  C    0.000000
     2  C    1.425668   0.000000
     3  C    2.390549   1.356796   0.000000
     4  C    1.399895   2.473566   2.817218   0.000000
     5  H    1.085168   2.163581   3.362733   2.151712   0.000000
     6  H    2.192654   1.082960   2.120598   3.453189   2.503751
     7  H    2.157452   3.449071   3.898632   1.081797   2.477564
     8  N    3.750012   2.448304   1.472992   4.288753   4.608780
     9  O    4.699917   3.541615   2.312322   4.950458   5.653735
    10  O    4.145753   2.721354   2.324292   4.999386   4.786171
    11  C    2.400813   2.835836   2.471794   1.382101   3.381369
    12  H    3.394169   3.920329   3.452266   2.151887   4.290233
    13  C    2.843264   2.485817   1.465124   2.493060   3.928360
    14  H    3.786370   3.334922   2.160489   3.364142   4.860416
    15  Br   4.046416   3.728900   2.812194   3.628609   5.028314
                    6          7          8          9         10
     6  H    0.000000
     7  H    4.341452   0.000000
     8  N    2.657047   5.370150   0.000000
     9  O    3.888434   6.012948   1.249048   0.000000
    10  O    2.404752   6.054572   1.243863   2.226587   0.000000
    11  C    3.918516   2.144043   3.813080   4.149391   4.794941
    12  H    5.003018   2.489080   4.679774   4.798846   5.748876
    13  C    3.464662   3.475788   2.501842   2.688591   3.623886
    14  H    4.222698   4.268978   2.700314   2.434893   3.916224
    15  Br   4.569706   4.420610   3.411663   3.338935   4.434144
                   11         12         13         14         15
    11  C    0.000000
    12  H    1.084880   0.000000
    13  C    1.470034   2.189625   0.000000
    14  H    2.187771   2.543302   1.092353   0.000000
    15  Br   2.672762   2.955683   2.033334   2.535818   0.000000
 Symmetry turned off by external request.
 Stoichiometry    C6H5BrNO2(1+)
 Framework group  C1[X(C6H5BrNO2)]
 Deg. of freedom    39
 Full point group                 C1      NOp   1
 Rotational constants (GHZ):           1.1632986           0.9594224           0.5957624
 Leave Link  202 at Thu May  2 13:58:22 2024, MaxMem=   134217728 cpu:               1.2 elap:               1.2
 (Enter /software/gaussian/g16-c01/sse4/g16/l301.exe)
 Standard basis: 6-311+G(d) (5D, 7F)
 Ernie: Thresh=  0.10000D-02 Tol=  0.10000D-05 Strict=F.
 The following finite field(s) will be applied:
 An electric field of              0.0000  0.0000 -0.0116
   261 basis functions,   443 primitive gaussians,   273 cartesian basis functions
    49 alpha electrons       49 beta electrons
       nuclear repulsion energy       772.8945969580 Hartrees.
 IExCor= 4639 DFT=T Ex+Corr=wB97XD ExCW=0 ScaHFX=  1.000000
 ScaDFX=  1.000000  1.000000  1.000000  1.000000 ScalE2=  1.000000  1.000000
 IRadAn=      5 IRanWt=     -1 IRanGd=            0 ICorTp=0 IEmpDi=121
 HFx  wShort=  0.000000 wLong=  0.200000 cFull=  0.222036 cShort=  0.000000 cLong=  0.777964
 DFx  wShort=  0.000000 wLong=  0.200000 cFull=  0.000000 cShort=  0.000000 cLong=  1.000000
 NAtoms=   15 NActive=   15 NUniq=   15 SFac= 1.00D+00 NAtFMM=   60 NAOKFM=F Big=F
 Integral buffers will be    131072 words long.
 Raffenetti 2 integral format.
 Two-electron integral symmetry is turned off.
 R6Disp:  Grimme-D2 Dispersion energy=       -0.0080346408 Hartrees.
 Nuclear repulsion after empirical dispersion term =      772.8865623173 Hartrees.
 Leave Link  301 at Thu May  2 13:58:25 2024, MaxMem=   134217728 cpu:               1.1 elap:               1.7
 (Enter /software/gaussian/g16-c01/sse4/g16/l302.exe)
 NPDir=0 NMtPBC=     1 NCelOv=     1 NCel=       1 NClECP=     1 NCelD=      1
         NCelK=      1 NCelE2=     1 NClLst=     1 CellRange=     0.0.
 One-electron integrals computed using PRISM.
 NBasis=   261 RedAO= T EigKep=  2.52D-06  NBF=   261
 NBsUse=   261 1.00D-06 EigRej= -1.00D+00 NBFU=   261
 Precomputing XC quadrature grid using
 IXCGrd= 4 IRadAn=           5 IRanWt=          -1 IRanGd=           0 AccXCQ= 0.00D+00.
 Generated NRdTot=       0 NPtTot=           0 NUsed=           0 NTot=          32
 NSgBfM=   273   273   273   273   273 MxSgAt=    15 MxSgA2=    15.
 Leave Link  302 at Thu May  2 13:58:47 2024, MaxMem=   134217728 cpu:              21.8 elap:              21.7
 (Enter /software/gaussian/g16-c01/sse4/g16/l303.exe)
 DipDrv:  MaxL=1.
 The nuclear repulsion energy is now       774.3211661973 hartrees.
 Leave Link  303 at Thu May  2 13:58:50 2024, MaxMem=   134217728 cpu:               3.2 elap:               3.2
 (Enter /software/gaussian/g16-c01/sse4/g16/l401.exe)
 ExpMin= 3.50D-02 ExpMax= 4.40D+05 ExpMxC= 1.51D+04 IAcc=3 IRadAn=         5 AccDes= 0.00D+00
 Harris functional with IExCor= 4639 and IRadAn=       5 diagonalized for initial guess.
 HarFok:  IExCor= 4639 AccDes= 0.00D+00 IRadAn=         5 IDoV= 1 UseB2=F ITyADJ=14
 ICtDFT=  3500011 ScaDFX=  1.000000  1.000000  1.000000  1.000000
 FoFCou: FMM=F IPFlag=           0 FMFlag=      100000 FMFlg1=           0
         NFxFlg=           0 DoJE=T BraDBF=F KetDBF=T FulRan=T
         wScrn=  0.000000 ICntrl=       500 IOpCl=  0 I1Cent=   200000004 NGrid=           0
         NMat0=    1 NMatS0=      1 NMatT0=    0 NMatD0=    1 NMtDS0=    0 NMtDT0=    0
 Symmetry not used in FoFCou.
 Harris En= -2970.61307357940    
 JPrj=0 DoOrth=F DoCkMO=F.
 Leave Link  401 at Thu May  2 13:59:21 2024, MaxMem=   134217728 cpu:              31.2 elap:              31.2
 (Enter /software/gaussian/g16-c01/sse4/g16/l502.exe)
 Two-electron integral symmetry not used.
 Closed shell SCF:
 Using DIIS extrapolation, IDIIS=  1040.
 NGot=   134217728 LenX=   134063053 LenY=   133988083
 Requested convergence on RMS density matrix=1.00D-08 within 128 cycles.
 Requested convergence on MAX density matrix=1.00D-06.
 Requested convergence on             energy=1.00D-06.
 No special actions if energy rises.
 Fock matrices will be formed incrementally for  20 cycles.

 Cycle   1  Pass 1  IDiag  1:
 FoFJK:  IHMeth= 1 ICntrl=       0 DoSepK=T KAlg= 0 I1Cent=           0 FoldK=F
 IRaf=         1 NMat=       1 IRICut=       1 DoRegI=T DoRafI=F ISym2E= 0 IDoP0=0 IntGTp=1.
 FoFCou: FMM=F IPFlag=           0 FMFlag=      100000 FMFlg1=           0
         NFxFlg=           0 DoJE=T BraDBF=F KetDBF=F FulRan=T
         wScrn=  0.000000 ICntrl=       500 IOpCl=  0 I1Cent=           0 NGrid=           0
         NMat0=    1 NMatS0=      1 NMatT0=    0 NMatD0=    1 NMtDS0=    0 NMtDT0=    0
 Symmetry not used in FoFCou.
 E= -3009.68736480028    
 DIIS: error= 2.90D-01 at cycle   1 NSaved=   1.
 NSaved= 1 IEnMin= 1 EnMin= -3009.68736480028     IErMin= 1 ErrMin= 2.90D-01
 ErrMax= 2.90D-01  0.00D+00 EMaxC= 1.00D-01 BMatC= 1.19D+01 BMatP= 1.19D+01
 IDIUse=3 WtCom= 0.00D+00 WtEn= 1.00D+00
 Coeff-Com:  0.100D+01
 Coeff-En:   0.100D+01
 Coeff:      0.100D+01
 Gap=     0.327 Goal=   None    Shift=    0.000
 GapD=    0.327 DampG=1.000 DampE=0.250 DampFc=0.2500 IDamp=-1.
 Damping current iteration by 2.50D-01
 RMSDP=5.84D-02 MaxDP=6.20D+00              OVMax= 2.61D-01

 Cycle   2  Pass 1  IDiag  1:
 RMSU=  7.01D-03    CP:  8.91D-01
 E= -3009.98170759564     Delta-E=       -0.294342795357 Rises=F Damp=T
 DIIS: error= 2.18D-01 at cycle   2 NSaved=   2.
 NSaved= 2 IEnMin= 2 EnMin= -3009.98170759564     IErMin= 2 ErrMin= 2.18D-01
 ErrMax= 2.18D-01  0.00D+00 EMaxC= 1.00D-01 BMatC= 5.46D+00 BMatP= 1.19D+01
 IDIUse=3 WtCom= 0.00D+00 WtEn= 1.00D+00
 Coeff-Com: -0.184D+01 0.284D+01
 Coeff-En:   0.000D+00 0.100D+01
 Coeff:      0.000D+00 0.100D+01
 Gap=     0.266 Goal=   None    Shift=    0.000
 RMSDP=4.61D-02 MaxDP=5.06D+00 DE=-2.94D-01 OVMax= 6.73D-02

 Cycle   3  Pass 1  IDiag  1:
 RMSU=  4.99D-03    CP:  5.23D-01  3.00D+00
 E= -3010.37910568895     Delta-E=       -0.397398093308 Rises=F Damp=F
 DIIS: error= 6.54D-02 at cycle   3 NSaved=   3.
 NSaved= 3 IEnMin= 3 EnMin= -3010.37910568895     IErMin= 3 ErrMin= 6.54D-02
 ErrMax= 6.54D-02  0.00D+00 EMaxC= 1.00D-01 BMatC= 7.24D-01 BMatP= 5.46D+00
 IDIUse=3 WtCom= 3.46D-01 WtEn= 6.54D-01
 Coeff-Com:  0.258D+01-0.337D+01 0.180D+01
 Coeff-En:   0.236D-01 0.000D+00 0.976D+00
 Coeff:      0.906D+00-0.117D+01 0.126D+01
 Gap=     0.265 Goal=   None    Shift=    0.000
 RMSDP=1.11D-02 MaxDP=7.04D-01 DE=-3.97D-01 OVMax= 7.28D-02

 Cycle   4  Pass 1  IDiag  1:
 RMSU=  7.67D-03    CP:  5.58D-01  2.31D+00  1.76D+00
 E= -3010.48419546131     Delta-E=       -0.105089772368 Rises=F Damp=F
 DIIS: error= 3.85D-02 at cycle   4 NSaved=   4.
 NSaved= 4 IEnMin= 4 EnMin= -3010.48419546131     IErMin= 4 ErrMin= 3.85D-02
 ErrMax= 3.85D-02  0.00D+00 EMaxC= 1.00D-01 BMatC= 2.33D-01 BMatP= 7.24D-01
 IDIUse=3 WtCom= 6.15D-01 WtEn= 3.85D-01
 Coeff-Com:  0.858D-01-0.100D+00 0.415D+00 0.599D+00
 Coeff-En:   0.000D+00 0.000D+00 0.202D+00 0.798D+00
 Coeff:      0.527D-01-0.615D-01 0.333D+00 0.676D+00
 Gap=     0.266 Goal=   None    Shift=    0.000
 RMSDP=4.94D-03 MaxDP=4.82D-01 DE=-1.05D-01 OVMax= 4.86D-02

 Cycle   5  Pass 1  IDiag  1:
 RMSU=  2.01D-03    CP:  5.26D-01  2.45D+00  1.68D+00  7.24D-01
 E= -3010.52818576653     Delta-E=       -0.043990305214 Rises=F Damp=F
 DIIS: error= 9.24D-03 at cycle   5 NSaved=   5.
 NSaved= 5 IEnMin= 5 EnMin= -3010.52818576653     IErMin= 5 ErrMin= 9.24D-03
 ErrMax= 9.24D-03  0.00D+00 EMaxC= 1.00D-01 BMatC= 1.15D-02 BMatP= 2.33D-01
 IDIUse=3 WtCom= 9.08D-01 WtEn= 9.24D-02
 Coeff-Com: -0.759D-01 0.107D+00 0.151D+00 0.405D+00 0.413D+00
 Coeff-En:   0.000D+00 0.000D+00 0.000D+00 0.000D+00 0.100D+01
 Coeff:     -0.689D-01 0.973D-01 0.137D+00 0.367D+00 0.467D+00
 Gap=     0.256 Goal=   None    Shift=    0.000
 RMSDP=1.38D-03 MaxDP=1.25D-01 DE=-4.40D-02 OVMax= 2.54D-02

 Cycle   6  Pass 1  IDiag  1:
 RMSU=  6.71D-04    CP:  5.26D-01  2.48D+00  1.71D+00  8.45D-01  6.53D-01
 E= -3010.53248073287     Delta-E=       -0.004294966343 Rises=F Damp=F
 DIIS: error= 3.39D-03 at cycle   6 NSaved=   6.
 NSaved= 6 IEnMin= 6 EnMin= -3010.53248073287     IErMin= 6 ErrMin= 3.39D-03
 ErrMax= 3.39D-03  0.00D+00 EMaxC= 1.00D-01 BMatC= 9.94D-04 BMatP= 1.15D-02
 IDIUse=3 WtCom= 9.66D-01 WtEn= 3.39D-02
 Coeff-Com: -0.892D-01 0.120D+00 0.535D-02 0.153D+00 0.319D+00 0.491D+00
 Coeff-En:   0.000D+00 0.000D+00 0.000D+00 0.000D+00 0.118D+00 0.882D+00
 Coeff:     -0.862D-01 0.116D+00 0.517D-02 0.148D+00 0.313D+00 0.504D+00
 Gap=     0.247 Goal=   None    Shift=    0.000
 RMSDP=4.07D-04 MaxDP=2.77D-02 DE=-4.29D-03 OVMax= 7.88D-03

 Cycle   7  Pass 1  IDiag  1:
 RMSU=  2.46D-04    CP:  5.26D-01  2.48D+00  1.70D+00  8.30D-01  7.54D-01
                    CP:  6.71D-01
 E= -3010.53318947473     Delta-E=       -0.000708741853 Rises=F Damp=F
 DIIS: error= 2.84D-04 at cycle   7 NSaved=   7.
 NSaved= 7 IEnMin= 7 EnMin= -3010.53318947473     IErMin= 7 ErrMin= 2.84D-04
 ErrMax= 2.84D-04  0.00D+00 EMaxC= 1.00D-01 BMatC= 1.55D-05 BMatP= 9.94D-04
 IDIUse=3 WtCom= 9.97D-01 WtEn= 2.84D-03
 Coeff-Com: -0.312D-01 0.415D-01-0.124D-01 0.246D-01 0.710D-01 0.172D+00
 Coeff-Com:  0.734D+00
 Coeff-En:   0.000D+00 0.000D+00 0.000D+00 0.000D+00 0.000D+00 0.000D+00
 Coeff-En:   0.100D+01
 Coeff:     -0.311D-01 0.414D-01-0.124D-01 0.245D-01 0.708D-01 0.172D+00
 Coeff:      0.735D+00
 Gap=     0.248 Goal=   None    Shift=    0.000
 RMSDP=2.07D-04 MaxDP=1.59D-02 DE=-7.09D-04 OVMax= 2.34D-03

 Cycle   8  Pass 1  IDiag  1:
 RMSU=  7.89D-05    CP:  5.26D-01  2.48D+00  1.70D+00  8.51D-01  8.01D-01
                    CP:  7.44D-01  1.05D+00
 E= -3010.53321298096     Delta-E=       -0.000023506234 Rises=F Damp=F
 DIIS: error= 9.31D-05 at cycle   8 NSaved=   8.
 NSaved= 8 IEnMin= 8 EnMin= -3010.53321298096     IErMin= 8 ErrMin= 9.31D-05
 ErrMax= 9.31D-05  0.00D+00 EMaxC= 1.00D-01 BMatC= 2.29D-06 BMatP= 1.55D-05
 IDIUse=1 WtCom= 1.00D+00 WtEn= 0.00D+00
 Coeff-Com:  0.686D-02-0.939D-02-0.336D-02-0.160D-01-0.335D-01-0.479D-01
 Coeff-Com:  0.153D+00 0.950D+00
 Coeff:      0.686D-02-0.939D-02-0.336D-02-0.160D-01-0.335D-01-0.479D-01
 Coeff:      0.153D+00 0.950D+00
 Gap=     0.247 Goal=   None    Shift=    0.000
 RMSDP=8.64D-05 MaxDP=7.26D-03 DE=-2.35D-05 OVMax= 2.28D-03

 Cycle   9  Pass 1  IDiag  1:
 RMSU=  2.84D-05    CP:  5.26D-01  2.48D+00  1.70D+00  8.57D-01  8.13D-01
                    CP:  7.49D-01  1.23D+00  1.28D+00
 E= -3010.53322036293     Delta-E=       -0.000007381971 Rises=F Damp=F
 DIIS: error= 3.12D-05 at cycle   9 NSaved=   9.
 NSaved= 9 IEnMin= 9 EnMin= -3010.53322036293     IErMin= 9 ErrMin= 3.12D-05
 ErrMax= 3.12D-05  0.00D+00 EMaxC= 1.00D-01 BMatC= 3.75D-07 BMatP= 2.29D-06
 IDIUse=1 WtCom= 1.00D+00 WtEn= 0.00D+00
 Coeff-Com:  0.705D-02-0.945D-02 0.937D-03-0.877D-02-0.186D-01-0.357D-01
 Coeff-Com: -0.782D-01 0.270D+00 0.873D+00
 Coeff:      0.705D-02-0.945D-02 0.937D-03-0.877D-02-0.186D-01-0.357D-01
 Coeff:     -0.782D-01 0.270D+00 0.873D+00
 Gap=     0.247 Goal=   None    Shift=    0.000
 RMSDP=3.39D-05 MaxDP=2.11D-03 DE=-7.38D-06 OVMax= 1.29D-03

 Cycle  10  Pass 1  IDiag  1:
 RMSU=  1.48D-05    CP:  5.26D-01  2.48D+00  1.71D+00  8.57D-01  8.19D-01
                    CP:  7.44D-01  1.29D+00  1.46D+00  1.26D+00
 E= -3010.53322215670     Delta-E=       -0.000001793771 Rises=F Damp=F
 DIIS: error= 2.05D-05 at cycle  10 NSaved=  10.
 NSaved=10 IEnMin=10 EnMin= -3010.53322215670     IErMin=10 ErrMin= 2.05D-05
 ErrMax= 2.05D-05  0.00D+00 EMaxC= 1.00D-01 BMatC= 1.01D-07 BMatP= 3.75D-07
 IDIUse=1 WtCom= 1.00D+00 WtEn= 0.00D+00
 Coeff-Com:  0.131D-03-0.139D-03 0.649D-03 0.773D-03 0.399D-02 0.699D-02
 Coeff-Com: -0.494D-01-0.132D+00 0.189D+00 0.980D+00
 Coeff:      0.131D-03-0.139D-03 0.649D-03 0.773D-03 0.399D-02 0.699D-02
 Coeff:     -0.494D-01-0.132D+00 0.189D+00 0.980D+00
 Gap=     0.247 Goal=   None    Shift=    0.000
 RMSDP=2.01D-05 MaxDP=1.53D-03 DE=-1.79D-06 OVMax= 7.67D-04

 Cycle  11  Pass 1  IDiag  1:
 RMSU=  7.95D-06    CP:  5.26D-01  2.48D+00  1.70D+00  8.56D-01  8.22D-01
                    CP:  7.36D-01  1.31D+00  1.58D+00  1.47D+00  1.58D+00
 E= -3010.53322268146     Delta-E=       -0.000000524758 Rises=F Damp=F
 DIIS: error= 1.07D-05 at cycle  11 NSaved=  11.
 NSaved=11 IEnMin=11 EnMin= -3010.53322268146     IErMin=11 ErrMin= 1.07D-05
 ErrMax= 1.07D-05  0.00D+00 EMaxC= 1.00D-01 BMatC= 1.41D-08 BMatP= 1.01D-07
 IDIUse=1 WtCom= 1.00D+00 WtEn= 0.00D+00
 Coeff-Com: -0.668D-03 0.897D-03 0.350D-04 0.125D-02 0.263D-02 0.583D-02
 Coeff-Com:  0.171D-01-0.430D-01-0.190D+00-0.722D-01 0.128D+01
 Coeff:     -0.668D-03 0.897D-03 0.350D-04 0.125D-02 0.263D-02 0.583D-02
 Coeff:      0.171D-01-0.430D-01-0.190D+00-0.722D-01 0.128D+01
 Gap=     0.247 Goal=   None    Shift=    0.000
 RMSDP=1.42D-05 MaxDP=1.48D-03 DE=-5.25D-07 OVMax= 4.97D-04

 Cycle  12  Pass 1  IDiag  1:
 RMSU=  2.27D-06    CP:  5.26D-01  2.48D+00  1.70D+00  8.55D-01  8.24D-01
                    CP:  7.29D-01  1.32D+00  1.64D+00  1.58D+00  1.99D+00
                    CP:  1.66D+00
 E= -3010.53322281629     Delta-E=       -0.000000134828 Rises=F Damp=F
 DIIS: error= 4.81D-06 at cycle  12 NSaved=  12.
 NSaved=12 IEnMin=12 EnMin= -3010.53322281629     IErMin=12 ErrMin= 4.81D-06
 ErrMax= 4.81D-06  0.00D+00 EMaxC= 1.00D-01 BMatC= 5.86D-09 BMatP= 1.41D-08
 IDIUse=1 WtCom= 1.00D+00 WtEn= 0.00D+00
 Coeff-Com: -0.250D-03 0.329D-03-0.587D-04 0.415D-03 0.250D-03 0.954D-03
 Coeff-Com:  0.177D-01 0.540D-02-0.122D+00-0.223D+00 0.670D+00 0.650D+00
 Coeff:     -0.250D-03 0.329D-03-0.587D-04 0.415D-03 0.250D-03 0.954D-03
 Coeff:      0.177D-01 0.540D-02-0.122D+00-0.223D+00 0.670D+00 0.650D+00
 Gap=     0.247 Goal=   None    Shift=    0.000
 RMSDP=4.55D-06 MaxDP=5.83D-04 DE=-1.35D-07 OVMax= 1.22D-04

 Cycle  13  Pass 1  IDiag  1:
 RMSU=  1.12D-06    CP:  5.26D-01  2.48D+00  1.70D+00  8.55D-01  8.24D-01
                    CP:  7.28D-01  1.32D+00  1.64D+00  1.60D+00  2.12D+00
                    CP:  1.77D+00  1.08D+00
 E= -3010.53322283226     Delta-E=       -0.000000015977 Rises=F Damp=F
 DIIS: error= 2.53D-06 at cycle  13 NSaved=  13.
 NSaved=13 IEnMin=13 EnMin= -3010.53322283226     IErMin=13 ErrMin= 2.53D-06
 ErrMax= 2.53D-06  0.00D+00 EMaxC= 1.00D-01 BMatC= 5.53D-10 BMatP= 5.86D-09
 IDIUse=1 WtCom= 1.00D+00 WtEn= 0.00D+00
 Coeff-Com: -0.750D-05 0.963D-05-0.377D-04-0.114D-03-0.451D-03-0.107D-02
 Coeff-Com: -0.166D-02 0.558D-02 0.295D-01-0.913D-02-0.178D+00 0.201D-01
 Coeff-Com:  0.114D+01
 Coeff:     -0.750D-05 0.963D-05-0.377D-04-0.114D-03-0.451D-03-0.107D-02
 Coeff:     -0.166D-02 0.558D-02 0.295D-01-0.913D-02-0.178D+00 0.201D-01
 Coeff:      0.114D+01
 Gap=     0.247 Goal=   None    Shift=    0.000
 RMSDP=1.43D-06 MaxDP=9.64D-05 DE=-1.60D-08 OVMax= 6.06D-05

 Cycle  14  Pass 1  IDiag  1:
 RMSU=  7.75D-07    CP:  5.26D-01  2.48D+00  1.70D+00  8.55D-01  8.23D-01
                    CP:  7.28D-01  1.32D+00  1.64D+00  1.61D+00  2.12D+00
                    CP:  1.77D+00  1.39D+00  1.52D+00
 E= -3010.53322283546     Delta-E=       -0.000000003199 Rises=F Damp=F
 DIIS: error= 9.68D-07 at cycle  14 NSaved=  14.
 NSaved=14 IEnMin=14 EnMin= -3010.53322283546     IErMin=14 ErrMin= 9.68D-07
 ErrMax= 9.68D-07  0.00D+00 EMaxC= 1.00D-01 BMatC= 1.31D-10 BMatP= 5.53D-10
 IDIUse=1 WtCom= 1.00D+00 WtEn= 0.00D+00
 Coeff-Com:  0.109D-04-0.139D-04-0.118D-04-0.893D-04-0.154D-03-0.449D-03
 Coeff-Com: -0.340D-02 0.757D-03 0.314D-01 0.341D-01-0.176D+00-0.116D+00
 Coeff-Com:  0.421D+00 0.808D+00
 Coeff:      0.109D-04-0.139D-04-0.118D-04-0.893D-04-0.154D-03-0.449D-03
 Coeff:     -0.340D-02 0.757D-03 0.314D-01 0.341D-01-0.176D+00-0.116D+00
 Coeff:      0.421D+00 0.808D+00
 Gap=     0.247 Goal=   None    Shift=    0.000
 RMSDP=4.28D-07 MaxDP=3.58D-05 DE=-3.20D-09 OVMax= 1.84D-05

 Cycle  15  Pass 1  IDiag  1:
 RMSU=  1.84D-07    CP:  5.26D-01  2.48D+00  1.70D+00  8.55D-01  8.23D-01
                    CP:  7.28D-01  1.32D+00  1.64D+00  1.61D+00  2.12D+00
                    CP:  1.76D+00  1.45D+00  1.74D+00  1.09D+00
 E= -3010.53322283588     Delta-E=       -0.000000000419 Rises=F Damp=F
 DIIS: error= 3.87D-07 at cycle  15 NSaved=  15.
 NSaved=15 IEnMin=15 EnMin= -3010.53322283588     IErMin=15 ErrMin= 3.87D-07
 ErrMax= 3.87D-07  0.00D+00 EMaxC= 1.00D-01 BMatC= 1.56D-11 BMatP= 1.31D-10
 IDIUse=1 WtCom= 1.00D+00 WtEn= 0.00D+00
 Coeff-Com:  0.253D-05-0.326D-05 0.405D-05 0.793D-05 0.698D-04 0.145D-03
 Coeff-Com: -0.138D-03-0.761D-03-0.108D-02 0.682D-02 0.562D-02-0.279D-01
 Coeff-Com: -0.136D+00 0.176D+00 0.977D+00
 Coeff:      0.253D-05-0.326D-05 0.405D-05 0.793D-05 0.698D-04 0.145D-03
 Coeff:     -0.138D-03-0.761D-03-0.108D-02 0.682D-02 0.562D-02-0.279D-01
 Coeff:     -0.136D+00 0.176D+00 0.977D+00
 Gap=     0.247 Goal=   None    Shift=    0.000
 RMSDP=2.40D-07 MaxDP=1.66D-05 DE=-4.19D-10 OVMax= 7.49D-06

 Cycle  16  Pass 1  IDiag  1:
 RMSU=  8.11D-08    CP:  5.26D-01  2.48D+00  1.70D+00  8.55D-01  8.23D-01
                    CP:  7.28D-01  1.32D+00  1.64D+00  1.61D+00  2.12D+00
                    CP:  1.75D+00  1.45D+00  1.79D+00  1.14D+00  1.53D+00
 E= -3010.53322283594     Delta-E=       -0.000000000055 Rises=F Damp=F
 DIIS: error= 1.01D-07 at cycle  16 NSaved=  16.
 NSaved=16 IEnMin=16 EnMin= -3010.53322283594     IErMin=16 ErrMin= 1.01D-07
 ErrMax= 1.01D-07  0.00D+00 EMaxC= 1.00D-01 BMatC= 1.60D-12 BMatP= 1.56D-11
 IDIUse=1 WtCom= 1.00D+00 WtEn= 0.00D+00
 Coeff-Com:  0.145D-06-0.234D-06 0.240D-05 0.107D-04 0.292D-04 0.661D-04
 Coeff-Com:  0.283D-03-0.262D-03-0.351D-02-0.128D-02 0.184D-01 0.564D-02
 Coeff-Com: -0.690D-01-0.488D-01 0.143D+00 0.956D+00
 Coeff:      0.145D-06-0.234D-06 0.240D-05 0.107D-04 0.292D-04 0.661D-04
 Coeff:      0.283D-03-0.262D-03-0.351D-02-0.128D-02 0.184D-01 0.564D-02
 Coeff:     -0.690D-01-0.488D-01 0.143D+00 0.956D+00
 Gap=     0.247 Goal=   None    Shift=    0.000
 RMSDP=6.95D-08 MaxDP=2.78D-06 DE=-5.50D-11 OVMax= 2.09D-06

 Cycle  17  Pass 1  IDiag  1:
 RMSU=  2.80D-08    CP:  5.26D-01  2.48D+00  1.70D+00  8.55D-01  8.23D-01
                    CP:  7.28D-01  1.32D+00  1.64D+00  1.61D+00  2.13D+00
                    CP:  1.74D+00  1.45D+00  1.79D+00  1.15D+00  1.72D+00
                    CP:  1.25D+00
 E= -3010.53322283595     Delta-E=       -0.000000000010 Rises=F Damp=F
 DIIS: error= 4.40D-08 at cycle  17 NSaved=  17.
 NSaved=17 IEnMin=17 EnMin= -3010.53322283595     IErMin=17 ErrMin= 4.40D-08
 ErrMax= 4.40D-08  0.00D+00 EMaxC= 1.00D-01 BMatC= 3.86D-13 BMatP= 1.60D-12
 IDIUse=1 WtCom= 1.00D+00 WtEn= 0.00D+00
 Coeff-Com: -0.180D-05 0.240D-05-0.308D-06 0.274D-05 0.227D-06-0.271D-05
 Coeff-Com:  0.843D-04 0.942D-04-0.740D-03-0.988D-03 0.352D-02 0.491D-02
 Coeff-Com:  0.212D-02-0.330D-01-0.116D+00 0.217D+00 0.923D+00
 Coeff:     -0.180D-05 0.240D-05-0.308D-06 0.274D-05 0.227D-06-0.271D-05
 Coeff:      0.843D-04 0.942D-04-0.740D-03-0.988D-03 0.352D-02 0.491D-02
 Coeff:      0.212D-02-0.330D-01-0.116D+00 0.217D+00 0.923D+00
 Gap=     0.247 Goal=   None    Shift=    0.000
 RMSDP=4.26D-08 MaxDP=4.62D-06 DE=-1.05D-11 OVMax= 8.67D-07

 Cycle  18  Pass 1  IDiag  1:
 RMSU=  1.21D-08    CP:  5.26D-01  2.48D+00  1.70D+00  8.55D-01  8.23D-01
                    CP:  7.28D-01  1.32D+00  1.64D+00  1.61D+00  2.13D+00
                    CP:  1.74D+00  1.45D+00  1.79D+00  1.14D+00  1.79D+00
                    CP:  1.47D+00  1.19D+00
 E= -3010.53322283601     Delta-E=       -0.000000000064 Rises=F Damp=F
 DIIS: error= 1.95D-08 at cycle  18 NSaved=  18.
 NSaved=18 IEnMin=18 EnMin= -3010.53322283601     IErMin=18 ErrMin= 1.95D-08
 ErrMax= 1.95D-08  0.00D+00 EMaxC= 1.00D-01 BMatC= 6.99D-14 BMatP= 3.86D-13
 IDIUse=1 WtCom= 1.00D+00 WtEn= 0.00D+00
 Coeff-Com: -0.509D-06 0.683D-06-0.535D-06-0.131D-05-0.669D-05-0.171D-04
 Coeff-Com: -0.256D-04 0.103D-03 0.324D-03-0.205D-03-0.223D-02 0.663D-03
 Coeff-Com:  0.142D-01-0.183D-03-0.682D-01-0.976D-01 0.297D+00 0.856D+00
 Coeff:     -0.509D-06 0.683D-06-0.535D-06-0.131D-05-0.669D-05-0.171D-04
 Coeff:     -0.256D-04 0.103D-03 0.324D-03-0.205D-03-0.223D-02 0.663D-03
 Coeff:      0.142D-01-0.183D-03-0.682D-01-0.976D-01 0.297D+00 0.856D+00
 Gap=     0.247 Goal=   None    Shift=    0.000
 RMSDP=2.50D-08 MaxDP=2.65D-06 DE=-6.41D-11 OVMax= 6.19D-07

 Cycle  19  Pass 1  IDiag  1:
 RMSU=  4.23D-09    CP:  5.26D-01  2.48D+00  1.70D+00  8.55D-01  8.23D-01
                    CP:  7.28D-01  1.32D+00  1.64D+00  1.61D+00  2.13D+00
                    CP:  1.74D+00  1.45D+00  1.79D+00  1.13D+00  1.81D+00
                    CP:  1.53D+00  1.38D+00  1.28D+00
 E= -3010.53322283598     Delta-E=        0.000000000030 Rises=F Damp=F
 DIIS: error= 6.46D-09 at cycle  19 NSaved=  19.
 NSaved=19 IEnMin=18 EnMin= -3010.53322283601     IErMin=19 ErrMin= 6.46D-09
 ErrMax= 6.46D-09  0.00D+00 EMaxC= 1.00D-01 BMatC= 1.56D-14 BMatP= 6.99D-14
 IDIUse=1 WtCom= 1.00D+00 WtEn= 0.00D+00
 Large coefficients: NSaved= 19 BigCof=    0.00 CofMax=   10.00 Det=-1.68D-14
 Inversion failed.  Reducing to 18 matrices.
 Large coefficients: NSaved= 18 BigCof=    0.00 CofMax=   10.00 Det=-1.68D-14
 Inversion failed.  Reducing to 17 matrices.
 Coeff-Com: -0.426D-07-0.183D-06 0.158D-06 0.766D-07-0.847D-05-0.130D-04
 Coeff-Com:  0.103D-03 0.156D-03-0.425D-03-0.812D-03-0.272D-03 0.515D-02
 Coeff-Com:  0.149D-01-0.415D-01-0.175D+00 0.955D-01 0.110D+01
 Coeff:     -0.426D-07-0.183D-06 0.158D-06 0.766D-07-0.847D-05-0.130D-04
 Coeff:      0.103D-03 0.156D-03-0.425D-03-0.812D-03-0.272D-03 0.515D-02
 Coeff:      0.149D-01-0.415D-01-0.175D+00 0.955D-01 0.110D+01
 Gap=     0.247 Goal=   None    Shift=    0.000
 RMSDP=8.80D-09 MaxDP=5.91D-07 DE= 2.96D-11 OVMax= 3.46D-07

 SCF Done:  E(RwB97XD) =  -3010.53322284     A.U. after   19 cycles
            NFock= 19  Conv=0.88D-08     -V/T= 2.0016
 KE= 3.005860402329D+03 PE=-8.701289364217D+03 EE= 1.910574572854D+03
 Leave Link  502 at Thu May  2 14:18:58 2024, MaxMem=   134217728 cpu:            1176.7 elap:            1177.0
 (Enter /software/gaussian/g16-c01/sse4/g16/l601.exe)
 Copying SCF densities to generalized density rwf, IOpCl= 0 IROHF=0.

 **********************************************************************

            Population analysis using the SCF Density.

 **********************************************************************

 Alpha  occ. eigenvalues -- -483.33039 -62.88087 -56.67747 -56.67222 -56.67216
 Alpha  occ. eigenvalues --  -19.46509 -19.46470 -14.85946 -10.59832 -10.59074
 Alpha  occ. eigenvalues --  -10.57940 -10.57720 -10.53980 -10.53309  -9.03910
 Alpha  occ. eigenvalues --   -6.86501  -6.84767  -6.84748  -2.96426  -2.95966
 Alpha  occ. eigenvalues --   -2.95949  -2.94561  -2.94560  -1.50183  -1.33134
 Alpha  occ. eigenvalues --   -1.23169  -1.13795  -1.13120  -1.06094  -1.01019
 Alpha  occ. eigenvalues --   -0.96034  -0.91169  -0.85361  -0.81367  -0.80667
 Alpha  occ. eigenvalues --   -0.80437  -0.78461  -0.76556  -0.76178  -0.72966
 Alpha  occ. eigenvalues --   -0.69169  -0.68192  -0.64385  -0.61070  -0.58531
 Alpha  occ. eigenvalues --   -0.57679  -0.57164  -0.56221  -0.55723
 Alpha virt. eigenvalues --   -0.30983  -0.20837  -0.17210  -0.13587  -0.11708
 Alpha virt. eigenvalues --   -0.08749  -0.07782  -0.06940  -0.05907  -0.04620
 Alpha virt. eigenvalues --   -0.04163  -0.02939  -0.02157  -0.01641  -0.01162
 Alpha virt. eigenvalues --   -0.00674   0.00107   0.01119   0.02223   0.03002
 Alpha virt. eigenvalues --    0.04357   0.05000   0.05584   0.05728   0.06438
 Alpha virt. eigenvalues --    0.07215   0.07310   0.07974   0.08861   0.09695
 Alpha virt. eigenvalues --    0.09804   0.11065   0.11353   0.11880   0.12674
 Alpha virt. eigenvalues --    0.12924   0.13292   0.13463   0.14428   0.15984
 Alpha virt. eigenvalues --    0.16373   0.16930   0.17942   0.18663   0.19579
 Alpha virt. eigenvalues --    0.20205   0.20798   0.21012   0.22329   0.23740
 Alpha virt. eigenvalues --    0.23997   0.26951   0.27021   0.28134   0.29575
 Alpha virt. eigenvalues --    0.31281   0.32888   0.33561   0.34064   0.35786
 Alpha virt. eigenvalues --    0.36773   0.37448   0.39032   0.39921   0.41176
 Alpha virt. eigenvalues --    0.43167   0.43976   0.44889   0.46640   0.47149
 Alpha virt. eigenvalues --    0.48114   0.49851   0.50021   0.51169   0.53203
 Alpha virt. eigenvalues --    0.54459   0.55593   0.57638   0.57834   0.59705
 Alpha virt. eigenvalues --    0.60568   0.61776   0.63626   0.66299   0.67700
 Alpha virt. eigenvalues --    0.70929   0.71136   0.72539   0.73799   0.74208
 Alpha virt. eigenvalues --    0.74267   0.77053   0.79406   0.81783   0.84957
 Alpha virt. eigenvalues --    0.86301   0.87267   0.91122   0.93529   0.98407
 Alpha virt. eigenvalues --    1.00025   1.01961   1.03425   1.05140   1.06562
 Alpha virt. eigenvalues --    1.08365   1.12401   1.13111   1.13755   1.17535
 Alpha virt. eigenvalues --    1.20807   1.22593   1.27684   1.32953   1.35854
 Alpha virt. eigenvalues --    1.36454   1.38529   1.42445   1.54353   1.56286
 Alpha virt. eigenvalues --    1.56947   1.59488   1.60789   1.63537   1.65191
 Alpha virt. eigenvalues --    1.67762   1.70910   1.73683   1.74843   1.78963
 Alpha virt. eigenvalues --    1.83516   1.84904   1.86817   1.92845   1.94685
 Alpha virt. eigenvalues --    1.97384   2.01643   2.02476   2.06645   2.08041
 Alpha virt. eigenvalues --    2.12084   2.14055   2.21926   2.23363   2.27014
 Alpha virt. eigenvalues --    2.33108   2.39568   2.41220   2.44018   2.52807
 Alpha virt. eigenvalues --    2.57696   2.62747   2.65499   2.68306   2.71467
 Alpha virt. eigenvalues --    2.73371   2.76104   2.77072   2.80301   2.81515
 Alpha virt. eigenvalues --    2.92632   2.97721   3.01014   3.05286   3.08488
 Alpha virt. eigenvalues --    3.14408   3.15934   3.17162   3.22215   3.26304
 Alpha virt. eigenvalues --    3.27427   3.37597   3.46146   3.49773   3.54406
 Alpha virt. eigenvalues --    3.57189   3.68635   3.73962   3.83152   3.86834
 Alpha virt. eigenvalues --    4.08017   4.08846   4.17630   4.21690   4.41577
 Alpha virt. eigenvalues --    4.44865   4.54111   4.59507   4.93325   4.96182
 Alpha virt. eigenvalues --    5.05013   5.09513   5.61747   6.14926   6.66093
 Alpha virt. eigenvalues --    7.46829   7.49189   7.59388  23.21606  23.60797
 Alpha virt. eigenvalues --   23.71026  23.77426  23.95199  24.01630  35.31218
 Alpha virt. eigenvalues --   47.92249  49.84973  49.93637 289.79912 289.82254
 Alpha virt. eigenvalues --  289.948981020.93466
          Condensed to atoms (all electrons):
               1          2          3          4          5          6
     1  C    8.045905  -2.928320   1.086795  -0.166050   0.302919   0.052100
     2  C   -2.928320  17.481736  -5.155575   0.589146  -0.027280   0.184554
     3  C    1.086795  -5.155575  18.849863  -1.463942   0.038953   0.125532
     4  C   -0.166050   0.589146  -1.463942   6.480696   0.012075  -0.016710
     5  H    0.302919  -0.027280   0.038953   0.012075   0.328448  -0.001574
     6  H    0.052100   0.184554   0.125532  -0.016710  -0.001574   0.309486
     7  H    0.023493  -0.024246   0.024611   0.310602  -0.002762  -0.000005
     8  N   -0.109534   0.328028  -1.584098   0.018840  -0.000688  -0.030155
     9  O   -0.038239   0.146877  -0.307015  -0.010726  -0.000039  -0.002388
    10  O    0.278220  -0.315807  -0.110693  -0.030208   0.000046   0.021586
    11  C    0.853176  -1.117527   2.245386  -0.315801  -0.022650   0.009439
    12  H   -0.009545   0.012705   0.014633   0.007922   0.000005  -0.000016
    13  C   -1.287384  -3.184237  -7.453841   0.878340   0.024224  -0.004879
    14  H   -0.006114   0.012516   0.012045   0.007627  -0.000022   0.000017
    15  Br  -0.017916  -0.138445  -0.231970   0.042677  -0.000231  -0.000525
               7          8          9         10         11         12
     1  C    0.023493  -0.109534  -0.038239   0.278220   0.853176  -0.009545
     2  C   -0.024246   0.328028   0.146877  -0.315807  -1.117527   0.012705
     3  C    0.024611  -1.584098  -0.307015  -0.110693   2.245386   0.014633
     4  C    0.310602   0.018840  -0.010726  -0.030208  -0.315801   0.007922
     5  H   -0.002762  -0.000688  -0.000039   0.000046  -0.022650   0.000005
     6  H   -0.000005  -0.030155  -0.002388   0.021586   0.009439  -0.000016
     7  H    0.334152  -0.000016   0.000012  -0.000008   0.032395  -0.002235
     8  N   -0.000016   7.609078   0.122654   0.131566  -0.285986   0.000245
     9  O    0.000012   0.122654   7.835203   0.010371   0.241427   0.000089
    10  O   -0.000008   0.131566   0.010371   7.849198   0.024474  -0.000008
    11  C    0.032395  -0.285986   0.241427   0.024474   8.118498   0.325094
    12  H   -0.002235   0.000245   0.000089  -0.000008   0.325094   0.314598
    13  C   -0.030760   0.902666  -0.048401   0.070786  -3.962051  -0.018087
    14  H   -0.000010  -0.020131   0.006044  -0.001829  -0.008998  -0.003376
    15  Br  -0.000490   0.135097  -0.045787   0.000007   0.032521  -0.003388
              13         14         15
     1  C   -1.287384  -0.006114  -0.017916
     2  C   -3.184237   0.012516  -0.138445
     3  C   -7.453841   0.012045  -0.231970
     4  C    0.878340   0.007627   0.042677
     5  H    0.024224  -0.000022  -0.000231
     6  H   -0.004879   0.000017  -0.000525
     7  H   -0.030760  -0.000010  -0.000490
     8  N    0.902666  -0.020131   0.135097
     9  O   -0.048401   0.006044  -0.045787
    10  O    0.070786  -0.001829   0.000007
    11  C   -3.962051  -0.008998   0.032521
    12  H   -0.018087  -0.003376  -0.003388
    13  C   19.783277   0.307935   0.334797
    14  H    0.307935   0.275485  -0.029767
    15  Br   0.334797  -0.029767  34.854809
 Mulliken charges:
               1
     1  C   -0.079505
     2  C    0.135875
     3  C   -0.090686
     4  C   -0.344487
     5  H    0.348576
     6  H    0.353537
     7  H    0.335269
     8  N   -0.217565
     9  O    0.089917
    10  O    0.072300
    11  C   -0.169398
    12  H    0.361364
    13  C   -0.312385
    14  H    0.448578
    15  Br   0.068610
 Sum of Mulliken charges =   1.00000
 Mulliken charges with hydrogens summed into heavy atoms:
               1
     1  C    0.269071
     2  C    0.489412
     3  C   -0.090686
     4  C   -0.009218
     8  N   -0.217565
     9  O    0.089917
    10  O    0.072300
    11  C    0.191966
    13  C    0.136193
    15  Br   0.068610
 Electronic spatial extent (au):  <R**2>=           3948.7200
 Charge=              1.0000 electrons
 Dipole moment (field-independent basis, Debye):
    X=              2.6236    Y=             -0.4492    Z=              1.3285  Tot=              2.9749
 Quadrupole moment (field-independent basis, Debye-Ang):
   XX=            -67.8122   YY=            -51.8819   ZZ=            -64.9532
   XY=             -2.0606   XZ=              1.7253   YZ=              0.4232
 Traceless Quadrupole moment (field-independent basis, Debye-Ang):
   XX=             -6.2631   YY=              9.6672   ZZ=             -3.4041
   XY=             -2.0606   XZ=              1.7253   YZ=              0.4232
 Octapole moment (field-independent basis, Debye-Ang**2):
  XXX=           -511.4542  YYY=             95.6115  ZZZ=             94.0268  XYY=           -138.6114
  XXY=             26.3707  XXZ=             38.7828  XZZ=           -138.6600  YZZ=             22.8495
  YYZ=             32.4700  XYZ=              3.4523
 Hexadecapole moment (field-independent basis, Debye-Ang**3):
 XXXX=          -3434.6074 YYYY=           -710.3663 ZZZZ=           -423.5963 XXXY=            183.1767
 XXXZ=            229.8413 YYYX=            192.8699 YYYZ=           -185.0697 ZZZX=            190.9762
 ZZZY=           -162.1011 XXYY=           -628.7575 XXZZ=           -541.4557 YYZZ=           -184.9784
 XXYZ=            -52.7208 YYXZ=             64.0109 ZZXY=             41.3593
 N-N= 7.743211661973D+02 E-N=-8.701289364119D+03  KE= 3.005860402329D+03
 No NMR shielding tensors so no spin-rotation constants.
 Leave Link  601 at Thu May  2 14:19:06 2024, MaxMem=   134217728 cpu:               7.5 elap:               7.5
 (Enter /software/gaussian/g16-c01/sse4/g16/l9999.exe)
 Unable to Open any file for archive entry.
 1\1\GINC-BHX0016\SP\RwB97XD\6-311+G(d)\C6H5Br1N1O2(1+)\BWEIGHT\02-May-
 2024\0\\#P wB97XD/6-311+G* NoSymm #P Field=Z-116\\TitleMe\\1,1\C,0,0.5
 193,1.233,-0.0319\C,0,1.9445,1.2692,-0.0367\C,0,2.6204,0.0928,-0.025\C
 ,0,-0.196,0.0301,0.001\H,0,-0.0207,2.1742,-0.0434\H,0,2.4828,2.2089,-0
 .0361\H,0,-1.2777,0.0399,0.0117\N,0,4.0921,0.0959,0.0366\O,0,4.6393,-1
 .0217,0.1446\O,0,4.6649,1.1984,-0.0233\C,0,0.4943,-1.1671,0.021\H,0,-0
 .0325,-2.1149,0.0545\C,0,1.9629,-1.2165,-0.0211\H,0,2.4436,-1.9631,0.6
 151\Br,0,2.173,-1.9491,-1.9062\\Version=ES64L-G16RevC.01\HF=-3010.5332
 228\RMSD=8.801e-09\Dipole=-3.2969917,1.0513975,1.7718811\Quadrupole=-4
 .6564553,7.1873176,-2.5308623,-1.5320281,1.282738,0.3146055\PG=C01 [X(
 C6H5Br1N1O2)]\\@
 The archive entry for this job was punched.


 TELEVISION IS CALLED A MEDIUM BECAUSE IT ISN'T
 RARE, AND IT ISN'T WELL DONE.
 Job cpu time:       0 days  0 hours 20 minutes 46.1 seconds.
 Elapsed time:       0 days  0 hours 20 minutes 46.9 seconds.
 File lengths (MBytes):  RWF=     40 Int=      0 D2E=      0 Chk=     32 Scr=      1
 Normal termination of Gaussian 16 at Thu May  2 14:19:07 2024.
