 Entering Gaussian System, Link 0=g16
 Initial command:
 /software/gaussian/g16-a03/l1.exe "/local_scratch/6484972/Gau-29589.inp" -scrdir="/local_scratch/6484972/"
 Entering Link 1 = /software/gaussian/g16-a03/l1.exe PID=     29729.
  
 Copyright (c) 1988,1990,1992,1993,1995,1998,2003,2009,2016,
            Gaussian, Inc.  All Rights Reserved.
  
 This is part of the Gaussian(R) 16 program.  It is based on
 the Gaussian(R) 09 system (copyright 2009, Gaussian, Inc.),
 the Gaussian(R) 03 system (copyright 2003, Gaussian, Inc.),
 the Gaussian(R) 98 system (copyright 1998, Gaussian, Inc.),
 the Gaussian(R) 94 system (copyright 1995, Gaussian, Inc.),
 the Gaussian 92(TM) system (copyright 1992, Gaussian, Inc.),
 the Gaussian 90(TM) system (copyright 1990, Gaussian, Inc.),
 the Gaussian 88(TM) system (copyright 1988, Gaussian, Inc.),
 the Gaussian 86(TM) system (copyright 1986, Carnegie Mellon
 University), and the Gaussian 82(TM) system (copyright 1983,
 Carnegie Mellon University). Gaussian is a federally registered
 trademark of Gaussian, Inc.
  
 This software contains proprietary and confidential information,
 including trade secrets, belonging to Gaussian, Inc.
  
 This software is provided under written license and may be
 used, copied, transmitted, or stored only in accord with that
 written license.
  
 The following legend is applicable only to US Government
 contracts under FAR:
  
                    RESTRICTED RIGHTS LEGEND
  
 Use, reproduction and disclosure by the US Government is
 subject to restrictions as set forth in subparagraphs (a)
 and (c) of the Commercial Computer Software - Restricted
 Rights clause in FAR 52.227-19.
  
 Gaussian, Inc.
 340 Quinnipiac St., Bldg. 40, Wallingford CT 06492
  
  
 ---------------------------------------------------------------
 Warning -- This program may not be used in any manner that
 competes with the business of Gaussian, Inc. or will provide
 assistance to any competitor of Gaussian, Inc.  The licensee
 of this program is prohibited from giving any competitor of
 Gaussian, Inc. access to this program.  By using this program,
 the user acknowledges that Gaussian, Inc. is engaged in the
 business of creating and licensing software in the field of
 computational chemistry and represents and warrants to the
 licensee that it is not a competitor of Gaussian, Inc. and that
 it will not use this program in any manner prohibited above.
 ---------------------------------------------------------------
  

 Cite this work as:
 Gaussian 16, Revision A.03,
 M. J. Frisch, G. W. Trucks, H. B. Schlegel, G. E. Scuseria, 
 M. A. Robb, J. R. Cheeseman, G. Scalmani, V. Barone, 
 G. A. Petersson, H. Nakatsuji, X. Li, M. Caricato, A. V. Marenich, 
 J. Bloino, B. G. Janesko, R. Gomperts, B. Mennucci, H. P. Hratchian, 
 J. V. Ortiz, A. F. Izmaylov, J. L. Sonnenberg, D. Williams-Young, 
 F. Ding, F. Lipparini, F. Egidi, J. Goings, B. Peng, A. Petrone, 
 T. Henderson, D. Ranasinghe, V. G. Zakrzewski, J. Gao, N. Rega, 
 G. Zheng, W. Liang, M. Hada, M. Ehara, K. Toyota, R. Fukuda, 
 J. Hasegawa, M. Ishida, T. Nakajima, Y. Honda, O. Kitao, H. Nakai, 
 T. Vreven, K. Throssell, J. A. Montgomery, Jr., J. E. Peralta, 
 F. Ogliaro, M. J. Bearpark, J. J. Heyd, E. N. Brothers, K. N. Kudin, 
 V. N. Staroverov, T. A. Keith, R. Kobayashi, J. Normand, 
 K. Raghavachari, A. P. Rendell, J. C. Burant, S. S. Iyengar, 
 J. Tomasi, M. Cossi, J. M. Millam, M. Klene, C. Adamo, R. Cammi, 
 J. W. Ochterski, R. L. Martin, K. Morokuma, O. Farkas, 
 J. B. Foresman, and D. J. Fox, Gaussian, Inc., Wallingford CT, 2016.
 
 ******************************************
 Gaussian 16:  ES64L-G16RevA.03 25-Dec-2016
                17-Sep-2021 
 ******************************************
 %chk=geometry.chk
 %mem=2GB
 %nprocshared=1
 Will use up to    1 processors via shared memory.
 --------------------------------------------------------------------
 #p B3LYP/6-311+G** #p TD=(singlets,nstates=30)IOp(6/8=3) IOp(9/40=4)
 --------------------------------------------------------------------
 1/38=1,172=1/1;
 2/12=2,17=6,18=5,40=1/2;
 3/5=4,6=6,7=111,11=9,25=1,30=1,74=-5/1,2,3,8;
 4//1;
 5/5=2,38=5/2;
 8/6=1,10=2,108=30/1;
 9/40=4,41=30,42=1,48=1,70=2/14;
 6/7=2,8=3,9=2,10=2/1;
 99/5=1,9=1/99;
 Leave Link    1 at Fri Sep 17 10:52:38 2021, MaxMem=   268435456 cpu:               0.0 elap:               0.2
 (Enter /software/gaussian/g16-a03/l101.exe)
 --------------------------------
 Scan Step 241, Bond Length 1.705
 --------------------------------
 Symbolic Z-matrix:
 Charge =  0 Multiplicity = 1
 C                     0.        0.       -0.52736 
 H                     0.        0.93726  -1.11871 
 H                     0.       -0.93726  -1.11871 
 O                     0.        0.        1.17764 
 
 ITRead=  0  0  0  0
 MicOpt= -1 -1 -1 -1
 NAtoms=      4 NQM=        4 NQMF=       0 NMMI=      0 NMMIF=      0
                NMic=       0 NMicF=      0.
                    Isotopes and Nuclear Properties:
 (Nuclear quadrupole moments (NQMom) in fm**2, nuclear magnetic moments (NMagM)
  in nuclear magnetons)

  Atom         1           2           3           4
 IAtWgt=          12           1           1          16
 AtmWgt=  12.0000000   1.0078250   1.0078250  15.9949146
 NucSpn=           0           1           1           0
 AtZEff=  -0.0000000  -0.0000000  -0.0000000  -0.0000000
 NQMom=    0.0000000   0.0000000   0.0000000   0.0000000
 NMagM=    0.0000000   2.7928460   2.7928460   0.0000000
 AtZNuc=   6.0000000   1.0000000   1.0000000   8.0000000
 Leave Link  101 at Fri Sep 17 10:52:39 2021, MaxMem=   268435456 cpu:               0.1 elap:               0.1
 (Enter /software/gaussian/g16-a03/l202.exe)
                          Input orientation:                          
 ---------------------------------------------------------------------
 Center     Atomic      Atomic             Coordinates (Angstroms)
 Number     Number       Type             X           Y           Z
 ---------------------------------------------------------------------
      1          6           0        0.000000    0.000000   -0.527360
      2          1           0        0.000000    0.937260   -1.118710
      3          1           0        0.000000   -0.937260   -1.118710
      4          8           0        0.000000    0.000000    1.177640
 ---------------------------------------------------------------------
                    Distance matrix (angstroms):
                    1          2          3          4
     1  C    0.000000
     2  H    1.108220   0.000000
     3  H    1.108220   1.874520   0.000000
     4  O    1.705000   2.480258   2.480258   0.000000
 Stoichiometry    CH2O
 Framework group  C2V[C2(CO),SGV(H2)]
 Deg. of freedom     3
 Full point group                 C2V     NOp   4
 Largest Abelian subgroup         C2V     NOp   4
 Largest concise Abelian subgroup C2      NOp   2
                         Standard orientation:                         
 ---------------------------------------------------------------------
 Center     Atomic      Atomic             Coordinates (Angstroms)
 Number     Number       Type             X           Y           Z
 ---------------------------------------------------------------------
      1          6           0        0.000000    0.000000   -0.778581
      2          1           0        0.000000    0.937260   -1.369931
      3          1           0       -0.000000   -0.937260   -1.369931
      4          8           0        0.000000   -0.000000    0.926419
 ---------------------------------------------------------------------
 Rotational constants (GHZ):         285.4183527          20.5946507          19.2086324
 Leave Link  202 at Fri Sep 17 10:52:39 2021, MaxMem=   268435456 cpu:               0.0 elap:               0.0
 (Enter /software/gaussian/g16-a03/l301.exe)
 Standard basis: 6-311+G(d,p) (5D, 7F)
 Ernie: Thresh=  0.10000D-02 Tol=  0.10000D-05 Strict=F.
 There are    29 symmetry adapted cartesian basis functions of A1  symmetry.
 There are     3 symmetry adapted cartesian basis functions of A2  symmetry.
 There are    11 symmetry adapted cartesian basis functions of B1  symmetry.
 There are    15 symmetry adapted cartesian basis functions of B2  symmetry.
 There are    27 symmetry adapted basis functions of A1  symmetry.
 There are     3 symmetry adapted basis functions of A2  symmetry.
 There are    11 symmetry adapted basis functions of B1  symmetry.
 There are    15 symmetry adapted basis functions of B2  symmetry.
    56 basis functions,    88 primitive gaussians,    58 cartesian basis functions
     8 alpha electrons        8 beta electrons
       nuclear repulsion energy        24.3236735071 Hartrees.
 IExCor=  402 DFT=T Ex+Corr=B3LYP ExCW=0 ScaHFX=  0.200000
 ScaDFX=  0.800000  0.720000  1.000000  0.810000 ScalE2=  1.000000  1.000000
 IRadAn=      5 IRanWt=     -1 IRanGd=            0 ICorTp=0 IEmpDi=  4
 NAtoms=    4 NActive=    4 NUniq=    3 SFac= 1.78D+00 NAtFMM=   60 NAOKFM=F Big=F
 Integral buffers will be    131072 words long.
 Regular integral format.
 Two-electron integral symmetry is turned on.
 Leave Link  301 at Fri Sep 17 10:52:39 2021, MaxMem=   268435456 cpu:               0.1 elap:               0.1
 (Enter /software/gaussian/g16-a03/l302.exe)
 NPDir=0 NMtPBC=     1 NCelOv=     1 NCel=       1 NClECP=     1 NCelD=      1
         NCelK=      1 NCelE2=     1 NClLst=     1 CellRange=     0.0.
 One-electron integrals computed using PRISM.
 One-electron integral symmetry used in STVInt
 NBasis=    56 RedAO= T EigKep=  1.13D-02  NBF=    27     3    11    15
 NBsUse=    56 1.00D-06 EigRej= -1.00D+00 NBFU=    27     3    11    15
 Precomputing XC quadrature grid using
 IXCGrd= 4 IRadAn=           5 IRanWt=          -1 IRanGd=           0 AccXCQ= 0.00D+00.
 Generated NRdTot=       0 NPtTot=           0 NUsed=           0 NTot=          32
 NSgBfM=    58    58    58    58    58 MxSgAt=     4 MxSgA2=     4.
 Leave Link  302 at Fri Sep 17 10:52:39 2021, MaxMem=   268435456 cpu:               0.1 elap:               0.2
 (Enter /software/gaussian/g16-a03/l303.exe)
 DipDrv:  MaxL=1.
 Leave Link  303 at Fri Sep 17 10:52:39 2021, MaxMem=   268435456 cpu:               0.0 elap:               0.1
 (Enter /software/gaussian/g16-a03/l308.exe)
 Leave Link  308 at Fri Sep 17 10:52:39 2021, MaxMem=   268435456 cpu:               0.0 elap:               0.0
 (Enter /software/gaussian/g16-a03/l401.exe)
 ExpMin= 4.38D-02 ExpMax= 8.59D+03 ExpMxC= 1.30D+03 IAcc=3 IRadAn=         5 AccDes= 0.00D+00
 Harris functional with IExCor=  402 and IRadAn=       5 diagonalized for initial guess.
 HarFok:  IExCor=  402 AccDes= 0.00D+00 IRadAn=         5 IDoV= 1 UseB2=F ITyADJ=14
 ICtDFT=  3500011 ScaDFX=  1.000000  1.000000  1.000000  1.000000
 FoFCou: FMM=F IPFlag=           0 FMFlag=      100000 FMFlg1=           0
         NFxFlg=           0 DoJE=T BraDBF=F KetDBF=T FulRan=T
         wScrn=  0.000000 ICntrl=       500 IOpCl=  0 I1Cent=   200000004 NGrid=           0
         NMat0=    1 NMatS0=      1 NMatT0=    0 NMatD0=    1 NMtDS0=    0 NMtDT0=    0
 Petite list used in FoFCou.
 Harris En= -114.418451641291    
 JPrj=0 DoOrth=F DoCkMO=F.
 Initial guess orbital symmetries:
       Occupied  (A1) (A1) (A1) (A1) (B2) (A1) (B1) (B2)
       Virtual   (B1) (A1) (A1) (B2) (A1) (B1) (A1) (B2) (A1) (B1)
                 (B2) (A1) (B2) (A1) (B1) (A1) (B2) (A1) (B1) (A2)
                 (B2) (A1) (B1) (A1) (B2) (A1) (A1) (B2) (B1) (A2)
                 (A1) (B2) (A1) (B2) (A1) (B1) (A1) (A2) (A1) (B1)
                 (B2) (A1) (B2) (B1) (B2) (A1) (A1) (A1)
 The electronic state of the initial guess is 1-A1.
 Leave Link  401 at Fri Sep 17 10:52:39 2021, MaxMem=   268435456 cpu:               0.3 elap:               0.3
 (Enter /software/gaussian/g16-a03/l502.exe)
 Keep R1 ints in memory in symmetry-blocked form, NReq=2159901.
 FoFCou: FMM=F IPFlag=           0 FMFlag=           0 FMFlg1=           0
         NFxFlg=           0 DoJE=F BraDBF=F KetDBF=F FulRan=T
         wScrn=  0.000000 ICntrl=       600 IOpCl=  0 I1Cent=           0 NGrid=           0
         NMat0=    1 NMatS0=   1596 NMatT0=    0 NMatD0=    1 NMtDS0=    0 NMtDT0=    0
 Petite list used in FoFCou.
 Closed shell SCF:
 Using DIIS extrapolation, IDIIS=  1040.
 NGot=   268435456 LenX=   268074392 LenY=   268070587
 Requested convergence on RMS density matrix=1.00D-08 within 128 cycles.
 Requested convergence on MAX density matrix=1.00D-06.
 Requested convergence on             energy=1.00D-06.
 No special actions if energy rises.

 Cycle   1  Pass 1  IDiag  1:
 E= -114.268967550703    
 DIIS: error= 6.97D-02 at cycle   1 NSaved=   1.
 NSaved= 1 IEnMin= 1 EnMin= -114.268967550703     IErMin= 1 ErrMin= 6.97D-02
 ErrMax= 6.97D-02  0.00D+00 EMaxC= 1.00D-01 BMatC= 1.30D-01 BMatP= 1.30D-01
 IDIUse=3 WtCom= 3.03D-01 WtEn= 6.97D-01
 Coeff-Com:  0.100D+01
 Coeff-En:   0.100D+01
 Coeff:      0.100D+01
 Gap=     0.151 Goal=   None    Shift=    0.000
 GapD=    0.151 DampG=1.000 DampE=0.500 DampFc=0.5000 IDamp=-1.
 Damping current iteration by 5.00D-01
 RMSDP=2.05D-02 MaxDP=1.82D-01              OVMax= 4.11D-01

 Cycle   2  Pass 1  IDiag  1:
 E= -113.966398223024     Delta-E=        0.302569327679 Rises=F Damp=T
 DIIS: error= 8.82D-02 at cycle   2 NSaved=   2.
 NSaved= 2 IEnMin= 1 EnMin= -114.268967550703     IErMin= 1 ErrMin= 6.97D-02
 ErrMax= 8.82D-02  0.00D+00 EMaxC= 1.00D-01 BMatC= 2.65D-01 BMatP= 1.30D-01
 IDIUse=2 WtCom= 0.00D+00 WtEn= 1.00D+00
 Coeff-En:   0.738D+00 0.262D+00
 Coeff:      0.738D+00 0.262D+00
 Gap=     0.043 Goal=   None    Shift=    0.000
 RMSDP=5.29D-03 MaxDP=6.80D-02 DE= 3.03D-01 OVMax= 3.89D-01

 Cycle   3  Pass 1  IDiag  1:
 E= -114.052369173701     Delta-E=       -0.085970950677 Rises=F Damp=F
 DIIS: error= 1.42D-01 at cycle   3 NSaved=   3.
 NSaved= 3 IEnMin= 1 EnMin= -114.268967550703     IErMin= 1 ErrMin= 6.97D-02
 ErrMax= 1.42D-01  0.00D+00 EMaxC= 1.00D-01 BMatC= 3.69D-01 BMatP= 1.30D-01
 IDIUse=2 WtCom= 0.00D+00 WtEn= 1.00D+00
 Coeff-En:   0.654D+00 0.000D+00 0.346D+00
 Coeff:      0.654D+00 0.000D+00 0.346D+00
 Gap=     0.107 Goal=   None    Shift=    0.000
 RMSDP=4.55D-03 MaxDP=5.67D-02 DE=-8.60D-02 OVMax= 2.72D-01

 Cycle   4  Pass 1  IDiag  1:
 E= -114.382133819581     Delta-E=       -0.329764645880 Rises=F Damp=F
 DIIS: error= 2.00D-02 at cycle   4 NSaved=   4.
 NSaved= 4 IEnMin= 4 EnMin= -114.382133819581     IErMin= 4 ErrMin= 2.00D-02
 ErrMax= 2.00D-02  0.00D+00 EMaxC= 1.00D-01 BMatC= 9.09D-03 BMatP= 1.30D-01
 IDIUse=3 WtCom= 8.00D-01 WtEn= 2.00D-01
 Coeff-Com:  0.146D+00 0.292D-01-0.785D-01 0.903D+00
 Coeff-En:   0.112D+00 0.000D+00 0.000D+00 0.888D+00
 Coeff:      0.139D+00 0.233D-01-0.628D-01 0.900D+00
 Gap=     0.129 Goal=   None    Shift=    0.000
 RMSDP=1.00D-03 MaxDP=1.24D-02 DE=-3.30D-01 OVMax= 4.81D-02

 Cycle   5  Pass 1  IDiag  1:
 E= -114.389056803685     Delta-E=       -0.006922984104 Rises=F Damp=F
 DIIS: error= 3.24D-03 at cycle   5 NSaved=   5.
 NSaved= 5 IEnMin= 5 EnMin= -114.389056803685     IErMin= 5 ErrMin= 3.24D-03
 ErrMax= 3.24D-03  0.00D+00 EMaxC= 1.00D-01 BMatC= 3.67D-04 BMatP= 9.09D-03
 IDIUse=3 WtCom= 9.68D-01 WtEn= 3.24D-02
 Coeff-Com:  0.164D-01-0.142D-02-0.197D-01 0.316D+00 0.688D+00
 Coeff-En:   0.000D+00 0.000D+00 0.000D+00 0.619D-01 0.938D+00
 Coeff:      0.159D-01-0.137D-02-0.191D-01 0.308D+00 0.697D+00
 Gap=     0.129 Goal=   None    Shift=    0.000
 RMSDP=2.07D-04 MaxDP=2.93D-03 DE=-6.92D-03 OVMax= 1.08D-02

 Cycle   6  Pass 1  IDiag  1:
 E= -114.389292341051     Delta-E=       -0.000235537366 Rises=F Damp=F
 DIIS: error= 1.52D-03 at cycle   6 NSaved=   6.
 NSaved= 6 IEnMin= 6 EnMin= -114.389292341051     IErMin= 6 ErrMin= 1.52D-03
 ErrMax= 1.52D-03  0.00D+00 EMaxC= 1.00D-01 BMatC= 4.68D-05 BMatP= 3.67D-04
 IDIUse=3 WtCom= 9.85D-01 WtEn= 1.52D-02
 Coeff-Com:  0.358D-02-0.859D-03-0.103D-01 0.810D-01 0.253D+00 0.674D+00
 Coeff-En:   0.000D+00 0.000D+00 0.000D+00 0.000D+00 0.178D+00 0.822D+00
 Coeff:      0.353D-02-0.846D-03-0.101D-01 0.797D-01 0.251D+00 0.676D+00
 Gap=     0.130 Goal=   None    Shift=    0.000
 RMSDP=4.58D-05 MaxDP=6.28D-04 DE=-2.36D-04 OVMax= 2.68D-03

 Cycle   7  Pass 1  IDiag  1:
 E= -114.389331006113     Delta-E=       -0.000038665061 Rises=F Damp=F
 DIIS: error= 2.68D-04 at cycle   7 NSaved=   7.
 NSaved= 7 IEnMin= 7 EnMin= -114.389331006113     IErMin= 7 ErrMin= 2.68D-04
 ErrMax= 2.68D-04  0.00D+00 EMaxC= 1.00D-01 BMatC= 1.52D-06 BMatP= 4.68D-05
 IDIUse=3 WtCom= 9.97D-01 WtEn= 2.68D-03
 Coeff-Com:  0.614D-03-0.398D-04-0.519D-03-0.730D-02-0.706D-02-0.248D-01
 Coeff-Com:  0.104D+01
 Coeff-En:   0.000D+00 0.000D+00 0.000D+00 0.000D+00 0.000D+00 0.000D+00
 Coeff-En:   0.100D+01
 Coeff:      0.612D-03-0.397D-04-0.517D-03-0.728D-02-0.704D-02-0.248D-01
 Coeff:      0.104D+01
 Gap=     0.130 Goal=   None    Shift=    0.000
 RMSDP=1.07D-05 MaxDP=1.07D-04 DE=-3.87D-05 OVMax= 4.77D-04

 Cycle   8  Pass 1  IDiag  1:
 E= -114.389332278432     Delta-E=       -0.000001272320 Rises=F Damp=F
 DIIS: error= 1.99D-05 at cycle   8 NSaved=   8.
 NSaved= 8 IEnMin= 8 EnMin= -114.389332278432     IErMin= 8 ErrMin= 1.99D-05
 ErrMax= 1.99D-05  0.00D+00 EMaxC= 1.00D-01 BMatC= 9.94D-09 BMatP= 1.52D-06
 IDIUse=1 WtCom= 1.00D+00 WtEn= 0.00D+00
 Coeff-Com:  0.488D-04-0.234D-04 0.162D-04 0.176D-03 0.315D-03-0.539D-02
 Coeff-Com: -0.500D-01 0.105D+01
 Coeff:      0.488D-04-0.234D-04 0.162D-04 0.176D-03 0.315D-03-0.539D-02
 Coeff:     -0.500D-01 0.105D+01
 Gap=     0.130 Goal=   None    Shift=    0.000
 RMSDP=7.10D-07 MaxDP=8.05D-06 DE=-1.27D-06 OVMax= 2.95D-05

 Cycle   9  Pass 1  IDiag  1:
 E= -114.389332285577     Delta-E=       -0.000000007145 Rises=F Damp=F
 DIIS: error= 7.97D-06 at cycle   9 NSaved=   9.
 NSaved= 9 IEnMin= 9 EnMin= -114.389332285577     IErMin= 9 ErrMin= 7.97D-06
 ErrMax= 7.97D-06  0.00D+00 EMaxC= 1.00D-01 BMatC= 1.27D-09 BMatP= 9.94D-09
 IDIUse=1 WtCom= 1.00D+00 WtEn= 0.00D+00
 Coeff-Com:  0.795D-05-0.269D-06 0.392D-05 0.569D-05-0.885D-03-0.226D-02
 Coeff-Com: -0.284D-01-0.158D-01 0.105D+01
 Coeff:      0.795D-05-0.269D-06 0.392D-05 0.569D-05-0.885D-03-0.226D-02
 Coeff:     -0.284D-01-0.158D-01 0.105D+01
 Gap=     0.130 Goal=   None    Shift=    0.000
 RMSDP=3.18D-07 MaxDP=3.10D-06 DE=-7.15D-09 OVMax= 1.27D-05

 Cycle  10  Pass 1  IDiag  1:
 E= -114.389332286724     Delta-E=       -0.000000001146 Rises=F Damp=F
 DIIS: error= 4.25D-07 at cycle  10 NSaved=  10.
 NSaved=10 IEnMin=10 EnMin= -114.389332286724     IErMin=10 ErrMin= 4.25D-07
 ErrMax= 4.25D-07  0.00D+00 EMaxC= 1.00D-01 BMatC= 3.95D-12 BMatP= 1.27D-09
 IDIUse=1 WtCom= 1.00D+00 WtEn= 0.00D+00
 Coeff-Com:  0.403D-06 0.593D-06-0.411D-06-0.881D-06 0.416D-04 0.578D-04
 Coeff-Com:  0.214D-02-0.112D-01-0.906D-01 0.110D+01
 Coeff:      0.403D-06 0.593D-06-0.411D-06-0.881D-06 0.416D-04 0.578D-04
 Coeff:      0.214D-02-0.112D-01-0.906D-01 0.110D+01
 Gap=     0.130 Goal=   None    Shift=    0.000
 RMSDP=2.39D-08 MaxDP=2.88D-07 DE=-1.15D-09 OVMax= 1.09D-06

 Cycle  11  Pass 1  IDiag  1:
 E= -114.389332286727     Delta-E=       -0.000000000003 Rises=F Damp=F
 DIIS: error= 9.06D-08 at cycle  11 NSaved=  11.
 NSaved=11 IEnMin=11 EnMin= -114.389332286727     IErMin=11 ErrMin= 9.06D-08
 ErrMax= 9.06D-08  0.00D+00 EMaxC= 1.00D-01 BMatC= 1.46D-13 BMatP= 3.95D-12
 IDIUse=1 WtCom= 1.00D+00 WtEn= 0.00D+00
 Coeff-Com: -0.110D-06-0.404D-07 0.246D-07 0.167D-05 0.739D-05 0.261D-04
 Coeff-Com:  0.229D-03-0.167D-02 0.125D-02-0.813D-02 0.101D+01
 Coeff:     -0.110D-06-0.404D-07 0.246D-07 0.167D-05 0.739D-05 0.261D-04
 Coeff:      0.229D-03-0.167D-02 0.125D-02-0.813D-02 0.101D+01
 Gap=     0.130 Goal=   None    Shift=    0.000
 RMSDP=3.58D-09 MaxDP=4.89D-08 DE=-3.47D-12 OVMax= 2.28D-07

 SCF Done:  E(RB3LYP) =  -114.389332287     A.U. after   11 cycles
            NFock= 11  Conv=0.36D-08     -V/T= 2.0093
 KE= 1.133395052924D+02 PE=-3.171039129147D+02 EE= 6.505140182848D+01
 Leave Link  502 at Fri Sep 17 10:52:41 2021, MaxMem=   268435456 cpu:               1.9 elap:               2.2
 (Enter /software/gaussian/g16-a03/l801.exe)
 DoSCS=F DFT=T ScalE2(SS,OS)=  1.000000  1.000000
 ExpMin= 4.38D-02 ExpMax= 8.59D+03 ExpMxC= 1.30D+03 IAcc=3 IRadAn=         5 AccDes= 0.00D+00
 HarFok:  IExCor=  205 AccDes= 0.00D+00 IRadAn=         5 IDoV=-2 UseB2=F ITyADJ=14
 ICtDFT= 12500011 ScaDFX=  1.000000  1.000000  1.000000  1.000000
 Largest valence mixing into a core orbital is  5.40D-05
 Largest core mixing into a valence orbital is  1.27D-05
 Range of M.O.s used for correlation:     3    56
 NBasis=    56 NAE=     8 NBE=     8 NFC=     2 NFV=     0
 NROrb=     54 NOA=     6 NOB=     6 NVA=    48 NVB=    48
 Leave Link  801 at Fri Sep 17 10:52:42 2021, MaxMem=   268435456 cpu:               0.2 elap:               0.2
 (Enter /software/gaussian/g16-a03/l914.exe)
 RHF ground state
 Keep R1, R2, and R3 ints in memory in symmetry-blocked form, NReq=6042840.
 FoFCou: FMM=F IPFlag=           0 FMFlag=           0 FMFlg1=           0
         NFxFlg=           0 DoJE=F BraDBF=F KetDBF=F FulRan=T
         wScrn=  0.000000 ICntrl=       600 IOpCl=  0 I1Cent=           0 NGrid=           0
         NMat0=    1 NMatS0=   1596 NMatT0=    0 NMatD0=    1 NMtDS0=    0 NMtDT0=    0
 Petite list used in FoFCou.
 MDV=   268435456 DFT=T DoStab=F Mixed=T DoRPA=T DoScal=F NonHer=T
 Making orbital integer symmetry assigments:
 Orbital symmetries:
       Occupied  (A1) (A1) (A1) (A1) (B2) (A1) (B1) (B2)
       Virtual   (B1) (A1) (A1) (B2) (B1) (A1) (A1) (B2) (A1) (B1)
                 (B2) (A1) (A1) (B2) (B1) (A1) (B2) (A1) (A2) (B1)
                 (B2) (A1) (B1) (A1) (B2) (A1) (B2) (A1) (B1) (A2)
                 (A1) (B2) (A1) (B2) (A1) (B1) (A1) (A2) (A1) (B1)
                 (B2) (B2) (A1) (B1) (B2) (A1) (A1) (A1)
   120 initial guesses have been made.
 Convergence on wavefunction:    0.001000000000000
 Davidson Disk Diagonalization:  ConvIn= 1.00D-03 SkipCon=T Conv= 1.00D-03.
 Max sub-space:  1728 roots to seek:   120 dimension of matrix:          576
 Iteration     1 Dimension   120 NMult     0 NNew    120
 CISAX will form   120 AO SS matrices at one time.
 NMat=   120 NSing=   120 JSym2X=-1.
 New state      7 was old state      9
 New state      8 was old state      7
 New state      9 was old state      8
 New state     11 was old state     12
 New state     12 was old state     11
 New state     13 was old state     14
 New state     14 was old state     15
 New state     15 was old state     13
 New state     16 was old state     17
 New state     17 was old state     16
 New state     18 was old state     19
 New state     19 was old state     21
 New state     21 was old state     22
 New state     22 was old state     18
 New state     23 was old state     25
 New state     24 was old state     23
 New state     25 was old state     27
 New state     27 was old state     28
 New state     28 was old state     24
 New state     29 was old state     30
 New state     30 was old state     29
 Excitation Energies [eV] at current iteration:
 Root      1 :     1.637116931139342
 Root      2 :     4.267429580733705
 Root      3 :     4.707859012878214
 Root      4 :     5.018119980927545
 Root      5 :     5.969603850319396
 Root      6 :     6.961837251089888
 Root      7 :     7.208804685927843
 Root      8 :     7.719562280910257
 Root      9 :     8.033389048568104
 Root     10 :     8.591912285731018
 Root     11 :     8.695628100255906
 Root     12 :     8.766474631298735
 Root     13 :     9.369855475328528
 Root     14 :     9.500524557216623
 Root     15 :     9.720967859224698
 Root     16 :    10.127058732466200
 Root     17 :    10.261559108727740
 Root     18 :    10.813789489864160
 Root     19 :    10.948721152775970
 Root     20 :    11.138256784738840
 Root     21 :    11.141306113442650
 Root     22 :    11.161626818587130
 Root     23 :    11.574410529213410
 Root     24 :    11.647093444699100
 Root     25 :    12.133393255010430
 Root     26 :    12.250574759420170
 Root     27 :    12.502318028457210
 Root     28 :    12.607916047442170
 Root     29 :    13.038672335748040
 Root     30 :    13.171309535274030
 Root     31 :    13.593678801405660
 Root     32 :    13.804539658452250
 Root     33 :    13.854597441037780
 Root     34 :    13.915938262921500
 Root     35 :    14.247131821012800
 Root     36 :    14.506080385067330
 Root     37 :    14.554562667823540
 Root     38 :    14.790806874348310
 Root     39 :    15.421855705830560
 Root     40 :    15.727501397435580
 Root     41 :    15.862476636472760
 Root     42 :    15.867781317864140
 Root     43 :    16.132460623600640
 Root     44 :    16.363576573118300
 Root     45 :    17.397385325028690
 Root     46 :    17.517043124001080
 Root     47 :    17.565344328023240
 Root     48 :    17.816990098116740
 Root     49 :    18.055729415652840
 Root     50 :    18.108901587019930
 Root     51 :    18.239223992810920
 Root     52 :    18.391777594148510
 Root     53 :    18.844278878388140
 Root     54 :    19.108644462083180
 Root     55 :    19.315398963119410
 Root     56 :    19.789951491861930
 Root     57 :    19.941666164483500
 Root     58 :    20.157373644770020
 Root     59 :    20.367108340590150
 Root     60 :    20.467950641520080
 Root     61 :    20.639341815853090
 Root     62 :    20.854480392173580
 Root     63 :    21.195054918766220
 Root     64 :    21.344586164164010
 Root     65 :    21.807744945154730
 Root     66 :    21.906681316604370
 Root     67 :    21.919747497296860
 Root     68 :    22.465452805642690
 Root     69 :    22.976374499491630
 Root     70 :    23.196978175793050
 Root     71 :    23.198448934006010
 Root     72 :    23.386466425050770
 Root     73 :    23.447305795075370
 Root     74 :    23.916603398888850
 Root     75 :    23.986784825981690
 Root     76 :    24.228053931320920
 Root     77 :    24.737675348505540
 Root     78 :    24.743529934145360
 Root     79 :    24.944544189011320
 Root     80 :    25.223224518768310
 Root     81 :    25.282357023192230
 Root     82 :    25.433704925866320
 Root     83 :    25.488616250607240
 Root     84 :    25.933331682915500
 Root     85 :    26.121377958312720
 Root     86 :    26.409833854920110
 Root     87 :    26.524472498472480
 Root     88 :    27.020317199805280
 Root     89 :    27.488662471697090
 Root     90 :    28.344665893668960
 Root     91 :    28.612887363877040
 Root     92 :    28.714747732568300
 Root     93 :    29.242715867252570
 Root     94 :    29.377743187097180
 Root     95 :    29.769850930129390
 Root     96 :    30.134696754276370
 Root     97 :    30.713126982061550
 Root     98 :    31.357723525569500
 Root     99 :    31.768059693204430
 Root    100 :    32.751653968237750
 Root    101 :    33.077444773222870
 Root    102 :    33.246025944111400
 Root    103 :    33.584811726217670
 Root    104 :    34.201305027275300
 Root    105 :    34.295854650931230
 Root    106 :    34.334628382648670
 Root    107 :    34.527673603843940
 Root    108 :    34.951686616137570
 Root    109 :    35.820670008616550
 Root    110 :    35.900542757070740
 Root    111 :    36.052383098871220
 Root    112 :    36.318314902254130
 Root    113 :    37.066609788160560
 Root    114 :    37.172519574996750
 Root    115 :    37.880974452226300
 Root    116 :    38.225730599158100
 Root    117 :    38.258778909027110
 Root    118 :    38.965042273528780
 Root    119 :    39.808708227587590
 Root    120 :    43.727233660375930
 Iteration     2 Dimension   180 NMult   120 NNew     60
 CISAX will form    60 AO SS matrices at one time.
 NMat=    60 NSing=    60 JSym2X=-1.
 Root      1 not converged, maximum delta is    0.006764444478423
 Root      2 not converged, maximum delta is    0.005275356319336
 Root      3 not converged, maximum delta is    0.009342342173695
 Root      4 not converged, maximum delta is    0.008034190029547
 Root      5 not converged, maximum delta is    0.007964294128543
 Root      6 not converged, maximum delta is    0.002729791212976
 Root      7 not converged, maximum delta is    0.011357875034344
 Root      8 not converged, maximum delta is    0.003277477185720
 Root      9 not converged, maximum delta is    0.001960432260789
 Root     10 not converged, maximum delta is    0.001904227781294
 Root     11 not converged, maximum delta is    0.003299747570742
 Root     12 not converged, maximum delta is    0.001543318573149
 Root     13 not converged, maximum delta is    0.004092551297698
 Root     14 not converged, maximum delta is    0.002456165520756
 Root     15 not converged, maximum delta is    0.005649155270230
 Root     16 not converged, maximum delta is    0.002393715659347
 Root     17 not converged, maximum delta is    0.005877604107945
 Root     18 not converged, maximum delta is    0.004993878197657
 Root     19 not converged, maximum delta is    0.043492078461680
 Root     20 not converged, maximum delta is    0.041656054322332
 Root     21 not converged, maximum delta is    0.004048343449376
 Root     22 not converged, maximum delta is    0.009369696028981
 Root     23 not converged, maximum delta is    0.004496273200077
 Root     24 not converged, maximum delta is    0.001594390911297
 Root     25 not converged, maximum delta is    0.007083153846296
 Root     26 not converged, maximum delta is    0.004623354823087
 Root     27 not converged, maximum delta is    0.002892822415931
 Root     28 not converged, maximum delta is    0.007834085978160
 Root     29 not converged, maximum delta is    0.005071005627234
 Root     30 not converged, maximum delta is    0.006638737942511
 Excitation Energies [eV] at current iteration:
 Root      1 :     1.629055449892427   Change is   -0.008061481246915
 Root      2 :     4.249623312873874   Change is   -0.017806267859831
 Root      3 :     4.680471701360601   Change is   -0.027387311517613
 Root      4 :     4.987169065368108   Change is   -0.030950915559437
 Root      5 :     5.951273499315717   Change is   -0.018330351003679
 Root      6 :     6.958805004166485   Change is   -0.003032246923403
 Root      7 :     7.193457751083698   Change is   -0.015346934844146
 Root      8 :     7.717782508861057   Change is   -0.001779772049200
 Root      9 :     8.032408659091219   Change is   -0.000980389476885
 Root     10 :     8.591541408868506   Change is   -0.000370876862511
 Root     11 :     8.690786124762415   Change is   -0.004841975493491
 Root     12 :     8.765960079176475   Change is   -0.000514552122261
 Root     13 :     9.366826967561090   Change is   -0.003028507767437
 Root     14 :     9.498315190304092   Change is   -0.002209366912531
 Root     15 :     9.712054214933840   Change is   -0.008913644290860
 Root     16 :    10.125389138075360   Change is   -0.001669594390836
 Root     17 :    10.252647988915880   Change is   -0.008911119811856
 Root     18 :    10.811046181651560   Change is   -0.002743308212604
 Root     19 :    10.930418437990190   Change is   -0.018302714785774
 Root     20 :    11.126863896669170   Change is   -0.011392888069673
 Root     21 :    11.139028631271230   Change is   -0.002277482171421
 Root     22 :    11.148197494102160   Change is   -0.013429324484973
 Root     23 :    11.567476183823630   Change is   -0.006934345389776
 Root     24 :    11.646283741567270   Change is   -0.000809703131822
 Root     25 :    12.129385133003000   Change is   -0.004008122007431
 Root     26 :    12.245979821514130   Change is   -0.004594937906040
 Root     27 :    12.499839309617260   Change is   -0.002478718839952
 Root     28 :    12.589389322732460   Change is   -0.018526724709706
 Root     29 :    13.034730769374950   Change is   -0.003941566373087
 Root     30 :    13.162748104580980   Change is   -0.008561430693055
 Iteration     3 Dimension   240 NMult   180 NNew     60
 CISAX will form    60 AO SS matrices at one time.
 NMat=    60 NSing=    60 JSym2X=-1.
 Root      1 has converged.
 Root      2 has converged.
 Root      3 has converged.
 Root      4 has converged.
 Root      5 has converged.
 Root      6 has converged.
 Root      7 has converged.
 Root      8 has converged.
 Root      9 has converged.
 Root     10 has converged.
 Root     11 has converged.
 Root     12 has converged.
 Root     13 has converged.
 Root     14 has converged.
 Root     15 has converged.
 Root     16 has converged.
 Root     17 has converged.
 Root     18 has converged.
 Root     19 has converged.
 Root     20 has converged.
 Root     21 has converged.
 Root     22 has converged.
 Root     23 has converged.
 Root     24 has converged.
 Root     25 has converged.
 Root     26 has converged.
 Root     27 has converged.
 Root     28 has converged.
 Root     29 has converged.
 Root     30 has converged.
 Excitation Energies [eV] at current iteration:
 Root      1 :     1.629054375347731   Change is   -0.000001074544695
 Root      2 :     4.249608980956297   Change is   -0.000014331917577
 Root      3 :     4.680457218737408   Change is   -0.000014482623192
 Root      4 :     4.987155385305085   Change is   -0.000013680063023
 Root      5 :     5.951267113393167   Change is   -0.000006385922550
 Root      6 :     6.958803425749776   Change is   -0.000001578416709
 Root      7 :     7.193452222547609   Change is   -0.000005528536089
 Root      8 :     7.717781747847039   Change is   -0.000000761014018
 Root      9 :     8.032407626922039   Change is   -0.000001032169181
 Root     10 :     8.591541346150679   Change is   -0.000000062717828
 Root     11 :     8.690782249305892   Change is   -0.000003875456524
 Root     12 :     8.765959798817057   Change is   -0.000000280359417
 Root     13 :     9.366821912591048   Change is   -0.000005054970042
 Root     14 :     9.498313776378051   Change is   -0.000001413926041
 Root     15 :     9.712035774860052   Change is   -0.000018440073787
 Root     16 :    10.125387859534370   Change is   -0.000001278540990
 Root     17 :    10.252633458094250   Change is   -0.000014530821627
 Root     18 :    10.811043000535210   Change is   -0.000003181116348
 Root     19 :    10.930395108577640   Change is   -0.000023329412556
 Root     20 :    11.126851926840470   Change is   -0.000011969828696
 Root     21 :    11.139025307720170   Change is   -0.000003323551057
 Root     22 :    11.148165288679810   Change is   -0.000032205422348
 Root     23 :    11.567469603832410   Change is   -0.000006579991228
 Root     24 :    11.646283319590380   Change is   -0.000000421976895
 Root     25 :    12.129383510748510   Change is   -0.000001622254488
 Root     26 :    12.245972646063050   Change is   -0.000007175451076
 Root     27 :    12.499834667842540   Change is   -0.000004641774719
 Root     28 :    12.589341515971520   Change is   -0.000047806760944
 Root     29 :    13.034724509771420   Change is   -0.000006259603539
 Root     30 :    13.162725479045650   Change is   -0.000022625535326
 Convergence achieved on expansion vectors.
 ***********************************************************************
 Excited states from <AA,BB:AA,BB> singles matrix:
 ***********************************************************************
 
 1PDM for each excited state written to RWF  633
 Ground to excited state transition densities written to RWF  633
 Ground to excited state transition electric dipole moments (Au):
       state          X           Y           Z        Dip. S.      Osc.
         1        -0.0000      0.0000      0.0000      0.0000      0.0000
         2        -0.0000      0.0000      0.7043      0.4960      0.0516
         3         0.0971      0.0000     -0.0000      0.0094      0.0011
         4         0.0000     -0.2285      0.0000      0.0522      0.0064
         5        -0.2334     -0.0000      0.0000      0.0545      0.0079
         6        -0.0000     -0.0928      0.0000      0.0086      0.0015
         7        -0.0000     -0.0000      0.0000      0.0000      0.0000
         8        -0.6440      0.0000      0.0000      0.4147      0.0784
         9         0.0000      0.0000     -0.2880      0.0829      0.0163
        10         0.0000      0.0000     -0.0000      0.0000      0.0000
        11         0.0000     -0.3718     -0.0000      0.1383      0.0294
        12         0.0000      0.0000     -0.0000      0.0000      0.0000
        13        -0.0000      0.0000      0.3853      0.1485      0.0341
        14        -0.3252      0.0000      0.0000      0.1057      0.0246
        15         0.0000      0.0000     -0.9863      0.9729      0.2315
        16        -0.0000     -0.2948     -0.0000      0.0869      0.0216
        17         0.0000     -0.0000     -0.4694      0.2203      0.0553
        18        -0.4241     -0.0000      0.0000      0.1799      0.0476
        19        -0.0000      0.2529      0.0000      0.0639      0.0171
        20         0.0000     -0.1685      0.0000      0.0284      0.0077
        21         0.0000     -0.0000      0.0000      0.0000      0.0000
        22        -0.0000     -0.0000     -0.9977      0.9954      0.2719
        23        -0.0000     -0.0737     -0.0000      0.0054      0.0015
        24        -0.1013     -0.0000      0.0000      0.0103      0.0029
        25        -0.0000     -0.0000      0.0000      0.0000      0.0000
        26        -0.0000     -0.6877     -0.0000      0.4729      0.1419
        27         0.1093      0.0000      0.0000      0.0120      0.0037
        28         0.0000     -0.0000      1.0906      1.1895      0.3669
        29         0.0000     -0.0000     -0.2144      0.0460      0.0147
        30         0.0000     -0.0000      0.6235      0.3887      0.1253
 Ground to excited state transition velocity dipole moments (Au):
       state          X           Y           Z        Dip. S.      Osc.
         1         0.0000     -0.0000     -0.0000      0.0000      0.0000
         2        -0.0000      0.0000     -0.0979      0.0096      0.0409
         3        -0.0364     -0.0000      0.0000      0.0013      0.0051
         4        -0.0000      0.0396      0.0000      0.0016      0.0057
         5         0.0424      0.0000      0.0000      0.0018      0.0055
         6         0.0000      0.0195     -0.0000      0.0004      0.0010
         7         0.0000      0.0000     -0.0000      0.0000      0.0000
         8         0.1855     -0.0000     -0.0000      0.0344      0.0809
         9        -0.0000      0.0000      0.0827      0.0068      0.0155
        10        -0.0000     -0.0000      0.0000      0.0000      0.0000
        11         0.0000      0.1229      0.0000      0.0151      0.0315
        12         0.0000     -0.0000      0.0000      0.0000      0.0000
        13        -0.0000     -0.0000     -0.1304      0.0170      0.0330
        14         0.1270     -0.0000     -0.0000      0.0161      0.0308
        15         0.0000      0.0000      0.3563      0.1269      0.2371
        16        -0.0000      0.1129      0.0000      0.0127      0.0228
        17        -0.0000     -0.0000      0.1870      0.0350      0.0619
        18         0.1519     -0.0000     -0.0000      0.0231      0.0387
        19         0.0000     -0.1067     -0.0000      0.0114      0.0189
        20        -0.0000      0.0662     -0.0000      0.0044      0.0071
        21        -0.0000      0.0000     -0.0000      0.0000      0.0000
        22         0.0000      0.0000      0.4104      0.1685      0.2741
        23         0.0000      0.0237      0.0000      0.0006      0.0009
        24         0.0383     -0.0000     -0.0000      0.0015      0.0023
        25         0.0000      0.0000     -0.0000      0.0000      0.0000
        26        -0.0000      0.3050      0.0000      0.0930      0.1378
        27        -0.0408     -0.0000     -0.0000      0.0017      0.0024
        28        -0.0000      0.0000     -0.4887      0.2388      0.3441
        29        -0.0000      0.0000      0.0946      0.0089      0.0125
        30        -0.0000      0.0000     -0.2882      0.0831      0.1145
 Ground to excited state transition magnetic dipole moments (Au):
       state          X           Y           Z
         1        -0.0000     -0.0000      0.9984
         2         0.0000     -0.0000     -0.0000
         3        -0.0000     -1.7977     -0.0000
         4         0.3626     -0.0000      0.0000
         5        -0.0000     -0.5754     -0.0000
         6        -0.3568      0.0000     -0.0000
         7        -0.0000     -0.0000     -1.0270
         8        -0.0000     -0.1766      0.0000
         9         0.0000     -0.0000      0.0000
        10         0.0000     -0.0000      0.0048
        11        -0.5573     -0.0000      0.0000
        12        -0.0000     -0.0000      0.0254
        13         0.0000     -0.0000      0.0000
        14        -0.0000      0.3224     -0.0000
        15        -0.0000     -0.0000     -0.0000
        16         0.3873     -0.0000      0.0000
        17         0.0000     -0.0000     -0.0000
        18        -0.0000      0.2073      0.0000
        19         0.6793      0.0000      0.0000
        20         0.2474     -0.0000      0.0000
        21         0.0000     -0.0000     -0.0643
        22         0.0000     -0.0000      0.0000
        23         0.1024     -0.0000     -0.0000
        24        -0.0000      0.0985      0.0000
        25        -0.0000      0.0000     -0.0324
        26         0.8367      0.0000     -0.0000
        27        -0.0000      0.0399      0.0000
        28         0.0000      0.0000     -0.0000
        29        -0.0000      0.0000     -0.0000
        30        -0.0000      0.0000     -0.0000
 Ground to excited state transition velocity quadrupole moments (Au):
       state          XX          YY          ZZ          XY          XZ          YZ
         1         0.0000      0.0000      0.0000     -0.0312     -0.0000     -0.0000
         2         0.0659     -0.0061     -0.0355      0.0000     -0.0000     -0.0000
         3         0.0000      0.0000     -0.0000      0.0000     -0.1077      0.0000
         4        -0.0000      0.0000     -0.0000      0.0000     -0.0000      0.0056
         5        -0.0000      0.0000     -0.0000      0.0000      0.1753      0.0000
         6         0.0000      0.0000      0.0000     -0.0000     -0.0000      0.2832
         7        -0.0000      0.0000      0.0000      0.1758      0.0000      0.0000
         8        -0.0000      0.0000      0.0000     -0.0000     -0.1363      0.0000
         9         0.0373      0.0622     -0.2145      0.0000     -0.0000     -0.0000
        10         0.0000     -0.0000     -0.0000      0.0808     -0.0000     -0.0000
        11         0.0000     -0.0000     -0.0000      0.0000     -0.0000      0.2086
        12         0.0000     -0.0000     -0.0000      0.2798     -0.0000      0.0000
        13         0.7936      0.0530     -0.0661      0.0000     -0.0000     -0.0000
        14         0.0000      0.0000      0.0000     -0.0000      0.3245     -0.0000
        15         0.1760      0.0439     -0.3365     -0.0000      0.0000      0.0000
        16        -0.0000     -0.0000     -0.0000      0.0000     -0.0000     -0.0544
        17         0.2714      0.2894      0.5679      0.0000     -0.0000      0.0000
        18         0.0000      0.0000      0.0000     -0.0000     -0.0532     -0.0000
        19         0.0000      0.0000      0.0000      0.0000     -0.0000      0.6190
        20         0.0000      0.0000      0.0000      0.0000      0.0000     -0.0819
        21         0.0000      0.0000      0.0000     -0.2731     -0.0000      0.0000
        22        -0.0631     -0.4063     -0.1550     -0.0000     -0.0000      0.0000
        23         0.0000     -0.0000     -0.0000      0.0000     -0.0000      0.4411
        24        -0.0000      0.0000      0.0000      0.0000     -0.1473      0.0000
        25        -0.0000      0.0000      0.0000      0.3773      0.0000      0.0000
        26         0.0000     -0.0000     -0.0000      0.0000      0.0000     -0.7149
        27        -0.0000      0.0000      0.0000      0.0000      0.3315      0.0000
        28        -0.2893      0.5080     -0.2205      0.0000      0.0000      0.0000
        29        -0.2883      0.3199      0.2433      0.0000      0.0000     -0.0000
        30        -0.0215      0.1401      0.1666     -0.0000      0.0000     -0.0000
 <0|del|b> * <b|rxdel|0> + <0|del|b> * <b|delr+rdel|0>
 Rotatory Strengths (R) in cgs (10**-40 erg-esu-cm/Gauss)
       state          XX          YY          ZZ    R(velocity)    E-M Angle
         1        -0.0000     -0.0000      0.0000     -0.0000       90.00
         2        -0.0000      0.0000     -0.0000      0.0000       90.00
         3         0.0000      0.0000      0.0000      0.0000       90.00
         4        -0.0000     -0.0000     -0.0000     -0.0000       90.00
         5        -0.0000      0.0000     -0.0000     -0.0000       90.00
         6         0.0000     -0.0000     -0.0000     -0.0000       90.00
         7         0.0000      0.0000     -0.0000      0.0000       90.00
         8         0.0000      0.0000     -0.0000     -0.0000       90.00
         9         0.0000     -0.0000     -0.0000      0.0000       90.00
        10         0.0000     -0.0000     -0.0000      0.0000       90.00
        11        -0.0000     -0.0000     -0.0000     -0.0000       90.00
        12         0.0000     -0.0000     -0.0000      0.0000       90.00
        13        -0.0000      0.0000      0.0000     -0.0000       90.00
        14         0.0000     -0.0000     -0.0000     -0.0000       90.00
        15        -0.0000     -0.0000     -0.0000     -0.0000       90.00
        16         0.0000     -0.0000     -0.0000     -0.0000       90.00
        17         0.0000     -0.0000      0.0000     -0.0000       90.00
        18        -0.0000     -0.0000      0.0000     -0.0000       90.00
        19        -0.0000      0.0000     -0.0000      0.0000       90.00
        20        -0.0000     -0.0000     -0.0000     -0.0000       90.00
        21         0.0000     -0.0000     -0.0000      0.0000       90.00
        22        -0.0000      0.0000     -0.0000      0.0000       90.00
        23         0.0000      0.0000     -0.0000      0.0000       90.00
        24        -0.0000      0.0000     -0.0000     -0.0000       90.00
        25        -0.0000      0.0000     -0.0000      0.0000       90.00
        26         0.0000     -0.0000      0.0000      0.0000       90.00
        27         0.0000      0.0000     -0.0000      0.0000       90.00
        28        -0.0000      0.0000      0.0000      0.0000       90.00
        29         0.0000     -0.0000      0.0000     -0.0000       90.00
        30         0.0000     -0.0000      0.0000      0.0000       90.00
 1/2[<0|r|b>*<b|rxdel|0> + (<0|rxdel|b>*<b|r|0>)*]
 Rotatory Strengths (R) in cgs (10**-40 erg-esu-cm/Gauss)
       state          XX          YY          ZZ     R(length)
         1        -0.0000      0.0000     -0.0000     -0.0000
         2         0.0000      0.0000      0.0000      0.0000
         3         0.0000      0.0000     -0.0000      0.0000
         4        -0.0000     -0.0000     -0.0000     -0.0000
         5        -0.0000     -0.0000      0.0000     -0.0000
         6        -0.0000      0.0000      0.0000     -0.0000
         7        -0.0000     -0.0000      0.0000      0.0000
         8        -0.0000      0.0000     -0.0000     -0.0000
         9        -0.0000      0.0000      0.0000      0.0000
        10        -0.0000      0.0000      0.0000      0.0000
        11         0.0000     -0.0000      0.0000      0.0000
        12         0.0000      0.0000      0.0000      0.0000
        13         0.0000      0.0000     -0.0000     -0.0000
        14        -0.0000     -0.0000      0.0000     -0.0000
        15         0.0000      0.0000     -0.0000     -0.0000
        16         0.0000     -0.0000      0.0000     -0.0000
        17        -0.0000     -0.0000     -0.0000     -0.0000
        18        -0.0000      0.0000     -0.0000     -0.0000
        19         0.0000     -0.0000     -0.0000      0.0000
        20        -0.0000     -0.0000     -0.0000     -0.0000
        21        -0.0000     -0.0000      0.0000      0.0000
        22         0.0000     -0.0000      0.0000      0.0000
        23         0.0000     -0.0000     -0.0000      0.0000
        24        -0.0000      0.0000     -0.0000      0.0000
        25        -0.0000      0.0000      0.0000      0.0000
        26         0.0000      0.0000     -0.0000      0.0000
        27         0.0000     -0.0000     -0.0000      0.0000
        28        -0.0000      0.0000      0.0000      0.0000
        29         0.0000      0.0000     -0.0000     -0.0000
        30         0.0000      0.0000      0.0000      0.0000
  1/2[<0|del|b>*<b|r|0> + (<0|r|b>*<b|del|0>)*] (Au)
       state          X           Y           Z        Dip. S.   Osc.(frdel)
         1        -0.0000     -0.0000     -0.0000      0.0000      0.0000
         2         0.0000      0.0000     -0.0690      0.0690      0.0460
         3        -0.0035     -0.0000     -0.0000      0.0035      0.0024
         4        -0.0000     -0.0091      0.0000      0.0091      0.0060
         5        -0.0099     -0.0000      0.0000      0.0099      0.0066
         6        -0.0000     -0.0018     -0.0000      0.0018      0.0012
         7        -0.0000     -0.0000     -0.0000      0.0000      0.0000
         8        -0.1194     -0.0000     -0.0000      0.1194      0.0796
         9        -0.0000      0.0000     -0.0238      0.0238      0.0159
        10        -0.0000     -0.0000     -0.0000      0.0000      0.0000
        11         0.0000     -0.0457     -0.0000      0.0457      0.0305
        12         0.0000     -0.0000     -0.0000      0.0000      0.0000
        13         0.0000     -0.0000     -0.0503      0.0503      0.0335
        14        -0.0413     -0.0000     -0.0000      0.0413      0.0275
        15         0.0000      0.0000     -0.3514      0.3514      0.2343
        16         0.0000     -0.0333     -0.0000      0.0333      0.0222
        17        -0.0000      0.0000     -0.0878      0.0878      0.0585
        18        -0.0644      0.0000     -0.0000      0.0644      0.0429
        19        -0.0000     -0.0270     -0.0000      0.0270      0.0180
        20        -0.0000     -0.0112     -0.0000      0.0112      0.0074
        21        -0.0000     -0.0000     -0.0000      0.0000      0.0000
        22        -0.0000     -0.0000     -0.4095      0.4095      0.2730
        23        -0.0000     -0.0017     -0.0000      0.0017      0.0012
        24        -0.0039      0.0000     -0.0000      0.0039      0.0026
        25        -0.0000     -0.0000     -0.0000      0.0000      0.0000
        26         0.0000     -0.2097     -0.0000      0.2097      0.1398
        27        -0.0045     -0.0000     -0.0000      0.0045      0.0030
        28        -0.0000     -0.0000     -0.5330      0.5330      0.3553
        29        -0.0000     -0.0000     -0.0203      0.0203      0.0135
        30        -0.0000     -0.0000     -0.1797      0.1797      0.1198

 Excitation energies and oscillator strengths:
 
 Excited State   1:      Singlet-A2     1.6291 eV  761.08 nm  f=0.0000  <S**2>=0.000
       3 -> 27         0.00094
       3 -> 38         0.00065
       3 -> 46         0.00335
       4 -> 27         0.00054
       4 -> 46        -0.00116
       5 ->  9         0.00439
       5 -> 13         0.00109
       5 -> 18         0.00228
       5 -> 23         0.00155
       5 -> 28         0.00190
       5 -> 37         0.00104
       5 -> 44         0.00027
       5 -> 52         0.00026
       6 -> 27        -0.00062
       6 -> 38        -0.00068
       6 -> 46         0.00115
       7 -> 12        -0.00107
       7 -> 16         0.00505
       7 -> 19        -0.00433
       7 -> 22        -0.00098
       7 -> 25         0.00076
       7 -> 29        -0.00172
       7 -> 33         0.00032
       7 -> 49         0.00012
       7 -> 50         0.00012
       7 -> 53         0.00042
       8 ->  9         0.70947
       8 -> 13        -0.00982
       8 -> 18         0.02130
       8 -> 23        -0.00212
       8 -> 28         0.01079
       8 -> 31         0.00142
       8 -> 37         0.00057
       8 -> 48        -0.00031
       8 -> 52         0.00191
       3 <- 27         0.00036
       3 <- 38         0.00040
       3 <- 46         0.00339
       4 <- 27         0.00096
       4 <- 38         0.00022
       4 <- 46        -0.00092
       5 <- 13        -0.00043
       5 <- 18        -0.00053
       5 <- 23         0.00022
       5 <- 28        -0.00037
       5 <- 31         0.00028
       5 <- 37         0.00060
       6 <- 38        -0.00054
       6 <- 46         0.00087
       7 <- 12         0.00118
       7 <- 16        -0.01039
       7 <- 19         0.00461
       7 <- 22         0.00643
       7 <- 25         0.00060
       7 <- 29         0.00547
       7 <- 33        -0.00041
       7 <- 35         0.00046
       7 <- 40        -0.00030
       7 <- 42         0.00016
       7 <- 49        -0.00046
       7 <- 53         0.00146
       8 <-  9        -0.06201
       8 <- 18        -0.00716
       8 <- 28        -0.00259
       8 <- 31        -0.00072
       8 <- 37        -0.00032
       8 <- 48         0.00012
       8 <- 52         0.00048
 This state for optimization and/or second-order correction.
 Total Energy, E(TD-HF/TD-DFT) =  -114.329465640    
 Copying the excited state density for this state as the 1-particle RhoCI density.
 
 Excited State   2:      Singlet-A1     4.2496 eV  291.75 nm  f=0.0516  <S**2>=0.000
       3 -> 10        -0.01792
       3 -> 11        -0.00701
       3 -> 14         0.00561
       3 -> 15         0.00210
       3 -> 17        -0.00334
       3 -> 20        -0.00394
       3 -> 21        -0.00022
       3 -> 24         0.00145
       3 -> 26         0.00260
       3 -> 30        -0.00127
       3 -> 32         0.00276
       3 -> 34         0.00161
       3 -> 36        -0.00118
       3 -> 39         0.00063
       3 -> 43         0.00050
       3 -> 45         0.00054
       3 -> 47         0.00229
       3 -> 51         0.00131
       4 -> 10        -0.00549
       4 -> 11         0.01267
       4 -> 14         0.00335
       4 -> 15        -0.00913
       4 -> 17         0.00276
       4 -> 20         0.00364
       4 -> 21         0.00037
       4 -> 24        -0.00438
       4 -> 26         0.00429
       4 -> 30         0.00085
       4 -> 32        -0.00136
       4 -> 34        -0.00119
       4 -> 36         0.00036
       4 -> 41         0.00011
       4 -> 43        -0.00051
       4 -> 45        -0.00082
       4 -> 47        -0.00099
       4 -> 51        -0.00032
       4 -> 54         0.00014
       5 -> 12         0.01340
       5 -> 16         0.00644
       5 -> 19         0.00137
       5 -> 22         0.00747
       5 -> 25         0.00650
       5 -> 29         0.00016
       5 -> 33        -0.00276
       5 -> 35         0.00278
       5 -> 40        -0.00130
       5 -> 42         0.00079
       5 -> 49         0.00032
       5 -> 50        -0.00076
       6 -> 10         0.21085
       6 -> 11         0.06790
       6 -> 14        -0.07235
       6 -> 15        -0.03831
       6 -> 17        -0.01827
       6 -> 20        -0.00575
       6 -> 21         0.00941
       6 -> 24        -0.01097
       6 -> 26        -0.00499
       6 -> 30        -0.00661
       6 -> 32         0.00200
       6 -> 34         0.00141
       6 -> 39         0.00107
       6 -> 41        -0.00025
       6 -> 43         0.00086
       6 -> 45         0.00083
       6 -> 47         0.00100
       6 -> 51         0.00073
       6 -> 54        -0.00083
       7 ->  9         0.68068
       7 -> 13        -0.00362
       7 -> 18        -0.01452
       7 -> 23        -0.00143
       7 -> 31        -0.00320
       7 -> 37         0.00114
       7 -> 44        -0.00101
       7 -> 48         0.00025
       7 -> 52         0.00106
       8 -> 12        -0.00791
       8 -> 16         0.05253
       8 -> 19        -0.02175
       8 -> 22        -0.01947
       8 -> 25         0.00020
       8 -> 29        -0.01015
       8 -> 33         0.00152
       8 -> 35        -0.00159
       8 -> 40         0.00075
       8 -> 42        -0.00036
       8 -> 49         0.00039
       8 -> 50         0.00019
       8 -> 53        -0.00060
       3 <- 10        -0.01300
       3 <- 11        -0.00547
       3 <- 14         0.00442
       3 <- 15         0.00121
       3 <- 17        -0.00181
       3 <- 20        -0.00310
       3 <- 21        -0.00066
       3 <- 24         0.00075
       3 <- 26         0.00137
       3 <- 30        -0.00075
       3 <- 32         0.00249
       3 <- 34         0.00094
       3 <- 36        -0.00106
       3 <- 39         0.00059
       3 <- 43         0.00059
       3 <- 45         0.00071
       3 <- 47         0.00234
       3 <- 51         0.00129
       3 <- 54         0.00018
       4 <- 10        -0.00226
       4 <- 11         0.00849
       4 <- 14         0.00200
       4 <- 15        -0.00578
       4 <- 17         0.00152
       4 <- 20         0.00356
       4 <- 21         0.00023
       4 <- 24        -0.00315
       4 <- 26         0.00357
       4 <- 30         0.00015
       4 <- 32        -0.00159
       4 <- 34        -0.00102
       4 <- 36         0.00064
       4 <- 43        -0.00048
       4 <- 45        -0.00083
       4 <- 47        -0.00063
       4 <- 51        -0.00018
       4 <- 54         0.00010
       5 <- 12         0.00693
       5 <- 16         0.00371
       5 <- 19         0.00102
       5 <- 22         0.00498
       5 <- 25         0.00472
       5 <- 29         0.00024
       5 <- 33        -0.00222
       5 <- 35         0.00233
       5 <- 40        -0.00116
       5 <- 42         0.00067
       5 <- 49         0.00029
       5 <- 50        -0.00071
       6 <- 10         0.06790
       6 <- 11         0.02440
       6 <- 14        -0.03113
       6 <- 15        -0.01813
       6 <- 17        -0.00986
       6 <- 20        -0.00453
       6 <- 21         0.00592
       6 <- 24        -0.00696
       6 <- 26        -0.00283
       6 <- 30        -0.00463
       6 <- 32         0.00231
       6 <- 34         0.00165
       6 <- 36        -0.00052
       6 <- 39         0.00105
       6 <- 41        -0.00019
       6 <- 43         0.00072
       6 <- 45         0.00066
       6 <- 47         0.00060
       6 <- 51         0.00058
       6 <- 54        -0.00073
       7 <-  9        -0.12897
       7 <- 13         0.00552
       7 <- 18        -0.01282
       7 <- 23         0.00217
       7 <- 28        -0.00284
       7 <- 31        -0.00155
       7 <- 37         0.00050
       7 <- 44        -0.00069
       7 <- 48        -0.00030
       7 <- 52         0.00095
       8 <- 12        -0.00246
       8 <- 16         0.02205
       8 <- 19        -0.01081
       8 <- 22        -0.01162
       8 <- 29        -0.00771
       8 <- 33         0.00117
       8 <- 35        -0.00124
       8 <- 40         0.00061
       8 <- 42        -0.00029
       8 <- 49         0.00023
       8 <- 50         0.00016
       8 <- 53        -0.00056
 
 Excited State   3:      Singlet-B1     4.6805 eV  264.90 nm  f=0.0011  <S**2>=0.000
       3 ->  9        -0.02627
       3 -> 13         0.00127
       3 -> 18        -0.00411
       3 -> 23         0.00146
       3 -> 28        -0.00078
       3 -> 31        -0.00052
       3 -> 44         0.00025
       3 -> 48         0.00095
       3 -> 52         0.00087
       4 ->  9         0.01180
       4 -> 13        -0.00249
       4 -> 18         0.00015
       4 -> 23        -0.00223
       4 -> 28         0.00033
       4 -> 31        -0.00138
       4 -> 37        -0.00036
       4 -> 44         0.00012
       4 -> 48        -0.00087
       4 -> 52        -0.00046
       5 -> 27         0.00015
       5 -> 38         0.00196
       5 -> 46         0.00066
       6 ->  9         0.69982
       6 -> 13        -0.01843
       6 -> 18         0.01547
       6 -> 23        -0.01059
       6 -> 28         0.00377
       6 -> 31         0.00285
       6 -> 37        -0.00192
       6 -> 44        -0.00241
       6 -> 48         0.00380
       6 -> 52         0.00126
       7 -> 10         0.09917
       7 -> 11         0.02564
       7 -> 14        -0.02136
       7 -> 15        -0.00617
       7 -> 17        -0.00897
       7 -> 20         0.00335
       7 -> 21         0.00086
       7 -> 24        -0.00133
       7 -> 26        -0.00204
       7 -> 30        -0.00391
       7 -> 32        -0.00029
       7 -> 34         0.00092
       7 -> 36         0.00163
       7 -> 39         0.00017
       7 -> 41        -0.00034
       7 -> 43         0.00050
       7 -> 45         0.00018
       7 -> 47         0.00391
       7 -> 51         0.00121
       7 -> 54         0.00022
       8 -> 27         0.00025
       8 -> 46         0.00484
       3 <-  9        -0.00887
       3 <- 13        -0.00080
       3 <- 18        -0.00270
       3 <- 23        -0.00061
       3 <- 28        -0.00045
       3 <- 31        -0.00072
       3 <- 37         0.00013
       3 <- 44        -0.00016
       3 <- 48         0.00109
       3 <- 52         0.00073
       4 <-  9         0.00652
       4 <- 13        -0.00041
       4 <- 18         0.00169
       4 <- 23        -0.00074
       4 <- 28         0.00147
       4 <- 31        -0.00093
       4 <- 37        -0.00022
       4 <- 48        -0.00076
       4 <- 52        -0.00026
       5 <- 27        -0.00042
       5 <- 38         0.00164
       5 <- 46         0.00058
       6 <-  9        -0.02974
       6 <- 13         0.00181
       6 <- 18        -0.00375
       6 <- 23        -0.00016
       6 <- 28        -0.00364
       6 <- 31         0.00080
       6 <- 37        -0.00163
       6 <- 44        -0.00110
       6 <- 48         0.00340
       6 <- 52         0.00033
       7 <- 10        -0.02999
       7 <- 11        -0.01070
       7 <- 14         0.01468
       7 <- 15         0.00989
       7 <- 17         0.00219
       7 <- 20         0.00419
       7 <- 21        -0.00378
       7 <- 24         0.00433
       7 <- 26         0.00169
       7 <- 30         0.00153
       7 <- 32         0.00026
       7 <- 34         0.00109
       7 <- 36         0.00215
       7 <- 39         0.00052
       7 <- 43         0.00031
       7 <- 47         0.00361
       7 <- 51         0.00119
       7 <- 54         0.00099
       8 <- 27         0.00073
       8 <- 38         0.00018
       8 <- 46         0.00453
 
 Excited State   4:      Singlet-B2     4.9872 eV  248.61 nm  f=0.0064  <S**2>=0.000
       3 -> 12        -0.00143
       3 -> 16         0.00185
       3 -> 19        -0.00454
       3 -> 22         0.00081
       3 -> 25         0.00073
       3 -> 29        -0.00318
       3 -> 35         0.00197
       3 -> 40        -0.00172
       3 -> 42         0.00042
       3 -> 49        -0.00334
       3 -> 50         0.00021
       3 -> 53         0.00031
       4 -> 12         0.00046
       4 -> 16        -0.00217
       4 -> 19         0.00041
       4 -> 22         0.00248
       4 -> 25        -0.00121
       4 -> 29         0.00130
       4 -> 33        -0.00043
       4 -> 35         0.00051
       4 -> 40         0.00044
       4 -> 49         0.00062
       4 -> 50        -0.00012
       5 -> 10         0.01077
       5 -> 11         0.00328
       5 -> 14        -0.00736
       5 -> 15         0.00422
       5 -> 17        -0.00018
       5 -> 20         0.00215
       5 -> 21         0.00476
       5 -> 24         0.00173
       5 -> 26        -0.00118
       5 -> 30        -0.00197
       5 -> 32        -0.00195
       5 -> 34        -0.00076
       5 -> 36        -0.00018
       5 -> 39        -0.00094
       5 -> 41         0.00059
       5 -> 45         0.00010
       5 -> 47        -0.00067
       5 -> 51         0.00041
       5 -> 54        -0.00024
       6 -> 12         0.00283
       6 -> 16        -0.00228
       6 -> 19         0.00370
       6 -> 22        -0.00044
       6 -> 25        -0.00099
       6 -> 29        -0.00030
       6 -> 33         0.00010
       6 -> 35        -0.00179
       6 -> 40         0.00143
       6 -> 42        -0.00060
       6 -> 49         0.00157
       6 -> 53        -0.00042
       7 -> 27        -0.00066
       7 -> 38         0.00060
       7 -> 46         0.00364
       8 -> 10         0.68597
       8 -> 11         0.13690
       8 -> 14        -0.09733
       8 -> 15        -0.03851
       8 -> 17        -0.01599
       8 -> 20         0.00145
       8 -> 21         0.00749
       8 -> 24        -0.00683
       8 -> 26        -0.00537
       8 -> 30        -0.01140
       8 -> 32        -0.00372
       8 -> 34        -0.00181
       8 -> 36         0.00048
       8 -> 39        -0.00075
       8 -> 43        -0.00018
       8 -> 45         0.00121
       8 -> 47        -0.00448
       8 -> 51         0.00203
       8 -> 54        -0.00212
       3 <- 12        -0.00052
       3 <- 16         0.00056
       3 <- 19        -0.00217
       3 <- 22         0.00096
       3 <- 25         0.00065
       3 <- 29        -0.00126
       3 <- 35         0.00144
       3 <- 40        -0.00150
       3 <- 42         0.00034
       3 <- 49        -0.00342
       3 <- 50         0.00019
       3 <- 53         0.00085
       4 <- 16        -0.00208
       4 <- 22         0.00252
       4 <- 25        -0.00075
       4 <- 29         0.00132
       4 <- 33        -0.00048
       4 <- 35         0.00073
       4 <- 40         0.00016
       4 <- 49         0.00045
       5 <- 10        -0.00062
       5 <- 11        -0.00120
       5 <- 14        -0.00081
       5 <- 15         0.00336
       5 <- 17         0.00020
       5 <- 20         0.00072
       5 <- 21         0.00199
       5 <- 24         0.00214
       5 <- 26        -0.00031
       5 <- 30        -0.00045
       5 <- 32        -0.00026
       5 <- 34        -0.00014
       5 <- 39        -0.00036
       5 <- 41         0.00062
       5 <- 43         0.00010
       5 <- 45         0.00034
       5 <- 47        -0.00061
       5 <- 51         0.00022
       6 <- 12        -0.00027
       6 <- 16         0.00664
       6 <- 19        -0.00315
       6 <- 22        -0.00474
       6 <- 25        -0.00084
       6 <- 29        -0.00551
       6 <- 33         0.00042
       6 <- 35        -0.00173
       6 <- 40         0.00146
       6 <- 42        -0.00067
       6 <- 49         0.00188
       6 <- 53        -0.00126
       7 <- 27        -0.00064
       7 <- 38         0.00048
       7 <- 46         0.00306
       8 <- 10        -0.02704
       8 <- 11        -0.00989
       8 <- 14         0.01034
       8 <- 15         0.00296
       8 <- 17         0.00093
       8 <- 20        -0.00280
       8 <- 21        -0.00197
       8 <- 24         0.00160
       8 <- 26         0.00172
       8 <- 30        -0.00021
       8 <- 32         0.00295
       8 <- 34         0.00115
       8 <- 36        -0.00052
       8 <- 39         0.00146
       8 <- 41         0.00040
       8 <- 43         0.00048
       8 <- 45         0.00198
       8 <- 47        -0.00352
       8 <- 51         0.00136
       8 <- 54        -0.00056
 
 Excited State   5:      Singlet-B1     5.9513 eV  208.33 nm  f=0.0079  <S**2>=0.000
       3 ->  9        -0.01249
       3 -> 13         0.00070
       3 -> 18        -0.00299
       3 -> 23         0.00087
       3 -> 28        -0.00324
       3 -> 31        -0.00161
       3 -> 44         0.00045
       3 -> 48        -0.00246
       4 ->  9        -0.03341
       4 -> 13         0.00629
       4 -> 18         0.00133
       4 -> 23         0.00463
       4 -> 28         0.00178
       4 -> 37         0.00034
       4 -> 44        -0.00047
       4 -> 48         0.00063
       4 -> 52         0.00012
       5 -> 27        -0.00715
       5 -> 38        -0.00317
       5 -> 46         0.00045
       6 ->  9        -0.10218
       6 -> 13        -0.00228
       6 -> 18         0.00210
       6 -> 23        -0.00062
       6 -> 28         0.00333
       6 -> 31        -0.00366
       6 -> 37         0.00199
       6 -> 44         0.00019
       6 -> 48         0.00069
       6 -> 52        -0.00057
       7 -> 10         0.68250
       7 -> 11         0.11743
       7 -> 14        -0.08733
       7 -> 15        -0.04370
       7 -> 17        -0.00983
       7 -> 20        -0.00427
       7 -> 21         0.00382
       7 -> 24        -0.00996
       7 -> 26        -0.00724
       7 -> 30        -0.00686
       7 -> 32        -0.00193
       7 -> 34        -0.00399
       7 -> 36        -0.00175
       7 -> 39        -0.00066
       7 -> 43         0.00062
       7 -> 45         0.00092
       7 -> 47         0.00182
       7 -> 51         0.00092
       7 -> 54        -0.00144
       8 -> 27         0.00101
       8 -> 38         0.00028
       8 -> 46         0.00215
       3 <-  9        -0.00268
       3 <- 13         0.00065
       3 <- 18        -0.00121
       3 <- 23         0.00060
       3 <- 28        -0.00204
       3 <- 31        -0.00031
       3 <- 37        -0.00020
       3 <- 44         0.00019
       3 <- 48        -0.00264
       3 <- 52         0.00040
       4 <-  9        -0.01151
       4 <- 13         0.00251
       4 <- 18         0.00050
       4 <- 23         0.00240
       4 <- 28         0.00165
       4 <- 31        -0.00022
       4 <- 37         0.00041
       4 <- 44        -0.00068
       4 <- 48         0.00021
       4 <- 52         0.00011
       5 <- 27        -0.00482
       5 <- 38        -0.00245
       5 <- 46         0.00043
       6 <-  9        -0.02612
       6 <- 18        -0.00372
       6 <- 23         0.00035
       6 <- 28        -0.00062
       6 <- 31        -0.00424
       6 <- 37         0.00174
       6 <- 44         0.00039
       6 <- 48         0.00109
       6 <- 52        -0.00113
       7 <- 10        -0.01892
       7 <- 11        -0.00674
       7 <- 14         0.00716
       7 <- 15        -0.00145
       7 <- 17         0.00106
       7 <- 20        -0.00363
       7 <- 21        -0.00209
       7 <- 24        -0.00125
       7 <- 26         0.00053
       7 <- 32         0.00163
       7 <- 34        -0.00169
       7 <- 36        -0.00205
       7 <- 39         0.00042
       7 <- 41         0.00022
       7 <- 43         0.00067
       7 <- 45         0.00087
       7 <- 47         0.00141
       7 <- 51         0.00043
       7 <- 54        -0.00059
       8 <- 27         0.00064
       8 <- 38         0.00012
       8 <- 46         0.00155
 
 Excited State   6:      Singlet-B2     6.9588 eV  178.17 nm  f=0.0015  <S**2>=0.000
       3 -> 12         0.00160
       3 -> 16         0.00105
       3 -> 19        -0.00037
       3 -> 22        -0.00029
       3 -> 25         0.00077
       3 -> 29        -0.00177
       3 -> 33         0.00017
       3 -> 35         0.00018
       3 -> 40        -0.00020
       3 -> 49        -0.00035
       4 -> 12        -0.00088
       4 -> 16         0.00094
       4 -> 19         0.00086
       4 -> 22        -0.00121
       4 -> 25         0.00090
       4 -> 29         0.00083
       4 -> 35         0.00013
       5 -> 10         0.00170
       5 -> 11        -0.00718
       5 -> 14         0.00447
       5 -> 15         0.00373
       5 -> 17         0.00034
       5 -> 20         0.00088
       5 -> 21        -0.00054
       5 -> 24        -0.00050
       5 -> 26        -0.00012
       5 -> 30        -0.00025
       5 -> 32        -0.00115
       5 -> 34         0.00060
       5 -> 36        -0.00020
       5 -> 39        -0.00035
       5 -> 41        -0.00025
       5 -> 43        -0.00024
       5 -> 45         0.00021
       5 -> 47        -0.00018
       5 -> 51         0.00014
       6 -> 12        -0.00294
       6 -> 16        -0.00088
       6 -> 19        -0.00027
       6 -> 22        -0.00044
       6 -> 25         0.00012
       6 -> 29        -0.00045
       6 -> 33        -0.00010
       6 -> 35         0.00035
       6 -> 40         0.00013
       6 -> 42        -0.00010
       6 -> 49         0.00085
       7 -> 27        -0.00052
       7 -> 38        -0.00035
       7 -> 46         0.00106
       8 -> 10        -0.13516
       8 -> 11         0.69282
       8 -> 14         0.03040
       8 -> 15        -0.02289
       8 -> 17        -0.00346
       8 -> 20         0.01322
       8 -> 21         0.00301
       8 -> 24        -0.00258
       8 -> 26         0.00234
       8 -> 30        -0.00168
       8 -> 32        -0.00048
       8 -> 34        -0.00048
       8 -> 36        -0.00046
       8 -> 39         0.00011
       8 -> 41        -0.00018
       8 -> 43         0.00032
       8 -> 45         0.00066
       8 -> 47        -0.00132
       8 -> 51         0.00058
       8 -> 54        -0.00023
       3 <- 16         0.00058
       3 <- 19        -0.00040
       3 <- 22        -0.00036
       3 <- 25         0.00031
       3 <- 29        -0.00097
       3 <- 35         0.00012
       3 <- 40        -0.00016
       3 <- 49        -0.00035
       3 <- 53         0.00015
       4 <- 12         0.00050
       4 <- 16         0.00076
       4 <- 19         0.00084
       4 <- 22        -0.00069
       4 <- 25         0.00063
       4 <- 29         0.00057
       4 <- 42        -0.00013
       4 <- 50        -0.00013
       5 <- 10        -0.00175
       5 <- 11        -0.00015
       5 <- 14         0.00101
       5 <- 15        -0.00017
       5 <- 20         0.00018
       5 <- 21         0.00021
       5 <- 24        -0.00083
       5 <- 26         0.00042
       5 <- 30        -0.00013
       5 <- 32        -0.00041
       5 <- 34         0.00063
       5 <- 39        -0.00015
       5 <- 41        -0.00015
       5 <- 43        -0.00017
       5 <- 45         0.00020
       5 <- 47        -0.00023
       5 <- 51         0.00011
       6 <- 12        -0.00044
       6 <- 16         0.00050
       6 <- 19        -0.00045
       6 <- 22        -0.00049
       6 <- 29        -0.00074
       6 <- 35         0.00021
       6 <- 40         0.00017
       6 <- 42        -0.00013
       6 <- 49         0.00076
       6 <- 53        -0.00011
       7 <- 27        -0.00037
       7 <- 38        -0.00026
       7 <- 46         0.00091
       8 <- 10        -0.00377
       8 <- 11        -0.00189
       8 <- 14         0.00096
       8 <- 15         0.00081
       8 <- 17        -0.00101
       8 <- 20        -0.00215
       8 <- 21         0.00014
       8 <- 24         0.00056
       8 <- 26         0.00012
       8 <- 30        -0.00053
       8 <- 32         0.00139
       8 <- 34         0.00054
       8 <- 36        -0.00102
       8 <- 39         0.00038
       8 <- 41         0.00013
       8 <- 43         0.00018
       8 <- 45         0.00052
       8 <- 47        -0.00104
       8 <- 51         0.00051
 
 Excited State   7:      Singlet-A2     7.1935 eV  172.36 nm  f=0.0000  <S**2>=0.000
       3 -> 27        -0.00122
       3 -> 38        -0.00040
       3 -> 46         0.00023
       4 -> 27        -0.00593
       4 -> 38         0.00044
       4 -> 46        -0.00028
       5 ->  9         0.70619
       5 -> 13        -0.02614
       5 -> 18         0.00483
       5 -> 23        -0.01553
       5 -> 28         0.00109
       5 -> 31        -0.00170
       5 -> 37        -0.00576
       5 -> 44        -0.00216
       6 -> 27        -0.00091
       6 -> 38         0.00227
       6 -> 46         0.00023
       7 -> 12         0.01408
       7 -> 16         0.01344
       7 -> 19         0.00105
       7 -> 22        -0.00466
       7 -> 25         0.00024
       7 -> 29        -0.00062
       7 -> 33        -0.00048
       7 -> 35        -0.00023
       7 -> 42        -0.00029
       7 -> 49        -0.00011
       7 -> 50        -0.00080
       8 ->  9        -0.00442
       8 -> 13         0.01056
       8 -> 18         0.00390
       8 -> 23         0.00212
       8 -> 28         0.00079
       8 -> 31         0.00085
       8 -> 37         0.00143
       8 -> 44         0.00019
       8 -> 52         0.00026
       3 <- 27        -0.00137
       3 <- 38        -0.00051
       3 <- 46         0.00029
       4 <- 27        -0.00538
       5 <-  9        -0.01360
       5 <- 13         0.00203
       5 <- 28         0.00205
       5 <- 31        -0.00308
       5 <- 37        -0.00347
       5 <- 44        -0.00045
       5 <- 48        -0.00018
       6 <- 27        -0.00141
       6 <- 38         0.00167
       6 <- 46         0.00012
       7 <- 12        -0.00293
       7 <- 16        -0.00060
       7 <- 19        -0.00058
       7 <- 22        -0.00384
       7 <- 25        -0.00330
       7 <- 33         0.00036
       7 <- 35        -0.00080
       7 <- 40         0.00043
       7 <- 42        -0.00077
       7 <- 49        -0.00026
       7 <- 50        -0.00091
       7 <- 53         0.00015
       8 <-  9         0.00028
       8 <- 13        -0.00045
       8 <- 18        -0.00129
       8 <- 23        -0.00030
       8 <- 28        -0.00154
       8 <- 31         0.00094
       8 <- 37         0.00073
 
 Excited State   8:      Singlet-B1     7.7178 eV  160.65 nm  f=0.0784  <S**2>=0.000
       3 ->  9        -0.00227
       3 -> 13         0.00196
       3 -> 18        -0.00087
       3 -> 23        -0.00013
       3 -> 28        -0.00197
       3 -> 31        -0.00095
       3 -> 44        -0.00021
       3 -> 48        -0.00023
       3 -> 52        -0.00019
       4 ->  9        -0.00245
       4 -> 13         0.00224
       4 -> 18         0.00025
       4 -> 23        -0.00112
       4 -> 28         0.00043
       4 -> 31         0.00057
       4 -> 37        -0.00038
       4 -> 44        -0.00044
       4 -> 48        -0.00013
       5 -> 27        -0.00107
       6 ->  9        -0.00814
       6 -> 13        -0.00237
       6 -> 18        -0.00051
       6 -> 28         0.00044
       6 -> 31        -0.00076
       6 -> 44         0.00034
       6 -> 48         0.00033
       6 -> 52        -0.00011
       7 -> 10        -0.12287
       7 -> 11         0.69505
       7 -> 14         0.00401
       7 -> 15        -0.04091
       7 -> 17        -0.00401
       7 -> 20         0.00409
       7 -> 21         0.00422
       7 -> 24        -0.00751
       7 -> 26         0.00127
       7 -> 30        -0.00070
       7 -> 34        -0.00063
       7 -> 36        -0.00106
       7 -> 41        -0.00028
       7 -> 43         0.00042
       7 -> 45         0.00051
       7 -> 47         0.00042
       7 -> 51         0.00017
       7 -> 54        -0.00026
       8 -> 38        -0.00024
       8 -> 46         0.00056
       3 <-  9         0.00014
       3 <- 18        -0.00057
       3 <- 23        -0.00042
       3 <- 28        -0.00129
       3 <- 31        -0.00039
       3 <- 48        -0.00024
       4 <-  9        -0.00449
       4 <- 13         0.00096
       4 <- 18         0.00020
       4 <- 23        -0.00027
       4 <- 28         0.00025
       4 <- 31         0.00056
       4 <- 37        -0.00029
       5 <- 27        -0.00056
       5 <- 38         0.00012
       5 <- 46         0.00012
       6 <-  9        -0.00482
       6 <- 13         0.00075
       6 <- 18        -0.00069
       6 <- 23         0.00117
       6 <- 31        -0.00075
       6 <- 37         0.00018
       6 <- 44         0.00043
       6 <- 48         0.00039
       6 <- 52        -0.00017
       7 <- 10        -0.00348
       7 <- 11        -0.00266
       7 <- 15         0.00037
       7 <- 17        -0.00015
       7 <- 20        -0.00388
       7 <- 21        -0.00039
       7 <- 26        -0.00126
       7 <- 30         0.00017
       7 <- 32         0.00117
       7 <- 34         0.00029
       7 <- 36        -0.00106
       7 <- 39         0.00014
       7 <- 41         0.00014
       7 <- 43         0.00013
       7 <- 45         0.00031
[...]
  46        4PY         0.00000   0.00000  -0.01660  -0.04601  -0.07312
  47        4PZ        -0.00433   0.00000   0.01874   0.02755   0.01879
  48        5S         -0.00228   0.00000   0.00839   0.01244   0.00986
  49        5PX         0.00000   0.00000   0.00000   0.00000   0.00000
  50        5PY         0.00000   0.00000  -0.00871  -0.01747  -0.01813
  51        5PZ        -0.00001   0.00000   0.00171   0.00217  -0.00032
  52        6D 0        0.00024   0.00000  -0.00044  -0.00079  -0.00119
  53        6D+1        0.00000   0.00000   0.00000   0.00000   0.00000
  54        6D-1        0.00000   0.00000  -0.00088  -0.00085   0.00097
  55        6D+2        0.00002   0.00000  -0.00003  -0.00001   0.00000
  56        6D-2        0.00000   0.00000   0.00000   0.00000   0.00000
                          26        27        28        29        30
  26        4PX         0.00027
  27        4PY         0.00000   0.00105
  28        4PZ         0.00000  -0.00046   0.00065
  29 3   H  1S          0.00000  -0.00179  -0.00295   0.07746
  30        2S          0.00000  -0.00158  -0.00470   0.10945   0.15745
  31        3S          0.00000   0.00088  -0.00254   0.03174   0.05168
  32        4PX         0.00027   0.00000   0.00000   0.00000   0.00000
  33        4PY         0.00000  -0.00059  -0.00008   0.00813   0.01088
  34        4PZ         0.00000   0.00008   0.00003   0.00445   0.00623
  35 4   O  1S          0.00000   0.00006  -0.00033   0.00109   0.00018
  36        2S          0.00000   0.00014  -0.00044   0.00175   0.00030
  37        2PX         0.00573   0.00000   0.00000   0.00000   0.00000
  38        2PY         0.00000  -0.00100   0.00073   0.01146   0.03353
  39        2PZ         0.00000  -0.00167  -0.00469   0.01628   0.02412
  40        3S          0.00000  -0.00045   0.00082  -0.00568  -0.00143
  41        3PX         0.00828   0.00000   0.00000   0.00000   0.00000
  42        3PY         0.00000  -0.00145   0.00106   0.01614   0.04751
  43        3PZ         0.00000  -0.00242  -0.00704   0.02390   0.03546
  44        4S          0.00000  -0.00069  -0.00035  -0.00130   0.00374
  45        4PX         0.00746   0.00000   0.00000   0.00000   0.00000
  46        4PY         0.00000  -0.00117   0.00080   0.01660   0.04601
  47        4PZ         0.00000  -0.00197  -0.00514   0.01874   0.02755
  48        5S          0.00000  -0.00071  -0.00288   0.00839   0.01244
  49        5PX         0.00127   0.00000   0.00000   0.00000   0.00000
  50        5PY         0.00000   0.00012  -0.00026   0.00871   0.01747
  51        5PZ         0.00000  -0.00036   0.00029   0.00171   0.00217
  52        6D 0        0.00000  -0.00002   0.00040  -0.00044  -0.00079
  53        6D+1       -0.00027   0.00000   0.00000   0.00000   0.00000
  54        6D-1        0.00000   0.00011  -0.00012   0.00088   0.00085
  55        6D+2        0.00000  -0.00000   0.00001  -0.00003  -0.00001
  56        6D-2        0.00000   0.00000   0.00000   0.00000   0.00000
                          31        32        33        34        35
  31        3S          0.03189
  32        4PX         0.00000   0.00027
  33        4PY         0.00192   0.00000   0.00105
  34        4PZ         0.00096   0.00000   0.00046   0.00065
  35 4   O  1S         -0.00015   0.00000  -0.00006  -0.00033   0.64170
  36        2S         -0.00032   0.00000  -0.00014  -0.00044   0.57235
  37        2PX         0.00000   0.00573   0.00000   0.00000   0.00000
  38        2PY         0.05583   0.00000  -0.00100  -0.00073   0.00000
  39        2PZ         0.01701   0.00000   0.00167  -0.00469  -0.00932
  40        3S          0.00160   0.00000   0.00045   0.00082  -0.14802
  41        3PX         0.00000   0.00828   0.00000   0.00000   0.00000
  42        3PY         0.07953   0.00000  -0.00145  -0.00106   0.00000
  43        3PZ         0.02535   0.00000   0.00242  -0.00704  -0.01079
  44        4S          0.00490   0.00000   0.00069  -0.00035  -0.14021
  45        4PX         0.00000   0.00746   0.00000   0.00000   0.00000
  46        4PY         0.07312   0.00000  -0.00117  -0.00080   0.00000
  47        4PZ         0.01879   0.00000   0.00197  -0.00514  -0.00755
  48        5S          0.00986   0.00000   0.00071  -0.00288   0.00864
  49        5PX         0.00000   0.00127   0.00000   0.00000   0.00000
  50        5PY         0.01813   0.00000   0.00012   0.00026   0.00000
  51        5PZ        -0.00032   0.00000   0.00036   0.00029  -0.00546
  52        6D 0       -0.00119   0.00000   0.00002   0.00040  -0.00090
  53        6D+1        0.00000  -0.00027   0.00000   0.00000   0.00000
  54        6D-1       -0.00097   0.00000   0.00011   0.00012   0.00000
  55        6D+2        0.00000   0.00000   0.00000   0.00001  -0.00082
  56        6D-2        0.00000  -0.00000   0.00000   0.00000   0.00000
                          36        37        38        39        40
  36        2S          0.52867
  37        2PX         0.00000   0.12054
  38        2PY         0.00000   0.00000   0.19310
  39        2PZ        -0.01452   0.00000   0.00000   0.09552
  40        3S         -0.24825   0.00000   0.00000   0.04426   0.77728
  41        3PX         0.00000   0.17417   0.00000   0.00000   0.00000
  42        3PY         0.00000   0.00000   0.27545   0.00000   0.00000
  43        3PZ        -0.01789   0.00000   0.00000   0.14217   0.05893
  44        4S         -0.21901   0.00000   0.00000   0.05598   0.63362
  45        4PX         0.00000   0.15689   0.00000   0.00000   0.00000
  46        4PY         0.00000   0.00000   0.24967   0.00000   0.00000
  47        4PZ        -0.01306   0.00000   0.00000   0.10513   0.04486
  48        5S          0.00883   0.00000   0.00000   0.05412  -0.00767
  49        5PX         0.00000   0.02675   0.00000   0.00000   0.00000
  50        5PY         0.00000   0.00000   0.05259   0.00000   0.00000
  51        5PZ        -0.00780   0.00000   0.00000  -0.00144   0.01986
  52        6D 0       -0.00135  -0.00000  -0.00000  -0.00662   0.00348
  53        6D+1        0.00000  -0.00577   0.00000   0.00000  -0.00000
  54        6D-1        0.00000   0.00000  -0.00553   0.00000  -0.00000
  55        6D+2       -0.00132   0.00000   0.00000   0.00018   0.00391
  56        6D-2        0.00000   0.00000   0.00000   0.00000   0.00000
                          41        42        43        44        45
  41        3PX         0.25165
  42        3PY         0.00000   0.39291
  43        3PZ         0.00000   0.00000   0.21168
  44        4S          0.00000   0.00000   0.07769   0.52138
  45        4PX         0.22668   0.00000   0.00000   0.00000   0.20419
  46        4PY         0.00000   0.35613   0.00000   0.00000   0.00000
  47        4PZ         0.00000   0.00000   0.15650   0.05844   0.00000
  48        5S          0.00000   0.00000   0.08089   0.00519   0.00000
  49        5PX         0.03864   0.00000   0.00000   0.00000   0.03481
  50        5PY         0.00000   0.07499   0.00000   0.00000   0.00000
  51        5PZ         0.00000   0.00000  -0.00238   0.01568   0.00000
  52        6D 0       -0.00000  -0.00000  -0.00992   0.00138  -0.00000
  53        6D+1       -0.00834   0.00000   0.00000  -0.00000  -0.00751
  54        6D-1        0.00000  -0.00790   0.00000  -0.00000   0.00000
  55        6D+2        0.00000   0.00000   0.00024   0.00318   0.00000
  56        6D-2        0.00000   0.00000   0.00000   0.00000   0.00000
                          46        47        48        49        50
  46        4PY         0.32289
  47        4PZ         0.00000   0.11575
  48        5S          0.00000   0.05971   0.03225
  49        5PX         0.00000   0.00000   0.00000   0.00593
  50        5PY         0.06821   0.00000   0.00000   0.00000   0.01500
  51        5PZ         0.00000  -0.00163  -0.00185   0.00000   0.00000
  52        6D 0       -0.00000  -0.00729  -0.00408  -0.00000  -0.00000
  53        6D+1        0.00000   0.00000   0.00000  -0.00128   0.00000
  54        6D-1       -0.00711   0.00000   0.00000   0.00000  -0.00136
  55        6D+2        0.00000   0.00018  -0.00006   0.00000   0.00000
  56        6D-2        0.00000   0.00000   0.00000   0.00000   0.00000
                          51        52        53        54        55
  51        5PZ         0.00078
  52        6D 0        0.00034   0.00054
  53        6D+1       -0.00000   0.00000   0.00028
  54        6D-1       -0.00000   0.00000   0.00000   0.00019
  55        6D+2        0.00010   0.00002   0.00000   0.00000   0.00002
  56        6D-2        0.00000   0.00000   0.00000   0.00000   0.00000
                          56
  56        6D-2        0.00000
          Condensed to atoms (all electrons):
               1          2          3          4
     1  C    5.087929   0.355867   0.355867   0.279456
     2  H    0.355867   0.528661  -0.051287  -0.019893
     3  H    0.355867  -0.051287   0.528661  -0.019893
     4  O    0.279456  -0.019893  -0.019893   8.054516
 Mulliken charges:
               1
     1  C   -0.079119
     2  H    0.186652
     3  H    0.186652
     4  O   -0.294185
 Sum of Mulliken charges =  -0.00000
 Mulliken charges with hydrogens summed into heavy atoms:
               1
     1  C    0.294185
     4  O   -0.294185
 Electronic spatial extent (au):  <R**2>=             83.8448
 Charge=             -0.0000 electrons
 Dipole moment (field-independent basis, Debye):
    X=             -0.0000    Y=             -0.0000    Z=             -3.9626  Tot=              3.9626
 Quadrupole moment (field-independent basis, Debye-Ang):
   XX=            -12.8960   YY=            -11.9589   ZZ=            -11.0031
   XY=              0.0000   XZ=              0.0000   YZ=             -0.0000
 Traceless Quadrupole moment (field-independent basis, Debye-Ang):
   XX=             -0.9434   YY=             -0.0062   ZZ=              0.9496
   XY=              0.0000   XZ=              0.0000   YZ=             -0.0000
 Octapole moment (field-independent basis, Debye-Ang**2):
  XXX=              0.0000  YYY=             -0.0000  ZZZ=             -2.6150  XYY=             -0.0000
  XXY=              0.0000  XXZ=              0.4990  XZZ=             -0.0000  YZZ=              0.0000
  YYZ=             -2.4541  XYZ=             -0.0000
 Hexadecapole moment (field-independent basis, Debye-Ang**3):
 XXXX=            -13.7386 YYYY=            -18.4536 ZZZZ=            -70.4469 XXXY=             -0.0000
 XXXZ=             -0.0000 YYYX=             -0.0000 YYYZ=             -0.0000 ZZZX=             -0.0000
 ZZZY=              0.0000 XXYY=             -5.8106 XXZZ=            -14.9357 YYZZ=            -13.3712
 XXYZ=              0.0000 YYXZ=              0.0000 ZZXY=              0.0000
 N-N= 2.432367350711D+01 E-N=-3.171039113784D+02  KE= 1.133395052924D+02
 Symmetry A1   KE= 1.028067997455D+02
 Symmetry A2   KE= 1.693465919815D-35
 Symmetry B1   KE= 3.668846507856D+00
 Symmetry B2   KE= 6.863859039043D+00
 Leave Link  601 at Fri Sep 17 10:53:05 2021, MaxMem=   268435456 cpu:               0.0 elap:               0.0
 (Enter /software/gaussian/g16-a03/l9999.exe)
 Electronic transition elements 
                 1             2             3             4             5 
      1  -0.114329D+03 -0.114233D+03 -0.114217D+03 -0.114206D+03 -0.114171D+03
      2   0.000000D+00  0.000000D+00  0.971138D-01  0.000000D+00 -0.233419D+00
      3   0.000000D+00  0.000000D+00  0.000000D+00 -0.228490D+00  0.000000D+00
      4   0.000000D+00  0.704253D+00  0.000000D+00  0.000000D+00  0.000000D+00
      5   0.000000D+00  0.000000D+00 -0.364009D-01  0.000000D+00  0.423573D-01
      6   0.000000D+00  0.000000D+00  0.000000D+00  0.396402D-01  0.000000D+00
      7   0.000000D+00 -0.979111D-01  0.000000D+00  0.000000D+00  0.000000D+00
      8   0.000000D+00  0.000000D+00  0.000000D+00  0.362570D+00  0.000000D+00
      9   0.000000D+00  0.000000D+00 -0.179768D+01  0.000000D+00 -0.575436D+00
     10   0.998445D+00  0.000000D+00  0.000000D+00  0.000000D+00  0.000000D+00
     11   0.000000D+00  0.658531D-01  0.000000D+00  0.000000D+00  0.000000D+00
     12   0.000000D+00 -0.612260D-02  0.000000D+00  0.000000D+00  0.000000D+00
     13   0.000000D+00 -0.354528D-01  0.000000D+00  0.000000D+00  0.000000D+00
     14  -0.311561D-01  0.000000D+00  0.000000D+00  0.000000D+00  0.000000D+00
     15   0.000000D+00  0.000000D+00 -0.107655D+00  0.000000D+00  0.175332D+00
     16   0.000000D+00  0.000000D+00  0.000000D+00  0.563983D-02  0.000000D+00
                 6             7             8             9            10 
      1  -0.114134D+03 -0.114125D+03 -0.114106D+03 -0.114094D+03 -0.114074D+03
      2   0.000000D+00  0.000000D+00 -0.643968D+00  0.000000D+00  0.000000D+00
      3  -0.927708D-01  0.000000D+00  0.000000D+00  0.000000D+00  0.000000D+00
      4   0.000000D+00  0.000000D+00  0.000000D+00 -0.288009D+00  0.000000D+00
      5   0.000000D+00  0.000000D+00  0.185465D+00  0.000000D+00  0.000000D+00
      6   0.194680D-01  0.000000D+00  0.000000D+00  0.000000D+00  0.000000D+00
      7   0.000000D+00  0.000000D+00  0.000000D+00  0.827162D-01  0.000000D+00
      8  -0.356829D+00  0.000000D+00  0.000000D+00  0.000000D+00  0.000000D+00
      9   0.000000D+00  0.000000D+00 -0.176585D+00  0.000000D+00  0.000000D+00
     10   0.000000D+00 -0.102697D+01  0.000000D+00  0.000000D+00  0.477226D-02
     11   0.000000D+00  0.000000D+00  0.000000D+00  0.373091D-01  0.000000D+00
     12   0.000000D+00  0.000000D+00  0.000000D+00  0.621785D-01  0.000000D+00
     13   0.000000D+00  0.000000D+00  0.000000D+00 -0.214506D+00  0.000000D+00
     14   0.000000D+00  0.175793D+00  0.000000D+00  0.000000D+00  0.807951D-01
     15   0.000000D+00  0.000000D+00 -0.136325D+00  0.000000D+00  0.000000D+00
     16   0.283222D+00  0.000000D+00  0.000000D+00  0.000000D+00  0.000000D+00
                11            12            13            14            15 
      1  -0.114070D+03 -0.114067D+03 -0.114045D+03 -0.114040D+03 -0.114032D+03
      2   0.000000D+00  0.000000D+00  0.000000D+00 -0.325174D+00  0.000000D+00
      3  -0.371837D+00  0.000000D+00  0.000000D+00  0.000000D+00  0.000000D+00
      4   0.000000D+00  0.000000D+00  0.385310D+00  0.000000D+00 -0.986345D+00
      5   0.000000D+00  0.000000D+00  0.000000D+00  0.126960D+00  0.000000D+00
      6   0.122851D+00  0.000000D+00  0.000000D+00  0.000000D+00  0.000000D+00
      7   0.000000D+00  0.000000D+00 -0.130439D+00  0.000000D+00  0.356287D+00
      8  -0.557337D+00  0.000000D+00  0.000000D+00  0.000000D+00  0.000000D+00
      9   0.000000D+00  0.000000D+00  0.000000D+00  0.322432D+00  0.000000D+00
     10   0.000000D+00  0.253562D-01  0.000000D+00  0.000000D+00  0.000000D+00
     11   0.000000D+00  0.000000D+00  0.793552D+00  0.000000D+00  0.175992D+00
     12   0.000000D+00  0.000000D+00  0.529801D-01  0.000000D+00  0.439488D-01
     13   0.000000D+00  0.000000D+00 -0.661247D-01  0.000000D+00 -0.336465D+00
     14   0.000000D+00  0.279756D+00  0.000000D+00  0.000000D+00  0.000000D+00
     15   0.000000D+00  0.000000D+00  0.000000D+00  0.324463D+00  0.000000D+00
     16   0.208568D+00  0.000000D+00  0.000000D+00  0.000000D+00  0.000000D+00
                16            17            18            19            20 
      1  -0.114017D+03 -0.114013D+03 -0.113992D+03 -0.113988D+03 -0.113980D+03
      2   0.000000D+00  0.000000D+00 -0.424089D+00  0.000000D+00  0.000000D+00
      3  -0.294756D+00  0.000000D+00  0.000000D+00  0.252855D+00 -0.168530D+00
      4   0.000000D+00 -0.469360D+00  0.000000D+00  0.000000D+00  0.000000D+00
      5   0.000000D+00  0.000000D+00  0.151873D+00  0.000000D+00  0.000000D+00
      6   0.112915D+00  0.000000D+00  0.000000D+00 -0.106741D+00  0.662170D-01
      7   0.000000D+00  0.187034D+00  0.000000D+00  0.000000D+00  0.000000D+00
      8   0.387312D+00  0.000000D+00  0.000000D+00  0.679319D+00  0.247409D+00
      9   0.000000D+00  0.000000D+00  0.207347D+00  0.000000D+00  0.000000D+00
     10   0.000000D+00  0.000000D+00  0.000000D+00  0.000000D+00  0.000000D+00
     11   0.000000D+00  0.271399D+00  0.000000D+00  0.000000D+00  0.000000D+00
     12   0.000000D+00  0.289442D+00  0.000000D+00  0.000000D+00  0.000000D+00
     13   0.000000D+00  0.567867D+00  0.000000D+00  0.000000D+00  0.000000D+00
     14   0.000000D+00  0.000000D+00  0.000000D+00  0.000000D+00  0.000000D+00
     15   0.000000D+00  0.000000D+00 -0.532051D-01  0.000000D+00  0.000000D+00
     16  -0.544353D-01  0.000000D+00  0.000000D+00  0.618962D+00 -0.819089D-01
                21            22            23            24            25 
      1  -0.113980D+03 -0.113980D+03 -0.113964D+03 -0.113961D+03 -0.113944D+03
      2   0.000000D+00  0.000000D+00  0.000000D+00 -0.101251D+00  0.000000D+00
      3   0.000000D+00  0.000000D+00 -0.736566D-01  0.000000D+00  0.000000D+00
      4   0.000000D+00 -0.997712D+00  0.000000D+00  0.000000D+00  0.000000D+00
      5   0.000000D+00  0.000000D+00  0.000000D+00  0.383384D-01  0.000000D+00
      6   0.000000D+00  0.000000D+00  0.236909D-01  0.000000D+00  0.000000D+00
      7   0.000000D+00  0.410440D+00  0.000000D+00  0.000000D+00  0.000000D+00
      8   0.000000D+00  0.000000D+00  0.102429D+00  0.000000D+00  0.000000D+00
      9   0.000000D+00  0.000000D+00  0.000000D+00  0.985182D-01  0.000000D+00
     10  -0.643353D-01  0.000000D+00  0.000000D+00  0.000000D+00 -0.323597D-01
     11   0.000000D+00 -0.631209D-01  0.000000D+00  0.000000D+00  0.000000D+00
     12   0.000000D+00 -0.406307D+00  0.000000D+00  0.000000D+00  0.000000D+00
     13   0.000000D+00 -0.155048D+00  0.000000D+00  0.000000D+00  0.000000D+00
     14  -0.273059D+00  0.000000D+00  0.000000D+00  0.000000D+00  0.377280D+00
     15   0.000000D+00  0.000000D+00  0.000000D+00 -0.147292D+00  0.000000D+00
     16   0.000000D+00  0.000000D+00  0.441066D+00  0.000000D+00  0.000000D+00
                26            27            28            29            30 
      1  -0.113939D+03 -0.113930D+03 -0.113927D+03 -0.113910D+03 -0.113906D+03
      2   0.000000D+00  0.109324D+00  0.000000D+00  0.000000D+00  0.000000D+00
      3  -0.687667D+00  0.000000D+00  0.000000D+00  0.000000D+00  0.000000D+00
      4   0.000000D+00  0.000000D+00  0.109062D+01 -0.214441D+00  0.623454D+00
      5   0.000000D+00 -0.408324D-01  0.000000D+00  0.000000D+00  0.000000D+00
      6   0.305010D+00  0.000000D+00  0.000000D+00  0.000000D+00  0.000000D+00
      7   0.000000D+00  0.000000D+00 -0.488683D+00  0.945950D-01 -0.288186D+00
      8   0.836656D+00  0.000000D+00  0.000000D+00  0.000000D+00  0.000000D+00
      9   0.000000D+00  0.399321D-01  0.000000D+00  0.000000D+00  0.000000D+00
     10   0.000000D+00  0.000000D+00  0.000000D+00  0.000000D+00  0.000000D+00
     11   0.000000D+00  0.000000D+00 -0.289311D+00 -0.288302D+00 -0.215284D-01
     12   0.000000D+00  0.000000D+00  0.507984D+00  0.319909D+00  0.140125D+00
     13   0.000000D+00  0.000000D+00 -0.220481D+00  0.243256D+00  0.166630D+00
     14   0.000000D+00  0.000000D+00  0.000000D+00  0.000000D+00  0.000000D+00
     15   0.000000D+00  0.331475D+00  0.000000D+00  0.000000D+00  0.000000D+00
     16  -0.714888D+00  0.000000D+00  0.000000D+00  0.000000D+00  0.000000D+00

 Test job not archived.
 1\1\GINC-BHD0005\SP\RB3LYP TD-FC\6-311+G(d,p)\C1H2O1\BWEIGHT\17-Sep-20
 21\0\\#p B3LYP/6-311+G** #p TD=(singlets,nstates=30)IOp(6/8=3) IOp(9/4
 0=4)\\Scan Step 241, Bond Length 1.705\\0,1\C,0,0.,0.,-0.52736\H,0,0.,
 0.93726,-1.11871\H,0,0.,-0.93726,-1.11871\O,0,0.,0.,1.17764\\Version=E
 S64L-G16RevA.03\State=1-A1\HF=-114.3893323\RMSD=3.582e-09\PG=C02V [C2(
 C1O1),SGV(H2)]\\@


 Any fool can criticize, condemn, and complain -- and most do.
 -- Dale Carnegie
 Job cpu time:       0 days  0 hours  0 minutes 26.1 seconds.
 Elapsed time:       0 days  0 hours  0 minutes 26.6 seconds.
 File lengths (MBytes):  RWF=     79 Int=      0 D2E=      0 Chk=     32 Scr=      1
 Normal termination of Gaussian 16 at Fri Sep 17 10:53:05 2021.
