 Entering Gaussian System, Link 0=g16
 Initial command:
 /software/gaussian/g16-c01/sse4/g16/l1.exe "/local_scratch/24657578/Gau-22019.inp" -scrdir="/local_scratch/24657578/"
 Entering Link 1 = /software/gaussian/g16-c01/sse4/g16/l1.exe PID=     22020.
  
 Copyright (c) 1988-2019, Gaussian, Inc.  All Rights Reserved.
  
 This is part of the Gaussian(R) 16 program.  It is based on
 the Gaussian(R) 09 system (copyright 2009, Gaussian, Inc.),
 the Gaussian(R) 03 system (copyright 2003, Gaussian, Inc.),
 the Gaussian(R) 98 system (copyright 1998, Gaussian, Inc.),
 the Gaussian(R) 94 system (copyright 1995, Gaussian, Inc.),
 the Gaussian 92(TM) system (copyright 1992, Gaussian, Inc.),
 the Gaussian 90(TM) system (copyright 1990, Gaussian, Inc.),
 the Gaussian 88(TM) system (copyright 1988, Gaussian, Inc.),
 the Gaussian 86(TM) system (copyright 1986, Carnegie Mellon
 University), and the Gaussian 82(TM) system (copyright 1983,
 Carnegie Mellon University). Gaussian is a federally registered
 trademark of Gaussian, Inc.
  
 This software contains proprietary and confidential information,
 including trade secrets, belonging to Gaussian, Inc.
  
 This software is provided under written license and may be
 used, copied, transmitted, or stored only in accord with that
 written license.
  
 The following legend is applicable only to US Government
 contracts under FAR:
  
                    RESTRICTED RIGHTS LEGEND
  
 Use, reproduction and disclosure by the US Government is
 subject to restrictions as set forth in subparagraphs (a)
 and (c) of the Commercial Computer Software - Restricted
 Rights clause in FAR 52.227-19.
  
 Gaussian, Inc.
 340 Quinnipiac St., Bldg. 40, Wallingford CT 06492
  
  
 ---------------------------------------------------------------
 Warning -- This program may not be used in any manner that
 competes with the business of Gaussian, Inc. or will provide
 assistance to any competitor of Gaussian, Inc.  The licensee
 of this program is prohibited from giving any competitor of
 Gaussian, Inc. access to this program.  By using this program,
 the user acknowledges that Gaussian, Inc. is engaged in the
 business of creating and licensing software in the field of
 computational chemistry and represents and warrants to the
 licensee that it is not a competitor of Gaussian, Inc. and that
 it will not use this program in any manner prohibited above.
 ---------------------------------------------------------------
  

 Cite this work as:
 Gaussian 16, Revision C.01,
 M. J. Frisch, G. W. Trucks, H. B. Schlegel, G. E. Scuseria, 
 M. A. Robb, J. R. Cheeseman, G. Scalmani, V. Barone, 
 G. A. Petersson, H. Nakatsuji, X. Li, M. Caricato, A. V. Marenich, 
 J. Bloino, B. G. Janesko, R. Gomperts, B. Mennucci, H. P. Hratchian, 
 J. V. Ortiz, A. F. Izmaylov, J. L. Sonnenberg, D. Williams-Young, 
 F. Ding, F. Lipparini, F. Egidi, J. Goings, B. Peng, A. Petrone, 
 T. Henderson, D. Ranasinghe, V. G. Zakrzewski, J. Gao, N. Rega, 
 G. Zheng, W. Liang, M. Hada, M. Ehara, K. Toyota, R. Fukuda, 
 J. Hasegawa, M. Ishida, T. Nakajima, Y. Honda, O. Kitao, H. Nakai, 
 T. Vreven, K. Throssell, J. A. Montgomery, Jr., J. E. Peralta, 
 F. Ogliaro, M. J. Bearpark, J. J. Heyd, E. N. Brothers, K. N. Kudin, 
 V. N. Staroverov, T. A. Keith, R. Kobayashi, J. Normand, 
 K. Raghavachari, A. P. Rendell, J. C. Burant, S. S. Iyengar, 
 J. Tomasi, M. Cossi, J. M. Millam, M. Klene, C. Adamo, R. Cammi, 
 J. W. Ochterski, R. L. Martin, K. Morokuma, O. Farkas, 
 J. B. Foresman, and D. J. Fox, Gaussian, Inc., Wallingford CT, 2019.
 
 ******************************************
 Gaussian 16:  ES64L-G16RevC.01  3-Jul-2019
                 1-May-2024 
 ******************************************
 %chk=geometry.chk
 %mem=9GB
 %nprocshared=12
 Will use up to   12 processors via shared memory.
 ----------------------------------------
 #P wB97XD/6-311+G* NoSymm #P Field=Z+165
 ----------------------------------------
 1/38=1,172=1/1;
 2/12=2,15=1,17=6,18=5,40=1/2;
 3/5=4,6=6,7=11,11=2,14=3,15=165,25=1,30=1,74=-58/1,2,3;
 4//1;
 5/5=2,38=5/2;
 6/7=2,8=2,9=2,10=2,28=1/1;
 99/5=1,9=1/99;
 Leave Link    1 at Wed May  1 15:08:03 2024, MaxMem=  1207959552 cpu:               1.3 elap:               1.3
 (Enter /software/gaussian/g16-c01/sse4/g16/l101.exe)
 -------
 TitleMe
 -------
 Symbolic Z-matrix:
 Charge =  1 Multiplicity = 1
 C                     0.0295    1.3397    0.0682 
 C                     1.4348    1.2867    0.0064 
 C                     2.1118    0.0511   -0.0054 
 C                     1.4451   -1.1372    0.0312 
 C                    -0.6879    0.1682    0.11 
 H                    -0.4713    2.2984    0.0781 
 H                     2.0273    2.1965   -0.0322 
 H                     1.9897   -2.0764    0.0232 
 H                    -1.7716    0.1804    0.1582 
 N                     3.5864    0.051    -0.0675 
 O                     4.1471   -1.0597   -0.0881 
 O                     4.145     1.1639   -0.0901 
 C                    -0.0236   -1.1458    0.0835 
 H                    -0.4367   -1.8725    0.7889 
 Br                   -0.5359   -1.8697   -1.7408 
 
 ITRead=  0  0  0  0  0  0  0  0  0  0  0  0  0  0  0
 MicOpt= -1 -1 -1 -1 -1 -1 -1 -1 -1 -1 -1 -1 -1 -1 -1
 NAtoms=     15 NQM=       15 NQMF=       0 NMMI=      0 NMMIF=      0
                NMic=       0 NMicF=      0.
                    Isotopes and Nuclear Properties:
 (Nuclear quadrupole moments (NQMom) in fm**2, nuclear magnetic moments (NMagM)
  in nuclear magnetons)

  Atom         1           2           3           4           5           6           7           8           9          10
 IAtWgt=          12          12          12          12          12           1           1           1           1          14
 AtmWgt=  12.0000000  12.0000000  12.0000000  12.0000000  12.0000000   1.0078250   1.0078250   1.0078250   1.0078250  14.0030740
 NucSpn=           0           0           0           0           0           1           1           1           1           2
 AtZEff=  -0.0000000  -0.0000000  -0.0000000  -0.0000000  -0.0000000  -0.0000000  -0.0000000  -0.0000000  -0.0000000  -0.0000000
 NQMom=    0.0000000   0.0000000   0.0000000   0.0000000   0.0000000   0.0000000   0.0000000   0.0000000   0.0000000   2.0440000
 NMagM=    0.0000000   0.0000000   0.0000000   0.0000000   0.0000000   2.7928460   2.7928460   2.7928460   2.7928460   0.4037610
 AtZNuc=   6.0000000   6.0000000   6.0000000   6.0000000   6.0000000   1.0000000   1.0000000   1.0000000   1.0000000   7.0000000

  Atom        11          12          13          14          15
 IAtWgt=          16          16          12           1          79
 AtmWgt=  15.9949146  15.9949146  12.0000000   1.0078250  78.9183361
 NucSpn=           0           0           0           1           3
 AtZEff=  -0.0000000  -0.0000000  -0.0000000  -0.0000000  -0.0000000
 NQMom=    0.0000000   0.0000000   0.0000000   0.0000000  31.3000000
 NMagM=    0.0000000   0.0000000   0.0000000   2.7928460   2.1063990
 AtZNuc=   8.0000000   8.0000000   6.0000000   1.0000000  35.0000000
 Leave Link  101 at Wed May  1 15:08:04 2024, MaxMem=  1207959552 cpu:               1.4 elap:               1.4
 (Enter /software/gaussian/g16-c01/sse4/g16/l202.exe)
                          Input orientation:                          
 ---------------------------------------------------------------------
 Center     Atomic      Atomic             Coordinates (Angstroms)
 Number     Number       Type             X           Y           Z
 ---------------------------------------------------------------------
      1          6           0        0.029500    1.339700    0.068200
      2          6           0        1.434800    1.286700    0.006400
      3          6           0        2.111800    0.051100   -0.005400
      4          6           0        1.445100   -1.137200    0.031200
      5          6           0       -0.687900    0.168200    0.110000
      6          1           0       -0.471300    2.298400    0.078100
      7          1           0        2.027300    2.196500   -0.032200
      8          1           0        1.989700   -2.076400    0.023200
      9          1           0       -1.771600    0.180400    0.158200
     10          7           0        3.586400    0.051000   -0.067500
     11          8           0        4.147100   -1.059700   -0.088100
     12          8           0        4.145000    1.163900   -0.090100
     13          6           0       -0.023600   -1.145800    0.083500
     14          1           0       -0.436700   -1.872500    0.788900
     15         35           0       -0.535900   -1.869700   -1.740800
 ---------------------------------------------------------------------
                    Distance matrix (angstroms):
                    1          2          3          4          5
     1  C    0.000000
     2  C    1.407656   0.000000
     3  C    2.449874   1.408963   0.000000
     4  C    2.853126   2.424049   1.363043   0.000000
     5  C    1.374344   2.401589   2.804523   2.501993   0.000000
     6  H    1.081667   2.159142   3.424870   3.934226   2.141421
     7  H    2.176095   1.086408   2.147231   3.384750   3.392128
     8  H    3.938800   3.408612   2.131193   1.085702   3.495040
     9  H    2.143837   3.395283   3.888995   3.478413   1.084840
    10  N    3.785591   2.482297   1.475907   2.450862   4.279589
    11  O    4.768247   3.587631   2.320164   2.705743   4.992415
    12  O    4.122294   2.714696   2.319353   3.549540   4.938459
    13  C    2.486114   2.837240   2.449573   1.469656   1.472614
    14  H    3.324903   3.754379   3.290289   2.157764   2.165286
    15  Br   3.727252   4.110867   3.702891   2.756973   2.757100
                    6          7          8          9         10
     6  H    0.000000
     7  H    2.503108   0.000000
     8  H    5.019802   4.273425   0.000000
     9  H    2.486588   4.304945   4.388479   0.000000
    10  N    4.640790   2.652397   2.661486   5.364313   0.000000
    11  O    5.712624   3.885809   2.387560   6.052233   1.244373
    12  O    4.756638   2.356750   3.893289   6.002923   1.245428
    13  C    3.473180   3.923079   2.218790   2.195425   3.806210
    14  H    4.231175   4.827242   2.552506   2.528663   4.540772
    15  Br   4.548146   5.101303   3.087568   3.055498   4.845862
                   11         12         13         14         15
    11  O    0.000000
    12  O    2.223602   0.000000
    13  C    4.175117   4.768865   0.000000
    14  H    4.737193   5.566358   1.093770   0.000000
    15  Br   5.031700   5.817075   2.028436   2.531646   0.000000
 Symmetry turned off by external request.
 Stoichiometry    C6H5BrNO2(1+)
 Framework group  C1[X(C6H5BrNO2)]
 Deg. of freedom    39
 Full point group                 C1      NOp   1
 Rotational constants (GHZ):           1.8252210           0.5518633           0.4576002
 Leave Link  202 at Wed May  1 15:08:05 2024, MaxMem=  1207959552 cpu:               1.1 elap:               1.1
 (Enter /software/gaussian/g16-c01/sse4/g16/l301.exe)
 Standard basis: 6-311+G(d) (5D, 7F)
 Ernie: Thresh=  0.10000D-02 Tol=  0.10000D-05 Strict=F.
 The following finite field(s) will be applied:
 An electric field of              0.0000  0.0000  0.0165
   261 basis functions,   443 primitive gaussians,   273 cartesian basis functions
    49 alpha electrons       49 beta electrons
       nuclear repulsion energy       739.2122215416 Hartrees.
 IExCor= 4639 DFT=T Ex+Corr=wB97XD ExCW=0 ScaHFX=  1.000000
 ScaDFX=  1.000000  1.000000  1.000000  1.000000 ScalE2=  1.000000  1.000000
 IRadAn=      5 IRanWt=     -1 IRanGd=            0 ICorTp=0 IEmpDi=121
 HFx  wShort=  0.000000 wLong=  0.200000 cFull=  0.222036 cShort=  0.000000 cLong=  0.777964
 DFx  wShort=  0.000000 wLong=  0.200000 cFull=  0.000000 cShort=  0.000000 cLong=  1.000000
 NAtoms=   15 NActive=   15 NUniq=   15 SFac= 1.00D+00 NAtFMM=   60 NAOKFM=F Big=F
 Integral buffers will be    131072 words long.
 Raffenetti 2 integral format.
 Two-electron integral symmetry is turned off.
 R6Disp:  Grimme-D2 Dispersion energy=       -0.0077368520 Hartrees.
 Nuclear repulsion after empirical dispersion term =      739.2044846896 Hartrees.
 Leave Link  301 at Wed May  1 15:08:06 2024, MaxMem=  1207959552 cpu:               1.0 elap:               1.0
 (Enter /software/gaussian/g16-c01/sse4/g16/l302.exe)
 NPDir=0 NMtPBC=     1 NCelOv=     1 NCel=       1 NClECP=     1 NCelD=      1
         NCelK=      1 NCelE2=     1 NClLst=     1 CellRange=     0.0.
 One-electron integrals computed using PRISM.
 NBasis=   261 RedAO= T EigKep=  2.35D-06  NBF=   261
 NBsUse=   261 1.00D-06 EigRej= -1.00D+00 NBFU=   261
 Precomputing XC quadrature grid using
 IXCGrd= 4 IRadAn=           5 IRanWt=          -1 IRanGd=           0 AccXCQ= 0.00D+00.
 Generated NRdTot=       0 NPtTot=           0 NUsed=           0 NTot=          32
 NSgBfM=   273   273   273   273   273 MxSgAt=    15 MxSgA2=    15.
 Leave Link  302 at Wed May  1 15:08:27 2024, MaxMem=  1207959552 cpu:              21.1 elap:              21.1
 (Enter /software/gaussian/g16-c01/sse4/g16/l303.exe)
 DipDrv:  MaxL=1.
 The nuclear repulsion energy is now       737.3322059339 hartrees.
 Leave Link  303 at Wed May  1 15:08:31 2024, MaxMem=  1207959552 cpu:               3.2 elap:               3.2
 (Enter /software/gaussian/g16-c01/sse4/g16/l401.exe)
 ExpMin= 3.50D-02 ExpMax= 4.40D+05 ExpMxC= 1.51D+04 IAcc=3 IRadAn=         5 AccDes= 0.00D+00
 Harris functional with IExCor= 4639 and IRadAn=       5 diagonalized for initial guess.
 HarFok:  IExCor= 4639 AccDes= 0.00D+00 IRadAn=         5 IDoV= 1 UseB2=F ITyADJ=14
 ICtDFT=  3500011 ScaDFX=  1.000000  1.000000  1.000000  1.000000
 FoFCou: FMM=F IPFlag=           0 FMFlag=      100000 FMFlg1=           0
         NFxFlg=           0 DoJE=T BraDBF=F KetDBF=T FulRan=T
         wScrn=  0.000000 ICntrl=       500 IOpCl=  0 I1Cent=   200000004 NGrid=           0
         NMat0=    1 NMatS0=      1 NMatT0=    0 NMatD0=    1 NMtDS0=    0 NMtDT0=    0
 Symmetry not used in FoFCou.
 Harris En= -2970.61275238195    
 JPrj=0 DoOrth=F DoCkMO=F.
 Leave Link  401 at Wed May  1 15:09:00 2024, MaxMem=  1207959552 cpu:              29.4 elap:              29.4
 (Enter /software/gaussian/g16-c01/sse4/g16/l502.exe)
 Two-electron integral symmetry not used.
 Closed shell SCF:
 Using DIIS extrapolation, IDIIS=  1040.
 NGot=  1207959552 LenX=  1207804877 LenY=  1207729907
 Requested convergence on RMS density matrix=1.00D-08 within 128 cycles.
 Requested convergence on MAX density matrix=1.00D-06.
 Requested convergence on             energy=1.00D-06.
 No special actions if energy rises.
 Fock matrices will be formed incrementally for  20 cycles.

 Cycle   1  Pass 1  IDiag  1:
 FoFJK:  IHMeth= 1 ICntrl=       0 DoSepK=T KAlg= 0 I1Cent=           0 FoldK=F
 IRaf=         1 NMat=       1 IRICut=       1 DoRegI=T DoRafI=F ISym2E= 0 IDoP0=0 IntGTp=1.
 FoFCou: FMM=F IPFlag=           0 FMFlag=      100000 FMFlg1=           0
         NFxFlg=           0 DoJE=T BraDBF=F KetDBF=F FulRan=T
         wScrn=  0.000000 ICntrl=       500 IOpCl=  0 I1Cent=           0 NGrid=           0
         NMat0=    1 NMatS0=      1 NMatT0=    0 NMatD0=    1 NMtDS0=    0 NMtDT0=    0
 Symmetry not used in FoFCou.
 E= -3009.69696604307    
 DIIS: error= 3.21D-01 at cycle   1 NSaved=   1.
 NSaved= 1 IEnMin= 1 EnMin= -3009.69696604307     IErMin= 1 ErrMin= 3.21D-01
 ErrMax= 3.21D-01  0.00D+00 EMaxC= 1.00D-01 BMatC= 1.20D+01 BMatP= 1.20D+01
 IDIUse=3 WtCom= 0.00D+00 WtEn= 1.00D+00
 Coeff-Com:  0.100D+01
 Coeff-En:   0.100D+01
 Coeff:      0.100D+01
 Gap=     0.329 Goal=   None    Shift=    0.000
 GapD=    0.329 DampG=1.000 DampE=0.250 DampFc=0.2500 IDamp=-1.
 Damping current iteration by 2.50D-01
 RMSDP=9.96D-02 MaxDP=1.38D+01              OVMax= 2.54D-01

 Cycle   2  Pass 1  IDiag  1:
 RMSU=  6.15D-03    CP:  8.38D-01
 E= -3009.99489358404     Delta-E=       -0.297927540966 Rises=F Damp=T
 DIIS: error= 2.25D-01 at cycle   2 NSaved=   2.
 NSaved= 2 IEnMin= 2 EnMin= -3009.99489358404     IErMin= 2 ErrMin= 2.25D-01
 ErrMax= 2.25D-01  0.00D+00 EMaxC= 1.00D-01 BMatC= 5.46D+00 BMatP= 1.20D+01
 IDIUse=3 WtCom= 0.00D+00 WtEn= 1.00D+00
 Coeff-Com: -0.181D+01 0.281D+01
 Coeff-En:   0.000D+00 0.100D+01
 Coeff:      0.000D+00 0.100D+01
 Gap=     0.292 Goal=   None    Shift=    0.000
 RMSDP=7.50D-02 MaxDP=1.03D+01 DE=-2.98D-01 OVMax= 6.42D-02

 Cycle   3  Pass 1  IDiag  1:
 RMSU=  5.08D-03    CP:  3.47D-01  3.00D+00
 E= -3010.38162002877     Delta-E=       -0.386726444736 Rises=F Damp=F
 DIIS: error= 6.65D-02 at cycle   3 NSaved=   3.
 NSaved= 3 IEnMin= 3 EnMin= -3010.38162002877     IErMin= 3 ErrMin= 6.65D-02
 ErrMax= 6.65D-02  0.00D+00 EMaxC= 1.00D-01 BMatC= 7.64D-01 BMatP= 5.46D+00
 IDIUse=3 WtCom= 3.35D-01 WtEn= 6.65D-01
 Coeff-Com:  0.270D+01-0.355D+01 0.185D+01
 Coeff-En:   0.461D-01 0.000D+00 0.954D+00
 Coeff:      0.936D+00-0.119D+01 0.125D+01
 Gap=     0.274 Goal=   None    Shift=    0.000
 RMSDP=8.59D-03 MaxDP=6.01D-01 DE=-3.87D-01 OVMax= 9.06D-02

 Cycle   4  Pass 1  IDiag  1:
 RMSU=  6.50D-03    CP:  3.76D-01  2.81D+00  1.39D+00
 E= -3010.49746275957     Delta-E=       -0.115842730796 Rises=F Damp=F
 DIIS: error= 3.73D-02 at cycle   4 NSaved=   4.
 NSaved= 4 IEnMin= 4 EnMin= -3010.49746275957     IErMin= 4 ErrMin= 3.73D-02
 ErrMax= 3.73D-02  0.00D+00 EMaxC= 1.00D-01 BMatC= 2.23D-01 BMatP= 7.64D-01
 IDIUse=3 WtCom= 6.27D-01 WtEn= 3.73D-01
 Coeff-Com: -0.262D+00 0.362D+00 0.219D+00 0.680D+00
 Coeff-En:   0.000D+00 0.000D+00 0.184D+00 0.816D+00
 Coeff:     -0.164D+00 0.227D+00 0.206D+00 0.731D+00
 Gap=     0.255 Goal=   None    Shift=    0.000
 RMSDP=5.31D-03 MaxDP=6.77D-01 DE=-1.16D-01 OVMax= 3.76D-02

 Cycle   5  Pass 1  IDiag  1:
 RMSU=  1.76D-03    CP:  3.44D-01  2.99D+00  1.27D+00  8.41D-01
 E= -3010.54302335144     Delta-E=       -0.045560591876 Rises=F Damp=F
 DIIS: error= 6.94D-03 at cycle   5 NSaved=   5.
 NSaved= 5 IEnMin= 5 EnMin= -3010.54302335144     IErMin= 5 ErrMin= 6.94D-03
 ErrMax= 6.94D-03  0.00D+00 EMaxC= 1.00D-01 BMatC= 7.61D-03 BMatP= 2.23D-01
 IDIUse=3 WtCom= 9.31D-01 WtEn= 6.94D-02
 Coeff-Com: -0.161D+00 0.218D+00 0.192D-01 0.324D+00 0.600D+00
 Coeff-En:   0.000D+00 0.000D+00 0.000D+00 0.000D+00 0.100D+01
 Coeff:     -0.150D+00 0.203D+00 0.179D-01 0.302D+00 0.628D+00
 Gap=     0.241 Goal=   None    Shift=    0.000
 RMSDP=5.69D-04 MaxDP=3.67D-02 DE=-4.56D-02 OVMax= 1.24D-02

 Cycle   6  Pass 1  IDiag  1:
 RMSU=  4.07D-04    CP:  3.43D-01  2.99D+00  1.29D+00  8.65D-01  8.53D-01
 E= -3010.54469292319     Delta-E=       -0.001669571750 Rises=F Damp=F
 DIIS: error= 3.15D-04 at cycle   6 NSaved=   6.
 NSaved= 6 IEnMin= 6 EnMin= -3010.54469292319     IErMin= 6 ErrMin= 3.15D-04
 ErrMax= 3.15D-04  0.00D+00 EMaxC= 1.00D-01 BMatC= 5.82D-05 BMatP= 7.61D-03
 IDIUse=3 WtCom= 9.97D-01 WtEn= 3.15D-03
 Coeff-Com: -0.728D-01 0.975D-01-0.165D-01 0.936D-01 0.248D+00 0.651D+00
 Coeff-En:   0.000D+00 0.000D+00 0.000D+00 0.000D+00 0.000D+00 0.100D+01
 Coeff:     -0.726D-01 0.972D-01-0.165D-01 0.933D-01 0.247D+00 0.652D+00
 Gap=     0.243 Goal=   None    Shift=    0.000
 RMSDP=1.87D-04 MaxDP=1.88D-02 DE=-1.67D-03 OVMax= 3.82D-03

 Cycle   7  Pass 1  IDiag  1:
 RMSU=  1.06D-04    CP:  3.42D-01  2.98D+00  1.30D+00  8.69D-01  9.23D-01
                    CP:  9.91D-01
 E= -3010.54476156157     Delta-E=       -0.000068638373 Rises=F Damp=F
 DIIS: error= 2.01D-04 at cycle   7 NSaved=   7.
 NSaved= 7 IEnMin= 7 EnMin= -3010.54476156157     IErMin= 7 ErrMin= 2.01D-04
 ErrMax= 2.01D-04  0.00D+00 EMaxC= 1.00D-01 BMatC= 9.63D-06 BMatP= 5.82D-05
 IDIUse=3 WtCom= 9.98D-01 WtEn= 2.01D-03
 Coeff-Com: -0.151D-01 0.199D-01-0.103D-01 0.501D-02 0.249D-01 0.240D+00
 Coeff-Com:  0.735D+00
 Coeff-En:   0.000D+00 0.000D+00 0.000D+00 0.000D+00 0.000D+00 0.000D+00
 Coeff-En:   0.100D+01
 Coeff:     -0.151D-01 0.199D-01-0.103D-01 0.500D-02 0.248D-01 0.240D+00
 Coeff:      0.736D+00
 Gap=     0.243 Goal=   None    Shift=    0.000
 RMSDP=9.54D-05 MaxDP=7.54D-03 DE=-6.86D-05 OVMax= 2.24D-03

 Cycle   8  Pass 1  IDiag  1:
 RMSU=  4.63D-05    CP:  3.42D-01  2.98D+00  1.30D+00  8.71D-01  9.37D-01
                    CP:  1.14D+00  1.38D+00
 E= -3010.54477635795     Delta-E=       -0.000014796386 Rises=F Damp=F
 DIIS: error= 2.22D-04 at cycle   8 NSaved=   8.
 NSaved= 8 IEnMin= 8 EnMin= -3010.54477635795     IErMin= 7 ErrMin= 2.01D-04
 ErrMax= 2.22D-04  0.00D+00 EMaxC= 1.00D-01 BMatC= 3.90D-06 BMatP= 9.63D-06
 IDIUse=3 WtCom= 9.98D-01 WtEn= 2.01D-03
 Coeff-Com:  0.882D-02-0.120D-01-0.269D-02-0.208D-01-0.493D-01-0.188D-01
 Coeff-Com:  0.489D+00 0.605D+00
 Coeff-En:   0.000D+00 0.000D+00 0.000D+00 0.000D+00 0.000D+00 0.000D+00
 Coeff-En:   0.000D+00 0.100D+01
 Coeff:      0.880D-02-0.120D-01-0.269D-02-0.207D-01-0.492D-01-0.188D-01
 Coeff:      0.488D+00 0.606D+00
 Gap=     0.243 Goal=   None    Shift=    0.000
 RMSDP=6.10D-05 MaxDP=4.93D-03 DE=-1.48D-05 OVMax= 1.60D-03

 Cycle   9  Pass 1  IDiag  1:
 RMSU=  2.50D-05    CP:  3.42D-01  2.99D+00  1.30D+00  8.73D-01  9.44D-01
                    CP:  1.23D+00  1.72D+00  1.12D+00
 E= -3010.54478338672     Delta-E=       -0.000007028766 Rises=F Damp=F
 DIIS: error= 6.48D-05 at cycle   9 NSaved=   9.
 NSaved= 9 IEnMin= 9 EnMin= -3010.54478338672     IErMin= 9 ErrMin= 6.48D-05
 ErrMax= 6.48D-05  0.00D+00 EMaxC= 1.00D-01 BMatC= 7.04D-07 BMatP= 3.90D-06
 IDIUse=1 WtCom= 1.00D+00 WtEn= 0.00D+00
 Coeff-Com:  0.765D-02-0.102D-01 0.132D-02-0.110D-01-0.278D-01-0.729D-01
 Coeff-Com:  0.213D-02 0.313D+00 0.798D+00
 Coeff:      0.765D-02-0.102D-01 0.132D-02-0.110D-01-0.278D-01-0.729D-01
 Coeff:      0.213D-02 0.313D+00 0.798D+00
 Gap=     0.243 Goal=   None    Shift=    0.000
 RMSDP=2.99D-05 MaxDP=2.35D-03 DE=-7.03D-06 OVMax= 1.48D-03

 Cycle  10  Pass 1  IDiag  1:
 RMSU=  1.21D-05    CP:  3.42D-01  2.98D+00  1.30D+00  8.72D-01  9.50D-01
                    CP:  1.28D+00  1.82D+00  1.32D+00  1.15D+00
 E= -3010.54478576498     Delta-E=       -0.000002378257 Rises=F Damp=F
 DIIS: error= 1.65D-05 at cycle  10 NSaved=  10.
 NSaved=10 IEnMin=10 EnMin= -3010.54478576498     IErMin=10 ErrMin= 1.65D-05
 ErrMax= 1.65D-05  0.00D+00 EMaxC= 1.00D-01 BMatC= 1.18D-07 BMatP= 7.04D-07
 IDIUse=1 WtCom= 1.00D+00 WtEn= 0.00D+00
 Coeff-Com: -0.379D-03 0.553D-03 0.514D-03 0.125D-02 0.408D-02-0.994D-02
 Coeff-Com: -0.934D-01-0.284D-01 0.223D+00 0.903D+00
 Coeff:     -0.379D-03 0.553D-03 0.514D-03 0.125D-02 0.408D-02-0.994D-02
 Coeff:     -0.934D-01-0.284D-01 0.223D+00 0.903D+00
 Gap=     0.243 Goal=   None    Shift=    0.000
 RMSDP=1.95D-05 MaxDP=1.85D-03 DE=-2.38D-06 OVMax= 8.50D-04

 Cycle  11  Pass 1  IDiag  1:
 RMSU=  6.20D-06    CP:  3.42D-01  2.98D+00  1.30D+00  8.72D-01  9.50D-01
                    CP:  1.29D+00  1.83D+00  1.39D+00  1.39D+00  1.42D+00
 E= -3010.54478634434     Delta-E=       -0.000000579365 Rises=F Damp=F
 DIIS: error= 7.69D-06 at cycle  11 NSaved=  11.
 NSaved=11 IEnMin=11 EnMin= -3010.54478634434     IErMin=11 ErrMin= 7.69D-06
 ErrMax= 7.69D-06  0.00D+00 EMaxC= 1.00D-01 BMatC= 1.92D-08 BMatP= 1.18D-07
 IDIUse=1 WtCom= 1.00D+00 WtEn= 0.00D+00
 Coeff-Com: -0.107D-02 0.143D-02-0.115D-03 0.211D-02 0.616D-02 0.195D-01
 Coeff-Com:  0.583D-02-0.845D-01-0.224D+00-0.247D-02 0.128D+01
 Coeff:     -0.107D-02 0.143D-02-0.115D-03 0.211D-02 0.616D-02 0.195D-01
 Coeff:      0.583D-02-0.845D-01-0.224D+00-0.247D-02 0.128D+01
 Gap=     0.243 Goal=   None    Shift=    0.000
 RMSDP=1.16D-05 MaxDP=1.07D-03 DE=-5.79D-07 OVMax= 7.13D-04

 Cycle  12  Pass 1  IDiag  1:
 RMSU=  2.77D-06    CP:  3.42D-01  2.98D+00  1.30D+00  8.71D-01  9.51D-01
                    CP:  1.30D+00  1.82D+00  1.42D+00  1.55D+00  1.84D+00
                    CP:  1.47D+00
 E= -3010.54478654180     Delta-E=       -0.000000197462 Rises=F Damp=F
 DIIS: error= 3.39D-06 at cycle  12 NSaved=  12.
 NSaved=12 IEnMin=12 EnMin= -3010.54478654180     IErMin=12 ErrMin= 3.39D-06
 ErrMax= 3.39D-06  0.00D+00 EMaxC= 1.00D-01 BMatC= 6.21D-09 BMatP= 1.92D-08
 IDIUse=1 WtCom= 1.00D+00 WtEn= 0.00D+00
 Coeff-Com: -0.418D-03 0.553D-03-0.107D-03 0.729D-03 0.157D-02 0.889D-02
 Coeff-Com:  0.152D-01-0.316D-01-0.127D+00-0.127D+00 0.583D+00 0.677D+00
 Coeff:     -0.418D-03 0.553D-03-0.107D-03 0.729D-03 0.157D-02 0.889D-02
 Coeff:      0.152D-01-0.316D-01-0.127D+00-0.127D+00 0.583D+00 0.677D+00
 Gap=     0.243 Goal=   None    Shift=    0.000
 RMSDP=2.25D-06 MaxDP=2.25D-04 DE=-1.97D-07 OVMax= 1.73D-04

 Cycle  13  Pass 1  IDiag  1:
 RMSU=  1.41D-06    CP:  3.42D-01  2.98D+00  1.30D+00  8.71D-01  9.51D-01
                    CP:  1.30D+00  1.81D+00  1.42D+00  1.56D+00  1.90D+00
                    CP:  1.61D+00  1.08D+00
 E= -3010.54478656129     Delta-E=       -0.000000019491 Rises=F Damp=F
 DIIS: error= 1.56D-06 at cycle  13 NSaved=  13.
 NSaved=13 IEnMin=13 EnMin= -3010.54478656129     IErMin=13 ErrMin= 1.56D-06
 ErrMax= 1.56D-06  0.00D+00 EMaxC= 1.00D-01 BMatC= 7.65D-10 BMatP= 6.21D-09
 IDIUse=1 WtCom= 1.00D+00 WtEn= 0.00D+00
 Coeff-Com:  0.417D-04-0.552D-04-0.179D-04-0.295D-03-0.143D-02-0.388D-02
 Coeff-Com: -0.251D-03 0.157D-01 0.395D-01-0.228D-01-0.232D+00 0.774D-01
 Coeff-Com:  0.113D+01
 Coeff:      0.417D-04-0.552D-04-0.179D-04-0.295D-03-0.143D-02-0.388D-02
 Coeff:     -0.251D-03 0.157D-01 0.395D-01-0.228D-01-0.232D+00 0.774D-01
 Coeff:      0.113D+01
 Gap=     0.243 Goal=   None    Shift=    0.000
 RMSDP=1.28D-06 MaxDP=4.14D-05 DE=-1.95D-08 OVMax= 1.09D-04

 Cycle  14  Pass 1  IDiag  1:
 RMSU=  4.20D-07    CP:  3.42D-01  2.98D+00  1.30D+00  8.71D-01  9.51D-01
                    CP:  1.30D+00  1.82D+00  1.42D+00  1.57D+00  1.91D+00
                    CP:  1.66D+00  1.36D+00  1.36D+00
 E= -3010.54478656631     Delta-E=       -0.000000005013 Rises=F Damp=F
 DIIS: error= 8.15D-07 at cycle  14 NSaved=  14.
 NSaved=14 IEnMin=14 EnMin= -3010.54478656631     IErMin=14 ErrMin= 8.15D-07
 ErrMax= 8.15D-07  0.00D+00 EMaxC= 1.00D-01 BMatC= 1.04D-10 BMatP= 7.65D-10
 IDIUse=1 WtCom= 1.00D+00 WtEn= 0.00D+00
 Coeff-Com:  0.606D-04-0.805D-04 0.385D-05-0.151D-03-0.416D-03-0.167D-02
 Coeff-Com: -0.165D-02 0.718D-02 0.241D-01 0.914D-02-0.126D+00-0.712D-01
 Coeff-Com:  0.303D+00 0.857D+00
 Coeff:      0.606D-04-0.805D-04 0.385D-05-0.151D-03-0.416D-03-0.167D-02
 Coeff:     -0.165D-02 0.718D-02 0.241D-01 0.914D-02-0.126D+00-0.712D-01
 Coeff:      0.303D+00 0.857D+00
 Gap=     0.243 Goal=   None    Shift=    0.000
 RMSDP=4.50D-07 MaxDP=2.61D-05 DE=-5.01D-09 OVMax= 2.21D-05

 Cycle  15  Pass 1  IDiag  1:
 RMSU=  1.90D-07    CP:  3.42D-01  2.98D+00  1.30D+00  8.71D-01  9.51D-01
                    CP:  1.30D+00  1.81D+00  1.42D+00  1.57D+00  1.91D+00
                    CP:  1.65D+00  1.43D+00  1.55D+00  1.26D+00
 E= -3010.54478656679     Delta-E=       -0.000000000487 Rises=F Damp=F
 DIIS: error= 3.08D-07 at cycle  15 NSaved=  15.
 NSaved=15 IEnMin=15 EnMin= -3010.54478656679     IErMin=15 ErrMin= 3.08D-07
 ErrMax= 3.08D-07  0.00D+00 EMaxC= 1.00D-01 BMatC= 2.63D-11 BMatP= 1.04D-10
 IDIUse=1 WtCom= 1.00D+00 WtEn= 0.00D+00
 Coeff-Com:  0.194D-04-0.259D-04 0.393D-05-0.371D-05 0.144D-03 0.218D-03
 Coeff-Com: -0.535D-03-0.501D-03 0.137D-02 0.773D-02-0.531D-02-0.426D-01
 Coeff-Com: -0.768D-01 0.357D+00 0.759D+00
 Coeff:      0.194D-04-0.259D-04 0.393D-05-0.371D-05 0.144D-03 0.218D-03
 Coeff:     -0.535D-03-0.501D-03 0.137D-02 0.773D-02-0.531D-02-0.426D-01
 Coeff:     -0.768D-01 0.357D+00 0.759D+00
 Gap=     0.243 Goal=   None    Shift=    0.000
 RMSDP=1.46D-07 MaxDP=8.20D-06 DE=-4.87D-10 OVMax= 6.83D-06

 Cycle  16  Pass 1  IDiag  1:
 RMSU=  6.46D-08    CP:  3.42D-01  2.98D+00  1.30D+00  8.71D-01  9.51D-01
                    CP:  1.30D+00  1.81D+00  1.42D+00  1.57D+00  1.91D+00
                    CP:  1.65D+00  1.44D+00  1.60D+00  1.46D+00  1.07D+00
 E= -3010.54478656685     Delta-E=       -0.000000000058 Rises=F Damp=F
 DIIS: error= 1.15D-07 at cycle  16 NSaved=  16.
 NSaved=16 IEnMin=16 EnMin= -3010.54478656685     IErMin=16 ErrMin= 1.15D-07
 ErrMax= 1.15D-07  0.00D+00 EMaxC= 1.00D-01 BMatC= 2.02D-12 BMatP= 2.63D-11
 IDIUse=1 WtCom= 1.00D+00 WtEn= 0.00D+00
 Coeff-Com: -0.177D-06 0.183D-06 0.115D-05 0.149D-04 0.839D-04 0.268D-03
 Coeff-Com:  0.287D-04-0.114D-02-0.266D-02 0.175D-02 0.141D-01-0.344D-02
 Coeff-Com: -0.625D-01-0.249D-01 0.156D+00 0.922D+00
 Coeff:     -0.177D-06 0.183D-06 0.115D-05 0.149D-04 0.839D-04 0.268D-03
 Coeff:      0.287D-04-0.114D-02-0.266D-02 0.175D-02 0.141D-01-0.344D-02
 Coeff:     -0.625D-01-0.249D-01 0.156D+00 0.922D+00
 Gap=     0.243 Goal=   None    Shift=    0.000
 RMSDP=7.20D-08 MaxDP=3.58D-06 DE=-5.82D-11 OVMax= 3.03D-06

 Cycle  17  Pass 1  IDiag  1:
 RMSU=  2.10D-08    CP:  3.42D-01  2.98D+00  1.30D+00  8.71D-01  9.51D-01
                    CP:  1.30D+00  1.81D+00  1.42D+00  1.57D+00  1.91D+00
                    CP:  1.64D+00  1.45D+00  1.61D+00  1.53D+00  1.26D+00
                    CP:  1.15D+00
 E= -3010.54478656682     Delta-E=        0.000000000032 Rises=F Damp=F
 DIIS: error= 4.89D-08 at cycle  17 NSaved=  17.
 NSaved=17 IEnMin=16 EnMin= -3010.54478656685     IErMin=17 ErrMin= 4.89D-08
 ErrMax= 4.89D-08  0.00D+00 EMaxC= 1.00D-01 BMatC= 3.06D-13 BMatP= 2.02D-12
 IDIUse=1 WtCom= 1.00D+00 WtEn= 0.00D+00
 Coeff-Com: -0.210D-05 0.281D-05-0.169D-06 0.313D-05 0.868D-06 0.358D-04
 Coeff-Com:  0.822D-04-0.174D-03-0.671D-03-0.341D-03 0.320D-02 0.396D-02
 Coeff-Com: -0.450D-02-0.414D-01-0.645D-01 0.232D+00 0.872D+00
 Coeff:     -0.210D-05 0.281D-05-0.169D-06 0.313D-05 0.868D-06 0.358D-04
 Coeff:      0.822D-04-0.174D-03-0.671D-03-0.341D-03 0.320D-02 0.396D-02
 Coeff:     -0.450D-02-0.414D-01-0.645D-01 0.232D+00 0.872D+00
 Gap=     0.243 Goal=   None    Shift=    0.000
 RMSDP=2.44D-08 MaxDP=2.05D-06 DE= 3.23D-11 OVMax= 9.14D-07

 Cycle  18  Pass 1  IDiag  1:
 RMSU=  6.81D-09    CP:  3.42D-01  2.98D+00  1.30D+00  8.71D-01  9.51D-01
                    CP:  1.30D+00  1.81D+00  1.42D+00  1.57D+00  1.91D+00
                    CP:  1.64D+00  1.45D+00  1.61D+00  1.54D+00  1.31D+00
                    CP:  1.29D+00  1.29D+00
 E= -3010.54478656687     Delta-E=       -0.000000000053 Rises=F Damp=F
 DIIS: error= 1.10D-08 at cycle  18 NSaved=  18.
 NSaved=18 IEnMin=18 EnMin= -3010.54478656687     IErMin=18 ErrMin= 1.10D-08
 ErrMax= 1.10D-08  0.00D+00 EMaxC= 1.00D-01 BMatC= 6.78D-14 BMatP= 3.06D-13
 IDIUse=1 WtCom= 1.00D+00 WtEn= 0.00D+00
 Coeff-Com: -0.191D-07 0.266D-07-0.110D-06-0.205D-05-0.147D-04-0.319D-04
 Coeff-Com:  0.314D-04 0.115D-03 0.177D-03-0.440D-03-0.113D-02 0.228D-02
 Coeff-Com:  0.865D-02-0.928D-02-0.534D-01-0.763D-01 0.319D+00 0.810D+00
 Coeff:     -0.191D-07 0.266D-07-0.110D-06-0.205D-05-0.147D-04-0.319D-04
 Coeff:      0.314D-04 0.115D-03 0.177D-03-0.440D-03-0.113D-02 0.228D-02
 Coeff:      0.865D-02-0.928D-02-0.534D-01-0.763D-01 0.319D+00 0.810D+00
 Gap=     0.243 Goal=   None    Shift=    0.000
 RMSDP=9.27D-09 MaxDP=4.78D-07 DE=-5.32D-11 OVMax= 2.47D-07

 SCF Done:  E(RwB97XD) =  -3010.54478657     A.U. after   18 cycles
            NFock= 18  Conv=0.93D-08     -V/T= 2.0016
 KE= 3.005827800299D+03 PE=-8.629696405906D+03 EE= 1.875991613106D+03
 Leave Link  502 at Wed May  1 15:25:46 2024, MaxMem=  1207959552 cpu:            1005.7 elap:            1005.8
 (Enter /software/gaussian/g16-c01/sse4/g16/l601.exe)
 Copying SCF densities to generalized density rwf, IOpCl= 0 IROHF=0.

 **********************************************************************

            Population analysis using the SCF Density.

 **********************************************************************

 Alpha  occ. eigenvalues -- -483.28721 -62.83704 -56.63441 -56.62807 -56.62805
 Alpha  occ. eigenvalues --  -19.45063 -19.45004 -14.84561 -10.56934 -10.56426
 Alpha  occ. eigenvalues --  -10.56248 -10.56023 -10.55834 -10.52114  -8.99479
 Alpha  occ. eigenvalues --   -6.82275  -6.80213  -6.80201  -2.92151  -2.91605
 Alpha  occ. eigenvalues --   -2.91594  -2.89946  -2.89946  -1.48826  -1.31806
 Alpha  occ. eigenvalues --   -1.21585  -1.12789  -1.10713  -1.02228  -1.00144
 Alpha  occ. eigenvalues --   -0.94350  -0.90005  -0.84443  -0.79937  -0.79694
 Alpha  occ. eigenvalues --   -0.79125  -0.77476  -0.75248  -0.75007  -0.70901
 Alpha  occ. eigenvalues --   -0.68367  -0.66619  -0.62129  -0.58753  -0.56252
 Alpha  occ. eigenvalues --   -0.55346  -0.54808  -0.53330  -0.52634
 Alpha virt. eigenvalues --   -0.28348  -0.20515  -0.14406  -0.12822  -0.10874
 Alpha virt. eigenvalues --   -0.08577  -0.08096  -0.05904  -0.04498  -0.04012
 Alpha virt. eigenvalues --   -0.02418  -0.01160  -0.00422   0.00853   0.01372
 Alpha virt. eigenvalues --    0.01440   0.02835   0.03819   0.04032   0.04725
 Alpha virt. eigenvalues --    0.05449   0.06024   0.06528   0.07061   0.07504
 Alpha virt. eigenvalues --    0.08149   0.08589   0.09242   0.10133   0.11070
 Alpha virt. eigenvalues --    0.11601   0.11902   0.12476   0.12785   0.13181
 Alpha virt. eigenvalues --    0.14002   0.15315   0.15541   0.16039   0.16524
 Alpha virt. eigenvalues --    0.17367   0.18130   0.18589   0.18937   0.19652
 Alpha virt. eigenvalues --    0.20492   0.22041   0.22343   0.22953   0.25777
 Alpha virt. eigenvalues --    0.25997   0.28531   0.29337   0.31503   0.34166
 Alpha virt. eigenvalues --    0.34664   0.34966   0.35684   0.37311   0.37584
 Alpha virt. eigenvalues --    0.38821   0.38970   0.40543   0.41324   0.43389
 Alpha virt. eigenvalues --    0.43862   0.44794   0.45059   0.46800   0.48273
 Alpha virt. eigenvalues --    0.48766   0.51372   0.52227   0.53371   0.54184
 Alpha virt. eigenvalues --    0.55219   0.56332   0.57156   0.58148   0.60262
 Alpha virt. eigenvalues --    0.62196   0.63245   0.65319   0.68138   0.69681
 Alpha virt. eigenvalues --    0.70957   0.73072   0.73378   0.74215   0.75010
 Alpha virt. eigenvalues --    0.75791   0.80039   0.80799   0.85123   0.86111
 Alpha virt. eigenvalues --    0.87705   0.88888   0.92551   0.94227   0.99532
 Alpha virt. eigenvalues --    1.00462   1.01956   1.05603   1.06131   1.07453
 Alpha virt. eigenvalues --    1.10320   1.11563   1.12909   1.13334   1.15005
 Alpha virt. eigenvalues --    1.22784   1.25229   1.27466   1.33811   1.37300
 Alpha virt. eigenvalues --    1.37656   1.38961   1.46266   1.55203   1.57921
 Alpha virt. eigenvalues --    1.59315   1.59617   1.61415   1.63195   1.67232
 Alpha virt. eigenvalues --    1.69939   1.70704   1.74365   1.76051   1.79872
 Alpha virt. eigenvalues --    1.81913   1.86220   1.88301   1.95902   1.98016
 Alpha virt. eigenvalues --    1.99580   2.03744   2.04777   2.08247   2.09268
 Alpha virt. eigenvalues --    2.10902   2.15670   2.21142   2.23407   2.30014
 Alpha virt. eigenvalues --    2.38254   2.41924   2.43098   2.44236   2.53287
 Alpha virt. eigenvalues --    2.57372   2.63822   2.66899   2.68991   2.72503
 Alpha virt. eigenvalues --    2.74172   2.77293   2.78131   2.81844   2.82721
 Alpha virt. eigenvalues --    2.94520   2.97225   3.01427   3.06477   3.09810
 Alpha virt. eigenvalues --    3.13742   3.15753   3.19813   3.24477   3.25053
 Alpha virt. eigenvalues --    3.28132   3.39907   3.48404   3.52040   3.55303
 Alpha virt. eigenvalues --    3.57660   3.70721   3.74908   3.83026   3.88069
 Alpha virt. eigenvalues --    4.11729   4.11943   4.19196   4.24457   4.45114
 Alpha virt. eigenvalues --    4.45223   4.58370   4.60703   4.93976   4.96637
 Alpha virt. eigenvalues --    5.05290   5.09457   5.63615   6.16544   6.67311
 Alpha virt. eigenvalues --    7.50447   7.52000   7.61625  23.22225  23.62135
 Alpha virt. eigenvalues --   23.70799  23.80423  23.96856  24.02256  35.33396
 Alpha virt. eigenvalues --   47.93759  49.86354  49.95164 289.83048 289.84715
 Alpha virt. eigenvalues --  289.971201020.94120
          Condensed to atoms (all electrons):
               1          2          3          4          5          6
     1  C    8.854110  -1.914156  -0.256344  -1.281623  -0.671101   0.305508
     2  C   -1.914156  12.868108  -1.352923  -3.727068   0.631496  -0.017346
     3  C   -0.256344  -1.352923  13.558774  -3.771534  -0.938630   0.030251
     4  C   -1.281623  -3.727068  -3.771534  17.011604   0.903946   0.003817
     5  C   -0.671101   0.631496  -0.938630   0.903946   7.661500   0.013631
     6  H    0.305508  -0.017346   0.030251   0.003817   0.013631   0.339457
     7  H    0.065371   0.229199   0.078521  -0.031610  -0.023132  -0.001702
     8  H    0.005920  -0.009192   0.077803   0.220432  -0.022501   0.000003
     9  H    0.037426  -0.022734   0.002883  -0.006010   0.295170  -0.002365
    10  N   -0.117474   0.352760  -0.982125   0.298914  -0.003953  -0.000709
    11  O    0.020630  -0.036630  -0.243254  -0.078370  -0.058927  -0.000022
    12  O    0.305406  -0.116776  -0.262979  -0.003063  -0.045588   0.000069
    13  C    1.184283  -1.359838   0.708976  -3.767786  -1.696817  -0.001169
    14  H   -0.025882   0.003223  -0.000197  -0.007674   0.014969  -0.000037
    15  Br   0.036886   0.017781   0.045647  -0.025450  -0.007788  -0.000101
               7          8          9         10         11         12
     1  C    0.065371   0.005920   0.037426  -0.117474   0.020630   0.305406
     2  C    0.229199  -0.009192  -0.022734   0.352760  -0.036630  -0.116776
     3  C    0.078521   0.077803   0.002883  -0.982125  -0.243254  -0.262979
     4  C   -0.031610   0.220432  -0.006010   0.298914  -0.078370  -0.003063
     5  C   -0.023132  -0.022501   0.295170  -0.003953  -0.058927  -0.045588
     6  H   -0.001702   0.000003  -0.002365  -0.000709  -0.000022   0.000069
     7  H    0.301612   0.000019   0.000052  -0.026125  -0.001489   0.021812
     8  H    0.000019   0.302069   0.000168  -0.024395   0.023681  -0.000934
     9  H    0.000052   0.000168   0.337890   0.000534  -0.000015   0.000013
    10  N   -0.026125  -0.024395   0.000534   7.396729   0.188112   0.139617
    11  O   -0.001489   0.023681  -0.000015   0.188112   7.841649  -0.004103
    12  O    0.021812  -0.000934   0.000013   0.139617  -0.004103   7.890015
    13  C    0.020220   0.057181   0.014309  -0.112392   0.314372   0.043167
    14  H   -0.000049  -0.007372  -0.008650  -0.001114  -0.000096  -0.000004
    15  Br   0.000278   0.006269   0.005021   0.003672   0.001567   0.002963
              13         14         15
     1  C    1.184283  -0.025882   0.036886
     2  C   -1.359838   0.003223   0.017781
     3  C    0.708976  -0.000197   0.045647
     4  C   -3.767786  -0.007674  -0.025450
     5  C   -1.696817   0.014969  -0.007788
     6  H   -0.001169  -0.000037  -0.000101
     7  H    0.020220  -0.000049   0.000278
     8  H    0.057181  -0.007372   0.006269
     9  H    0.014309  -0.008650   0.005021
    10  N   -0.112392  -0.001114   0.003672
    11  O    0.314372  -0.000096   0.001567
    12  O    0.043167  -0.000004   0.002963
    13  C   10.617469   0.303412   0.133103
    14  H    0.303412   0.438257  -0.054525
    15  Br   0.133103  -0.054525  34.507514
 Mulliken charges:
               1
     1  C   -0.548961
     2  C    0.454096
     3  C   -0.694869
     4  C    0.261476
     5  C   -0.052275
     6  H    0.330715
     7  H    0.367022
     8  H    0.370850
     9  H    0.346309
    10  N   -0.112052
    11  O    0.032894
    12  O    0.030384
    13  C   -0.458491
    14  H    0.345739
    15  Br   0.327163
 Sum of Mulliken charges =   1.00000
 Mulliken charges with hydrogens summed into heavy atoms:
               1
     1  C   -0.218245
     2  C    0.821118
     3  C   -0.694869
     4  C    0.632325
     5  C    0.294034
    10  N   -0.112052
    11  O    0.032894
    12  O    0.030384
    13  C   -0.112752
    15  Br   0.327163
 Electronic spatial extent (au):  <R**2>=           2796.0699
 Charge=              1.0000 electrons
 Dipole moment (field-independent basis, Debye):
    X=             -1.2340    Y=             -1.2264    Z=             -2.8997  Tot=              3.3816
 Quadrupole moment (field-independent basis, Debye-Ang):
   XX=            -71.8376   YY=            -51.1512   ZZ=            -59.7674
   XY=              1.7722   XZ=             -0.2199   YZ=              4.1013
 Traceless Quadrupole moment (field-independent basis, Debye-Ang):
   XX=            -10.9189   YY=              9.7675   ZZ=              1.1513
   XY=              1.7722   XZ=             -0.2199   YZ=              4.1013
 Octapole moment (field-independent basis, Debye-Ang**2):
  XXX=           -302.6036  YYY=             83.1672  ZZZ=             64.4625  XYY=            -77.7842
  XXY=             29.2798  XXZ=             22.5947  XZZ=            -80.1420  YZZ=              9.7878
  YYZ=             16.5814  XYZ=             -5.0596
 Hexadecapole moment (field-independent basis, Debye-Ang**3):
 XXXX=          -2290.2022 YYYY=           -667.8607 ZZZZ=           -321.3810 XXXY=            -66.5510
 XXXZ=            -48.1458 YYYX=            -56.6239 YYYZ=           -140.4857 ZZZX=            -16.3477
 ZZZY=           -117.1348 XXYY=           -456.4055 XXZZ=           -367.3455 YYZZ=           -149.4293
 XXYZ=            -52.3227 YYXZ=             -1.8340 ZZXY=             -4.7672
 N-N= 7.373322059339D+02 E-N=-8.629696407866D+03  KE= 3.005827800299D+03
 No NMR shielding tensors so no spin-rotation constants.
 Leave Link  601 at Wed May  1 15:25:53 2024, MaxMem=  1207959552 cpu:               7.4 elap:               7.4
 (Enter /software/gaussian/g16-c01/sse4/g16/l9999.exe)
 Unable to Open any file for archive entry.
 1\1\GINC-BHX0012\SP\RwB97XD\6-311+G(d)\C6H5Br1N1O2(1+)\BWEIGHT\01-May-
 2024\0\\#P wB97XD/6-311+G* NoSymm #P Field=Z+165\\TitleMe\\1,1\C,0,0.0
 295,1.3397,0.0682\C,0,1.4348,1.2867,0.0064\C,0,2.1118,0.0511,-0.0054\C
 ,0,1.4451,-1.1372,0.0312\C,0,-0.6879,0.1682,0.11\H,0,-0.4713,2.2984,0.
 0781\H,0,2.0273,2.1965,-0.0322\H,0,1.9897,-2.0764,0.0232\H,0,-1.7716,0
 .1804,0.1582\N,0,3.5864,0.051,-0.0675\O,0,4.1471,-1.0597,-0.0881\O,0,4
 .145,1.1639,-0.0901\C,0,-0.0236,-1.1458,0.0835\H,0,-0.4367,-1.8725,0.7
 889\Br,0,-0.5359,-1.8697,-1.7408\\Version=ES64L-G16RevC.01\HF=-3010.54
 47866\RMSD=9.265e-09\Dipole=-2.3920485,0.6655734,0.0053597\Quadrupole=
 -8.1179127,7.2619218,0.8559908,1.3176043,-0.1634834,3.0491962\PG=C01 [
 X(C6H5Br1N1O2)]\\@
 The archive entry for this job was punched.


 I WANT IT ALL - RICH, THIN, AND CHOCOLATE.
 Job cpu time:       0 days  0 hours 17 minutes 52.4 seconds.
 Elapsed time:       0 days  0 hours 17 minutes 52.5 seconds.
 File lengths (MBytes):  RWF=     40 Int=      0 D2E=      0 Chk=     32 Scr=      1
 Normal termination of Gaussian 16 at Wed May  1 15:25:54 2024.
