
Running Job 1 of 1 QCHEM.in
qchem QCHEM.in_30383.0 /local_scratch/16922331/QCLOCALSCR/save/ 0
/gpfs/fs2/scratch/phuo_lab/Program/Qchem/exe/qcprog.exe_s QCHEM.in_30383.0 /local_scratch/16922331/QCLOCALSCR/save/
                  Welcome to Q-Chem
     A Quantum Leap Into The Future Of Chemistry


 Q-Chem 6.0, Q-Chem, Inc., Pleasanton, CA (2022)

 License issued to: SRG Frank Huo, University of Rochester

 E. Epifanovsky,  A. T. B. Gilbert,  Xintian Feng,  Joonho Lee,  Yuezhi Mao,  
 N. Mardirossian,  P. Pokhilko,  A. White,  M. Wormit,  M. P. Coons,  
 A. L. Dempwolff,  Zhengting Gan,  D. Hait,  P. R. Horn,  L. D. Jacobson,  
 I. Kaliman,  J. Kussmann,  A. W. Lange,  Ka Un Lao,  D. S. Levine,  Jie Liu,  
 S. C. McKenzie,  A. F. Morrison,  K. Nanda,  F. Plasser,  D. R. Rehn,  
 M. L. Vidal,  Zhi-Qiang You,  Ying Zhu,  B. Alam,  B. Albrecht,  
 A. Aldossary,  E. Alguire,  J. H. Andersen,  V. Athavale,  D. Barton,  
 K. Begam,  A. Behn,  N. Bellonzi,  Y. A. Bernard,  E. J. Berquist,  
 H. Burton,  A. Carreras,  K. Carter-Fenk,  Romit Chakraborty,  
 Chandrima Chakravarty,  Junhan Chen,  A. D. Chien,  K. D. Closser,  
 V. Cofer-Shabica,  L. Cunha,  S. Dasgupta,  Jia Deng,  M. de Wergifosse,  
 M. Diedenhofen,  Hainam Do,  S. Ehlert,  Po-Tung Fang,  S. Fatehi,  
 Qingguo Feng,  T. Friedhoff,  B. Ganoe,  J. Gayvert,  Qinghui Ge,  
 G. Gidofalvi,  M. Goldey,  J. Gomes,  C. Gonzalez-Espinoza,  S. Gulania,  
 A. Gunina,  J. A. Gyamfi,  M. W. D. Hanson-Heine,  P. H. P. Harbach,  
 A. W. Hauser,  M. F. Herbst,  M. Hernandez Vera,  M. Hodecker,  
 Z. C. Holden,  S. Houck,  Xunkun Huang,  Kerwin Hui,  B. C. Huynh,  
 K. Ikeda,  M. Ivanov,  Hyunjun Ji,  Zuxin Jin,  Hanjie Jiang,  B. Kaduk,  
 S. Kaehler,  R. Kang,  K. Khistyaev,  Jaehoon Kim,  Yongbin Kim,  
 P. Klunzinger,  Z. Koczor-Benda,  Joong Hoon Koh,  D. Kosenkov,  
 Saikiran Kotaru,  L. Koulias,  T. Kowalczyk,  C. M. Krauter,  K. Kue,  
 A. Kunitsa,  T. Kus,  A. Landau,  K. V. Lawler,  D. Lefrancois,  S. Lehtola,  
 Rain Li,  Shaozhi Li,  Yi-Pei Li,  Jiashu Liang,  M. Liebenthal,  
 Hung-Hsuan Lin,  You-Sheng Lin,  Fenglai Liu,  Kuan-Yu Liu,  
 M. Loipersberger,  A. Luenser,  C. Malbon,  A. Manjanath,  P. Manohar,  
 E. Mansoor,  S. F. Manzer,  Shan-Ping Mao,  A. V. Marenich,  T. Markovich,  
 S. Mason,  F. Matz,  S. A. Maurer,  P. F. McLaughlin,  M. F. S. J. Menger,  
 J.-M. Mewes,  S. A. Mewes,  P. Morgante,  Mohammad Mostafanejad,  
 J. W. Mullinax,  K. J. Oosterbaan,  G. Paran,  V. Parravicini,  
 Alexander C. Paul,  Suranjan K. Paul,  F. Pavosevic,  Zheng Pei,  S. Prager,  
 E. I. Proynov,  E. Ramos,  B. Rana,  A. E. Rask,  A. Rettig,  R. M. Richard,  
 F. Rob,  E. Rossomme,  T. Scheele,  M. Scheurer,  M. Schneider,  
 P. E. Schneider,  N. Sergueev,  S. M. Sharada,  Hengyuan Shen,  
 W. Skomorowski,  D. W. Small,  C. J. Stein,  Yingli Su,  Yu-Chuan Su,  
 E. J. Sundstrom,  Zhen Tao,  J. Thirman,  Hung-Yi Tsai,  T. Tsuchimochi,  
 N. M. Tubman,  C. Utku,  S. P. Veccham,  O. Vydrov,  J. Wenzel,  
 Jonathan Wong,  J. Witte,  A. Yamada,  Chou-Hsun Yang,  Kun Yao,  
 S. Yeganeh,  S. R. Yost,  A. Zech,  F. Zeller,  Igor Ying Zhang,  
 Xing Zhang,  Yu Zhang,  D. Zuev,  A. Aspuru-Guzik,  A. T. Bell,  
 N. A. Besley,  K. B. Bravaya,  B. R. Brooks,  D. Casanova,  Jeng-Da Chai,  
 Hsing-Ta Chen,  S. Coriani,  C. J. Cramer,  A. E. DePrince, III,  
 R. A. DiStasio Jr.,  A. Dreuw,  B. D. Dunietz,  T. R. Furlani,  
 W. A. Goddard III,  S. Grimme,  S. Hammes-Schiffer,  T. Head-Gordon,  
 W. J. Hehre,  Chao-Ping Hsu,  T.-C. Jagau,  Yousung Jung,  A. Klamt,  
 Jing Kong,  D. S. Lambrecht,  Xiangyuan Li,  WanZhen Liang,  N. J. Mayhall,  
 C. W. McCurdy,  J. B. Neaton,  T. Neudecker,  C. Ochsenfeld,  
 J. A. Parkhill,  R. Peverati,  V. A. Rassolov,  Haisheng Ren,  Yihan Shao,  
 L. V. Slipchenko,  R. P. Steele,  J. E. Subotnik,  A. J. W. Thom,  
 A. Tkatchenko,  D. G. Truhlar,  T. Van Voorhis,  Fan Wang,  
 T. A. Wesolowski,  K. B. Whaley,  H. L. Woodcock III,  P. M. Zimmerman,  
 S. Faraji,  P. M. W. Gill,  M. Head-Gordon,  J. M. Herbert,  A. I. Krylov

 Contributors to earlier versions of Q-Chem not listed above: 
 R. D. Adamson,  B. Austin,  R. Baer,  J. Baker,  G. J. O. Beran,  
 K. Brandhorst,  S. T. Brown,  E. F. C. Byrd,  Arup K. Chakraborty,  
 G. K. L. Chan,  Chun-Min Chang,  Yunqing Chen,  C.-L. Cheng,  
 Siu Hung Chien,  D. M. Chipman,  D. L. Crittenden,  H. Dachsel,  
 R. J. Doerksen,  A. D. Dutoi,  R. G. Edgar,  J. Fosso-Tande,  
 L. Fusti-Molnar,  D. Ghosh,  A. Ghysels,  A. Golubeva-Zadorozhnaya,  
 J. Gonthier,  M. S. Gordon,  S. R. Gwaltney,  G. Hawkins,  J. E. Herr,  
 A. Heyden,  S. Hirata,  E. G. Hohenstein,  G. Kedziora,  F. J. Keil,  
 C. Kelley,  Jihan Kim,  R. A. King,  R. Z. Khaliullin,  P. P. Korambath,  
 W. Kurlancheek,  A. Laurent,  A. M. Lee,  M. S. Lee,  S. V. Levchenko,  
 Ching Yeh Lin,  D. Liotard,  E. Livshits,  R. C. Lochan,  I. Lotan,  
 L. A. Martinez-Martinez,  P. E. Maslen,  N. Nair,  D. P. O'Neill,  
 D. Neuhauser,  E. Neuscamman,  C. M. Oana,  R. Olivares-Amaya,  R. Olson,  
 T. M. Perrine,  B. Peters,  P. A. Pieniazek,  A. Prociuk,  Y. M. Rhee,  
 J. Ritchie,  M. A. Rohrdanz,  E. Rosta,  N. J. Russ,  H. F. Schaefer III,  
 M. W. Schmidt,  N. E. Schultz,  S. Sharma,  N. Shenvi,  C. D. Sherrill,  
 A. C. Simmonett,  A. Sodt,  T. Stein,  D. Stuck,  K. S. Thanthiriwatte,  
 V. Vanovschi,  L. Vogt,  Tao Wang,  A. Warshel,  M. A. Watson,  
 C. F. Williams,  Q. Wu,  X. Xu,  Jun Yang,  W. Zhang,  Yan Zhao

   Please cite Q-Chem as follows:
  "Software for the frontiers of quantum chemistry:
   An overview of developments in the Q-Chem 5 package"
   J. Chem. Phys. 155, 084801 (2021)
   https://doi.org/10.1063/5.0055522 (open access)

 Q-Chem 6.0.2 for Intel X86 EM64T Linux

 Parts of Q-Chem use Armadillo 9.900.5 (Nocturnal Misbehaviour).
 http://arma.sourceforge.net/

 Q-Chem begins on Sat May 27 17:46:43 2023  

 Host: 
0

     Scratch files written to /local_scratch/16922331/QCLOCALSCR/save//
 Dec722 |scratch|qcdevops|jenkins|workspace|build_RNUM 9024   
 Processing $rem in /gpfs/fs2/scratch/phuo_lab/Program/Qchem/config/preferences:
 Processing $rem in /home/bweight/.qchemrc:

 Checking the input file for inconsistencies... 	...done.

--------------------------------------------------------------
User input:
--------------------------------------------------------------
$molecule
1 1
C                  0.51932475    1.23303451   -0.03194925
C                  1.94454413    1.26916358   -0.03672882
C                  2.62037793    0.09283428   -0.02499003
C                 -0.19603352    0.03013062    0.00102732
H                 -0.02069420    2.17423764   -0.04336646
H                  2.48281698    2.20891057   -0.03611879
H                 -1.27770137    0.03990295    0.01166953
N                  4.09213475    0.09594076    0.03662979
O                  4.63930696   -1.02169275    0.14459220
O                  4.66489883    1.19839699   -0.02327545
C                  0.49428518   -1.16712649    0.02099746
H                 -0.03251071   -2.11492669    0.05447935
C                  1.96291176   -1.21653219   -0.02111314
H                  2.44359113   -1.96306433    0.61513886
Br                 2.17304025   -1.94912156   -1.90618750
$end

$rem
!SCF_GUESS         read
!SKIP_CIS_RPA      TRUE
METHOD             wB97XD
RPA                TRUE
BASIS              6-311+G*
CIS_N_ROOTS        100
CIS_SINGLETS       TRUE
CIS_TRIPLETS       FALSE
MAKE_CUBE_FILES    TRUE
PLOTS              TRUE
STS_MOM            TRUE
SYM_IGNORE         TRUE
SYMMETRY           FALSE
NTO_PAIRS          1
! NBO                2
$end

$plots
grid_points                    75 75 75
total_density                  0-100
transition_density             1-100
natural_transition_orbital     1-100
$end

! natural_bond_orbital           1-5 ! How many here ? Is it physical to mix these ?
! nbo_state                      0-10






























--------------------------------------------------------------
 ----------------------------------------------------------------
             Standard Nuclear Orientation (Angstroms)
    I     Atom           X                Y                Z
 ----------------------------------------------------------------
    1      C       0.5193247500     1.2330345100    -0.0319492500
    2      C       1.9445441300     1.2691635800    -0.0367288200
    3      C       2.6203779300     0.0928342800    -0.0249900300
    4      C      -0.1960335200     0.0301306200     0.0010273200
    5      H      -0.0206942000     2.1742376400    -0.0433664600
    6      H       2.4828169800     2.2089105700    -0.0361187900
    7      H      -1.2777013700     0.0399029500     0.0116695300
    8      N       4.0921347500     0.0959407600     0.0366297900
    9      O       4.6393069600    -1.0216927500     0.1445922000
   10      O       4.6648988300     1.1983969900    -0.0232754500
   11      C       0.4942851800    -1.1671264900     0.0209974600
   12      H      -0.0325107100    -2.1149266900     0.0544793500
   13      C       1.9629117600    -1.2165321900    -0.0211131400
   14      H       2.4435911300    -1.9630643300     0.6151388600
   15      Br      2.1730402500    -1.9491215600    -1.9061875000
 ----------------------------------------------------------------
 Nuclear Repulsion Energy =         772.88407152 hartrees
 There are       49 alpha and       49 beta electrons
 Requested basis set is 6-311+G(d)
 There are 88 shells and 261 basis functions

 Total QAlloc Memory Limit   2000 MB
 Mega-Array Size       188 MB
 MEM_STATIC part       192 MB


                       Distance Matrix (Angstroms)
             C (  1)   C (  2)   C (  3)   C (  4)   H (  5)   H (  6)
   C (  2)  1.425685
   C (  3)  2.390508  1.356702
   C (  4)  1.399930  2.473601  2.817230
   H (  5)  1.085179  2.163646  3.362713  2.151722
   H (  6)  2.192636  1.082988  2.120572  3.453216  2.503762
   H (  7)  2.157491  3.449100  3.898611  1.081764  2.477596  4.341472
   N (  8)  3.750021  2.448260  1.473049  4.288821  4.608805  2.657035
   O (  9)  4.699917  3.541560  2.312359  4.950501  5.653752  3.888432
   O ( 10)  4.145728  2.721308  2.324293  4.999410  4.786173  2.404742
   C ( 11)  2.400875  2.835858  2.471818  1.382159  3.381429  3.918564
   H ( 12)  3.394236  3.920348  3.452295  2.151945  4.290297  5.003064
   C ( 13)  2.843315  2.485813  1.465168  2.493131  3.928423  3.464706
   H ( 14)  3.786367  3.334858  2.160495  3.364161  4.860411  4.222683
   Br( 15)  4.046438  3.728867  2.812223  3.628694  5.028386  4.569721
             H (  7)   N (  8)   O (  9)   O ( 10)   C ( 11)   H ( 12)
   N (  8)  5.370187
   O (  9)  6.012956  1.249063
   O ( 10)  6.054571  1.243807  2.226574
   C ( 11)  2.144048  3.813149  4.149413  4.794964
   H ( 12)  2.489101  4.679845  4.798871  5.748897  1.084878
   C ( 13)  3.475813  2.501901  2.688589  3.623896  1.470061  2.189643
   H ( 14)  4.268966  2.700346  2.434905  3.916199  2.187765  2.543321
   Br( 15)  4.420635  3.411707  3.338906  4.434139  2.672784  2.955700
             C ( 13)   H ( 14)
   H ( 14)  1.092328
   Br( 15)  2.033309  2.535839
 
 A cutoff of  1.0D-12 yielded   3398 shell pairs
 There are     31284 function pairs (     34176 Cartesian)
 Smallest overlap matrix eigenvalue = 2.51E-06

 Scale SEOQF with 1.000000e-01/1.000000e-01/1.000000e-01

 Standard Electronic Orientation quadrupole field applied
 Nucleus-field energy     =     0.0000000272 hartrees
 Guess from superposition of atomic densities
 Warning:  Energy on first SCF cycle will be non-variational
 SAD guess density has 99.000000 electrons

 -----------------------------------------------------------------------
  General SCF calculation program by
  Eric Jon Sundstrom, Paul Horn, Yuezhi Mao, Dmitri Zuev, Alec White,
  David Stuck, Shaama M.S., Shane Yost, Joonho Lee, David Small,
  Daniel Levine, Susi Lehtola, Hugh Burton, Evgeny Epifanovsky,
  Bang C. Huynh
 -----------------------------------------------------------------------
 Exchange:     0.2220 Hartree-Fock + 1.0000 wB97X-D + LR-HF
 Correlation:  1.0000 wB97X-D
 Using SG-2 standard quadrature grid
 Dispersion:   Grimme D
 using 12 threads for integral computing
 -------------------------------------------------------
 OpenMP Integral computing Module                
 Release: version 1.0, May 2013, Q-Chem Inc. Pittsburgh 
 -------------------------------------------------------
 A restricted SCF calculation will be
 performed using DIIS
 SCF converges when DIIS error is below 1.0e-08
 ---------------------------------------
  Cycle       Energy         DIIS error
 ---------------------------------------
    1   -3013.4370373818      3.98e-02  
    2   -3010.2533742753      6.27e-03  
    3   -3009.9637625580      9.95e-03  
    4   -3010.5217745025      6.12e-04  
    5   -3010.5225473903      5.37e-04  
    6   -3010.5240675133      2.29e-04  
    7   -3010.5243766305      5.14e-05  
    8   -3010.5244011688      1.48e-05  
    9   -3010.5244038356      5.84e-06  
   10   -3010.5244043593      1.90e-06  
   11   -3010.5244044586      8.71e-07  
   12   -3010.5244044831      4.51e-07  
   13   -3010.5244044932      2.45e-07  
   14   -3010.5244044962      7.74e-08  
   15   -3010.5244044965      3.53e-08  
   16   -3010.5244044966      1.32e-08  
   17   -3010.5244044966      5.00e-09  Convergence criterion met
 ---------------------------------------
 SCF time:   CPU 287.88s  wall 25.00s 
 SCF   energy in the final basis set =    -3010.5244044966
 Total energy in the final basis set =    -3010.5244044966
 
 MAX_CIS_SUBSPACE fits in available memory
 Direct TDDFT/TDA calculation will be performed
 Exchange:     0.2220 Hartree-Fock + 1.0000 wB97X-D + LR-HF
 Correlation:  1.0000 wB97X-D
 Using SG-2 standard quadrature grid
 Dispersion:   Grimme D
 Singlet excitation energies requested
 CIS energy converged when residual is below 10e- 6
 ---------------------------------------------------
 Iter    Rts Conv    Rts Left    Ttl Dev     Max Dev
 ---------------------------------------------------
   1         0         100      0.046269    0.001874
   2         0         100      0.015527    0.001399
   3         0         100      0.008248    0.000542
   4         4          96      0.003196    0.000161
   5        33          67      0.001041    0.000091
   6        58          42      0.000292    0.000030
   7        78          22      0.000084    0.000008
   8        98           2      0.000035    0.000002
   9       100           0      0.000031    0.000001    Roots Converged
 ---------------------------------------------------
 
 ---------------------------------------------------
         TDDFT/TDA Excitation Energies              
 ---------------------------------------------------

 Excited state   1: excitation energy (eV) =    2.4094
 Total energy for state  1:                 -3010.43586107 au
    Multiplicity: Singlet
    Trans. Mom.: -0.2542 X  -0.2914 Y  -0.1404 Z
    Strength   :     0.0099926114
    D(   49) --> V(    1) amplitude =  0.9379

 Excited state   2: excitation energy (eV) =    2.7027
 Total energy for state  2:                 -3010.42508201 au
    Multiplicity: Singlet
    Trans. Mom.:  0.1244 X  -0.2196 Y  -0.1855 Z
    Strength   :     0.0064946457
    D(   47) --> V(    1) amplitude =  0.8305
    D(   48) --> V(    1) amplitude =  0.4367

 Excited state   3: excitation energy (eV) =    2.8069
 Total energy for state  3:                 -3010.42125458 au
    Multiplicity: Singlet
    Trans. Mom.:  0.0360 X   0.1368 Y   0.1029 Z
    Strength   :     0.0021048254
    D(   46) --> V(    1) amplitude =  0.2232
    D(   47) --> V(    1) amplitude = -0.3917
    D(   48) --> V(    1) amplitude =  0.7674
    D(   48) --> V(    2) amplitude = -0.3836

 Excited state   4: excitation energy (eV) =    3.1683
 Total energy for state  4:                 -3010.40797313 au
    Multiplicity: Singlet
    Trans. Mom.: -0.1309 X  -0.0606 Y  -0.0312 Z
    Strength   :     0.0016912432
    D(   45) --> V(    1) amplitude =  0.8861
    D(   45) --> V(    2) amplitude = -0.3528

 Excited state   5: excitation energy (eV) =    3.7081
 Total energy for state  5:                 -3010.38813513 au
    Multiplicity: Singlet
    Trans. Mom.:  0.1111 X  -0.0739 Y   0.1014 Z
    Strength   :     0.0025528502
    D(   46) --> V(    1) amplitude =  0.8888
    D(   47) --> V(    1) amplitude =  0.2893

 Excited state   6: excitation energy (eV) =    4.1420
 Total energy for state  6:                 -3010.37218779 au
    Multiplicity: Singlet
    Trans. Mom.: -1.0944 X  -0.3776 Y   0.0810 Z
    Strength   :     0.1366825317
    D(   44) --> V(    1) amplitude =  0.9321

 Excited state   7: excitation energy (eV) =    4.5038
 Total energy for state  7:                 -3010.35889287 au
    Multiplicity: Singlet
    Trans. Mom.:  0.2748 X   0.0759 Y   0.0100 Z
    Strength   :     0.0089797792
    D(   48) --> V(    1) amplitude =  0.4269
    D(   48) --> V(    2) amplitude =  0.7059
    D(   48) --> V(    4) amplitude = -0.3184
    D(   49) --> V(    2) amplitude =  0.2585

 Excited state   8: excitation energy (eV) =    4.8562
 Total energy for state  8:                 -3010.34594268 au
    Multiplicity: Singlet
    Trans. Mom.:  0.0093 X   0.0586 Y   0.0640 Z
    Strength   :     0.0009071557
    D(   45) --> V(    1) amplitude =  0.3640
    D(   45) --> V(    2) amplitude =  0.7548
    D(   45) --> V(    4) amplitude = -0.3266

 Excited state   9: excitation energy (eV) =    5.1840
 Total energy for state  9:                 -3010.33389686 au
    Multiplicity: Singlet
    Trans. Mom.:  0.0025 X   0.6753 Y   0.4432 Z
    Strength   :     0.0828620030
    D(   42) --> V(    1) amplitude =  0.2194
    D(   43) --> V(    1) amplitude =  0.7341
    D(   49) --> V(    2) amplitude =  0.5278

 Excited state  10: excitation energy (eV) =    5.3191
 Total energy for state 10:                 -3010.32893250 au
    Multiplicity: Singlet
    Trans. Mom.: -0.1678 X  -0.1309 Y   0.1205 Z
    Strength   :     0.0077962924
    D(   42) --> V(    1) amplitude =  0.9253

 Excited state  11: excitation energy (eV) =    5.6245
 Total energy for state 11:                 -3010.31770633 au
    Multiplicity: Singlet
    Trans. Mom.:  0.3610 X  -0.3317 Y  -0.2887 Z
    Strength   :     0.0446036124
    D(   41) --> V(    1) amplitude =  0.7138
    D(   43) --> V(    1) amplitude = -0.2370
    D(   49) --> V(    2) amplitude =  0.4783
    D(   49) --> V(    3) amplitude =  0.2220

 Excited state  12: excitation energy (eV) =    5.7054
 Total energy for state 12:                 -3010.31473429 au
    Multiplicity: Singlet
    Trans. Mom.: -0.4746 X   0.3047 Y   0.0420 Z
    Strength   :     0.0447108260
    D(   41) --> V(    1) amplitude =  0.5702
    D(   43) --> V(    1) amplitude =  0.3024
    D(   47) --> V(    2) amplitude = -0.2407
    D(   49) --> V(    2) amplitude = -0.3073
    D(   49) --> V(    3) amplitude = -0.5160

 Excited state  13: excitation energy (eV) =    5.7981
 Total energy for state 13:                 -3010.31132953 au
    Multiplicity: Singlet
    Trans. Mom.: -0.0489 X   0.2879 Y   0.0634 Z
    Strength   :     0.0126872063
    D(   46) --> V(    2) amplitude = -0.2295
    D(   47) --> V(    2) amplitude =  0.8107
    D(   47) --> V(    3) amplitude =  0.2607
    D(   48) --> V(    2) amplitude =  0.2122
    D(   49) --> V(    3) amplitude = -0.3116

 Excited state  14: excitation energy (eV) =    6.1756
 Total energy for state 14:                 -3010.29745589 au
    Multiplicity: Singlet
    Trans. Mom.:  0.1565 X  -0.3148 Y  -0.1705 Z
    Strength   :     0.0230994024
    D(   47) --> V(    2) amplitude = -0.2947
    D(   47) --> V(    3) amplitude =  0.7433
    D(   48) --> V(    3) amplitude =  0.2290
    D(   49) --> V(    3) amplitude = -0.2992

 Excited state  15: excitation energy (eV) =    6.2408
 Total energy for state 15:                 -3010.29505840 au
    Multiplicity: Singlet
    Trans. Mom.: -0.5503 X   0.5916 Y   0.4171 Z
    Strength   :     0.1264008213
    D(   43) --> V(    1) amplitude =  0.3177
    D(   46) --> V(    2) amplitude = -0.2276
    D(   47) --> V(    3) amplitude =  0.4198
    D(   49) --> V(    2) amplitude = -0.3935
    D(   49) --> V(    3) amplitude =  0.5179

 Excited state  16: excitation energy (eV) =    6.6611
 Total energy for state 16:                 -3010.27961304 au
    Multiplicity: Singlet
    Trans. Mom.: -0.0349 X   0.5427 Y   0.0364 Z
    Strength   :     0.0484739793
    D(   44) --> V(    2) amplitude =  0.5704
    D(   46) --> V(    2) amplitude =  0.6704
    D(   47) --> V(    2) amplitude =  0.2236

 Excited state  17: excitation energy (eV) =    6.7681
 Total energy for state 17:                 -3010.27568264 au
    Multiplicity: Singlet
    Trans. Mom.:  0.8200 X  -0.8921 Y  -0.1540 Z
    Strength   :     0.2473832085
    D(   44) --> V(    2) amplitude =  0.6215
    D(   44) --> V(    3) amplitude =  0.2221
    D(   45) --> V(    2) amplitude =  0.2148
    D(   46) --> V(    2) amplitude = -0.4362
    D(   49) --> V(    4) amplitude = -0.3798

 Excited state  18: excitation energy (eV) =    6.9412
 Total energy for state 18:                 -3010.26931986 au
    Multiplicity: Singlet
    Trans. Mom.: -0.1915 X   0.0622 Y  -0.0590 Z
    Strength   :     0.0074868910
    D(   48) --> V(    2) amplitude = -0.3088
    D(   48) --> V(    3) amplitude =  0.7778
    D(   48) --> V(    4) amplitude = -0.3130

 Excited state  19: excitation energy (eV) =    6.9752
 Total energy for state 19:                 -3010.26806961 au
    Multiplicity: Singlet
    Trans. Mom.:  0.1430 X   0.1624 Y   0.4054 Z
    Strength   :     0.0360813309
    D(   39) --> V(    1) amplitude =  0.4274
    D(   40) --> V(    1) amplitude =  0.7469
    D(   44) --> V(    3) amplitude =  0.2285

 Excited state  20: excitation energy (eV) =    7.1951
 Total energy for state 20:                 -3010.25998873 au
    Multiplicity: Singlet
    Trans. Mom.:  0.2015 X   0.0757 Y   0.0641 Z
    Strength   :     0.0088936412
    D(   45) --> V(    2) amplitude = -0.2956
    D(   45) --> V(    3) amplitude =  0.8083
    D(   45) --> V(    4) amplitude = -0.2724
    D(   48) --> V(    4) amplitude = -0.2169

 Excited state  21: excitation energy (eV) =    7.3459
 Total energy for state 21:                 -3010.25444780 au
    Multiplicity: Singlet
    Trans. Mom.: -0.0089 X   0.0759 Y  -0.0856 Z
    Strength   :     0.0023691953
    D(   39) --> V(    1) amplitude =  0.2602
    D(   43) --> V(    2) amplitude = -0.3460
    D(   44) --> V(    3) amplitude = -0.4875
    D(   46) --> V(    3) amplitude =  0.5456
    D(   49) --> V(    4) amplitude = -0.3088

 Excited state  22: excitation energy (eV) =    7.4535
 Total energy for state 22:                 -3010.25049395 au
    Multiplicity: Singlet
    Trans. Mom.:  0.3642 X  -0.1428 Y  -0.0690 Z
    Strength   :     0.0288163393
    D(   44) --> V(    3) amplitude =  0.2726
    D(   46) --> V(    3) amplitude =  0.5763
    D(   48) --> V(    4) amplitude =  0.3703
    D(   49) --> V(    4) amplitude =  0.4716

 Excited state  23: excitation energy (eV) =    7.4987
 Total energy for state 23:                 -3010.24883215 au
    Multiplicity: Singlet
    Trans. Mom.:  0.2289 X  -0.5573 Y  -0.1897 Z
    Strength   :     0.0733091566
    D(   43) --> V(    2) amplitude = -0.3488
    D(   44) --> V(    3) amplitude = -0.3157
    D(   45) --> V(    4) amplitude = -0.2938
    D(   46) --> V(    3) amplitude = -0.3396
    D(   47) --> V(    3) amplitude = -0.2160
    D(   48) --> V(    3) amplitude =  0.2933
    D(   48) --> V(    4) amplitude =  0.4033
    D(   49) --> V(    4) amplitude =  0.2150

 Excited state  24: excitation energy (eV) =    7.6510
 Total energy for state 24:                 -3010.24323447 au
    Multiplicity: Singlet
    Trans. Mom.:  0.3425 X  -0.8953 Y  -0.3971 Z
    Strength   :     0.2017887815
    D(   39) --> V(    1) amplitude =  0.2140
    D(   45) --> V(    4) amplitude =  0.2479
    D(   46) --> V(    4) amplitude = -0.2308
    D(   47) --> V(    4) amplitude =  0.4003
    D(   48) --> V(    4) amplitude = -0.4110
    D(   49) --> V(    4) amplitude =  0.5270

 Excited state  25: excitation energy (eV) =    7.6972
 Total energy for state 25:                 -3010.24153701 au
    Multiplicity: Singlet
    Trans. Mom.: -0.3203 X   0.0932 Y  -0.3403 Z
    Strength   :     0.0428126974
    D(   39) --> V(    1) amplitude =  0.6256
    D(   40) --> V(    1) amplitude = -0.3931
    D(   42) --> V(    2) amplitude = -0.2726
    D(   43) --> V(    2) amplitude =  0.3386
    D(   44) --> V(    4) amplitude =  0.2151

 Excited state  26: excitation energy (eV) =    7.8007
 Total energy for state 26:                 -3010.23773232 au
    Multiplicity: Singlet
    Trans. Mom.: -0.4484 X   0.0836 Y   0.1291 Z
    Strength   :     0.0429496045
    D(   35) --> V(    1) amplitude = -0.2125
    D(   38) --> V(    1) amplitude =  0.4100
    D(   42) --> V(    2) amplitude =  0.3319
    D(   43) --> V(    2) amplitude =  0.3860
    D(   44) --> V(    3) amplitude = -0.2513
    D(   47) --> V(    4) amplitude =  0.4685
    D(   48) --> V(    4) amplitude =  0.2737

 Excited state  27: excitation energy (eV) =    7.8255
 Total energy for state 27:                 -3010.23682176 au
    Multiplicity: Singlet
    Trans. Mom.: -0.1063 X   0.8545 Y   0.2356 Z
    Strength   :     0.1528016291
    D(   38) --> V(    1) amplitude = -0.3258
    D(   44) --> V(    3) amplitude =  0.2653
    D(   45) --> V(    4) amplitude =  0.2346
    D(   47) --> V(    4) amplitude =  0.6093
    D(   48) --> V(    4) amplitude =  0.2465

 Excited state  28: excitation energy (eV) =    7.8839
 Total energy for state 28:                 -3010.23467593 au
    Multiplicity: Singlet
    Trans. Mom.:  0.4423 X  -0.6138 Y  -0.1988 Z
    Strength   :     0.1181950111
    D(   45) --> V(    3) amplitude =  0.3755
    D(   45) --> V(    4) amplitude =  0.6135
    D(   46) --> V(    4) amplitude =  0.2182
    D(   47) --> V(    4) amplitude = -0.3204
    D(   48) --> V(    3) amplitude =  0.2398

 Excited state  29: excitation energy (eV) =    8.0140
 Total energy for state 29:                 -3010.22989722 au
    Multiplicity: Singlet
    Trans. Mom.:  0.3716 X   0.0820 Y  -0.1170 Z
    Strength   :     0.0311185315
    D(   37) --> V(    1) amplitude =  0.5984
    D(   38) --> V(    1) amplitude =  0.5406
    D(   43) --> V(    2) amplitude = -0.2721

 Excited state  30: excitation energy (eV) =    8.1533
 Total energy for state 30:                 -3010.22477674 au
    Multiplicity: Singlet
    Trans. Mom.: -0.5637 X  -0.1185 Y   0.2581 Z
    Strength   :     0.0795695337
    D(   37) --> V(    1) amplitude =  0.4188
    D(   39) --> V(    1) amplitude = -0.3276
    D(   42) --> V(    2) amplitude = -0.3728
    D(   43) --> V(    2) amplitude =  0.4330
    D(   44) --> V(    3) amplitude = -0.3668

 Excited state  31: excitation energy (eV) =    8.2194
 Total energy for state 31:                 -3010.22234849 au
    Multiplicity: Singlet
    Trans. Mom.: -0.2727 X  -0.7259 Y   0.0879 Z
    Strength   :     0.1226545224
    D(   45) --> V(    4) amplitude = -0.2529
    D(   46) --> V(    4) amplitude =  0.8242

 Excited state  32: excitation energy (eV) =    8.3483
 Total energy for state 32:                 -3010.21761165 au
    Multiplicity: Singlet
    Trans. Mom.:  0.0169 X  -0.0031 Y   0.0607 Z
    Strength   :     0.0008147505
    D(   36) --> V(    1) amplitude = -0.2228
    D(   37) --> V(    1) amplitude =  0.3560
    D(   39) --> V(    1) amplitude =  0.2238
    D(   41) --> V(    2) amplitude =  0.5642
    D(   42) --> V(    2) amplitude =  0.5174

 Excited state  33: excitation energy (eV) =    8.5601
 Total energy for state 33:                 -3010.20982752 au
    Multiplicity: Singlet
    Trans. Mom.: -0.2272 X   0.3148 Y   0.0718 Z
    Strength   :     0.0326889225
    D(   35) --> V(    1) amplitude = -0.2198
    D(   37) --> V(    1) amplitude = -0.4262
    D(   38) --> V(    1) amplitude =  0.2540
    D(   41) --> V(    2) amplitude =  0.5722
    D(   42) --> V(    2) amplitude = -0.3680
    D(   43) --> V(    3) amplitude =  0.2254
    D(   44) --> V(    4) amplitude = -0.2683

 Excited state  34: excitation energy (eV) =    8.6025
 Total energy for state 34:                 -3010.20826692 au
    Multiplicity: Singlet
    Trans. Mom.:  0.4356 X  -0.7282 Y  -0.2956 Z
    Strength   :     0.1701540571
    D(   41) --> V(    2) amplitude =  0.2691
    D(   43) --> V(    3) amplitude = -0.4411
    D(   44) --> V(    4) amplitude =  0.6935

 Excited state  35: excitation energy (eV) =    8.7803
 Total energy for state 35:                 -3010.20173363 au
    Multiplicity: Singlet
    Trans. Mom.: -0.6533 X  -0.3935 Y   0.0680 Z
    Strength   :     0.1261067922
    D(   49) --> V(    5) amplitude =  0.8431
    D(   49) --> V(    6) amplitude = -0.2171

 Excited state  36: excitation energy (eV) =    8.9006
 Total energy for state 36:                 -3010.19731430 au
    Multiplicity: Singlet
    Trans. Mom.: -0.1097 X  -0.0461 Y   0.0473 Z
    Strength   :     0.0035750594
    D(   34) --> V(    1) amplitude = -0.2298
    D(   35) --> V(    1) amplitude =  0.6704
    D(   36) --> V(    1) amplitude = -0.2601
    D(   38) --> V(    1) amplitude =  0.4182
    D(   38) --> V(    2) amplitude = -0.3598

 Excited state  37: excitation energy (eV) =    9.0992
 Total energy for state 37:                 -3010.19001477 au
    Multiplicity: Singlet
    Trans. Mom.: -0.0906 X   0.5112 Y  -0.0831 Z
    Strength   :     0.0616322330
    D(   47) --> V(    5) amplitude =  0.7562
    D(   47) --> V(    6) amplitude = -0.3514
    D(   47) --> V(    9) amplitude = -0.2555
    D(   48) --> V(    5) amplitude =  0.2644

 Excited state  38: excitation energy (eV) =    9.1552
 Total energy for state 38:                 -3010.18795600 au
    Multiplicity: Singlet
    Trans. Mom.:  0.4231 X  -0.0843 Y   0.3806 Z
    Strength   :     0.0742346054
    D(   35) --> V(    1) amplitude =  0.3013
    D(   36) --> V(    1) amplitude =  0.4778
    D(   43) --> V(    3) amplitude =  0.5603
    D(   44) --> V(    4) amplitude =  0.3481

 Excited state  39: excitation energy (eV) =    9.2480
 Total energy for state 39:                 -3010.18454796 au
    Multiplicity: Singlet
    Trans. Mom.: -0.1722 X  -0.2898 Y  -0.3507 Z
    Strength   :     0.0536063994
    D(   34) --> V(    1) amplitude =  0.3126
    D(   43) --> V(    3) amplitude = -0.4013
    D(   48) --> V(    5) amplitude =  0.4998
    D(   48) --> V(    7) amplitude = -0.3072
    D(   48) --> V(   12) amplitude =  0.2127

 Excited state  40: excitation energy (eV) =    9.2997
 Total energy for state 40:                 -3010.18264704 au
    Multiplicity: Singlet
    Trans. Mom.:  0.1922 X  -0.1700 Y   0.2395 Z
    Strength   :     0.0280717385
    D(   34) --> V(    1) amplitude = -0.3205
    D(   35) --> V(    1) amplitude = -0.2842
    D(   36) --> V(    1) amplitude = -0.3232
    D(   43) --> V(    3) amplitude =  0.2710
    D(   48) --> V(    5) amplitude =  0.4424
    D(   48) --> V(    7) amplitude = -0.2297
    D(   48) --> V(   12) amplitude =  0.2163

 Excited state  41: excitation energy (eV) =    9.4381
 Total energy for state 41:                 -3010.17756172 au
    Multiplicity: Singlet
    Trans. Mom.:  0.1696 X  -0.1458 Y  -0.0522 Z
    Strength   :     0.0121944908
    D(   46) --> V(    5) amplitude =  0.6683
    D(   46) --> V(    7) amplitude = -0.3243
    D(   46) --> V(   12) amplitude =  0.2708
    D(   49) --> V(    7) amplitude = -0.2316

 Excited state  42: excitation energy (eV) =    9.4998
 Total energy for state 42:                 -3010.17529177 au
    Multiplicity: Singlet
    Trans. Mom.: -0.3378 X  -0.2013 Y  -0.1959 Z
    Strength   :     0.0449198153
    D(   44) --> V(    5) amplitude = -0.3462
    D(   49) --> V(    7) amplitude = -0.3109
    D(   49) --> V(    8) amplitude =  0.6744
    D(   49) --> V(    9) amplitude = -0.2310

 Excited state  43: excitation energy (eV) =    9.5229
 Total energy for state 43:                 -3010.17444596 au
    Multiplicity: Singlet
    Trans. Mom.:  0.2429 X   0.0008 Y   0.0550 Z
    Strength   :     0.0144694923
    D(   34) --> V(    1) amplitude =  0.3834
    D(   36) --> V(    1) amplitude = -0.2374
    D(   45) --> V(    5) amplitude =  0.4329
    D(   49) --> V(    6) amplitude =  0.3250
    D(   49) --> V(    8) amplitude =  0.3737

 Excited state  44: excitation energy (eV) =    9.5544
 Total energy for state 44:                 -3010.17328668 au
    Multiplicity: Singlet
    Trans. Mom.: -0.0252 X   0.3897 Y   0.0592 Z
    Strength   :     0.0365223773
    D(   36) --> V(    1) amplitude =  0.2714
    D(   40) --> V(    2) amplitude =  0.2189
    D(   42) --> V(    3) amplitude =  0.7564
    D(   43) --> V(    4) amplitude = -0.3183

 Excited state  45: excitation energy (eV) =    9.5953
 Total energy for state 45:                 -3010.17178351 au
    Multiplicity: Singlet
    Trans. Mom.: -0.0740 X  -0.0200 Y   0.0065 Z
    Strength   :     0.0013929190
    D(   40) --> V(    2) amplitude = -0.4210
    D(   42) --> V(    3) amplitude =  0.2615
    D(   42) --> V(    4) amplitude =  0.2270
    D(   43) --> V(    4) amplitude =  0.5317
    D(   44) --> V(    5) amplitude =  0.2295
    D(   49) --> V(    6) amplitude =  0.3440
    D(   49) --> V(    8) amplitude =  0.2224

 Excited state  46: excitation energy (eV) =    9.6512
 Total energy for state 46:                 -3010.16972974 au
    Multiplicity: Singlet
    Trans. Mom.: -0.1044 X   0.0998 Y  -0.1270 Z
    Strength   :     0.0087482187
    D(   34) --> V(    1) amplitude = -0.2411
    D(   40) --> V(    2) amplitude =  0.2431
    D(   42) --> V(    3) amplitude = -0.3210
    D(   44) --> V(    5) amplitude =  0.3730
    D(   45) --> V(    5) amplitude = -0.2761
    D(   49) --> V(    6) amplitude =  0.2816
    D(   49) --> V(    7) amplitude = -0.2159
    D(   49) --> V(    9) amplitude =  0.2811

 Excited state  47: excitation energy (eV) =    9.7097
 Total energy for state 47:                 -3010.16758118 au
    Multiplicity: Singlet
    Trans. Mom.: -0.1536 X  -0.4065 Y   0.0657 Z
    Strength   :     0.0459412511
    D(   40) --> V(    2) amplitude =  0.2876
    D(   43) --> V(    4) amplitude =  0.5359
    D(   49) --> V(    6) amplitude = -0.2905
    D(   49) --> V(    7) amplitude = -0.3345
    D(   49) --> V(    9) amplitude =  0.3038

 Excited state  48: excitation energy (eV) =    9.7639
 Total energy for state 48:                 -3010.16558909 au
    Multiplicity: Singlet
    Trans. Mom.: -0.1817 X  -0.0503 Y   0.2110 Z
    Strength   :     0.0191592872
    D(   34) --> V(    1) amplitude =  0.3354
    D(   40) --> V(    2) amplitude =  0.2602
    D(   43) --> V(    4) amplitude =  0.2993
    D(   45) --> V(    5) amplitude = -0.3354
    D(   45) --> V(    7) amplitude =  0.2583
    D(   49) --> V(    7) amplitude =  0.2402

 Excited state  49: excitation energy (eV) =    9.8138
 Total energy for state 49:                 -3010.16375454 au
    Multiplicity: Singlet
    Trans. Mom.:  0.0321 X  -0.0162 Y  -0.0724 Z
    Strength   :     0.0015688313
    D(   34) --> V(    1) amplitude =  0.3550
    D(   36) --> V(    1) amplitude = -0.3537
    D(   40) --> V(    2) amplitude = -0.2639
    D(   43) --> V(    4) amplitude = -0.2300
    D(   45) --> V(    5) amplitude = -0.2242
    D(   49) --> V(    7) amplitude = -0.2643
    D(   49) --> V(    9) amplitude =  0.3078

 Excited state  50: excitation energy (eV) =    9.8827
 Total energy for state 50:                 -3010.16122095 au
    Multiplicity: Singlet
    Trans. Mom.: -0.0171 X  -0.2787 Y  -0.0688 Z
    Strength   :     0.0200268149
    D(   41) --> V(    3) amplitude =  0.4019
    D(   48) --> V(    7) amplitude = -0.2908
    D(   48) --> V(    8) amplitude =  0.5111
    D(   48) --> V(   15) amplitude =  0.3194

 Excited state  51: excitation energy (eV) =    9.9008
 Total energy for state 51:                 -3010.16055730 au
    Multiplicity: Singlet
    Trans. Mom.:  0.1843 X  -0.1340 Y   0.2274 Z
    Strength   :     0.0251363794
    D(   41) --> V(    3) amplitude = -0.2518
    D(   46) --> V(    7) amplitude = -0.2209
    D(   47) --> V(    8) amplitude = -0.3604
    D(   49) --> V(    6) amplitude = -0.2888
    D(   49) --> V(    7) amplitude =  0.3752
    D(   49) --> V(    9) amplitude =  0.3941

 Excited state  52: excitation energy (eV) =    9.9247
 Total energy for state 52:                 -3010.15967980 au
    Multiplicity: Singlet
    Trans. Mom.:  0.0250 X   0.1912 Y  -0.2185 Z
    Strength   :     0.0206460128
    D(   41) --> V(    3) amplitude =  0.5952
    D(   47) --> V(    8) amplitude =  0.2647
    D(   48) --> V(    8) amplitude = -0.3140
    D(   48) --> V(   15) amplitude = -0.2405

 Excited state  53: excitation energy (eV) =    9.9958
 Total energy for state 53:                 -3010.15706558 au
    Multiplicity: Singlet
    Trans. Mom.: -0.0972 X   0.4359 Y   0.0750 Z
    Strength   :     0.0502281401
    D(   40) --> V(    2) amplitude = -0.2546
    D(   41) --> V(    3) amplitude = -0.3351
    D(   42) --> V(    4) amplitude = -0.3006
    D(   47) --> V(    8) amplitude =  0.5171

 Excited state  54: excitation energy (eV) =   10.0077
 Total energy for state 54:                 -3010.15662986 au
    Multiplicity: Singlet
    Trans. Mom.: -0.2782 X   0.1608 Y   0.1794 Z
    Strength   :     0.0332067729
    D(   38) --> V(    2) amplitude =  0.2426
    D(   39) --> V(    2) amplitude = -0.2502
    D(   40) --> V(    2) amplitude =  0.3580
    D(   42) --> V(    4) amplitude =  0.5083
    D(   47) --> V(    8) amplitude =  0.2697

 Excited state  55: excitation energy (eV) =   10.0736
 Total energy for state 55:                 -3010.15420592 au
    Multiplicity: Singlet
    Trans. Mom.:  0.1230 X  -0.2827 Y  -0.0271 Z
    Strength   :     0.0236422141
    D(   46) --> V(    8) amplitude =  0.5841
    D(   46) --> V(   15) amplitude =  0.2922
    D(   47) --> V(    6) amplitude = -0.2402
    D(   47) --> V(    9) amplitude =  0.3009

 Excited state  56: excitation energy (eV) =   10.1562
 Total energy for state 56:                 -3010.15116992 au
    Multiplicity: Singlet
    Trans. Mom.: -0.0107 X  -0.0297 Y  -0.1178 Z
    Strength   :     0.0037032533
    D(   33) --> V(    1) amplitude =  0.5455
    D(   37) --> V(    2) amplitude = -0.2214
    D(   41) --> V(    4) amplitude = -0.4157
    D(   49) --> V(   10) amplitude =  0.3098

 Excited state  57: excitation energy (eV) =   10.2194
 Total energy for state 57:                 -3010.14884873 au
    Multiplicity: Singlet
    Trans. Mom.: -0.0209 X  -0.1763 Y   0.1375 Z
    Strength   :     0.0126291797
    D(   33) --> V(    1) amplitude = -0.3185
    D(   47) --> V(    7) amplitude = -0.2250
    D(   49) --> V(   10) amplitude =  0.5904
    D(   49) --> V(   11) amplitude =  0.2598

 Excited state  58: excitation energy (eV) =   10.2525
 Total energy for state 58:                 -3010.14763305 au
    Multiplicity: Singlet
    Trans. Mom.:  0.0939 X  -0.2805 Y  -0.0631 Z
    Strength   :     0.0229742593
    D(   46) --> V(    7) amplitude = -0.2281
    D(   47) --> V(    7) amplitude =  0.5940
    D(   47) --> V(   10) amplitude = -0.3692

 Excited state  59: excitation energy (eV) =   10.2944
 Total energy for state 59:                 -3010.14609138 au
    Multiplicity: Singlet
    Trans. Mom.: -0.1566 X  -0.2578 Y  -0.0755 Z
    Strength   :     0.0243854570
    D(   38) --> V(    2) amplitude = -0.3995
    D(   39) --> V(    2) amplitude = -0.2356
    D(   41) --> V(    4) amplitude =  0.2747
    D(   44) --> V(    5) amplitude =  0.2372
    D(   48) --> V(    6) amplitude = -0.2163

 Excited state  60: excitation energy (eV) =   10.3635
 Total energy for state 60:                 -3010.14355231 au
    Multiplicity: Singlet
    Trans. Mom.:  0.1123 X   0.0152 Y   0.2302 Z
    Strength   :     0.0167188940
    D(   38) --> V(    2) amplitude = -0.3617
    D(   39) --> V(    2) amplitude = -0.2700
    D(   41) --> V(    4) amplitude =  0.2885
    D(   44) --> V(    5) amplitude = -0.2589
    D(   48) --> V(    6) amplitude =  0.3490
    D(   49) --> V(    9) amplitude =  0.2331

 Excited state  61: excitation energy (eV) =   10.4318
 Total energy for state 61:                 -3010.14104303 au
    Multiplicity: Singlet
    Trans. Mom.: -0.0690 X  -0.3065 Y  -0.1030 Z
    Strength   :     0.0279422703
    D(   44) --> V(    5) amplitude =  0.2627
    D(   46) --> V(    6) amplitude =  0.2343
    D(   48) --> V(    6) amplitude =  0.4427
    D(   48) --> V(    9) amplitude = -0.2193
    D(   48) --> V(   10) amplitude = -0.2880
    D(   49) --> V(    9) amplitude = -0.2159
    D(   49) --> V(   11) amplitude =  0.2972

 Excited state  62: excitation energy (eV) =   10.4511
 Total energy for state 62:                 -3010.14033375 au
    Multiplicity: Singlet
    Trans. Mom.: -0.5015 X  -0.2085 Y   0.1052 Z
    Strength   :     0.0783473811
    D(   44) --> V(    5) amplitude =  0.2310
    D(   45) --> V(    8) amplitude =  0.4565
    D(   45) --> V(   15) amplitude =  0.2555
    D(   47) --> V(    6) amplitude =  0.2748

 Excited state  63: excitation energy (eV) =   10.4695
 Total energy for state 63:                 -3010.13965850 au
    Multiplicity: Singlet
    Trans. Mom.:  0.2002 X  -0.0897 Y   0.2844 Z
    Strength   :     0.0330991562
    D(   45) --> V(    8) amplitude = -0.2942
    D(   47) --> V(    5) amplitude =  0.2309
    D(   47) --> V(    6) amplitude =  0.4871
    D(   47) --> V(   13) amplitude = -0.2415

 Excited state  64: excitation energy (eV) =   10.5363
 Total energy for state 64:                 -3010.13720256 au
    Multiplicity: Singlet
    Trans. Mom.: -0.0234 X  -0.0274 Y  -0.0948 Z
    Strength   :     0.0026551876
    D(   44) --> V(    5) amplitude = -0.2866
    D(   46) --> V(    6) amplitude =  0.4688
    D(   46) --> V(   10) amplitude = -0.2768
    D(   49) --> V(   11) amplitude =  0.3807

 Excited state  65: excitation energy (eV) =   10.5651
 Total energy for state 65:                 -3010.13614322 au
    Multiplicity: Singlet
    Trans. Mom.: -0.0716 X  -0.0437 Y   0.1571 Z
    Strength   :     0.0082086236
    D(   40) --> V(    3) amplitude = -0.2153
    D(   47) --> V(    9) amplitude =  0.2861
    D(   47) --> V(   10) amplitude =  0.2989
    D(   47) --> V(   11) amplitude =  0.2688
    D(   47) --> V(   12) amplitude = -0.2370
    D(   49) --> V(   11) amplitude =  0.2413
    D(   49) --> V(   15) amplitude = -0.2229

 Excited state  66: excitation energy (eV) =   10.5973
 Total energy for state 66:                 -3010.13495977 au
    Multiplicity: Singlet
    Trans. Mom.:  0.1373 X  -0.0053 Y   0.0613 Z
    Strength   :     0.0058748585
    D(   47) --> V(   10) amplitude =  0.2554
    D(   47) --> V(   11) amplitude =  0.3392
    D(   49) --> V(   12) amplitude = -0.2382
    D(   49) --> V(   14) amplitude =  0.2186
    D(   49) --> V(   15) amplitude =  0.2939
    D(   49) --> V(   16) amplitude =  0.2232

 Excited state  67: excitation energy (eV) =   10.6125
 Total energy for state 67:                 -3010.13440406 au
    Multiplicity: Singlet
    Trans. Mom.:  0.2213 X   0.0277 Y  -0.1531 Z
    Strength   :     0.0190279385
    D(   38) --> V(    2) amplitude = -0.3424
    D(   39) --> V(    2) amplitude =  0.3695
    D(   42) --> V(    4) amplitude =  0.4636

 Excited state  68: excitation energy (eV) =   10.6786
 Total energy for state 68:                 -3010.13197498 au
    Multiplicity: Singlet
    Trans. Mom.:  0.0819 X  -0.0118 Y   0.1052 Z
    Strength   :     0.0046865188
    D(   44) --> V(    7) amplitude =  0.2142
    D(   48) --> V(    5) amplitude = -0.2495
    D(   48) --> V(    9) amplitude =  0.4243
    D(   48) --> V(   10) amplitude = -0.2816
    D(   48) --> V(   12) amplitude =  0.2256
    D(   48) --> V(   14) amplitude = -0.2844

 Excited state  69: excitation energy (eV) =   10.6977
 Total energy for state 69:                 -3010.13127008 au
    Multiplicity: Singlet
    Trans. Mom.:  0.0537 X  -0.1001 Y   0.1358 Z
    Strength   :     0.0082178424
    D(   45) --> V(    6) amplitude =  0.3219
    D(   48) --> V(    9) amplitude = -0.3040
    D(   49) --> V(   12) amplitude =  0.3418

 Excited state  70: excitation energy (eV) =   10.7120
 Total energy for state 70:                 -3010.13074427 au
    Multiplicity: Singlet
    Trans. Mom.: -0.1446 X  -0.1370 Y  -0.0854 Z
    Strength   :     0.0123287146
    D(   39) --> V(    2) amplitude = -0.2281
    D(   45) --> V(    6) amplitude =  0.3689
    D(   45) --> V(    9) amplitude = -0.2187
    D(   48) --> V(    9) amplitude =  0.3265
    D(   48) --> V(   10) amplitude = -0.2325

 Excited state  71: excitation energy (eV) =   10.7457
 Total energy for state 71:                 -3010.12950775 au
    Multiplicity: Singlet
    Trans. Mom.: -0.0256 X  -0.2055 Y  -0.1849 Z
    Strength   :     0.0202897731
    D(   33) --> V(    1) amplitude =  0.4313
    D(   39) --> V(    2) amplitude =  0.2975
    D(   41) --> V(    4) amplitude =  0.4631

 Excited state  72: excitation energy (eV) =   10.7530
 Total energy for state 72:                 -3010.12923789 au
    Multiplicity: Singlet
    Trans. Mom.: -0.0370 X   0.2379 Y   0.0798 Z
    Strength   :     0.0169421950
    D(   33) --> V(    1) amplitude =  0.2646
    D(   41) --> V(    4) amplitude =  0.2339
    D(   48) --> V(    5) amplitude =  0.4390
    D(   48) --> V(    7) amplitude =  0.2234
    D(   48) --> V(   11) amplitude = -0.2478
    D(   48) --> V(   12) amplitude = -0.3345

 Excited state  73: excitation energy (eV) =   10.8022
 Total energy for state 73:                 -3010.12743071 au
    Multiplicity: Singlet
    Trans. Mom.: -0.4234 X  -0.0752 Y  -0.1686 Z
    Strength   :     0.0564720118
    D(   44) --> V(    9) amplitude =  0.2134
    D(   49) --> V(   13) amplitude =  0.6809

 Excited state  74: excitation energy (eV) =   10.8201
 Total energy for state 74:                 -3010.12677455 au
    Multiplicity: Singlet
    Trans. Mom.: -0.0500 X   0.0649 Y   0.1939 Z
    Strength   :     0.0117464948
    D(   45) --> V(    6) amplitude = -0.2539
    D(   46) --> V(    5) amplitude =  0.2678
    D(   46) --> V(    6) amplitude =  0.3084
    D(   47) --> V(    8) amplitude =  0.2289
    D(   47) --> V(    9) amplitude =  0.3325
    D(   49) --> V(   11) amplitude = -0.3163

 Excited state  75: excitation energy (eV) =   10.8439
 Total energy for state 75:                 -3010.12589872 au
    Multiplicity: Singlet
    Trans. Mom.:  0.0375 X  -0.0586 Y   0.1716 Z
    Strength   :     0.0091108744
    D(   46) --> V(    8) amplitude = -0.2168
    D(   47) --> V(    6) amplitude = -0.2987
    D(   47) --> V(    8) amplitude =  0.2569
    D(   47) --> V(    9) amplitude =  0.3733
    D(   47) --> V(   11) amplitude = -0.2266
    D(   49) --> V(   11) amplitude =  0.2541
    D(   49) --> V(   15) amplitude =  0.2237

 Excited state  76: excitation energy (eV) =   10.8875
 Total energy for state 76:                 -3010.12429445 au
    Multiplicity: Singlet
    Trans. Mom.:  0.0425 X   0.0697 Y  -0.1010 Z
    Strength   :     0.0044955559
    D(   44) --> V(    7) amplitude = -0.3522
    D(   44) --> V(    8) amplitude =  0.4225
    D(   49) --> V(   14) amplitude = -0.2732

 Excited state  77: excitation energy (eV) =   10.8979
 Total energy for state 77:                 -3010.12391255 au
    Multiplicity: Singlet
    Trans. Mom.: -0.0232 X   0.0101 Y  -0.1147 Z
    Strength   :     0.0036831994
    D(   46) --> V(    9) amplitude =  0.5056
    D(   46) --> V(   10) amplitude = -0.2468
    D(   48) --> V(   11) amplitude =  0.3459
    D(   49) --> V(   14) amplitude = -0.2559

 Excited state  78: excitation energy (eV) =   10.9254
 Total energy for state 78:                 -3010.12290206 au
    Multiplicity: Singlet
    Trans. Mom.:  0.1212 X   0.0933 Y   0.0367 Z
    Strength   :     0.0066258790
    D(   46) --> V(    9) amplitude =  0.3172
    D(   48) --> V(    8) amplitude =  0.2169
    D(   48) --> V(    9) amplitude = -0.2176
    D(   48) --> V(   11) amplitude = -0.2759
    D(   48) --> V(   12) amplitude =  0.2985

 Excited state  79: excitation energy (eV) =   10.9558
 Total energy for state 79:                 -3010.12178531 au
    Multiplicity: Singlet
    Trans. Mom.: -0.0344 X   0.0508 Y  -0.1988 Z
    Strength   :     0.0116180092
    D(   43) --> V(    5) amplitude =  0.3397
    D(   44) --> V(    6) amplitude =  0.2342
    D(   44) --> V(    7) amplitude =  0.2360
    D(   46) --> V(    9) amplitude =  0.2513

 Excited state  80: excitation energy (eV) =   11.0047
 Total energy for state 80:                 -3010.11999064 au
    Multiplicity: Singlet
    Trans. Mom.:  0.0826 X   0.0508 Y   0.1003 Z
    Strength   :     0.0052478509
    D(   45) --> V(    9) amplitude =  0.4269
    D(   45) --> V(   10) amplitude = -0.2939
    D(   45) --> V(   14) amplitude = -0.2651
    D(   48) --> V(   11) amplitude = -0.2182

 Excited state  81: excitation energy (eV) =   11.0209
 Total energy for state 81:                 -3010.11939222 au
    Multiplicity: Singlet
    Trans. Mom.:  0.0675 X   0.0750 Y   0.0589 Z
    Strength   :     0.0036865402
    D(   40) --> V(    3) amplitude =  0.2425
    D(   43) --> V(    5) amplitude =  0.3129
    D(   45) --> V(    9) amplitude =  0.4010
    D(   45) --> V(   10) amplitude = -0.2177
    D(   45) --> V(   14) amplitude = -0.2164

 Excited state  82: excitation energy (eV) =   11.0782
 Total energy for state 82:                 -3010.11728675 au
    Multiplicity: Singlet
    Trans. Mom.:  0.1417 X   0.0285 Y  -0.0515 Z
    Strength   :     0.0063942777
    D(   37) --> V(    2) amplitude = -0.2528
    D(   43) --> V(    5) amplitude =  0.2503
    D(   44) --> V(    8) amplitude = -0.2231
    D(   44) --> V(   10) amplitude = -0.2733
    D(   46) --> V(   11) amplitude =  0.2690
    D(   49) --> V(   14) amplitude = -0.2319

 Excited state  83: excitation energy (eV) =   11.1029
 Total energy for state 83:                 -3010.11638185 au
    Multiplicity: Singlet
    Trans. Mom.:  0.0027 X  -0.0971 Y  -0.2929 Z
    Strength   :     0.0259041580
    D(   43) --> V(    5) amplitude =  0.2168
    D(   46) --> V(   12) amplitude =  0.3371
    D(   47) --> V(   12) amplitude = -0.2292
    D(   47) --> V(   13) amplitude = -0.2698
    D(   47) --> V(   15) amplitude =  0.2463

 Excited state  84: excitation energy (eV) =   11.1089
 Total energy for state 84:                 -3010.11616102 au
    Multiplicity: Singlet
    Trans. Mom.:  0.2914 X   0.0735 Y   0.0205 Z
    Strength   :     0.0246924141
    D(   35) --> V(    2) amplitude = -0.2647
    D(   37) --> V(    2) amplitude =  0.3170
    D(   45) --> V(    5) amplitude = -0.2404
    D(   45) --> V(    9) amplitude = -0.2313
    D(   45) --> V(   12) amplitude =  0.3525
    D(   48) --> V(   11) amplitude =  0.2452

 Excited state  85: excitation energy (eV) =   11.1153
 Total energy for state 85:                 -3010.11592482 au
    Multiplicity: Singlet
    Trans. Mom.: -0.3226 X  -0.2095 Y  -0.2116 Z
    Strength   :     0.0524780728
    D(   43) --> V(    5) amplitude =  0.2192
    D(   44) --> V(    8) amplitude = -0.2805
    D(   45) --> V(    5) amplitude =  0.2200
    D(   47) --> V(   12) amplitude =  0.4132
    D(   47) --> V(   15) amplitude = -0.3446

 Excited state  86: excitation energy (eV) =   11.1628
 Total energy for state 86:                 -3010.11417756 au
    Multiplicity: Singlet
    Trans. Mom.: -0.2054 X   0.1013 Y   0.1721 Z
    Strength   :     0.0224392930
    D(   37) --> V(    2) amplitude =  0.3579
    D(   45) --> V(   11) amplitude = -0.2441
    D(   46) --> V(   11) amplitude =  0.2860

 Excited state  87: excitation energy (eV) =   11.1850
 Total energy for state 87:                 -3010.11336370 au
    Multiplicity: Singlet
    Trans. Mom.: -0.0019 X  -0.1814 Y  -0.1187 Z
    Strength   :     0.0128759254
    D(   37) --> V(    2) amplitude =  0.2835
    D(   40) --> V(    3) amplitude = -0.2614
    D(   46) --> V(   10) amplitude =  0.2247
    D(   47) --> V(   11) amplitude =  0.3765
    D(   47) --> V(   16) amplitude = -0.2495

 Excited state  88: excitation energy (eV) =   11.1978
 Total energy for state 88:                 -3010.11289466 au
    Multiplicity: Singlet
    Trans. Mom.:  0.0944 X  -0.0224 Y  -0.0723 Z
    Strength   :     0.0040199174
    D(   35) --> V(    2) amplitude = -0.3003
    D(   37) --> V(    2) amplitude = -0.4708
    D(   44) --> V(   10) amplitude =  0.2226

 Excited state  89: excitation energy (eV) =   11.2203
 Total energy for state 89:                 -3010.11206465 au
    Multiplicity: Singlet
    Trans. Mom.:  0.3508 X   0.0781 Y  -0.0856 Z
    Strength   :     0.0375207748
    D(   45) --> V(   10) amplitude = -0.2520
    D(   45) --> V(   11) amplitude = -0.2223
    D(   45) --> V(   12) amplitude =  0.2165
    D(   47) --> V(   11) amplitude =  0.2523
    D(   47) --> V(   14) amplitude =  0.2946
    D(   49) --> V(   15) amplitude =  0.2425

 Excited state  90: excitation energy (eV) =   11.2379
 Total energy for state 90:                 -3010.11141805 au
    Multiplicity: Singlet
    Trans. Mom.: -0.0059 X   0.0767 Y   0.1068 Z
    Strength   :     0.0047668956
    D(   35) --> V(    2) amplitude =  0.2585
    D(   44) --> V(    9) amplitude =  0.3376
    D(   49) --> V(   15) amplitude = -0.2567

 Excited state  91: excitation energy (eV) =   11.3181
 Total energy for state 91:                 -3010.10847170 au
    Multiplicity: Singlet
    Trans. Mom.: -0.1990 X  -0.0652 Y   0.1582 Z
    Strength   :     0.0191002033
    D(   45) --> V(    6) amplitude =  0.2733
    D(   45) --> V(   12) amplitude = -0.2172
    D(   48) --> V(    7) amplitude =  0.3195
    D(   48) --> V(   11) amplitude =  0.2316

 Excited state  92: excitation energy (eV) =   11.3440
 Total energy for state 92:                 -3010.10752126 au
    Multiplicity: Singlet
    Trans. Mom.: -0.0205 X   0.2244 Y   0.5406 Z
    Strength   :     0.0953359781
    D(   40) --> V(    3) amplitude =  0.4635
    D(   47) --> V(   13) amplitude =  0.2584
    D(   49) --> V(   14) amplitude =  0.2363

 Excited state  93: excitation energy (eV) =   11.3841
 Total energy for state 93:                 -3010.10604716 au
    Multiplicity: Singlet
    Trans. Mom.: -0.0011 X  -0.0126 Y  -0.0031 Z
    Strength   :     0.0000474336
    D(   44) --> V(    9) amplitude =  0.3034
    D(   45) --> V(   11) amplitude =  0.2365
    D(   47) --> V(   13) amplitude =  0.2199
    D(   48) --> V(    7) amplitude =  0.2684

 Excited state  94: excitation energy (eV) =   11.4106
 Total energy for state 94:                 -3010.10507324 au
    Multiplicity: Singlet
    Trans. Mom.: -0.1361 X  -0.1249 Y  -0.0425 Z
    Strength   :     0.0100518944
    D(   44) --> V(    9) amplitude =  0.2419
    D(   44) --> V(   10) amplitude = -0.3145
    D(   44) --> V(   11) amplitude = -0.2574
    D(   44) --> V(   12) amplitude =  0.2519
    D(   46) --> V(    7) amplitude =  0.3296
    D(   49) --> V(   15) amplitude =  0.2141
    D(   49) --> V(   17) amplitude =  0.2283

 Excited state  95: excitation energy (eV) =   11.4299
 Total energy for state 95:                 -3010.10436263 au
    Multiplicity: Singlet
    Trans. Mom.:  0.2103 X  -0.1590 Y   0.0636 Z
    Strength   :     0.0206046066
    D(   43) --> V(    6) amplitude = -0.2667
    D(   44) --> V(   10) amplitude =  0.2692
    D(   47) --> V(   13) amplitude =  0.3735

 Excited state  96: excitation energy (eV) =   11.4470
 Total energy for state 96:                 -3010.10373405 au
    Multiplicity: Singlet
    Trans. Mom.:  0.0885 X  -0.0547 Y  -0.1447 Z
    Strength   :     0.0089049004
    D(   44) --> V(    6) amplitude = -0.2299
    D(   44) --> V(    7) amplitude =  0.2373
    D(   44) --> V(    9) amplitude = -0.2171
    D(   46) --> V(    7) amplitude =  0.2332
    D(   49) --> V(   17) amplitude = -0.2178

 Excited state  97: excitation energy (eV) =   11.5008
 Total energy for state 97:                 -3010.10175611 au
    Multiplicity: Singlet
    Trans. Mom.: -0.0063 X   0.0331 Y   0.0046 Z
    Strength   :     0.0003255097
    D(   47) --> V(    7) amplitude =  0.2400
    D(   47) --> V(   14) amplitude =  0.2451
    D(   48) --> V(    6) amplitude =  0.2931
    D(   48) --> V(   10) amplitude =  0.3395

 Excited state  98: excitation energy (eV) =   11.5257
 Total energy for state 98:                 -3010.10084237 au
    Multiplicity: Singlet
    Trans. Mom.: -0.0224 X   0.1934 Y   0.1833 Z
    Strength   :     0.0201925134
    D(   45) --> V(   16) amplitude = -0.2248
    D(   46) --> V(    7) amplitude =  0.2236
    D(   47) --> V(   11) amplitude =  0.2414
    D(   47) --> V(   14) amplitude = -0.2217
    D(   49) --> V(   14) amplitude = -0.2268

 Excited state  99: excitation energy (eV) =   11.5369
 Total energy for state 99:                 -3010.10043111 au
    Multiplicity: Singlet
    Trans. Mom.:  0.2445 X   0.1198 Y  -0.0067 Z
    Strength   :     0.0209700853
    D(   44) --> V(   10) amplitude =  0.2407
    D(   44) --> V(   11) amplitude =  0.2311
    D(   45) --> V(    7) amplitude =  0.2438
    D(   47) --> V(   14) amplitude =  0.2741

 Excited state 100: excitation energy (eV) =   11.5776
 Total energy for state100:                 -3010.09893698 au
    Multiplicity: Singlet
    Trans. Mom.:  0.0240 X   0.0354 Y   0.1906 Z
    Strength   :     0.0108255188
    D(   32) --> V(    1) amplitude = -0.2370
    D(   39) --> V(    3) amplitude = -0.5327
    D(   40) --> V(    4) amplitude = -0.2137
    D(   45) --> V(    6) amplitude =  0.2171
 
 ---------------------------------------------------

 Direct TDDFT calculation will be performed
 Exchange:     0.2220 Hartree-Fock + 1.0000 wB97X-D + LR-HF
 Correlation:  1.0000 wB97X-D
 Using SG-2 standard quadrature grid
 Dispersion:   Grimme D
 ---------------------------------------------------
 Iter    Rts Conv    Rts Left    Ttl Dev     Max Dev
 ---------------------------------------------------
   1         0         100      0.027460    0.000745
   2         0         100      0.006977    0.000136
   3         0         100      0.002310    0.000062
   4         0         100      0.001134    0.000052
   5        14          86      0.000561    0.000051
   6        34          66      0.000261    0.000041
   7        70          30      0.000119    0.000022
   8        93           7      0.000068    0.000010
   9        98           2      0.000054    0.000005
  10        99           1      0.000051    0.000002
  11       100           0      0.000049    0.000001    Roots Converged
 ---------------------------------------------------
 
 ---------------------------------------------------
             TDDFT Excitation Energies              
 ---------------------------------------------------

 Excited state   1: excitation energy (eV) =    2.3165
 Total energy for state  1:                 -3010.43927500 au
    Multiplicity: Singlet 
    Trans. Mom.: -0.2322 X  -0.2492 Y  -0.1175 Z
    Strength   :     0.0073679476
    X: D(   49) --> V(    1) amplitude =  0.9537

 Excited state   2: excitation energy (eV) =    2.6590
 Total energy for state  2:                 -3010.42668886 au
    Multiplicity: Singlet 
    Trans. Mom.:  0.1218 X  -0.2207 Y  -0.1482 Z
    Strength   :     0.0055700608
    X: D(   46) --> V(    1) amplitude = -0.2267
    X: D(   47) --> V(    1) amplitude =  0.8615
    X: D(   48) --> V(    1) amplitude =  0.3813

 Excited state   3: excitation energy (eV) =    2.7845
 Total energy for state  3:                 -3010.42207717 au
    Multiplicity: Singlet 
    Trans. Mom.:  0.0318 X   0.1055 Y   0.0671 Z
    Strength   :     0.0011349685
    X: D(   47) --> V(    1) amplitude = -0.3358
    X: D(   48) --> V(    1) amplitude =  0.7930
    X: D(   48) --> V(    2) amplitude = -0.3965

 Excited state   4: excitation energy (eV) =    3.1416
 Total energy for state  4:                 -3010.40895459 au
    Multiplicity: Singlet 
    Trans. Mom.: -0.1326 X  -0.0532 Y  -0.0317 Z
    Strength   :     0.0016492124
    X: D(   45) --> V(    1) amplitude =  0.8884
    X: D(   45) --> V(    2) amplitude = -0.3586

 Excited state   5: excitation energy (eV) =    3.6051
 Total energy for state  5:                 -3010.39191801 au
    Multiplicity: Singlet 
    Trans. Mom.:  0.1651 X  -0.0540 Y   0.0851 Z
    Strength   :     0.0033033810
    X: D(   46) --> V(    1) amplitude =  0.8891
    X: D(   47) --> V(    1) amplitude =  0.2893

 Excited state   6: excitation energy (eV) =    3.9087
 Total energy for state  6:                 -3010.38076288 au
    Multiplicity: Singlet 
    Trans. Mom.: -0.9181 X  -0.3123 Y   0.0906 Z
    Strength   :     0.0908455753
    X: D(   44) --> V(    1) amplitude =  0.9564

 Excited state   7: excitation energy (eV) =    4.4847
 Total energy for state  7:                 -3010.35959333 au
    Multiplicity: Singlet 
    Trans. Mom.:  0.1772 X   0.0442 Y   0.0090 Z
    Strength   :     0.0036753385
    X: D(   48) --> V(    1) amplitude =  0.4299
    X: D(   48) --> V(    2) amplitude =  0.7069
    X: D(   48) --> V(    4) amplitude = -0.3194
    X: D(   49) --> V(    2) amplitude =  0.2699

 Excited state   8: excitation energy (eV) =    4.8403
 Total energy for state  8:                 -3010.34652664 au
    Multiplicity: Singlet 
    Trans. Mom.: -0.0124 X   0.0717 Y   0.0754 Z
    Strength   :     0.0013014300
    X: D(   45) --> V(    1) amplitude =  0.3719
    X: D(   45) --> V(    2) amplitude =  0.7528
    X: D(   45) --> V(    4) amplitude = -0.3267

 Excited state   9: excitation energy (eV) =    5.0637
 Total energy for state  9:                 -3010.33831818 au
    Multiplicity: Singlet 
    Trans. Mom.: -0.1239 X   0.7501 Y   0.4496 Z
    Strength   :     0.0967897367
    X: D(   43) --> V(    1) amplitude =  0.8303
    X: D(   49) --> V(    2) amplitude =  0.4433

 Excited state  10: excitation energy (eV) =    5.2936
 Total energy for state 10:                 -3010.32986807 au
    Multiplicity: Singlet 
    Trans. Mom.: -0.1402 X  -0.0658 Y   0.1537 Z
    Strength   :     0.0061717952
    X: D(   42) --> V(    1) amplitude =  0.9419

 Excited state  11: excitation energy (eV) =    5.5450
 Total energy for state 11:                 -3010.32063005 au
    Multiplicity: Singlet 
    Trans. Mom.:  0.5917 X  -0.4671 Y  -0.2787 Z
    Strength   :     0.0877520863
    X: D(   41) --> V(    1) amplitude =  0.3414
    X: D(   43) --> V(    1) amplitude = -0.3647
    X: D(   49) --> V(    2) amplitude =  0.7027
    X: D(   49) --> V(    3) amplitude =  0.3052

 Excited state  12: excitation energy (eV) =    5.6482
 Total energy for state 12:                 -3010.31683795 au
    Multiplicity: Singlet 
    Trans. Mom.: -0.2983 X   0.1628 Y  -0.0727 Z
    Strength   :     0.0167110502
    X: D(   41) --> V(    1) amplitude =  0.8560
    X: D(   49) --> V(    3) amplitude = -0.3223

 Excited state  13: excitation energy (eV) =    5.7736
 Total energy for state 13:                 -3010.31222821 au
    Multiplicity: Singlet 
    Trans. Mom.: -0.0304 X   0.2439 Y   0.0492 Z
    Strength   :     0.0088874311
    X: D(   46) --> V(    2) amplitude = -0.2203
    X: D(   47) --> V(    2) amplitude =  0.8483
    X: D(   47) --> V(    3) amplitude =  0.2962

 Excited state  14: excitation energy (eV) =    6.0150
 Total energy for state 14:                 -3010.30335824 au
    Multiplicity: Singlet 
    Trans. Mom.: -0.3373 X   0.3007 Y   0.2880 Z
    Strength   :     0.0423067767
    X: D(   43) --> V(    1) amplitude =  0.2151
    X: D(   46) --> V(    2) amplitude = -0.4446
    X: D(   49) --> V(    2) amplitude = -0.3282
    X: D(   49) --> V(    3) amplitude =  0.6754

 Excited state  15: excitation energy (eV) =    6.1560
 Total energy for state 15:                 -3010.29817388 au
    Multiplicity: Singlet 
    Trans. Mom.: -0.0412 X  -0.1422 Y   0.0315 Z
    Strength   :     0.0034559212
    X: D(   46) --> V(    3) amplitude = -0.2439
    X: D(   47) --> V(    2) amplitude = -0.3696
    X: D(   47) --> V(    3) amplitude =  0.8331
    X: D(   48) --> V(    3) amplitude =  0.2256

 Excited state  16: excitation energy (eV) =    6.3480
 Total energy for state 16:                 -3010.29111913 au
    Multiplicity: Singlet 
    Trans. Mom.: -0.5555 X   1.1233 Y   0.1884 Z
    Strength   :     0.2497431952
    X: D(   46) --> V(    2) amplitude =  0.7917
    X: D(   47) --> V(    2) amplitude =  0.2380
    X: D(   49) --> V(    3) amplitude =  0.3350

 Excited state  17: excitation energy (eV) =    6.6367
 Total energy for state 17:                 -3010.28051195 au
    Multiplicity: Singlet 
    Trans. Mom.:  0.5707 X  -0.4262 Y  -0.0072 Z
    Strength   :     0.0824964555
    X: D(   44) --> V(    2) amplitude =  0.9141

 Excited state  18: excitation energy (eV) =    6.9055
 Total energy for state 18:                 -3010.27063231 au
    Multiplicity: Singlet 
    Trans. Mom.:  0.1407 X   0.1392 Y   0.3660 Z
    Strength   :     0.0292884498
    X: D(   39) --> V(    1) amplitude =  0.3974
    X: D(   40) --> V(    1) amplitude =  0.7610
    X: D(   48) --> V(    3) amplitude = -0.3016

 Excited state  19: excitation energy (eV) =    6.9430
 Total energy for state 19:                 -3010.26925411 au
    Multiplicity: Singlet 
    Trans. Mom.: -0.0381 X   0.1147 Y   0.1885 Z
    Strength   :     0.0085286158
    X: D(   40) --> V(    1) amplitude =  0.3250
    X: D(   48) --> V(    2) amplitude = -0.3131
    X: D(   48) --> V(    3) amplitude =  0.7411
    X: D(   48) --> V(    4) amplitude = -0.3044

 Excited state  20: excitation energy (eV) =    7.1883
 Total energy for state 20:                 -3010.26023951 au
    Multiplicity: Singlet 
    Trans. Mom.:  0.1863 X   0.0695 Y   0.0592 Z
    Strength   :     0.0075780547
    X: D(   45) --> V(    2) amplitude = -0.2977
    X: D(   45) --> V(    3) amplitude =  0.8135
    X: D(   45) --> V(    4) amplitude = -0.2693

 Excited state  21: excitation energy (eV) =    7.2686
 Total energy for state 21:                 -3010.25728970 au
    Multiplicity: Singlet 
    Trans. Mom.:  0.0342 X   0.1878 Y  -0.0077 Z
    Strength   :     0.0065003267
    X: D(   43) --> V(    2) amplitude = -0.2500
    X: D(   44) --> V(    3) amplitude = -0.3480
    X: D(   46) --> V(    3) amplitude =  0.6910
    X: D(   47) --> V(    3) amplitude =  0.2636
    X: D(   49) --> V(    4) amplitude = -0.3626

 Excited state  22: excitation energy (eV) =    7.3839
 Total energy for state 22:                 -3010.25305291 au
    Multiplicity: Singlet 
    Trans. Mom.:  0.4120 X  -0.8014 Y  -0.2468 Z
    Strength   :     0.1579123473
    X: D(   43) --> V(    2) amplitude = -0.2479
    X: D(   44) --> V(    2) amplitude =  0.2259
    X: D(   44) --> V(    3) amplitude = -0.2713
    X: D(   48) --> V(    3) amplitude =  0.2268
    X: D(   49) --> V(    4) amplitude =  0.7475

 Excited state  23: excitation energy (eV) =    7.4318
 Total energy for state 23:                 -3010.25129084 au
    Multiplicity: Singlet 
    Trans. Mom.:  0.1320 X   0.2758 Y   0.1106 Z
    Strength   :     0.0192436664
    X: D(   43) --> V(    2) amplitude =  0.3989
    X: D(   44) --> V(    3) amplitude =  0.5395
    X: D(   46) --> V(    3) amplitude =  0.5066
    X: D(   49) --> V(    4) amplitude =  0.2297

 Excited state  24: excitation energy (eV) =    7.5609
 Total energy for state 24:                 -3010.24654801 au
    Multiplicity: Singlet 
    Trans. Mom.:  0.1152 X  -0.5039 Y  -0.0893 Z
    Strength   :     0.0509634862
    X: D(   45) --> V(    4) amplitude =  0.3702
    X: D(   48) --> V(    3) amplitude = -0.2724
    X: D(   48) --> V(    4) amplitude = -0.6758
    X: D(   49) --> V(    4) amplitude =  0.3033

 Excited state  25: excitation energy (eV) =    7.6278
 Total energy for state 25:                 -3010.24408642 au
    Multiplicity: Singlet 
    Trans. Mom.: -0.1267 X  -0.1913 Y  -0.4371 Z
    Strength   :     0.0455463187
    X: D(   39) --> V(    1) amplitude =  0.7062
    X: D(   40) --> V(    1) amplitude = -0.3845
    X: D(   42) --> V(    2) amplitude = -0.3100
    X: D(   43) --> V(    2) amplitude =  0.3031

 Excited state  26: excitation energy (eV) =    7.7366
 Total energy for state 26:                 -3010.24008784 au
    Multiplicity: Singlet 
    Trans. Mom.: -0.4891 X  -0.3691 Y   0.0401 Z
    Strength   :     0.0714686539
    X: D(   38) --> V(    1) amplitude =  0.3864
    X: D(   42) --> V(    2) amplitude =  0.2946
    X: D(   43) --> V(    2) amplitude =  0.5735
    X: D(   44) --> V(    3) amplitude = -0.4640

 Excited state  27: excitation energy (eV) =    7.7661
 Total energy for state 27:                 -3010.23900528 au
    Multiplicity: Singlet 
    Trans. Mom.: -0.2135 X   0.3708 Y   0.1893 Z
    Strength   :     0.0416458460
    X: D(   47) --> V(    4) amplitude =  0.9314

 Excited state  28: excitation energy (eV) =    7.8599
 Total energy for state 28:                 -3010.23555925 au
    Multiplicity: Singlet 
    Trans. Mom.:  0.2452 X  -0.1452 Y  -0.0759 Z
    Strength   :     0.0167479936
    X: D(   45) --> V(    3) amplitude =  0.4461
    X: D(   45) --> V(    4) amplitude =  0.6398
    X: D(   46) --> V(    4) amplitude =  0.2639
    X: D(   48) --> V(    3) amplitude =  0.2505
    X: D(   48) --> V(    4) amplitude =  0.2439

 Excited state  29: excitation energy (eV) =    7.9604
 Total energy for state 29:                 -3010.23186516 au
    Multiplicity: Singlet 
    Trans. Mom.:  0.4249 X   0.0908 Y  -0.1724 Z
    Strength   :     0.0426158359
    X: D(   35) --> V(    1) amplitude = -0.2506
    X: D(   37) --> V(    1) amplitude =  0.3840
    X: D(   38) --> V(    1) amplitude =  0.6684
    X: D(   43) --> V(    2) amplitude = -0.3237
    X: D(   44) --> V(    3) amplitude =  0.2742

 Excited state  30: excitation energy (eV) =    7.9909
 Total energy for state 30:                 -3010.23074355 au
    Multiplicity: Singlet 
    Trans. Mom.: -0.3200 X  -0.3833 Y   0.1483 Z
    Strength   :     0.0531197032
    X: D(   37) --> V(    1) amplitude =  0.2229
    X: D(   45) --> V(    4) amplitude = -0.2178
    X: D(   46) --> V(    4) amplitude =  0.8253

 Excited state  31: excitation energy (eV) =    8.0788
 Total energy for state 31:                 -3010.22751235 au
    Multiplicity: Singlet 
    Trans. Mom.: -0.1684 X   0.1860 Y   0.1162 Z
    Strength   :     0.0151334780
    X: D(   37) --> V(    1) amplitude =  0.6008
    X: D(   39) --> V(    1) amplitude = -0.3347
    X: D(   42) --> V(    2) amplitude = -0.4273
    X: D(   46) --> V(    4) amplitude = -0.3157

 Excited state  32: excitation energy (eV) =    8.3356
 Total energy for state 32:                 -3010.21807603 au
    Multiplicity: Singlet 
    Trans. Mom.:  0.0120 X   0.0015 Y   0.0597 Z
    Strength   :     0.0007575362
    X: D(   36) --> V(    1) amplitude = -0.2172
    X: D(   37) --> V(    1) amplitude =  0.3438
    X: D(   39) --> V(    1) amplitude =  0.2274
    X: D(   41) --> V(    2) amplitude =  0.5744
    X: D(   42) --> V(    2) amplitude =  0.5105

 Excited state  33: excitation energy (eV) =    8.4723
 Total energy for state 33:                 -3010.21305473 au
    Multiplicity: Singlet 
    Trans. Mom.:  0.2818 X  -0.3923 Y  -0.1258 Z
    Strength   :     0.0517070330
    X: D(   37) --> V(    1) amplitude =  0.2375
    X: D(   43) --> V(    3) amplitude = -0.4196
    X: D(   44) --> V(    4) amplitude =  0.7651

 Excited state  34: excitation energy (eV) =    8.5570
 Total energy for state 34:                 -3010.20994169 au
    Multiplicity: Singlet 
    Trans. Mom.:  0.0747 X  -0.1646 Y  -0.1307 Z
    Strength   :     0.0104301221
    X: D(   35) --> V(    1) amplitude = -0.2280
    X: D(   37) --> V(    1) amplitude = -0.3665
    X: D(   38) --> V(    1) amplitude =  0.2358
    X: D(   41) --> V(    2) amplitude =  0.6041
    X: D(   42) --> V(    2) amplitude = -0.3681
    X: D(   44) --> V(    4) amplitude =  0.2842

 Excited state  35: excitation energy (eV) =    8.7519
 Total energy for state 35:                 -3010.20277672 au
    Multiplicity: Singlet 
    Trans. Mom.: -0.5748 X  -0.3275 Y   0.0309 Z
    Strength   :     0.0940421562
    X: D(   49) --> V(    5) amplitude =  0.8598
    X: D(   49) --> V(    6) amplitude = -0.2304

 Excited state  36: excitation energy (eV) =    8.8586
 Total energy for state 36:                 -3010.19885593 au
    Multiplicity: Singlet 
    Trans. Mom.: -0.0622 X  -0.0291 Y   0.0267 Z
    Strength   :     0.0011785009
    X: D(   34) --> V(    1) amplitude = -0.2374
    X: D(   35) --> V(    1) amplitude =  0.6646
    X: D(   36) --> V(    1) amplitude = -0.2679
    X: D(   38) --> V(    1) amplitude =  0.4068
    X: D(   38) --> V(    2) amplitude = -0.3807

 Excited state  37: excitation energy (eV) =    9.0432
 Total energy for state 37:                 -3010.19207235 au
    Multiplicity: Singlet 
    Trans. Mom.:  0.2667 X   0.1049 Y   0.5984 Z
    Strength   :     0.0975233807
    X: D(   43) --> V(    3) amplitude =  0.7875
    X: D(   44) --> V(    4) amplitude =  0.4121

 Excited state  38: excitation energy (eV) =    9.0924
 Total energy for state 38:                 -3010.19026518 au
    Multiplicity: Singlet 
    Trans. Mom.: -0.0795 X   0.4624 Y  -0.0861 Z
    Strength   :     0.0506948880
    X: D(   47) --> V(    5) amplitude =  0.7586
    X: D(   47) --> V(    6) amplitude = -0.3523
    X: D(   47) --> V(    9) amplitude = -0.2581
    X: D(   48) --> V(    5) amplitude =  0.2549

 Excited state  39: excitation energy (eV) =    9.2000
 Total energy for state 39:                 -3010.18631078 au
    Multiplicity: Singlet 
    Trans. Mom.:  0.0176 X  -0.1950 Y  -0.2251 Z
    Strength   :     0.0200654742
    X: D(   34) --> V(    1) amplitude =  0.3567
    X: D(   35) --> V(    1) amplitude =  0.3855
    X: D(   36) --> V(    1) amplitude =  0.4822
    X: D(   48) --> V(    5) amplitude =  0.3464

 Excited state  40: excitation energy (eV) =    9.2726
 Total energy for state 40:                 -3010.18364395 au
    Multiplicity: Singlet 
    Trans. Mom.:  0.0386 X  -0.2038 Y   0.0694 Z
    Strength   :     0.0108704005
    X: D(   36) --> V(    1) amplitude = -0.2988
    X: D(   47) --> V(    5) amplitude = -0.2178
    X: D(   48) --> V(    5) amplitude =  0.5846
    X: D(   48) --> V(    7) amplitude = -0.3296
    X: D(   48) --> V(   12) amplitude =  0.2794

 Excited state  41: excitation energy (eV) =    9.4259
 Total energy for state 41:                 -3010.17800861 au
    Multiplicity: Singlet 
    Trans. Mom.:  0.1227 X  -0.0938 Y  -0.0398 Z
    Strength   :     0.0058776894
    X: D(   34) --> V(    1) amplitude =  0.2255
    X: D(   46) --> V(    5) amplitude =  0.6426
    X: D(   46) --> V(    7) amplitude = -0.3178
    X: D(   46) --> V(   12) amplitude =  0.2656
    X: D(   49) --> V(    7) amplitude = -0.2130

 Excited state  42: excitation energy (eV) =    9.4875
 Total energy for state 42:                 -3010.17574615 au
    Multiplicity: Singlet 
    Trans. Mom.:  0.1847 X   0.0841 Y   0.1077 Z
    Strength   :     0.0122735419
    X: D(   34) --> V(    1) amplitude =  0.4282
    X: D(   36) --> V(    1) amplitude = -0.2712
    X: D(   40) --> V(    2) amplitude =  0.3104
    X: D(   42) --> V(    3) amplitude = -0.2506
    X: D(   43) --> V(    4) amplitude = -0.2938
    X: D(   45) --> V(    5) amplitude =  0.3842
    X: D(   49) --> V(    6) amplitude =  0.2319

 Excited state  43: excitation energy (eV) =    9.4927
 Total energy for state 43:                 -3010.17555502 au
    Multiplicity: Singlet 
    Trans. Mom.: -0.2379 X  -0.1431 Y  -0.1514 Z
    Strength   :     0.0232583997
    X: D(   44) --> V(    5) amplitude = -0.2899
    X: D(   49) --> V(    7) amplitude = -0.2961
    X: D(   49) --> V(    8) amplitude =  0.7363
    X: D(   49) --> V(    9) amplitude = -0.2294

 Excited state  44: excitation energy (eV) =    9.5141
 Total energy for state 44:                 -3010.17476712 au
    Multiplicity: Singlet 
    Trans. Mom.:  0.1431 X   0.3870 Y   0.0316 Z
    Strength   :     0.0399261543
    X: D(   36) --> V(    1) amplitude =  0.2893
    X: D(   40) --> V(    2) amplitude =  0.2308
    X: D(   42) --> V(    3) amplitude =  0.5501
    X: D(   43) --> V(    4) amplitude = -0.6442

 Excited state  45: excitation energy (eV) =    9.5641
 Total energy for state 45:                 -3010.17293015 au
    Multiplicity: Singlet 
    Trans. Mom.:  0.0480 X   0.0447 Y   0.0577 Z
    Strength   :     0.0017872274
    X: D(   40) --> V(    2) amplitude = -0.2171
    X: D(   42) --> V(    3) amplitude =  0.4587
    X: D(   43) --> V(    4) amplitude =  0.3970
    X: D(   44) --> V(    5) amplitude =  0.2914
    X: D(   45) --> V(    5) amplitude =  0.2634
    X: D(   49) --> V(    6) amplitude =  0.3616
    X: D(   49) --> V(    8) amplitude =  0.2960

 Excited state  46: excitation energy (eV) =    9.6312
 Total energy for state 46:                 -3010.17046560 au
    Multiplicity: Singlet 
    Trans. Mom.:  0.0973 X   0.1387 Y  -0.1605 Z
    Strength   :     0.0128492017
    X: D(   34) --> V(    1) amplitude = -0.3476
    X: D(   42) --> V(    3) amplitude = -0.4311
    X: D(   44) --> V(    5) amplitude =  0.3482
    X: D(   49) --> V(    6) amplitude =  0.4073
    X: D(   49) --> V(    8) amplitude =  0.2341

 Excited state  47: excitation energy (eV) =    9.6590
 Total energy for state 47:                 -3010.16944156 au
    Multiplicity: Singlet 
    Trans. Mom.: -0.2457 X  -0.1401 Y   0.0440 Z
    Strength   :     0.0193923373
    X: D(   39) --> V(    2) amplitude =  0.2359
    X: D(   40) --> V(    2) amplitude =  0.5186
    X: D(   43) --> V(    4) amplitude =  0.3303
    X: D(   49) --> V(    7) amplitude = -0.3359
    X: D(   49) --> V(    9) amplitude =  0.3484

 Excited state  48: excitation energy (eV) =    9.7159
 Total energy for state 48:                 -3010.16735349 au
    Multiplicity: Singlet 
    Trans. Mom.: -0.2742 X   0.0858 Y   0.1412 Z
    Strength   :     0.0243999370
    X: D(   34) --> V(    1) amplitude =  0.3157
    X: D(   45) --> V(    5) amplitude = -0.4516
    X: D(   45) --> V(    7) amplitude =  0.3318
    X: D(   49) --> V(    6) amplitude =  0.2140
    X: D(   49) --> V(    7) amplitude =  0.2712

 Excited state  49: excitation energy (eV) =    9.7795
 Total energy for state 49:                 -3010.16501268 au
    Multiplicity: Singlet 
    Trans. Mom.: -0.0395 X   0.0082 Y  -0.0638 Z
    Strength   :     0.0013648611
    X: D(   34) --> V(    1) amplitude =  0.2869
    X: D(   36) --> V(    1) amplitude = -0.3122
    X: D(   39) --> V(    2) amplitude = -0.2220
    X: D(   40) --> V(    2) amplitude = -0.3331
    X: D(   43) --> V(    4) amplitude = -0.2518
    X: D(   49) --> V(    7) amplitude = -0.3065
    X: D(   49) --> V(    9) amplitude =  0.3420

 Excited state  50: excitation energy (eV) =    9.8661
 Total energy for state 50:                 -3010.16183302 au
    Multiplicity: Singlet 
    Trans. Mom.: -0.0261 X  -0.2052 Y  -0.0961 Z
    Strength   :     0.0125790900
    X: D(   41) --> V(    3) amplitude =  0.3944
    X: D(   48) --> V(    7) amplitude = -0.3055
    X: D(   48) --> V(    8) amplitude =  0.5454
    X: D(   48) --> V(   15) amplitude =  0.3436

 Excited state  51: excitation energy (eV) =    9.8892
 Total energy for state 51:                 -3010.16098315 au
    Multiplicity: Singlet 
    Trans. Mom.:  0.1039 X  -0.1284 Y   0.3035 Z
    Strength   :     0.0289341990
    X: D(   41) --> V(    3) amplitude = -0.4999
    X: D(   47) --> V(    8) amplitude = -0.4081
    X: D(   49) --> V(    6) amplitude = -0.2241
[...]
    e-/hole pair  6:  ampl =  0.1649   ( 2.7 %)
    e-/hole pair  7:  ampl =  0.1552   ( 2.4 %)
  These amplitudes account for 97.8 % of total amplitude

  Excited state 68:  10.6693 eV (singlet)
    e-/hole pair  1:  ampl =  0.6390   (41.0 %)
    e-/hole pair  2:  ampl =  0.4157   (17.3 %)
    e-/hole pair  3:  ampl =  0.3575   (12.8 %)
    e-/hole pair  4:  ampl =  0.3424   (11.8 %)
    e-/hole pair  5:  ampl =  0.2793   ( 7.8 %)
    e-/hole pair  6:  ampl =  0.1834   ( 3.4 %)
    e-/hole pair  7:  ampl =  0.1613   ( 2.6 %)
  These amplitudes account for 96.7 % of total amplitude

  Excited state 69:  10.6912 eV (singlet)
    e-/hole pair  1:  ampl =  0.6642   (44.2 %)
    e-/hole pair  2:  ampl =  0.5082   (25.9 %)
    e-/hole pair  3:  ampl =  0.3776   (14.3 %)
    e-/hole pair  4:  ampl =  0.2715   ( 7.4 %)
    e-/hole pair  5:  ampl =  0.2053   ( 4.2 %)
    e-/hole pair  6:  ampl =  0.1526   ( 2.3 %)
  These amplitudes account for 98.3 % of total amplitude

  Excited state 70:  10.6984 eV (singlet)
    e-/hole pair  1:  ampl =  0.6881   (47.5 %)
    e-/hole pair  2:  ampl =  0.5828   (34.0 %)
    e-/hole pair  3:  ampl =  0.2364   ( 5.6 %)
    e-/hole pair  4:  ampl =  0.1871   ( 3.5 %)
    e-/hole pair  5:  ampl =  0.1746   ( 3.1 %)
    e-/hole pair  6:  ampl =  0.1596   ( 2.6 %)
  These amplitudes account for 96.2 % of total amplitude

  Excited state 71:  10.7305 eV (singlet)
    e-/hole pair  1:  ampl =  0.5783   (33.6 %)
    e-/hole pair  2:  ampl =  0.5169   (26.9 %)
    e-/hole pair  3:  ampl =  0.4090   (16.8 %)
    e-/hole pair  4:  ampl =  0.3026   ( 9.2 %)
    e-/hole pair  5:  ampl =  0.1915   ( 3.7 %)
    e-/hole pair  6:  ampl =  0.1719   ( 3.0 %)
    e-/hole pair  7:  ampl =  0.1675   ( 2.8 %)
  These amplitudes account for 96.0 % of total amplitude

  Excited state 72:  10.7406 eV (singlet)
    e-/hole pair  1:  ampl =  0.8213   (67.7 %)
    e-/hole pair  2:  ampl =  0.2762   ( 7.7 %)
    e-/hole pair  3:  ampl =  0.2368   ( 5.6 %)
    e-/hole pair  4:  ampl =  0.2264   ( 5.1 %)
    e-/hole pair  5:  ampl =  0.2117   ( 4.5 %)
    e-/hole pair  6:  ampl =  0.1900   ( 3.6 %)
    e-/hole pair  7:  ampl =  0.1644   ( 2.7 %)
  These amplitudes account for 97.0 % of total amplitude

  Excited state 73:  10.7890 eV (singlet)
    e-/hole pair  1:  ampl =  0.7821   (61.3 %)
    e-/hole pair  2:  ampl =  0.4305   (18.6 %)
    e-/hole pair  3:  ampl =  0.2602   ( 6.8 %)
    e-/hole pair  4:  ampl =  0.2153   ( 4.6 %)
    e-/hole pair  5:  ampl =  0.1849   ( 3.4 %)
  These amplitudes account for 94.7 % of total amplitude

  Excited state 74:  10.8146 eV (singlet)
    e-/hole pair  1:  ampl =  0.6004   (36.1 %)
    e-/hole pair  2:  ampl =  0.5727   (32.8 %)
    e-/hole pair  3:  ampl =  0.4358   (19.0 %)
    e-/hole pair  4:  ampl =  0.2433   ( 5.9 %)
    e-/hole pair  5:  ampl =  0.1925   ( 3.7 %)
  These amplitudes account for 97.5 % of total amplitude

  Excited state 75:  10.8338 eV (singlet)
    e-/hole pair  1:  ampl =  0.6763   (45.8 %)
    e-/hole pair  2:  ampl =  0.5004   (25.1 %)
    e-/hole pair  3:  ampl =  0.4373   (19.1 %)
    e-/hole pair  4:  ampl =  0.2218   ( 4.9 %)
  These amplitudes account for 94.9 % of total amplitude

  Excited state 76:  10.8728 eV (singlet)
    e-/hole pair  1:  ampl =  0.5707   (32.6 %)
    e-/hole pair  2:  ampl =  0.5360   (28.7 %)
    e-/hole pair  3:  ampl =  0.4958   (24.6 %)
    e-/hole pair  4:  ampl =  0.2429   ( 5.9 %)
    e-/hole pair  5:  ampl =  0.2036   ( 4.1 %)
  These amplitudes account for 96.0 % of total amplitude

  Excited state 77:  10.8855 eV (singlet)
    e-/hole pair  1:  ampl =  0.6997   (49.0 %)
    e-/hole pair  2:  ampl =  0.4244   (18.0 %)
    e-/hole pair  3:  ampl =  0.3134   ( 9.8 %)
    e-/hole pair  4:  ampl =  0.2983   ( 8.9 %)
    e-/hole pair  5:  ampl =  0.2581   ( 6.7 %)
    e-/hole pair  6:  ampl =  0.1985   ( 3.9 %)
  These amplitudes account for 96.4 % of total amplitude

  Excited state 78:  10.9130 eV (singlet)
    e-/hole pair  1:  ampl =  0.7576   (57.5 %)
    e-/hole pair  2:  ampl =  0.3984   (15.9 %)
    e-/hole pair  3:  ampl =  0.3040   ( 9.3 %)
    e-/hole pair  4:  ampl =  0.2602   ( 6.8 %)
    e-/hole pair  5:  ampl =  0.1867   ( 3.5 %)
    e-/hole pair  6:  ampl =  0.1744   ( 3.1 %)
  These amplitudes account for 96.0 % of total amplitude

  Excited state 79:  10.9386 eV (singlet)
    e-/hole pair  1:  ampl =  0.5197   (27.0 %)
    e-/hole pair  2:  ampl =  0.4979   (24.8 %)
    e-/hole pair  3:  ampl =  0.4154   (17.3 %)
    e-/hole pair  4:  ampl =  0.3556   (12.7 %)
    e-/hole pair  5:  ampl =  0.2500   ( 6.3 %)
    e-/hole pair  6:  ampl =  0.2190   ( 4.8 %)
    e-/hole pair  7:  ampl =  0.1860   ( 3.5 %)
  These amplitudes account for 96.3 % of total amplitude

  Excited state 80:  10.9858 eV (singlet)
    e-/hole pair  1:  ampl =  0.5706   (32.7 %)
    e-/hole pair  2:  ampl =  0.3971   (15.9 %)
    e-/hole pair  3:  ampl =  0.3279   (10.8 %)
    e-/hole pair  4:  ampl =  0.3076   ( 9.5 %)
    e-/hole pair  5:  ampl =  0.2869   ( 8.3 %)
    e-/hole pair  6:  ampl =  0.2583   ( 6.7 %)
    e-/hole pair  7:  ampl =  0.2302   ( 5.3 %)
    e-/hole pair  8:  ampl =  0.2189   ( 4.8 %)
    e-/hole pair  9:  ampl =  0.1802   ( 3.3 %)
  These amplitudes account for 97.3 % of total amplitude

  Excited state 81:  11.0083 eV (singlet)
    e-/hole pair  1:  ampl =  0.8378   (70.3 %)
    e-/hole pair  2:  ampl =  0.2479   ( 6.2 %)
    e-/hole pair  3:  ampl =  0.2399   ( 5.8 %)
    e-/hole pair  4:  ampl =  0.2239   ( 5.0 %)
    e-/hole pair  5:  ampl =  0.1935   ( 3.8 %)
    e-/hole pair  6:  ampl =  0.1784   ( 3.2 %)
    e-/hole pair  7:  ampl =  0.1655   ( 2.7 %)
  These amplitudes account for 96.9 % of total amplitude

  Excited state 82:  11.0584 eV (singlet)
    e-/hole pair  1:  ampl =  0.5900   (34.9 %)
    e-/hole pair  2:  ampl =  0.5686   (32.5 %)
    e-/hole pair  3:  ampl =  0.3347   (11.2 %)
    e-/hole pair  4:  ampl =  0.2904   ( 8.5 %)
    e-/hole pair  5:  ampl =  0.2282   ( 5.2 %)
    e-/hole pair  6:  ampl =  0.1619   ( 2.6 %)
  These amplitudes account for 95.0 % of total amplitude

  Excited state 83:  11.0911 eV (singlet)
    e-/hole pair  1:  ampl =  0.5576   (31.3 %)
    e-/hole pair  2:  ampl =  0.4997   (25.1 %)
    e-/hole pair  3:  ampl =  0.3917   (15.4 %)
    e-/hole pair  4:  ampl =  0.2498   ( 6.3 %)
    e-/hole pair  5:  ampl =  0.2257   ( 5.1 %)
    e-/hole pair  6:  ampl =  0.2221   ( 5.0 %)
    e-/hole pair  7:  ampl =  0.1912   ( 3.7 %)
    e-/hole pair  8:  ampl =  0.1523   ( 2.3 %)
  These amplitudes account for 94.3 % of total amplitude

  Excited state 84:  11.0937 eV (singlet)
    e-/hole pair  1:  ampl =  0.6911   (47.9 %)
    e-/hole pair  2:  ampl =  0.4723   (22.4 %)
    e-/hole pair  3:  ampl =  0.3119   ( 9.8 %)
    e-/hole pair  4:  ampl =  0.2456   ( 6.0 %)
    e-/hole pair  5:  ampl =  0.2153   ( 4.6 %)
    e-/hole pair  6:  ampl =  0.1806   ( 3.3 %)
    e-/hole pair  7:  ampl =  0.1551   ( 2.4 %)
  These amplitudes account for 96.4 % of total amplitude

  Excited state 85:  11.1010 eV (singlet)
    e-/hole pair  1:  ampl =  0.7594   (57.9 %)
    e-/hole pair  2:  ampl =  0.4275   (18.3 %)
    e-/hole pair  3:  ampl =  0.2709   ( 7.4 %)
    e-/hole pair  4:  ampl =  0.2232   ( 5.0 %)
    e-/hole pair  5:  ampl =  0.1927   ( 3.7 %)
    e-/hole pair  6:  ampl =  0.1829   ( 3.4 %)
  These amplitudes account for 95.6 % of total amplitude

  Excited state 86:  11.1404 eV (singlet)
    e-/hole pair  1:  ampl =  0.5750   (33.3 %)
    e-/hole pair  2:  ampl =  0.4479   (20.2 %)
    e-/hole pair  3:  ampl =  0.3691   (13.7 %)
    e-/hole pair  4:  ampl =  0.3125   ( 9.8 %)
    e-/hole pair  5:  ampl =  0.2468   ( 6.1 %)
    e-/hole pair  6:  ampl =  0.2448   ( 6.0 %)
    e-/hole pair  7:  ampl =  0.2133   ( 4.6 %)
  These amplitudes account for 93.8 % of total amplitude

  Excited state 87:  11.1674 eV (singlet)
    e-/hole pair  1:  ampl =  0.6886   (47.9 %)
    e-/hole pair  2:  ampl =  0.3834   (14.8 %)
    e-/hole pair  3:  ampl =  0.3296   (11.0 %)
    e-/hole pair  4:  ampl =  0.2813   ( 8.0 %)
    e-/hole pair  5:  ampl =  0.2352   ( 5.6 %)
    e-/hole pair  6:  ampl =  0.2150   ( 4.7 %)
    e-/hole pair  7:  ampl =  0.1815   ( 3.3 %)
    e-/hole pair  8:  ampl =  0.1530   ( 2.4 %)
  These amplitudes account for 97.7 % of total amplitude

  Excited state 88:  11.1762 eV (singlet)
    e-/hole pair  1:  ampl =  0.6860   (47.1 %)
    e-/hole pair  2:  ampl =  0.4139   (17.2 %)
    e-/hole pair  3:  ampl =  0.2736   ( 7.5 %)
    e-/hole pair  4:  ampl =  0.2680   ( 7.2 %)
    e-/hole pair  5:  ampl =  0.2546   ( 6.5 %)
    e-/hole pair  6:  ampl =  0.2259   ( 5.1 %)
    e-/hole pair  7:  ampl =  0.2233   ( 5.0 %)
    e-/hole pair  8:  ampl =  0.1571   ( 2.5 %)
  These amplitudes account for 98.1 % of total amplitude

  Excited state 89:  11.2118 eV (singlet)
    e-/hole pair  1:  ampl =  0.5848   (34.2 %)
    e-/hole pair  2:  ampl =  0.4736   (22.4 %)
    e-/hole pair  3:  ampl =  0.4094   (16.8 %)
    e-/hole pair  4:  ampl =  0.3296   (10.9 %)
    e-/hole pair  5:  ampl =  0.2840   ( 8.1 %)
    e-/hole pair  6:  ampl =  0.1959   ( 3.8 %)
  These amplitudes account for 96.2 % of total amplitude

  Excited state 90:  11.2240 eV (singlet)
    e-/hole pair  1:  ampl =  0.5413   (29.3 %)
    e-/hole pair  2:  ampl =  0.4869   (23.7 %)
    e-/hole pair  3:  ampl =  0.3896   (15.2 %)
    e-/hole pair  4:  ampl =  0.2885   ( 8.3 %)
    e-/hole pair  5:  ampl =  0.2732   ( 7.5 %)
    e-/hole pair  6:  ampl =  0.2314   ( 5.4 %)
    e-/hole pair  7:  ampl =  0.2229   ( 5.0 %)
    e-/hole pair  8:  ampl =  0.1874   ( 3.5 %)
  These amplitudes account for 97.9 % of total amplitude

  Excited state 91:  11.3014 eV (singlet)
    e-/hole pair  1:  ampl =  0.5519   (30.7 %)
    e-/hole pair  2:  ampl =  0.4663   (21.9 %)
    e-/hole pair  3:  ampl =  0.4191   (17.7 %)
    e-/hole pair  4:  ampl =  0.3613   (13.1 %)
    e-/hole pair  5:  ampl =  0.2187   ( 4.8 %)
    e-/hole pair  6:  ampl =  0.2152   ( 4.7 %)
  These amplitudes account for 92.9 % of total amplitude

  Excited state 92:  11.3164 eV (singlet)
    e-/hole pair  1:  ampl =  0.6508   (42.4 %)
    e-/hole pair  2:  ampl =  0.4587   (21.1 %)
    e-/hole pair  3:  ampl =  0.3893   (15.2 %)
    e-/hole pair  4:  ampl =  0.2368   ( 5.6 %)
    e-/hole pair  5:  ampl =  0.2240   ( 5.0 %)
    e-/hole pair  6:  ampl =  0.2104   ( 4.4 %)
    e-/hole pair  7:  ampl =  0.1502   ( 2.3 %)
  These amplitudes account for 96.1 % of total amplitude

  Excited state 93:  11.3759 eV (singlet)
    e-/hole pair  1:  ampl =  0.5827   (34.0 %)
    e-/hole pair  2:  ampl =  0.4577   (21.0 %)
    e-/hole pair  3:  ampl =  0.4383   (19.2 %)
    e-/hole pair  4:  ampl =  0.3100   ( 9.6 %)
    e-/hole pair  5:  ampl =  0.2854   ( 8.2 %)
    e-/hole pair  6:  ampl =  0.1893   ( 3.6 %)
  These amplitudes account for 95.6 % of total amplitude

  Excited state 94:  11.3949 eV (singlet)
    e-/hole pair  1:  ampl =  0.6504   (42.4 %)
    e-/hole pair  2:  ampl =  0.5212   (27.2 %)
    e-/hole pair  3:  ampl =  0.4077   (16.7 %)
    e-/hole pair  4:  ampl =  0.2392   ( 5.7 %)
    e-/hole pair  5:  ampl =  0.1818   ( 3.3 %)
  These amplitudes account for 95.4 % of total amplitude

  Excited state 95:  11.4076 eV (singlet)
    e-/hole pair  1:  ampl =  0.6975   (48.9 %)
    e-/hole pair  2:  ampl =  0.4518   (20.5 %)
    e-/hole pair  3:  ampl =  0.3098   ( 9.6 %)
    e-/hole pair  4:  ampl =  0.2891   ( 8.4 %)
    e-/hole pair  5:  ampl =  0.2109   ( 4.5 %)
    e-/hole pair  6:  ampl =  0.1725   ( 3.0 %)
  These amplitudes account for 94.9 % of total amplitude

  Excited state 96:  11.4417 eV (singlet)
    e-/hole pair  1:  ampl =  0.5815   (33.9 %)
    e-/hole pair  2:  ampl =  0.4886   (23.9 %)
    e-/hole pair  3:  ampl =  0.4282   (18.4 %)
    e-/hole pair  4:  ampl =  0.3099   ( 9.6 %)
    e-/hole pair  5:  ampl =  0.2152   ( 4.6 %)
    e-/hole pair  6:  ampl =  0.1836   ( 3.4 %)
  These amplitudes account for 93.8 % of total amplitude

  Excited state 97:  11.4892 eV (singlet)
    e-/hole pair  1:  ampl =  0.6997   (49.1 %)
    e-/hole pair  2:  ampl =  0.4543   (20.7 %)
    e-/hole pair  3:  ampl =  0.2732   ( 7.5 %)
    e-/hole pair  4:  ampl =  0.2467   ( 6.1 %)
    e-/hole pair  5:  ampl =  0.2114   ( 4.5 %)
    e-/hole pair  6:  ampl =  0.1954   ( 3.8 %)
    e-/hole pair  7:  ampl =  0.1519   ( 2.3 %)
  These amplitudes account for 94.0 % of total amplitude

  Excited state 98:  11.5087 eV (singlet)
    e-/hole pair  1:  ampl =  0.6751   (45.7 %)
    e-/hole pair  2:  ampl =  0.4686   (22.0 %)
    e-/hole pair  3:  ampl =  0.3739   (14.0 %)
    e-/hole pair  4:  ampl =  0.2480   ( 6.2 %)
    e-/hole pair  5:  ampl =  0.2194   ( 4.8 %)
    e-/hole pair  6:  ampl =  0.1674   ( 2.8 %)
  These amplitudes account for 95.6 % of total amplitude

  Excited state 99:  11.5264 eV (singlet)
    e-/hole pair  1:  ampl =  0.6838   (46.8 %)
    e-/hole pair  2:  ampl =  0.4602   (21.2 %)
    e-/hole pair  3:  ampl =  0.3801   (14.5 %)
    e-/hole pair  4:  ampl =  0.2743   ( 7.5 %)
    e-/hole pair  5:  ampl =  0.1848   ( 3.4 %)
    e-/hole pair  6:  ampl =  0.1644   ( 2.7 %)
  These amplitudes account for 96.1 % of total amplitude

  Excited state 100:  11.5423 eV (singlet)
    e-/hole pair  1:  ampl =  0.6614   (44.4 %)
    e-/hole pair  2:  ampl =  0.4213   (18.0 %)
    e-/hole pair  3:  ampl =  0.3153   (10.1 %)
    e-/hole pair  4:  ampl =  0.2756   ( 7.7 %)
    e-/hole pair  5:  ampl =  0.2399   ( 5.8 %)
    e-/hole pair  6:  ampl =  0.2144   ( 4.7 %)
  These amplitudes account for 90.7 % of total amplitude

 =======================================================
 
 --------------------------------------------------------------
 
                    Orbital Energies (a.u.)
 --------------------------------------------------------------
 
 Alpha MOs
 -- Occupied --
******** -62.8604 -56.6575 -56.6518 -56.6517 -19.4609 -19.4608 -14.8555
-10.5909 -10.5788 -10.5717 -10.5683 -10.5325 -10.5262  -9.0176  -6.8445
 -6.8258  -6.8255  -2.9435  -2.9386  -2.9384  -2.9233  -2.9233  -1.4985
 -1.3281  -1.2231  -1.1274  -1.1232  -1.0464  -1.0019  -0.9523  -0.9047
 -0.8486  -0.8082  -0.8005  -0.7998  -0.7781  -0.7612  -0.7548  -0.7186
 -0.6842  -0.6746  -0.6323  -0.5970  -0.5734  -0.5667  -0.5605  -0.5586
 -0.5445
 -- Virtual --
 -0.2996  -0.2030  -0.1551  -0.1296  -0.0843  -0.0600  -0.0542  -0.0437
 -0.0410  -0.0313  -0.0228  -0.0131  -0.0095  -0.0022   0.0076   0.0121
  0.0186   0.0241   0.0296   0.0361   0.0445   0.0555   0.0579   0.0611
  0.0691   0.0761   0.0775   0.0833   0.0932   0.0979   0.1009   0.1080
  0.1168   0.1231   0.1268   0.1300   0.1333   0.1377   0.1495   0.1582
  0.1680   0.1744   0.1759   0.1889   0.1908   0.2022   0.2094   0.2159
  0.2258   0.2416   0.2485   0.2646   0.2818   0.2967   0.3263   0.3319
  0.3350   0.3370   0.3456   0.3684   0.3757   0.3799   0.3952   0.4085
  0.4165   0.4332   0.4404   0.4554   0.4691   0.4705   0.4855   0.4932
  0.4981   0.5194   0.5336   0.5490   0.5618   0.5765   0.5799   0.5962
  0.6079   0.6173   0.6308   0.6711   0.6848   0.7114   0.7159   0.7281
  0.7401   0.7453   0.7483   0.7712   0.7966   0.8201   0.8564   0.8692
  0.8783   0.9145   0.9400   0.9882   1.0052   1.0271   1.0406   1.0588
  1.0703   1.0906   1.1264   1.1334   1.1421   1.1815   1.2096   1.2292
  1.2835   1.3362   1.3647   1.3710   1.3915   1.4314   1.5524   1.5686
  1.5755   1.6009   1.6146   1.6418   1.6610   1.6831   1.7165   1.7412
  1.7552   1.7972   1.8414   1.8562   1.8752   1.9629   1.9696   1.9813
  2.0296   2.0330   2.0751   2.0949   2.1335   2.1495   2.2253   2.2384
  2.2759   2.3382   2.4019   2.4175   2.4466   2.5328   2.5830   2.6336
  2.6626   2.6895   2.7182   2.7383   2.7650   2.7768   2.8078   2.8244
  2.9362   2.9834   3.0170   3.0629   3.0921   3.1509   3.1657   3.1785
  3.2263   3.2668   3.2801   3.3812   3.4680   3.5039   3.5482   3.5781
  3.6902   3.7437   3.8378   3.8750   3.9741   3.9831   4.0717   4.1085
  4.2967   4.4493   4.5459   4.5991   4.9371   4.9639   5.0533   5.0979
  5.6210   6.1521   6.6868   7.5028   7.5226   7.6277  23.2296  23.6168
 23.7229  23.7838  23.9604  24.0248  35.3185  47.9464  49.8583  49.9444
289.8308 289.8506 289.98211020.9587
 --------------------------------------------------------------
 
          Ground-State Mulliken Net Atomic Charges

     Atom                 Charge (a.u.)
  ----------------------------------------
      1 C                    -0.104579
      2 C                     0.200607
      3 C                    -0.075174
      4 C                    -0.373325
      5 H                     0.345489
      6 H                     0.350053
      7 H                     0.330666
      8 N                    -0.236492
      9 O                     0.082539
     10 O                     0.071119
     11 C                    -0.142706
     12 H                     0.353896
     13 C                    -0.348192
     14 H                     0.406109
     15 Br                    0.139990
  ----------------------------------------
  Sum of atomic charges =     1.000000

 -----------------------------------------------------------------
                    Cartesian Multipole Moments
 -----------------------------------------------------------------
    Charge (ESU x 10^10)
                 4.8032
    Dipole Moment (Debye)
         X       2.7869      Y      -0.9120      Z      -0.7593
       Tot       3.0290
    Quadrupole Moments (Debye-Ang)
        XX     -67.8370     XY      -2.9937     YY     -51.1200
        XZ      -2.5953     YZ       2.4921     ZZ     -62.1158
    Octopole Moments (Debye-Ang^2)
       XXX    -513.1397    XXY      24.3038    XYY    -136.4457
       YYY      91.9784    XXZ      25.3208    XYZ       8.0955
       YYZ      25.5354    XZZ    -132.3443    YZZ      16.9667
       ZZZ      82.6989
    Hexadecapole Moments (Debye-Ang^3)
      XXXX   -3449.7117   XXXY     178.9250   XXYY    -623.7241
      XYYY     184.8677   YYYY    -701.6806   XXXZ     183.0490
      XXYZ     -40.7904   XYYZ      49.0381   YYYZ    -171.5731
      XXZZ    -525.6128   XYZZ      28.4447   YYZZ    -170.9492
      XZZZ     166.9060   YZZZ    -143.8296   ZZZZ    -394.4961
 -----------------------------------------------------------------
Grid information in Angstroms:
 x:         75  min =  -4.277701 max =   7.664899
 y:         75  min =  -5.114927 max =   5.208911
 z:         75  min =  -4.906187 max =   3.615139
 Plotting NTOs for the following states:  1 2 3 4 5 6 7 8 9 10 11 12 13 14 15 16 17 18 19 20 21 22 23 24 25 26 27 28 29 30 31 32 33 34 35 36 37 38 39 40 41 42 43 44 45 46 47 48 49 50 51 52 53 54 55 56 57 58 59 60 61 62 63 64 65 66 67 68 69 70 71 72 73 74 75 76 77 78 79 80 81 82 83 84 85 86 87 88 89 90 91 92 93 94 95 96 97 98 99 100
 Created directory /local_scratch/16922331/QCLOCALSCR/save/plots
 Plotting total densities:  0 1 2 3 4 5 6 7 8 9 10 11 12 13 14 15 16 17 18 19 20 21 22 23 24 25 26 27 28 29 30 31 32 33 34 35 36 37 38 39 40 41 42 43 44 45 46 47 48 49 50 51 52 53 54 55 56 57 58 59 60 61 62 63 64 65 66 67 68 69 70 71 72 73 74 75 76 77 78 79 80 81 82 83 84 85 86 87 88 89 90 91 92 93 94 95 96 97 98 99 100
 Plotting transition densities:  1 2 3 4 5 6 7 8 9 10 11 12 13 14 15 16 17 18 19 20 21 22 23 24 25 26 27 28 29 30 31 32 33 34 35 36 37 38 39 40 41 42 43 44 45 46 47 48 49 50 51 52 53 54 55 56 57 58 59 60 61 62 63 64 65 66 67 68 69 70 71 72 73 74 75 76 77 78 79 80 81 82 83 84 85 86 87 88 89 90 91 92 93 94 95 96 97 98 99 100
 Total job time:  1366.63s(wall), 13972.09s(cpu) 
 Sat May 27 18:09:30 2023

        *************************************************************
        *                                                           *
        *  Thank you very much for using Q-Chem.  Have a nice day.  *
        *                                                           *
        *************************************************************


