 Entering Gaussian System, Link 0=g16
 Initial command:
 /software/gaussian/g16-c01/avx2/g16/l1.exe "/local_scratch/16808086/Gau-3652.inp" -scrdir="/local_scratch/16808086/"
 Entering Link 1 = /software/gaussian/g16-c01/avx2/g16/l1.exe PID=      3653.
  
 Copyright (c) 1988-2019, Gaussian, Inc.  All Rights Reserved.
  
 This is part of the Gaussian(R) 16 program.  It is based on
 the Gaussian(R) 09 system (copyright 2009, Gaussian, Inc.),
 the Gaussian(R) 03 system (copyright 2003, Gaussian, Inc.),
 the Gaussian(R) 98 system (copyright 1998, Gaussian, Inc.),
 the Gaussian(R) 94 system (copyright 1995, Gaussian, Inc.),
 the Gaussian 92(TM) system (copyright 1992, Gaussian, Inc.),
 the Gaussian 90(TM) system (copyright 1990, Gaussian, Inc.),
 the Gaussian 88(TM) system (copyright 1988, Gaussian, Inc.),
 the Gaussian 86(TM) system (copyright 1986, Carnegie Mellon
 University), and the Gaussian 82(TM) system (copyright 1983,
 Carnegie Mellon University). Gaussian is a federally registered
 trademark of Gaussian, Inc.
  
 This software contains proprietary and confidential information,
 including trade secrets, belonging to Gaussian, Inc.
  
 This software is provided under written license and may be
 used, copied, transmitted, or stored only in accord with that
 written license.
  
 The following legend is applicable only to US Government
 contracts under FAR:
  
                    RESTRICTED RIGHTS LEGEND
  
 Use, reproduction and disclosure by the US Government is
 subject to restrictions as set forth in subparagraphs (a)
 and (c) of the Commercial Computer Software - Restricted
 Rights clause in FAR 52.227-19.
  
 Gaussian, Inc.
 340 Quinnipiac St., Bldg. 40, Wallingford CT 06492
  
  
 ---------------------------------------------------------------
 Warning -- This program may not be used in any manner that
 competes with the business of Gaussian, Inc. or will provide
 assistance to any competitor of Gaussian, Inc.  The licensee
 of this program is prohibited from giving any competitor of
 Gaussian, Inc. access to this program.  By using this program,
 the user acknowledges that Gaussian, Inc. is engaged in the
 business of creating and licensing software in the field of
 computational chemistry and represents and warrants to the
 licensee that it is not a competitor of Gaussian, Inc. and that
 it will not use this program in any manner prohibited above.
 ---------------------------------------------------------------
  

 Cite this work as:
 Gaussian 16, Revision C.01,
 M. J. Frisch, G. W. Trucks, H. B. Schlegel, G. E. Scuseria, 
 M. A. Robb, J. R. Cheeseman, G. Scalmani, V. Barone, 
 G. A. Petersson, H. Nakatsuji, X. Li, M. Caricato, A. V. Marenich, 
 J. Bloino, B. G. Janesko, R. Gomperts, B. Mennucci, H. P. Hratchian, 
 J. V. Ortiz, A. F. Izmaylov, J. L. Sonnenberg, D. Williams-Young, 
 F. Ding, F. Lipparini, F. Egidi, J. Goings, B. Peng, A. Petrone, 
 T. Henderson, D. Ranasinghe, V. G. Zakrzewski, J. Gao, N. Rega, 
 G. Zheng, W. Liang, M. Hada, M. Ehara, K. Toyota, R. Fukuda, 
 J. Hasegawa, M. Ishida, T. Nakajima, Y. Honda, O. Kitao, H. Nakai, 
 T. Vreven, K. Throssell, J. A. Montgomery, Jr., J. E. Peralta, 
 F. Ogliaro, M. J. Bearpark, J. J. Heyd, E. N. Brothers, K. N. Kudin, 
 V. N. Staroverov, T. A. Keith, R. Kobayashi, J. Normand, 
 K. Raghavachari, A. P. Rendell, J. C. Burant, S. S. Iyengar, 
 J. Tomasi, M. Cossi, J. M. Millam, M. Klene, C. Adamo, R. Cammi, 
 J. W. Ochterski, R. L. Martin, K. Morokuma, O. Farkas, 
 J. B. Foresman, and D. J. Fox, Gaussian, Inc., Wallingford CT, 2019.
 
 ******************************************
 Gaussian 16:  ES64L-G16RevC.01  3-Jul-2019
                22-May-2023 
 ******************************************
 %chk=geometry.chk
 %mem=12GB
 %nprocshared=12
 Will use up to   12 processors via shared memory.
 ----------------------
 #P OPT wB97XD/6-311+G*
 ----------------------
 1/18=20,19=15,26=3,38=1/1,3;
 2/9=110,12=2,17=6,18=5,40=1/2;
 3/5=4,6=6,7=11,11=2,25=1,30=1,71=1,74=-58/1,2,3;
 4//1;
 5/5=2,38=5/2;
 6/7=2,8=2,9=2,10=2,28=1/1;
 7//1,2,3,16;
 1/18=20,19=15,26=3/3(2);
 2/9=110/2;
 99//99;
 2/9=110/2;
 3/5=4,6=6,7=11,11=2,25=1,30=1,71=1,74=-58/1,2,3;
 4/5=5,16=3,69=1/1;
 5/5=2,38=5/2;
 7//1,2,3,16;
 1/18=20,19=15,26=3/3(-5);
 2/9=110/2;
 6/7=2,8=2,9=2,10=2,19=2,28=1/1;
 99/9=1/99;
 Leave Link    1 at Mon May 22 12:32:44 2023, MaxMem=  1610612736 cpu:               1.7 elap:               0.2
 (Enter /software/gaussian/g16-c01/avx2/g16/l101.exe)
 -------
 TitleMe
 -------
 Symbolic Z-matrix:
 Charge =  0 Multiplicity = 1
 C                     0.78809   1.24069   0.02493 
 C                     2.17658   1.20483   0.01962 
 C                     2.84605  -0.01988  -0.00618 
 C                     0.06874   0.04471   0.01966 
 H                     0.27343   2.19328   0.03465 
 H                     2.76335   2.11355   0.03637 
 N                     4.30686   0.04596  -0.03963 
 O                     4.95572  -1.01919  -0.09159 
 O                     4.8287    1.18726  -0.03713 
 C                     0.74008  -1.17504   0.01238 
 H                     0.18852  -2.10639   0.02395 
 C                     2.13307  -1.2196   -0.00495 
 H                     2.57695  -2.19297   0.01576 
 Br                   -1.84107   0.06852   0.03159 
 
 ITRead=  0  0  0  0  0  0  0  0  0  0  0  0  0  0
 MicOpt= -1 -1 -1 -1 -1 -1 -1 -1 -1 -1 -1 -1 -1 -1
 NAtoms=     14 NQM=       14 NQMF=       0 NMMI=      0 NMMIF=      0
                NMic=       0 NMicF=      0.
                    Isotopes and Nuclear Properties:
 (Nuclear quadrupole moments (NQMom) in fm**2, nuclear magnetic moments (NMagM)
  in nuclear magnetons)

  Atom         1           2           3           4           5           6           7           8           9          10
 IAtWgt=          12          12          12          12           1           1          14          16          16          12
 AtmWgt=  12.0000000  12.0000000  12.0000000  12.0000000   1.0078250   1.0078250  14.0030740  15.9949146  15.9949146  12.0000000
 NucSpn=           0           0           0           0           1           1           2           0           0           0
 AtZEff=  -0.0000000  -0.0000000  -0.0000000  -0.0000000  -0.0000000  -0.0000000  -0.0000000  -0.0000000  -0.0000000  -0.0000000
 NQMom=    0.0000000   0.0000000   0.0000000   0.0000000   0.0000000   0.0000000   2.0440000   0.0000000   0.0000000   0.0000000
 NMagM=    0.0000000   0.0000000   0.0000000   0.0000000   2.7928460   2.7928460   0.4037610   0.0000000   0.0000000   0.0000000
 AtZNuc=   6.0000000   6.0000000   6.0000000   6.0000000   1.0000000   1.0000000   7.0000000   8.0000000   8.0000000   6.0000000

  Atom        11          12          13          14
 IAtWgt=           1          12           1          79
 AtmWgt=   1.0078250  12.0000000   1.0078250  78.9183361
 NucSpn=           1           0           1           3
 AtZEff=  -0.0000000  -0.0000000  -0.0000000  -0.0000000
 NQMom=    0.0000000   0.0000000   0.0000000  31.3000000
 NMagM=    2.7928460   0.0000000   2.7928460   2.1063990
 AtZNuc=   1.0000000   6.0000000   1.0000000  35.0000000
 Leave Link  101 at Mon May 22 12:32:45 2023, MaxMem=  1610612736 cpu:               2.4 elap:               0.2
 (Enter /software/gaussian/g16-c01/avx2/g16/l103.exe)

 GradGradGradGradGradGradGradGradGradGradGradGradGradGradGradGradGradGrad
 Berny optimization.
 Initialization pass.
                           ----------------------------
                           !    Initial Parameters    !
                           ! (Angstroms and Degrees)  !
 --------------------------                            --------------------------
 ! Name  Definition              Value          Derivative Info.                !
 --------------------------------------------------------------------------------
 ! R1    R(1,2)                  1.389          estimate D2E/DX2                !
 ! R2    R(1,4)                  1.3957         estimate D2E/DX2                !
 ! R3    R(1,5)                  1.0828         estimate D2E/DX2                !
 ! R4    R(2,3)                  1.396          estimate D2E/DX2                !
 ! R5    R(2,6)                  1.0818         estimate D2E/DX2                !
 ! R6    R(3,7)                  1.4627         estimate D2E/DX2                !
 ! R7    R(3,12)                 1.3956         estimate D2E/DX2                !
 ! R8    R(4,10)                 1.3923         estimate D2E/DX2                !
 ! R9    R(4,14)                 1.91           estimate D2E/DX2                !
 ! R10   R(7,8)                  1.2483         estimate D2E/DX2                !
 ! R11   R(7,9)                  1.2549         estimate D2E/DX2                !
 ! R12   R(10,11)                1.0825         estimate D2E/DX2                !
 ! R13   R(10,12)                1.3938         estimate D2E/DX2                !
 ! R14   R(12,13)                1.07           estimate D2E/DX2                !
 ! A1    A(2,1,4)              119.5446         estimate D2E/DX2                !
 ! A2    A(2,1,5)              119.8614         estimate D2E/DX2                !
 ! A3    A(4,1,5)              120.5939         estimate D2E/DX2                !
 ! A4    A(1,2,3)              120.1408         estimate D2E/DX2                !
 ! A5    A(1,2,6)              121.3628         estimate D2E/DX2                !
 ! A6    A(3,2,6)              118.4964         estimate D2E/DX2                !
 ! A7    A(2,3,7)              116.0969         estimate D2E/DX2                !
 ! A8    A(2,3,12)             120.6081         estimate D2E/DX2                !
 ! A9    A(7,3,12)             123.2944         estimate D2E/DX2                !
 ! A10   A(1,4,10)             120.1472         estimate D2E/DX2                !
 ! A11   A(1,4,14)             120.3086         estimate D2E/DX2                !
 ! A12   A(10,4,14)            119.5434         estimate D2E/DX2                !
 ! A13   A(3,7,8)              118.795          estimate D2E/DX2                !
 ! A14   A(3,7,9)              117.1413         estimate D2E/DX2                !
 ! A15   A(8,7,9)              124.0518         estimate D2E/DX2                !
 ! A16   A(4,10,11)            120.5312         estimate D2E/DX2                !
 ! A17   A(4,10,12)            120.6612         estimate D2E/DX2                !
 ! A18   A(11,10,12)           118.8072         estimate D2E/DX2                !
 ! A19   A(3,12,10)            118.8886         estimate D2E/DX2                !
 ! A20   A(3,12,13)            124.7574         estimate D2E/DX2                !
 ! A21   A(10,12,13)           116.323          estimate D2E/DX2                !
 ! D1    D(4,1,2,3)              0.7243         estimate D2E/DX2                !
 ! D2    D(4,1,2,6)           -179.2            estimate D2E/DX2                !
 ! D3    D(5,1,2,3)           -179.3701         estimate D2E/DX2                !
 ! D4    D(5,1,2,6)              0.7055         estimate D2E/DX2                !
 ! D5    D(2,1,4,10)             0.1542         estimate D2E/DX2                !
 ! D6    D(2,1,4,14)           179.8335         estimate D2E/DX2                !
 ! D7    D(5,1,4,10)          -179.7507         estimate D2E/DX2                !
 ! D8    D(5,1,4,14)            -0.0713         estimate D2E/DX2                !
 ! D9    D(1,2,3,7)            178.6982         estimate D2E/DX2                !
 ! D10   D(1,2,3,12)            -1.047          estimate D2E/DX2                !
 ! D11   D(6,2,3,7)             -1.3753         estimate D2E/DX2                !
 ! D12   D(6,2,3,12)           178.8795         estimate D2E/DX2                !
 ! D13   D(2,3,7,8)           -178.5349         estimate D2E/DX2                !
 ! D14   D(2,3,7,9)              0.2623         estimate D2E/DX2                !
 ! D15   D(12,3,7,8)             1.2028         estimate D2E/DX2                !
 ! D16   D(12,3,7,9)           180.0            estimate D2E/DX2                !
 ! D17   D(2,3,12,10)            0.4747         estimate D2E/DX2                !
 ! D18   D(2,3,12,13)         -177.425          estimate D2E/DX2                !
 ! D19   D(7,3,12,10)         -179.2516         estimate D2E/DX2                !
 ! D20   D(7,3,12,13)            2.8487         estimate D2E/DX2                !
 ! D21   D(1,4,10,11)          179.036          estimate D2E/DX2                !
 ! D22   D(1,4,10,12)           -0.7273         estimate D2E/DX2                !
 ! D23   D(14,4,10,11)          -0.6458         estimate D2E/DX2                !
 ! D24   D(14,4,10,12)         179.5909         estimate D2E/DX2                !
 ! D25   D(4,10,12,3)            0.4097         estimate D2E/DX2                !
 ! D26   D(4,10,12,13)         178.4846         estimate D2E/DX2                !
 ! D27   D(11,10,12,3)        -179.3577         estimate D2E/DX2                !
 ! D28   D(11,10,12,13)         -1.2827         estimate D2E/DX2                !
 --------------------------------------------------------------------------------
 Trust Radius=3.00D-01 FncErr=1.00D-07 GrdErr=1.00D-06 EigMax=2.50D+02 EigMin=1.00D-04
 Number of steps in this run=     73 maximum allowed number of steps=    100.
 GradGradGradGradGradGradGradGradGradGradGradGradGradGradGradGradGradGrad

 Leave Link  103 at Mon May 22 12:32:45 2023, MaxMem=  1610612736 cpu:               0.1 elap:               0.0
 (Enter /software/gaussian/g16-c01/avx2/g16/l202.exe)
                          Input orientation:                          
 ---------------------------------------------------------------------
 Center     Atomic      Atomic             Coordinates (Angstroms)
 Number     Number       Type             X           Y           Z
 ---------------------------------------------------------------------
      1          6           0        0.788088    1.240689    0.024929
      2          6           0        2.176581    1.204828    0.019617
      3          6           0        2.846048   -0.019879   -0.006183
      4          6           0        0.068745    0.044706    0.019657
      5          1           0        0.273427    2.193281    0.034652
      6          1           0        2.763349    2.113549    0.036374
      7          7           0        4.306857    0.045958   -0.039626
      8          8           0        4.955722   -1.019190   -0.091594
      9          8           0        4.828696    1.187256   -0.037129
     10          6           0        0.740082   -1.175044    0.012384
     11          1           0        0.188521   -2.106392    0.023954
     12          6           0        2.133072   -1.219600   -0.004947
     13          1           0        2.576947   -2.192969    0.015759
     14         35           0       -1.841070    0.068522    0.031587
 ---------------------------------------------------------------------
                    Distance matrix (angstroms):
                    1          2          3          4          5
     1  C    0.000000
     2  C    1.388966   0.000000
     3  C    2.413545   1.395980   0.000000
     4  C    1.395657   2.406004   2.778175   0.000000
     5  H    1.082775   2.144588   3.393836   2.158354   0.000000
     6  H    2.159554   1.081828   2.135454   3.397247   2.491200
     7  N    3.716622   2.425812   1.462674   4.238527   4.570019
     8  O    4.742341   3.561215   2.335945   5.002679   5.679771
     9  O    4.041438   2.652781   2.321427   4.895486   4.665589
    10  C    2.416242   2.779814   2.402050   1.392313   3.400570
    11  H    3.400358   3.862199   3.378890   2.154434   4.300524
    12  C    2.804086   2.424943   1.395589   2.420852   3.886850
    13  H    3.871706   3.421305   2.189798   3.361291   4.954366
    14  Br   2.878627   4.175266   4.688104   1.910000   2.997617
                    6          7          8          9         10
     6  H    0.000000
     7  N    2.581302   0.000000
     8  O    3.825824   1.248306   0.000000
     9  O    2.264747   1.254943   2.210771   0.000000
    10  C    3.861221   3.770336   4.219800   4.722253   0.000000
    11  H    4.943460   4.647295   4.890968   5.690613   1.082480
    12  C    3.392468   2.515588   2.831082   3.613915   1.393810
    13  H    4.310599   2.829921   2.654779   4.061907   2.100060
    14  Br   5.038138   6.148380   6.884378   6.763288   2.865165
                   11         12         13         14
    11  H    0.000000
    12  C    2.137409   0.000000
    13  H    2.390009   1.070000   0.000000
    14  Br   2.974818   4.177845   4.963210   0.000000
 Stoichiometry    C6H4BrNO2
 Framework group  C1[X(C6H4BrNO2)]
 Deg. of freedom    36
 Full point group                 C1      NOp   1
 Largest Abelian subgroup         C1      NOp   1
 Largest concise Abelian subgroup C1      NOp   1
                         Standard orientation:                         
 ---------------------------------------------------------------------
 Center     Atomic      Atomic             Coordinates (Angstroms)
 Number     Number       Type             X           Y           Z
 ---------------------------------------------------------------------
      1          6           0        0.259109   -1.193981    0.005989
      2          6           0       -1.129426   -1.161769    0.018501
      3          6           0       -1.802267    0.061352    0.014077
      4          6           0        0.975297    0.003905    0.004339
      5          1           0        0.776264   -2.145247   -0.000837
      6          1           0       -1.713633   -2.072178    0.033008
      7          7           0       -3.263209   -0.008024   -0.001707
      8          8           0       -3.915374    1.055880   -0.034243
      9          8           0       -3.782082   -1.150672   -0.004735
     10          6           0        0.300832    1.221869    0.018412
     11          1           0        0.850134    2.154511    0.032908
     12          6           0       -1.092374    1.262890    0.019054
     13          1           0       -1.538418    2.234799    0.055636
     14         35           0        2.885164   -0.014942   -0.007976
 ---------------------------------------------------------------------
 Rotational constants (GHZ):           3.9435436           0.3702553           0.3384964
 Leave Link  202 at Mon May 22 12:32:46 2023, MaxMem=  1610612736 cpu:               0.1 elap:               0.0
 (Enter /software/gaussian/g16-c01/avx2/g16/l301.exe)
 Standard basis: 6-311+G(d) (5D, 7F)
 Ernie: Thresh=  0.10000D-02 Tol=  0.10000D-05 Strict=F.
 There are   270 symmetry adapted cartesian basis functions of A   symmetry.
 There are   258 symmetry adapted basis functions of A   symmetry.
   258 basis functions,   438 primitive gaussians,   270 cartesian basis functions
    49 alpha electrons       49 beta electrons
       nuclear repulsion energy       695.9848753715 Hartrees.
 IExCor= 4639 DFT=T Ex+Corr=wB97XD ExCW=0 ScaHFX=  1.000000
 ScaDFX=  1.000000  1.000000  1.000000  1.000000 ScalE2=  1.000000  1.000000
 IRadAn=      5 IRanWt=     -1 IRanGd=            0 ICorTp=0 IEmpDi=121
 HFx  wShort=  0.000000 wLong=  0.200000 cFull=  0.222036 cShort=  0.000000 cLong=  0.777964
 DFx  wShort=  0.000000 wLong=  0.200000 cFull=  0.000000 cShort=  0.000000 cLong=  1.000000
 NAtoms=   14 NActive=   14 NUniq=   14 SFac= 1.00D+00 NAtFMM=   60 NAOKFM=F Big=F
 Integral buffers will be    131072 words long.
 Raffenetti 2 integral format.
 Two-electron integral symmetry is turned on.
 R6Disp:  Grimme-D2 Dispersion energy=       -0.0064747167 Hartrees.
 Nuclear repulsion after empirical dispersion term =      695.9784006548 Hartrees.
 Leave Link  301 at Mon May 22 12:32:46 2023, MaxMem=  1610612736 cpu:               0.6 elap:               0.1
 (Enter /software/gaussian/g16-c01/avx2/g16/l302.exe)
 NPDir=0 NMtPBC=     1 NCelOv=     1 NCel=       1 NClECP=     1 NCelD=      1
         NCelK=      1 NCelE2=     1 NClLst=     1 CellRange=     0.0.
 One-electron integrals computed using PRISM.
 One-electron integral symmetry used in STVInt
 NBasis=   258 RedAO= T EigKep=  2.39D-06  NBF=   258
 NBsUse=   258 1.00D-06 EigRej= -1.00D+00 NBFU=   258
 Precomputing XC quadrature grid using
 IXCGrd= 4 IRadAn=           5 IRanWt=          -1 IRanGd=           0 AccXCQ= 0.00D+00.
 Generated NRdTot=       0 NPtTot=           0 NUsed=           0 NTot=          32
 NSgBfM=   269   269   269   269   269 MxSgAt=    14 MxSgA2=    14.
 Leave Link  302 at Mon May 22 12:32:47 2023, MaxMem=  1610612736 cpu:               2.2 elap:               0.2
 (Enter /software/gaussian/g16-c01/avx2/g16/l303.exe)
 DipDrv:  MaxL=1.
 Leave Link  303 at Mon May 22 12:32:48 2023, MaxMem=  1610612736 cpu:               0.3 elap:               0.0
 (Enter /software/gaussian/g16-c01/avx2/g16/l401.exe)
 ExpMin= 3.50D-02 ExpMax= 4.40D+05 ExpMxC= 1.51D+04 IAcc=3 IRadAn=         5 AccDes= 0.00D+00
 Harris functional with IExCor= 4639 and IRadAn=       5 diagonalized for initial guess.
 HarFok:  IExCor= 4639 AccDes= 0.00D+00 IRadAn=         5 IDoV= 1 UseB2=F ITyADJ=14
 ICtDFT=  3500011 ScaDFX=  1.000000  1.000000  1.000000  1.000000
 FoFCou: FMM=F IPFlag=           0 FMFlag=      100000 FMFlg1=           0
         NFxFlg=           0 DoJE=T BraDBF=F KetDBF=T FulRan=T
         wScrn=  0.000000 ICntrl=       500 IOpCl=  0 I1Cent=   200000004 NGrid=           0
         NMat0=    1 NMatS0=      1 NMatT0=    0 NMatD0=    1 NMtDS0=    0 NMtDT0=    0
 Petite list used in FoFCou.
 Harris En= -2970.27014552416    
 JPrj=0 DoOrth=F DoCkMO=F.
 Leave Link  401 at Mon May 22 12:32:49 2023, MaxMem=  1610612736 cpu:               7.6 elap:               0.7
 (Enter /software/gaussian/g16-c01/avx2/g16/l502.exe)
 Integral symmetry usage will be decided dynamically.
 Closed shell SCF:
 Using DIIS extrapolation, IDIIS=  1040.
 NGot=  1610612736 LenX=  1610460839 LenY=  1610387498
 Requested convergence on RMS density matrix=1.00D-08 within 128 cycles.
 Requested convergence on MAX density matrix=1.00D-06.
 Requested convergence on             energy=1.00D-06.
 No special actions if energy rises.
 Fock matrices will be formed incrementally for  20 cycles.

 Cycle   1  Pass 1  IDiag  1:
 FoFJK:  IHMeth= 1 ICntrl=       0 DoSepK=T KAlg= 0 I1Cent=           0 FoldK=F
 IRaf=         1 NMat=       1 IRICut=       1 DoRegI=T DoRafI=F ISym2E= 0 IDoP0=0 IntGTp=1.
 FoFCou: FMM=F IPFlag=           0 FMFlag=      100000 FMFlg1=           0
         NFxFlg=           0 DoJE=T BraDBF=F KetDBF=F FulRan=T
         wScrn=  0.000000 ICntrl=       500 IOpCl=  0 I1Cent=           0 NGrid=           0
         NMat0=    1 NMatS0=      1 NMatT0=    0 NMatD0=    1 NMtDS0=    0 NMtDT0=    0
 Symmetry not used in FoFCou.
 E= -3009.51042633144    
 DIIS: error= 4.97D-01 at cycle   1 NSaved=   1.
 NSaved= 1 IEnMin= 1 EnMin= -3009.51042633144     IErMin= 1 ErrMin= 4.97D-01
 ErrMax= 4.97D-01  0.00D+00 EMaxC= 1.00D-01 BMatC= 1.19D+01 BMatP= 1.19D+01
 IDIUse=3 WtCom= 0.00D+00 WtEn= 1.00D+00
 Coeff-Com:  0.100D+01
 Coeff-En:   0.100D+01
 Coeff:      0.100D+01
 Gap=     0.428 Goal=   None    Shift=    0.000
 GapD=    0.428 DampG=2.000 DampE=0.250 DampFc=0.5000 IDamp=-1.
 Damping current iteration by 5.00D-01
 RMSDP=3.64D-02 MaxDP=3.28D+00              OVMax= 2.48D-01

 Cycle   2  Pass 1  IDiag  1:
 RMSU=  8.48D-03    CP:  7.92D-01
 E= -3009.89754194751     Delta-E=       -0.387115616063 Rises=F Damp=T
 DIIS: error= 2.51D-01 at cycle   2 NSaved=   2.
 NSaved= 2 IEnMin= 2 EnMin= -3009.89754194751     IErMin= 2 ErrMin= 2.51D-01
 ErrMax= 2.51D-01  0.00D+00 EMaxC= 1.00D-01 BMatC= 1.75D+00 BMatP= 1.19D+01
 IDIUse=3 WtCom= 0.00D+00 WtEn= 1.00D+00
 Coeff-Com: -0.424D+00 0.142D+01
 Coeff-En:   0.000D+00 0.100D+01
 Coeff:      0.000D+00 0.100D+01
 Gap=     0.347 Goal=   None    Shift=    0.000
 RMSDP=2.12D-02 MaxDP=2.01D+00 DE=-3.87D-01 OVMax= 1.54D-01

 Cycle   3  Pass 1  IDiag  1:
 RMSU=  8.66D-03    CP:  5.52D-01  1.67D+00
 E= -3010.26032998204     Delta-E=       -0.362788034537 Rises=F Damp=F
 DIIS: error= 1.26D-02 at cycle   3 NSaved=   3.
 NSaved= 3 IEnMin= 3 EnMin= -3010.26032998204     IErMin= 3 ErrMin= 1.26D-02
 ErrMax= 1.26D-02  0.00D+00 EMaxC= 1.00D-01 BMatC= 3.65D-02 BMatP= 1.75D+00
 IDIUse=3 WtCom= 8.74D-01 WtEn= 1.26D-01
 Coeff-Com:  0.313D-01 0.168D-02 0.967D+00
 Coeff-En:   0.000D+00 0.000D+00 0.100D+01
 Coeff:      0.273D-01 0.147D-02 0.971D+00
 Gap=     0.295 Goal=   None    Shift=    0.000
 RMSDP=3.58D-03 MaxDP=1.57D-01 DE=-3.63D-01 OVMax= 7.19D-02

 Cycle   4  Pass 1  IDiag  1:
 RMSU=  2.83D-03    CP:  5.78D-01  1.71D+00  1.10D+00
 E= -3010.24730011341     Delta-E=        0.013029868633 Rises=F Damp=F
 DIIS: error= 2.07D-02 at cycle   4 NSaved=   4.
 NSaved= 4 IEnMin= 3 EnMin= -3010.26032998204     IErMin= 3 ErrMin= 1.26D-02
 ErrMax= 2.07D-02  0.00D+00 EMaxC= 1.00D-01 BMatC= 4.24D-02 BMatP= 3.65D-02
 IDIUse=2 WtCom= 0.00D+00 WtEn= 1.00D+00
 Coeff-En:   0.000D+00 0.000D+00 0.642D+00 0.358D+00
 Coeff:      0.000D+00 0.000D+00 0.642D+00 0.358D+00
 Gap=     0.303 Goal=   None    Shift=    0.000
 RMSDP=1.96D-03 MaxDP=1.32D-01 DE= 1.30D-02 OVMax= 4.14D-02

 Cycle   5  Pass 1  IDiag  1:
 RMSU=  1.09D-03    CP:  5.61D-01  1.73D+00  1.20D+00  8.42D-01
 E= -3010.27425569063     Delta-E=       -0.026955577222 Rises=F Damp=F
 DIIS: error= 4.37D-03 at cycle   5 NSaved=   5.
 NSaved= 5 IEnMin= 5 EnMin= -3010.27425569063     IErMin= 5 ErrMin= 4.37D-03
 ErrMax= 4.37D-03  0.00D+00 EMaxC= 1.00D-01 BMatC= 2.55D-03 BMatP= 3.65D-02
 IDIUse=3 WtCom= 9.56D-01 WtEn= 4.37D-02
 Coeff-Com: -0.137D-01 0.324D-01 0.151D+00 0.195D-02 0.828D+00
 Coeff-En:   0.000D+00 0.000D+00 0.000D+00 0.000D+00 0.100D+01
 Coeff:     -0.131D-01 0.310D-01 0.144D+00 0.186D-02 0.836D+00
 Gap=     0.303 Goal=   None    Shift=    0.000
 RMSDP=5.45D-04 MaxDP=3.62D-02 DE=-2.70D-02 OVMax= 3.48D-03

 Cycle   6  Pass 1  IDiag  1:
 RMSU=  2.64D-04    CP:  5.55D-01  1.73D+00  1.20D+00  8.23D-01  1.12D+00
 E= -3010.27484037428     Delta-E=       -0.000584683652 Rises=F Damp=F
 DIIS: error= 4.02D-04 at cycle   6 NSaved=   6.
 NSaved= 6 IEnMin= 6 EnMin= -3010.27484037428     IErMin= 6 ErrMin= 4.02D-04
 ErrMax= 4.02D-04  0.00D+00 EMaxC= 1.00D-01 BMatC= 3.51D-05 BMatP= 2.55D-03
 IDIUse=3 WtCom= 9.96D-01 WtEn= 4.02D-03
 Coeff-Com: -0.877D-02 0.174D-01-0.606D-02-0.489D-01 0.358D+00 0.688D+00
 Coeff-En:   0.000D+00 0.000D+00 0.000D+00 0.000D+00 0.000D+00 0.100D+01
 Coeff:     -0.874D-02 0.173D-01-0.604D-02-0.488D-01 0.356D+00 0.690D+00
 Gap=     0.302 Goal=   None    Shift=    0.000
 RMSDP=2.96D-04 MaxDP=1.52D-02 DE=-5.85D-04 OVMax= 1.95D-03

 Cycle   7  Pass 1  IDiag  1:
 RMSU=  6.24D-05    CP:  5.55D-01  1.74D+00  1.22D+00  8.86D-01  1.30D+00
                    CP:  1.12D+00
 E= -3010.27486691397     Delta-E=       -0.000026539685 Rises=F Damp=F
 DIIS: error= 3.15D-04 at cycle   7 NSaved=   7.
 NSaved= 7 IEnMin= 7 EnMin= -3010.27486691397     IErMin= 7 ErrMin= 3.15D-04
 ErrMax= 3.15D-04  0.00D+00 EMaxC= 1.00D-01 BMatC= 6.69D-06 BMatP= 3.51D-05
 IDIUse=3 WtCom= 9.97D-01 WtEn= 3.15D-03
 Coeff-Com: -0.422D-02 0.791D-02-0.170D-01-0.307D-01 0.149D+00 0.394D+00
 Coeff-Com:  0.501D+00
 Coeff-En:   0.000D+00 0.000D+00 0.000D+00 0.000D+00 0.000D+00 0.000D+00
 Coeff-En:   0.100D+01
 Coeff:     -0.420D-02 0.788D-02-0.169D-01-0.306D-01 0.149D+00 0.393D+00
 Coeff:      0.503D+00
 Gap=     0.303 Goal=   None    Shift=    0.000
 RMSDP=8.71D-05 MaxDP=4.13D-03 DE=-2.65D-05 OVMax= 1.20D-03

 Cycle   8  Pass 1  IDiag  1:
 RMSU=  2.36D-05    CP:  5.56D-01  1.74D+00  1.22D+00  9.03D-01  1.35D+00
                    CP:  1.21D+00  8.38D-01
 E= -3010.27487241088     Delta-E=       -0.000005496910 Rises=F Damp=F
 DIIS: error= 1.21D-04 at cycle   8 NSaved=   8.
 NSaved= 8 IEnMin= 8 EnMin= -3010.27487241088     IErMin= 8 ErrMin= 1.21D-04
 ErrMax= 1.21D-04  0.00D+00 EMaxC= 1.00D-01 BMatC= 1.03D-06 BMatP= 6.69D-06
 IDIUse=3 WtCom= 9.99D-01 WtEn= 1.21D-03
 Coeff-Com:  0.344D-03-0.941D-03-0.752D-02-0.218D-02-0.266D-01-0.172D-01
 Coeff-Com:  0.267D+00 0.788D+00
 Coeff-En:   0.000D+00 0.000D+00 0.000D+00 0.000D+00 0.000D+00 0.000D+00
 Coeff-En:   0.000D+00 0.100D+01
 Coeff:      0.343D-03-0.940D-03-0.751D-02-0.218D-02-0.265D-01-0.172D-01
 Coeff:      0.266D+00 0.788D+00
 Gap=     0.303 Goal=   None    Shift=    0.000
 RMSDP=6.69D-05 MaxDP=3.65D-03 DE=-5.50D-06 OVMax= 7.24D-04

 Cycle   9  Pass 1  IDiag  1:
 RMSU=  1.13D-05    CP:  5.56D-01  1.74D+00  1.22D+00  9.16D-01  1.39D+00
                    CP:  1.26D+00  1.01D+00  9.65D-01
 E= -3010.27487383948     Delta-E=       -0.000001428604 Rises=F Damp=F
 DIIS: error= 2.52D-05 at cycle   9 NSaved=   9.
 NSaved= 9 IEnMin= 9 EnMin= -3010.27487383948     IErMin= 9 ErrMin= 2.52D-05
 ErrMax= 2.52D-05  0.00D+00 EMaxC= 1.00D-01 BMatC= 1.14D-07 BMatP= 1.03D-06
 IDIUse=1 WtCom= 1.00D+00 WtEn= 0.00D+00
 Coeff-Com:  0.873D-03-0.175D-02 0.249D-03 0.453D-02-0.363D-01-0.770D-01
 Coeff-Com:  0.217D-01 0.323D+00 0.765D+00
 Coeff:      0.873D-03-0.175D-02 0.249D-03 0.453D-02-0.363D-01-0.770D-01
 Coeff:      0.217D-01 0.323D+00 0.765D+00
 Gap=     0.303 Goal=   None    Shift=    0.000
 RMSDP=2.45D-05 MaxDP=1.29D-03 DE=-1.43D-06 OVMax= 2.62D-04

 Cycle  10  Pass 1  IDiag  1:
 RMSU=  4.18D-06    CP:  5.56D-01  1.74D+00  1.22D+00  9.21D-01  1.40D+00
                    CP:  1.29D+00  1.08D+00  1.13D+00  1.13D+00
 E= -3010.27487402011     Delta-E=       -0.000000180632 Rises=F Damp=F
 DIIS: error= 8.63D-06 at cycle  10 NSaved=  10.
 NSaved=10 IEnMin=10 EnMin= -3010.27487402011     IErMin=10 ErrMin= 8.63D-06
 ErrMax= 8.63D-06  0.00D+00 EMaxC= 1.00D-01 BMatC= 1.02D-08 BMatP= 1.14D-07
 IDIUse=1 WtCom= 1.00D+00 WtEn= 0.00D+00
 Coeff-Com:  0.211D-03-0.400D-03 0.622D-03 0.131D-02-0.838D-02-0.221D-01
 Coeff-Com: -0.123D-01 0.443D-01 0.248D+00 0.749D+00
 Coeff:      0.211D-03-0.400D-03 0.622D-03 0.131D-02-0.838D-02-0.221D-01
 Coeff:     -0.123D-01 0.443D-01 0.248D+00 0.749D+00
 Gap=     0.303 Goal=   None    Shift=    0.000
 RMSDP=2.29D-06 MaxDP=1.14D-04 DE=-1.81D-07 OVMax= 7.81D-05

 Cycle  11  Pass 1  IDiag  1:
 RMSU=  1.30D-06    CP:  5.56D-01  1.74D+00  1.22D+00  9.21D-01  1.40D+00
                    CP:  1.29D+00  1.08D+00  1.13D+00  1.23D+00  9.75D-01
 E= -3010.27487403619     Delta-E=       -0.000000016073 Rises=F Damp=F
 DIIS: error= 3.93D-06 at cycle  11 NSaved=  11.
 NSaved=11 IEnMin=11 EnMin= -3010.27487403619     IErMin=11 ErrMin= 3.93D-06
 ErrMax= 3.93D-06  0.00D+00 EMaxC= 1.00D-01 BMatC= 2.62D-09 BMatP= 1.02D-08
 IDIUse=1 WtCom= 1.00D+00 WtEn= 0.00D+00
 Coeff-Com: -0.142D-03 0.292D-03 0.129D-03-0.707D-03 0.566D-02 0.927D-02
 Coeff-Com: -0.811D-02-0.546D-01-0.879D-01 0.308D+00 0.828D+00
 Coeff:     -0.142D-03 0.292D-03 0.129D-03-0.707D-03 0.566D-02 0.927D-02
 Coeff:     -0.811D-02-0.546D-01-0.879D-01 0.308D+00 0.828D+00
 Gap=     0.303 Goal=   None    Shift=    0.000
 RMSDP=1.88D-06 MaxDP=7.85D-05 DE=-1.61D-08 OVMax= 3.74D-05

 Cycle  12  Pass 1  IDiag  1:
 RMSU=  5.44D-07    CP:  5.56D-01  1.74D+00  1.22D+00  9.21D-01  1.40D+00
                    CP:  1.29D+00  1.09D+00  1.14D+00  1.27D+00  1.17D+00
                    CP:  8.81D-01
 E= -3010.27487404031     Delta-E=       -0.000000004125 Rises=F Damp=F
 DIIS: error= 9.31D-07 at cycle  12 NSaved=  12.
 NSaved=12 IEnMin=12 EnMin= -3010.27487404031     IErMin=12 ErrMin= 9.31D-07
 ErrMax= 9.31D-07  0.00D+00 EMaxC= 1.00D-01 BMatC= 2.13D-10 BMatP= 2.62D-09
 IDIUse=1 WtCom= 1.00D+00 WtEn= 0.00D+00
 Coeff-Com: -0.561D-04 0.112D-03-0.114D-04-0.299D-03 0.231D-02 0.387D-02
 Coeff-Com: -0.252D-03-0.173D-01-0.589D-01 0.419D-02 0.250D+00 0.816D+00
 Coeff:     -0.561D-04 0.112D-03-0.114D-04-0.299D-03 0.231D-02 0.387D-02
 Coeff:     -0.252D-03-0.173D-01-0.589D-01 0.419D-02 0.250D+00 0.816D+00
 Gap=     0.303 Goal=   None    Shift=    0.000
 RMSDP=8.69D-07 MaxDP=4.01D-05 DE=-4.13D-09 OVMax= 1.44D-05

 Cycle  13  Pass 1  IDiag  1:
 RMSU=  2.39D-07    CP:  5.56D-01  1.74D+00  1.22D+00  9.21D-01  1.40D+00
                    CP:  1.29D+00  1.08D+00  1.14D+00  1.29D+00  1.20D+00
                    CP:  9.79D-01  1.16D+00
 E= -3010.27487404069     Delta-E=       -0.000000000375 Rises=F Damp=F
 DIIS: error= 5.13D-07 at cycle  13 NSaved=  13.
 NSaved=13 IEnMin=13 EnMin= -3010.27487404069     IErMin=13 ErrMin= 5.13D-07
 ErrMax= 5.13D-07  0.00D+00 EMaxC= 1.00D-01 BMatC= 2.67D-11 BMatP= 2.13D-10
 IDIUse=1 WtCom= 1.00D+00 WtEn= 0.00D+00
 Coeff-Com: -0.318D-05 0.576D-05-0.736D-05-0.156D-04 0.191D-03 0.158D-03
 Coeff-Com:  0.701D-03-0.354D-03-0.127D-01-0.236D-01 0.961D-02 0.229D+00
 Coeff-Com:  0.797D+00
 Coeff:     -0.318D-05 0.576D-05-0.736D-05-0.156D-04 0.191D-03 0.158D-03
 Coeff:      0.701D-03-0.354D-03-0.127D-01-0.236D-01 0.961D-02 0.229D+00
 Coeff:      0.797D+00
 Gap=     0.303 Goal=   None    Shift=    0.000
 RMSDP=2.67D-07 MaxDP=2.01D-05 DE=-3.75D-10 OVMax= 3.34D-06

 Cycle  14  Pass 1  IDiag  1:
 RMSU=  7.21D-08    CP:  5.56D-01  1.74D+00  1.22D+00  9.21D-01  1.40D+00
                    CP:  1.29D+00  1.08D+00  1.14D+00  1.29D+00  1.20D+00
                    CP:  1.02D+00  1.24D+00  1.30D+00
 E= -3010.27487404074     Delta-E=       -0.000000000048 Rises=F Damp=F
 DIIS: error= 1.83D-07 at cycle  14 NSaved=  14.
 NSaved=14 IEnMin=14 EnMin= -3010.27487404074     IErMin=14 ErrMin= 1.83D-07
 ErrMax= 1.83D-07  0.00D+00 EMaxC= 1.00D-01 BMatC= 2.75D-12 BMatP= 2.67D-11
 IDIUse=1 WtCom= 1.00D+00 WtEn= 0.00D+00
 Coeff-Com:  0.676D-05-0.137D-04-0.147D-05 0.364D-04-0.270D-03-0.492D-03
 Coeff-Com:  0.178D-03 0.226D-02 0.595D-02-0.210D-02-0.363D-01-0.924D-01
 Coeff-Com:  0.220D+00 0.904D+00
 Coeff:      0.676D-05-0.137D-04-0.147D-05 0.364D-04-0.270D-03-0.492D-03
 Coeff:      0.178D-03 0.226D-02 0.595D-02-0.210D-02-0.363D-01-0.924D-01
 Coeff:      0.220D+00 0.904D+00
 Gap=     0.303 Goal=   None    Shift=    0.000
 RMSDP=1.41D-07 MaxDP=1.03D-05 DE=-4.82D-11 OVMax= 1.91D-06

 Cycle  15  Pass 1  IDiag  1:
 RMSU=  1.90D-08    CP:  5.56D-01  1.74D+00  1.22D+00  9.21D-01  1.40D+00
                    CP:  1.29D+00  1.08D+00  1.13D+00  1.29D+00  1.20D+00
                    CP:  1.03D+00  1.27D+00  1.47D+00  1.47D+00
 E= -3010.27487404072     Delta-E=        0.000000000014 Rises=F Damp=F
 DIIS: error= 6.49D-08 at cycle  15 NSaved=  15.
 NSaved=15 IEnMin=14 EnMin= -3010.27487404074     IErMin=15 ErrMin= 6.49D-08
 ErrMax= 6.49D-08  0.00D+00 EMaxC= 1.00D-01 BMatC= 3.50D-13 BMatP= 2.75D-12
 IDIUse=1 WtCom= 1.00D+00 WtEn= 0.00D+00
 Coeff-Com:  0.366D-06-0.710D-06-0.134D-05 0.122D-05-0.312D-04-0.182D-04
 Coeff-Com: -0.103D-04 0.232D-03 0.187D-02 0.204D-02-0.748D-02-0.268D-01
 Coeff-Com: -0.562D-01 0.150D-01 0.107D+01
 Coeff:      0.366D-06-0.710D-06-0.134D-05 0.122D-05-0.312D-04-0.182D-04
 Coeff:     -0.103D-04 0.232D-03 0.187D-02 0.204D-02-0.748D-02-0.268D-01
 Coeff:     -0.562D-01 0.150D-01 0.107D+01
 Gap=     0.303 Goal=   None    Shift=    0.000
 RMSDP=4.51D-08 MaxDP=3.26D-06 DE= 1.36D-11 OVMax= 7.23D-07

 Cycle  16  Pass 1  IDiag  1:
 RMSU=  9.13D-09    CP:  5.56D-01  1.74D+00  1.22D+00  9.21D-01  1.40D+00
                    CP:  1.29D+00  1.08D+00  1.13D+00  1.29D+00  1.20D+00
                    CP:  1.04D+00  1.28D+00  1.51D+00  1.58D+00  1.23D+00
 E= -3010.27487404074     Delta-E=       -0.000000000015 Rises=F Damp=F
 DIIS: error= 1.89D-08 at cycle  16 NSaved=  16.
 NSaved=16 IEnMin=16 EnMin= -3010.27487404074     IErMin=16 ErrMin= 1.89D-08
 ErrMax= 1.89D-08  0.00D+00 EMaxC= 1.00D-01 BMatC= 1.76D-14 BMatP= 3.50D-13
 IDIUse=1 WtCom= 1.00D+00 WtEn= 0.00D+00
 Coeff-Com: -0.354D-06 0.723D-06 0.329D-06-0.197D-05 0.152D-04 0.221D-04
 Coeff-Com: -0.171D-05-0.128D-03-0.491D-03 0.207D-03 0.258D-02 0.568D-02
 Coeff-Com: -0.120D-01-0.658D-01-0.251D-01 0.109D+01
 Coeff:     -0.354D-06 0.723D-06 0.329D-06-0.197D-05 0.152D-04 0.221D-04
 Coeff:     -0.171D-05-0.128D-03-0.491D-03 0.207D-03 0.258D-02 0.568D-02
 Coeff:     -0.120D-01-0.658D-01-0.251D-01 0.109D+01
 Gap=     0.303 Goal=   None    Shift=    0.000
 RMSDP=1.00D-08 MaxDP=4.56D-07 DE=-1.55D-11 OVMax= 2.26D-07

 Cycle  17  Pass 1  IDiag  1:
 RMSU=  2.28D-09    CP:  5.56D-01  1.74D+00  1.22D+00  9.21D-01  1.40D+00
                    CP:  1.29D+00  1.08D+00  1.13D+00  1.29D+00  1.20D+00
                    CP:  1.04D+00  1.27D+00  1.51D+00  1.60D+00  1.32D+00
                    CP:  1.33D+00
 E= -3010.27487404073     Delta-E=        0.000000000003 Rises=F Damp=F
 DIIS: error= 7.01D-09 at cycle  17 NSaved=  17.
 NSaved=17 IEnMin=16 EnMin= -3010.27487404074     IErMin=17 ErrMin= 7.01D-09
 ErrMax= 7.01D-09  0.00D+00 EMaxC= 1.00D-01 BMatC= 5.81D-15 BMatP= 1.76D-14
 IDIUse=1 WtCom= 1.00D+00 WtEn= 0.00D+00
 Coeff-Com: -0.196D-06 0.397D-06 0.307D-06-0.993D-06 0.999D-05 0.114D-04
 Coeff-Com:  0.149D-06-0.776D-04-0.408D-03-0.779D-04 0.199D-02 0.465D-02
 Coeff-Com:  0.244D-04-0.345D-01-0.120D+00 0.472D+00 0.677D+00
 Coeff:     -0.196D-06 0.397D-06 0.307D-06-0.993D-06 0.999D-05 0.114D-04
 Coeff:      0.149D-06-0.776D-04-0.408D-03-0.779D-04 0.199D-02 0.465D-02
 Coeff:      0.244D-04-0.345D-01-0.120D+00 0.472D+00 0.677D+00
 Gap=     0.303 Goal=   None    Shift=    0.000
 RMSDP=2.45D-09 MaxDP=1.22D-07 DE= 3.18D-12 OVMax= 5.78D-08

 SCF Done:  E(RwB97XD) =  -3010.27487404     A.U. after   17 cycles
            NFock= 17  Conv=0.24D-08     -V/T= 2.0016
 KE= 3.005584822162D+03 PE=-8.562955721081D+03 EE= 1.851117624224D+03
 Leave Link  502 at Mon May 22 12:33:20 2023, MaxMem=  1610612736 cpu:             367.4 elap:              30.7
 (Enter /software/gaussian/g16-c01/avx2/g16/l601.exe)
 Copying SCF densities to generalized density rwf, IOpCl= 0 IROHF=0.

 **********************************************************************

            Population analysis using the SCF Density.

 **********************************************************************

 Orbital symmetries:
       Occupied  (A) (A) (A) (A) (A) (A) (A) (A) (A) (A) (A) (A)
                 (A) (A) (A) (A) (A) (A) (A) (A) (A) (A) (A) (A)
                 (A) (A) (A) (A) (A) (A) (A) (A) (A) (A) (A) (A)
                 (A) (A) (A) (A) (A) (A) (A) (A) (A) (A) (A) (A)
                 (A)
       Virtual   (A) (A) (A) (A) (A) (A) (A) (A) (A) (A) (A) (A)
                 (A) (A) (A) (A) (A) (A) (A) (A) (A) (A) (A) (A)
                 (A) (A) (A) (A) (A) (A) (A) (A) (A) (A) (A) (A)
                 (A) (A) (A) (A) (A) (A) (A) (A) (A) (A) (A) (A)
                 (A) (A) (A) (A) (A) (A) (A) (A) (A) (A) (A) (A)
                 (A) (A) (A) (A) (A) (A) (A) (A) (A) (A) (A) (A)
                 (A) (A) (A) (A) (A) (A) (A) (A) (A) (A) (A) (A)
                 (A) (A) (A) (A) (A) (A) (A) (A) (A) (A) (A) (A)
                 (A) (A) (A) (A) (A) (A) (A) (A) (A) (A) (A) (A)
                 (A) (A) (A) (A) (A) (A) (A) (A) (A) (A) (A) (A)
                 (A) (A) (A) (A) (A) (A) (A) (A) (A) (A) (A) (A)
                 (A) (A) (A) (A) (A) (A) (A) (A) (A) (A) (A) (A)
                 (A) (A) (A) (A) (A) (A) (A) (A) (A) (A) (A) (A)
                 (A) (A) (A) (A) (A) (A) (A) (A) (A) (A) (A) (A)
                 (A) (A) (A) (A) (A) (A) (A) (A) (A) (A) (A) (A)
                 (A) (A) (A) (A) (A) (A) (A) (A) (A) (A) (A) (A)
                 (A) (A) (A) (A) (A) (A) (A) (A) (A) (A) (A) (A)
                 (A) (A) (A) (A) (A)
 The electronic state is 1-A.
 Alpha  occ. eigenvalues -- -483.13085 -62.68185 -56.47759 -56.47361 -56.47346
 Alpha  occ. eigenvalues --  -19.30170 -19.29856 -14.69452 -10.38824 -10.37913
 Alpha  occ. eigenvalues --  -10.34449 -10.33981 -10.33789 -10.33774  -8.84070
 Alpha  occ. eigenvalues --   -6.66428  -6.65070  -6.65033  -2.76431  -2.76044
 Alpha  occ. eigenvalues --   -2.76018  -2.74927  -2.74927  -1.33544  -1.16237
 Alpha  occ. eigenvalues --   -1.02550  -0.95823  -0.90132  -0.89517  -0.80669
 Alpha  occ. eigenvalues --   -0.75593  -0.71426  -0.67354  -0.63727  -0.62644
 Alpha  occ. eigenvalues --   -0.59721  -0.58896  -0.57801  -0.55835  -0.51505
 Alpha  occ. eigenvalues --   -0.48485  -0.48250  -0.43112  -0.41646  -0.40975
 Alpha  occ. eigenvalues --   -0.40119  -0.39471  -0.37859  -0.35648
 Alpha virt. eigenvalues --   -0.05367   0.01295   0.03386   0.03939   0.04609
 Alpha virt. eigenvalues --    0.06617   0.07634   0.08791   0.08817   0.09476
 Alpha virt. eigenvalues --    0.10601   0.12099   0.12441   0.13061   0.13160
 Alpha virt. eigenvalues --    0.14540   0.16314   0.17493   0.17852   0.17973
 Alpha virt. eigenvalues --    0.18100   0.19008   0.19177   0.19909   0.20486
 Alpha virt. eigenvalues --    0.21031   0.22341   0.23457   0.23707   0.24038
 Alpha virt. eigenvalues --    0.24555   0.25046   0.25339   0.26241   0.26449
 Alpha virt. eigenvalues --    0.27489   0.28015   0.29044   0.29580   0.30170
 Alpha virt. eigenvalues --    0.31909   0.32230   0.32894   0.33036   0.34214
 Alpha virt. eigenvalues --    0.34460   0.35625   0.37577   0.38584   0.39495
 Alpha virt. eigenvalues --    0.41829   0.44536   0.45899   0.46471   0.47588
 Alpha virt. eigenvalues --    0.48113   0.50374   0.51736   0.54046   0.55810
 Alpha virt. eigenvalues --    0.57590   0.57699   0.57728   0.59934   0.61272
 Alpha virt. eigenvalues --    0.63233   0.65135   0.65408   0.65704   0.66110
 Alpha virt. eigenvalues --    0.67129   0.69674   0.69967   0.71063   0.73014
 Alpha virt. eigenvalues --    0.74234   0.76863   0.78229   0.79483   0.79983
 Alpha virt. eigenvalues --    0.80910   0.83924   0.88200   0.89011   0.89252
 Alpha virt. eigenvalues --    0.91403   0.92688   0.93185   0.94865   0.96093
 Alpha virt. eigenvalues --    0.96769   1.02087   1.03897   1.04258   1.05572
 Alpha virt. eigenvalues --    1.10022   1.11988   1.13500   1.14799   1.17982
 Alpha virt. eigenvalues --    1.21297   1.23495   1.25217   1.25831   1.27556
 Alpha virt. eigenvalues --    1.27919   1.28916   1.32239   1.32962   1.37653
 Alpha virt. eigenvalues --    1.40223   1.47756   1.56407   1.56701   1.59452
 Alpha virt. eigenvalues --    1.64492   1.74188   1.75071   1.76275   1.77745
 Alpha virt. eigenvalues --    1.82701   1.83820   1.87785   1.88776   1.91735
 Alpha virt. eigenvalues --    1.94978   1.96356   1.97222   2.04345   2.06428
 Alpha virt. eigenvalues --    2.08788   2.09756   2.17454   2.19775   2.22451
 Alpha virt. eigenvalues --    2.23497   2.29125   2.37815   2.38186   2.38526
 Alpha virt. eigenvalues --    2.41180   2.43849   2.48516   2.56432   2.61094
 Alpha virt. eigenvalues --    2.69880   2.70262   2.74384   2.81847   2.82221
 Alpha virt. eigenvalues --    2.86878   2.89258   2.91504   2.94411   2.95018
 Alpha virt. eigenvalues --    2.95083   2.96487   3.11239   3.12407   3.17247
 Alpha virt. eigenvalues --    3.22753   3.30795   3.32886   3.37550   3.38133
 Alpha virt. eigenvalues --    3.39750   3.40641   3.48478   3.53844   3.67456
 Alpha virt. eigenvalues --    3.69401   3.72983   3.75028   3.84134   3.89515
 Alpha virt. eigenvalues --    4.04899   4.07764   4.23003   4.27511   4.30279
 Alpha virt. eigenvalues --    4.46025   4.59089   4.64705   4.76755   4.84742
 Alpha virt. eigenvalues --    5.07856   5.10920   5.19206   5.24102   5.78962
 Alpha virt. eigenvalues --    6.29568   6.81953   7.63686   7.76215   7.81751
 Alpha virt. eigenvalues --   23.40204  23.93002  23.93867  24.10167  24.13826
 Alpha virt. eigenvalues --   24.22505  35.47849  48.08392  50.00770  50.09777
 Alpha virt. eigenvalues --  289.97345 290.09987 290.179941021.08581
          Condensed to atoms (all electrons):
               1          2          3          4          5          6
     1  C   10.275157  -1.248909  -1.028842   0.221767   0.246155   0.033758
     2  C   -1.248909  11.749557  -0.474278  -0.482215   0.030375   0.230151
     3  C   -1.028842  -0.474278  12.167645  -1.414815   0.030878   0.123611
     4  C    0.221767  -0.482215  -1.414815   7.707687   0.023455  -0.013146
     5  H    0.246155   0.030375   0.030878   0.023455   0.393872  -0.003046
     6  H    0.033758   0.230151   0.123611  -0.013146  -0.003046   0.360893
     7  N   -0.040669   0.193009  -0.740509   0.011122  -0.001677  -0.035758
     8  O   -0.006322   0.022444  -0.293924  -0.008593  -0.000026  -0.002104
     9  O    0.276073   0.052941  -0.403073  -0.020883   0.000198   0.018612
    10  C   -0.668529  -1.390104  -0.792361   0.143908  -0.015559   0.003667
    11  H   -0.020899   0.022896   0.041056   0.010034  -0.000068   0.000006
    12  C   -1.494272  -2.945127  -0.793267  -0.465150   0.020920  -0.019861
    13  H    0.000001  -0.015510   0.119188  -0.012674   0.000012  -0.000061
    14  Br   0.223916   0.039566   0.054127  -0.437646  -0.010115   0.000548
               7          8          9         10         11         12
     1  C   -0.040669  -0.006322   0.276073  -0.668529  -0.020899  -1.494272
     2  C    0.193009   0.022444   0.052941  -1.390104   0.022896  -2.945127
     3  C   -0.740509  -0.293924  -0.403073  -0.792361   0.041056  -0.793267
     4  C    0.011122  -0.008593  -0.020883   0.143908   0.010034  -0.465150
     5  H   -0.001677  -0.000026   0.000198  -0.015559  -0.000068   0.020920
     6  H   -0.035758  -0.002104   0.018612   0.003667   0.000006  -0.019861
     7  N    7.156869   0.274849   0.245750  -0.015459  -0.001378   0.137353
     8  O    0.274849   7.875098  -0.031244   0.212538   0.000082  -0.035747
     9  O    0.245750  -0.031244   7.914599   0.019065  -0.000025  -0.038232
    10  C   -0.015459   0.212538   0.019065   9.440200   0.268564  -0.784362
    11  H   -0.001378   0.000082  -0.000025   0.268564   0.395592   0.014114
    12  C    0.137353  -0.035747  -0.038232  -0.784362   0.014114  11.858831
    13  H   -0.021894   0.009827  -0.001387   0.004973  -0.003746   0.257740
    14  Br   0.000042   0.000499   0.000643   0.227825  -0.009842   0.041578
              13         14
     1  C    0.000001   0.223916
     2  C   -0.015510   0.039566
     3  C    0.119188   0.054127
     4  C   -0.012674  -0.437646
     5  H    0.000012  -0.010115
     6  H   -0.000061   0.000548
     7  N   -0.021894   0.000042
     8  O    0.009827   0.000499
     9  O   -0.001387   0.000643
    10  C    0.004973   0.227825
    11  H   -0.003746  -0.009842
    12  C    0.257740   0.041578
    13  H    0.373596   0.000642
    14  Br   0.000642  34.996068
 Mulliken charges:
               1
     1  C   -0.768385
     2  C    0.215205
     3  C   -0.595436
     4  C    0.737150
     5  H    0.284628
     6  H    0.302731
     7  N   -0.161650
     8  O   -0.017377
     9  O   -0.033037
    10  C   -0.654366
    11  H    0.283614
    12  C    0.245482
    13  H    0.289293
    14  Br  -0.127851
 Sum of Mulliken charges =  -0.00000
 Mulliken charges with hydrogens summed into heavy atoms:
               1
     1  C   -0.483757
     2  C    0.517936
     3  C   -0.595436
     4  C    0.737150
     7  N   -0.161650
     8  O   -0.017377
     9  O   -0.033037
    10  C   -0.370752
    12  C    0.534774
    14  Br  -0.127851
 Electronic spatial extent (au):  <R**2>=           2752.5083
 Charge=             -0.0000 electrons
 Dipole moment (field-independent basis, Debye):
    X=              3.6137    Y=              0.2181    Z=              0.1096  Tot=              3.6220
 Quadrupole moment (field-independent basis, Debye-Ang):
   XX=            -90.8013   YY=            -63.8374   ZZ=            -70.9122
   XY=             -0.2490   XZ=             -0.3186   YZ=              0.1650
 Traceless Quadrupole moment (field-independent basis, Debye-Ang):
   XX=            -15.6177   YY=             11.3463   ZZ=              4.2714
   XY=             -0.2490   XZ=             -0.3186   YZ=              0.1650
 Octapole moment (field-independent basis, Debye-Ang**2):
  XXX=            176.2632  YYY=              1.0456  ZZZ=             -0.5287  XYY=             29.4660
  XXY=              0.1224  XXZ=              0.8931  XZZ=             17.3012  YZZ=             -0.3790
  YYZ=              0.3968  XYZ=             -0.2351
 Hexadecapole moment (field-independent basis, Debye-Ang**3):
 XXXX=          -2956.4133 YYYY=           -358.4793 ZZZZ=            -76.8248 XXXY=             -1.2017
 XXXZ=             -5.0370 YYYX=             -2.3037 YYYZ=              0.7310 ZZZX=             -0.0882
 ZZZY=             -0.0567 XXYY=           -533.8317 XXZZ=           -433.5220 YYZZ=            -85.9905
 XXYZ=              0.9511 YYXZ=             -0.8150 ZZXY=             -0.1913
 N-N= 6.959784006548D+02 E-N=-8.562955721079D+03  KE= 3.005584822162D+03
 No NMR shielding tensors so no spin-rotation constants.
 Leave Link  601 at Mon May 22 12:33:21 2023, MaxMem=  1610612736 cpu:               1.5 elap:               0.2
 (Enter /software/gaussian/g16-c01/avx2/g16/l701.exe)
 ... and contract with generalized density number  0.
 Compute integral first derivatives.
 R6Disp: Adding Grimme-D2 dispersion energy 1st derivatives to the gradient.
 Leave Link  701 at Mon May 22 12:33:21 2023, MaxMem=  1610612736 cpu:               1.9 elap:               0.2
 (Enter /software/gaussian/g16-c01/avx2/g16/l702.exe)
 L702 exits ... SP integral derivatives will be done elsewhere.
 Leave Link  702 at Mon May 22 12:33:22 2023, MaxMem=  1610612736 cpu:               0.2 elap:               0.0
 (Enter /software/gaussian/g16-c01/avx2/g16/l703.exe)
 Integral derivatives from FoFJK, PRISM(SPDF).
 Compute integral first derivatives, UseDBF=F ICtDFT=           0.
 Calling FoFJK, ICntrl=      2127 FMM=F ISym2X=0 I1Cent= 0 IOpClX= 0 NMat=1 NMatS=1 NMatT=0.
 FoFJK:  IHMeth= 1 ICntrl=    2127 DoSepK=T KAlg= 0 I1Cent=           0 FoldK=F
 IRaf=         1 NMat=       1 IRICut=       1 DoRegI=T DoRafI=F ISym2E= 0 IDoP0=0 IntGTp=1.
 FoFCou: FMM=F IPFlag=           0 FMFlag=      100000 FMFlg1=         800
         NFxFlg=           0 DoJE=F BraDBF=F KetDBF=F FulRan=T
         wScrn=  0.000000 ICntrl=      2527 IOpCl=  0 I1Cent=           0 NGrid=           0
         NMat0=    1 NMatS0=      1 NMatT0=    0 NMatD0=    1 NMtDS0=    0 NMtDT0=    0
 Symmetry not used in FoFCou.
 Leave Link  703 at Mon May 22 12:33:30 2023, MaxMem=  1610612736 cpu:              88.0 elap:               7.4
 (Enter /software/gaussian/g16-c01/avx2/g16/l716.exe)
 Dipole        = 1.42175439D+00 8.58266791D-02 4.31348085D-02
 ***** Axes restored to original set *****
 -------------------------------------------------------------------
 Center     Atomic                   Forces (Hartrees/Bohr)
 Number     Number              X              Y              Z
 -------------------------------------------------------------------
      1        6          -0.000838260   -0.002530684    0.000286517
      2        6          -0.002102853   -0.004595844   -0.000446896
      3        6          -0.009173147    0.005384692    0.000489438
      4        6           0.001768320    0.000895317   -0.000139732
      5        1          -0.000264215    0.000065898    0.000239212
      6        1          -0.002008891    0.000647055   -0.000698854
      7        7           0.042721224    0.002098434   -0.003560436
      8        8          -0.027163084    0.038313455    0.002937967
      9        8          -0.017604929   -0.047682644    0.000715325
     10        6           0.001715937    0.001949491   -0.000138259
     11        1          -0.000940247    0.000034323   -0.000185222
     12        6          -0.006619301    0.009201429    0.002147288
     13        1           0.012141293   -0.004351683   -0.001593959
     14       35           0.008368154    0.000570761   -0.000052388
 -------------------------------------------------------------------
 Cartesian Forces:  Max     0.047682644 RMS     0.013071237
 Leave Link  716 at Mon May 22 12:33:30 2023, MaxMem=  1610612736 cpu:               0.2 elap:               0.0
 (Enter /software/gaussian/g16-c01/avx2/g16/l103.exe)

 GradGradGradGradGradGradGradGradGradGradGradGradGradGradGradGradGradGrad
 Berny optimization.
 FormGI is forming the generalized inverse of G from B-inverse, IUseBI=4.
 Internal  Forces:  Max     0.050685882 RMS     0.009951166
 Search for a local minimum.
 Step number   1 out of a maximum of   73
 All quantities printed in internal units (Hartrees-Bohrs-Radians)
 RMS Force = .99512D-02 SwitMx=.10000D-02 MixMth= 1
 Mixed Optimization -- RFO/linear search
 Second derivative matrix not updated -- first step.
 ITU=  0
     Eigenvalues ---    0.00863   0.00866   0.01757   0.02148   0.02159
     Eigenvalues ---    0.02165   0.02171   0.02181   0.02186   0.02188
     Eigenvalues ---    0.02204   0.15990   0.16000   0.16000   0.16000
     Eigenvalues ---    0.17771   0.22000   0.22983   0.24000   0.25000
     Eigenvalues ---    0.25000   0.25000   0.25000   0.35661   0.35696
     Eigenvalues ---    0.35774   0.36632   0.37230   0.42440   0.42469
     Eigenvalues ---    0.46354   0.46425   0.46755   0.47234   0.81437
     Eigenvalues ---    0.83866
 RFO step:  Lambda=-1.16095982D-02 EMin= 8.62727614D-03
 Linear search not attempted -- first point.
 Iteration  1 RMS(Cart)=  0.06498451 RMS(Int)=  0.00238507
 Iteration  2 RMS(Cart)=  0.00283428 RMS(Int)=  0.00037807
 Iteration  3 RMS(Cart)=  0.00000456 RMS(Int)=  0.00037806
 Iteration  4 RMS(Cart)=  0.00000000 RMS(Int)=  0.00037806
 ITry= 1 IFail=0 DXMaxC= 2.37D-01 DCOld= 1.00D+10 DXMaxT= 3.00D-01 DXLimC= 3.00D+00 Rises=F
 Variable       Old X    -DE/DX   Delta X   Delta X   Delta X     New X
                                 (Linear)    (Quad)   (Total)
    R1        2.62476  -0.00456   0.00000  -0.00915  -0.00917   2.61560
    R2        2.63741  -0.00497   0.00000  -0.01004  -0.01006   2.62735
    R3        2.04615   0.00019   0.00000   0.00051   0.00051   2.04665
    R4        2.63802  -0.00375   0.00000  -0.00811  -0.00810   2.62992
    R5        2.04436  -0.00056   0.00000  -0.00151  -0.00151   2.04285
    R6        2.76405  -0.00237   0.00000  -0.00628  -0.00628   2.75777
    R7        2.63728  -0.01058   0.00000  -0.02269  -0.02268   2.61461
    R8        2.63109  -0.00298   0.00000  -0.00598  -0.00598   2.62511
    R9        3.60938  -0.00836   0.00000  -0.04416  -0.04416   3.56522
   R10        2.35896  -0.04693   0.00000  -0.05520  -0.05520   2.30376
   R11        2.37150  -0.05069   0.00000  -0.06136  -0.06136   2.31013
   R12        2.04559   0.00045   0.00000   0.00121   0.00121   2.04680
   R13        2.63392  -0.00522   0.00000  -0.01113  -0.01112   2.62280
   R14        2.02201   0.00896   0.00000   0.02335   0.02335   2.04536
    A1        2.08645  -0.00181   0.00000  -0.00571  -0.00574   2.08071
    A2        2.09198   0.00111   0.00000   0.00404   0.00405   2.09603
    A3        2.10476   0.00070   0.00000   0.00168   0.00169   2.10645
    A4        2.09685  -0.00322   0.00000  -0.01312  -0.01312   2.08373
    A5        2.11818  -0.00046   0.00000  -0.00552  -0.00552   2.11266
    A6        2.06815   0.00368   0.00000   0.01863   0.01863   2.08679
    A7        2.02627   0.01584   0.00000   0.06079   0.06078   2.08705
    A8        2.10501   0.00491   0.00000   0.01826   0.01829   2.12330
    A9        2.15189  -0.02075   0.00000  -0.07905  -0.07907   2.07283
   A10        2.09696   0.00386   0.00000   0.01661   0.01658   2.11355
   A11        2.09978  -0.00315   0.00000  -0.01297  -0.01296   2.08682
   A12        2.08643  -0.00070   0.00000  -0.00361  -0.00361   2.08282
   A13        2.07336  -0.00813   0.00000  -0.03049  -0.03199   2.04138
   A14        2.04450   0.00859   0.00000   0.03342   0.03192   2.07642
   A15        2.16511  -0.00042   0.00000  -0.00099  -0.00250   2.16261
   A16        2.10367   0.00097   0.00000   0.00253   0.00252   2.10619
   A17        2.10594  -0.00362   0.00000  -0.01490  -0.01489   2.09105
   A18        2.07358   0.00266   0.00000   0.01238   0.01237   2.08595
   A19        2.07500  -0.00011   0.00000  -0.00094  -0.00099   2.07400
   A20        2.17743  -0.00927   0.00000  -0.05358  -0.05369   2.12373
   A21        2.03022   0.00940   0.00000   0.05527   0.05518   2.08540
    D1        0.01264  -0.00036   0.00000  -0.01040  -0.01041   0.00223
    D2       -3.12763  -0.00038   0.00000  -0.01005  -0.00993  -3.13757
    D3       -3.13060  -0.00022   0.00000  -0.00649  -0.00652  -3.13712
    D4        0.01231  -0.00024   0.00000  -0.00614  -0.00604   0.00627
    D5        0.00269   0.00006   0.00000   0.00161   0.00157   0.00426
    D6        3.13869   0.00019   0.00000   0.00606   0.00612  -3.13838
    D7       -3.13724  -0.00008   0.00000  -0.00233  -0.00235  -3.13959
    D8       -0.00125   0.00005   0.00000   0.00212   0.00221   0.00096
    D9        3.11887   0.00030   0.00000   0.01186   0.01218   3.13105
   D10       -0.01827   0.00033   0.00000   0.01070   0.01087  -0.00741
   D11       -0.02400   0.00031   0.00000   0.01151   0.01169  -0.01231
   D12        3.12204   0.00034   0.00000   0.01034   0.01038   3.13241
   D13       -3.11602  -0.00103   0.00000  -0.05065  -0.05062   3.11654
   D14        0.00458   0.00095   0.00000   0.04725   0.04717   0.05174
   D15        0.02099  -0.00099   0.00000  -0.04916  -0.04909  -0.02809
   D16        3.14159   0.00099   0.00000   0.04873   0.04870  -3.09289
   D17        0.00829  -0.00007   0.00000  -0.00228  -0.00235   0.00593
   D18       -3.09665  -0.00109   0.00000  -0.02885  -0.02817  -3.12482
   D19       -3.12853  -0.00013   0.00000  -0.00392  -0.00402  -3.13255
   D20        0.04972  -0.00115   0.00000  -0.03050  -0.02984   0.01988
   D21        3.12477   0.00026   0.00000   0.00942   0.00968   3.13445
   D22       -0.01269   0.00020   0.00000   0.00682   0.00696  -0.00574
   D23       -0.01127   0.00014   0.00000   0.00503   0.00517  -0.00610
   D24        3.13445   0.00008   0.00000   0.00244   0.00244   3.13690
   D25        0.00715  -0.00020   0.00000  -0.00645  -0.00651   0.00064
   D26        3.11514   0.00036   0.00000   0.01574   0.01649   3.13164
   D27       -3.13038  -0.00025   0.00000  -0.00897  -0.00918  -3.13956
   D28       -0.02239   0.00031   0.00000   0.01321   0.01383  -0.00856
         Item               Value     Threshold  Converged?
 Maximum Force            0.050686     0.000450     NO 
 RMS     Force            0.009951     0.000300     NO 
 Maximum Displacement     0.237295     0.001800     NO 
 RMS     Displacement     0.065068     0.001200     NO 
 Predicted change in Energy=-6.052935D-03
 Lowest energy point so far.  Saving SCF results.
 GradGradGradGradGradGradGradGradGradGradGradGradGradGradGradGradGradGrad

 Leave Link  103 at Mon May 22 12:33:30 2023, MaxMem=  1610612736 cpu:               0.2 elap:               0.0
 (Enter /software/gaussian/g16-c01/avx2/g16/l202.exe)
                          Input orientation:                          
 ---------------------------------------------------------------------
 Center     Atomic      Atomic             Coordinates (Angstroms)
 Number     Number       Type             X           Y           Z
 ---------------------------------------------------------------------
      1          6           0        0.769926    1.250142    0.027505
      2          6           0        2.153834    1.241286    0.005266
      3          6           0        2.828726    0.024418   -0.018413
      4          6           0        0.083481    0.041083    0.028398
      5          1           0        0.233042    2.190637    0.041860
      6          1           0        2.717388    2.163799    0.007678
      7          7           0        4.287543    0.010345   -0.055287
      8          8           0        4.830151   -1.081313   -0.047719
      9          8           0        4.891273    1.072341   -0.009373
     10          6           0        0.763556   -1.170104    0.012455
     11          1           0        0.221975   -2.108074    0.019914
     12          6           0        2.151225   -1.181925   -0.011612
     13          1           0        2.675931   -2.128588   -0.014576
     14         35           0       -1.802985    0.041667    0.053339
 ---------------------------------------------------------------------
                    Distance matrix (angstroms):
                    1          2          3          4          5
     1  C    0.000000
     2  C    1.384115   0.000000
     3  C    2.396491   1.391692   0.000000
     4  C    1.390335   2.393196   2.745695   0.000000
     5  H    1.083043   2.142907   3.381378   2.154793   0.000000
     6  H    2.151225   1.081031   2.142434   3.382871   2.484726
     7  N    3.730627   2.464060   1.459350   4.205007   4.604573
     8  O    4.682603   3.544001   2.286744   4.878160   5.643323
     9  O    4.125346   2.742686   2.313509   4.917295   4.790859
    10  C    2.420301   2.783473   2.385951   1.389147   3.402483
    11  H    3.402635   3.866588   3.368107   2.153632   4.298781
    12  C    2.797226   2.423271   1.383589   2.402689   3.880266
    13  H    3.879490   3.410136   2.158424   3.380845   4.962519
    14  Br   2.842701   4.134951   4.632300   1.886631   2.960339
                    6          7          8          9         10
     6  H    0.000000
     7  N    2.665842   0.000000
     8  O    3.872672   1.219098   0.000000
     9  O    2.432560   1.222470   2.154863   0.000000
    10  C    3.864244   3.717059   4.068008   4.697561   0.000000
    11  H    4.947335   4.584996   4.721662   5.649623   1.083122
    12  C    3.393344   2.446890   2.681058   3.548181   1.387927
    13  H    4.292644   2.678429   2.395526   3.892777   2.139298
    14  Br   4.993926   6.091577   6.728283   6.773427   2.838520
                   11         12         13         14
    11  H    0.000000
    12  C    2.140268   0.000000
    13  H    2.454284   1.082356   0.000000
    14  Br   2.953467   4.139707   4.977480   0.000000
 Stoichiometry    C6H4BrNO2
 Framework group  C1[X(C6H4BrNO2)]
 Deg. of freedom    36
 Full point group                 C1      NOp   1
 RotChk:  IX=1 Diff= 5.25D-03
 Largest Abelian subgroup         C1      NOp   1
 Largest concise Abelian subgroup C1      NOp   1
                         Standard orientation:                         
 ---------------------------------------------------------------------
 Center     Atomic      Atomic             Coordinates (Angstroms)
 Number     Number       Type             X           Y           Z
 ---------------------------------------------------------------------
      1          6           0        0.288585   -1.219914   -0.001308
      2          6           0       -1.095527   -1.218959   -0.004331
      3          6           0       -1.777643   -0.005899   -0.007468
      4          6           0        0.968038   -0.006915    0.001232
      5          1           0        0.830996   -2.157341   -0.003040
      6          1           0       -1.653699   -2.144740   -0.002626
      7          7           0       -3.236887   -0.000033   -0.024040
      8          8           0       -3.785583    1.088314    0.001083
      9          8           0       -3.833828   -1.065921    0.020432
     10          6           0        0.280879    1.200364    0.005848
     11          1           0        0.817129    2.141382    0.014460
     12          6           0       -1.107035    1.204279    0.001078
     13          1           0       -1.637146    2.147840    0.014088
     14         35           0        2.854641    0.003321    0.000085
 ---------------------------------------------------------------------
 Rotational constants (GHZ):           4.0072489           0.3778429           0.3452937
 Leave Link  202 at Mon May 22 12:33:30 2023, MaxMem=  1610612736 cpu:               0.1 elap:               0.0
 (Enter /software/gaussian/g16-c01/avx2/g16/l301.exe)
 Standard basis: 6-311+G(d) (5D, 7F)
 Ernie: Thresh=  0.10000D-02 Tol=  0.10000D-05 Strict=F.
 There are   270 symmetry adapted cartesian basis functions of A   symmetry.
 There are   258 symmetry adapted basis functions of A   symmetry.
   258 basis functions,   438 primitive gaussians,   270 cartesian basis functions
    49 alpha electrons       49 beta electrons
       nuclear repulsion energy       702.6482837491 Hartrees.
 IExCor= 4639 DFT=T Ex+Corr=wB97XD ExCW=0 ScaHFX=  1.000000
 ScaDFX=  1.000000  1.000000  1.000000  1.000000 ScalE2=  1.000000  1.000000
 IRadAn=      5 IRanWt=     -1 IRanGd=            0 ICorTp=0 IEmpDi=121
 HFx  wShort=  0.000000 wLong=  0.200000 cFull=  0.222036 cShort=  0.000000 cLong=  0.777964
 DFx  wShort=  0.000000 wLong=  0.200000 cFull=  0.000000 cShort=  0.000000 cLong=  1.000000
 NAtoms=   14 NActive=   14 NUniq=   14 SFac= 1.00D+00 NAtFMM=   60 NAOKFM=F Big=F
 Integral buffers will be    131072 words long.
 Raffenetti 2 integral format.
 Two-electron integral symmetry is turned on.
 R6Disp:  Grimme-D2 Dispersion energy=       -0.0064779183 Hartrees.
 Nuclear repulsion after empirical dispersion term =      702.6418058309 Hartrees.
 Leave Link  301 at Mon May 22 12:33:30 2023, MaxMem=  1610612736 cpu:               0.5 elap:               0.1
 (Enter /software/gaussian/g16-c01/avx2/g16/l302.exe)
 NPDir=0 NMtPBC=     1 NCelOv=     1 NCel=       1 NClECP=     1 NCelD=      1
         NCelK=      1 NCelE2=     1 NClLst=     1 CellRange=     0.0.
 One-electron integrals computed using PRISM.
 One-electron integral symmetry used in STVInt
 NBasis=   258 RedAO= T EigKep=  2.15D-06  NBF=   258
 NBsUse=   258 1.00D-06 EigRej= -1.00D+00 NBFU=   258
 Precomputing XC quadrature grid using
 IXCGrd= 4 IRadAn=           5 IRanWt=          -1 IRanGd=           0 AccXCQ= 0.00D+00.
 Generated NRdTot=       0 NPtTot=           0 NUsed=           0 NTot=          32
 NSgBfM=   269   269   269   269   269 MxSgAt=    14 MxSgA2=    14.
 Leave Link  302 at Mon May 22 12:33:31 2023, MaxMem=  1610612736 cpu:               2.2 elap:               0.2
 (Enter /software/gaussian/g16-c01/avx2/g16/l303.exe)
 DipDrv:  MaxL=1.
 Leave Link  303 at Mon May 22 12:33:31 2023, MaxMem=  1610612736 cpu:               0.3 elap:               0.0
 (Enter /software/gaussian/g16-c01/avx2/g16/l401.exe)
 Initial guess from the checkpoint file:  "geometry.chk"
 B after Tr=     0.000000    0.000000   -0.000000
         Rot=    1.000000   -0.000221    0.000034    0.000476 Ang=  -0.06 deg.
 Guess basis will be translated and rotated to current coordinates.
 JPrj=2 DoOrth=T DoCkMO=T.
 Generating alternative initial guess.
 ExpMin= 3.50D-02 ExpMax= 4.40D+05 ExpMxC= 1.51D+04 IAcc=3 IRadAn=         5 AccDes= 0.00D+00
 Harris functional with IExCor= 4639 and IRadAn=       5 diagonalized for initial guess.
 HarFok:  IExCor= 4639 AccDes= 0.00D+00 IRadAn=         5 IDoV= 1 UseB2=F ITyADJ=14
 ICtDFT=  3500011 ScaDFX=  1.000000  1.000000  1.000000  1.000000
 FoFCou: FMM=F IPFlag=           0 FMFlag=      100000 FMFlg1=           0
         NFxFlg=           0 DoJE=T BraDBF=F KetDBF=T FulRan=T
         wScrn=  0.000000 ICntrl=       500 IOpCl=  0 I1Cent=   200000004 NGrid=           0
         NMat0=    1 NMatS0=      1 NMatT0=    0 NMatD0=    1 NMtDS0=    0 NMtDT0=    0
 Petite list used in FoFCou.
 Harris En= -2970.25026717249    
 Leave Link  401 at Mon May 22 12:33:31 2023, MaxMem=  1610612736 cpu:               7.4 elap:               0.6
 (Enter /software/gaussian/g16-c01/avx2/g16/l502.exe)
 Integral symmetry usage will be decided dynamically.
 Closed shell SCF:
 Using DIIS extrapolation, IDIIS=  1040.
 NGot=  1610612736 LenX=  1610460839 LenY=  1610387498
 Requested convergence on RMS density matrix=1.00D-08 within 128 cycles.
 Requested convergence on MAX density matrix=1.00D-06.
 Requested convergence on             energy=1.00D-06.
 No special actions if energy rises.
 Fock matrices will be formed incrementally for  20 cycles.

 Cycle   1  Pass 1  IDiag  1:
 FoFJK:  IHMeth= 1 ICntrl=       0 DoSepK=T KAlg= 0 I1Cent=           0 FoldK=F
 IRaf=         1 NMat=       1 IRICut=       1 DoRegI=T DoRafI=F ISym2E= 0 IDoP0=0 IntGTp=1.
 FoFCou: FMM=F IPFlag=           0 FMFlag=      100000 FMFlg1=           0
         NFxFlg=           0 DoJE=T BraDBF=F KetDBF=F FulRan=T
         wScrn=  0.000000 ICntrl=       500 IOpCl=  0 I1Cent=           0 NGrid=           0
         NMat0=    1 NMatS0=      1 NMatT0=    0 NMatD0=    1 NMtDS0=    0 NMtDT0=    0
 Symmetry not used in FoFCou.
 E= -3010.25912497773    
 DIIS: error= 7.27D-03 at cycle   1 NSaved=   1.
 NSaved= 1 IEnMin= 1 EnMin= -3010.25912497773     IErMin= 1 ErrMin= 7.27D-03
 ErrMax= 7.27D-03  0.00D+00 EMaxC= 1.00D-01 BMatC= 2.05D-02 BMatP= 2.05D-02
 IDIUse=3 WtCom= 9.27D-01 WtEn= 7.27D-02
 Coeff-Com:  0.100D+01
 Coeff-En:   0.100D+01
 Coeff:      0.100D+01
 Gap=     0.584 Goal=   None    Shift=    0.000
 GapD=    0.584 DampG=2.000 DampE=1.000 DampFc=2.0000 IDamp=-1.
 RMSDP=8.32D-03 MaxDP=4.00D-01              OVMax= 4.18D-02

 Cycle   2  Pass 1  IDiag  1:
 RMSU=  8.23D-03    CP:  1.03D+00
 E= -3010.27885587785     Delta-E=       -0.019730900129 Rises=F Damp=F
 DIIS: error= 4.52D-03 at cycle   2 NSaved=   2.
 NSaved= 2 IEnMin= 2 EnMin= -3010.27885587785     IErMin= 2 ErrMin= 4.52D-03
 ErrMax= 4.52D-03  0.00D+00 EMaxC= 1.00D-01 BMatC= 1.33D-03 BMatP= 2.05D-02
 IDIUse=3 WtCom= 9.55D-01 WtEn= 4.52D-02
 Coeff-Com:  0.928D-03 0.999D+00
 Coeff-En:   0.000D+00 0.100D+01
 Coeff:      0.886D-03 0.999D+00
 Gap=     0.312 Goal=   None    Shift=    0.000
 RMSDP=2.04D-03 MaxDP=1.70D-01 DE=-1.97D-02 OVMax= 2.85D-02

 Cycle   3  Pass 1  IDiag  1:
 RMSU=  1.28D-03    CP:  1.04D+00  1.17D+00
 E= -3010.27849148004     Delta-E=        0.000364397809 Rises=F Damp=F
 DIIS: error= 8.39D-03 at cycle   3 NSaved=   3.
 NSaved= 3 IEnMin= 2 EnMin= -3010.27885587785     IErMin= 2 ErrMin= 4.52D-03
 ErrMax= 8.39D-03  0.00D+00 EMaxC= 1.00D-01 BMatC= 2.84D-03 BMatP= 1.33D-03
 IDIUse=3 WtCom= 9.84D-02 WtEn= 9.02D-01
 Coeff-Com: -0.609D-01 0.643D+00 0.418D+00
 Coeff-En:   0.000D+00 0.564D+00 0.436D+00
 Coeff:     -0.600D-02 0.572D+00 0.434D+00
 Gap=     0.311 Goal=   None    Shift=    0.000
 RMSDP=6.18D-04 MaxDP=3.51D-02 DE= 3.64D-04 OVMax= 2.25D-02

 Cycle   4  Pass 1  IDiag  1:
 RMSU=  4.64D-04    CP:  1.05D+00  1.20D+00  7.69D-01
 E= -3010.28035786869     Delta-E=       -0.001866388644 Rises=F Damp=F
 DIIS: error= 2.27D-03 at cycle   4 NSaved=   4.
 NSaved= 4 IEnMin= 4 EnMin= -3010.28035786869     IErMin= 4 ErrMin= 2.27D-03
 ErrMax= 2.27D-03  0.00D+00 EMaxC= 1.00D-01 BMatC= 1.95D-04 BMatP= 1.33D-03
 IDIUse=3 WtCom= 9.77D-01 WtEn= 2.27D-02
 Coeff-Com: -0.218D-01 0.692D-01 0.220D+00 0.732D+00
 Coeff-En:   0.000D+00 0.000D+00 0.182D-01 0.982D+00
 Coeff:     -0.213D-01 0.676D-01 0.216D+00 0.738D+00
 Gap=     0.310 Goal=   None    Shift=    0.000
 RMSDP=2.66D-04 MaxDP=1.98D-02 DE=-1.87D-03 OVMax= 5.68D-03

 Cycle   5  Pass 1  IDiag  1:
 RMSU=  1.07D-04    CP:  1.05D+00  1.22D+00  9.06D-01  1.04D+00
 E= -3010.28051230224     Delta-E=       -0.000154433549 Rises=F Damp=F
 DIIS: error= 3.41D-04 at cycle   5 NSaved=   5.
 NSaved= 5 IEnMin= 5 EnMin= -3010.28051230224     IErMin= 5 ErrMin= 3.41D-04
 ErrMax= 3.41D-04  0.00D+00 EMaxC= 1.00D-01 BMatC= 1.65D-05 BMatP= 1.95D-04
 IDIUse=3 WtCom= 9.97D-01 WtEn= 3.41D-03
 Coeff-Com: -0.184D-04-0.705D-01 0.327D-01 0.355D+00 0.683D+00
 Coeff-En:   0.000D+00 0.000D+00 0.000D+00 0.000D+00 0.100D+01
 Coeff:     -0.183D-04-0.703D-01 0.326D-01 0.354D+00 0.684D+00
 Gap=     0.310 Goal=   None    Shift=    0.000
 RMSDP=1.02D-04 MaxDP=4.98D-03 DE=-1.54D-04 OVMax= 2.04D-03

 Cycle   6  Pass 1  IDiag  1:
 RMSU=  8.81D-05    CP:  1.05D+00  1.22D+00  9.11D-01  1.13D+00  1.05D+00
 E= -3010.28053086871     Delta-E=       -0.000018566468 Rises=F Damp=F
 DIIS: error= 1.61D-04 at cycle   6 NSaved=   6.
 NSaved= 6 IEnMin= 6 EnMin= -3010.28053086871     IErMin= 6 ErrMin= 1.61D-04
 ErrMax= 1.61D-04  0.00D+00 EMaxC= 1.00D-01 BMatC= 1.74D-06 BMatP= 1.65D-05
 IDIUse=3 WtCom= 9.98D-01 WtEn= 1.61D-03
 Coeff-Com:  0.202D-02-0.396D-01-0.511D-02 0.934D-01 0.304D+00 0.645D+00
 Coeff-En:   0.000D+00 0.000D+00 0.000D+00 0.000D+00 0.000D+00 0.100D+01
 Coeff:      0.202D-02-0.395D-01-0.510D-02 0.933D-01 0.304D+00 0.646D+00
 Gap=     0.310 Goal=   None    Shift=    0.000
 RMSDP=3.37D-05 MaxDP=1.78D-03 DE=-1.86D-05 OVMax= 1.04D-03

 Cycle   7  Pass 1  IDiag  1:
 RMSU=  2.42D-05    CP:  1.05D+00  1.22D+00  9.21D-01  1.14D+00  1.14D+00
                    CP:  1.14D+00
 E= -3010.28053365441     Delta-E=       -0.000002785701 Rises=F Damp=F
 DIIS: error= 9.93D-05 at cycle   7 NSaved=   7.
 NSaved= 7 IEnMin= 7 EnMin= -3010.28053365441     IErMin= 7 ErrMin= 9.93D-05
 ErrMax= 9.93D-05  0.00D+00 EMaxC= 1.00D-01 BMatC= 2.61D-07 BMatP= 1.74D-06
 IDIUse=1 WtCom= 1.00D+00 WtEn= 0.00D+00
 Coeff-Com:  0.581D-03 0.707D-02-0.967D-02-0.664D-01-0.970D-01 0.148D+00
 Coeff-Com:  0.102D+01
 Coeff:      0.581D-03 0.707D-02-0.967D-02-0.664D-01-0.970D-01 0.148D+00
 Coeff:      0.102D+01
 Gap=     0.310 Goal=   None    Shift=    0.000
 RMSDP=3.47D-05 MaxDP=2.32D-03 DE=-2.79D-06 OVMax= 1.12D-03

 Cycle   8  Pass 1  IDiag  1:
 RMSU=  1.23D-05    CP:  1.05D+00  1.22D+00  9.24D-01  1.15D+00  1.26D+00
                    CP:  1.35D+00  1.49D+00
 E= -3010.28053481183     Delta-E=       -0.000001157428 Rises=F Damp=F
 DIIS: error= 3.99D-05 at cycle   8 NSaved=   8.
 NSaved= 8 IEnMin= 8 EnMin= -3010.28053481183     IErMin= 8 ErrMin= 3.99D-05
 ErrMax= 3.99D-05  0.00D+00 EMaxC= 1.00D-01 BMatC= 6.59D-08 BMatP= 2.61D-07
 IDIUse=1 WtCom= 1.00D+00 WtEn= 0.00D+00
 Coeff-Com: -0.269D-03 0.118D-01-0.233D-02-0.453D-01-0.105D+00-0.834D-01
 Coeff-Com:  0.406D+00 0.818D+00
 Coeff:     -0.269D-03 0.118D-01-0.233D-02-0.453D-01-0.105D+00-0.834D-01
 Coeff:      0.406D+00 0.818D+00
 Gap=     0.310 Goal=   None    Shift=    0.000
 RMSDP=1.40D-05 MaxDP=8.01D-04 DE=-1.16D-06 OVMax= 5.17D-04

 Cycle   9  Pass 1  IDiag  1:
 RMSU=  4.70D-06    CP:  1.05D+00  1.21D+00  9.22D-01  1.15D+00  1.27D+00
                    CP:  1.43D+00  1.67D+00  9.08D-01
 E= -3010.28053503800     Delta-E=       -0.000000226161 Rises=F Damp=F
 DIIS: error= 1.29D-05 at cycle   9 NSaved=   9.
 NSaved= 9 IEnMin= 9 EnMin= -3010.28053503800     IErMin= 9 ErrMin= 1.29D-05
 ErrMax= 1.29D-05  0.00D+00 EMaxC= 1.00D-01 BMatC= 1.10D-08 BMatP= 6.59D-08
 IDIUse=1 WtCom= 1.00D+00 WtEn= 0.00D+00
 Coeff-Com: -0.209D-03 0.347D-02 0.885D-03-0.565D-02-0.228D-01-0.548D-01
 Coeff-Com: -0.311D-01 0.310D+00 0.800D+00
 Coeff:     -0.209D-03 0.347D-02 0.885D-03-0.565D-02-0.228D-01-0.548D-01
 Coeff:     -0.311D-01 0.310D+00 0.800D+00
 Gap=     0.310 Goal=   None    Shift=    0.000
 RMSDP=3.99D-06 MaxDP=1.90D-04 DE=-2.26D-07 OVMax= 1.83D-04

 Cycle  10  Pass 1  IDiag  1:
 RMSU=  2.08D-06    CP:  1.05D+00  1.21D+00  9.20D-01  1.14D+00  1.26D+00
                    CP:  1.42D+00  1.67D+00  9.22D-01  1.15D+00
 E= -3010.28053506913     Delta-E=       -0.000000031133 Rises=F Damp=F
 DIIS: error= 4.05D-06 at cycle  10 NSaved=  10.
 NSaved=10 IEnMin=10 EnMin= -3010.28053506913     IErMin=10 ErrMin= 4.05D-06
 ErrMax= 4.05D-06  0.00D+00 EMaxC= 1.00D-01 BMatC= 1.26D-09 BMatP= 1.10D-08
 IDIUse=1 WtCom= 1.00D+00 WtEn= 0.00D+00
 Coeff-Com: -0.175D-04-0.886D-03 0.534D-03 0.526D-02 0.101D-01-0.117D-02
 Coeff-Com: -0.700D-01-0.610D-01 0.216D+00 0.901D+00
 Coeff:     -0.175D-04-0.886D-03 0.534D-03 0.526D-02 0.101D-01-0.117D-02
 Coeff:     -0.700D-01-0.610D-01 0.216D+00 0.901D+00
 Gap=     0.310 Goal=   None    Shift=    0.000
 RMSDP=2.64D-06 MaxDP=1.23D-04 DE=-3.11D-08 OVMax= 6.58D-05

 Cycle  11  Pass 1  IDiag  1:
 RMSU=  1.09D-06    CP:  1.05D+00  1.21D+00  9.20D-01  1.14D+00  1.25D+00
                    CP:  1.41D+00  1.64D+00  8.87D-01  1.29D+00  1.28D+00
 E= -3010.28053507265     Delta-E=       -0.000000003518 Rises=F Damp=F
 DIIS: error= 1.16D-06 at cycle  11 NSaved=  11.
 NSaved=11 IEnMin=11 EnMin= -3010.28053507265     IErMin=11 ErrMin= 1.16D-06
 ErrMax= 1.16D-06  0.00D+00 EMaxC= 1.00D-01 BMatC= 2.50D-10 BMatP= 1.26D-09
 IDIUse=1 WtCom= 1.00D+00 WtEn= 0.00D+00
 Coeff-Com:  0.154D-04-0.751D-03 0.109D-03 0.274D-02 0.659D-02 0.562D-02
 Coeff-Com: -0.225D-01-0.641D-01-0.926D-02 0.393D+00 0.689D+00
 Coeff:      0.154D-04-0.751D-03 0.109D-03 0.274D-02 0.659D-02 0.562D-02
 Coeff:     -0.225D-01-0.641D-01-0.926D-02 0.393D+00 0.689D+00
 Gap=     0.310 Goal=   None    Shift=    0.000
 RMSDP=1.03D-06 MaxDP=5.91D-05 DE=-3.52D-09 OVMax= 1.20D-05

 Cycle  12  Pass 1  IDiag  1:
 RMSU=  3.85D-07    CP:  1.05D+00  1.21D+00  9.20D-01  1.14D+00  1.25D+00
                    CP:  1.41D+00  1.62D+00  8.65D-01  1.29D+00  1.45D+00
                    CP:  1.15D+00
 E= -3010.28053507300     Delta-E=       -0.000000000352 Rises=F Damp=F
 DIIS: error= 2.40D-07 at cycle  12 NSaved=  12.
 NSaved=12 IEnMin=12 EnMin= -3010.28053507300     IErMin=12 ErrMin= 2.40D-07
 ErrMax= 2.40D-07  0.00D+00 EMaxC= 1.00D-01 BMatC= 1.41D-11 BMatP= 2.50D-10
 IDIUse=1 WtCom= 1.00D+00 WtEn= 0.00D+00
 Coeff-Com:  0.630D-05-0.177D-03-0.299D-05 0.507D-03 0.139D-02 0.175D-02
 Coeff-Com: -0.171D-02-0.161D-01-0.199D-01 0.560D-01 0.205D+00 0.773D+00
 Coeff:      0.630D-05-0.177D-03-0.299D-05 0.507D-03 0.139D-02 0.175D-02
 Coeff:     -0.171D-02-0.161D-01-0.199D-01 0.560D-01 0.205D+00 0.773D+00
 Gap=     0.310 Goal=   None    Shift=    0.000
 RMSDP=3.88D-07 MaxDP=1.51D-05 DE=-3.52D-10 OVMax= 2.07D-06

 Cycle  13  Pass 1  IDiag  1:
 RMSU=  8.03D-08    CP:  1.05D+00  1.21D+00  9.20D-01  1.14D+00  1.24D+00
                    CP:  1.40D+00  1.62D+00  8.55D-01  1.29D+00  1.49D+00
                    CP:  1.28D+00  1.17D+00
 E= -3010.28053507303     Delta-E=       -0.000000000027 Rises=F Damp=F
 DIIS: error= 1.42D-07 at cycle  13 NSaved=  13.
 NSaved=13 IEnMin=13 EnMin= -3010.28053507303     IErMin=13 ErrMin= 1.42D-07
 ErrMax= 1.42D-07  0.00D+00 EMaxC= 1.00D-01 BMatC= 3.34D-12 BMatP= 1.41D-11
 IDIUse=1 WtCom= 1.00D+00 WtEn= 0.00D+00
 Coeff-Com: -0.567D-07 0.599D-04-0.239D-04-0.289D-03-0.599D-03-0.209D-03
 Coeff-Com:  0.373D-02 0.404D-02-0.897D-02-0.447D-01-0.301D-01 0.332D+00
 Coeff-Com:  0.745D+00
 Coeff:     -0.567D-07 0.599D-04-0.239D-04-0.289D-03-0.599D-03-0.209D-03
 Coeff:      0.373D-02 0.404D-02-0.897D-02-0.447D-01-0.301D-01 0.332D+00
 Coeff:      0.745D+00
 Gap=     0.310 Goal=   None    Shift=    0.000
 RMSDP=1.59D-07 MaxDP=6.37D-06 DE=-2.73D-11 OVMax= 7.52D-07

 Cycle  14  Pass 1  IDiag  1:
 RMSU=  2.85D-08    CP:  1.05D+00  1.21D+00  9.20D-01  1.14D+00  1.24D+00
                    CP:  1.40D+00  1.61D+00  8.50D-01  1.28D+00  1.51D+00
                    CP:  1.33D+00  1.29D+00  1.07D+00
 E= -3010.28053507304     Delta-E=       -0.000000000016 Rises=F Damp=F
 DIIS: error= 2.32D-08 at cycle  14 NSaved=  14.
 NSaved=14 IEnMin=14 EnMin= -3010.28053507304     IErMin=14 ErrMin= 2.32D-08
 ErrMax= 2.32D-08  0.00D+00 EMaxC= 1.00D-01 BMatC= 1.17D-13 BMatP= 3.34D-12
 IDIUse=1 WtCom= 1.00D+00 WtEn= 0.00D+00
 Coeff-Com: -0.431D-06 0.203D-04-0.276D-05-0.742D-04-0.173D-03-0.177D-03
 Coeff-Com:  0.631D-03 0.161D-02 0.519D-04-0.827D-02-0.198D-01-0.151D-01
 Coeff-Com:  0.763D-01 0.965D+00
 Coeff:     -0.431D-06 0.203D-04-0.276D-05-0.742D-04-0.173D-03-0.177D-03
 Coeff:      0.631D-03 0.161D-02 0.519D-04-0.827D-02-0.198D-01-0.151D-01
 Coeff:      0.763D-01 0.965D+00
 Gap=     0.310 Goal=   None    Shift=    0.000
 RMSDP=2.77D-08 MaxDP=1.39D-06 DE=-1.64D-11 OVMax= 3.58D-07

 Cycle  15  Pass 1  IDiag  1:
 RMSU=  1.02D-08    CP:  1.05D+00  1.21D+00  9.20D-01  1.14D+00  1.24D+00
                    CP:  1.40D+00  1.61D+00  8.50D-01  1.28D+00  1.51D+00
                    CP:  1.34D+00  1.31D+00  1.21D+00  1.20D+00
 E= -3010.28053507305     Delta-E=       -0.000000000003 Rises=F Damp=F
 DIIS: error= 1.74D-08 at cycle  15 NSaved=  15.
 NSaved=15 IEnMin=15 EnMin= -3010.28053507305     IErMin=15 ErrMin= 1.74D-08
 ErrMax= 1.74D-08  0.00D+00 EMaxC= 1.00D-01 BMatC= 3.68D-14 BMatP= 1.17D-13
 IDIUse=1 WtCom= 1.00D+00 WtEn= 0.00D+00
 Coeff-Com: -0.215D-06 0.297D-05 0.164D-05-0.163D-05-0.142D-04-0.720D-04
 Coeff-Com: -0.131D-03 0.387D-03 0.112D-02 0.720D-03-0.776D-02-0.400D-01
 Coeff-Com: -0.409D-01 0.381D+00 0.706D+00
 Coeff:     -0.215D-06 0.297D-05 0.164D-05-0.163D-05-0.142D-04-0.720D-04
 Coeff:     -0.131D-03 0.387D-03 0.112D-02 0.720D-03-0.776D-02-0.400D-01
 Coeff:     -0.409D-01 0.381D+00 0.706D+00
 Gap=     0.310 Goal=   None    Shift=    0.000
 RMSDP=7.09D-09 MaxDP=5.06D-07 DE=-2.73D-12 OVMax= 1.01D-07

 SCF Done:  E(RwB97XD) =  -3010.28053507     A.U. after   15 cycles
            NFock= 15  Conv=0.71D-08     -V/T= 2.0015
[...]
 ! D7    D(5,1,4,10)          -179.9995         -DE/DX =    0.0                 !
 ! D8    D(5,1,4,14)             0.0004         -DE/DX =    0.0                 !
 ! D9    D(1,2,3,7)            179.9985         -DE/DX =    0.0                 !
 ! D10   D(1,2,3,12)             0.0015         -DE/DX =    0.0                 !
 ! D11   D(6,2,3,7)             -0.0015         -DE/DX =    0.0                 !
 ! D12   D(6,2,3,12)          -179.9986         -DE/DX =    0.0                 !
 ! D13   D(2,3,7,8)           -179.9816         -DE/DX =    0.0                 !
 ! D14   D(2,3,7,9)              0.0181         -DE/DX =    0.0                 !
 ! D15   D(12,3,7,8)             0.0155         -DE/DX =    0.0                 !
 ! D16   D(12,3,7,9)          -179.9847         -DE/DX =    0.0                 !
 ! D17   D(2,3,12,10)           -0.0028         -DE/DX =    0.0                 !
 ! D18   D(2,3,12,13)          179.9969         -DE/DX =    0.0                 !
 ! D19   D(7,3,12,10)         -179.9998         -DE/DX =    0.0                 !
 ! D20   D(7,3,12,13)           -0.0002         -DE/DX =    0.0                 !
 ! D21   D(1,4,10,11)         -180.0003         -DE/DX =    0.0                 !
 ! D22   D(1,4,10,12)           -0.001          -DE/DX =    0.0                 !
 ! D23   D(14,4,10,11)          -0.0002         -DE/DX =    0.0                 !
 ! D24   D(14,4,10,12)        -180.0009         -DE/DX =    0.0                 !
 ! D25   D(4,10,12,3)            0.0025         -DE/DX =    0.0                 !
 ! D26   D(4,10,12,13)        -179.9971         -DE/DX =    0.0                 !
 ! D27   D(11,10,12,3)        -179.9983         -DE/DX =    0.0                 !
 ! D28   D(11,10,12,13)          0.0021         -DE/DX =    0.0                 !
 --------------------------------------------------------------------------------
 Lowest energy point so far.  Saving SCF results.
 Largest change from initial coordinates is atom   13       0.032 Angstoms.
 GradGradGradGradGradGradGradGradGradGradGradGradGradGradGradGradGradGrad

 Leave Link  103 at Mon May 22 12:38:08 2023, MaxMem=  1610612736 cpu:               0.2 elap:               0.0
 (Enter /software/gaussian/g16-c01/avx2/g16/l202.exe)
                          Input orientation:                          
 ---------------------------------------------------------------------
 Center     Atomic      Atomic             Coordinates (Angstroms)
 Number     Number       Type             X           Y           Z
 ---------------------------------------------------------------------
      1          6           0        0.774466    1.247041    0.026692
      2          6           0        2.161040    1.237372    0.006968
      3          6           0        2.822559    0.019276   -0.010086
      4          6           0        0.083692    0.039972    0.028886
      5          1           0        0.236980    2.187036    0.040246
      6          1           0        2.726321    2.160037    0.004763
      7          7           0        4.296583    0.008132   -0.031094
      8          8           0        4.849956   -1.072926   -0.046095
      9          8           0        4.866444    1.080693   -0.032105
     10          6           0        0.755952   -1.177424    0.011680
     11          1           0        0.204096   -2.109153    0.013643
     12          6           0        2.142488   -1.188720   -0.008081
     13          1           0        2.693578   -2.119827   -0.021811
     14         35           0       -1.809091    0.054205    0.055829
 ---------------------------------------------------------------------
                    Distance matrix (angstroms):
                    1          2          3          4          5
     1  C    0.000000
     2  C    1.386749   0.000000
     3  C    2.388189   1.386238   0.000000
     4  C    1.390751   2.397838   2.739223   0.000000
     5  H    1.082897   2.145921   3.374454   2.152560   0.000000
     6  H    2.154944   1.082062   2.142975   3.388030   2.489741
     7  N    3.734106   2.464351   1.474216   4.213439   4.607939
     8  O    4.690114   3.545499   2.303159   4.895042   5.649280
     9  O    4.095780   2.710219   2.303162   4.895053   4.760375
    10  C    2.424582   2.793839   2.388185   1.390785   3.404371
    11  H    3.404340   3.876714   3.374481   2.152549   4.296398
    12  C    2.793855   2.426210   1.386273   2.397852   3.876729
    13  H    3.875712   3.399296   2.143020   3.388039   4.958609
    14  Br   2.845781   4.142972   4.632251   1.893028   2.955608
                    6          7          8          9         10
     6  H    0.000000
     7  N    2.664152   0.000000
     8  O    3.868393   1.214550   0.000000
     9  O    2.397179   1.214549   2.153728   0.000000
    10  C    3.875700   3.734092   4.095745   4.690112   0.000000
    11  H    4.958597   4.607966   4.760394   5.649310   1.082898
    12  C    3.399294   2.464368   2.710209   3.545525   1.386723
    13  H    4.280072   2.664192   2.397197   3.868434   2.154910
    14  Br   5.000710   6.106467   6.754533   6.754567   2.845753
                   11         12         13         14
    11  H    0.000000
    12  C    2.145934   0.000000
    13  H    2.489757   1.082058   0.000000
    14  Br   2.955474   4.142937   5.000648   0.000000
 Stoichiometry    C6H4BrNO2
 Framework group  C1[X(C6H4BrNO2)]
 Deg. of freedom    36
 Full point group                 C1      NOp   1
 RotChk:  IX=3 Diff= 7.40D-16
 Largest Abelian subgroup         C1      NOp   1
 Largest concise Abelian subgroup C1      NOp   1
                         Standard orientation:                         
 ---------------------------------------------------------------------
 Center     Atomic      Atomic             Coordinates (Angstroms)
 Number     Number       Type             X           Y           Z
 ---------------------------------------------------------------------
      1          6           0        0.283716   -1.212312   -0.000096
      2          6           0       -1.103033   -1.213106   -0.000085
      3          6           0       -1.773899   -0.000013    0.000024
      4          6           0        0.965324   -0.000041    0.000002
      5          1           0        0.828417   -2.148243   -0.000169
      6          1           0       -1.661310   -2.140028   -0.000158
      7          7           0       -3.248115    0.000009    0.000002
      8          8           0       -3.809785    1.076884   -0.000247
      9          8           0       -3.809823   -1.076844    0.000230
     10          6           0        0.283721    1.212271    0.000106
     11          1           0        0.828504    2.148155    0.000186
     12          6           0       -1.103002    1.213104    0.000090
     13          1           0       -1.661240    2.140044    0.000123
     14         35           0        2.858352    0.000008   -0.000003
 ---------------------------------------------------------------------
 Rotational constants (GHZ):           4.0039522           0.3770983           0.3446396
 Leave Link  202 at Mon May 22 12:38:08 2023, MaxMem=  1610612736 cpu:               0.1 elap:               0.0
 (Enter /software/gaussian/g16-c01/avx2/g16/l601.exe)
 Copying SCF densities to generalized density rwf, IOpCl= 0 IROHF=0.

 **********************************************************************

            Population analysis using the SCF Density.

 **********************************************************************

 Orbital symmetries:
       Occupied  (A) (A) (A) (A) (A) (A) (A) (A) (A) (A) (A) (A)
                 (A) (A) (A) (A) (A) (A) (A) (A) (A) (A) (A) (A)
                 (A) (A) (A) (A) (A) (A) (A) (A) (A) (A) (A) (A)
                 (A) (A) (A) (A) (A) (A) (A) (A) (A) (A) (A) (A)
                 (A)
       Virtual   (A) (A) (A) (A) (A) (A) (A) (A) (A) (A) (A) (A)
                 (A) (A) (A) (A) (A) (A) (A) (A) (A) (A) (A) (A)
                 (A) (A) (A) (A) (A) (A) (A) (A) (A) (A) (A) (A)
                 (A) (A) (A) (A) (A) (A) (A) (A) (A) (A) (A) (A)
                 (A) (A) (A) (A) (A) (A) (A) (A) (A) (A) (A) (A)
                 (A) (A) (A) (A) (A) (A) (A) (A) (A) (A) (A) (A)
                 (A) (A) (A) (A) (A) (A) (A) (A) (A) (A) (A) (A)
                 (A) (A) (A) (A) (A) (A) (A) (A) (A) (A) (A) (A)
                 (A) (A) (A) (A) (A) (A) (A) (A) (A) (A) (A) (A)
                 (A) (A) (A) (A) (A) (A) (A) (A) (A) (A) (A) (A)
                 (A) (A) (A) (A) (A) (A) (A) (A) (A) (A) (A) (A)
                 (A) (A) (A) (A) (A) (A) (A) (A) (A) (A) (A) (A)
                 (A) (A) (A) (A) (A) (A) (A) (A) (A) (A) (A) (A)
                 (A) (A) (A) (A) (A) (A) (A) (A) (A) (A) (A) (A)
                 (A) (A) (A) (A) (A) (A) (A) (A) (A) (A) (A) (A)
                 (A) (A) (A) (A) (A) (A) (A) (A) (A) (A) (A) (A)
                 (A) (A) (A) (A) (A) (A) (A) (A) (A) (A) (A) (A)
                 (A) (A) (A) (A) (A)
 The electronic state is 1-A.
 Alpha  occ. eigenvalues -- -483.12838 -62.67952 -56.47519 -56.47129 -56.47113
 Alpha  occ. eigenvalues --  -19.29658 -19.29654 -14.69455 -10.38398 -10.37178
 Alpha  occ. eigenvalues --  -10.33861 -10.33859 -10.33540 -10.33539  -8.83852
 Alpha  occ. eigenvalues --   -6.66201  -6.64859  -6.64822  -2.76211  -2.75824
 Alpha  occ. eigenvalues --   -2.75798  -2.74720  -2.74719  -1.36446  -1.18521
 Alpha  occ. eigenvalues --   -1.02673  -0.95837  -0.90077  -0.89298  -0.80102
 Alpha  occ. eigenvalues --   -0.75665  -0.70986  -0.67715  -0.65313  -0.62829
 Alpha  occ. eigenvalues --   -0.59741  -0.59197  -0.57702  -0.55929  -0.51638
 Alpha  occ. eigenvalues --   -0.48422  -0.48115  -0.43147  -0.41562  -0.41470
 Alpha  occ. eigenvalues --   -0.40228  -0.39443  -0.37816  -0.35402
 Alpha virt. eigenvalues --   -0.04121   0.01461   0.03851   0.04511   0.04742
 Alpha virt. eigenvalues --    0.06686   0.07715   0.08844   0.08915   0.09525
 Alpha virt. eigenvalues --    0.10769   0.12148   0.12508   0.13118   0.13143
 Alpha virt. eigenvalues --    0.14743   0.16424   0.17637   0.18055   0.18081
 Alpha virt. eigenvalues --    0.18213   0.19043   0.19149   0.20134   0.20559
 Alpha virt. eigenvalues --    0.21094   0.22502   0.23625   0.23910   0.23949
 Alpha virt. eigenvalues --    0.24782   0.25212   0.25425   0.26277   0.26398
 Alpha virt. eigenvalues --    0.27483   0.28353   0.29115   0.29865   0.30482
 Alpha virt. eigenvalues --    0.32181   0.32441   0.33193   0.33263   0.34367
 Alpha virt. eigenvalues --    0.35851   0.36932   0.37978   0.38935   0.39529
 Alpha virt. eigenvalues --    0.42638   0.45415   0.46409   0.48200   0.48232
 Alpha virt. eigenvalues --    0.48359   0.50535   0.52111   0.54191   0.56159
 Alpha virt. eigenvalues --    0.57738   0.57756   0.58235   0.60129   0.61332
 Alpha virt. eigenvalues --    0.63715   0.65378   0.65722   0.66192   0.66275
 Alpha virt. eigenvalues --    0.67601   0.69951   0.70213   0.71265   0.73137
 Alpha virt. eigenvalues --    0.74686   0.77228   0.78617   0.79610   0.80358
 Alpha virt. eigenvalues --    0.80714   0.84186   0.87765   0.89195   0.89865
 Alpha virt. eigenvalues --    0.91793   0.93034   0.93742   0.94515   0.96188
 Alpha virt. eigenvalues --    0.97568   1.02496   1.04207   1.05274   1.05434
 Alpha virt. eigenvalues --    1.10418   1.11202   1.13656   1.14690   1.18473
 Alpha virt. eigenvalues --    1.22066   1.23460   1.26084   1.26141   1.26234
 Alpha virt. eigenvalues --    1.28738   1.29616   1.32537   1.33272   1.39306
 Alpha virt. eigenvalues --    1.40552   1.47474   1.55952   1.57825   1.59628
 Alpha virt. eigenvalues --    1.66124   1.74570   1.74774   1.76491   1.78177
 Alpha virt. eigenvalues --    1.83510   1.84863   1.88703   1.89216   1.92904
 Alpha virt. eigenvalues --    1.95174   1.96638   1.98207   2.05276   2.06305
 Alpha virt. eigenvalues --    2.09223   2.09997   2.18915   2.20854   2.21270
 Alpha virt. eigenvalues --    2.25792   2.29192   2.38915   2.39112   2.39246
 Alpha virt. eigenvalues --    2.44084   2.44861   2.48531   2.54944   2.62978
 Alpha virt. eigenvalues --    2.70551   2.71289   2.74293   2.81821   2.82507
 Alpha virt. eigenvalues --    2.86455   2.89416   2.92175   2.94828   2.95508
 Alpha virt. eigenvalues --    2.96692   2.97365   3.12536   3.13109   3.19807
 Alpha virt. eigenvalues --    3.24794   3.33968   3.33970   3.38349   3.39356
 Alpha virt. eigenvalues --    3.44189   3.47530   3.49060   3.56158   3.69952
 Alpha virt. eigenvalues --    3.70763   3.78070   3.78279   3.89556   3.91270
 Alpha virt. eigenvalues --    4.04783   4.08588   4.23240   4.28043   4.30780
 Alpha virt. eigenvalues --    4.47012   4.63791   4.64950   4.79897   4.85501
 Alpha virt. eigenvalues --    5.08882   5.12054   5.19696   5.26900   5.82944
 Alpha virt. eigenvalues --    6.37531   6.82933   7.63943   7.76731   7.82124
 Alpha virt. eigenvalues --   23.40185  23.94722  23.95244  24.12997  24.15884
 Alpha virt. eigenvalues --   24.25280  35.53694  48.09196  50.02548  50.14235
 Alpha virt. eigenvalues --  289.97671 290.10588 290.183831021.09538
          Condensed to atoms (all electrons):
               1          2          3          4          5          6
     1  C    9.588961  -0.895061  -0.880987   0.260524   0.255974   0.026999
     2  C   -0.895061  11.950426  -0.678842  -0.525799   0.027590   0.239117
     3  C   -0.880987  -0.678842  12.308393  -1.448950   0.036629   0.119667
     4  C    0.260524  -0.525799  -1.448950   7.675622   0.012716  -0.011626
     5  H    0.255974   0.027590   0.036629   0.012716   0.394494  -0.002991
     6  H    0.026999   0.239117   0.119667  -0.011626  -0.002991   0.367839
     7  N   -0.028443   0.174793  -0.743443   0.019943  -0.001472  -0.031928
     8  O    0.007553  -0.010205  -0.386593  -0.011943  -0.000014  -0.001932
     9  O    0.231765   0.043917  -0.386627  -0.011936   0.000119   0.016972
    10  C   -0.818893  -1.236623  -0.880960   0.260772  -0.019272   0.000561
    11  H   -0.019281   0.022491   0.036628   0.012692  -0.000059   0.000011
    12  C   -1.236544  -3.354371  -0.677967  -0.525693   0.022485  -0.017934
    13  H    0.000563  -0.017933   0.119674  -0.011629   0.000011  -0.000073
    14  Br   0.225392   0.043393   0.058540  -0.452434  -0.010832   0.000620
               7          8          9         10         11         12
     1  C   -0.028443   0.007553   0.231765  -0.818893  -0.019281  -1.236544
     2  C    0.174793  -0.010205   0.043917  -1.236623   0.022491  -3.354371
     3  C   -0.743443  -0.386593  -0.386627  -0.880960   0.036628  -0.677967
     4  C    0.019943  -0.011943  -0.011936   0.260772   0.012692  -0.525693
     5  H   -0.001472  -0.000014   0.000119  -0.019272  -0.000059   0.022485
     6  H   -0.031928  -0.001932   0.016972   0.000561   0.000011  -0.017934
     7  N    7.101763   0.261164   0.261168  -0.028444  -0.001472   0.174873
     8  O    0.261164   7.905810  -0.027144   0.231785   0.000119   0.043864
     9  O    0.261168  -0.027144   7.905813   0.007552  -0.000014  -0.010216
    10  C   -0.028444   0.231785   0.007552   9.589102   0.255977  -0.895467
    11  H   -0.001472   0.000119  -0.000014   0.255977   0.394495   0.027612
    12  C    0.174873   0.043864  -0.010216  -0.895467   0.027612  11.949788
    13  H   -0.031926   0.016970  -0.001932   0.026997  -0.002991   0.239113
    14  Br  -0.000046   0.000638   0.000638   0.225434  -0.010834   0.043396
              13         14
     1  C    0.000563   0.225392
     2  C   -0.017933   0.043393
     3  C    0.119674   0.058540
     4  C   -0.011629  -0.452434
     5  H    0.000011  -0.010832
     6  H   -0.000073   0.000620
     7  N   -0.031926  -0.000046
     8  O    0.016970   0.000638
     9  O   -0.001932   0.000638
    10  C    0.026997   0.225434
    11  H   -0.002991  -0.010834
    12  C    0.239113   0.043396
    13  H    0.367840   0.000620
    14  Br   0.000620  35.007147
 Mulliken charges:
               1
     1  C   -0.718523
     2  C    0.217107
     3  C   -0.595162
     4  C    0.757741
     5  H    0.284624
     6  H    0.294696
     7  N   -0.126531
     8  O   -0.030071
     9  O   -0.030074
    10  C   -0.718519
    11  H    0.284625
    12  C    0.217062
    13  H    0.294695
    14  Br  -0.131670
 Sum of Mulliken charges =  -0.00000
 Mulliken charges with hydrogens summed into heavy atoms:
               1
     1  C   -0.433899
     2  C    0.511802
     3  C   -0.595162
     4  C    0.757741
     7  N   -0.126531
     8  O   -0.030071
     9  O   -0.030074
    10  C   -0.433894
    12  C    0.511758
    14  Br  -0.131670
 Electronic spatial extent (au):  <R**2>=           2706.3414
 Charge=              0.0000 electrons
 Dipole moment (field-independent basis, Debye):
    X=              3.2943    Y=             -0.0001    Z=              0.0000  Tot=              3.2943
 Quadrupole moment (field-independent basis, Debye-Ang):
   XX=            -89.4780   YY=            -63.8483   ZZ=            -70.7100
   XY=              0.0003   XZ=             -0.0001   YZ=              0.0019
 Traceless Quadrupole moment (field-independent basis, Debye-Ang):
   XX=            -14.7992   YY=             10.8305   ZZ=              3.9687
   XY=              0.0003   XZ=             -0.0001   YZ=              0.0019
 Octapole moment (field-independent basis, Debye-Ang**2):
  XXX=            167.0130  YYY=             -0.0005  ZZZ=             -0.0003  XYY=             28.5731
  XXY=              0.0004  XXZ=              0.0004  XZZ=             16.4654  YZZ=              0.0001
  YYZ=             -0.0002  XYZ=             -0.0042
 Hexadecapole moment (field-independent basis, Debye-Ang**3):
 XXXX=          -2879.6484 YYYY=           -356.2351 ZZZZ=            -76.3551 XXXY=              0.0041
 XXXZ=             -0.0024 YYYX=              0.0011 YYYZ=              0.0046 ZZZX=              0.0002
 ZZZY=             -0.0022 XXYY=           -522.1906 XXZZ=           -423.9627 YYZZ=            -85.1984
 XXYZ=              0.0155 YYXZ=              0.0004 ZZXY=              0.0001
 N-N= 7.021254134685D+02 E-N=-8.575534882993D+03  KE= 3.005908136803D+03
 No NMR shielding tensors so no spin-rotation constants.
 Leave Link  601 at Mon May 22 12:38:08 2023, MaxMem=  1610612736 cpu:               1.5 elap:               0.2
 (Enter /software/gaussian/g16-c01/avx2/g16/l9999.exe)
 Unable to Open any file for archive entry.
 1\1\GINC-BHD0007\FOpt\RwB97XD\6-311+G(d)\C6H4Br1N1O2\BWEIGHT\22-May-20
 23\0\\#P OPT wB97XD/6-311+G*\\TitleMe\\0,1\C,0.7744655723,1.2470410815
 ,0.0266919569\C,2.1610401903,1.2373723799,0.0069677668\C,2.822559089,0
 .0192762017,-0.0100860619\C,0.0836917608,0.0399718002,0.0288862204\H,0
 .2369796421,2.1870363903,0.0402464381\H,2.7263211655,2.1600374854,0.00
 47634413\N,4.2965833593,0.0081316417,-0.0310938642\O,4.8499559262,-1.0
 729262244,-0.0460953208\O,4.8664439214,1.0806932274,-0.0321050586\C,0.
 7559522394,-1.1774242341,0.0116803338\H,0.20409636,-2.1091534246,0.013
 6432865\C,2.1424884777,-1.1887195894,-0.0080809287\H,2.6935782861,-2.1
 198268828,-0.0218114056\Br,-1.8090911102,0.0542053772,0.055829096\\Ver
 sion=ES64L-G16RevC.01\State=1-A\HF=-3010.2813863\RMSD=3.404e-09\RMSF=6
 .185e-06\Dipole=-1.2959243,0.0098159,0.0184528\Quadrupole=-10.9989353,
 8.050927,2.9480082,0.1444381,0.198887,0.029104\PG=C01 [X(C6H4Br1N1O2)]
 \\@
 The archive entry for this job was punched.


 Human beings, who are almost unique in having the
 ability to learn from the experience of others, are
 also remarkable for their apparent disinclination to do so.
                               -- Douglas Adams,
                                Last Chance to See
 Job cpu time:       0 days  1 hours  2 minutes 49.6 seconds.
 Elapsed time:       0 days  0 hours  5 minutes 16.9 seconds.
 File lengths (MBytes):  RWF=     46 Int=      0 D2E=      0 Chk=     32 Scr=      1
 Normal termination of Gaussian 16 at Mon May 22 12:38:09 2023.
