 Entering Gaussian System, Link 0=g16
 Initial command:
 /software/gaussian/g16-c01/sse4/g16/l1.exe "/local_scratch/24665370/Gau-25842.inp" -scrdir="/local_scratch/24665370/"
 Entering Link 1 = /software/gaussian/g16-c01/sse4/g16/l1.exe PID=     25890.
  
 Copyright (c) 1988-2019, Gaussian, Inc.  All Rights Reserved.
  
 This is part of the Gaussian(R) 16 program.  It is based on
 the Gaussian(R) 09 system (copyright 2009, Gaussian, Inc.),
 the Gaussian(R) 03 system (copyright 2003, Gaussian, Inc.),
 the Gaussian(R) 98 system (copyright 1998, Gaussian, Inc.),
 the Gaussian(R) 94 system (copyright 1995, Gaussian, Inc.),
 the Gaussian 92(TM) system (copyright 1992, Gaussian, Inc.),
 the Gaussian 90(TM) system (copyright 1990, Gaussian, Inc.),
 the Gaussian 88(TM) system (copyright 1988, Gaussian, Inc.),
 the Gaussian 86(TM) system (copyright 1986, Carnegie Mellon
 University), and the Gaussian 82(TM) system (copyright 1983,
 Carnegie Mellon University). Gaussian is a federally registered
 trademark of Gaussian, Inc.
  
 This software contains proprietary and confidential information,
 including trade secrets, belonging to Gaussian, Inc.
  
 This software is provided under written license and may be
 used, copied, transmitted, or stored only in accord with that
 written license.
  
 The following legend is applicable only to US Government
 contracts under FAR:
  
                    RESTRICTED RIGHTS LEGEND
  
 Use, reproduction and disclosure by the US Government is
 subject to restrictions as set forth in subparagraphs (a)
 and (c) of the Commercial Computer Software - Restricted
 Rights clause in FAR 52.227-19.
  
 Gaussian, Inc.
 340 Quinnipiac St., Bldg. 40, Wallingford CT 06492
  
  
 ---------------------------------------------------------------
 Warning -- This program may not be used in any manner that
 competes with the business of Gaussian, Inc. or will provide
 assistance to any competitor of Gaussian, Inc.  The licensee
 of this program is prohibited from giving any competitor of
 Gaussian, Inc. access to this program.  By using this program,
 the user acknowledges that Gaussian, Inc. is engaged in the
 business of creating and licensing software in the field of
 computational chemistry and represents and warrants to the
 licensee that it is not a competitor of Gaussian, Inc. and that
 it will not use this program in any manner prohibited above.
 ---------------------------------------------------------------
  

 Cite this work as:
 Gaussian 16, Revision C.01,
 M. J. Frisch, G. W. Trucks, H. B. Schlegel, G. E. Scuseria, 
 M. A. Robb, J. R. Cheeseman, G. Scalmani, V. Barone, 
 G. A. Petersson, H. Nakatsuji, X. Li, M. Caricato, A. V. Marenich, 
 J. Bloino, B. G. Janesko, R. Gomperts, B. Mennucci, H. P. Hratchian, 
 J. V. Ortiz, A. F. Izmaylov, J. L. Sonnenberg, D. Williams-Young, 
 F. Ding, F. Lipparini, F. Egidi, J. Goings, B. Peng, A. Petrone, 
 T. Henderson, D. Ranasinghe, V. G. Zakrzewski, J. Gao, N. Rega, 
 G. Zheng, W. Liang, M. Hada, M. Ehara, K. Toyota, R. Fukuda, 
 J. Hasegawa, M. Ishida, T. Nakajima, Y. Honda, O. Kitao, H. Nakai, 
 T. Vreven, K. Throssell, J. A. Montgomery, Jr., J. E. Peralta, 
 F. Ogliaro, M. J. Bearpark, J. J. Heyd, E. N. Brothers, K. N. Kudin, 
 V. N. Staroverov, T. A. Keith, R. Kobayashi, J. Normand, 
 K. Raghavachari, A. P. Rendell, J. C. Burant, S. S. Iyengar, 
 J. Tomasi, M. Cossi, J. M. Millam, M. Klene, C. Adamo, R. Cammi, 
 J. W. Ochterski, R. L. Martin, K. Morokuma, O. Farkas, 
 J. B. Foresman, and D. J. Fox, Gaussian, Inc., Wallingford CT, 2019.
 
 ******************************************
 Gaussian 16:  ES64L-G16RevC.01  3-Jul-2019
                 2-May-2024 
 ******************************************
 %chk=geometry.chk
 %mem=1GB
 %nprocshared=12
 Will use up to   12 processors via shared memory.
 ----------------------------------------
 #P wB97XD/6-311+G* NoSymm #P Field=Z-126
 ----------------------------------------
 1/38=1,172=1/1;
 2/12=2,15=1,17=6,18=5,40=1/2;
 3/5=4,6=6,7=11,11=2,14=3,15=-126,25=1,30=1,74=-58/1,2,3;
 4//1;
 5/5=2,38=5/2;
 6/7=2,8=2,9=2,10=2,28=1/1;
 99/5=1,9=1/99;
 Leave Link    1 at Thu May  2 13:58:19 2024, MaxMem=   134217728 cpu:               2.1 elap:               2.1
 (Enter /software/gaussian/g16-c01/sse4/g16/l101.exe)
 -------
 TitleMe
 -------
 Symbolic Z-matrix:
 Charge =  1 Multiplicity = 1
 C                     0.5193    1.233    -0.0319 
 C                     1.9445    1.2692   -0.0367 
 C                     2.6204    0.0928   -0.025 
 C                    -0.196     0.0301    0.001 
 H                    -0.0207    2.1742   -0.0434 
 H                     2.4828    2.2089   -0.0361 
 H                    -1.2777    0.0399    0.0117 
 N                     4.0921    0.0959    0.0366 
 O                     4.6393   -1.0217    0.1446 
 O                     4.6649    1.1984   -0.0233 
 C                     0.4943   -1.1671    0.021 
 H                    -0.0325   -2.1149    0.0545 
 C                     1.9629   -1.2165   -0.0211 
 H                     2.4436   -1.9631    0.6151 
 Br                    2.173    -1.9491   -1.9062 
 
 ITRead=  0  0  0  0  0  0  0  0  0  0  0  0  0  0  0
 MicOpt= -1 -1 -1 -1 -1 -1 -1 -1 -1 -1 -1 -1 -1 -1 -1
 NAtoms=     15 NQM=       15 NQMF=       0 NMMI=      0 NMMIF=      0
                NMic=       0 NMicF=      0.
                    Isotopes and Nuclear Properties:
 (Nuclear quadrupole moments (NQMom) in fm**2, nuclear magnetic moments (NMagM)
  in nuclear magnetons)

  Atom         1           2           3           4           5           6           7           8           9          10
 IAtWgt=          12          12          12          12           1           1           1          14          16          16
 AtmWgt=  12.0000000  12.0000000  12.0000000  12.0000000   1.0078250   1.0078250   1.0078250  14.0030740  15.9949146  15.9949146
 NucSpn=           0           0           0           0           1           1           1           2           0           0
 AtZEff=  -0.0000000  -0.0000000  -0.0000000  -0.0000000  -0.0000000  -0.0000000  -0.0000000  -0.0000000  -0.0000000  -0.0000000
 NQMom=    0.0000000   0.0000000   0.0000000   0.0000000   0.0000000   0.0000000   0.0000000   2.0440000   0.0000000   0.0000000
 NMagM=    0.0000000   0.0000000   0.0000000   0.0000000   2.7928460   2.7928460   2.7928460   0.4037610   0.0000000   0.0000000
 AtZNuc=   6.0000000   6.0000000   6.0000000   6.0000000   1.0000000   1.0000000   1.0000000   7.0000000   8.0000000   8.0000000

  Atom        11          12          13          14          15
 IAtWgt=          12           1          12           1          79
 AtmWgt=  12.0000000   1.0078250  12.0000000   1.0078250  78.9183361
 NucSpn=           0           1           0           1           3
 AtZEff=  -0.0000000  -0.0000000  -0.0000000  -0.0000000  -0.0000000
 NQMom=    0.0000000   0.0000000   0.0000000   0.0000000  31.3000000
 NMagM=    0.0000000   2.7928460   0.0000000   2.7928460   2.1063990
 AtZNuc=   6.0000000   1.0000000   6.0000000   1.0000000  35.0000000
 Leave Link  101 at Thu May  2 13:58:21 2024, MaxMem=   134217728 cpu:               1.4 elap:               1.4
 (Enter /software/gaussian/g16-c01/sse4/g16/l202.exe)
                          Input orientation:                          
 ---------------------------------------------------------------------
 Center     Atomic      Atomic             Coordinates (Angstroms)
 Number     Number       Type             X           Y           Z
 ---------------------------------------------------------------------
      1          6           0        0.519300    1.233000   -0.031900
      2          6           0        1.944500    1.269200   -0.036700
      3          6           0        2.620400    0.092800   -0.025000
      4          6           0       -0.196000    0.030100    0.001000
      5          1           0       -0.020700    2.174200   -0.043400
      6          1           0        2.482800    2.208900   -0.036100
      7          1           0       -1.277700    0.039900    0.011700
      8          7           0        4.092100    0.095900    0.036600
      9          8           0        4.639300   -1.021700    0.144600
     10          8           0        4.664900    1.198400   -0.023300
     11          6           0        0.494300   -1.167100    0.021000
     12          1           0       -0.032500   -2.114900    0.054500
     13          6           0        1.962900   -1.216500   -0.021100
     14          1           0        2.443600   -1.963100    0.615100
     15         35           0        2.173000   -1.949100   -1.906200
 ---------------------------------------------------------------------
                    Distance matrix (angstroms):
                    1          2          3          4          5
     1  C    0.000000
     2  C    1.425668   0.000000
     3  C    2.390549   1.356796   0.000000
     4  C    1.399895   2.473566   2.817218   0.000000
     5  H    1.085168   2.163581   3.362733   2.151712   0.000000
     6  H    2.192654   1.082960   2.120598   3.453189   2.503751
     7  H    2.157452   3.449071   3.898632   1.081797   2.477564
     8  N    3.750012   2.448304   1.472992   4.288753   4.608780
     9  O    4.699917   3.541615   2.312322   4.950458   5.653735
    10  O    4.145753   2.721354   2.324292   4.999386   4.786171
    11  C    2.400813   2.835836   2.471794   1.382101   3.381369
    12  H    3.394169   3.920329   3.452266   2.151887   4.290233
    13  C    2.843264   2.485817   1.465124   2.493060   3.928360
    14  H    3.786370   3.334922   2.160489   3.364142   4.860416
    15  Br   4.046416   3.728900   2.812194   3.628609   5.028314
                    6          7          8          9         10
     6  H    0.000000
     7  H    4.341452   0.000000
     8  N    2.657047   5.370150   0.000000
     9  O    3.888434   6.012948   1.249048   0.000000
    10  O    2.404752   6.054572   1.243863   2.226587   0.000000
    11  C    3.918516   2.144043   3.813080   4.149391   4.794941
    12  H    5.003018   2.489080   4.679774   4.798846   5.748876
    13  C    3.464662   3.475788   2.501842   2.688591   3.623886
    14  H    4.222698   4.268978   2.700314   2.434893   3.916224
    15  Br   4.569706   4.420610   3.411663   3.338935   4.434144
                   11         12         13         14         15
    11  C    0.000000
    12  H    1.084880   0.000000
    13  C    1.470034   2.189625   0.000000
    14  H    2.187771   2.543302   1.092353   0.000000
    15  Br   2.672762   2.955683   2.033334   2.535818   0.000000
 Symmetry turned off by external request.
 Stoichiometry    C6H5BrNO2(1+)
 Framework group  C1[X(C6H5BrNO2)]
 Deg. of freedom    39
 Full point group                 C1      NOp   1
 Rotational constants (GHZ):           1.1632986           0.9594224           0.5957624
 Leave Link  202 at Thu May  2 13:58:22 2024, MaxMem=   134217728 cpu:               1.3 elap:               1.3
 (Enter /software/gaussian/g16-c01/sse4/g16/l301.exe)
 Standard basis: 6-311+G(d) (5D, 7F)
 Ernie: Thresh=  0.10000D-02 Tol=  0.10000D-05 Strict=F.
 The following finite field(s) will be applied:
 An electric field of              0.0000  0.0000 -0.0126
   261 basis functions,   443 primitive gaussians,   273 cartesian basis functions
    49 alpha electrons       49 beta electrons
       nuclear repulsion energy       772.8945969580 Hartrees.
 IExCor= 4639 DFT=T Ex+Corr=wB97XD ExCW=0 ScaHFX=  1.000000
 ScaDFX=  1.000000  1.000000  1.000000  1.000000 ScalE2=  1.000000  1.000000
 IRadAn=      5 IRanWt=     -1 IRanGd=            0 ICorTp=0 IEmpDi=121
 HFx  wShort=  0.000000 wLong=  0.200000 cFull=  0.222036 cShort=  0.000000 cLong=  0.777964
 DFx  wShort=  0.000000 wLong=  0.200000 cFull=  0.000000 cShort=  0.000000 cLong=  1.000000
 NAtoms=   15 NActive=   15 NUniq=   15 SFac= 1.00D+00 NAtFMM=   60 NAOKFM=F Big=F
 Integral buffers will be    131072 words long.
 Raffenetti 2 integral format.
 Two-electron integral symmetry is turned off.
 R6Disp:  Grimme-D2 Dispersion energy=       -0.0080346408 Hartrees.
 Nuclear repulsion after empirical dispersion term =      772.8865623173 Hartrees.
 Leave Link  301 at Thu May  2 13:58:24 2024, MaxMem=   134217728 cpu:               1.0 elap:               1.0
 (Enter /software/gaussian/g16-c01/sse4/g16/l302.exe)
 NPDir=0 NMtPBC=     1 NCelOv=     1 NCel=       1 NClECP=     1 NCelD=      1
         NCelK=      1 NCelE2=     1 NClLst=     1 CellRange=     0.0.
 One-electron integrals computed using PRISM.
 NBasis=   261 RedAO= T EigKep=  2.52D-06  NBF=   261
 NBsUse=   261 1.00D-06 EigRej= -1.00D+00 NBFU=   261
 Precomputing XC quadrature grid using
 IXCGrd= 4 IRadAn=           5 IRanWt=          -1 IRanGd=           0 AccXCQ= 0.00D+00.
 Generated NRdTot=       0 NPtTot=           0 NUsed=           0 NTot=          32
 NSgBfM=   273   273   273   273   273 MxSgAt=    15 MxSgA2=    15.
 Leave Link  302 at Thu May  2 13:58:46 2024, MaxMem=   134217728 cpu:              21.9 elap:              21.9
 (Enter /software/gaussian/g16-c01/sse4/g16/l303.exe)
 DipDrv:  MaxL=1.
 The nuclear repulsion energy is now       774.4448389456 hartrees.
 Leave Link  303 at Thu May  2 13:58:50 2024, MaxMem=   134217728 cpu:               3.3 elap:               3.3
 (Enter /software/gaussian/g16-c01/sse4/g16/l401.exe)
 ExpMin= 3.50D-02 ExpMax= 4.40D+05 ExpMxC= 1.51D+04 IAcc=3 IRadAn=         5 AccDes= 0.00D+00
 Harris functional with IExCor= 4639 and IRadAn=       5 diagonalized for initial guess.
 HarFok:  IExCor= 4639 AccDes= 0.00D+00 IRadAn=         5 IDoV= 1 UseB2=F ITyADJ=14
 ICtDFT=  3500011 ScaDFX=  1.000000  1.000000  1.000000  1.000000
 FoFCou: FMM=F IPFlag=           0 FMFlag=      100000 FMFlg1=           0
         NFxFlg=           0 DoJE=T BraDBF=F KetDBF=T FulRan=T
         wScrn=  0.000000 ICntrl=       500 IOpCl=  0 I1Cent=   200000004 NGrid=           0
         NMat0=    1 NMatS0=      1 NMatT0=    0 NMatD0=    1 NMtDS0=    0 NMtDT0=    0
 Symmetry not used in FoFCou.
 Harris En= -2970.61532973590    
 JPrj=0 DoOrth=F DoCkMO=F.
 Leave Link  401 at Thu May  2 13:59:21 2024, MaxMem=   134217728 cpu:              31.4 elap:              31.4
 (Enter /software/gaussian/g16-c01/sse4/g16/l502.exe)
 Two-electron integral symmetry not used.
 Closed shell SCF:
 Using DIIS extrapolation, IDIIS=  1040.
 NGot=   134217728 LenX=   134063053 LenY=   133988083
 Requested convergence on RMS density matrix=1.00D-08 within 128 cycles.
 Requested convergence on MAX density matrix=1.00D-06.
 Requested convergence on             energy=1.00D-06.
 No special actions if energy rises.
 Fock matrices will be formed incrementally for  20 cycles.

 Cycle   1  Pass 1  IDiag  1:
 FoFJK:  IHMeth= 1 ICntrl=       0 DoSepK=T KAlg= 0 I1Cent=           0 FoldK=F
 IRaf=         1 NMat=       1 IRICut=       1 DoRegI=T DoRafI=F ISym2E= 0 IDoP0=0 IntGTp=1.
 FoFCou: FMM=F IPFlag=           0 FMFlag=      100000 FMFlg1=           0
         NFxFlg=           0 DoJE=T BraDBF=F KetDBF=F FulRan=T
         wScrn=  0.000000 ICntrl=       500 IOpCl=  0 I1Cent=           0 NGrid=           0
         NMat0=    1 NMatS0=      1 NMatT0=    0 NMatD0=    1 NMtDS0=    0 NMtDT0=    0
 Symmetry not used in FoFCou.
 E= -3009.68481319898    
 DIIS: error= 2.90D-01 at cycle   1 NSaved=   1.
 NSaved= 1 IEnMin= 1 EnMin= -3009.68481319898     IErMin= 1 ErrMin= 2.90D-01
 ErrMax= 2.90D-01  0.00D+00 EMaxC= 1.00D-01 BMatC= 1.19D+01 BMatP= 1.19D+01
 IDIUse=3 WtCom= 0.00D+00 WtEn= 1.00D+00
 Coeff-Com:  0.100D+01
 Coeff-En:   0.100D+01
 Coeff:      0.100D+01
 Gap=     0.332 Goal=   None    Shift=    0.000
 GapD=    0.332 DampG=1.000 DampE=0.250 DampFc=0.2500 IDamp=-1.
 Damping current iteration by 2.50D-01
 RMSDP=6.17D-02 MaxDP=6.46D+00              OVMax= 2.61D-01

 Cycle   2  Pass 1  IDiag  1:
 RMSU=  7.21D-03    CP:  8.87D-01
 E= -3009.98007148133     Delta-E=       -0.295258282349 Rises=F Damp=T
 DIIS: error= 2.18D-01 at cycle   2 NSaved=   2.
 NSaved= 2 IEnMin= 2 EnMin= -3009.98007148133     IErMin= 2 ErrMin= 2.18D-01
 ErrMax= 2.18D-01  0.00D+00 EMaxC= 1.00D-01 BMatC= 5.46D+00 BMatP= 1.19D+01
 IDIUse=3 WtCom= 0.00D+00 WtEn= 1.00D+00
 Coeff-Com: -0.184D+01 0.284D+01
 Coeff-En:   0.000D+00 0.100D+01
 Coeff:      0.000D+00 0.100D+01
 Gap=     0.266 Goal=   None    Shift=    0.000
 RMSDP=4.85D-02 MaxDP=5.26D+00 DE=-2.95D-01 OVMax= 6.81D-02

 Cycle   3  Pass 1  IDiag  1:
 RMSU=  5.00D-03    CP:  5.08D-01  3.00D+00
 E= -3010.37943021534     Delta-E=       -0.399358734018 Rises=F Damp=F
 DIIS: error= 6.54D-02 at cycle   3 NSaved=   3.
 NSaved= 3 IEnMin= 3 EnMin= -3010.37943021534     IErMin= 3 ErrMin= 6.54D-02
 ErrMax= 6.54D-02  0.00D+00 EMaxC= 1.00D-01 BMatC= 7.23D-01 BMatP= 5.46D+00
 IDIUse=3 WtCom= 3.46D-01 WtEn= 6.54D-01
 Coeff-Com:  0.257D+01-0.337D+01 0.180D+01
 Coeff-En:   0.224D-01 0.000D+00 0.978D+00
 Coeff:      0.905D+00-0.117D+01 0.126D+01
 Gap=     0.265 Goal=   None    Shift=    0.000
 RMSDP=1.13D-02 MaxDP=7.42D-01 DE=-3.99D-01 OVMax= 7.27D-02

 Cycle   4  Pass 1  IDiag  1:
 RMSU=  7.84D-03    CP:  5.45D-01  2.33D+00  1.70D+00
 E= -3010.48429848413     Delta-E=       -0.104868268787 Rises=F Damp=F
 DIIS: error= 3.86D-02 at cycle   4 NSaved=   4.
 NSaved= 4 IEnMin= 4 EnMin= -3010.48429848413     IErMin= 4 ErrMin= 3.86D-02
 ErrMax= 3.86D-02  0.00D+00 EMaxC= 1.00D-01 BMatC= 2.34D-01 BMatP= 7.23D-01
 IDIUse=3 WtCom= 6.14D-01 WtEn= 3.86D-01
 Coeff-Com:  0.966D-01-0.114D+00 0.421D+00 0.596D+00
 Coeff-En:   0.000D+00 0.000D+00 0.203D+00 0.797D+00
 Coeff:      0.593D-01-0.702D-01 0.337D+00 0.674D+00
 Gap=     0.266 Goal=   None    Shift=    0.000
 RMSDP=5.03D-03 MaxDP=4.83D-01 DE=-1.05D-01 OVMax= 5.08D-02

 Cycle   5  Pass 1  IDiag  1:
 RMSU=  2.07D-03    CP:  5.12D-01  2.46D+00  1.63D+00  7.36D-01
 E= -3010.52850203749     Delta-E=       -0.044203553362 Rises=F Damp=F
 DIIS: error= 9.53D-03 at cycle   5 NSaved=   5.
 NSaved= 5 IEnMin= 5 EnMin= -3010.52850203749     IErMin= 5 ErrMin= 9.53D-03
 ErrMax= 9.53D-03  0.00D+00 EMaxC= 1.00D-01 BMatC= 1.18D-02 BMatP= 2.34D-01
 IDIUse=3 WtCom= 9.05D-01 WtEn= 9.53D-02
 Coeff-Com: -0.733D-01 0.104D+00 0.154D+00 0.405D+00 0.410D+00
 Coeff-En:   0.000D+00 0.000D+00 0.000D+00 0.000D+00 0.100D+01
 Coeff:     -0.664D-01 0.940D-01 0.140D+00 0.367D+00 0.466D+00
 Gap=     0.256 Goal=   None    Shift=    0.000
 RMSDP=1.39D-03 MaxDP=1.21D-01 DE=-4.42D-02 OVMax= 2.52D-02

 Cycle   6  Pass 1  IDiag  1:
 RMSU=  7.00D-04    CP:  5.13D-01  2.49D+00  1.65D+00  8.52D-01  6.50D-01
 E= -3010.53300344402     Delta-E=       -0.004501406522 Rises=F Damp=F
 DIIS: error= 3.46D-03 at cycle   6 NSaved=   6.
 NSaved= 6 IEnMin= 6 EnMin= -3010.53300344402     IErMin= 6 ErrMin= 3.46D-03
 ErrMax= 3.46D-03  0.00D+00 EMaxC= 1.00D-01 BMatC= 1.04D-03 BMatP= 1.18D-02
 IDIUse=3 WtCom= 9.65D-01 WtEn= 3.46D-02
 Coeff-Com: -0.884D-01 0.119D+00 0.556D-02 0.152D+00 0.319D+00 0.493D+00
 Coeff-En:   0.000D+00 0.000D+00 0.000D+00 0.000D+00 0.119D+00 0.881D+00
 Coeff:     -0.854D-01 0.115D+00 0.536D-02 0.146D+00 0.312D+00 0.507D+00
 Gap=     0.247 Goal=   None    Shift=    0.000
 RMSDP=4.21D-04 MaxDP=2.95D-02 DE=-4.50D-03 OVMax= 8.40D-03

 Cycle   7  Pass 1  IDiag  1:
 RMSU=  2.53D-04    CP:  5.12D-01  2.49D+00  1.65D+00  8.39D-01  7.55D-01
                    CP:  6.67D-01
 E= -3010.53374477653     Delta-E=       -0.000741332512 Rises=F Damp=F
 DIIS: error= 2.82D-04 at cycle   7 NSaved=   7.
 NSaved= 7 IEnMin= 7 EnMin= -3010.53374477653     IErMin= 7 ErrMin= 2.82D-04
 ErrMax= 2.82D-04  0.00D+00 EMaxC= 1.00D-01 BMatC= 1.58D-05 BMatP= 1.04D-03
 IDIUse=3 WtCom= 9.97D-01 WtEn= 2.82D-03
 Coeff-Com: -0.307D-01 0.409D-01-0.126D-01 0.235D-01 0.697D-01 0.171D+00
 Coeff-Com:  0.738D+00
 Coeff-En:   0.000D+00 0.000D+00 0.000D+00 0.000D+00 0.000D+00 0.000D+00
 Coeff-En:   0.100D+01
 Coeff:     -0.307D-01 0.408D-01-0.125D-01 0.234D-01 0.695D-01 0.171D+00
 Coeff:      0.739D+00
 Gap=     0.247 Goal=   None    Shift=    0.000
 RMSDP=2.18D-04 MaxDP=1.74D-02 DE=-7.41D-04 OVMax= 2.46D-03

 Cycle   8  Pass 1  IDiag  1:
 RMSU=  8.17D-05    CP:  5.13D-01  2.49D+00  1.65D+00  8.60D-01  8.02D-01
                    CP:  7.40D-01  1.06D+00
 E= -3010.53376985622     Delta-E=       -0.000025079696 Rises=F Damp=F
 DIIS: error= 9.36D-05 at cycle   8 NSaved=   8.
 NSaved= 8 IEnMin= 8 EnMin= -3010.53376985622     IErMin= 8 ErrMin= 9.36D-05
 ErrMax= 9.36D-05  0.00D+00 EMaxC= 1.00D-01 BMatC= 2.36D-06 BMatP= 1.58D-05
 IDIUse=1 WtCom= 1.00D+00 WtEn= 0.00D+00
 Coeff-Com:  0.724D-02-0.990D-02-0.337D-02-0.165D-01-0.348D-01-0.505D-01
 Coeff-Com:  0.152D+00 0.956D+00
 Coeff:      0.724D-02-0.990D-02-0.337D-02-0.165D-01-0.348D-01-0.505D-01
 Coeff:      0.152D+00 0.956D+00
 Gap=     0.247 Goal=   None    Shift=    0.000
 RMSDP=9.13D-05 MaxDP=7.28D-03 DE=-2.51D-05 OVMax= 2.41D-03

 Cycle   9  Pass 1  IDiag  1:
 RMSU=  3.01D-05    CP:  5.13D-01  2.49D+00  1.65D+00  8.67D-01  8.15D-01
                    CP:  7.42D-01  1.26D+00  1.29D+00
 E= -3010.53377803968     Delta-E=       -0.000008183455 Rises=F Damp=F
 DIIS: error= 3.30D-05 at cycle   9 NSaved=   9.
 NSaved= 9 IEnMin= 9 EnMin= -3010.53377803968     IErMin= 9 ErrMin= 3.30D-05
 ErrMax= 3.30D-05  0.00D+00 EMaxC= 1.00D-01 BMatC= 4.04D-07 BMatP= 2.36D-06
 IDIUse=1 WtCom= 1.00D+00 WtEn= 0.00D+00
 Coeff-Com:  0.716D-02-0.960D-02 0.988D-03-0.883D-02-0.190D-01-0.366D-01
 Coeff-Com: -0.809D-01 0.271D+00 0.875D+00
 Coeff:      0.716D-02-0.960D-02 0.988D-03-0.883D-02-0.190D-01-0.366D-01
 Coeff:     -0.809D-01 0.271D+00 0.875D+00
 Gap=     0.247 Goal=   None    Shift=    0.000
 RMSDP=3.55D-05 MaxDP=2.11D-03 DE=-8.18D-06 OVMax= 1.36D-03

 Cycle  10  Pass 1  IDiag  1:
 RMSU=  1.53D-05    CP:  5.13D-01  2.49D+00  1.65D+00  8.67D-01  8.21D-01
                    CP:  7.36D-01  1.33D+00  1.47D+00  1.31D+00
 E= -3010.53378005397     Delta-E=       -0.000002014296 Rises=F Damp=F
 DIIS: error= 2.19D-05 at cycle  10 NSaved=  10.
 NSaved=10 IEnMin=10 EnMin= -3010.53378005397     IErMin=10 ErrMin= 2.19D-05
 ErrMax= 2.19D-05  0.00D+00 EMaxC= 1.00D-01 BMatC= 1.09D-07 BMatP= 4.04D-07
 IDIUse=1 WtCom= 1.00D+00 WtEn= 0.00D+00
 Coeff-Com:  0.730D-04-0.586D-04 0.686D-03 0.913D-03 0.429D-02 0.743D-02
 Coeff-Com: -0.509D-01-0.137D+00 0.192D+00 0.983D+00
 Coeff:      0.730D-04-0.586D-04 0.686D-03 0.913D-03 0.429D-02 0.743D-02
 Coeff:     -0.509D-01-0.137D+00 0.192D+00 0.983D+00
 Gap=     0.247 Goal=   None    Shift=    0.000
 RMSDP=2.15D-05 MaxDP=1.51D-03 DE=-2.01D-06 OVMax= 8.07D-04

 Cycle  11  Pass 1  IDiag  1:
 RMSU=  8.11D-06    CP:  5.13D-01  2.49D+00  1.65D+00  8.66D-01  8.24D-01
                    CP:  7.27D-01  1.35D+00  1.58D+00  1.54D+00  1.59D+00
 E= -3010.53378064694     Delta-E=       -0.000000592963 Rises=F Damp=F
 DIIS: error= 1.14D-05 at cycle  11 NSaved=  11.
 NSaved=11 IEnMin=11 EnMin= -3010.53378064694     IErMin=11 ErrMin= 1.14D-05
 ErrMax= 1.14D-05  0.00D+00 EMaxC= 1.00D-01 BMatC= 1.57D-08 BMatP= 1.09D-07
 IDIUse=1 WtCom= 1.00D+00 WtEn= 0.00D+00
 Coeff-Com: -0.716D-03 0.961D-03 0.445D-04 0.132D-02 0.284D-02 0.622D-02
 Coeff-Com:  0.160D-01-0.487D-01-0.184D+00-0.344D-01 0.124D+01
 Coeff:     -0.716D-03 0.961D-03 0.445D-04 0.132D-02 0.284D-02 0.622D-02
 Coeff:      0.160D-01-0.487D-01-0.184D+00-0.344D-01 0.124D+01
 Gap=     0.247 Goal=   None    Shift=    0.000
 RMSDP=1.43D-05 MaxDP=1.52D-03 DE=-5.93D-07 OVMax= 5.03D-04

 Cycle  12  Pass 1  IDiag  1:
 RMSU=  2.44D-06    CP:  5.13D-01  2.49D+00  1.65D+00  8.65D-01  8.26D-01
                    CP:  7.21D-01  1.36D+00  1.63D+00  1.67D+00  1.99D+00
                    CP:  1.62D+00
 E= -3010.53378079447     Delta-E=       -0.000000147530 Rises=F Damp=F
 DIIS: error= 5.25D-06 at cycle  12 NSaved=  12.
 NSaved=12 IEnMin=12 EnMin= -3010.53378079447     IErMin=12 ErrMin= 5.25D-06
 ErrMax= 5.25D-06  0.00D+00 EMaxC= 1.00D-01 BMatC= 6.90D-09 BMatP= 1.57D-08
 IDIUse=1 WtCom= 1.00D+00 WtEn= 0.00D+00
 Coeff-Com: -0.260D-03 0.341D-03-0.649D-04 0.420D-03 0.240D-03 0.962D-03
 Coeff-Com:  0.185D-01 0.541D-02-0.124D+00-0.221D+00 0.663D+00 0.657D+00
 Coeff:     -0.260D-03 0.341D-03-0.649D-04 0.420D-03 0.240D-03 0.962D-03
 Coeff:      0.185D-01 0.541D-02-0.124D+00-0.221D+00 0.663D+00 0.657D+00
 Gap=     0.247 Goal=   None    Shift=    0.000
 RMSDP=5.05D-06 MaxDP=6.49D-04 DE=-1.48D-07 OVMax= 1.33D-04

 Cycle  13  Pass 1  IDiag  1:
 RMSU=  1.23D-06    CP:  5.13D-01  2.49D+00  1.65D+00  8.65D-01  8.26D-01
                    CP:  7.19D-01  1.36D+00  1.64D+00  1.69D+00  2.12D+00
                    CP:  1.74D+00  1.07D+00
 E= -3010.53378081348     Delta-E=       -0.000000019009 Rises=F Damp=F
 DIIS: error= 2.69D-06 at cycle  13 NSaved=  13.
 NSaved=13 IEnMin=13 EnMin= -3010.53378081348     IErMin=13 ErrMin= 2.69D-06
 ErrMax= 2.69D-06  0.00D+00 EMaxC= 1.00D-01 BMatC= 6.01D-10 BMatP= 6.90D-09
 IDIUse=1 WtCom= 1.00D+00 WtEn= 0.00D+00
 Coeff-Com: -0.595D-05 0.754D-05-0.397D-04-0.122D-03-0.468D-03-0.111D-02
 Coeff-Com: -0.172D-02 0.596D-02 0.301D-01-0.102D-01-0.176D+00 0.133D-02
 Coeff-Com:  0.115D+01
 Coeff:     -0.595D-05 0.754D-05-0.397D-04-0.122D-03-0.468D-03-0.111D-02
 Coeff:     -0.172D-02 0.596D-02 0.301D-01-0.102D-01-0.176D+00 0.133D-02
 Coeff:      0.115D+01
 Gap=     0.247 Goal=   None    Shift=    0.000
 RMSDP=1.55D-06 MaxDP=1.08D-04 DE=-1.90D-08 OVMax= 6.13D-05

 Cycle  14  Pass 1  IDiag  1:
 RMSU=  8.18D-07    CP:  5.13D-01  2.49D+00  1.65D+00  8.65D-01  8.25D-01
                    CP:  7.19D-01  1.36D+00  1.64D+00  1.71D+00  2.12D+00
                    CP:  1.74D+00  1.38D+00  1.52D+00
 E= -3010.53378081699     Delta-E=       -0.000000003512 Rises=F Damp=F
 DIIS: error= 1.02D-06 at cycle  14 NSaved=  14.
 NSaved=14 IEnMin=14 EnMin= -3010.53378081699     IErMin=14 ErrMin= 1.02D-06
 ErrMax= 1.02D-06  0.00D+00 EMaxC= 1.00D-01 BMatC= 1.41D-10 BMatP= 6.01D-10
 IDIUse=1 WtCom= 1.00D+00 WtEn= 0.00D+00
 Coeff-Com:  0.103D-04-0.130D-04-0.121D-04-0.899D-04-0.151D-03-0.450D-03
 Coeff-Com: -0.352D-02 0.826D-03 0.315D-01 0.333D-01-0.172D+00-0.123D+00
 Coeff-Com:  0.418D+00 0.815D+00
 Coeff:      0.103D-04-0.130D-04-0.121D-04-0.899D-04-0.151D-03-0.450D-03
 Coeff:     -0.352D-02 0.826D-03 0.315D-01 0.333D-01-0.172D+00-0.123D+00
 Coeff:      0.418D+00 0.815D+00
 Gap=     0.247 Goal=   None    Shift=    0.000
 RMSDP=4.57D-07 MaxDP=3.80D-05 DE=-3.51D-09 OVMax= 1.87D-05

 Cycle  15  Pass 1  IDiag  1:
 RMSU=  1.96D-07    CP:  5.13D-01  2.49D+00  1.65D+00  8.65D-01  8.25D-01
                    CP:  7.19D-01  1.36D+00  1.64D+00  1.71D+00  2.13D+00
                    CP:  1.73D+00  1.43D+00  1.74D+00  1.09D+00
 E= -3010.53378081747     Delta-E=       -0.000000000477 Rises=F Damp=F
 DIIS: error= 3.92D-07 at cycle  15 NSaved=  15.
 NSaved=15 IEnMin=15 EnMin= -3010.53378081747     IErMin=15 ErrMin= 3.92D-07
 ErrMax= 3.92D-07  0.00D+00 EMaxC= 1.00D-01 BMatC= 1.68D-11 BMatP= 1.41D-10
 IDIUse=1 WtCom= 1.00D+00 WtEn= 0.00D+00
 Coeff-Com:  0.231D-05-0.296D-05 0.427D-05 0.857D-05 0.717D-04 0.148D-03
 Coeff-Com: -0.160D-03-0.777D-03-0.108D-02 0.696D-02 0.523D-02-0.251D-01
 Coeff-Com: -0.137D+00 0.176D+00 0.975D+00
 Coeff:      0.231D-05-0.296D-05 0.427D-05 0.857D-05 0.717D-04 0.148D-03
 Coeff:     -0.160D-03-0.777D-03-0.108D-02 0.696D-02 0.523D-02-0.251D-01
 Coeff:     -0.137D+00 0.176D+00 0.975D+00
 Gap=     0.247 Goal=   None    Shift=    0.000
 RMSDP=2.56D-07 MaxDP=1.77D-05 DE=-4.77D-10 OVMax= 7.39D-06

 Cycle  16  Pass 1  IDiag  1:
 RMSU=  8.41D-08    CP:  5.13D-01  2.49D+00  1.65D+00  8.65D-01  8.25D-01
                    CP:  7.19D-01  1.36D+00  1.64D+00  1.71D+00  2.13D+00
                    CP:  1.72D+00  1.43D+00  1.80D+00  1.14D+00  1.54D+00
 E= -3010.53378081755     Delta-E=       -0.000000000085 Rises=F Damp=F
 DIIS: error= 1.00D-07 at cycle  16 NSaved=  16.
 NSaved=16 IEnMin=16 EnMin= -3010.53378081755     IErMin=16 ErrMin= 1.00D-07
 ErrMax= 1.00D-07  0.00D+00 EMaxC= 1.00D-01 BMatC= 1.73D-12 BMatP= 1.68D-11
 IDIUse=1 WtCom= 1.00D+00 WtEn= 0.00D+00
 Coeff-Com:  0.192D-06-0.300D-06 0.250D-05 0.110D-04 0.294D-04 0.669D-04
 Coeff-Com:  0.292D-03-0.268D-03-0.355D-02-0.118D-02 0.181D-01 0.702D-02
 Coeff-Com: -0.693D-01-0.491D-01 0.144D+00 0.954D+00
 Coeff:      0.192D-06-0.300D-06 0.250D-05 0.110D-04 0.294D-04 0.669D-04
 Coeff:      0.292D-03-0.268D-03-0.355D-02-0.118D-02 0.181D-01 0.702D-02
 Coeff:     -0.693D-01-0.491D-01 0.144D+00 0.954D+00
 Gap=     0.247 Goal=   None    Shift=    0.000
 RMSDP=7.37D-08 MaxDP=2.90D-06 DE=-8.46D-11 OVMax= 2.22D-06

 Cycle  17  Pass 1  IDiag  1:
 RMSU=  2.92D-08    CP:  5.13D-01  2.49D+00  1.65D+00  8.65D-01  8.25D-01
                    CP:  7.19D-01  1.36D+00  1.64D+00  1.71D+00  2.13D+00
                    CP:  1.71D+00  1.43D+00  1.79D+00  1.15D+00  1.73D+00
                    CP:  1.25D+00
 E= -3010.53378081757     Delta-E=       -0.000000000017 Rises=F Damp=F
 DIIS: error= 4.55D-08 at cycle  17 NSaved=  17.
 NSaved=17 IEnMin=17 EnMin= -3010.53378081757     IErMin=17 ErrMin= 4.55D-08
 ErrMax= 4.55D-08  0.00D+00 EMaxC= 1.00D-01 BMatC= 4.10D-13 BMatP= 1.73D-12
 IDIUse=1 WtCom= 1.00D+00 WtEn= 0.00D+00
 Coeff-Com: -0.179D-05 0.238D-05-0.334D-06 0.264D-05-0.161D-06-0.361D-05
 Coeff-Com:  0.859D-04 0.984D-04-0.725D-03-0.963D-03 0.328D-02 0.474D-02
 Coeff-Com:  0.249D-02-0.323D-01-0.115D+00 0.208D+00 0.930D+00
 Coeff:     -0.179D-05 0.238D-05-0.334D-06 0.264D-05-0.161D-06-0.361D-05
 Coeff:      0.859D-04 0.984D-04-0.725D-03-0.963D-03 0.328D-02 0.474D-02
 Coeff:      0.249D-02-0.323D-01-0.115D+00 0.208D+00 0.930D+00
 Gap=     0.247 Goal=   None    Shift=    0.000
 RMSDP=4.40D-08 MaxDP=4.74D-06 DE=-1.73D-11 OVMax= 9.04D-07

 Cycle  18  Pass 1  IDiag  1:
 RMSU=  1.29D-08    CP:  5.13D-01  2.49D+00  1.65D+00  8.65D-01  8.25D-01
                    CP:  7.19D-01  1.36D+00  1.64D+00  1.71D+00  2.13D+00
                    CP:  1.71D+00  1.43D+00  1.79D+00  1.14D+00  1.80D+00
                    CP:  1.47D+00  1.19D+00
 E= -3010.53378081753     Delta-E=        0.000000000036 Rises=F Damp=F
 DIIS: error= 2.04D-08 at cycle  18 NSaved=  18.
 NSaved=18 IEnMin=17 EnMin= -3010.53378081757     IErMin=18 ErrMin= 2.04D-08
 ErrMax= 2.04D-08  0.00D+00 EMaxC= 1.00D-01 BMatC= 7.51D-14 BMatP= 4.10D-13
 IDIUse=1 WtCom= 1.00D+00 WtEn= 0.00D+00
 Coeff-Com: -0.533D-06 0.715D-06-0.562D-06-0.135D-05-0.678D-05-0.174D-04
 Coeff-Com: -0.255D-04 0.105D-03 0.327D-03-0.213D-03-0.217D-02 0.382D-03
 Coeff-Com:  0.142D-01-0.773D-04-0.679D-01-0.994D-01 0.299D+00 0.856D+00
 Coeff:     -0.533D-06 0.715D-06-0.562D-06-0.135D-05-0.678D-05-0.174D-04
 Coeff:     -0.255D-04 0.105D-03 0.327D-03-0.213D-03-0.217D-02 0.382D-03
 Coeff:      0.142D-01-0.773D-04-0.679D-01-0.994D-01 0.299D+00 0.856D+00
 Gap=     0.247 Goal=   None    Shift=    0.000
 RMSDP=2.41D-08 MaxDP=2.51D-06 DE= 3.64D-11 OVMax= 6.53D-07

 Cycle  19  Pass 1  IDiag  1:
 RMSU=  4.46D-09    CP:  5.13D-01  2.49D+00  1.65D+00  8.65D-01  8.25D-01
                    CP:  7.19D-01  1.36D+00  1.64D+00  1.71D+00  2.13D+00
                    CP:  1.71D+00  1.43D+00  1.79D+00  1.13D+00  1.82D+00
                    CP:  1.52D+00  1.38D+00  1.27D+00
 E= -3010.53378081757     Delta-E=       -0.000000000042 Rises=F Damp=F
 DIIS: error= 6.81D-09 at cycle  19 NSaved=  19.
 NSaved=19 IEnMin=19 EnMin= -3010.53378081757     IErMin=19 ErrMin= 6.81D-09
 ErrMax= 6.81D-09  0.00D+00 EMaxC= 1.00D-01 BMatC= 1.72D-14 BMatP= 7.51D-14
 IDIUse=1 WtCom= 1.00D+00 WtEn= 0.00D+00
 Large coefficients: NSaved= 19 BigCof=    0.00 CofMax=   10.00 Det=-1.82D-14
 Inversion failed.  Reducing to 18 matrices.
 Large coefficients: NSaved= 18 BigCof=    0.00 CofMax=   10.00 Det=-1.85D-14
 Inversion failed.  Reducing to 17 matrices.
 Coeff-Com: -0.380D-07-0.167D-06 0.265D-06 0.319D-06-0.867D-05-0.153D-04
 Coeff-Com:  0.102D-03 0.157D-03-0.393D-03-0.824D-03-0.491D-03 0.520D-02
 Coeff-Com:  0.160D-01-0.404D-01-0.184D+00 0.934D-01 0.111D+01
 Coeff:     -0.380D-07-0.167D-06 0.265D-06 0.319D-06-0.867D-05-0.153D-04
 Coeff:      0.102D-03 0.157D-03-0.393D-03-0.824D-03-0.491D-03 0.520D-02
 Coeff:      0.160D-01-0.404D-01-0.184D+00 0.934D-01 0.111D+01
 Gap=     0.247 Goal=   None    Shift=    0.000
 RMSDP=9.26D-09 MaxDP=6.12D-07 DE=-4.23D-11 OVMax= 3.63D-07

 SCF Done:  E(RwB97XD) =  -3010.53378082     A.U. after   19 cycles
            NFock= 19  Conv=0.93D-08     -V/T= 2.0016
 KE= 3.005860673042D+03 PE=-8.701437250699D+03 EE= 1.910597957893D+03
 Leave Link  502 at Thu May  2 14:18:51 2024, MaxMem=   134217728 cpu:            1168.3 elap:            1169.1
 (Enter /software/gaussian/g16-c01/sse4/g16/l601.exe)
 Copying SCF densities to generalized density rwf, IOpCl= 0 IROHF=0.

 **********************************************************************

            Population analysis using the SCF Density.

 **********************************************************************

 Alpha  occ. eigenvalues -- -483.33222 -62.88272 -56.67930 -56.67409 -56.67403
 Alpha  occ. eigenvalues --  -19.46541 -19.46500 -14.85979 -10.59896 -10.59180
 Alpha  occ. eigenvalues --  -10.58007 -10.57797 -10.54044 -10.53370  -9.04097
 Alpha  occ. eigenvalues --   -6.86680  -6.84959  -6.84940  -2.96607  -2.96149
 Alpha  occ. eigenvalues --   -2.96134  -2.94755  -2.94755  -1.50214  -1.33164
 Alpha  occ. eigenvalues --   -1.23246  -1.13901  -1.13183  -1.06224  -1.01090
 Alpha  occ. eigenvalues --   -0.96105  -0.91232  -0.85407  -0.81419  -0.80723
 Alpha  occ. eigenvalues --   -0.80479  -0.78519  -0.76598  -0.76238  -0.73068
 Alpha  occ. eigenvalues --   -0.69236  -0.68258  -0.64486  -0.61208  -0.58735
 Alpha  occ. eigenvalues --   -0.57718  -0.57234  -0.56256  -0.55801
 Alpha virt. eigenvalues --   -0.31075  -0.20890  -0.17386  -0.13647  -0.12253
 Alpha virt. eigenvalues --   -0.09179  -0.08117  -0.07176  -0.06140  -0.04889
 Alpha virt. eigenvalues --   -0.04303  -0.03225  -0.02199  -0.01514  -0.01242
 Alpha virt. eigenvalues --   -0.00853   0.00014   0.01028   0.02269   0.02929
 Alpha virt. eigenvalues --    0.04319   0.04976   0.05551   0.05653   0.06446
 Alpha virt. eigenvalues --    0.07223   0.07268   0.07987   0.08786   0.09724
 Alpha virt. eigenvalues --    0.09738   0.11090   0.11329   0.11900   0.12709
 Alpha virt. eigenvalues --    0.12931   0.13285   0.13493   0.14413   0.15974
 Alpha virt. eigenvalues --    0.16389   0.16926   0.17956   0.18653   0.19622
 Alpha virt. eigenvalues --    0.20188   0.20801   0.21042   0.22301   0.23747
 Alpha virt. eigenvalues --    0.23932   0.26848   0.26974   0.28053   0.29419
 Alpha virt. eigenvalues --    0.31169   0.32864   0.33566   0.34021   0.35694
 Alpha virt. eigenvalues --    0.36738   0.37445   0.38966   0.39835   0.41109
 Alpha virt. eigenvalues --    0.43158   0.43955   0.44841   0.46608   0.47122
 Alpha virt. eigenvalues --    0.48063   0.49786   0.49930   0.51066   0.53157
 Alpha virt. eigenvalues --    0.54385   0.55550   0.57583   0.57796   0.59647
 Alpha virt. eigenvalues --    0.60508   0.61720   0.63536   0.66174   0.67644
 Alpha virt. eigenvalues --    0.70880   0.71083   0.72503   0.73719   0.74155
 Alpha virt. eigenvalues --    0.74221   0.77020   0.79378   0.81637   0.84883
 Alpha virt. eigenvalues --    0.86218   0.87230   0.91077   0.93458   0.98366
 Alpha virt. eigenvalues --    0.99982   1.01897   1.03370   1.05081   1.06516
 Alpha virt. eigenvalues --    1.08315   1.12373   1.13080   1.13719   1.17493
 Alpha virt. eigenvalues --    1.20777   1.22559   1.27631   1.32891   1.35798
 Alpha virt. eigenvalues --    1.36396   1.38471   1.42362   1.54284   1.56233
 Alpha virt. eigenvalues --    1.56900   1.59439   1.60734   1.63484   1.65119
 Alpha virt. eigenvalues --    1.67715   1.70844   1.73642   1.74787   1.78899
 Alpha virt. eigenvalues --    1.83460   1.84845   1.86757   1.92641   1.94519
 Alpha virt. eigenvalues --    1.97328   2.01550   2.02416   2.06569   2.07942
 Alpha virt. eigenvalues --    2.11999   2.13984   2.21872   2.23320   2.26963
 Alpha virt. eigenvalues --    2.33053   2.39523   2.41177   2.43970   2.52747
 Alpha virt. eigenvalues --    2.57643   2.62691   2.65438   2.68248   2.71437
 Alpha virt. eigenvalues --    2.73329   2.76069   2.77024   2.80256   2.81452
 Alpha virt. eigenvalues --    2.92559   2.97666   3.00966   3.05218   3.08425
 Alpha virt. eigenvalues --    3.14349   3.15878   3.17108   3.22179   3.26270
 Alpha virt. eigenvalues --    3.27378   3.37553   3.46085   3.49722   3.54368
 Alpha virt. eigenvalues --    3.57137   3.68604   3.73931   3.83087   3.86766
 Alpha virt. eigenvalues --    4.07818   4.08645   4.17450   4.21503   4.41401
 Alpha virt. eigenvalues --    4.44829   4.54042   4.59465   4.93297   4.96157
 Alpha virt. eigenvalues --    5.04984   5.09486   5.61716   6.14898   6.65899
 Alpha virt. eigenvalues --    7.46625   7.48987   7.59195  23.21536  23.60732
 Alpha virt. eigenvalues --   23.70927  23.77353  23.95135  24.01565  35.31184
 Alpha virt. eigenvalues --   47.92062  49.84943  49.93606 289.79726 289.82069
 Alpha virt. eigenvalues --  289.947151020.93282
          Condensed to atoms (all electrons):
               1          2          3          4          5          6
     1  C    8.075373  -2.959551   1.112620  -0.176999   0.303485   0.051427
     2  C   -2.959551  17.579822  -5.266602   0.607402  -0.028394   0.183951
     3  C    1.112620  -5.266602  18.945390  -1.484547   0.040230   0.126231
     4  C   -0.176999   0.607402  -1.484547   6.492360   0.011074  -0.016810
     5  H    0.303485  -0.028394   0.040230   0.011074   0.328131  -0.001564
     6  H    0.051427   0.183951   0.126231  -0.016810  -0.001564   0.309209
     7  H    0.022915  -0.023920   0.024784   0.311400  -0.002755  -0.000005
     8  N   -0.111743   0.357493  -1.588755   0.019181  -0.000707  -0.030240
     9  O   -0.039669   0.140854  -0.323105  -0.010147  -0.000039  -0.002380
    10  O    0.278337  -0.331459  -0.096287  -0.030925   0.000050   0.021620
    11  C    0.868934  -1.168793   2.242547  -0.323090  -0.022537   0.009511
    12  H   -0.009538   0.012367   0.014991   0.007110   0.000005  -0.000016
    13  C   -1.311007  -3.114899  -7.432473   0.884803   0.024346  -0.004333
    14  H   -0.006100   0.012798   0.012504   0.007745  -0.000021   0.000016
    15  Br  -0.021519  -0.132505  -0.235836   0.047380  -0.000235  -0.000526
               7          8          9         10         11         12
     1  C    0.022915  -0.111743  -0.039669   0.278337   0.868934  -0.009538
     2  C   -0.023920   0.357493   0.140854  -0.331459  -1.168793   0.012367
     3  C    0.024784  -1.588755  -0.323105  -0.096287   2.242547   0.014991
     4  C    0.311400   0.019181  -0.010147  -0.030925  -0.323090   0.007110
     5  H   -0.002755  -0.000707  -0.000039   0.000050  -0.022537   0.000005
     6  H   -0.000005  -0.030240  -0.002380   0.021620   0.009511  -0.000016
     7  H    0.333722  -0.000016   0.000013  -0.000009   0.032164  -0.002221
     8  N   -0.000016   7.613111   0.126671   0.124771  -0.283476   0.000225
     9  O    0.000013   0.126671   7.831610   0.010526   0.238773   0.000088
    10  O   -0.000009   0.124771   0.010526   7.853058   0.026258  -0.000007
    11  C    0.032164  -0.283476   0.238773   0.026258   8.157600   0.325724
    12  H   -0.002221   0.000225   0.000088  -0.000007   0.325724   0.313949
    13  C   -0.031342   0.876147  -0.024146   0.073636  -3.953370  -0.017686
    14  H   -0.000008  -0.019463   0.005523  -0.001837  -0.010637  -0.003286
    15  Br  -0.000488   0.132555  -0.044691  -0.000344   0.026750  -0.003540
              13         14         15
     1  C   -1.311007  -0.006100  -0.021519
     2  C   -3.114899   0.012798  -0.132505
     3  C   -7.432473   0.012504  -0.235836
     4  C    0.884803   0.007745   0.047380
     5  H    0.024346  -0.000021  -0.000235
     6  H   -0.004333   0.000016  -0.000526
     7  H   -0.031342  -0.000008  -0.000488
     8  N    0.876147  -0.019463   0.132555
     9  O   -0.024146   0.005523  -0.044691
    10  O    0.073636  -0.001837  -0.000344
    11  C   -3.953370  -0.010637   0.026750
    12  H   -0.017686  -0.003286  -0.003540
    13  C   19.697131   0.307979   0.333522
    14  H    0.307979   0.271826  -0.028826
    15  Br   0.333522  -0.028826  34.869689
 Mulliken charges:
               1
     1  C   -0.076965
     2  C    0.131437
     3  C   -0.091693
     4  C   -0.345937
     5  H    0.348932
     6  H    0.353911
     7  H    0.335764
     8  N   -0.215754
     9  O    0.090119
    10  O    0.072614
    11  C   -0.166356
    12  H    0.361834
    13  C   -0.308309
    14  H    0.451788
    15  Br   0.058614
 Sum of Mulliken charges =   1.00000
 Mulliken charges with hydrogens summed into heavy atoms:
               1
     1  C    0.271967
     2  C    0.485348
     3  C   -0.091693
     4  C   -0.010173
     8  N   -0.215754
     9  O    0.090119
    10  O    0.072614
    11  C    0.195478
    13  C    0.143479
    15  Br   0.058614
 Electronic spatial extent (au):  <R**2>=           3948.9535
 Charge=              1.0000 electrons
 Dipole moment (field-independent basis, Debye):
    X=              2.6107    Y=             -0.4105    Z=              1.5080  Tot=              3.0428
 Quadrupole moment (field-independent basis, Debye-Ang):
   XX=            -67.8085   YY=            -51.9465   ZZ=            -65.2062
   XY=             -1.9841   XZ=              2.0952   YZ=              0.2472
 Traceless Quadrupole moment (field-independent basis, Debye-Ang):
   XX=             -6.1548   YY=              9.7072   ZZ=             -3.5525
   XY=             -1.9841   XZ=              2.0952   YZ=              0.2472
 Octapole moment (field-independent basis, Debye-Ang**2):
  XXX=           -511.3105  YYY=             95.9216  ZZZ=             95.0229  XYY=           -138.7916
  XXY=             26.5399  XXZ=             39.9368  XZZ=           -139.2147  YZZ=             23.3564
  YYZ=             33.0625  XYZ=              3.0616
 Hexadecapole moment (field-independent basis, Debye-Ang**3):
 XXXX=          -3433.3557 YYYY=           -711.1316 ZZZZ=           -426.2404 XXXY=            183.5279
 XXXZ=            233.8646 YYYX=            193.5436 YYYZ=           -186.2270 ZZZX=            193.0794
 ZZZY=           -163.6974 XXYY=           -629.1820 XXZZ=           -542.8634 YYZZ=           -186.2049
 XXYZ=            -53.7245 YYXZ=             65.2819 ZZXY=             42.4628
 N-N= 7.744448389456D+02 E-N=-8.701437250618D+03  KE= 3.005860673042D+03
 No NMR shielding tensors so no spin-rotation constants.
 Leave Link  601 at Thu May  2 14:18:58 2024, MaxMem=   134217728 cpu:               7.2 elap:               7.2
 (Enter /software/gaussian/g16-c01/sse4/g16/l9999.exe)
 Unable to Open any file for archive entry.
 1\1\GINC-BHX0016\SP\RwB97XD\6-311+G(d)\C6H5Br1N1O2(1+)\BWEIGHT\02-May-
 2024\0\\#P wB97XD/6-311+G* NoSymm #P Field=Z-126\\TitleMe\\1,1\C,0,0.5
 193,1.233,-0.0319\C,0,1.9445,1.2692,-0.0367\C,0,2.6204,0.0928,-0.025\C
 ,0,-0.196,0.0301,0.001\H,0,-0.0207,2.1742,-0.0434\H,0,2.4828,2.2089,-0
 .0361\H,0,-1.2777,0.0399,0.0117\N,0,4.0921,0.0959,0.0366\O,0,4.6393,-1
 .0217,0.1446\O,0,4.6649,1.1984,-0.0233\C,0,0.4943,-1.1671,0.021\H,0,-0
 .0325,-2.1149,0.0545\C,0,1.9629,-1.2165,-0.0211\H,0,2.4436,-1.9631,0.6
 151\Br,0,2.173,-1.9491,-1.9062\\Version=ES64L-G16RevC.01\HF=-3010.5337
 808\RMSD=9.257e-09\Dipole=-3.3020833,1.0666327,1.8425302\Quadrupole=-4
 .5759137,7.2170846,-2.6411709,-1.4751397,1.5576983,0.1837737\PG=C01 [X
 (C6H5Br1N1O2)]\\@
 The archive entry for this job was punched.


 IT CANNOT BE MY BEAUTY, FOR I HAVE NONE; AND IT CANNOT BE MY WIT,
 FOR HE HAS NOT ENOUGH TO KNOW THAT I HAVE ANY.
 -- CATHARINE SEDLEY, PUZZLED ABOUT WHY SHE WAS MISTRESS TO JAMES II
 Job cpu time:       0 days  0 hours 20 minutes 38.6 seconds.
 Elapsed time:       0 days  0 hours 20 minutes 39.5 seconds.
 File lengths (MBytes):  RWF=     40 Int=      0 D2E=      0 Chk=     32 Scr=      1
 Normal termination of Gaussian 16 at Thu May  2 14:18:59 2024.
