 Entering Gaussian System, Link 0=g16
 Initial command:
 /software/gaussian/g16-c01/sse4/g16/l1.exe "/local_scratch/24665269/Gau-10412.inp" -scrdir="/local_scratch/24665269/"
 Entering Link 1 = /software/gaussian/g16-c01/sse4/g16/l1.exe PID=     10416.
  
 Copyright (c) 1988-2019, Gaussian, Inc.  All Rights Reserved.
  
 This is part of the Gaussian(R) 16 program.  It is based on
 the Gaussian(R) 09 system (copyright 2009, Gaussian, Inc.),
 the Gaussian(R) 03 system (copyright 2003, Gaussian, Inc.),
 the Gaussian(R) 98 system (copyright 1998, Gaussian, Inc.),
 the Gaussian(R) 94 system (copyright 1995, Gaussian, Inc.),
 the Gaussian 92(TM) system (copyright 1992, Gaussian, Inc.),
 the Gaussian 90(TM) system (copyright 1990, Gaussian, Inc.),
 the Gaussian 88(TM) system (copyright 1988, Gaussian, Inc.),
 the Gaussian 86(TM) system (copyright 1986, Carnegie Mellon
 University), and the Gaussian 82(TM) system (copyright 1983,
 Carnegie Mellon University). Gaussian is a federally registered
 trademark of Gaussian, Inc.
  
 This software contains proprietary and confidential information,
 including trade secrets, belonging to Gaussian, Inc.
  
 This software is provided under written license and may be
 used, copied, transmitted, or stored only in accord with that
 written license.
  
 The following legend is applicable only to US Government
 contracts under FAR:
  
                    RESTRICTED RIGHTS LEGEND
  
 Use, reproduction and disclosure by the US Government is
 subject to restrictions as set forth in subparagraphs (a)
 and (c) of the Commercial Computer Software - Restricted
 Rights clause in FAR 52.227-19.
  
 Gaussian, Inc.
 340 Quinnipiac St., Bldg. 40, Wallingford CT 06492
  
  
 ---------------------------------------------------------------
 Warning -- This program may not be used in any manner that
 competes with the business of Gaussian, Inc. or will provide
 assistance to any competitor of Gaussian, Inc.  The licensee
 of this program is prohibited from giving any competitor of
 Gaussian, Inc. access to this program.  By using this program,
 the user acknowledges that Gaussian, Inc. is engaged in the
 business of creating and licensing software in the field of
 computational chemistry and represents and warrants to the
 licensee that it is not a competitor of Gaussian, Inc. and that
 it will not use this program in any manner prohibited above.
 ---------------------------------------------------------------
  

 Cite this work as:
 Gaussian 16, Revision C.01,
 M. J. Frisch, G. W. Trucks, H. B. Schlegel, G. E. Scuseria, 
 M. A. Robb, J. R. Cheeseman, G. Scalmani, V. Barone, 
 G. A. Petersson, H. Nakatsuji, X. Li, M. Caricato, A. V. Marenich, 
 J. Bloino, B. G. Janesko, R. Gomperts, B. Mennucci, H. P. Hratchian, 
 J. V. Ortiz, A. F. Izmaylov, J. L. Sonnenberg, D. Williams-Young, 
 F. Ding, F. Lipparini, F. Egidi, J. Goings, B. Peng, A. Petrone, 
 T. Henderson, D. Ranasinghe, V. G. Zakrzewski, J. Gao, N. Rega, 
 G. Zheng, W. Liang, M. Hada, M. Ehara, K. Toyota, R. Fukuda, 
 J. Hasegawa, M. Ishida, T. Nakajima, Y. Honda, O. Kitao, H. Nakai, 
 T. Vreven, K. Throssell, J. A. Montgomery, Jr., J. E. Peralta, 
 F. Ogliaro, M. J. Bearpark, J. J. Heyd, E. N. Brothers, K. N. Kudin, 
 V. N. Staroverov, T. A. Keith, R. Kobayashi, J. Normand, 
 K. Raghavachari, A. P. Rendell, J. C. Burant, S. S. Iyengar, 
 J. Tomasi, M. Cossi, J. M. Millam, M. Klene, C. Adamo, R. Cammi, 
 J. W. Ochterski, R. L. Martin, K. Morokuma, O. Farkas, 
 J. B. Foresman, and D. J. Fox, Gaussian, Inc., Wallingford CT, 2019.
 
 ******************************************
 Gaussian 16:  ES64L-G16RevC.01  3-Jul-2019
                 2-May-2024 
 ******************************************
 %chk=geometry.chk
 %mem=1GB
 %nprocshared=12
 Will use up to   12 processors via shared memory.
 ---------------------------------------
 #P wB97XD/6-311+G* NoSymm #P Field=X+58
 ---------------------------------------
 1/38=1,172=1/1;
 2/12=2,15=1,17=6,18=5,40=1/2;
 3/5=4,6=6,7=11,11=2,14=1,15=58,25=1,30=1,74=-58/1,2,3;
 4//1;
 5/5=2,38=5/2;
 6/7=2,8=2,9=2,10=2,28=1/1;
 99/5=1,9=1/99;
 Leave Link    1 at Thu May  2 13:57:33 2024, MaxMem=   134217728 cpu:               1.6 elap:               1.6
 (Enter /software/gaussian/g16-c01/sse4/g16/l101.exe)
 -------
 TitleMe
 -------
 Symbolic Z-matrix:
 Charge =  1 Multiplicity = 1
 C                     0.5193    1.233    -0.0319 
 C                     1.9445    1.2692   -0.0367 
 C                     2.6204    0.0928   -0.025 
 C                    -0.196     0.0301    0.001 
 H                    -0.0207    2.1742   -0.0434 
 H                     2.4828    2.2089   -0.0361 
 H                    -1.2777    0.0399    0.0117 
 N                     4.0921    0.0959    0.0366 
 O                     4.6393   -1.0217    0.1446 
 O                     4.6649    1.1984   -0.0233 
 C                     0.4943   -1.1671    0.021 
 H                    -0.0325   -2.1149    0.0545 
 C                     1.9629   -1.2165   -0.0211 
 H                     2.4436   -1.9631    0.6151 
 Br                    2.173    -1.9491   -1.9062 
 
 ITRead=  0  0  0  0  0  0  0  0  0  0  0  0  0  0  0
 MicOpt= -1 -1 -1 -1 -1 -1 -1 -1 -1 -1 -1 -1 -1 -1 -1
 NAtoms=     15 NQM=       15 NQMF=       0 NMMI=      0 NMMIF=      0
                NMic=       0 NMicF=      0.
                    Isotopes and Nuclear Properties:
 (Nuclear quadrupole moments (NQMom) in fm**2, nuclear magnetic moments (NMagM)
  in nuclear magnetons)

  Atom         1           2           3           4           5           6           7           8           9          10
 IAtWgt=          12          12          12          12           1           1           1          14          16          16
 AtmWgt=  12.0000000  12.0000000  12.0000000  12.0000000   1.0078250   1.0078250   1.0078250  14.0030740  15.9949146  15.9949146
 NucSpn=           0           0           0           0           1           1           1           2           0           0
 AtZEff=  -0.0000000  -0.0000000  -0.0000000  -0.0000000  -0.0000000  -0.0000000  -0.0000000  -0.0000000  -0.0000000  -0.0000000
 NQMom=    0.0000000   0.0000000   0.0000000   0.0000000   0.0000000   0.0000000   0.0000000   2.0440000   0.0000000   0.0000000
 NMagM=    0.0000000   0.0000000   0.0000000   0.0000000   2.7928460   2.7928460   2.7928460   0.4037610   0.0000000   0.0000000
 AtZNuc=   6.0000000   6.0000000   6.0000000   6.0000000   1.0000000   1.0000000   1.0000000   7.0000000   8.0000000   8.0000000

  Atom        11          12          13          14          15
 IAtWgt=          12           1          12           1          79
 AtmWgt=  12.0000000   1.0078250  12.0000000   1.0078250  78.9183361
 NucSpn=           0           1           0           1           3
 AtZEff=  -0.0000000  -0.0000000  -0.0000000  -0.0000000  -0.0000000
 NQMom=    0.0000000   0.0000000   0.0000000   0.0000000  31.3000000
 NMagM=    0.0000000   2.7928460   0.0000000   2.7928460   2.1063990
 AtZNuc=   6.0000000   1.0000000   6.0000000   1.0000000  35.0000000
 Leave Link  101 at Thu May  2 13:57:36 2024, MaxMem=   134217728 cpu:               1.8 elap:               1.8
 (Enter /software/gaussian/g16-c01/sse4/g16/l202.exe)
                          Input orientation:                          
 ---------------------------------------------------------------------
 Center     Atomic      Atomic             Coordinates (Angstroms)
 Number     Number       Type             X           Y           Z
 ---------------------------------------------------------------------
      1          6           0        0.519300    1.233000   -0.031900
      2          6           0        1.944500    1.269200   -0.036700
      3          6           0        2.620400    0.092800   -0.025000
      4          6           0       -0.196000    0.030100    0.001000
      5          1           0       -0.020700    2.174200   -0.043400
      6          1           0        2.482800    2.208900   -0.036100
      7          1           0       -1.277700    0.039900    0.011700
      8          7           0        4.092100    0.095900    0.036600
      9          8           0        4.639300   -1.021700    0.144600
     10          8           0        4.664900    1.198400   -0.023300
     11          6           0        0.494300   -1.167100    0.021000
     12          1           0       -0.032500   -2.114900    0.054500
     13          6           0        1.962900   -1.216500   -0.021100
     14          1           0        2.443600   -1.963100    0.615100
     15         35           0        2.173000   -1.949100   -1.906200
 ---------------------------------------------------------------------
                    Distance matrix (angstroms):
                    1          2          3          4          5
     1  C    0.000000
     2  C    1.425668   0.000000
     3  C    2.390549   1.356796   0.000000
     4  C    1.399895   2.473566   2.817218   0.000000
     5  H    1.085168   2.163581   3.362733   2.151712   0.000000
     6  H    2.192654   1.082960   2.120598   3.453189   2.503751
     7  H    2.157452   3.449071   3.898632   1.081797   2.477564
     8  N    3.750012   2.448304   1.472992   4.288753   4.608780
     9  O    4.699917   3.541615   2.312322   4.950458   5.653735
    10  O    4.145753   2.721354   2.324292   4.999386   4.786171
    11  C    2.400813   2.835836   2.471794   1.382101   3.381369
    12  H    3.394169   3.920329   3.452266   2.151887   4.290233
    13  C    2.843264   2.485817   1.465124   2.493060   3.928360
    14  H    3.786370   3.334922   2.160489   3.364142   4.860416
    15  Br   4.046416   3.728900   2.812194   3.628609   5.028314
                    6          7          8          9         10
     6  H    0.000000
     7  H    4.341452   0.000000
     8  N    2.657047   5.370150   0.000000
     9  O    3.888434   6.012948   1.249048   0.000000
    10  O    2.404752   6.054572   1.243863   2.226587   0.000000
    11  C    3.918516   2.144043   3.813080   4.149391   4.794941
    12  H    5.003018   2.489080   4.679774   4.798846   5.748876
    13  C    3.464662   3.475788   2.501842   2.688591   3.623886
    14  H    4.222698   4.268978   2.700314   2.434893   3.916224
    15  Br   4.569706   4.420610   3.411663   3.338935   4.434144
                   11         12         13         14         15
    11  C    0.000000
    12  H    1.084880   0.000000
    13  C    1.470034   2.189625   0.000000
    14  H    2.187771   2.543302   1.092353   0.000000
    15  Br   2.672762   2.955683   2.033334   2.535818   0.000000
 Symmetry turned off by external request.
 Stoichiometry    C6H5BrNO2(1+)
 Framework group  C1[X(C6H5BrNO2)]
 Deg. of freedom    39
 Full point group                 C1      NOp   1
 Rotational constants (GHZ):           1.1632986           0.9594224           0.5957624
 Leave Link  202 at Thu May  2 13:57:37 2024, MaxMem=   134217728 cpu:               1.2 elap:               1.2
 (Enter /software/gaussian/g16-c01/sse4/g16/l301.exe)
 Standard basis: 6-311+G(d) (5D, 7F)
 Ernie: Thresh=  0.10000D-02 Tol=  0.10000D-05 Strict=F.
 The following finite field(s) will be applied:
 An electric field of              0.0058  0.0000  0.0000
   261 basis functions,   443 primitive gaussians,   273 cartesian basis functions
    49 alpha electrons       49 beta electrons
       nuclear repulsion energy       772.8945969580 Hartrees.
 IExCor= 4639 DFT=T Ex+Corr=wB97XD ExCW=0 ScaHFX=  1.000000
 ScaDFX=  1.000000  1.000000  1.000000  1.000000 ScalE2=  1.000000  1.000000
 IRadAn=      5 IRanWt=     -1 IRanGd=            0 ICorTp=0 IEmpDi=121
 HFx  wShort=  0.000000 wLong=  0.200000 cFull=  0.222036 cShort=  0.000000 cLong=  0.777964
 DFx  wShort=  0.000000 wLong=  0.200000 cFull=  0.000000 cShort=  0.000000 cLong=  1.000000
 NAtoms=   15 NActive=   15 NUniq=   15 SFac= 1.00D+00 NAtFMM=   60 NAOKFM=F Big=F
 Integral buffers will be    131072 words long.
 Raffenetti 2 integral format.
 Two-electron integral symmetry is turned off.
 R6Disp:  Grimme-D2 Dispersion energy=       -0.0080346408 Hartrees.
 Nuclear repulsion after empirical dispersion term =      772.8865623173 Hartrees.
 Leave Link  301 at Thu May  2 13:57:38 2024, MaxMem=   134217728 cpu:               1.2 elap:               1.2
 (Enter /software/gaussian/g16-c01/sse4/g16/l302.exe)
 NPDir=0 NMtPBC=     1 NCelOv=     1 NCel=       1 NClECP=     1 NCelD=      1
         NCelK=      1 NCelE2=     1 NClLst=     1 CellRange=     0.0.
 One-electron integrals computed using PRISM.
 NBasis=   261 RedAO= T EigKep=  2.52D-06  NBF=   261
 NBsUse=   261 1.00D-06 EigRej= -1.00D+00 NBFU=   261
 Precomputing XC quadrature grid using
 IXCGrd= 4 IRadAn=           5 IRanWt=          -1 IRanGd=           0 AccXCQ= 0.00D+00.
 Generated NRdTot=       0 NPtTot=           0 NUsed=           0 NTot=          32
 NSgBfM=   273   273   273   273   273 MxSgAt=    15 MxSgA2=    15.
 Leave Link  302 at Thu May  2 13:58:00 2024, MaxMem=   134217728 cpu:              21.7 elap:              21.7
 (Enter /software/gaussian/g16-c01/sse4/g16/l303.exe)
 DipDrv:  MaxL=1.
 The nuclear repulsion energy is now       775.3723968031 hartrees.
 Leave Link  303 at Thu May  2 13:58:04 2024, MaxMem=   134217728 cpu:               3.3 elap:               3.3
 (Enter /software/gaussian/g16-c01/sse4/g16/l401.exe)
 ExpMin= 3.50D-02 ExpMax= 4.40D+05 ExpMxC= 1.51D+04 IAcc=3 IRadAn=         5 AccDes= 0.00D+00
 Harris functional with IExCor= 4639 and IRadAn=       5 diagonalized for initial guess.
 HarFok:  IExCor= 4639 AccDes= 0.00D+00 IRadAn=         5 IDoV= 1 UseB2=F ITyADJ=14
 ICtDFT=  3500011 ScaDFX=  1.000000  1.000000  1.000000  1.000000
 FoFCou: FMM=F IPFlag=           0 FMFlag=      100000 FMFlg1=           0
         NFxFlg=           0 DoJE=T BraDBF=F KetDBF=T FulRan=T
         wScrn=  0.000000 ICntrl=       500 IOpCl=  0 I1Cent=   200000004 NGrid=           0
         NMat0=    1 NMatS0=      1 NMatT0=    0 NMatD0=    1 NMtDS0=    0 NMtDT0=    0
 Symmetry not used in FoFCou.
 Harris En= -2970.59492125581    
 JPrj=0 DoOrth=F DoCkMO=F.
 Leave Link  401 at Thu May  2 13:58:35 2024, MaxMem=   134217728 cpu:              31.3 elap:              31.3
 (Enter /software/gaussian/g16-c01/sse4/g16/l502.exe)
 Two-electron integral symmetry not used.
 Closed shell SCF:
 Using DIIS extrapolation, IDIIS=  1040.
 NGot=   134217728 LenX=   134063053 LenY=   133988083
 Requested convergence on RMS density matrix=1.00D-08 within 128 cycles.
 Requested convergence on MAX density matrix=1.00D-06.
 Requested convergence on             energy=1.00D-06.
 No special actions if energy rises.
 Fock matrices will be formed incrementally for  20 cycles.

 Cycle   1  Pass 1  IDiag  1:
 FoFJK:  IHMeth= 1 ICntrl=       0 DoSepK=T KAlg= 0 I1Cent=           0 FoldK=F
 IRaf=         1 NMat=       1 IRICut=       1 DoRegI=T DoRafI=F ISym2E= 0 IDoP0=0 IntGTp=1.
 FoFCou: FMM=F IPFlag=           0 FMFlag=      100000 FMFlg1=           0
         NFxFlg=           0 DoJE=T BraDBF=F KetDBF=F FulRan=T
         wScrn=  0.000000 ICntrl=       500 IOpCl=  0 I1Cent=           0 NGrid=           0
         NMat0=    1 NMatS0=      1 NMatT0=    0 NMatD0=    1 NMtDS0=    0 NMtDT0=    0
 Symmetry not used in FoFCou.
 E= -3009.71186030361    
 DIIS: error= 2.90D-01 at cycle   1 NSaved=   1.
 NSaved= 1 IEnMin= 1 EnMin= -3009.71186030361     IErMin= 1 ErrMin= 2.90D-01
 ErrMax= 2.90D-01  0.00D+00 EMaxC= 1.00D-01 BMatC= 1.19D+01 BMatP= 1.19D+01
 IDIUse=3 WtCom= 0.00D+00 WtEn= 1.00D+00
 Coeff-Com:  0.100D+01
 Coeff-En:   0.100D+01
 Coeff:      0.100D+01
 Gap=     0.302 Goal=   None    Shift=    0.000
 GapD=    0.302 DampG=1.000 DampE=0.250 DampFc=0.2500 IDamp=-1.
 Damping current iteration by 2.50D-01
 RMSDP=4.54D-02 MaxDP=4.67D+00              OVMax= 2.64D-01

 Cycle   2  Pass 1  IDiag  1:
 RMSU=  6.11D-03    CP:  9.10D-01
 E= -3009.99652292635     Delta-E=       -0.284662622742 Rises=F Damp=T
 DIIS: error= 2.19D-01 at cycle   2 NSaved=   2.
 NSaved= 2 IEnMin= 2 EnMin= -3009.99652292635     IErMin= 2 ErrMin= 2.19D-01
 ErrMax= 2.19D-01  0.00D+00 EMaxC= 1.00D-01 BMatC= 5.45D+00 BMatP= 1.19D+01
 IDIUse=3 WtCom= 0.00D+00 WtEn= 1.00D+00
 Coeff-Com: -0.184D+01 0.284D+01
 Coeff-En:   0.000D+00 0.100D+01
 Coeff:      0.000D+00 0.100D+01
 Gap=     0.264 Goal=   None    Shift=    0.000
 RMSDP=3.53D-02 MaxDP=3.82D+00 DE=-2.85D-01 OVMax= 7.10D-02

 Cycle   3  Pass 1  IDiag  1:
 RMSU=  4.75D-03    CP:  6.03D-01  3.00D+00
 E= -3010.37666225103     Delta-E=       -0.380139324676 Rises=F Damp=F
 DIIS: error= 6.58D-02 at cycle   3 NSaved=   3.
 NSaved= 3 IEnMin= 3 EnMin= -3010.37666225103     IErMin= 3 ErrMin= 6.58D-02
 ErrMax= 6.58D-02  0.00D+00 EMaxC= 1.00D-01 BMatC= 7.29D-01 BMatP= 5.45D+00
 IDIUse=3 WtCom= 3.42D-01 WtEn= 6.58D-01
 Coeff-Com:  0.265D+01-0.347D+01 0.183D+01
 Coeff-En:   0.302D-01 0.000D+00 0.970D+00
 Coeff:      0.924D+00-0.119D+01 0.126D+01
 Gap=     0.255 Goal=   None    Shift=    0.000
 RMSDP=1.12D-02 MaxDP=7.32D-01 DE=-3.80D-01 OVMax= 6.83D-02

 Cycle   4  Pass 1  IDiag  1:
 RMSU=  5.57D-03    CP:  6.34D-01  1.86D+00  2.19D+00
 E= -3010.48090824782     Delta-E=       -0.104245996797 Rises=F Damp=F
 DIIS: error= 3.82D-02 at cycle   4 NSaved=   4.
 NSaved= 4 IEnMin= 4 EnMin= -3010.48090824782     IErMin= 4 ErrMin= 3.82D-02
 ErrMax= 3.82D-02  0.00D+00 EMaxC= 1.00D-01 BMatC= 2.27D-01 BMatP= 7.29D-01
 IDIUse=3 WtCom= 6.18D-01 WtEn= 3.82D-01
 Coeff-Com: -0.463D-01 0.754D-01 0.342D+00 0.629D+00
 Coeff-En:   0.000D+00 0.000D+00 0.199D+00 0.801D+00
 Coeff:     -0.286D-01 0.467D-01 0.287D+00 0.695D+00
 Gap=     0.256 Goal=   None    Shift=    0.000
 RMSDP=5.02D-03 MaxDP=5.85D-01 DE=-1.04D-01 OVMax= 3.07D-02

 Cycle   5  Pass 1  IDiag  1:
 RMSU=  1.49D-03    CP:  5.97D-01  2.07D+00  2.05D+00  5.60D-01
 E= -3010.52453227517     Delta-E=       -0.043624027342 Rises=F Damp=F
 DIIS: error= 6.51D-03 at cycle   5 NSaved=   5.
 NSaved= 5 IEnMin= 5 EnMin= -3010.52453227517     IErMin= 5 ErrMin= 6.51D-03
 ErrMax= 6.51D-03  0.00D+00 EMaxC= 1.00D-01 BMatC= 8.70D-03 BMatP= 2.27D-01
 IDIUse=3 WtCom= 9.35D-01 WtEn= 6.51D-02
 Coeff-Com: -0.115D+00 0.158D+00 0.107D+00 0.386D+00 0.464D+00
 Coeff-En:   0.000D+00 0.000D+00 0.000D+00 0.000D+00 0.100D+01
 Coeff:     -0.107D+00 0.148D+00 0.100D+00 0.361D+00 0.498D+00
 Gap=     0.247 Goal=   None    Shift=    0.000
 RMSDP=1.43D-03 MaxDP=1.74D-01 DE=-4.36D-02 OVMax= 2.39D-02

 Cycle   6  Pass 1  IDiag  1:
 RMSU=  5.65D-04    CP:  6.03D-01  2.07D+00  2.12D+00  7.35D-01  7.00D-01
 E= -3010.52699986567     Delta-E=       -0.002467590501 Rises=F Damp=F
 DIIS: error= 2.63D-03 at cycle   6 NSaved=   6.
 NSaved= 6 IEnMin= 6 EnMin= -3010.52699986567     IErMin= 6 ErrMin= 2.63D-03
 ErrMax= 2.63D-03  0.00D+00 EMaxC= 1.00D-01 BMatC= 6.05D-04 BMatP= 8.70D-03
 IDIUse=3 WtCom= 9.74D-01 WtEn= 2.63D-02
 Coeff-Com: -0.983D-01 0.132D+00 0.128D-02 0.164D+00 0.339D+00 0.461D+00
 Coeff-En:   0.000D+00 0.000D+00 0.000D+00 0.000D+00 0.916D-01 0.908D+00
 Coeff:     -0.957D-01 0.129D+00 0.125D-02 0.160D+00 0.333D+00 0.473D+00
 Gap=     0.246 Goal=   None    Shift=    0.000
 RMSDP=3.97D-04 MaxDP=3.60D-02 DE=-2.47D-03 OVMax= 8.29D-03

 Cycle   7  Pass 1  IDiag  1:
 RMSU=  2.02D-04    CP:  6.02D-01  2.06D+00  2.12D+00  7.01D-01  7.99D-01
                    CP:  6.88D-01
 E= -3010.52742041261     Delta-E=       -0.000420546940 Rises=F Damp=F
 DIIS: error= 3.03D-04 at cycle   7 NSaved=   7.
 NSaved= 7 IEnMin= 7 EnMin= -3010.52742041261     IErMin= 7 ErrMin= 3.03D-04
 ErrMax= 3.03D-04  0.00D+00 EMaxC= 1.00D-01 BMatC= 1.34D-05 BMatP= 6.05D-04
 IDIUse=3 WtCom= 9.97D-01 WtEn= 3.03D-03
 Coeff-Com: -0.356D-01 0.475D-01-0.116D-01 0.346D-01 0.850D-01 0.178D+00
 Coeff-Com:  0.703D+00
 Coeff-En:   0.000D+00 0.000D+00 0.000D+00 0.000D+00 0.000D+00 0.000D+00
 Coeff-En:   0.100D+01
 Coeff:     -0.355D-01 0.473D-01-0.116D-01 0.345D-01 0.847D-01 0.177D+00
 Coeff:      0.703D+00
 Gap=     0.247 Goal=   None    Shift=    0.000
 RMSDP=1.29D-04 MaxDP=8.17D-03 DE=-4.21D-04 OVMax= 1.05D-03

 Cycle   8  Pass 1  IDiag  1:
 RMSU=  5.19D-05    CP:  6.02D-01  2.05D+00  2.13D+00  7.11D-01  8.34D-01
                    CP:  7.15D-01  9.33D-01
 E= -3010.52743350090     Delta-E=       -0.000013088290 Rises=F Damp=F
 DIIS: error= 1.11D-04 at cycle   8 NSaved=   8.
 NSaved= 8 IEnMin= 8 EnMin= -3010.52743350090     IErMin= 8 ErrMin= 1.11D-04
 ErrMax= 1.11D-04  0.00D+00 EMaxC= 1.00D-01 BMatC= 1.94D-06 BMatP= 1.34D-05
 IDIUse=3 WtCom= 9.99D-01 WtEn= 1.11D-03
 Coeff-Com:  0.294D-02-0.413D-02-0.339D-02-0.103D-01-0.225D-01-0.282D-01
 Coeff-Com:  0.181D+00 0.884D+00
 Coeff-En:   0.000D+00 0.000D+00 0.000D+00 0.000D+00 0.000D+00 0.000D+00
 Coeff-En:   0.000D+00 0.100D+01
 Coeff:      0.294D-02-0.412D-02-0.339D-02-0.103D-01-0.225D-01-0.282D-01
 Coeff:      0.181D+00 0.884D+00
 Gap=     0.247 Goal=   None    Shift=    0.000
 RMSDP=6.92D-05 MaxDP=6.72D-03 DE=-1.31D-05 OVMax= 7.71D-04

 Cycle   9  Pass 1  IDiag  1:
 RMSU=  2.09D-05    CP:  6.02D-01  2.05D+00  2.13D+00  7.16D-01  8.42D-01
                    CP:  7.22D-01  1.09D+00  1.15D+00
 E= -3010.52743598616     Delta-E=       -0.000002485258 Rises=F Damp=F
 DIIS: error= 2.09D-05 at cycle   9 NSaved=   9.
 NSaved= 9 IEnMin= 9 EnMin= -3010.52743598616     IErMin= 9 ErrMin= 2.09D-05
 ErrMax= 2.09D-05  0.00D+00 EMaxC= 1.00D-01 BMatC= 1.76D-07 BMatP= 1.94D-06
 IDIUse=1 WtCom= 1.00D+00 WtEn= 0.00D+00
 Coeff-Com:  0.537D-02-0.723D-02 0.354D-03-0.752D-02-0.158D-01-0.295D-01
 Coeff-Com: -0.425D-01 0.276D+00 0.821D+00
 Coeff:      0.537D-02-0.723D-02 0.354D-03-0.752D-02-0.158D-01-0.295D-01
 Coeff:     -0.425D-01 0.276D+00 0.821D+00
 Gap=     0.247 Goal=   None    Shift=    0.000
 RMSDP=2.75D-05 MaxDP=2.73D-03 DE=-2.49D-06 OVMax= 2.60D-04

 Cycle  10  Pass 1  IDiag  1:
 RMSU=  7.13D-06    CP:  6.02D-01  2.05D+00  2.13D+00  7.16D-01  8.46D-01
                    CP:  7.11D-01  1.12D+00  1.36D+00  1.00D+00
 E= -3010.52743632757     Delta-E=       -0.000000341411 Rises=F Damp=F
 DIIS: error= 1.15D-05 at cycle  10 NSaved=  10.
 NSaved=10 IEnMin=10 EnMin= -3010.52743632757     IErMin=10 ErrMin= 1.15D-05
 ErrMax= 1.15D-05  0.00D+00 EMaxC= 1.00D-01 BMatC= 3.56D-08 BMatP= 1.76D-07
 IDIUse=1 WtCom= 1.00D+00 WtEn= 0.00D+00
 Coeff-Com:  0.618D-03-0.813D-03 0.248D-03-0.629D-03 0.488D-03-0.323D-04
 Coeff-Com: -0.340D-01-0.346D-01 0.210D+00 0.858D+00
 Coeff:      0.618D-03-0.813D-03 0.248D-03-0.629D-03 0.488D-03-0.323D-04
 Coeff:     -0.340D-01-0.346D-01 0.210D+00 0.858D+00
 Gap=     0.247 Goal=   None    Shift=    0.000
 RMSDP=8.23D-06 MaxDP=7.86D-04 DE=-3.41D-07 OVMax= 1.40D-04

 Cycle  11  Pass 1  IDiag  1:
 RMSU=  4.96D-06    CP:  6.02D-01  2.05D+00  2.13D+00  7.16D-01  8.46D-01
                    CP:  7.08D-01  1.12D+00  1.42D+00  1.06D+00  1.15D+00
 E= -3010.52743638226     Delta-E=       -0.000000054697 Rises=F Damp=F
 DIIS: error= 2.54D-06 at cycle  11 NSaved=  11.
 NSaved=11 IEnMin=11 EnMin= -3010.52743638226     IErMin=11 ErrMin= 2.54D-06
 ErrMax= 2.54D-06  0.00D+00 EMaxC= 1.00D-01 BMatC= 2.85D-09 BMatP= 3.56D-08
 IDIUse=1 WtCom= 1.00D+00 WtEn= 0.00D+00
 Coeff-Com: -0.924D-04 0.125D-03 0.546D-04 0.388D-03 0.129D-02 0.267D-02
 Coeff-Com:  0.443D-02-0.159D-01-0.943D-01-0.425D-01 0.114D+01
 Coeff:     -0.924D-04 0.125D-03 0.546D-04 0.388D-03 0.129D-02 0.267D-02
 Coeff:      0.443D-02-0.159D-01-0.943D-01-0.425D-01 0.114D+01
 Gap=     0.247 Goal=   None    Shift=    0.000
 RMSDP=8.45D-06 MaxDP=8.34D-04 DE=-5.47D-08 OVMax= 9.31D-05

 Cycle  12  Pass 1  IDiag  1:
 RMSU=  1.08D-06    CP:  6.02D-01  2.05D+00  2.13D+00  7.15D-01  8.46D-01
                    CP:  7.03D-01  1.12D+00  1.46D+00  1.05D+00  1.35D+00
                    CP:  1.61D+00
 E= -3010.52743639592     Delta-E=       -0.000000013661 Rises=F Damp=F
 DIIS: error= 1.91D-06 at cycle  12 NSaved=  12.
 NSaved=12 IEnMin=12 EnMin= -3010.52743639592     IErMin=12 ErrMin= 1.91D-06
 ErrMax= 1.91D-06  0.00D+00 EMaxC= 1.00D-01 BMatC= 7.13D-10 BMatP= 2.85D-09
 IDIUse=1 WtCom= 1.00D+00 WtEn= 0.00D+00
 Coeff-Com: -0.112D-03 0.147D-03-0.820D-05 0.260D-03 0.382D-03 0.975D-03
 Coeff-Com:  0.812D-02 0.354D-03-0.804D-01-0.186D+00 0.461D+00 0.796D+00
 Coeff:     -0.112D-03 0.147D-03-0.820D-05 0.260D-03 0.382D-03 0.975D-03
 Coeff:      0.812D-02 0.354D-03-0.804D-01-0.186D+00 0.461D+00 0.796D+00
 Gap=     0.247 Goal=   None    Shift=    0.000
 RMSDP=2.51D-06 MaxDP=2.64D-04 DE=-1.37D-08 OVMax= 5.22D-05

 Cycle  13  Pass 1  IDiag  1:
 RMSU=  4.74D-07    CP:  6.02D-01  2.05D+00  2.13D+00  7.15D-01  8.46D-01
                    CP:  7.02D-01  1.11D+00  1.47D+00  1.05D+00  1.39D+00
                    CP:  1.85D+00  1.27D+00
 E= -3010.52743639920     Delta-E=       -0.000000003276 Rises=F Damp=F
 DIIS: error= 7.75D-07 at cycle  13 NSaved=  13.
 NSaved=13 IEnMin=13 EnMin= -3010.52743639920     IErMin=13 ErrMin= 7.75D-07
 ErrMax= 7.75D-07  0.00D+00 EMaxC= 1.00D-01 BMatC= 1.50D-10 BMatP= 7.13D-10
 IDIUse=1 WtCom= 1.00D+00 WtEn= 0.00D+00
 Coeff-Com:  0.709D-05-0.961D-05-0.116D-04-0.675D-04-0.307D-03-0.630D-03
 Coeff-Com: -0.106D-02 0.276D-02 0.202D-01 0.247D-02-0.235D+00 0.155D+00
 Coeff-Com:  0.106D+01
 Coeff:      0.709D-05-0.961D-05-0.116D-04-0.675D-04-0.307D-03-0.630D-03
 Coeff:     -0.106D-02 0.276D-02 0.202D-01 0.247D-02-0.235D+00 0.155D+00
 Coeff:      0.106D+01
 Gap=     0.247 Goal=   None    Shift=    0.000
 RMSDP=9.23D-07 MaxDP=7.85D-05 DE=-3.28D-09 OVMax= 3.07D-05

 Cycle  14  Pass 1  IDiag  1:
 RMSU=  2.61D-07    CP:  6.02D-01  2.05D+00  2.13D+00  7.15D-01  8.46D-01
                    CP:  7.01D-01  1.11D+00  1.48D+00  1.05D+00  1.39D+00
                    CP:  1.92D+00  1.55D+00  1.54D+00
 E= -3010.52743640004     Delta-E=       -0.000000000840 Rises=F Damp=F
 DIIS: error= 3.01D-07 at cycle  14 NSaved=  14.
 NSaved=14 IEnMin=14 EnMin= -3010.52743640004     IErMin=14 ErrMin= 3.01D-07
 ErrMax= 3.01D-07  0.00D+00 EMaxC= 1.00D-01 BMatC= 2.90D-11 BMatP= 1.50D-10
 IDIUse=1 WtCom= 1.00D+00 WtEn= 0.00D+00
 Coeff-Com:  0.958D-05-0.126D-04-0.639D-05-0.590D-04-0.156D-03-0.334D-03
 Coeff-Com: -0.165D-02 0.680D-03 0.214D-01 0.299D-01-0.181D+00-0.673D-01
 Coeff-Com:  0.345D+00 0.853D+00
 Coeff:      0.958D-05-0.126D-04-0.639D-05-0.590D-04-0.156D-03-0.334D-03
 Coeff:     -0.165D-02 0.680D-03 0.214D-01 0.299D-01-0.181D+00-0.673D-01
 Coeff:      0.345D+00 0.853D+00
 Gap=     0.247 Goal=   None    Shift=    0.000
 RMSDP=4.02D-07 MaxDP=2.70D-05 DE=-8.40D-10 OVMax= 1.45D-05

 Cycle  15  Pass 1  IDiag  1:
 RMSU=  9.01D-08    CP:  6.02D-01  2.05D+00  2.13D+00  7.15D-01  8.46D-01
                    CP:  7.01D-01  1.11D+00  1.48D+00  1.05D+00  1.38D+00
                    CP:  1.95D+00  1.66D+00  1.84D+00  1.45D+00
 E= -3010.52743640023     Delta-E=       -0.000000000191 Rises=F Damp=F
 DIIS: error= 1.59D-07 at cycle  15 NSaved=  15.
 NSaved=15 IEnMin=15 EnMin= -3010.52743640023     IErMin=15 ErrMin= 1.59D-07
 ErrMax= 1.59D-07  0.00D+00 EMaxC= 1.00D-01 BMatC= 7.08D-12 BMatP= 2.90D-11
 IDIUse=1 WtCom= 1.00D+00 WtEn= 0.00D+00
 Coeff-Com:  0.724D-05-0.962D-05 0.196D-05-0.655D-05 0.254D-04 0.641D-04
 Coeff-Com: -0.195D-03-0.414D-03 0.193D-02 0.771D-02 0.183D-02-0.476D-01
 Coeff-Com: -0.180D+00 0.307D+00 0.910D+00
 Coeff:      0.724D-05-0.962D-05 0.196D-05-0.655D-05 0.254D-04 0.641D-04
 Coeff:     -0.195D-03-0.414D-03 0.193D-02 0.771D-02 0.183D-02-0.476D-01
 Coeff:     -0.180D+00 0.307D+00 0.910D+00
 Gap=     0.247 Goal=   None    Shift=    0.000
 RMSDP=1.38D-07 MaxDP=8.78D-06 DE=-1.91D-10 OVMax= 6.92D-06

 Cycle  16  Pass 1  IDiag  1:
 RMSU=  4.43D-08    CP:  6.02D-01  2.05D+00  2.13D+00  7.15D-01  8.46D-01
                    CP:  7.01D-01  1.11D+00  1.48D+00  1.04D+00  1.38D+00
                    CP:  1.95D+00  1.69D+00  1.95D+00  1.74D+00  1.34D+00
 E= -3010.52743640025     Delta-E=       -0.000000000020 Rises=F Damp=F
 DIIS: error= 4.07D-08 at cycle  16 NSaved=  16.
 NSaved=16 IEnMin=16 EnMin= -3010.52743640025     IErMin=16 ErrMin= 4.07D-08
 ErrMax= 4.07D-08  0.00D+00 EMaxC= 1.00D-01 BMatC= 5.69D-13 BMatP= 7.08D-12
 IDIUse=1 WtCom= 1.00D+00 WtEn= 0.00D+00
 Coeff-Com:  0.138D-05-0.186D-05 0.143D-05 0.454D-05 0.230D-04 0.563D-04
 Coeff-Com:  0.126D-03-0.270D-03-0.191D-02-0.119D-02 0.199D-01-0.531D-02
 Coeff-Com: -0.880D-01-0.246D-01 0.199D+00 0.902D+00
 Coeff:      0.138D-05-0.186D-05 0.143D-05 0.454D-05 0.230D-04 0.563D-04
 Coeff:      0.126D-03-0.270D-03-0.191D-02-0.119D-02 0.199D-01-0.531D-02
 Coeff:     -0.880D-01-0.246D-01 0.199D+00 0.902D+00
 Gap=     0.247 Goal=   None    Shift=    0.000
 RMSDP=7.93D-08 MaxDP=9.50D-06 DE=-1.96D-11 OVMax= 2.11D-06

 Cycle  17  Pass 1  IDiag  1:
 RMSU=  1.44D-08    CP:  6.02D-01  2.05D+00  2.13D+00  7.15D-01  8.46D-01
                    CP:  7.01D-01  1.11D+00  1.48D+00  1.04D+00  1.38D+00
                    CP:  1.95D+00  1.69D+00  2.00D+00  1.88D+00  1.58D+00
                    CP:  1.07D+00
 E= -3010.52743640028     Delta-E=       -0.000000000030 Rises=F Damp=F
 DIIS: error= 1.50D-08 at cycle  17 NSaved=  17.
 NSaved=17 IEnMin=17 EnMin= -3010.52743640028     IErMin=17 ErrMin= 1.50D-08
 ErrMax= 1.50D-08  0.00D+00 EMaxC= 1.00D-01 BMatC= 1.24D-13 BMatP= 5.69D-13
 IDIUse=1 WtCom= 1.00D+00 WtEn= 0.00D+00
 Coeff-Com: -0.641D-06 0.852D-06 0.235D-06 0.262D-05 0.577D-05 0.144D-04
 Coeff-Com:  0.645D-04-0.280D-04-0.856D-03-0.119D-02 0.729D-02 0.473D-02
 Coeff-Com: -0.548D-02-0.449D-01-0.475D-01 0.309D+00 0.779D+00
 Coeff:     -0.641D-06 0.852D-06 0.235D-06 0.262D-05 0.577D-05 0.144D-04
 Coeff:      0.645D-04-0.280D-04-0.856D-03-0.119D-02 0.729D-02 0.473D-02
 Coeff:     -0.548D-02-0.449D-01-0.475D-01 0.309D+00 0.779D+00
 Gap=     0.247 Goal=   None    Shift=    0.000
 RMSDP=1.74D-08 MaxDP=1.51D-06 DE=-2.96D-11 OVMax= 3.45D-07

 Cycle  18  Pass 1  IDiag  1:
 RMSU=  4.14D-09    CP:  6.02D-01  2.05D+00  2.13D+00  7.15D-01  8.46D-01
                    CP:  7.01D-01  1.11D+00  1.48D+00  1.04D+00  1.38D+00
                    CP:  1.95D+00  1.69D+00  2.00D+00  1.89D+00  1.65D+00
                    CP:  1.24D+00  1.19D+00
 E= -3010.52743640024     Delta-E=        0.000000000036 Rises=F Damp=F
 DIIS: error= 7.04D-09 at cycle  18 NSaved=  18.
 NSaved=18 IEnMin=17 EnMin= -3010.52743640028     IErMin=18 ErrMin= 7.04D-09
 ErrMax= 7.04D-09  0.00D+00 EMaxC= 1.00D-01 BMatC= 2.46D-14 BMatP= 1.24D-13
 IDIUse=1 WtCom= 1.00D+00 WtEn= 0.00D+00
 Coeff-Com: -0.218D-06 0.292D-06-0.213D-06-0.790D-06-0.525D-05-0.113D-04
 Coeff-Com: -0.175D-04 0.736D-04 0.217D-03-0.153D-03-0.320D-02 0.186D-02
 Coeff-Com:  0.207D-01-0.895D-02-0.651D-01-0.129D+00 0.244D+00 0.940D+00
 Coeff:     -0.218D-06 0.292D-06-0.213D-06-0.790D-06-0.525D-05-0.113D-04
 Coeff:     -0.175D-04 0.736D-04 0.217D-03-0.153D-03-0.320D-02 0.186D-02
 Coeff:      0.207D-01-0.895D-02-0.651D-01-0.129D+00 0.244D+00 0.940D+00
 Gap=     0.247 Goal=   None    Shift=    0.000
 RMSDP=1.92D-08 MaxDP=1.77D-06 DE= 3.64D-11 OVMax= 3.71D-07

 Cycle  19  Pass 1  IDiag  1:
 RMSU=  2.13D-09    CP:  6.02D-01  2.05D+00  2.13D+00  7.15D-01  8.46D-01
                    CP:  7.01D-01  1.11D+00  1.48D+00  1.04D+00  1.38D+00
                    CP:  1.95D+00  1.69D+00  2.01D+00  1.90D+00  1.69D+00
                    CP:  1.32D+00  1.45D+00  1.46D+00
 E= -3010.52743640026     Delta-E=       -0.000000000013 Rises=F Damp=F
 DIIS: error= 3.72D-09 at cycle  19 NSaved=  19.
 NSaved=19 IEnMin=17 EnMin= -3010.52743640028     IErMin=19 ErrMin= 3.72D-09
 ErrMax= 3.72D-09  0.00D+00 EMaxC= 1.00D-01 BMatC= 2.00D-15 BMatP= 2.46D-14
 IDIUse=1 WtCom= 1.00D+00 WtEn= 0.00D+00
 Large coefficients: NSaved= 19 BigCof=    0.00 CofMax=   10.00 Det=-4.29D-15
 Inversion failed.  Reducing to 18 matrices.
 Large coefficients: NSaved= 18 BigCof=    0.00 CofMax=   10.00 Det=-4.32D-15
 Inversion failed.  Reducing to 17 matrices.
 Large coefficients: NSaved= 17 BigCof=    0.00 CofMax=   10.00 Det=-5.34D-15
 Inversion failed.  Reducing to 16 matrices.
 Large coefficients: NSaved= 16 BigCof=    0.00 CofMax=   10.00 Det=-5.68D-15
 Inversion failed.  Reducing to 15 matrices.
 Coeff-Com:  0.120D-07-0.284D-06-0.263D-05 0.185D-05 0.270D-04 0.389D-04
 Coeff-Com: -0.250D-03-0.283D-03 0.640D-03 0.271D-02 0.455D-02-0.282D-01
 Coeff-Com: -0.627D-01 0.723D-02 0.108D+01
 Coeff:      0.120D-07-0.284D-06-0.263D-05 0.185D-05 0.270D-04 0.389D-04
 Coeff:     -0.250D-03-0.283D-03 0.640D-03 0.271D-02 0.455D-02-0.282D-01
 Coeff:     -0.627D-01 0.723D-02 0.108D+01
 Gap=     0.247 Goal=   None    Shift=    0.000
 RMSDP=4.18D-09 MaxDP=3.47D-07 DE=-1.27D-11 OVMax= 8.33D-08

 SCF Done:  E(RwB97XD) =  -3010.52743640     A.U. after   19 cycles
            NFock= 19  Conv=0.42D-08     -V/T= 2.0016
 KE= 3.005858843133D+03 PE=-8.702219527113D+03 EE= 1.910460850776D+03
 Leave Link  502 at Thu May  2 14:18:14 2024, MaxMem=   134217728 cpu:            1178.0 elap:            1179.1
 (Enter /software/gaussian/g16-c01/sse4/g16/l601.exe)
 Copying SCF densities to generalized density rwf, IOpCl= 0 IROHF=0.

 **********************************************************************

            Population analysis using the SCF Density.

 **********************************************************************

 Alpha  occ. eigenvalues -- -483.33038 -62.88063 -56.67754 -56.67188 -56.67178
 Alpha  occ. eigenvalues --  -19.49817 -19.49772 -14.89137 -10.61205 -10.59986
 Alpha  occ. eigenvalues --  -10.58807 -10.58387 -10.55542 -10.53934  -9.03872
 Alpha  occ. eigenvalues --   -6.86546  -6.84685  -6.84657  -2.96451  -2.95961
 Alpha  occ. eigenvalues --   -2.95937  -2.94449  -2.94449  -1.53462  -1.36461
 Alpha  occ. eigenvalues --   -1.24305  -1.14689  -1.14399  -1.06706  -1.02490
 Alpha  occ. eigenvalues --   -0.97065  -0.92512  -0.87661  -0.83869  -0.82707
 Alpha  occ. eigenvalues --   -0.82382  -0.79729  -0.79096  -0.77476  -0.73746
 Alpha  occ. eigenvalues --   -0.69901  -0.69242  -0.65005  -0.61814  -0.60879
 Alpha  occ. eigenvalues --   -0.60296  -0.59582  -0.58195  -0.56657
 Alpha virt. eigenvalues --   -0.31928  -0.23088  -0.17607  -0.15145  -0.10045
 Alpha virt. eigenvalues --   -0.07488  -0.06750  -0.06313  -0.05720  -0.04454
 Alpha virt. eigenvalues --   -0.03823  -0.03613  -0.03083  -0.02291  -0.01519
 Alpha virt. eigenvalues --   -0.01150  -0.00183   0.00292   0.00875   0.01729
 Alpha virt. eigenvalues --    0.02622   0.03351   0.03880   0.04684   0.05227
 Alpha virt. eigenvalues --    0.05697   0.05737   0.06497   0.07440   0.07703
 Alpha virt. eigenvalues --    0.08415   0.09042   0.09455   0.09930   0.10576
 Alpha virt. eigenvalues --    0.10658   0.11146   0.11426   0.12887   0.14321
 Alpha virt. eigenvalues --    0.15041   0.15367   0.16082   0.16470   0.17820
 Alpha virt. eigenvalues --    0.18164   0.18757   0.19191   0.19812   0.20683
 Alpha virt. eigenvalues --    0.21706   0.22881   0.25234   0.26791   0.29371
 Alpha virt. eigenvalues --    0.29917   0.30218   0.31015   0.31840   0.33349
 Alpha virt. eigenvalues --    0.35444   0.35878   0.37997   0.39034   0.40330
 Alpha virt. eigenvalues --    0.42011   0.42211   0.43608   0.45269   0.45430
 Alpha virt. eigenvalues --    0.46582   0.47649   0.48887   0.50393   0.51372
 Alpha virt. eigenvalues --    0.53399   0.54252   0.56056   0.56685   0.58633
 Alpha virt. eigenvalues --    0.60096   0.60603   0.62484   0.65706   0.67048
 Alpha virt. eigenvalues --    0.69876   0.70302   0.71572   0.72242   0.73198
 Alpha virt. eigenvalues --    0.73388   0.75525   0.77074   0.81269   0.83325
 Alpha virt. eigenvalues --    0.84413   0.85537   0.89106   0.92435   0.95718
 Alpha virt. eigenvalues --    0.97178   0.99978   1.01875   1.03734   1.04821
 Alpha virt. eigenvalues --    1.05825   1.09348   1.10270   1.10879   1.14989
 Alpha virt. eigenvalues --    1.17912   1.19475   1.26182   1.31674   1.34631
 Alpha virt. eigenvalues --    1.35280   1.37105   1.41450   1.52829   1.54322
 Alpha virt. eigenvalues --    1.55149   1.57021   1.59332   1.61974   1.64109
 Alpha virt. eigenvalues --    1.65846   1.69701   1.70934   1.73738   1.77703
 Alpha virt. eigenvalues --    1.82863   1.83541   1.85179   1.92965   1.94254
 Alpha virt. eigenvalues --    1.95425   2.00233   2.00985   2.05258   2.07186
 Alpha virt. eigenvalues --    2.11104   2.12987   2.20489   2.21400   2.26261
 Alpha virt. eigenvalues --    2.31911   2.37666   2.39057   2.42366   2.51725
 Alpha virt. eigenvalues --    2.56465   2.61256   2.64378   2.66999   2.68177
 Alpha virt. eigenvalues --    2.70846   2.73042   2.75295   2.77244   2.80229
 Alpha virt. eigenvalues --    2.91427   2.95657   2.98679   3.03837   3.07187
 Alpha virt. eigenvalues --    3.13164   3.14729   3.16236   3.19304   3.23075
 Alpha virt. eigenvalues --    3.25851   3.35292   3.45397   3.48008   3.51401
 Alpha virt. eigenvalues --    3.55350   3.65418   3.70747   3.82024   3.85661
 Alpha virt. eigenvalues --    4.08164   4.09022   4.17565   4.21718   4.40805
 Alpha virt. eigenvalues --    4.42224   4.52745   4.56980   4.89852   4.92653
 Alpha virt. eigenvalues --    5.01526   5.06002   5.58457   6.11481   6.66193
 Alpha virt. eigenvalues --    7.47044   7.49365   7.59486  23.20616  23.59660
 Alpha virt. eigenvalues --   23.70083  23.76621  23.94378  24.00286  35.28034
 Alpha virt. eigenvalues --   47.92287  49.81650  49.90312 289.79932 289.82271
 Alpha virt. eigenvalues --  289.948941020.93474
          Condensed to atoms (all electrons):
               1          2          3          4          5          6
     1  C    7.416396  -2.225716   0.680848   0.003703   0.296049   0.056388
     2  C   -2.225716  16.602611  -3.716590   0.463610  -0.020899   0.206887
     3  C    0.680848  -3.716590  18.224178  -1.174827   0.023246   0.113393
     4  C    0.003703   0.463610  -1.174827   6.287515   0.027904  -0.017023
     5  H    0.296049  -0.020899   0.023246   0.027904   0.317703  -0.001639
     6  H    0.056388   0.206887   0.113393  -0.017023  -0.001639   0.319251
     7  H    0.023934  -0.022148   0.017357   0.305545  -0.002413   0.000000
     8  N   -0.066660  -0.063000  -1.717158   0.010322  -0.000447  -0.030355
     9  O   -0.013335   0.274955  -0.069686  -0.012181  -0.000028  -0.002348
    10  O    0.238165  -0.193819  -0.246930  -0.022012  -0.000017   0.019019
    11  C    0.620593  -0.675700   1.945495  -0.180131  -0.023564   0.009478
    12  H   -0.011354   0.019618   0.003222   0.023896   0.000028  -0.000017
    13  C   -0.911198  -4.656129  -7.788583   0.612564   0.024012  -0.015540
    14  H   -0.002478   0.024064   0.075007   0.001774  -0.000031   0.000060
    15  Br   0.011037  -0.203207  -0.263185  -0.000074  -0.000010  -0.000662
               7          8          9         10         11         12
     1  C    0.023934  -0.066660  -0.013335   0.238165   0.620593  -0.011354
     2  C   -0.022148  -0.063000   0.274955  -0.193819  -0.675700   0.019618
     3  C    0.017357  -1.717158  -0.069686  -0.246930   1.945495   0.003222
     4  C    0.305545   0.010322  -0.012181  -0.022012  -0.180131   0.023896
     5  H   -0.002413  -0.000447  -0.000028  -0.000017  -0.023564   0.000028
     6  H    0.000000  -0.030355  -0.002348   0.019019   0.009478  -0.000017
     7  H    0.313439   0.000055  -0.000000   0.000002   0.027133  -0.002065
     8  N    0.000055   7.520095   0.106327   0.234862  -0.216087   0.000220
     9  O   -0.000000   0.106327   7.893348  -0.005982   0.218705   0.000122
    10  O    0.000002   0.234862  -0.005982   7.827051   0.008127  -0.000022
    11  C    0.027133  -0.216087   0.218705   0.008127   7.458344   0.316994
    12  H   -0.002065   0.000220   0.000122  -0.000022   0.316994   0.306650
    13  C   -0.018135   1.328795  -0.410283   0.096420  -3.370028  -0.024998
    14  H   -0.000025  -0.035151   0.012102  -0.001734  -0.010443  -0.004304
    15  Br  -0.000444   0.166480  -0.057544   0.004962   0.052000   0.001019
              13         14         15
     1  C   -0.911198  -0.002478   0.011037
     2  C   -4.656129   0.024064  -0.203207
     3  C   -7.788583   0.075007  -0.263185
     4  C    0.612564   0.001774  -0.000074
     5  H    0.024012  -0.000031  -0.000010
     6  H   -0.015540   0.000060  -0.000662
     7  H   -0.018135  -0.000025  -0.000444
     8  N    1.328795  -0.035151   0.166480
     9  O   -0.410283   0.012102  -0.057544
    10  O    0.096420  -0.001734   0.004962
    11  C   -3.370028  -0.010443   0.052000
    12  H   -0.024998  -0.004304   0.001019
    13  C   20.767262   0.246596   0.447734
    14  H    0.246596   0.334542  -0.044039
    15  Br   0.447734  -0.044039  34.714709
 Mulliken charges:
               1
     1  C   -0.116371
     2  C    0.185465
     3  C   -0.105787
     4  C   -0.330586
     5  H    0.360107
     6  H    0.343105
     7  H    0.357764
     8  N   -0.238299
     9  O    0.065827
    10  O    0.041908
    11  C   -0.180917
    12  H    0.370989
    13  C   -0.328489
    14  H    0.404060
    15  Br   0.171223
 Sum of Mulliken charges =   1.00000
 Mulliken charges with hydrogens summed into heavy atoms:
               1
     1  C    0.243736
     2  C    0.528569
     3  C   -0.105787
     4  C    0.027178
     8  N   -0.238299
     9  O    0.065827
    10  O    0.041908
    11  C    0.190073
    13  C    0.075571
    15  Br   0.171223
 Electronic spatial extent (au):  <R**2>=           3951.1702
 Charge=              1.0000 electrons
 Dipole moment (field-independent basis, Debye):
    X=              1.1347    Y=             -0.8202    Z=             -0.6690  Tot=              1.5517
 Quadrupole moment (field-independent basis, Debye-Ang):
   XX=            -74.3419   YY=            -51.2544   ZZ=            -62.3465
   XY=             -2.5569   XZ=             -2.1027   YZ=              2.2633
 Traceless Quadrupole moment (field-independent basis, Debye-Ang):
   XX=            -11.6943   YY=             11.3932   ZZ=              0.3011
   XY=             -2.5569   XZ=             -2.1027   YZ=              2.2633
 Octapole moment (field-independent basis, Debye-Ang**2):
  XXX=           -546.4264  YYY=             92.7053  ZZZ=             83.4613  XYY=           -140.3721
  XXY=             25.5081  XXZ=             27.0141  XZZ=           -134.6256  YZZ=             17.6345
  YYZ=             26.1117  XYZ=              7.0126
 Hexadecapole moment (field-independent basis, Debye-Ang**3):
 XXXX=          -3615.0490 YYYY=           -702.6039 ZZZZ=           -396.6553 XXXY=            181.4351
 XXXZ=            188.3706 YYYX=            188.0200 YYYZ=           -173.2250 ZZZX=            170.4583
 ZZZY=           -145.5726 XXYY=           -639.3908 XXZZ=           -534.0649 YYZZ=           -172.4899
 XXYZ=            -44.4897 YYXZ=             51.7618 ZZXY=             31.3849
 N-N= 7.753723968031D+02 E-N=-8.702219526818D+03  KE= 3.005858843133D+03
 No NMR shielding tensors so no spin-rotation constants.
 Leave Link  601 at Thu May  2 14:18:22 2024, MaxMem=   134217728 cpu:               7.3 elap:               7.3
 (Enter /software/gaussian/g16-c01/sse4/g16/l9999.exe)
 Unable to Open any file for archive entry.
 1\1\GINC-BHX0007\SP\RwB97XD\6-311+G(d)\C6H5Br1N1O2(1+)\BWEIGHT\02-May-
 2024\0\\#P wB97XD/6-311+G* NoSymm #P Field=X+58\\TitleMe\\1,1\C,0,0.51
 93,1.233,-0.0319\C,0,1.9445,1.2692,-0.0367\C,0,2.6204,0.0928,-0.025\C,
 0,-0.196,0.0301,0.001\H,0,-0.0207,2.1742,-0.0434\H,0,2.4828,2.2089,-0.
 0361\H,0,-1.2777,0.0399,0.0117\N,0,4.0921,0.0959,0.0366\O,0,4.6393,-1.
 0217,0.1446\O,0,4.6649,1.1984,-0.0233\C,0,0.4943,-1.1671,0.021\H,0,-0.
 0325,-2.1149,0.0545\C,0,1.9629,-1.2165,-0.0211\H,0,2.4436,-1.9631,0.61
 51\Br,0,2.173,-1.9491,-1.9062\\Version=ES64L-G16RevC.01\HF=-3010.52743
 64\RMSD=4.184e-09\Dipole=-3.882789,0.9054247,0.9860142\Quadrupole=-8.6
 944202,8.4705405,0.2238797,-1.9009643,-1.5633089,1.6827448\PG=C01 [X(C
 6H5Br1N1O2)]\\@
 The archive entry for this job was punched.


 THERE'S NOTHING WRONG WITH FOLLOWING A TRAIN OF THOUGHT...
 AS LONG AS IT ULTIMATELY PULLS INTO THE STATION.
 Job cpu time:       0 days  0 hours 20 minutes 48.2 seconds.
 Elapsed time:       0 days  0 hours 20 minutes 49.4 seconds.
 File lengths (MBytes):  RWF=     40 Int=      0 D2E=      0 Chk=     32 Scr=      1
 Normal termination of Gaussian 16 at Thu May  2 14:18:22 2024.
