 Entering Gaussian System, Link 0=g16
 Initial command:
 /software/gaussian/g16-c01/sse4/g16/l1.exe "/local_scratch/24657494/Gau-19955.inp" -scrdir="/local_scratch/24657494/"
 Entering Link 1 = /software/gaussian/g16-c01/sse4/g16/l1.exe PID=     19956.
  
 Copyright (c) 1988-2019, Gaussian, Inc.  All Rights Reserved.
  
 This is part of the Gaussian(R) 16 program.  It is based on
 the Gaussian(R) 09 system (copyright 2009, Gaussian, Inc.),
 the Gaussian(R) 03 system (copyright 2003, Gaussian, Inc.),
 the Gaussian(R) 98 system (copyright 1998, Gaussian, Inc.),
 the Gaussian(R) 94 system (copyright 1995, Gaussian, Inc.),
 the Gaussian 92(TM) system (copyright 1992, Gaussian, Inc.),
 the Gaussian 90(TM) system (copyright 1990, Gaussian, Inc.),
 the Gaussian 88(TM) system (copyright 1988, Gaussian, Inc.),
 the Gaussian 86(TM) system (copyright 1986, Carnegie Mellon
 University), and the Gaussian 82(TM) system (copyright 1983,
 Carnegie Mellon University). Gaussian is a federally registered
 trademark of Gaussian, Inc.
  
 This software contains proprietary and confidential information,
 including trade secrets, belonging to Gaussian, Inc.
  
 This software is provided under written license and may be
 used, copied, transmitted, or stored only in accord with that
 written license.
  
 The following legend is applicable only to US Government
 contracts under FAR:
  
                    RESTRICTED RIGHTS LEGEND
  
 Use, reproduction and disclosure by the US Government is
 subject to restrictions as set forth in subparagraphs (a)
 and (c) of the Commercial Computer Software - Restricted
 Rights clause in FAR 52.227-19.
  
 Gaussian, Inc.
 340 Quinnipiac St., Bldg. 40, Wallingford CT 06492
  
  
 ---------------------------------------------------------------
 Warning -- This program may not be used in any manner that
 competes with the business of Gaussian, Inc. or will provide
 assistance to any competitor of Gaussian, Inc.  The licensee
 of this program is prohibited from giving any competitor of
 Gaussian, Inc. access to this program.  By using this program,
 the user acknowledges that Gaussian, Inc. is engaged in the
 business of creating and licensing software in the field of
 computational chemistry and represents and warrants to the
 licensee that it is not a competitor of Gaussian, Inc. and that
 it will not use this program in any manner prohibited above.
 ---------------------------------------------------------------
  

 Cite this work as:
 Gaussian 16, Revision C.01,
 M. J. Frisch, G. W. Trucks, H. B. Schlegel, G. E. Scuseria, 
 M. A. Robb, J. R. Cheeseman, G. Scalmani, V. Barone, 
 G. A. Petersson, H. Nakatsuji, X. Li, M. Caricato, A. V. Marenich, 
 J. Bloino, B. G. Janesko, R. Gomperts, B. Mennucci, H. P. Hratchian, 
 J. V. Ortiz, A. F. Izmaylov, J. L. Sonnenberg, D. Williams-Young, 
 F. Ding, F. Lipparini, F. Egidi, J. Goings, B. Peng, A. Petrone, 
 T. Henderson, D. Ranasinghe, V. G. Zakrzewski, J. Gao, N. Rega, 
 G. Zheng, W. Liang, M. Hada, M. Ehara, K. Toyota, R. Fukuda, 
 J. Hasegawa, M. Ishida, T. Nakajima, Y. Honda, O. Kitao, H. Nakai, 
 T. Vreven, K. Throssell, J. A. Montgomery, Jr., J. E. Peralta, 
 F. Ogliaro, M. J. Bearpark, J. J. Heyd, E. N. Brothers, K. N. Kudin, 
 V. N. Staroverov, T. A. Keith, R. Kobayashi, J. Normand, 
 K. Raghavachari, A. P. Rendell, J. C. Burant, S. S. Iyengar, 
 J. Tomasi, M. Cossi, J. M. Millam, M. Klene, C. Adamo, R. Cammi, 
 J. W. Ochterski, R. L. Martin, K. Morokuma, O. Farkas, 
 J. B. Foresman, and D. J. Fox, Gaussian, Inc., Wallingford CT, 2019.
 
 ******************************************
 Gaussian 16:  ES64L-G16RevC.01  3-Jul-2019
                 1-May-2024 
 ******************************************
 %chk=geometry.chk
 %mem=9GB
 %nprocshared=12
 Will use up to   12 processors via shared memory.
 ---------------------------------------
 #P wB97XD/6-311+G* NoSymm #P Field=Y-68
 ---------------------------------------
 1/38=1,172=1/1;
 2/12=2,15=1,17=6,18=5,40=1/2;
 3/5=4,6=6,7=11,11=2,14=2,15=-68,25=1,30=1,74=-58/1,2,3;
 4//1;
 5/5=2,38=5/2;
 6/7=2,8=2,9=2,10=2,28=1/1;
 99/5=1,9=1/99;
 Leave Link    1 at Wed May  1 14:46:55 2024, MaxMem=  1207959552 cpu:               1.0 elap:               1.0
 (Enter /software/gaussian/g16-c01/sse4/g16/l101.exe)
 -------
 TitleMe
 -------
 Symbolic Z-matrix:
 Charge =  1 Multiplicity = 1
 C                     0.0295    1.3397    0.0682 
 C                     1.4348    1.2867    0.0064 
 C                     2.1118    0.0511   -0.0054 
 C                     1.4451   -1.1372    0.0312 
 C                    -0.6879    0.1682    0.11 
 H                    -0.4713    2.2984    0.0781 
 H                     2.0273    2.1965   -0.0322 
 H                     1.9897   -2.0764    0.0232 
 H                    -1.7716    0.1804    0.1582 
 N                     3.5864    0.051    -0.0675 
 O                     4.1471   -1.0597   -0.0881 
 O                     4.145     1.1639   -0.0901 
 C                    -0.0236   -1.1458    0.0835 
 H                    -0.4367   -1.8725    0.7889 
 Br                   -0.5359   -1.8697   -1.7408 
 
 ITRead=  0  0  0  0  0  0  0  0  0  0  0  0  0  0  0
 MicOpt= -1 -1 -1 -1 -1 -1 -1 -1 -1 -1 -1 -1 -1 -1 -1
 NAtoms=     15 NQM=       15 NQMF=       0 NMMI=      0 NMMIF=      0
                NMic=       0 NMicF=      0.
                    Isotopes and Nuclear Properties:
 (Nuclear quadrupole moments (NQMom) in fm**2, nuclear magnetic moments (NMagM)
  in nuclear magnetons)

  Atom         1           2           3           4           5           6           7           8           9          10
 IAtWgt=          12          12          12          12          12           1           1           1           1          14
 AtmWgt=  12.0000000  12.0000000  12.0000000  12.0000000  12.0000000   1.0078250   1.0078250   1.0078250   1.0078250  14.0030740
 NucSpn=           0           0           0           0           0           1           1           1           1           2
 AtZEff=  -0.0000000  -0.0000000  -0.0000000  -0.0000000  -0.0000000  -0.0000000  -0.0000000  -0.0000000  -0.0000000  -0.0000000
 NQMom=    0.0000000   0.0000000   0.0000000   0.0000000   0.0000000   0.0000000   0.0000000   0.0000000   0.0000000   2.0440000
 NMagM=    0.0000000   0.0000000   0.0000000   0.0000000   0.0000000   2.7928460   2.7928460   2.7928460   2.7928460   0.4037610
 AtZNuc=   6.0000000   6.0000000   6.0000000   6.0000000   6.0000000   1.0000000   1.0000000   1.0000000   1.0000000   7.0000000

  Atom        11          12          13          14          15
 IAtWgt=          16          16          12           1          79
 AtmWgt=  15.9949146  15.9949146  12.0000000   1.0078250  78.9183361
 NucSpn=           0           0           0           1           3
 AtZEff=  -0.0000000  -0.0000000  -0.0000000  -0.0000000  -0.0000000
 NQMom=    0.0000000   0.0000000   0.0000000   0.0000000  31.3000000
 NMagM=    0.0000000   0.0000000   0.0000000   2.7928460   2.1063990
 AtZNuc=   8.0000000   8.0000000   6.0000000   1.0000000  35.0000000
 Leave Link  101 at Wed May  1 14:46:57 2024, MaxMem=  1207959552 cpu:               1.3 elap:               1.4
 (Enter /software/gaussian/g16-c01/sse4/g16/l202.exe)
                          Input orientation:                          
 ---------------------------------------------------------------------
 Center     Atomic      Atomic             Coordinates (Angstroms)
 Number     Number       Type             X           Y           Z
 ---------------------------------------------------------------------
      1          6           0        0.029500    1.339700    0.068200
      2          6           0        1.434800    1.286700    0.006400
      3          6           0        2.111800    0.051100   -0.005400
      4          6           0        1.445100   -1.137200    0.031200
      5          6           0       -0.687900    0.168200    0.110000
      6          1           0       -0.471300    2.298400    0.078100
      7          1           0        2.027300    2.196500   -0.032200
      8          1           0        1.989700   -2.076400    0.023200
      9          1           0       -1.771600    0.180400    0.158200
     10          7           0        3.586400    0.051000   -0.067500
     11          8           0        4.147100   -1.059700   -0.088100
     12          8           0        4.145000    1.163900   -0.090100
     13          6           0       -0.023600   -1.145800    0.083500
     14          1           0       -0.436700   -1.872500    0.788900
     15         35           0       -0.535900   -1.869700   -1.740800
 ---------------------------------------------------------------------
                    Distance matrix (angstroms):
                    1          2          3          4          5
     1  C    0.000000
     2  C    1.407656   0.000000
     3  C    2.449874   1.408963   0.000000
     4  C    2.853126   2.424049   1.363043   0.000000
     5  C    1.374344   2.401589   2.804523   2.501993   0.000000
     6  H    1.081667   2.159142   3.424870   3.934226   2.141421
     7  H    2.176095   1.086408   2.147231   3.384750   3.392128
     8  H    3.938800   3.408612   2.131193   1.085702   3.495040
     9  H    2.143837   3.395283   3.888995   3.478413   1.084840
    10  N    3.785591   2.482297   1.475907   2.450862   4.279589
    11  O    4.768247   3.587631   2.320164   2.705743   4.992415
    12  O    4.122294   2.714696   2.319353   3.549540   4.938459
    13  C    2.486114   2.837240   2.449573   1.469656   1.472614
    14  H    3.324903   3.754379   3.290289   2.157764   2.165286
    15  Br   3.727252   4.110867   3.702891   2.756973   2.757100
                    6          7          8          9         10
     6  H    0.000000
     7  H    2.503108   0.000000
     8  H    5.019802   4.273425   0.000000
     9  H    2.486588   4.304945   4.388479   0.000000
    10  N    4.640790   2.652397   2.661486   5.364313   0.000000
    11  O    5.712624   3.885809   2.387560   6.052233   1.244373
    12  O    4.756638   2.356750   3.893289   6.002923   1.245428
    13  C    3.473180   3.923079   2.218790   2.195425   3.806210
    14  H    4.231175   4.827242   2.552506   2.528663   4.540772
    15  Br   4.548146   5.101303   3.087568   3.055498   4.845862
                   11         12         13         14         15
    11  O    0.000000
    12  O    2.223602   0.000000
    13  C    4.175117   4.768865   0.000000
    14  H    4.737193   5.566358   1.093770   0.000000
    15  Br   5.031700   5.817075   2.028436   2.531646   0.000000
 Symmetry turned off by external request.
 Stoichiometry    C6H5BrNO2(1+)
 Framework group  C1[X(C6H5BrNO2)]
 Deg. of freedom    39
 Full point group                 C1      NOp   1
 Rotational constants (GHZ):           1.8252210           0.5518633           0.4576002
 Leave Link  202 at Wed May  1 14:46:58 2024, MaxMem=  1207959552 cpu:               1.1 elap:               1.1
 (Enter /software/gaussian/g16-c01/sse4/g16/l301.exe)
 Standard basis: 6-311+G(d) (5D, 7F)
 Ernie: Thresh=  0.10000D-02 Tol=  0.10000D-05 Strict=F.
 The following finite field(s) will be applied:
 An electric field of              0.0000 -0.0068  0.0000
   261 basis functions,   443 primitive gaussians,   273 cartesian basis functions
    49 alpha electrons       49 beta electrons
       nuclear repulsion energy       739.2122215416 Hartrees.
 IExCor= 4639 DFT=T Ex+Corr=wB97XD ExCW=0 ScaHFX=  1.000000
 ScaDFX=  1.000000  1.000000  1.000000  1.000000 ScalE2=  1.000000  1.000000
 IRadAn=      5 IRanWt=     -1 IRanGd=            0 ICorTp=0 IEmpDi=121
 HFx  wShort=  0.000000 wLong=  0.200000 cFull=  0.222036 cShort=  0.000000 cLong=  0.777964
 DFx  wShort=  0.000000 wLong=  0.200000 cFull=  0.000000 cShort=  0.000000 cLong=  1.000000
 NAtoms=   15 NActive=   15 NUniq=   15 SFac= 1.00D+00 NAtFMM=   60 NAOKFM=F Big=F
 Integral buffers will be    131072 words long.
 Raffenetti 2 integral format.
 Two-electron integral symmetry is turned off.
 R6Disp:  Grimme-D2 Dispersion energy=       -0.0077368520 Hartrees.
 Nuclear repulsion after empirical dispersion term =      739.2044846896 Hartrees.
 Leave Link  301 at Wed May  1 14:46:59 2024, MaxMem=  1207959552 cpu:               0.9 elap:               0.9
 (Enter /software/gaussian/g16-c01/sse4/g16/l302.exe)
 NPDir=0 NMtPBC=     1 NCelOv=     1 NCel=       1 NClECP=     1 NCelD=      1
         NCelK=      1 NCelE2=     1 NClLst=     1 CellRange=     0.0.
 One-electron integrals computed using PRISM.
 NBasis=   261 RedAO= T EigKep=  2.35D-06  NBF=   261
 NBsUse=   261 1.00D-06 EigRej= -1.00D+00 NBFU=   261
 Precomputing XC quadrature grid using
 IXCGrd= 4 IRadAn=           5 IRanWt=          -1 IRanGd=           0 AccXCQ= 0.00D+00.
 Generated NRdTot=       0 NPtTot=           0 NUsed=           0 NTot=          32
 NSgBfM=   273   273   273   273   273 MxSgAt=    15 MxSgA2=    15.
 Leave Link  302 at Wed May  1 14:47:20 2024, MaxMem=  1207959552 cpu:              21.3 elap:              21.3
 (Enter /software/gaussian/g16-c01/sse4/g16/l303.exe)
 DipDrv:  MaxL=1.
 The nuclear repulsion energy is now       739.9773729235 hartrees.
 Leave Link  303 at Wed May  1 14:47:23 2024, MaxMem=  1207959552 cpu:               3.2 elap:               3.2
 (Enter /software/gaussian/g16-c01/sse4/g16/l401.exe)
 ExpMin= 3.50D-02 ExpMax= 4.40D+05 ExpMxC= 1.51D+04 IAcc=3 IRadAn=         5 AccDes= 0.00D+00
 Harris functional with IExCor= 4639 and IRadAn=       5 diagonalized for initial guess.
 HarFok:  IExCor= 4639 AccDes= 0.00D+00 IRadAn=         5 IDoV= 1 UseB2=F ITyADJ=14
 ICtDFT=  3500011 ScaDFX=  1.000000  1.000000  1.000000  1.000000
 FoFCou: FMM=F IPFlag=           0 FMFlag=      100000 FMFlg1=           0
         NFxFlg=           0 DoJE=T BraDBF=F KetDBF=T FulRan=T
         wScrn=  0.000000 ICntrl=       500 IOpCl=  0 I1Cent=   200000004 NGrid=           0
         NMat0=    1 NMatS0=      1 NMatT0=    0 NMatD0=    1 NMtDS0=    0 NMtDT0=    0
 Symmetry not used in FoFCou.
 Harris En= -2970.60268878879    
 JPrj=0 DoOrth=F DoCkMO=F.
 Leave Link  401 at Wed May  1 14:47:53 2024, MaxMem=  1207959552 cpu:              29.6 elap:              29.6
 (Enter /software/gaussian/g16-c01/sse4/g16/l502.exe)
 Two-electron integral symmetry not used.
 Closed shell SCF:
 Using DIIS extrapolation, IDIIS=  1040.
 NGot=  1207959552 LenX=  1207804877 LenY=  1207729907
 Requested convergence on RMS density matrix=1.00D-08 within 128 cycles.
 Requested convergence on MAX density matrix=1.00D-06.
 Requested convergence on             energy=1.00D-06.
 No special actions if energy rises.
 Fock matrices will be formed incrementally for  20 cycles.

 Cycle   1  Pass 1  IDiag  1:
 FoFJK:  IHMeth= 1 ICntrl=       0 DoSepK=T KAlg= 0 I1Cent=           0 FoldK=F
 IRaf=         1 NMat=       1 IRICut=       1 DoRegI=T DoRafI=F ISym2E= 0 IDoP0=0 IntGTp=1.
 FoFCou: FMM=F IPFlag=           0 FMFlag=      100000 FMFlg1=           0
         NFxFlg=           0 DoJE=T BraDBF=F KetDBF=F FulRan=T
         wScrn=  0.000000 ICntrl=       500 IOpCl=  0 I1Cent=           0 NGrid=           0
         NMat0=    1 NMatS0=      1 NMatT0=    0 NMatD0=    1 NMtDS0=    0 NMtDT0=    0
 Symmetry not used in FoFCou.
 E= -3009.71638701621    
 DIIS: error= 3.20D-01 at cycle   1 NSaved=   1.
 NSaved= 1 IEnMin= 1 EnMin= -3009.71638701621     IErMin= 1 ErrMin= 3.20D-01
 ErrMax= 3.20D-01  0.00D+00 EMaxC= 1.00D-01 BMatC= 1.19D+01 BMatP= 1.19D+01
 IDIUse=3 WtCom= 0.00D+00 WtEn= 1.00D+00
 Coeff-Com:  0.100D+01
 Coeff-En:   0.100D+01
 Coeff:      0.100D+01
 Gap=     0.360 Goal=   None    Shift=    0.000
 GapD=    0.360 DampG=1.000 DampE=0.250 DampFc=0.2500 IDamp=-1.
 Damping current iteration by 2.50D-01
 RMSDP=4.76D-02 MaxDP=5.63D+00              OVMax= 2.49D-01

 Cycle   2  Pass 1  IDiag  1:
 RMSU=  4.57D-03    CP:  8.85D-01
 E= -3010.00078619256     Delta-E=       -0.284399176357 Rises=F Damp=T
 DIIS: error= 2.25D-01 at cycle   2 NSaved=   2.
 NSaved= 2 IEnMin= 2 EnMin= -3010.00078619256     IErMin= 2 ErrMin= 2.25D-01
 ErrMax= 2.25D-01  0.00D+00 EMaxC= 1.00D-01 BMatC= 5.45D+00 BMatP= 1.19D+01
 IDIUse=3 WtCom= 0.00D+00 WtEn= 1.00D+00
 Coeff-Com: -0.184D+01 0.284D+01
 Coeff-En:   0.000D+00 0.100D+01
 Coeff:      0.000D+00 0.100D+01
 Gap=     0.288 Goal=   None    Shift=    0.000
 RMSDP=3.72D-02 MaxDP=4.20D+00 DE=-2.84D-01 OVMax= 8.45D-02

 Cycle   3  Pass 1  IDiag  1:
 RMSU=  4.96D-03    CP:  5.17D-01  3.00D+00
 E= -3010.38932724029     Delta-E=       -0.388541047722 Rises=F Damp=F
 DIIS: error= 6.52D-02 at cycle   3 NSaved=   3.
 NSaved= 3 IEnMin= 3 EnMin= -3010.38932724029     IErMin= 3 ErrMin= 6.52D-02
 ErrMax= 6.52D-02  0.00D+00 EMaxC= 1.00D-01 BMatC= 7.21D-01 BMatP= 5.45D+00
 IDIUse=3 WtCom= 3.48D-01 WtEn= 6.52D-01
 Coeff-Com:  0.247D+01-0.323D+01 0.176D+01
 Coeff-En:   0.146D-01 0.000D+00 0.985D+00
 Coeff:      0.870D+00-0.112D+01 0.125D+01
 Gap=     0.255 Goal=   None    Shift=    0.000
 RMSDP=8.45D-03 MaxDP=4.97D-01 DE=-3.89D-01 OVMax= 7.03D-02

 Cycle   4  Pass 1  IDiag  1:
 RMSU=  5.92D-03    CP:  5.28D-01  2.52D+00  1.93D+00
 E= -3010.48052477684     Delta-E=       -0.091197536556 Rises=F Damp=F
 DIIS: error= 3.98D-02 at cycle   4 NSaved=   4.
 NSaved= 4 IEnMin= 4 EnMin= -3010.48052477684     IErMin= 4 ErrMin= 3.98D-02
 ErrMax= 3.98D-02  0.00D+00 EMaxC= 1.00D-01 BMatC= 2.57D-01 BMatP= 7.21D-01
 IDIUse=3 WtCom= 6.02D-01 WtEn= 3.98D-01
 Coeff-Com:  0.397D+00-0.513D+00 0.587D+00 0.529D+00
 Coeff-En:   0.000D+00 0.000D+00 0.238D+00 0.762D+00
 Coeff:      0.239D+00-0.309D+00 0.448D+00 0.622D+00
 Gap=     0.280 Goal=   None    Shift=    0.000
 RMSDP=3.53D-03 MaxDP=2.62D-01 DE=-9.12D-02 OVMax= 6.99D-02

 Cycle   5  Pass 1  IDiag  1:
 RMSU=  1.95D-03    CP:  5.04D-01  2.79D+00  1.88D+00  7.79D-01
 E= -3010.52719419654     Delta-E=       -0.046669419697 Rises=F Damp=F
 DIIS: error= 1.26D-02 at cycle   5 NSaved=   5.
 NSaved= 5 IEnMin= 5 EnMin= -3010.52719419654     IErMin= 5 ErrMin= 1.26D-02
 ErrMax= 1.26D-02  0.00D+00 EMaxC= 1.00D-01 BMatC= 1.60D-02 BMatP= 2.57D-01
 IDIUse=3 WtCom= 8.74D-01 WtEn= 1.26D-01
 Coeff-Com: -0.337D-01 0.510D-01 0.176D+00 0.380D+00 0.427D+00
 Coeff-En:   0.000D+00 0.000D+00 0.000D+00 0.436D-01 0.956D+00
 Coeff:     -0.294D-01 0.445D-01 0.154D+00 0.337D+00 0.494D+00
 Gap=     0.267 Goal=   None    Shift=    0.000
 RMSDP=1.26D-03 MaxDP=1.10D-01 DE=-4.67D-02 OVMax= 4.65D-02

 Cycle   6  Pass 1  IDiag  1:
 RMSU=  5.45D-04    CP:  4.97D-01  2.82D+00  1.86D+00  8.43D-01  5.72D-01
 E= -3010.53537288409     Delta-E=       -0.008178687549 Rises=F Damp=F
 DIIS: error= 3.48D-03 at cycle   6 NSaved=   6.
 NSaved= 6 IEnMin= 6 EnMin= -3010.53537288409     IErMin= 6 ErrMin= 3.48D-03
 ErrMax= 3.48D-03  0.00D+00 EMaxC= 1.00D-01 BMatC= 1.42D-03 BMatP= 1.60D-02
 IDIUse=3 WtCom= 9.65D-01 WtEn= 3.48D-02
 Coeff-Com: -0.775D-01 0.104D+00 0.528D-02 0.129D+00 0.319D+00 0.520D+00
 Coeff-En:   0.000D+00 0.000D+00 0.000D+00 0.000D+00 0.933D-01 0.907D+00
 Coeff:     -0.748D-01 0.101D+00 0.510D-02 0.124D+00 0.311D+00 0.534D+00
 Gap=     0.259 Goal=   None    Shift=    0.000
 RMSDP=3.61D-04 MaxDP=1.61D-02 DE=-8.18D-03 OVMax= 1.16D-02

 Cycle   7  Pass 1  IDiag  1:
 RMSU=  2.08D-04    CP:  4.96D-01  2.81D+00  1.87D+00  8.22D-01  6.93D-01
                    CP:  8.12D-01
 E= -3010.53635369576     Delta-E=       -0.000980811667 Rises=F Damp=F
 DIIS: error= 3.14D-04 at cycle   7 NSaved=   7.
 NSaved= 7 IEnMin= 7 EnMin= -3010.53635369576     IErMin= 7 ErrMin= 3.14D-04
 ErrMax= 3.14D-04  0.00D+00 EMaxC= 1.00D-01 BMatC= 1.65D-05 BMatP= 1.42D-03
 IDIUse=3 WtCom= 9.97D-01 WtEn= 3.14D-03
 Coeff-Com: -0.304D-01 0.405D-01-0.118D-01 0.228D-01 0.758D-01 0.178D+00
 Coeff-Com:  0.725D+00
 Coeff-En:   0.000D+00 0.000D+00 0.000D+00 0.000D+00 0.000D+00 0.000D+00
 Coeff-En:   0.100D+01
 Coeff:     -0.303D-01 0.404D-01-0.118D-01 0.227D-01 0.755D-01 0.178D+00
 Coeff:      0.726D+00
 Gap=     0.257 Goal=   None    Shift=    0.000
 RMSDP=1.48D-04 MaxDP=1.06D-02 DE=-9.81D-04 OVMax= 3.05D-03

 Cycle   8  Pass 1  IDiag  1:
 RMSU=  7.09D-05    CP:  4.96D-01  2.81D+00  1.88D+00  8.32D-01  7.11D-01
                    CP:  8.92D-01  9.95D-01
 E= -3010.53637844795     Delta-E=       -0.000024752190 Rises=F Damp=F
 DIIS: error= 1.28D-04 at cycle   8 NSaved=   8.
 NSaved= 8 IEnMin= 8 EnMin= -3010.53637844795     IErMin= 8 ErrMin= 1.28D-04
 ErrMax= 1.28D-04  0.00D+00 EMaxC= 1.00D-01 BMatC= 2.59D-06 BMatP= 1.65D-05
 IDIUse=3 WtCom= 9.99D-01 WtEn= 1.28D-03
 Coeff-Com:  0.379D-02-0.527D-02-0.393D-02-0.123D-01-0.322D-01-0.510D-01
 Coeff-Com:  0.191D+00 0.910D+00
 Coeff-En:   0.000D+00 0.000D+00 0.000D+00 0.000D+00 0.000D+00 0.000D+00
 Coeff-En:   0.000D+00 0.100D+01
 Coeff:      0.378D-02-0.526D-02-0.393D-02-0.123D-01-0.322D-01-0.510D-01
 Coeff:      0.190D+00 0.911D+00
 Gap=     0.257 Goal=   None    Shift=    0.000
 RMSDP=6.36D-05 MaxDP=3.42D-03 DE=-2.48D-05 OVMax= 2.38D-03

 Cycle   9  Pass 1  IDiag  1:
 RMSU=  2.81D-05    CP:  4.95D-01  2.81D+00  1.89D+00  8.34D-01  7.18D-01
                    CP:  9.17D-01  1.19D+00  1.35D+00
 E= -3010.53638537183     Delta-E=       -0.000006923885 Rises=F Damp=F
 DIIS: error= 5.06D-05 at cycle   9 NSaved=   9.
 NSaved= 9 IEnMin= 9 EnMin= -3010.53638537183     IErMin= 9 ErrMin= 5.06D-05
 ErrMax= 5.06D-05  0.00D+00 EMaxC= 1.00D-01 BMatC= 3.06D-07 BMatP= 2.59D-06
 IDIUse=1 WtCom= 1.00D+00 WtEn= 0.00D+00
 Coeff-Com:  0.514D-02-0.690D-02 0.359D-03-0.668D-02-0.178D-01-0.373D-01
 Coeff-Com: -0.447D-01 0.262D+00 0.846D+00
 Coeff:      0.514D-02-0.690D-02 0.359D-03-0.668D-02-0.178D-01-0.373D-01
 Coeff:     -0.447D-01 0.262D+00 0.846D+00
 Gap=     0.257 Goal=   None    Shift=    0.000
 RMSDP=2.11D-05 MaxDP=1.21D-03 DE=-6.92D-06 OVMax= 1.22D-03

 Cycle  10  Pass 1  IDiag  1:
 RMSU=  8.77D-06    CP:  4.95D-01  2.81D+00  1.89D+00  8.34D-01  7.21D-01
                    CP:  9.27D-01  1.25D+00  1.49D+00  1.24D+00
 E= -3010.53638661026     Delta-E=       -0.000001238426 Rises=F Damp=F
 DIIS: error= 1.75D-05 at cycle  10 NSaved=  10.
 NSaved=10 IEnMin=10 EnMin= -3010.53638661026     IErMin=10 ErrMin= 1.75D-05
 ErrMax= 1.75D-05  0.00D+00 EMaxC= 1.00D-01 BMatC= 7.60D-08 BMatP= 3.06D-07
 IDIUse=1 WtCom= 1.00D+00 WtEn= 0.00D+00
 Coeff-Com:  0.230D-03-0.281D-03 0.484D-03 0.378D-03 0.341D-02 0.435D-02
 Coeff-Com: -0.481D-01-0.123D+00 0.225D+00 0.937D+00
 Coeff:      0.230D-03-0.281D-03 0.484D-03 0.378D-03 0.341D-02 0.435D-02
 Coeff:     -0.481D-01-0.123D+00 0.225D+00 0.937D+00
 Gap=     0.257 Goal=   None    Shift=    0.000
 RMSDP=1.02D-05 MaxDP=6.18D-04 DE=-1.24D-06 OVMax= 6.14D-04

 Cycle  11  Pass 1  IDiag  1:
 RMSU=  5.80D-06    CP:  4.95D-01  2.81D+00  1.89D+00  8.33D-01  7.22D-01
                    CP:  9.27D-01  1.26D+00  1.53D+00  1.39D+00  1.27D+00
 E= -3010.53638686249     Delta-E=       -0.000000252229 Rises=F Damp=F
 DIIS: error= 5.76D-06 at cycle  11 NSaved=  11.
 NSaved=11 IEnMin=11 EnMin= -3010.53638686249     IErMin=11 ErrMin= 5.76D-06
 ErrMax= 5.76D-06  0.00D+00 EMaxC= 1.00D-01 BMatC= 7.28D-09 BMatP= 7.60D-08
 IDIUse=1 WtCom= 1.00D+00 WtEn= 0.00D+00
 Coeff-Com: -0.434D-03 0.593D-03 0.145D-03 0.855D-03 0.303D-02 0.551D-02
 Coeff-Com: -0.930D-02-0.647D-01-0.965D-02 0.274D+00 0.800D+00
 Coeff:     -0.434D-03 0.593D-03 0.145D-03 0.855D-03 0.303D-02 0.551D-02
 Coeff:     -0.930D-02-0.647D-01-0.965D-02 0.274D+00 0.800D+00
 Gap=     0.257 Goal=   None    Shift=    0.000
 RMSDP=4.09D-06 MaxDP=2.81D-04 DE=-2.52D-07 OVMax= 1.62D-04

 Cycle  12  Pass 1  IDiag  1:
 RMSU=  1.70D-06    CP:  4.95D-01  2.81D+00  1.89D+00  8.33D-01  7.22D-01
                    CP:  9.27D-01  1.27D+00  1.53D+00  1.44D+00  1.44D+00
                    CP:  1.27D+00
 E= -3010.53638688758     Delta-E=       -0.000000025091 Rises=F Damp=F
 DIIS: error= 3.31D-06 at cycle  12 NSaved=  12.
 NSaved=12 IEnMin=12 EnMin= -3010.53638688758     IErMin=12 ErrMin= 3.31D-06
 ErrMax= 3.31D-06  0.00D+00 EMaxC= 1.00D-01 BMatC= 2.23D-09 BMatP= 7.28D-09
 IDIUse=1 WtCom= 1.00D+00 WtEn= 0.00D+00
 Coeff-Com: -0.110D-03 0.145D-03-0.985D-05 0.203D-03-0.210D-04 0.348D-03
 Coeff-Com:  0.953D-02 0.760D-02-0.640D-01-0.164D+00 0.336D+00 0.874D+00
 Coeff:     -0.110D-03 0.145D-03-0.985D-05 0.203D-03-0.210D-04 0.348D-03
 Coeff:      0.953D-02 0.760D-02-0.640D-01-0.164D+00 0.336D+00 0.874D+00
 Gap=     0.257 Goal=   None    Shift=    0.000
 RMSDP=2.15D-06 MaxDP=9.29D-05 DE=-2.51D-08 OVMax= 1.04D-04

 Cycle  13  Pass 1  IDiag  1:
 RMSU=  5.88D-07    CP:  4.95D-01  2.81D+00  1.89D+00  8.33D-01  7.22D-01
                    CP:  9.26D-01  1.27D+00  1.52D+00  1.45D+00  1.52D+00
                    CP:  1.53D+00  1.07D+00
 E= -3010.53638689514     Delta-E=       -0.000000007559 Rises=F Damp=F
 DIIS: error= 5.04D-07 at cycle  13 NSaved=  13.
 NSaved=13 IEnMin=13 EnMin= -3010.53638689514     IErMin=13 ErrMin= 5.04D-07
 ErrMax= 5.04D-07  0.00D+00 EMaxC= 1.00D-01 BMatC= 1.84D-10 BMatP= 2.23D-09
 IDIUse=1 WtCom= 1.00D+00 WtEn= 0.00D+00
 Coeff-Com: -0.259D-04 0.336D-04-0.169D-04 0.162D-04-0.171D-03-0.294D-03
 Coeff-Com:  0.277D-02 0.396D-02-0.114D-01-0.524D-01 0.107D-01 0.180D+00
 Coeff-Com:  0.867D+00
 Coeff:     -0.259D-04 0.336D-04-0.169D-04 0.162D-04-0.171D-03-0.294D-03
 Coeff:      0.277D-02 0.396D-02-0.114D-01-0.524D-01 0.107D-01 0.180D+00
 Coeff:      0.867D+00
 Gap=     0.257 Goal=   None    Shift=    0.000
 RMSDP=5.89D-07 MaxDP=3.74D-05 DE=-7.56D-09 OVMax= 1.71D-05

 Cycle  14  Pass 1  IDiag  1:
 RMSU=  2.28D-07    CP:  4.95D-01  2.81D+00  1.89D+00  8.33D-01  7.22D-01
                    CP:  9.26D-01  1.27D+00  1.52D+00  1.45D+00  1.53D+00
                    CP:  1.59D+00  1.16D+00  1.35D+00
 E= -3010.53638689580     Delta-E=       -0.000000000663 Rises=F Damp=F
 DIIS: error= 4.44D-07 at cycle  14 NSaved=  14.
 NSaved=14 IEnMin=14 EnMin= -3010.53638689580     IErMin=14 ErrMin= 4.44D-07
 ErrMax= 4.44D-07  0.00D+00 EMaxC= 1.00D-01 BMatC= 4.21D-11 BMatP= 1.84D-10
 IDIUse=1 WtCom= 1.00D+00 WtEn= 0.00D+00
 Coeff-Com:  0.407D-05-0.523D-05-0.807D-05-0.365D-04-0.353D-04-0.159D-03
 Coeff-Com: -0.129D-02-0.101D-02 0.135D-01 0.233D-01-0.764D-01-0.160D+00
 Coeff-Com:  0.261D+00 0.941D+00
 Coeff:      0.407D-05-0.523D-05-0.807D-05-0.365D-04-0.353D-04-0.159D-03
 Coeff:     -0.129D-02-0.101D-02 0.135D-01 0.233D-01-0.764D-01-0.160D+00
 Coeff:      0.261D+00 0.941D+00
 Gap=     0.257 Goal=   None    Shift=    0.000
 RMSDP=2.39D-07 MaxDP=1.16D-05 DE=-6.63D-10 OVMax= 1.78D-05

 Cycle  15  Pass 1  IDiag  1:
 RMSU=  8.52D-08    CP:  4.95D-01  2.81D+00  1.89D+00  8.33D-01  7.22D-01
                    CP:  9.26D-01  1.27D+00  1.52D+00  1.45D+00  1.53D+00
                    CP:  1.61D+00  1.17D+00  1.60D+00  1.27D+00
 E= -3010.53638689606     Delta-E=       -0.000000000259 Rises=F Damp=F
 DIIS: error= 1.38D-07 at cycle  15 NSaved=  15.
 NSaved=15 IEnMin=15 EnMin= -3010.53638689606     IErMin=15 ErrMin= 1.38D-07
 ErrMax= 1.38D-07  0.00D+00 EMaxC= 1.00D-01 BMatC= 1.04D-11 BMatP= 4.21D-11
 IDIUse=1 WtCom= 1.00D+00 WtEn= 0.00D+00
 Coeff-Com:  0.664D-05-0.872D-05 0.156D-05-0.108D-04 0.213D-04 0.411D-04
 Coeff-Com: -0.576D-03-0.818D-03 0.382D-02 0.103D-01-0.937D-02-0.582D-01
 Coeff-Com: -0.183D+00 0.196D+00 0.104D+01
 Coeff:      0.664D-05-0.872D-05 0.156D-05-0.108D-04 0.213D-04 0.411D-04
 Coeff:     -0.576D-03-0.818D-03 0.382D-02 0.103D-01-0.937D-02-0.582D-01
 Coeff:     -0.183D+00 0.196D+00 0.104D+01
 Gap=     0.257 Goal=   None    Shift=    0.000
 RMSDP=1.70D-07 MaxDP=1.10D-05 DE=-2.59D-10 OVMax= 9.55D-06

 Cycle  16  Pass 1  IDiag  1:
 RMSU=  7.42D-08    CP:  4.95D-01  2.81D+00  1.89D+00  8.33D-01  7.22D-01
                    CP:  9.26D-01  1.27D+00  1.52D+00  1.45D+00  1.53D+00
                    CP:  1.62D+00  1.19D+00  1.75D+00  1.62D+00  1.34D+00
 E= -3010.53638689610     Delta-E=       -0.000000000038 Rises=F Damp=F
 DIIS: error= 6.99D-08 at cycle  16 NSaved=  16.
 NSaved=16 IEnMin=16 EnMin= -3010.53638689610     IErMin=16 ErrMin= 6.99D-08
 ErrMax= 6.99D-08  0.00D+00 EMaxC= 1.00D-01 BMatC= 1.33D-12 BMatP= 1.04D-11
 IDIUse=1 WtCom= 1.00D+00 WtEn= 0.00D+00
 Coeff-Com:  0.284D-05-0.379D-05 0.251D-05 0.308D-05 0.126D-04 0.463D-04
 Coeff-Com:  0.860D-04-0.113D-03-0.131D-02-0.116D-02 0.142D-01 0.141D-01
 Coeff-Com: -0.105D+00-0.792D-01 0.250D+00 0.909D+00
 Coeff:      0.284D-05-0.379D-05 0.251D-05 0.308D-05 0.126D-04 0.463D-04
 Coeff:      0.860D-04-0.113D-03-0.131D-02-0.116D-02 0.142D-01 0.141D-01
 Coeff:     -0.105D+00-0.792D-01 0.250D+00 0.909D+00
 Gap=     0.257 Goal=   None    Shift=    0.000
 RMSDP=3.84D-08 MaxDP=1.85D-06 DE=-3.82D-11 OVMax= 3.39D-06

 Cycle  17  Pass 1  IDiag  1:
 RMSU=  1.42D-08    CP:  4.95D-01  2.81D+00  1.89D+00  8.33D-01  7.22D-01
                    CP:  9.26D-01  1.27D+00  1.52D+00  1.45D+00  1.53D+00
                    CP:  1.62D+00  1.19D+00  1.77D+00  1.70D+00  1.55D+00
                    CP:  1.23D+00
 E= -3010.53638689614     Delta-E=       -0.000000000049 Rises=F Damp=F
 DIIS: error= 3.42D-08 at cycle  17 NSaved=  17.
 NSaved=17 IEnMin=17 EnMin= -3010.53638689614     IErMin=17 ErrMin= 3.42D-08
 ErrMax= 3.42D-08  0.00D+00 EMaxC= 1.00D-01 BMatC= 3.18D-13 BMatP= 1.33D-12
 IDIUse=1 WtCom= 1.00D+00 WtEn= 0.00D+00
 Coeff-Com:  0.140D-06-0.208D-06 0.640D-06 0.254D-05 0.314D-05 0.153D-04
 Coeff-Com:  0.109D-03 0.436D-04-0.104D-02-0.176D-02 0.599D-02 0.117D-01
 Coeff-Com: -0.144D-01-0.472D-01-0.101D+00 0.307D+00 0.840D+00
 Coeff:      0.140D-06-0.208D-06 0.640D-06 0.254D-05 0.314D-05 0.153D-04
 Coeff:      0.109D-03 0.436D-04-0.104D-02-0.176D-02 0.599D-02 0.117D-01
 Coeff:     -0.144D-01-0.472D-01-0.101D+00 0.307D+00 0.840D+00
 Gap=     0.257 Goal=   None    Shift=    0.000
 RMSDP=2.38D-08 MaxDP=1.42D-06 DE=-4.87D-11 OVMax= 1.34D-06

 Cycle  18  Pass 1  IDiag  1:
 RMSU=  6.19D-09    CP:  4.95D-01  2.81D+00  1.89D+00  8.33D-01  7.22D-01
                    CP:  9.26D-01  1.27D+00  1.52D+00  1.45D+00  1.54D+00
                    CP:  1.62D+00  1.19D+00  1.78D+00  1.74D+00  1.62D+00
                    CP:  1.40D+00  1.19D+00
 E= -3010.53638689612     Delta-E=        0.000000000023 Rises=F Damp=F
 DIIS: error= 9.18D-09 at cycle  18 NSaved=  18.
 NSaved=18 IEnMin=17 EnMin= -3010.53638689614     IErMin=18 ErrMin= 9.18D-09
 ErrMax= 9.18D-09  0.00D+00 EMaxC= 1.00D-01 BMatC= 2.48D-14 BMatP= 3.18D-13
 IDIUse=1 WtCom= 1.00D+00 WtEn= 0.00D+00
 Coeff-Com: -0.154D-06 0.204D-06-0.244D-06-0.442D-06-0.172D-05-0.465D-05
 Coeff-Com:  0.617D-06 0.343D-04 0.665D-04-0.393D-04-0.136D-02-0.710D-03
 Coeff-Com:  0.133D-01 0.135D-01-0.596D-01-0.937D-01 0.127D+00 0.100D+01
 Coeff:     -0.154D-06 0.204D-06-0.244D-06-0.442D-06-0.172D-05-0.465D-05
 Coeff:      0.617D-06 0.343D-04 0.665D-04-0.393D-04-0.136D-02-0.710D-03
 Coeff:      0.133D-01 0.135D-01-0.596D-01-0.937D-01 0.127D+00 0.100D+01
 Gap=     0.257 Goal=   None    Shift=    0.000
 RMSDP=8.87D-09 MaxDP=7.70D-07 DE= 2.32D-11 OVMax= 3.00D-07

 SCF Done:  E(RwB97XD) =  -3010.53638690     A.U. after   18 cycles
            NFock= 18  Conv=0.89D-08     -V/T= 2.0016
 KE= 3.005863409672D+03 PE=-8.633159550732D+03 EE= 1.876782381241D+03
 Leave Link  502 at Wed May  1 15:04:50 2024, MaxMem=  1207959552 cpu:            1016.7 elap:            1016.9
 (Enter /software/gaussian/g16-c01/sse4/g16/l601.exe)
 Copying SCF densities to generalized density rwf, IOpCl= 0 IROHF=0.

 **********************************************************************

            Population analysis using the SCF Density.

 **********************************************************************

 Alpha  occ. eigenvalues -- -483.32176 -62.87215 -56.66890 -56.66343 -56.66341
 Alpha  occ. eigenvalues --  -19.45931 -19.45734 -14.85355 -10.59047 -10.57338
 Alpha  occ. eigenvalues --  -10.57250 -10.57226 -10.56589 -10.52466  -9.03032
 Alpha  occ. eigenvalues --   -6.85660  -6.83864  -6.83853  -2.95576  -2.95098
 Alpha  occ. eigenvalues --   -2.95087  -2.93650  -2.93650  -1.49621  -1.32593
 Alpha  occ. eigenvalues --   -1.22780  -1.14393  -1.11663  -1.05075  -1.01008
 Alpha  occ. eigenvalues --   -0.95587  -0.90962  -0.85233  -0.80761  -0.80614
 Alpha  occ. eigenvalues --   -0.79990  -0.78503  -0.76068  -0.75822  -0.72544
 Alpha  occ. eigenvalues --   -0.69283  -0.67397  -0.63756  -0.60538  -0.57679
 Alpha  occ. eigenvalues --   -0.57008  -0.56151  -0.55873  -0.55538
 Alpha virt. eigenvalues --   -0.29815  -0.21339  -0.16106  -0.13526  -0.10306
 Alpha virt. eigenvalues --   -0.06802  -0.06219  -0.05874  -0.04711  -0.03531
 Alpha virt. eigenvalues --   -0.03042  -0.02343  -0.02289  -0.01645  -0.01284
 Alpha virt. eigenvalues --    0.00670   0.01523   0.02126   0.02452   0.02950
 Alpha virt. eigenvalues --    0.03489   0.04312   0.05176   0.05928   0.06348
 Alpha virt. eigenvalues --    0.07063   0.08199   0.08404   0.08456   0.10018
 Alpha virt. eigenvalues --    0.10339   0.10586   0.11349   0.11688   0.12487
 Alpha virt. eigenvalues --    0.13109   0.13282   0.13965   0.14897   0.16043
 Alpha virt. eigenvalues --    0.16828   0.17957   0.18066   0.18926   0.19500
 Alpha virt. eigenvalues --    0.20326   0.20716   0.21306   0.21986   0.24556
 Alpha virt. eigenvalues --    0.25733   0.27628   0.27979   0.28509   0.29825
 Alpha virt. eigenvalues --    0.31901   0.32929   0.33609   0.35121   0.36226
 Alpha virt. eigenvalues --    0.36973   0.38288   0.39042   0.40562   0.41100
 Alpha virt. eigenvalues --    0.42698   0.43712   0.44403   0.46310   0.47329
 Alpha virt. eigenvalues --    0.48093   0.49563   0.50798   0.51804   0.53514
 Alpha virt. eigenvalues --    0.53792   0.54581   0.56186   0.56788   0.60404
 Alpha virt. eigenvalues --    0.61111   0.61951   0.63376   0.66243   0.68575
 Alpha virt. eigenvalues --    0.69784   0.71995   0.73000   0.73616   0.74042
 Alpha virt. eigenvalues --    0.75136   0.79549   0.79891   0.82350   0.84976
 Alpha virt. eigenvalues --    0.86140   0.88025   0.91642   0.92879   0.98316
 Alpha virt. eigenvalues --    0.99660   1.01196   1.04368   1.05390   1.06422
 Alpha virt. eigenvalues --    1.08827   1.10980   1.12084   1.12485   1.14249
 Alpha virt. eigenvalues --    1.22145   1.24455   1.26643   1.33038   1.36418
 Alpha virt. eigenvalues --    1.36816   1.37605   1.44874   1.54292   1.57057
 Alpha virt. eigenvalues --    1.58401   1.58597   1.60601   1.62179   1.66153
 Alpha virt. eigenvalues --    1.69033   1.69489   1.73613   1.75276   1.79021
 Alpha virt. eigenvalues --    1.80934   1.85481   1.87522   1.92417   1.94520
 Alpha virt. eigenvalues --    1.97516   2.02842   2.03670   2.06197   2.07756
 Alpha virt. eigenvalues --    2.09123   2.14678   2.20535   2.22763   2.30029
 Alpha virt. eigenvalues --    2.37495   2.40968   2.42121   2.43385   2.52468
 Alpha virt. eigenvalues --    2.56689   2.63061   2.66053   2.68153   2.71793
 Alpha virt. eigenvalues --    2.73216   2.76423   2.77364   2.81011   2.81578
 Alpha virt. eigenvalues --    2.93267   2.96041   3.00622   3.05060   3.08840
 Alpha virt. eigenvalues --    3.12985   3.15221   3.19283   3.23741   3.24222
 Alpha virt. eigenvalues --    3.27347   3.39099   3.47928   3.51228   3.54329
 Alpha virt. eigenvalues --    3.56748   3.69900   3.74104   3.82139   3.87044
 Alpha virt. eigenvalues --    4.07817   4.08060   4.15660   4.20836   4.41693
 Alpha virt. eigenvalues --    4.44351   4.57297   4.59870   4.93192   4.95870
 Alpha virt. eigenvalues --    5.04502   5.08695   5.62818   6.15766   6.63553
 Alpha virt. eigenvalues --    7.46496   7.48068   7.57904  23.21229  23.61231
 Alpha virt. eigenvalues --   23.68901  23.79565  23.96119  24.01362  35.32601
 Alpha virt. eigenvalues --   47.90205  49.85556  49.94370 289.79550 289.81218
 Alpha virt. eigenvalues --  289.936731020.90649
          Condensed to atoms (all electrons):
               1          2          3          4          5          6
     1  C    8.622216  -2.016358   0.159443  -1.467502  -0.699452   0.308949
     2  C   -2.016358  12.236586  -1.670196  -2.766354   0.830538  -0.012424
     3  C    0.159443  -1.670196  12.774379  -2.813093  -1.223325   0.023490
     4  C   -1.467502  -2.766354  -2.813093  14.713189   1.052956   0.007530
     5  C   -0.699452   0.830538  -1.223325   1.052956   7.360916   0.010389
     6  H    0.308949  -0.012424   0.023490   0.007530   0.010389   0.310679
     7  H    0.058276   0.243678   0.062913  -0.026824  -0.017049  -0.001428
     8  H    0.005845  -0.018820   0.090061   0.218896  -0.022000   0.000002
     9  H    0.042701  -0.018773   0.005814  -0.012788   0.305726  -0.002178
    10  N   -0.115245   0.309773  -0.903758   0.314617   0.020720  -0.000545
    11  O    0.023986  -0.083869  -0.255040  -0.037895  -0.060415  -0.000025
    12  O    0.301923  -0.001182  -0.285037  -0.086447  -0.039569   0.000005
    13  C    1.318447  -1.547952   0.716180  -3.373915  -1.555078  -0.005618
    14  H   -0.013747   0.008688  -0.004893  -0.015486  -0.014743  -0.000036
    15  Br   0.034181   0.021898   0.004903   0.023079   0.026611  -0.000367
               7          8          9         10         11         12
     1  C    0.058276   0.005845   0.042701  -0.115245   0.023986   0.301923
     2  C    0.243678  -0.018820  -0.018773   0.309773  -0.083869  -0.001182
     3  C    0.062913   0.090061   0.005814  -0.903758  -0.255040  -0.285037
     4  C   -0.026824   0.218896  -0.012788   0.314617  -0.037895  -0.086447
     5  C   -0.017049  -0.022000   0.305726   0.020720  -0.060415  -0.039569
     6  H   -0.001428   0.000002  -0.002178  -0.000545  -0.000025   0.000005
     7  H    0.281168   0.000003   0.000027  -0.022922  -0.001281   0.020144
     8  H    0.000003   0.314490   0.000096  -0.026016   0.024662  -0.001074
     9  H    0.000027   0.000096   0.321868   0.000349   0.000005   0.000006
    10  N   -0.022922  -0.026016   0.000349   7.353681   0.161955   0.181309
    11  O   -0.001281   0.024662   0.000005   0.161955   7.900483   0.001007
    12  O    0.020144  -0.001074   0.000006   0.181309   0.001007   7.805781
    13  C    0.012752   0.064338   0.006624  -0.173648   0.330146   0.034014
    14  H   -0.000021  -0.004770  -0.005312  -0.000161  -0.000212  -0.000078
    15  Br  -0.000030   0.003600   0.003014   0.008205  -0.000215   0.002063
              13         14         15
     1  C    1.318447  -0.013747   0.034181
     2  C   -1.547952   0.008688   0.021898
     3  C    0.716180  -0.004893   0.004903
     4  C   -3.373915  -0.015486   0.023079
     5  C   -1.555078  -0.014743   0.026611
     6  H   -0.005618  -0.000036  -0.000367
     7  H    0.012752  -0.000021  -0.000030
     8  H    0.064338  -0.004770   0.003600
     9  H    0.006624  -0.005312   0.003014
    10  N   -0.173648  -0.000161   0.008205
    11  O    0.330146  -0.000212  -0.000215
    12  O    0.034014  -0.000078   0.002063
    13  C   10.239620   0.349695   0.045031
    14  H    0.349695   0.362503  -0.047890
    15  Br   0.045031  -0.047890  34.746016
 Mulliken charges:
               1
     1  C   -0.563664
     2  C    0.484766
     3  C   -0.681842
     4  C    0.270034
     5  C    0.023773
     6  H    0.361576
     7  H    0.390593
     8  H    0.350686
     9  H    0.352821
    10  N   -0.108315
    11  O   -0.003293
    12  O    0.067135
    13  C   -0.460637
    14  H    0.386464
    15  Br   0.129903
 Sum of Mulliken charges =   1.00000
 Mulliken charges with hydrogens summed into heavy atoms:
               1
     1  C   -0.202088
     2  C    0.875359
     3  C   -0.681842
     4  C    0.620720
     5  C    0.376594
    10  N   -0.108315
    11  O   -0.003293
    12  O    0.067135
    13  C   -0.074174
    15  Br   0.129903
 Electronic spatial extent (au):  <R**2>=           2799.2123
 Charge=              1.0000 electrons
 Dipole moment (field-independent basis, Debye):
    X=             -0.5940    Y=              1.3667    Z=              0.2333  Tot=              1.5083
 Quadrupole moment (field-independent basis, Debye-Ang):
   XX=            -70.8662   YY=            -52.9210   ZZ=            -63.1957
   XY=              3.4840   XZ=              0.8924   YZ=              0.7679
 Traceless Quadrupole moment (field-independent basis, Debye-Ang):
   XX=             -8.5386   YY=              9.4066   ZZ=             -0.8681
   XY=              3.4840   XZ=              0.8924   YZ=              0.7679
 Octapole moment (field-independent basis, Debye-Ang**2):
  XXX=           -297.2404  YYY=             99.3331  ZZZ=             78.9762  XYY=            -74.7740
  XXY=             40.4996  XXZ=             32.4777  XZZ=            -77.5686  YZZ=             19.3768
  YYZ=             28.0523  XYZ=             -2.9540
 Hexadecapole moment (field-independent basis, Debye-Ang**3):
 XXXX=          -2270.8130 YYYY=           -687.9136 ZZZZ=           -352.0360 XXXY=            -32.1441
 XXXZ=            -22.4281 YYYX=            -52.9178 YYYZ=           -163.4122 ZZZX=            -19.3905
 ZZZY=           -140.6115 XXYY=           -455.8259 XXZZ=           -370.8023 YYZZ=           -169.1423
 XXYZ=            -56.1730 YYXZ=             -3.7269 ZZXY=             -8.3089
 N-N= 7.399773729235D+02 E-N=-8.633159552304D+03  KE= 3.005863409672D+03
 No NMR shielding tensors so no spin-rotation constants.
 Leave Link  601 at Wed May  1 15:04:57 2024, MaxMem=  1207959552 cpu:               7.7 elap:               7.7
 (Enter /software/gaussian/g16-c01/sse4/g16/l9999.exe)
 Unable to Open any file for archive entry.
 1\1\GINC-BHX0022\SP\RwB97XD\6-311+G(d)\C6H5Br1N1O2(1+)\BWEIGHT\01-May-
 2024\0\\#P wB97XD/6-311+G* NoSymm #P Field=Y-68\\TitleMe\\1,1\C,0,0.02
 95,1.3397,0.0682\C,0,1.4348,1.2867,0.0064\C,0,2.1118,0.0511,-0.0054\C,
 0,1.4451,-1.1372,0.0312\C,0,-0.6879,0.1682,0.11\H,0,-0.4713,2.2984,0.0
 781\H,0,2.0273,2.1965,-0.0322\H,0,1.9897,-2.0764,0.0232\H,0,-1.7716,0.
 1804,0.1582\N,0,3.5864,0.051,-0.0675\O,0,4.1471,-1.0597,-0.0881\O,0,4.
 145,1.1639,-0.0901\C,0,-0.0236,-1.1458,0.0835\H,0,-0.4367,-1.8725,0.78
 89\Br,0,-0.5359,-1.8697,-1.7408\\Version=ES64L-G16RevC.01\HF=-3010.536
 3869\RMSD=8.874e-09\Dipole=-2.14023,1.6857646,1.2379828\Quadrupole=-6.
 3482276,6.9936039,-0.6453763,2.5902858,0.6635004,0.5708829\PG=C01 [X(C
 6H5Br1N1O2)]\\@
 The archive entry for this job was punched.


 THEREFORE SHALL EVIL COME UPON THEE...
 THOU SHALT NOT KNOW FROM WHENCE IT RISETH...
 AND MISCHIEF SHALL FALL UPON THEE...
 THOU SHALT NOT BE ABLE TO PUT IT OFF...
 AND DESOLATION SHALL COME UPON THEE SUDDENLY...
 WHICH THOU SHALT NOT KNOW...

                                         ISAIAH 47.11
 Job cpu time:       0 days  0 hours 18 minutes  3.7 seconds.
 Elapsed time:       0 days  0 hours 18 minutes  3.8 seconds.
 File lengths (MBytes):  RWF=     40 Int=      0 D2E=      0 Chk=     32 Scr=      1
 Normal termination of Gaussian 16 at Wed May  1 15:04:58 2024.
