 Entering Gaussian System, Link 0=g16
 Initial command:
 /software/gaussian/g16-c01/sse4/g16/l1.exe "/local_scratch/24665266/Gau-22240.inp" -scrdir="/local_scratch/24665266/"
 Entering Link 1 = /software/gaussian/g16-c01/sse4/g16/l1.exe PID=     22286.
  
 Copyright (c) 1988-2019, Gaussian, Inc.  All Rights Reserved.
  
 This is part of the Gaussian(R) 16 program.  It is based on
 the Gaussian(R) 09 system (copyright 2009, Gaussian, Inc.),
 the Gaussian(R) 03 system (copyright 2003, Gaussian, Inc.),
 the Gaussian(R) 98 system (copyright 1998, Gaussian, Inc.),
 the Gaussian(R) 94 system (copyright 1995, Gaussian, Inc.),
 the Gaussian 92(TM) system (copyright 1992, Gaussian, Inc.),
 the Gaussian 90(TM) system (copyright 1990, Gaussian, Inc.),
 the Gaussian 88(TM) system (copyright 1988, Gaussian, Inc.),
 the Gaussian 86(TM) system (copyright 1986, Carnegie Mellon
 University), and the Gaussian 82(TM) system (copyright 1983,
 Carnegie Mellon University). Gaussian is a federally registered
 trademark of Gaussian, Inc.
  
 This software contains proprietary and confidential information,
 including trade secrets, belonging to Gaussian, Inc.
  
 This software is provided under written license and may be
 used, copied, transmitted, or stored only in accord with that
 written license.
  
 The following legend is applicable only to US Government
 contracts under FAR:
  
                    RESTRICTED RIGHTS LEGEND
  
 Use, reproduction and disclosure by the US Government is
 subject to restrictions as set forth in subparagraphs (a)
 and (c) of the Commercial Computer Software - Restricted
 Rights clause in FAR 52.227-19.
  
 Gaussian, Inc.
 340 Quinnipiac St., Bldg. 40, Wallingford CT 06492
  
  
 ---------------------------------------------------------------
 Warning -- This program may not be used in any manner that
 competes with the business of Gaussian, Inc. or will provide
 assistance to any competitor of Gaussian, Inc.  The licensee
 of this program is prohibited from giving any competitor of
 Gaussian, Inc. access to this program.  By using this program,
 the user acknowledges that Gaussian, Inc. is engaged in the
 business of creating and licensing software in the field of
 computational chemistry and represents and warrants to the
 licensee that it is not a competitor of Gaussian, Inc. and that
 it will not use this program in any manner prohibited above.
 ---------------------------------------------------------------
  

 Cite this work as:
 Gaussian 16, Revision C.01,
 M. J. Frisch, G. W. Trucks, H. B. Schlegel, G. E. Scuseria, 
 M. A. Robb, J. R. Cheeseman, G. Scalmani, V. Barone, 
 G. A. Petersson, H. Nakatsuji, X. Li, M. Caricato, A. V. Marenich, 
 J. Bloino, B. G. Janesko, R. Gomperts, B. Mennucci, H. P. Hratchian, 
 J. V. Ortiz, A. F. Izmaylov, J. L. Sonnenberg, D. Williams-Young, 
 F. Ding, F. Lipparini, F. Egidi, J. Goings, B. Peng, A. Petrone, 
 T. Henderson, D. Ranasinghe, V. G. Zakrzewski, J. Gao, N. Rega, 
 G. Zheng, W. Liang, M. Hada, M. Ehara, K. Toyota, R. Fukuda, 
 J. Hasegawa, M. Ishida, T. Nakajima, Y. Honda, O. Kitao, H. Nakai, 
 T. Vreven, K. Throssell, J. A. Montgomery, Jr., J. E. Peralta, 
 F. Ogliaro, M. J. Bearpark, J. J. Heyd, E. N. Brothers, K. N. Kudin, 
 V. N. Staroverov, T. A. Keith, R. Kobayashi, J. Normand, 
 K. Raghavachari, A. P. Rendell, J. C. Burant, S. S. Iyengar, 
 J. Tomasi, M. Cossi, J. M. Millam, M. Klene, C. Adamo, R. Cammi, 
 J. W. Ochterski, R. L. Martin, K. Morokuma, O. Farkas, 
 J. B. Foresman, and D. J. Fox, Gaussian, Inc., Wallingford CT, 2019.
 
 ******************************************
 Gaussian 16:  ES64L-G16RevC.01  3-Jul-2019
                 2-May-2024 
 ******************************************
 %chk=geometry.chk
 %mem=1GB
 %nprocshared=12
 Will use up to   12 processors via shared memory.
 ---------------------------------------
 #P wB97XD/6-311+G* NoSymm #P Field=X+29
 ---------------------------------------
 1/38=1,172=1/1;
 2/12=2,15=1,17=6,18=5,40=1/2;
 3/5=4,6=6,7=11,11=2,14=1,15=29,25=1,30=1,74=-58/1,2,3;
 4//1;
 5/5=2,38=5/2;
 6/7=2,8=2,9=2,10=2,28=1/1;
 99/5=1,9=1/99;
 Leave Link    1 at Thu May  2 13:57:35 2024, MaxMem=   134217728 cpu:               3.3 elap:               3.3
 (Enter /software/gaussian/g16-c01/sse4/g16/l101.exe)
 -------
 TitleMe
 -------
 Symbolic Z-matrix:
 Charge =  1 Multiplicity = 1
 C                     0.5193    1.233    -0.0319 
 C                     1.9445    1.2692   -0.0367 
 C                     2.6204    0.0928   -0.025 
 C                    -0.196     0.0301    0.001 
 H                    -0.0207    2.1742   -0.0434 
 H                     2.4828    2.2089   -0.0361 
 H                    -1.2777    0.0399    0.0117 
 N                     4.0921    0.0959    0.0366 
 O                     4.6393   -1.0217    0.1446 
 O                     4.6649    1.1984   -0.0233 
 C                     0.4943   -1.1671    0.021 
 H                    -0.0325   -2.1149    0.0545 
 C                     1.9629   -1.2165   -0.0211 
 H                     2.4436   -1.9631    0.6151 
 Br                    2.173    -1.9491   -1.9062 
 
 ITRead=  0  0  0  0  0  0  0  0  0  0  0  0  0  0  0
 MicOpt= -1 -1 -1 -1 -1 -1 -1 -1 -1 -1 -1 -1 -1 -1 -1
 NAtoms=     15 NQM=       15 NQMF=       0 NMMI=      0 NMMIF=      0
                NMic=       0 NMicF=      0.
                    Isotopes and Nuclear Properties:
 (Nuclear quadrupole moments (NQMom) in fm**2, nuclear magnetic moments (NMagM)
  in nuclear magnetons)

  Atom         1           2           3           4           5           6           7           8           9          10
 IAtWgt=          12          12          12          12           1           1           1          14          16          16
 AtmWgt=  12.0000000  12.0000000  12.0000000  12.0000000   1.0078250   1.0078250   1.0078250  14.0030740  15.9949146  15.9949146
 NucSpn=           0           0           0           0           1           1           1           2           0           0
 AtZEff=  -0.0000000  -0.0000000  -0.0000000  -0.0000000  -0.0000000  -0.0000000  -0.0000000  -0.0000000  -0.0000000  -0.0000000
 NQMom=    0.0000000   0.0000000   0.0000000   0.0000000   0.0000000   0.0000000   0.0000000   2.0440000   0.0000000   0.0000000
 NMagM=    0.0000000   0.0000000   0.0000000   0.0000000   2.7928460   2.7928460   2.7928460   0.4037610   0.0000000   0.0000000
 AtZNuc=   6.0000000   6.0000000   6.0000000   6.0000000   1.0000000   1.0000000   1.0000000   7.0000000   8.0000000   8.0000000

  Atom        11          12          13          14          15
 IAtWgt=          12           1          12           1          79
 AtmWgt=  12.0000000   1.0078250  12.0000000   1.0078250  78.9183361
 NucSpn=           0           1           0           1           3
 AtZEff=  -0.0000000  -0.0000000  -0.0000000  -0.0000000  -0.0000000
 NQMom=    0.0000000   0.0000000   0.0000000   0.0000000  31.3000000
 NMagM=    0.0000000   2.7928460   0.0000000   2.7928460   2.1063990
 AtZNuc=   6.0000000   1.0000000   6.0000000   1.0000000  35.0000000
 Leave Link  101 at Thu May  2 13:57:37 2024, MaxMem=   134217728 cpu:               1.9 elap:               1.9
 (Enter /software/gaussian/g16-c01/sse4/g16/l202.exe)
                          Input orientation:                          
 ---------------------------------------------------------------------
 Center     Atomic      Atomic             Coordinates (Angstroms)
 Number     Number       Type             X           Y           Z
 ---------------------------------------------------------------------
      1          6           0        0.519300    1.233000   -0.031900
      2          6           0        1.944500    1.269200   -0.036700
      3          6           0        2.620400    0.092800   -0.025000
      4          6           0       -0.196000    0.030100    0.001000
      5          1           0       -0.020700    2.174200   -0.043400
      6          1           0        2.482800    2.208900   -0.036100
      7          1           0       -1.277700    0.039900    0.011700
      8          7           0        4.092100    0.095900    0.036600
      9          8           0        4.639300   -1.021700    0.144600
     10          8           0        4.664900    1.198400   -0.023300
     11          6           0        0.494300   -1.167100    0.021000
     12          1           0       -0.032500   -2.114900    0.054500
     13          6           0        1.962900   -1.216500   -0.021100
     14          1           0        2.443600   -1.963100    0.615100
     15         35           0        2.173000   -1.949100   -1.906200
 ---------------------------------------------------------------------
                    Distance matrix (angstroms):
                    1          2          3          4          5
     1  C    0.000000
     2  C    1.425668   0.000000
     3  C    2.390549   1.356796   0.000000
     4  C    1.399895   2.473566   2.817218   0.000000
     5  H    1.085168   2.163581   3.362733   2.151712   0.000000
     6  H    2.192654   1.082960   2.120598   3.453189   2.503751
     7  H    2.157452   3.449071   3.898632   1.081797   2.477564
     8  N    3.750012   2.448304   1.472992   4.288753   4.608780
     9  O    4.699917   3.541615   2.312322   4.950458   5.653735
    10  O    4.145753   2.721354   2.324292   4.999386   4.786171
    11  C    2.400813   2.835836   2.471794   1.382101   3.381369
    12  H    3.394169   3.920329   3.452266   2.151887   4.290233
    13  C    2.843264   2.485817   1.465124   2.493060   3.928360
    14  H    3.786370   3.334922   2.160489   3.364142   4.860416
    15  Br   4.046416   3.728900   2.812194   3.628609   5.028314
                    6          7          8          9         10
     6  H    0.000000
     7  H    4.341452   0.000000
     8  N    2.657047   5.370150   0.000000
     9  O    3.888434   6.012948   1.249048   0.000000
    10  O    2.404752   6.054572   1.243863   2.226587   0.000000
    11  C    3.918516   2.144043   3.813080   4.149391   4.794941
    12  H    5.003018   2.489080   4.679774   4.798846   5.748876
    13  C    3.464662   3.475788   2.501842   2.688591   3.623886
    14  H    4.222698   4.268978   2.700314   2.434893   3.916224
    15  Br   4.569706   4.420610   3.411663   3.338935   4.434144
                   11         12         13         14         15
    11  C    0.000000
    12  H    1.084880   0.000000
    13  C    1.470034   2.189625   0.000000
    14  H    2.187771   2.543302   1.092353   0.000000
    15  Br   2.672762   2.955683   2.033334   2.535818   0.000000
 Symmetry turned off by external request.
 Stoichiometry    C6H5BrNO2(1+)
 Framework group  C1[X(C6H5BrNO2)]
 Deg. of freedom    39
 Full point group                 C1      NOp   1
 Rotational constants (GHZ):           1.1632986           0.9594224           0.5957624
 Leave Link  202 at Thu May  2 13:57:38 2024, MaxMem=   134217728 cpu:               1.3 elap:               1.3
 (Enter /software/gaussian/g16-c01/sse4/g16/l301.exe)
 Standard basis: 6-311+G(d) (5D, 7F)
 Ernie: Thresh=  0.10000D-02 Tol=  0.10000D-05 Strict=F.
 The following finite field(s) will be applied:
 An electric field of              0.0029  0.0000  0.0000
   261 basis functions,   443 primitive gaussians,   273 cartesian basis functions
    49 alpha electrons       49 beta electrons
       nuclear repulsion energy       772.8945969580 Hartrees.
 IExCor= 4639 DFT=T Ex+Corr=wB97XD ExCW=0 ScaHFX=  1.000000
 ScaDFX=  1.000000  1.000000  1.000000  1.000000 ScalE2=  1.000000  1.000000
 IRadAn=      5 IRanWt=     -1 IRanGd=            0 ICorTp=0 IEmpDi=121
 HFx  wShort=  0.000000 wLong=  0.200000 cFull=  0.222036 cShort=  0.000000 cLong=  0.777964
 DFx  wShort=  0.000000 wLong=  0.200000 cFull=  0.000000 cShort=  0.000000 cLong=  1.000000
 NAtoms=   15 NActive=   15 NUniq=   15 SFac= 1.00D+00 NAtFMM=   60 NAOKFM=F Big=F
 Integral buffers will be    131072 words long.
 Raffenetti 2 integral format.
 Two-electron integral symmetry is turned off.
 R6Disp:  Grimme-D2 Dispersion energy=       -0.0080346408 Hartrees.
 Nuclear repulsion after empirical dispersion term =      772.8865623173 Hartrees.
 Leave Link  301 at Thu May  2 13:57:40 2024, MaxMem=   134217728 cpu:               1.1 elap:               1.1
 (Enter /software/gaussian/g16-c01/sse4/g16/l302.exe)
 NPDir=0 NMtPBC=     1 NCelOv=     1 NCel=       1 NClECP=     1 NCelD=      1
         NCelK=      1 NCelE2=     1 NClLst=     1 CellRange=     0.0.
 One-electron integrals computed using PRISM.
 NBasis=   261 RedAO= T EigKep=  2.52D-06  NBF=   261
 NBsUse=   261 1.00D-06 EigRej= -1.00D+00 NBFU=   261
 Precomputing XC quadrature grid using
 IXCGrd= 4 IRadAn=           5 IRanWt=          -1 IRanGd=           0 AccXCQ= 0.00D+00.
 Generated NRdTot=       0 NPtTot=           0 NUsed=           0 NTot=          32
 NSgBfM=   273   273   273   273   273 MxSgAt=    15 MxSgA2=    15.
 Leave Link  302 at Thu May  2 13:58:02 2024, MaxMem=   134217728 cpu:              21.7 elap:              21.7
 (Enter /software/gaussian/g16-c01/sse4/g16/l303.exe)
 DipDrv:  MaxL=1.
 The nuclear repulsion energy is now       774.1294795602 hartrees.
 Leave Link  303 at Thu May  2 13:58:05 2024, MaxMem=   134217728 cpu:               3.4 elap:               3.4
 (Enter /software/gaussian/g16-c01/sse4/g16/l401.exe)
 ExpMin= 3.50D-02 ExpMax= 4.40D+05 ExpMxC= 1.51D+04 IAcc=3 IRadAn=         5 AccDes= 0.00D+00
 Harris functional with IExCor= 4639 and IRadAn=       5 diagonalized for initial guess.
 HarFok:  IExCor= 4639 AccDes= 0.00D+00 IRadAn=         5 IDoV= 1 UseB2=F ITyADJ=14
 ICtDFT=  3500011 ScaDFX=  1.000000  1.000000  1.000000  1.000000
 FoFCou: FMM=F IPFlag=           0 FMFlag=      100000 FMFlg1=           0
         NFxFlg=           0 DoJE=T BraDBF=F KetDBF=T FulRan=T
         wScrn=  0.000000 ICntrl=       500 IOpCl=  0 I1Cent=   200000004 NGrid=           0
         NMat0=    1 NMatS0=      1 NMatT0=    0 NMatD0=    1 NMtDS0=    0 NMtDT0=    0
 Symmetry not used in FoFCou.
 Harris En= -2970.59625943497    
 JPrj=0 DoOrth=F DoCkMO=F.
 Leave Link  401 at Thu May  2 13:58:37 2024, MaxMem=   134217728 cpu:              31.5 elap:              31.6
 (Enter /software/gaussian/g16-c01/sse4/g16/l502.exe)
 Two-electron integral symmetry not used.
 Closed shell SCF:
 Using DIIS extrapolation, IDIIS=  1040.
 NGot=   134217728 LenX=   134063053 LenY=   133988083
 Requested convergence on RMS density matrix=1.00D-08 within 128 cycles.
 Requested convergence on MAX density matrix=1.00D-06.
 Requested convergence on             energy=1.00D-06.
 No special actions if energy rises.
 Fock matrices will be formed incrementally for  20 cycles.

 Cycle   1  Pass 1  IDiag  1:
 FoFJK:  IHMeth= 1 ICntrl=       0 DoSepK=T KAlg= 0 I1Cent=           0 FoldK=F
 IRaf=         1 NMat=       1 IRICut=       1 DoRegI=T DoRafI=F ISym2E= 0 IDoP0=0 IntGTp=1.
 FoFCou: FMM=F IPFlag=           0 FMFlag=      100000 FMFlg1=           0
         NFxFlg=           0 DoJE=T BraDBF=F KetDBF=F FulRan=T
         wScrn=  0.000000 ICntrl=       500 IOpCl=  0 I1Cent=           0 NGrid=           0
         NMat0=    1 NMatS0=      1 NMatT0=    0 NMatD0=    1 NMtDS0=    0 NMtDT0=    0
 Symmetry not used in FoFCou.
 E= -3009.70712775510    
 DIIS: error= 2.90D-01 at cycle   1 NSaved=   1.
 NSaved= 1 IEnMin= 1 EnMin= -3009.70712775510     IErMin= 1 ErrMin= 2.90D-01
 ErrMax= 2.90D-01  0.00D+00 EMaxC= 1.00D-01 BMatC= 1.19D+01 BMatP= 1.19D+01
 IDIUse=3 WtCom= 0.00D+00 WtEn= 1.00D+00
 Coeff-Com:  0.100D+01
 Coeff-En:   0.100D+01
 Coeff:      0.100D+01
 Gap=     0.309 Goal=   None    Shift=    0.000
 GapD=    0.309 DampG=1.000 DampE=0.250 DampFc=0.2500 IDamp=-1.
 Damping current iteration by 2.50D-01
 RMSDP=4.22D-02 MaxDP=4.20D+00              OVMax= 2.62D-01

 Cycle   2  Pass 1  IDiag  1:
 RMSU=  5.71D-03    CP:  9.16D-01
 E= -3009.99444662525     Delta-E=       -0.287318870155 Rises=F Damp=T
 DIIS: error= 2.19D-01 at cycle   2 NSaved=   2.
 NSaved= 2 IEnMin= 2 EnMin= -3009.99444662525     IErMin= 2 ErrMin= 2.19D-01
 ErrMax= 2.19D-01  0.00D+00 EMaxC= 1.00D-01 BMatC= 5.45D+00 BMatP= 1.19D+01
 IDIUse=3 WtCom= 0.00D+00 WtEn= 1.00D+00
 Coeff-Com: -0.183D+01 0.283D+01
 Coeff-En:   0.000D+00 0.100D+01
 Coeff:      0.000D+00 0.100D+01
 Gap=     0.267 Goal=   None    Shift=    0.000
 RMSDP=3.33D-02 MaxDP=3.46D+00 DE=-2.87D-01 OVMax= 7.11D-02

 Cycle   3  Pass 1  IDiag  1:
 RMSU=  4.83D-03    CP:  6.25D-01  3.00D+00
 E= -3010.37630589000     Delta-E=       -0.381859264741 Rises=F Damp=F
 DIIS: error= 6.59D-02 at cycle   3 NSaved=   3.
 NSaved= 3 IEnMin= 3 EnMin= -3010.37630589000     IErMin= 3 ErrMin= 6.59D-02
 ErrMax= 6.59D-02  0.00D+00 EMaxC= 1.00D-01 BMatC= 7.32D-01 BMatP= 5.45D+00
 IDIUse=3 WtCom= 3.41D-01 WtEn= 6.59D-01
 Coeff-Com:  0.263D+01-0.345D+01 0.182D+01
 Coeff-En:   0.338D-01 0.000D+00 0.966D+00
 Coeff:      0.919D+00-0.118D+01 0.126D+01
 Gap=     0.258 Goal=   None    Shift=    0.000
 RMSDP=1.12D-02 MaxDP=7.26D-01 DE=-3.82D-01 OVMax= 7.05D-02

 Cycle   4  Pass 1  IDiag  1:
 RMSU=  5.48D-03    CP:  6.60D-01  1.76D+00  2.12D+00
 E= -3010.48291941055     Delta-E=       -0.106613520559 Rises=F Damp=F
 DIIS: error= 3.79D-02 at cycle   4 NSaved=   4.
 NSaved= 4 IEnMin= 4 EnMin= -3010.48291941055     IErMin= 4 ErrMin= 3.79D-02
 ErrMax= 3.79D-02  0.00D+00 EMaxC= 1.00D-01 BMatC= 2.24D-01 BMatP= 7.32D-01
 IDIUse=3 WtCom= 6.21D-01 WtEn= 3.79D-01
 Coeff-Com: -0.318D-01 0.562D-01 0.348D+00 0.628D+00
 Coeff-En:   0.000D+00 0.000D+00 0.194D+00 0.806D+00
 Coeff:     -0.198D-01 0.349D-01 0.290D+00 0.695D+00
 Gap=     0.255 Goal=   None    Shift=    0.000
 RMSDP=5.34D-03 MaxDP=6.49D-01 DE=-1.07D-01 OVMax= 3.21D-02

 Cycle   5  Pass 1  IDiag  1:
 RMSU=  1.49D-03    CP:  6.21D-01  2.01D+00  1.99D+00  5.51D-01
 E= -3010.52613028502     Delta-E=       -0.043210874463 Rises=F Damp=F
 DIIS: error= 6.54D-03 at cycle   5 NSaved=   5.
 NSaved= 5 IEnMin= 5 EnMin= -3010.52613028502     IErMin= 5 ErrMin= 6.54D-03
 ErrMax= 6.54D-03  0.00D+00 EMaxC= 1.00D-01 BMatC= 8.96D-03 BMatP= 2.24D-01
 IDIUse=3 WtCom= 9.35D-01 WtEn= 6.54D-02
 Coeff-Com: -0.110D+00 0.152D+00 0.110D+00 0.389D+00 0.459D+00
 Coeff-En:   0.000D+00 0.000D+00 0.000D+00 0.000D+00 0.100D+01
 Coeff:     -0.103D+00 0.142D+00 0.103D+00 0.364D+00 0.494D+00
 Gap=     0.246 Goal=   None    Shift=    0.000
 RMSDP=1.50D-03 MaxDP=1.84D-01 DE=-4.32D-02 OVMax= 2.44D-02

 Cycle   6  Pass 1  IDiag  1:
 RMSU=  5.58D-04    CP:  6.28D-01  2.00D+00  2.06D+00  7.32D-01  6.53D-01
 E= -3010.52873545364     Delta-E=       -0.002605168621 Rises=F Damp=F
 DIIS: error= 2.74D-03 at cycle   6 NSaved=   6.
 NSaved= 6 IEnMin= 6 EnMin= -3010.52873545364     IErMin= 6 ErrMin= 2.74D-03
 ErrMax= 2.74D-03  0.00D+00 EMaxC= 1.00D-01 BMatC= 6.41D-04 BMatP= 8.96D-03
 IDIUse=3 WtCom= 9.73D-01 WtEn= 2.74D-02
 Coeff-Com: -0.973D-01 0.131D+00 0.180D-02 0.165D+00 0.337D+00 0.462D+00
 Coeff-En:   0.000D+00 0.000D+00 0.000D+00 0.000D+00 0.956D-01 0.904D+00
 Coeff:     -0.946D-01 0.127D+00 0.176D-02 0.161D+00 0.331D+00 0.474D+00
 Gap=     0.245 Goal=   None    Shift=    0.000
 RMSDP=4.17D-04 MaxDP=3.87D-02 DE=-2.61D-03 OVMax= 8.41D-03

 Cycle   7  Pass 1  IDiag  1:
 RMSU=  2.07D-04    CP:  6.26D-01  2.00D+00  2.06D+00  6.96D-01  7.62D-01
                    CP:  6.69D-01
 E= -3010.52918302357     Delta-E=       -0.000447569934 Rises=F Damp=F
 DIIS: error= 3.16D-04 at cycle   7 NSaved=   7.
 NSaved= 7 IEnMin= 7 EnMin= -3010.52918302357     IErMin= 7 ErrMin= 3.16D-04
 ErrMax= 3.16D-04  0.00D+00 EMaxC= 1.00D-01 BMatC= 1.42D-05 BMatP= 6.41D-04
 IDIUse=3 WtCom= 9.97D-01 WtEn= 3.16D-03
 Coeff-Com: -0.356D-01 0.475D-01-0.116D-01 0.350D-01 0.850D-01 0.180D+00
 Coeff-Com:  0.700D+00
 Coeff-En:   0.000D+00 0.000D+00 0.000D+00 0.000D+00 0.000D+00 0.000D+00
 Coeff-En:   0.100D+01
 Coeff:     -0.355D-01 0.473D-01-0.115D-01 0.349D-01 0.847D-01 0.180D+00
 Coeff:      0.700D+00
 Gap=     0.246 Goal=   None    Shift=    0.000
 RMSDP=1.26D-04 MaxDP=9.44D-03 DE=-4.48D-04 OVMax= 1.08D-03

 Cycle   8  Pass 1  IDiag  1:
 RMSU=  5.39D-05    CP:  6.26D-01  1.99D+00  2.06D+00  7.06D-01  7.99D-01
                    CP:  7.02D-01  9.10D-01
 E= -3010.52919739844     Delta-E=       -0.000014374872 Rises=F Damp=F
 DIIS: error= 1.05D-04 at cycle   8 NSaved=   8.
 NSaved= 8 IEnMin= 8 EnMin= -3010.52919739844     IErMin= 8 ErrMin= 1.05D-04
 ErrMax= 1.05D-04  0.00D+00 EMaxC= 1.00D-01 BMatC= 2.01D-06 BMatP= 1.42D-05
 IDIUse=3 WtCom= 9.99D-01 WtEn= 1.05D-03
 Coeff-Com:  0.323D-02-0.452D-02-0.342D-02-0.109D-01-0.235D-01-0.277D-01
 Coeff-Com:  0.177D+00 0.890D+00
 Coeff-En:   0.000D+00 0.000D+00 0.000D+00 0.000D+00 0.000D+00 0.000D+00
 Coeff-En:   0.000D+00 0.100D+01
 Coeff:      0.322D-02-0.451D-02-0.341D-02-0.109D-01-0.234D-01-0.277D-01
 Coeff:      0.177D+00 0.890D+00
 Gap=     0.246 Goal=   None    Shift=    0.000
 RMSDP=6.54D-05 MaxDP=6.12D-03 DE=-1.44D-05 OVMax= 7.73D-04

 Cycle   9  Pass 1  IDiag  1:
 RMSU=  2.15D-05    CP:  6.26D-01  1.99D+00  2.07D+00  7.11D-01  8.07D-01
                    CP:  7.04D-01  1.05D+00  1.17D+00
 E= -3010.52920029634     Delta-E=       -0.000002897900 Rises=F Damp=F
 DIIS: error= 2.05D-05 at cycle   9 NSaved=   9.
 NSaved= 9 IEnMin= 9 EnMin= -3010.52920029634     IErMin= 9 ErrMin= 2.05D-05
 ErrMax= 2.05D-05  0.00D+00 EMaxC= 1.00D-01 BMatC= 1.88D-07 BMatP= 2.01D-06
 IDIUse=1 WtCom= 1.00D+00 WtEn= 0.00D+00
 Coeff-Com:  0.573D-02-0.771D-02 0.456D-03-0.794D-02-0.163D-01-0.295D-01
 Coeff-Com: -0.477D-01 0.264D+00 0.839D+00
 Coeff:      0.573D-02-0.771D-02 0.456D-03-0.794D-02-0.163D-01-0.295D-01
 Coeff:     -0.477D-01 0.264D+00 0.839D+00
 Gap=     0.246 Goal=   None    Shift=    0.000
 RMSDP=3.06D-05 MaxDP=3.25D-03 DE=-2.90D-06 OVMax= 3.50D-04

 Cycle  10  Pass 1  IDiag  1:
 RMSU=  6.94D-06    CP:  6.26D-01  1.99D+00  2.07D+00  7.10D-01  8.12D-01
                    CP:  6.93D-01  1.09D+00  1.42D+00  1.02D+00
 E= -3010.52920076745     Delta-E=       -0.000000471103 Rises=F Damp=F
 DIIS: error= 1.21D-05 at cycle  10 NSaved=  10.
 NSaved=10 IEnMin=10 EnMin= -3010.52920076745     IErMin=10 ErrMin= 1.21D-05
 ErrMax= 1.21D-05  0.00D+00 EMaxC= 1.00D-01 BMatC= 4.45D-08 BMatP= 1.88D-07
 IDIUse=1 WtCom= 1.00D+00 WtEn= 0.00D+00
 Coeff-Com:  0.659D-03-0.866D-03 0.321D-03-0.543D-03 0.937D-03 0.119D-02
 Coeff-Com: -0.360D-01-0.551D-01 0.209D+00 0.880D+00
 Coeff:      0.659D-03-0.866D-03 0.321D-03-0.543D-03 0.937D-03 0.119D-02
 Coeff:     -0.360D-01-0.551D-01 0.209D+00 0.880D+00
 Gap=     0.246 Goal=   None    Shift=    0.000
 RMSDP=1.08D-05 MaxDP=1.05D-03 DE=-4.71D-07 OVMax= 1.88D-04

 Cycle  11  Pass 1  IDiag  1:
 RMSU=  5.90D-06    CP:  6.26D-01  1.99D+00  2.07D+00  7.10D-01  8.12D-01
                    CP:  6.89D-01  1.08D+00  1.51D+00  1.10D+00  1.21D+00
 E= -3010.52920086642     Delta-E=       -0.000000098973 Rises=F Damp=F
 DIIS: error= 3.41D-06 at cycle  11 NSaved=  11.
 NSaved=11 IEnMin=11 EnMin= -3010.52920086642     IErMin=11 ErrMin= 3.41D-06
 ErrMax= 3.41D-06  0.00D+00 EMaxC= 1.00D-01 BMatC= 4.60D-09 BMatP= 4.45D-08
 IDIUse=1 WtCom= 1.00D+00 WtEn= 0.00D+00
 Coeff-Com: -0.190D-03 0.256D-03 0.539D-04 0.584D-03 0.157D-02 0.345D-02
 Coeff-Com:  0.897D-02-0.188D-01-0.135D+00-0.125D+00 0.126D+01
 Coeff:     -0.190D-03 0.256D-03 0.539D-04 0.584D-03 0.157D-02 0.345D-02
 Coeff:      0.897D-02-0.188D-01-0.135D+00-0.125D+00 0.126D+01
 Gap=     0.246 Goal=   None    Shift=    0.000
 RMSDP=1.11D-05 MaxDP=1.11D-03 DE=-9.90D-08 OVMax= 1.47D-04

 Cycle  12  Pass 1  IDiag  1:
 RMSU=  1.33D-06    CP:  6.26D-01  1.99D+00  2.07D+00  7.10D-01  8.12D-01
                    CP:  6.82D-01  1.07D+00  1.59D+00  1.10D+00  1.49D+00
                    CP:  1.68D+00
 E= -3010.52920089733     Delta-E=       -0.000000030908 Rises=F Damp=F
 DIIS: error= 2.61D-06 at cycle  12 NSaved=  12.
 NSaved=12 IEnMin=12 EnMin= -3010.52920089733     IErMin=12 ErrMin= 2.61D-06
 ErrMax= 2.61D-06  0.00D+00 EMaxC= 1.00D-01 BMatC= 1.26D-09 BMatP= 4.60D-09
 IDIUse=1 WtCom= 1.00D+00 WtEn= 0.00D+00
 Coeff-Com: -0.153D-03 0.202D-03-0.193D-04 0.319D-03 0.354D-03 0.101D-02
 Coeff-Com:  0.106D-01 0.291D-02-0.966D-01-0.232D+00 0.534D+00 0.780D+00
 Coeff:     -0.153D-03 0.202D-03-0.193D-04 0.319D-03 0.354D-03 0.101D-02
 Coeff:      0.106D-01 0.291D-02-0.966D-01-0.232D+00 0.534D+00 0.780D+00
 Gap=     0.246 Goal=   None    Shift=    0.000
 RMSDP=2.70D-06 MaxDP=2.73D-04 DE=-3.09D-08 OVMax= 6.78D-05

 Cycle  13  Pass 1  IDiag  1:
 RMSU=  6.63D-07    CP:  6.26D-01  1.99D+00  2.07D+00  7.10D-01  8.12D-01
                    CP:  6.81D-01  1.07D+00  1.60D+00  1.11D+00  1.55D+00
                    CP:  1.92D+00  1.26D+00
 E= -3010.52920090337     Delta-E=       -0.000000006039 Rises=F Damp=F
 DIIS: error= 1.06D-06 at cycle  13 NSaved=  13.
 NSaved=13 IEnMin=13 EnMin= -3010.52920090337     IErMin=13 ErrMin= 1.06D-06
 ErrMax= 1.06D-06  0.00D+00 EMaxC= 1.00D-01 BMatC= 2.44D-10 BMatP= 1.26D-09
 IDIUse=1 WtCom= 1.00D+00 WtEn= 0.00D+00
 Coeff-Com:  0.984D-05-0.133D-04-0.160D-04-0.933D-04-0.391D-03-0.818D-03
 Coeff-Com: -0.156D-02 0.333D-02 0.275D-01 0.739D-02-0.248D+00 0.157D+00
 Coeff-Com:  0.106D+01
 Coeff:      0.984D-05-0.133D-04-0.160D-04-0.933D-04-0.391D-03-0.818D-03
 Coeff:     -0.156D-02 0.333D-02 0.275D-01 0.739D-02-0.248D+00 0.157D+00
 Coeff:      0.106D+01
 Gap=     0.246 Goal=   None    Shift=    0.000
 RMSDP=9.37D-07 MaxDP=6.06D-05 DE=-6.04D-09 OVMax= 3.72D-05

 Cycle  14  Pass 1  IDiag  1:
 RMSU=  3.06D-07    CP:  6.26D-01  1.99D+00  2.07D+00  7.10D-01  8.12D-01
                    CP:  6.81D-01  1.07D+00  1.60D+00  1.10D+00  1.55D+00
                    CP:  1.99D+00  1.56D+00  1.57D+00
 E= -3010.52920090463     Delta-E=       -0.000000001263 Rises=F Damp=F
 DIIS: error= 3.62D-07 at cycle  14 NSaved=  14.
 NSaved=14 IEnMin=14 EnMin= -3010.52920090463     IErMin=14 ErrMin= 3.62D-07
 ErrMax= 3.62D-07  0.00D+00 EMaxC= 1.00D-01 BMatC= 4.40D-11 BMatP= 2.44D-10
 IDIUse=1 WtCom= 1.00D+00 WtEn= 0.00D+00
 Coeff-Com:  0.114D-04-0.149D-04-0.754D-05-0.702D-04-0.172D-03-0.389D-03
 Coeff-Com: -0.204D-02 0.468D-03 0.251D-01 0.353D-01-0.185D+00-0.527D-01
 Coeff-Com:  0.383D+00 0.796D+00
 Coeff:      0.114D-04-0.149D-04-0.754D-05-0.702D-04-0.172D-03-0.389D-03
 Coeff:     -0.204D-02 0.468D-03 0.251D-01 0.353D-01-0.185D+00-0.527D-01
 Coeff:      0.383D+00 0.796D+00
 Gap=     0.246 Goal=   None    Shift=    0.000
 RMSDP=4.43D-07 MaxDP=4.48D-05 DE=-1.26D-09 OVMax= 1.41D-05

 Cycle  15  Pass 1  IDiag  1:
 RMSU=  1.10D-07    CP:  6.26D-01  1.99D+00  2.07D+00  7.10D-01  8.12D-01
                    CP:  6.81D-01  1.07D+00  1.60D+00  1.10D+00  1.55D+00
                    CP:  2.01D+00  1.65D+00  1.83D+00  1.36D+00
 E= -3010.52920090485     Delta-E=       -0.000000000216 Rises=F Damp=F
 DIIS: error= 1.36D-07 at cycle  15 NSaved=  15.
 NSaved=15 IEnMin=15 EnMin= -3010.52920090485     IErMin=15 ErrMin= 1.36D-07
 ErrMax= 1.36D-07  0.00D+00 EMaxC= 1.00D-01 BMatC= 8.34D-12 BMatP= 4.40D-11
 IDIUse=1 WtCom= 1.00D+00 WtEn= 0.00D+00
 Coeff-Com:  0.674D-05-0.895D-05 0.239D-05-0.347D-05 0.382D-04 0.838D-04
 Coeff-Com: -0.148D-03-0.504D-03 0.108D-02 0.717D-02 0.406D-02-0.448D-01
 Coeff-Com: -0.142D+00 0.253D+00 0.922D+00
 Coeff:      0.674D-05-0.895D-05 0.239D-05-0.347D-05 0.382D-04 0.838D-04
 Coeff:     -0.148D-03-0.504D-03 0.108D-02 0.717D-02 0.406D-02-0.448D-01
 Coeff:     -0.142D+00 0.253D+00 0.922D+00
 Gap=     0.246 Goal=   None    Shift=    0.000
 RMSDP=1.56D-07 MaxDP=9.41D-06 DE=-2.16D-10 OVMax= 6.52D-06

 Cycle  16  Pass 1  IDiag  1:
 RMSU=  5.33D-08    CP:  6.26D-01  1.99D+00  2.07D+00  7.10D-01  8.12D-01
                    CP:  6.81D-01  1.07D+00  1.60D+00  1.10D+00  1.55D+00
                    CP:  2.01D+00  1.68D+00  1.94D+00  1.60D+00  1.37D+00
 E= -3010.52920090491     Delta-E=       -0.000000000061 Rises=F Damp=F
 DIIS: error= 4.33D-08 at cycle  16 NSaved=  16.
 NSaved=16 IEnMin=16 EnMin= -3010.52920090491     IErMin=16 ErrMin= 4.33D-08
 ErrMax= 4.33D-08  0.00D+00 EMaxC= 1.00D-01 BMatC= 6.53D-13 BMatP= 8.34D-12
 IDIUse=1 WtCom= 1.00D+00 WtEn= 0.00D+00
 Coeff-Com:  0.687D-06-0.932D-06 0.147D-05 0.632D-05 0.248D-04 0.563D-04
 Coeff-Com:  0.160D-03-0.230D-03-0.240D-02-0.182D-02 0.189D-01-0.509D-02
 Coeff-Com: -0.667D-01-0.401D-01 0.156D+00 0.941D+00
 Coeff:      0.687D-06-0.932D-06 0.147D-05 0.632D-05 0.248D-04 0.563D-04
 Coeff:      0.160D-03-0.230D-03-0.240D-02-0.182D-02 0.189D-01-0.509D-02
 Coeff:     -0.667D-01-0.401D-01 0.156D+00 0.941D+00
 Gap=     0.246 Goal=   None    Shift=    0.000
 RMSDP=7.97D-08 MaxDP=8.47D-06 DE=-6.14D-11 OVMax= 2.06D-06

 Cycle  17  Pass 1  IDiag  1:
 RMSU=  1.79D-08    CP:  6.26D-01  1.99D+00  2.07D+00  7.10D-01  8.12D-01
                    CP:  6.81D-01  1.07D+00  1.60D+00  1.10D+00  1.55D+00
                    CP:  2.02D+00  1.68D+00  1.98D+00  1.69D+00  1.63D+00
                    CP:  1.13D+00
 E= -3010.52920090490     Delta-E=        0.000000000003 Rises=F Damp=F
 DIIS: error= 2.22D-08 at cycle  17 NSaved=  17.
 NSaved=17 IEnMin=16 EnMin= -3010.52920090491     IErMin=17 ErrMin= 2.22D-08
 ErrMax= 2.22D-08  0.00D+00 EMaxC= 1.00D-01 BMatC= 1.67D-13 BMatP= 6.53D-13
 IDIUse=1 WtCom= 1.00D+00 WtEn= 0.00D+00
 Coeff-Com: -0.121D-05 0.161D-05 0.484D-07 0.293D-05 0.410D-05 0.854D-05
 Coeff-Com:  0.633D-04 0.258D-04-0.830D-03-0.130D-02 0.582D-02 0.460D-02
 Coeff-Com:  0.173D-02-0.485D-01-0.836D-01 0.279D+00 0.843D+00
 Coeff:     -0.121D-05 0.161D-05 0.484D-07 0.293D-05 0.410D-05 0.854D-05
 Coeff:      0.633D-04 0.258D-04-0.830D-03-0.130D-02 0.582D-02 0.460D-02
 Coeff:      0.173D-02-0.485D-01-0.836D-01 0.279D+00 0.843D+00
 Gap=     0.246 Goal=   None    Shift=    0.000
 RMSDP=2.37D-08 MaxDP=1.63D-06 DE= 3.18D-12 OVMax= 4.59D-07

 Cycle  18  Pass 1  IDiag  1:
 RMSU=  5.69D-09    CP:  6.26D-01  1.99D+00  2.07D+00  7.10D-01  8.12D-01
                    CP:  6.81D-01  1.07D+00  1.60D+00  1.10D+00  1.56D+00
                    CP:  2.02D+00  1.68D+00  1.98D+00  1.69D+00  1.71D+00
                    CP:  1.35D+00  1.18D+00
 E= -3010.52920090490     Delta-E=        0.000000000009 Rises=F Damp=F
 DIIS: error= 1.14D-08 at cycle  18 NSaved=  18.
 NSaved=18 IEnMin=16 EnMin= -3010.52920090491     IErMin=18 ErrMin= 1.14D-08
 ErrMax= 1.14D-08  0.00D+00 EMaxC= 1.00D-01 BMatC= 3.79D-14 BMatP= 1.67D-13
 IDIUse=1 WtCom= 1.00D+00 WtEn= 0.00D+00
 Coeff-Com: -0.245D-06 0.328D-06-0.275D-06-0.104D-05-0.623D-05-0.140D-04
 Coeff-Com: -0.260D-04 0.864D-04 0.294D-03-0.121D-03-0.323D-02 0.221D-02
 Coeff-Com:  0.184D-01-0.828D-02-0.671D-01-0.128D+00 0.299D+00 0.887D+00
 Coeff:     -0.245D-06 0.328D-06-0.275D-06-0.104D-05-0.623D-05-0.140D-04
 Coeff:     -0.260D-04 0.864D-04 0.294D-03-0.121D-03-0.323D-02 0.221D-02
 Coeff:      0.184D-01-0.828D-02-0.671D-01-0.128D+00 0.299D+00 0.887D+00
 Gap=     0.246 Goal=   None    Shift=    0.000
 RMSDP=2.91D-08 MaxDP=2.97D-06 DE= 9.09D-12 OVMax= 4.33D-07

 Cycle  19  Pass 1  IDiag  1:
 RMSU=  2.54D-09    CP:  6.26D-01  1.99D+00  2.07D+00  7.10D-01  8.12D-01
                    CP:  6.81D-01  1.07D+00  1.61D+00  1.10D+00  1.56D+00
                    CP:  2.02D+00  1.68D+00  1.99D+00  1.69D+00  1.75D+00
                    CP:  1.44D+00  1.43D+00  1.41D+00
 E= -3010.52920090493     Delta-E=       -0.000000000033 Rises=F Damp=F
 DIIS: error= 6.19D-09 at cycle  19 NSaved=  19.
 NSaved=19 IEnMin=19 EnMin= -3010.52920090493     IErMin=19 ErrMin= 6.19D-09
 ErrMax= 6.19D-09  0.00D+00 EMaxC= 1.00D-01 BMatC= 3.64D-15 BMatP= 3.79D-14
 IDIUse=1 WtCom= 1.00D+00 WtEn= 0.00D+00
 Large coefficients: NSaved= 19 BigCof=    0.00 CofMax=   10.00 Det=-6.86D-15
 Inversion failed.  Reducing to 18 matrices.
 Large coefficients: NSaved= 18 BigCof=    0.00 CofMax=   10.00 Det=-7.04D-15
 Inversion failed.  Reducing to 17 matrices.
 Large coefficients: NSaved= 17 BigCof=    0.00 CofMax=   10.00 Det=-9.94D-15
 Inversion failed.  Reducing to 16 matrices.
 Coeff-Com: -0.588D-07-0.103D-06-0.703D-06-0.680D-05 0.818D-07 0.759D-04
 Coeff-Com:  0.116D-03-0.510D-03-0.322D-03 0.893D-03 0.396D-02 0.679D-02
 Coeff-Com: -0.378D-01-0.857D-01 0.216D-01 0.109D+01
 Coeff:     -0.588D-07-0.103D-06-0.703D-06-0.680D-05 0.818D-07 0.759D-04
 Coeff:      0.116D-03-0.510D-03-0.322D-03 0.893D-03 0.396D-02 0.679D-02
 Coeff:     -0.378D-01-0.857D-01 0.216D-01 0.109D+01
 Gap=     0.246 Goal=   None    Shift=    0.000
 RMSDP=6.34D-09 MaxDP=5.70D-07 DE=-3.27D-11 OVMax= 1.30D-07

 SCF Done:  E(RwB97XD) =  -3010.52920090     A.U. after   19 cycles
            NFock= 19  Conv=0.63D-08     -V/T= 2.0016
 KE= 3.005855343294D+03 PE=-8.700871593539D+03 EE= 1.910357569780D+03
 Leave Link  502 at Thu May  2 14:18:25 2024, MaxMem=   134217728 cpu:            1187.0 elap:            1188.1
 (Enter /software/gaussian/g16-c01/sse4/g16/l601.exe)
 Copying SCF densities to generalized density rwf, IOpCl= 0 IROHF=0.

 **********************************************************************

            Population analysis using the SCF Density.

 **********************************************************************

 Alpha  occ. eigenvalues -- -483.32027 -62.87050 -56.66743 -56.66174 -56.66164
 Alpha  occ. eigenvalues --  -19.47993 -19.47962 -14.87364 -10.60158 -10.58945
 Alpha  occ. eigenvalues --  -10.57997 -10.57623 -10.54403 -10.53285  -9.02856
 Alpha  occ. eigenvalues --   -6.85536  -6.83667  -6.83637  -2.95440  -2.94948
 Alpha  occ. eigenvalues --   -2.94923  -2.93428  -2.93428  -1.51657  -1.34637
 Alpha  occ. eigenvalues --   -1.23305  -1.13701  -1.13374  -1.05676  -1.01345
 Alpha  occ. eigenvalues --   -0.96150  -0.91483  -0.86226  -0.82281  -0.81378
 Alpha  occ. eigenvalues --   -0.81204  -0.78740  -0.77706  -0.76481  -0.72804
 Alpha  occ. eigenvalues --   -0.69170  -0.68360  -0.64109  -0.60729  -0.59132
 Alpha  occ. eigenvalues --   -0.58458  -0.57727  -0.57125  -0.55582
 Alpha virt. eigenvalues --   -0.30942  -0.21671  -0.16561  -0.14068  -0.09075
 Alpha virt. eigenvalues --   -0.06597  -0.05870  -0.05342  -0.05008  -0.03731
 Alpha virt. eigenvalues --   -0.03062  -0.02495  -0.02089  -0.01431  -0.00426
 Alpha virt. eigenvalues --   -0.00001   0.00819   0.00999   0.01831   0.02642
 Alpha virt. eigenvalues --    0.03520   0.04535   0.04930   0.05512   0.06201
 Alpha virt. eigenvalues --    0.06489   0.06756   0.07378   0.08329   0.08783
 Alpha virt. eigenvalues --    0.09376   0.09962   0.10589   0.10775   0.11749
 Alpha virt. eigenvalues --    0.11861   0.12205   0.12459   0.13831   0.15061
 Alpha virt. eigenvalues --    0.15927   0.16213   0.16605   0.17725   0.18482
 Alpha virt. eigenvalues --    0.19170   0.19690   0.20580   0.20657   0.22514
 Alpha virt. eigenvalues --    0.23126   0.24682   0.26640   0.28200   0.30968
 Alpha virt. eigenvalues --    0.31464   0.31648   0.32659   0.32757   0.34975
 Alpha virt. eigenvalues --    0.36419   0.36869   0.38829   0.39944   0.41179
 Alpha virt. eigenvalues --    0.42742   0.43188   0.44583   0.46232   0.46470
 Alpha virt. eigenvalues --    0.47606   0.49139   0.49911   0.51410   0.52515
 Alpha virt. eigenvalues --    0.54334   0.55156   0.57170   0.57488   0.59568
 Alpha virt. eigenvalues --    0.60608   0.61502   0.63583   0.66732   0.67709
 Alpha virt. eigenvalues --    0.70788   0.70963   0.72624   0.73100   0.73960
 Alpha virt. eigenvalues --    0.74134   0.76472   0.78421   0.82360   0.84689
 Alpha virt. eigenvalues --    0.85767   0.86578   0.90355   0.93400   0.97324
 Alpha virt. eigenvalues --    0.98842   1.01337   1.02967   1.04803   1.05941
 Alpha virt. eigenvalues --    1.07365   1.11011   1.11880   1.12513   1.16486
 Alpha virt. eigenvalues --    1.19512   1.21212   1.27229   1.32656   1.35551
 Alpha virt. eigenvalues --    1.36195   1.38143   1.42415   1.53990   1.55743
 Alpha virt. eigenvalues --    1.56182   1.58564   1.60334   1.63050   1.65053
 Alpha virt. eigenvalues --    1.67040   1.70679   1.72546   1.74580   1.78684
 Alpha virt. eigenvalues --    1.83534   1.84518   1.86318   1.94060   1.95349
 Alpha virt. eigenvalues --    1.96741   2.01471   2.02086   2.06345   2.08179
 Alpha virt. eigenvalues --    2.12092   2.13924   2.21564   2.22569   2.26928
 Alpha virt. eigenvalues --    2.32822   2.38867   2.40358   2.43444   2.52608
 Alpha virt. eigenvalues --    2.57371   2.62319   2.65278   2.68001   2.69963
 Alpha virt. eigenvalues --    2.72353   2.74764   2.76420   2.79017   2.81216
 Alpha virt. eigenvalues --    2.92444   2.97005   3.00089   3.04934   3.08198
 Alpha virt. eigenvalues --    3.14156   3.15643   3.16965   3.20953   3.24889
 Alpha virt. eigenvalues --    3.26897   3.36691   3.46109   3.49175   3.53111
 Alpha virt. eigenvalues --    3.56546   3.67192   3.72523   3.82948   3.86620
 Alpha virt. eigenvalues --    4.09198   4.10056   4.18603   4.22746   4.42237
 Alpha virt. eigenvalues --    4.43668   4.53826   4.58452   4.91738   4.94551
 Alpha virt. eigenvalues --    5.03423   5.07895   5.60267   6.13350   6.67222
 Alpha virt. eigenvalues --    7.48077   7.50398   7.60509  23.21505  23.60592
 Alpha virt. eigenvalues --   23.71100  23.77431  23.95148  24.01314  35.29803
 Alpha virt. eigenvalues --   47.93303  49.83474  49.92136 289.80945 289.83284
 Alpha virt. eigenvalues --  289.959051020.94485
          Condensed to atoms (all electrons):
               1          2          3          4          5          6
     1  C    7.599996  -2.364854   0.739199  -0.021004   0.296987   0.056769
     2  C   -2.364854  16.871265  -3.852720   0.450258  -0.018134   0.198953
     3  C    0.739199  -3.852720  18.456724  -1.252091   0.023480   0.115960
     4  C   -0.021004   0.450258  -1.252091   6.338686   0.025136  -0.016264
     5  H    0.296987  -0.018134   0.023480   0.025136   0.324460  -0.001654
     6  H    0.056769   0.198953   0.115960  -0.016264  -0.001654   0.315661
     7  H    0.025350  -0.024413   0.019483   0.305888  -0.002591  -0.000002
     8  N   -0.080919  -0.038253  -1.717616   0.014814  -0.000442  -0.030076
     9  O   -0.015343   0.270023  -0.075568  -0.014173  -0.000031  -0.002409
    10  O    0.254448  -0.193719  -0.245619  -0.022090  -0.000006   0.020143
    11  C    0.681073  -0.651837   2.167796  -0.229007  -0.024187   0.009155
    12  H   -0.011227   0.018829   0.005464   0.020837   0.000023  -0.000017
    13  C   -1.053640  -4.663920  -8.101771   0.727829   0.024222  -0.012317
    14  H   -0.003087   0.017781   0.048751   0.002808  -0.000031   0.000052
    15  Br   0.009027  -0.204117  -0.240936   0.000965  -0.000020  -0.000604
               7          8          9         10         11         12
     1  C    0.025350  -0.080919  -0.015343   0.254448   0.681073  -0.011227
     2  C   -0.024413  -0.038253   0.270023  -0.193719  -0.651837   0.018829
     3  C    0.019483  -1.717616  -0.075568  -0.245619   2.167796   0.005464
     4  C    0.305888   0.014814  -0.014173  -0.022090  -0.229007   0.020837
     5  H   -0.002591  -0.000442  -0.000031  -0.000006  -0.024187   0.000023
     6  H   -0.000002  -0.030076  -0.002409   0.020143   0.009155  -0.000017
     7  H    0.325533   0.000030   0.000001   0.000001   0.028834  -0.002194
     8  N    0.000030   7.575713   0.081780   0.216629  -0.265641   0.000356
     9  O    0.000001   0.081780   7.891380  -0.000757   0.241903   0.000113
    10  O    0.000001   0.216629  -0.000757   7.820993   0.006413  -0.000022
    11  C    0.028834  -0.265641   0.241903   0.006413   7.676345   0.315711
    12  H   -0.002194   0.000356   0.000113  -0.000022   0.315711   0.314211
    13  C   -0.019812   1.349783  -0.408918   0.084900  -3.822199  -0.021528
    14  H   -0.000028  -0.032501   0.012202  -0.001729   0.003016  -0.004498
    15  Br  -0.000434   0.165506  -0.057309   0.004542   0.053844   0.000098
              13         14         15
     1  C   -1.053640  -0.003087   0.009027
     2  C   -4.663920   0.017781  -0.204117
     3  C   -8.101771   0.048751  -0.240936
     4  C    0.727829   0.002808   0.000965
     5  H    0.024222  -0.000031  -0.000020
     6  H   -0.012317   0.000052  -0.000604
     7  H   -0.019812  -0.000028  -0.000434
     8  N    1.349783  -0.032501   0.165506
     9  O   -0.408918   0.012202  -0.057309
    10  O    0.084900  -0.001729   0.004542
    11  C   -3.822199   0.003016   0.053844
    12  H   -0.021528  -0.004498   0.000098
    13  C   21.571763   0.262934   0.426588
    14  H    0.262934   0.328969  -0.042266
    15  Br   0.426588  -0.042266  34.708016
 Mulliken charges:
               1
     1  C   -0.112774
     2  C    0.184857
     3  C   -0.090536
     4  C   -0.332591
     5  H    0.352788
     6  H    0.346650
     7  H    0.344353
     8  N   -0.239164
     9  O    0.077104
    10  O    0.055872
    11  C   -0.191219
    12  H    0.363844
    13  C   -0.343915
    14  H    0.407630
    15  Br   0.177102
 Sum of Mulliken charges =   1.00000
 Mulliken charges with hydrogens summed into heavy atoms:
               1
     1  C    0.240013
     2  C    0.531507
     3  C   -0.090536
     4  C    0.011761
     8  N   -0.239164
     9  O    0.077104
    10  O    0.055872
    11  C    0.172625
    13  C    0.063715
    15  Br   0.177102
 Electronic spatial extent (au):  <R**2>=           3948.6342
 Charge=              1.0000 electrons
 Dipole moment (field-independent basis, Debye):
    X=              1.9583    Y=             -0.8626    Z=             -0.7096  Tot=              2.2544
 Quadrupole moment (field-independent basis, Debye-Ang):
   XX=            -71.0822   YY=            -51.1958   ZZ=            -62.2539
   XY=             -2.7650   XZ=             -2.3315   YZ=              2.3599
 Traceless Quadrupole moment (field-independent basis, Debye-Ang):
   XX=             -9.5716   YY=             10.3148   ZZ=             -0.7433
   XY=             -2.7650   XZ=             -2.3315   YZ=              2.3599
 Octapole moment (field-independent basis, Debye-Ang**2):
  XXX=           -529.7060  YYY=             92.3803  ZZZ=             83.1663  XYY=           -138.4403
  XXY=             24.9354  XXZ=             26.2199  XZZ=           -133.5482  YZZ=             17.3661
  YYZ=             25.8770  XYZ=              7.5011
 Hexadecapole moment (field-independent basis, Debye-Ang**3):
 XXXX=          -3531.7260 YYYY=           -702.2274 ZZZZ=           -395.8811 XXXY=            180.2551
 XXXZ=            185.8592 YYYX=            186.5465 YYYZ=           -172.5580 ZZZX=            168.9068
 ZZZY=           -144.9147 XXYY=           -631.6038 XXZZ=           -529.9961 YYZZ=           -171.8999
 XXYZ=            -42.7886 YYXZ=             50.5452 ZZXY=             30.0850
 N-N= 7.741294795602D+02 E-N=-8.700871593146D+03  KE= 3.005855343294D+03
 No NMR shielding tensors so no spin-rotation constants.
 Leave Link  601 at Thu May  2 14:18:32 2024, MaxMem=   134217728 cpu:               7.2 elap:               7.3
 (Enter /software/gaussian/g16-c01/sse4/g16/l9999.exe)
 Unable to Open any file for archive entry.
 1\1\GINC-BHX0006\SP\RwB97XD\6-311+G(d)\C6H5Br1N1O2(1+)\BWEIGHT\02-May-
 2024\0\\#P wB97XD/6-311+G* NoSymm #P Field=X+29\\TitleMe\\1,1\C,0,0.51
 93,1.233,-0.0319\C,0,1.9445,1.2692,-0.0367\C,0,2.6204,0.0928,-0.025\C,
 0,-0.196,0.0301,0.001\H,0,-0.0207,2.1742,-0.0434\H,0,2.4828,2.2089,-0.
 0361\H,0,-1.2777,0.0399,0.0117\N,0,4.0921,0.0959,0.0366\O,0,4.6393,-1.
 0217,0.1446\O,0,4.6649,1.1984,-0.0233\C,0,0.4943,-1.1671,0.021\H,0,-0.
 0325,-2.1149,0.0545\C,0,1.9629,-1.2165,-0.0211\H,0,2.4436,-1.9631,0.61
 51\Br,0,2.173,-1.9491,-1.9062\\Version=ES64L-G16RevC.01\HF=-3010.52920
 09\RMSD=6.345e-09\Dipole=-3.558777,0.8887361,0.9700518\Quadrupole=-7.1
 1622,7.6688127,-0.5525928,-2.0557011,-1.7334197,1.7545591\PG=C01 [X(C6
 H5Br1N1O2)]\\@
 The archive entry for this job was punched.


 SCIENCE AT ITS BEST PROVIDES US WITH BETTER QUESTIONS, 
 NOT ABSOLUTE ANSWERS

                                    -- NORMAN COUSINS, 1976
 Job cpu time:       0 days  0 hours 20 minutes 59.4 seconds.
 Elapsed time:       0 days  0 hours 21 minutes  0.5 seconds.
 File lengths (MBytes):  RWF=     40 Int=      0 D2E=      0 Chk=     32 Scr=      1
 Normal termination of Gaussian 16 at Thu May  2 14:18:33 2024.
