 Entering Gaussian System, Link 0=g16
 Initial command:
 /software/gaussian/g16-a03/l1.exe "/local_scratch/6485020/Gau-28901.inp" -scrdir="/local_scratch/6485020/"
 Entering Link 1 = /software/gaussian/g16-a03/l1.exe PID=     28902.
  
 Copyright (c) 1988,1990,1992,1993,1995,1998,2003,2009,2016,
            Gaussian, Inc.  All Rights Reserved.
  
 This is part of the Gaussian(R) 16 program.  It is based on
 the Gaussian(R) 09 system (copyright 2009, Gaussian, Inc.),
 the Gaussian(R) 03 system (copyright 2003, Gaussian, Inc.),
 the Gaussian(R) 98 system (copyright 1998, Gaussian, Inc.),
 the Gaussian(R) 94 system (copyright 1995, Gaussian, Inc.),
 the Gaussian 92(TM) system (copyright 1992, Gaussian, Inc.),
 the Gaussian 90(TM) system (copyright 1990, Gaussian, Inc.),
 the Gaussian 88(TM) system (copyright 1988, Gaussian, Inc.),
 the Gaussian 86(TM) system (copyright 1986, Carnegie Mellon
 University), and the Gaussian 82(TM) system (copyright 1983,
 Carnegie Mellon University). Gaussian is a federally registered
 trademark of Gaussian, Inc.
  
 This software contains proprietary and confidential information,
 including trade secrets, belonging to Gaussian, Inc.
  
 This software is provided under written license and may be
 used, copied, transmitted, or stored only in accord with that
 written license.
  
 The following legend is applicable only to US Government
 contracts under FAR:
  
                    RESTRICTED RIGHTS LEGEND
  
 Use, reproduction and disclosure by the US Government is
 subject to restrictions as set forth in subparagraphs (a)
 and (c) of the Commercial Computer Software - Restricted
 Rights clause in FAR 52.227-19.
  
 Gaussian, Inc.
 340 Quinnipiac St., Bldg. 40, Wallingford CT 06492
  
  
 ---------------------------------------------------------------
 Warning -- This program may not be used in any manner that
 competes with the business of Gaussian, Inc. or will provide
 assistance to any competitor of Gaussian, Inc.  The licensee
 of this program is prohibited from giving any competitor of
 Gaussian, Inc. access to this program.  By using this program,
 the user acknowledges that Gaussian, Inc. is engaged in the
 business of creating and licensing software in the field of
 computational chemistry and represents and warrants to the
 licensee that it is not a competitor of Gaussian, Inc. and that
 it will not use this program in any manner prohibited above.
 ---------------------------------------------------------------
  

 Cite this work as:
 Gaussian 16, Revision A.03,
 M. J. Frisch, G. W. Trucks, H. B. Schlegel, G. E. Scuseria, 
 M. A. Robb, J. R. Cheeseman, G. Scalmani, V. Barone, 
 G. A. Petersson, H. Nakatsuji, X. Li, M. Caricato, A. V. Marenich, 
 J. Bloino, B. G. Janesko, R. Gomperts, B. Mennucci, H. P. Hratchian, 
 J. V. Ortiz, A. F. Izmaylov, J. L. Sonnenberg, D. Williams-Young, 
 F. Ding, F. Lipparini, F. Egidi, J. Goings, B. Peng, A. Petrone, 
 T. Henderson, D. Ranasinghe, V. G. Zakrzewski, J. Gao, N. Rega, 
 G. Zheng, W. Liang, M. Hada, M. Ehara, K. Toyota, R. Fukuda, 
 J. Hasegawa, M. Ishida, T. Nakajima, Y. Honda, O. Kitao, H. Nakai, 
 T. Vreven, K. Throssell, J. A. Montgomery, Jr., J. E. Peralta, 
 F. Ogliaro, M. J. Bearpark, J. J. Heyd, E. N. Brothers, K. N. Kudin, 
 V. N. Staroverov, T. A. Keith, R. Kobayashi, J. Normand, 
 K. Raghavachari, A. P. Rendell, J. C. Burant, S. S. Iyengar, 
 J. Tomasi, M. Cossi, J. M. Millam, M. Klene, C. Adamo, R. Cammi, 
 J. W. Ochterski, R. L. Martin, K. Morokuma, O. Farkas, 
 J. B. Foresman, and D. J. Fox, Gaussian, Inc., Wallingford CT, 2016.
 
 ******************************************
 Gaussian 16:  ES64L-G16RevA.03 25-Dec-2016
                17-Sep-2021 
 ******************************************
 %chk=geometry.chk
 %mem=2GB
 %nprocshared=1
 Will use up to    1 processors via shared memory.
 --------------------------------------------------------------------
 #p B3LYP/6-311+G** #p TD=(singlets,nstates=30)IOp(6/8=3) IOp(9/40=4)
 --------------------------------------------------------------------
 1/38=1,172=1/1;
 2/12=2,17=6,18=5,40=1/2;
 3/5=4,6=6,7=111,11=9,25=1,30=1,74=-5/1,2,3,8;
 4//1;
 5/5=2,38=5/2;
 8/6=1,10=2,108=30/1;
 9/40=4,41=30,42=1,48=1,70=2/14;
 6/7=2,8=3,9=2,10=2/1;
 99/5=1,9=1/99;
 Leave Link    1 at Fri Sep 17 10:52:48 2021, MaxMem=   268435456 cpu:               0.0 elap:               0.1
 (Enter /software/gaussian/g16-a03/l101.exe)
 --------------------------------
 Scan Step 289, Bond Length 1.945
 --------------------------------
 Symbolic Z-matrix:
 Charge =  0 Multiplicity = 1
 C                     0.        0.       -0.52736 
 H                     0.        0.93726  -1.11871 
 H                     0.       -0.93726  -1.11871 
 O                     0.        0.        1.41764 
 
 ITRead=  0  0  0  0
 MicOpt= -1 -1 -1 -1
 NAtoms=      4 NQM=        4 NQMF=       0 NMMI=      0 NMMIF=      0
                NMic=       0 NMicF=      0.
                    Isotopes and Nuclear Properties:
 (Nuclear quadrupole moments (NQMom) in fm**2, nuclear magnetic moments (NMagM)
  in nuclear magnetons)

  Atom         1           2           3           4
 IAtWgt=          12           1           1          16
 AtmWgt=  12.0000000   1.0078250   1.0078250  15.9949146
 NucSpn=           0           1           1           0
 AtZEff=  -0.0000000  -0.0000000  -0.0000000  -0.0000000
 NQMom=    0.0000000   0.0000000   0.0000000   0.0000000
 NMagM=    0.0000000   2.7928460   2.7928460   0.0000000
 AtZNuc=   6.0000000   1.0000000   1.0000000   8.0000000
 Leave Link  101 at Fri Sep 17 10:52:49 2021, MaxMem=   268435456 cpu:               0.1 elap:               0.1
 (Enter /software/gaussian/g16-a03/l202.exe)
                          Input orientation:                          
 ---------------------------------------------------------------------
 Center     Atomic      Atomic             Coordinates (Angstroms)
 Number     Number       Type             X           Y           Z
 ---------------------------------------------------------------------
      1          6           0        0.000000    0.000000   -0.527360
      2          1           0        0.000000    0.937260   -1.118710
      3          1           0        0.000000   -0.937260   -1.118710
      4          8           0        0.000000    0.000000    1.417640
 ---------------------------------------------------------------------
                    Distance matrix (angstroms):
                    1          2          3          4
     1  C    0.000000
     2  H    1.108220   0.000000
     3  H    1.108220   1.874520   0.000000
     4  O    1.945000   2.703984   2.703984   0.000000
 Stoichiometry    CH2O
 Framework group  C2V[C2(CO),SGV(H2)]
 Deg. of freedom     3
 Full point group                 C2V     NOp   4
 Largest Abelian subgroup         C2V     NOp   4
 Largest concise Abelian subgroup C2      NOp   2
                         Standard orientation:                         
 ---------------------------------------------------------------------
 Center     Atomic      Atomic             Coordinates (Angstroms)
 Number     Number       Type             X           Y           Z
 ---------------------------------------------------------------------
      1          6           0        0.000000    0.000000   -0.898581
      2          1           0        0.000000    0.937260   -1.489931
      3          1           0       -0.000000   -0.937260   -1.489931
      4          8           0        0.000000   -0.000000    1.046419
 ---------------------------------------------------------------------
 Rotational constants (GHZ):         285.4183527          16.1010283          15.2412391
 Leave Link  202 at Fri Sep 17 10:52:49 2021, MaxMem=   268435456 cpu:               0.0 elap:               0.0
 (Enter /software/gaussian/g16-a03/l301.exe)
 Standard basis: 6-311+G(d,p) (5D, 7F)
 Ernie: Thresh=  0.10000D-02 Tol=  0.10000D-05 Strict=F.
 There are    29 symmetry adapted cartesian basis functions of A1  symmetry.
 There are     3 symmetry adapted cartesian basis functions of A2  symmetry.
 There are    11 symmetry adapted cartesian basis functions of B1  symmetry.
 There are    15 symmetry adapted cartesian basis functions of B2  symmetry.
 There are    27 symmetry adapted basis functions of A1  symmetry.
 There are     3 symmetry adapted basis functions of A2  symmetry.
 There are    11 symmetry adapted basis functions of B1  symmetry.
 There are    15 symmetry adapted basis functions of B2  symmetry.
    56 basis functions,    88 primitive gaussians,    58 cartesian basis functions
     8 alpha electrons        8 beta electrons
       nuclear repulsion energy        22.2029557407 Hartrees.
 IExCor=  402 DFT=T Ex+Corr=B3LYP ExCW=0 ScaHFX=  0.200000
 ScaDFX=  0.800000  0.720000  1.000000  0.810000 ScalE2=  1.000000  1.000000
 IRadAn=      5 IRanWt=     -1 IRanGd=            0 ICorTp=0 IEmpDi=  4
 NAtoms=    4 NActive=    4 NUniq=    3 SFac= 1.78D+00 NAtFMM=   60 NAOKFM=F Big=F
 Integral buffers will be    131072 words long.
 Regular integral format.
 Two-electron integral symmetry is turned on.
 Leave Link  301 at Fri Sep 17 10:52:49 2021, MaxMem=   268435456 cpu:               0.0 elap:               0.1
 (Enter /software/gaussian/g16-a03/l302.exe)
 NPDir=0 NMtPBC=     1 NCelOv=     1 NCel=       1 NClECP=     1 NCelD=      1
         NCelK=      1 NCelE2=     1 NClLst=     1 CellRange=     0.0.
 One-electron integrals computed using PRISM.
 One-electron integral symmetry used in STVInt
 NBasis=    56 RedAO= T EigKep=  1.46D-02  NBF=    27     3    11    15
 NBsUse=    56 1.00D-06 EigRej= -1.00D+00 NBFU=    27     3    11    15
 Precomputing XC quadrature grid using
 IXCGrd= 4 IRadAn=           5 IRanWt=          -1 IRanGd=           0 AccXCQ= 0.00D+00.
 Generated NRdTot=       0 NPtTot=           0 NUsed=           0 NTot=          32
 NSgBfM=    58    58    58    58    58 MxSgAt=     4 MxSgA2=     4.
 Leave Link  302 at Fri Sep 17 10:52:49 2021, MaxMem=   268435456 cpu:               0.1 elap:               0.1
 (Enter /software/gaussian/g16-a03/l303.exe)
 DipDrv:  MaxL=1.
 Leave Link  303 at Fri Sep 17 10:52:49 2021, MaxMem=   268435456 cpu:               0.0 elap:               0.0
 (Enter /software/gaussian/g16-a03/l308.exe)
 Leave Link  308 at Fri Sep 17 10:52:49 2021, MaxMem=   268435456 cpu:               0.0 elap:               0.0
 (Enter /software/gaussian/g16-a03/l401.exe)
 ExpMin= 4.38D-02 ExpMax= 8.59D+03 ExpMxC= 1.30D+03 IAcc=3 IRadAn=         5 AccDes= 0.00D+00
 Harris functional with IExCor=  402 and IRadAn=       5 diagonalized for initial guess.
 HarFok:  IExCor=  402 AccDes= 0.00D+00 IRadAn=         5 IDoV= 1 UseB2=F ITyADJ=14
 ICtDFT=  3500011 ScaDFX=  1.000000  1.000000  1.000000  1.000000
 FoFCou: FMM=F IPFlag=           0 FMFlag=      100000 FMFlg1=           0
         NFxFlg=           0 DoJE=T BraDBF=F KetDBF=T FulRan=T
         wScrn=  0.000000 ICntrl=       500 IOpCl=  0 I1Cent=   200000004 NGrid=           0
         NMat0=    1 NMatS0=      1 NMatT0=    0 NMatD0=    1 NMtDS0=    0 NMtDT0=    0
 Petite list used in FoFCou.
 Harris En= -114.356688582960    
 JPrj=0 DoOrth=F DoCkMO=F.
 Initial guess orbital symmetries:
       Occupied  (A1) (A1) (A1) (A1) (B2) (A1) (B1) (B2)
       Virtual   (B1) (A1) (A1) (B2) (A1) (B1) (A1) (B2) (A1) (B1)
                 (B2) (A1) (B2) (A1) (B1) (A1) (B2) (A1) (B1) (A2)
                 (B2) (A1) (A1) (B1) (B2) (A1) (A1) (B2) (B1) (A2)
                 (A1) (B2) (A1) (B2) (A1) (B1) (A1) (A2) (A1) (B1)
                 (B2) (A1) (B2) (B1) (B2) (A1) (A1) (A1)
 The electronic state of the initial guess is 1-A1.
 Leave Link  401 at Fri Sep 17 10:52:49 2021, MaxMem=   268435456 cpu:               0.3 elap:               0.3
 (Enter /software/gaussian/g16-a03/l502.exe)
 Keep R1 ints in memory in symmetry-blocked form, NReq=2159901.
 FoFCou: FMM=F IPFlag=           0 FMFlag=           0 FMFlg1=           0
         NFxFlg=           0 DoJE=F BraDBF=F KetDBF=F FulRan=T
         wScrn=  0.000000 ICntrl=       600 IOpCl=  0 I1Cent=           0 NGrid=           0
         NMat0=    1 NMatS0=   1596 NMatT0=    0 NMatD0=    1 NMtDS0=    0 NMtDT0=    0
 Petite list used in FoFCou.
 Closed shell SCF:
 Using DIIS extrapolation, IDIIS=  1040.
 NGot=   268435456 LenX=   268074392 LenY=   268070587
 Requested convergence on RMS density matrix=1.00D-08 within 128 cycles.
 Requested convergence on MAX density matrix=1.00D-06.
 Requested convergence on             energy=1.00D-06.
 No special actions if energy rises.

 Cycle   1  Pass 1  IDiag  1:
 E= -114.110911168846    
 DIIS: error= 7.57D-02 at cycle   1 NSaved=   1.
 NSaved= 1 IEnMin= 1 EnMin= -114.110911168846     IErMin= 1 ErrMin= 7.57D-02
 ErrMax= 7.57D-02  0.00D+00 EMaxC= 1.00D-01 BMatC= 1.94D-01 BMatP= 1.94D-01
 IDIUse=3 WtCom= 2.43D-01 WtEn= 7.57D-01
 Coeff-Com:  0.100D+01
 Coeff-En:   0.100D+01
 Coeff:      0.100D+01
 Gap=     0.046 Goal=   None    Shift=    0.000
 GapD=    0.046 DampG=0.250 DampE=0.500 DampFc=0.2500 IDamp=-1.
 Damping current iteration by 2.50D-01
 RMSDP=4.05D-02 MaxDP=7.52D-01              OVMax= 9.75D-01

 Cycle   2  Pass 1  IDiag  1:
 E= -113.996231067135     Delta-E=        0.114680101711 Rises=F Damp=T
 DIIS: error= 3.55D-02 at cycle   2 NSaved=   2.
 NSaved= 2 IEnMin= 1 EnMin= -114.110911168846     IErMin= 2 ErrMin= 3.55D-02
 ErrMax= 3.55D-02  0.00D+00 EMaxC= 1.00D-01 BMatC= 4.85D-02 BMatP= 1.94D-01
 IDIUse=3 WtCom= 6.45D-01 WtEn= 3.55D-01
 Coeff-Com:  0.314D+00 0.686D+00
 Coeff-En:   0.625D+00 0.375D+00
 Coeff:      0.424D+00 0.576D+00
 Gap=     0.086 Goal=   None    Shift=    0.000
 RMSDP=9.76D-03 MaxDP=1.63D-01 DE= 1.15D-01 OVMax= 4.67D-01

 Cycle   3  Pass 1  IDiag  1:
 E= -114.293735031206     Delta-E=       -0.297503964071 Rises=F Damp=F
 DIIS: error= 2.80D-02 at cycle   3 NSaved=   3.
 NSaved= 3 IEnMin= 3 EnMin= -114.293735031206     IErMin= 3 ErrMin= 2.80D-02
 ErrMax= 2.80D-02  0.00D+00 EMaxC= 1.00D-01 BMatC= 2.39D-02 BMatP= 4.85D-02
 IDIUse=3 WtCom= 7.20D-01 WtEn= 2.80D-01
 Coeff-Com:  0.256D+00 0.774D-01 0.667D+00
 Coeff-En:   0.165D+00 0.000D+00 0.835D+00
 Coeff:      0.230D+00 0.557D-01 0.714D+00
 Gap=     0.100 Goal=   None    Shift=    0.000
 RMSDP=1.41D-03 MaxDP=1.64D-02 DE=-2.98D-01 OVMax= 5.08D-02

 Cycle   4  Pass 1  IDiag  1:
 E= -114.311055002965     Delta-E=       -0.017319971759 Rises=F Damp=F
 DIIS: error= 4.35D-03 at cycle   4 NSaved=   4.
 NSaved= 4 IEnMin= 4 EnMin= -114.311055002965     IErMin= 4 ErrMin= 4.35D-03
 ErrMax= 4.35D-03  0.00D+00 EMaxC= 1.00D-01 BMatC= 7.17D-04 BMatP= 2.39D-02
 IDIUse=3 WtCom= 9.56D-01 WtEn= 4.35D-02
 Coeff-Com:  0.343D-01 0.980D-02 0.197D+00 0.758D+00
 Coeff-En:   0.000D+00 0.000D+00 0.376D-01 0.962D+00
 Coeff:      0.328D-01 0.937D-02 0.191D+00 0.767D+00
 Gap=     0.100 Goal=   None    Shift=    0.000
 RMSDP=4.32D-04 MaxDP=8.22D-03 DE=-1.73D-02 OVMax= 2.40D-02

 Cycle   5  Pass 1  IDiag  1:
 E= -114.311134266524     Delta-E=       -0.000079263559 Rises=F Damp=F
 DIIS: error= 5.44D-03 at cycle   5 NSaved=   5.
 NSaved= 5 IEnMin= 5 EnMin= -114.311134266524     IErMin= 4 ErrMin= 4.35D-03
 ErrMax= 5.44D-03  0.00D+00 EMaxC= 1.00D-01 BMatC= 5.84D-04 BMatP= 7.17D-04
 IDIUse=3 WtCom= 9.46D-01 WtEn= 5.44D-02
 Coeff-Com:  0.117D-01-0.235D-01 0.335D-01 0.392D+00 0.586D+00
 Coeff-En:   0.000D+00 0.000D+00 0.000D+00 0.478D+00 0.522D+00
 Coeff:      0.111D-01-0.222D-01 0.317D-01 0.397D+00 0.583D+00
 Gap=     0.103 Goal=   None    Shift=    0.000
 RMSDP=1.32D-04 MaxDP=3.00D-03 DE=-7.93D-05 OVMax= 4.70D-03

 Cycle   6  Pass 1  IDiag  1:
 E= -114.311536404196     Delta-E=       -0.000402137672 Rises=F Damp=F
 DIIS: error= 3.23D-03 at cycle   6 NSaved=   6.
 NSaved= 6 IEnMin= 6 EnMin= -114.311536404196     IErMin= 6 ErrMin= 3.23D-03
 ErrMax= 3.23D-03  0.00D+00 EMaxC= 1.00D-01 BMatC= 1.83D-04 BMatP= 5.84D-04
 IDIUse=3 WtCom= 9.68D-01 WtEn= 3.23D-02
 Coeff-Com:  0.186D-01-0.171D-01-0.601D-02 0.171D-01-0.542D-01 0.104D+01
 Coeff-En:   0.000D+00 0.000D+00 0.000D+00 0.262D+00 0.000D+00 0.738D+00
 Coeff:      0.180D-01-0.166D-01-0.582D-02 0.250D-01-0.525D-01 0.103D+01
 Gap=     0.104 Goal=   None    Shift=    0.000
 RMSDP=3.04D-05 MaxDP=3.38D-04 DE=-4.02D-04 OVMax= 1.34D-03

 Cycle   7  Pass 1  IDiag  1:
 E= -114.311590729668     Delta-E=       -0.000054325471 Rises=F Damp=F
 DIIS: error= 2.70D-03 at cycle   7 NSaved=   7.
 NSaved= 7 IEnMin= 7 EnMin= -114.311590729668     IErMin= 7 ErrMin= 2.70D-03
 ErrMax= 2.70D-03  0.00D+00 EMaxC= 1.00D-01 BMatC= 1.22D-04 BMatP= 1.83D-04
 IDIUse=3 WtCom= 9.73D-01 WtEn= 2.70D-02
 Coeff-Com:  0.615D-03-0.972D-03 0.771D-02 0.771D-01-0.256D+00-0.248D+01
 Coeff-Com:  0.365D+01
 Coeff-En:   0.000D+00 0.000D+00 0.000D+00 0.203D+00 0.000D+00 0.000D+00
 Coeff-En:   0.797D+00
 Coeff:      0.599D-03-0.946D-03 0.750D-02 0.805D-01-0.249D+00-0.241D+01
 Coeff:      0.357D+01
 Gap=     0.105 Goal=   None    Shift=    0.000
 RMSDP=1.19D-04 MaxDP=1.47D-03 DE=-5.43D-05 OVMax= 7.30D-03

 Cycle   8  Pass 1  IDiag  1:
 E= -114.311700335243     Delta-E=       -0.000109605575 Rises=F Damp=F
 DIIS: error= 6.67D-04 at cycle   8 NSaved=   8.
 NSaved= 8 IEnMin= 8 EnMin= -114.311700335243     IErMin= 8 ErrMin= 6.67D-04
 ErrMax= 6.67D-04  0.00D+00 EMaxC= 1.00D-01 BMatC= 9.10D-06 BMatP= 1.22D-04
 IDIUse=3 WtCom= 9.93D-01 WtEn= 6.67D-03
 Coeff-Com: -0.109D-02 0.275D-03 0.223D-02 0.283D-01 0.191D-01-0.166D+00
 Coeff-Com:  0.351D+00 0.767D+00
 Coeff-En:   0.000D+00 0.000D+00 0.000D+00 0.000D+00 0.000D+00 0.000D+00
 Coeff-En:   0.167D+00 0.833D+00
 Coeff:     -0.108D-02 0.273D-03 0.222D-02 0.281D-01 0.190D-01-0.165D+00
 Coeff:      0.349D+00 0.767D+00
 Gap=     0.104 Goal=   None    Shift=    0.000
 RMSDP=2.27D-05 MaxDP=2.52D-04 DE=-1.10D-04 OVMax= 1.18D-03

 Cycle   9  Pass 1  IDiag  1:
 E= -114.311707995504     Delta-E=       -0.000007660261 Rises=F Damp=F
 DIIS: error= 2.44D-04 at cycle   9 NSaved=   9.
 NSaved= 9 IEnMin= 9 EnMin= -114.311707995504     IErMin= 9 ErrMin= 2.44D-04
 ErrMax= 2.44D-04  0.00D+00 EMaxC= 1.00D-01 BMatC= 1.21D-06 BMatP= 9.10D-06
 IDIUse=3 WtCom= 9.98D-01 WtEn= 2.44D-03
 Coeff-Com: -0.206D-03 0.141D-03-0.688D-04 0.181D-02 0.230D-01 0.167D+00
 Coeff-Com: -0.167D+00-0.345D-01 0.101D+01
 Coeff-En:   0.000D+00 0.000D+00 0.000D+00 0.000D+00 0.000D+00 0.000D+00
 Coeff-En:   0.264D-01 0.000D+00 0.974D+00
 Coeff:     -0.205D-03 0.141D-03-0.686D-04 0.180D-02 0.230D-01 0.167D+00
 Coeff:     -0.167D+00-0.344D-01 0.101D+01
 Gap=     0.104 Goal=   None    Shift=    0.000
 RMSDP=8.73D-06 MaxDP=1.08D-04 DE=-7.66D-06 OVMax= 4.87D-04

 Cycle  10  Pass 1  IDiag  1:
 E= -114.311709085517     Delta-E=       -0.000001090013 Rises=F Damp=F
 DIIS: error= 5.27D-05 at cycle  10 NSaved=  10.
 NSaved=10 IEnMin=10 EnMin= -114.311709085517     IErMin=10 ErrMin= 5.27D-05
 ErrMax= 5.27D-05  0.00D+00 EMaxC= 1.00D-01 BMatC= 5.14D-08 BMatP= 1.21D-06
 IDIUse=1 WtCom= 1.00D+00 WtEn= 0.00D+00
 Coeff-Com: -0.223D-04 0.198D-05 0.174D-04 0.166D-03-0.149D-02 0.401D-02
 Coeff-Com:  0.104D-01-0.268D-01-0.608D-02 0.102D+01
 Coeff:     -0.223D-04 0.198D-05 0.174D-04 0.166D-03-0.149D-02 0.401D-02
 Coeff:      0.104D-01-0.268D-01-0.608D-02 0.102D+01
 Gap=     0.104 Goal=   None    Shift=    0.000
 RMSDP=1.95D-06 MaxDP=1.98D-05 DE=-1.09D-06 OVMax= 8.93D-05

 Cycle  11  Pass 1  IDiag  1:
 E= -114.311709134199     Delta-E=       -0.000000048682 Rises=F Damp=F
 DIIS: error= 1.86D-06 at cycle  11 NSaved=  11.
 NSaved=11 IEnMin=11 EnMin= -114.311709134199     IErMin=11 ErrMin= 1.86D-06
 ErrMax= 1.86D-06  0.00D+00 EMaxC= 1.00D-01 BMatC= 7.60D-11 BMatP= 5.14D-08
 IDIUse=1 WtCom= 1.00D+00 WtEn= 0.00D+00
 Coeff-Com:  0.340D-06 0.273D-05-0.167D-04-0.671D-04-0.232D-03-0.134D-02
 Coeff-Com:  0.144D-02-0.891D-03-0.170D-01 0.209D-01 0.997D+00
 Coeff:      0.340D-06 0.273D-05-0.167D-04-0.671D-04-0.232D-03-0.134D-02
 Coeff:      0.144D-02-0.891D-03-0.170D-01 0.209D-01 0.997D+00
 Gap=     0.104 Goal=   None    Shift=    0.000
 RMSDP=8.96D-08 MaxDP=1.17D-06 DE=-4.87D-08 OVMax= 5.31D-06

 Cycle  12  Pass 1  IDiag  1:
 E= -114.311709134266     Delta-E=       -0.000000000067 Rises=F Damp=F
 DIIS: error= 7.44D-07 at cycle  12 NSaved=  12.
 NSaved=12 IEnMin=12 EnMin= -114.311709134266     IErMin=12 ErrMin= 7.44D-07
 ErrMax= 7.44D-07  0.00D+00 EMaxC= 1.00D-01 BMatC= 9.61D-12 BMatP= 7.60D-11
 IDIUse=1 WtCom= 1.00D+00 WtEn= 0.00D+00
 Coeff-Com:  0.141D-06 0.115D-06 0.366D-06 0.593D-05-0.237D-04-0.205D-03
 Coeff-Com:  0.349D-03 0.357D-03-0.226D-02-0.700D-02 0.545D-01 0.954D+00
 Coeff:      0.141D-06 0.115D-06 0.366D-06 0.593D-05-0.237D-04-0.205D-03
 Coeff:      0.349D-03 0.357D-03-0.226D-02-0.700D-02 0.545D-01 0.954D+00
 Gap=     0.104 Goal=   None    Shift=    0.000
 RMSDP=2.64D-08 MaxDP=3.53D-07 DE=-6.73D-11 OVMax= 1.67D-06

 Cycle  13  Pass 1  IDiag  1:
 E= -114.311709134275     Delta-E=       -0.000000000009 Rises=F Damp=F
 DIIS: error= 5.93D-09 at cycle  13 NSaved=  13.
 NSaved=13 IEnMin=13 EnMin= -114.311709134275     IErMin=13 ErrMin= 5.93D-09
 ErrMax= 5.93D-09  0.00D+00 EMaxC= 1.00D-01 BMatC= 1.17D-15 BMatP= 9.61D-12
 IDIUse=1 WtCom= 1.00D+00 WtEn= 0.00D+00
 Coeff-Com: -0.115D-07-0.387D-08 0.765D-07 0.586D-06-0.763D-06 0.103D-04
 Coeff-Com: -0.399D-05 0.212D-04 0.109D-03-0.193D-03-0.708D-02 0.938D-02
 Coeff-Com:  0.998D+00
 Coeff:     -0.115D-07-0.387D-08 0.765D-07 0.586D-06-0.763D-06 0.103D-04
 Coeff:     -0.399D-05 0.212D-04 0.109D-03-0.193D-03-0.708D-02 0.938D-02
 Coeff:      0.998D+00
 Gap=     0.104 Goal=   None    Shift=    0.000
 RMSDP=4.80D-10 MaxDP=7.61D-09 DE=-8.95D-12 OVMax= 2.27D-08

 SCF Done:  E(RB3LYP) =  -114.311709134     A.U. after   13 cycles
            NFock= 13  Conv=0.48D-09     -V/T= 2.0088
 KE= 1.133100640429D+02 PE=-3.127931269549D+02 EE= 6.296839803707D+01
 Leave Link  502 at Fri Sep 17 10:52:52 2021, MaxMem=   268435456 cpu:               2.2 elap:               2.4
 (Enter /software/gaussian/g16-a03/l801.exe)
 DoSCS=F DFT=T ScalE2(SS,OS)=  1.000000  1.000000
 ExpMin= 4.38D-02 ExpMax= 8.59D+03 ExpMxC= 1.30D+03 IAcc=3 IRadAn=         5 AccDes= 0.00D+00
 HarFok:  IExCor=  205 AccDes= 0.00D+00 IRadAn=         5 IDoV=-2 UseB2=F ITyADJ=14
 ICtDFT= 12500011 ScaDFX=  1.000000  1.000000  1.000000  1.000000
 Largest valence mixing into a core orbital is  5.43D-05
 Largest core mixing into a valence orbital is  1.27D-05
 Range of M.O.s used for correlation:     3    56
 NBasis=    56 NAE=     8 NBE=     8 NFC=     2 NFV=     0
 NROrb=     54 NOA=     6 NOB=     6 NVA=    48 NVB=    48
 Leave Link  801 at Fri Sep 17 10:52:52 2021, MaxMem=   268435456 cpu:               0.2 elap:               0.2
 (Enter /software/gaussian/g16-a03/l914.exe)
 RHF ground state
 Keep R1, R2, and R3 ints in memory in symmetry-blocked form, NReq=6042840.
 FoFCou: FMM=F IPFlag=           0 FMFlag=           0 FMFlg1=           0
         NFxFlg=           0 DoJE=F BraDBF=F KetDBF=F FulRan=T
         wScrn=  0.000000 ICntrl=       600 IOpCl=  0 I1Cent=           0 NGrid=           0
         NMat0=    1 NMatS0=   1596 NMatT0=    0 NMatD0=    1 NMtDS0=    0 NMtDT0=    0
 Petite list used in FoFCou.
 MDV=   268435456 DFT=T DoStab=F Mixed=T DoRPA=T DoScal=F NonHer=T
 Making orbital integer symmetry assigments:
 Orbital symmetries:
       Occupied  (A1) (A1) (A1) (A1) (B2) (A1) (B1) (B2)
       Virtual   (B1) (A1) (A1) (B2) (B1) (A1) (A1) (B2) (A1) (B1)
                 (B2) (A1) (A1) (B2) (B1) (A1) (B2) (A1) (A2) (B1)
                 (A1) (B2) (B1) (A1) (B2) (A1) (B2) (A1) (B1) (A2)
                 (A1) (B2) (A1) (B2) (A1) (B1) (A1) (B1) (A2) (A1)
                 (B2) (A1) (B2) (B1) (B2) (A1) (A1) (A1)
   120 initial guesses have been made.
 Convergence on wavefunction:    0.001000000000000
 Davidson Disk Diagonalization:  ConvIn= 1.00D-03 SkipCon=T Conv= 1.00D-03.
 Max sub-space:  1728 roots to seek:   120 dimension of matrix:          576
 Iteration     1 Dimension   120 NMult     0 NNew    120
 CISAX will form   120 AO SS matrices at one time.
 NMat=   120 NSing=   120 JSym2X=-1.
 New state      4 was old state      5
 New state      5 was old state      4
 New state      6 was old state      9
 New state      9 was old state     10
 New state     10 was old state     11
 New state     11 was old state     13
 New state     13 was old state      6
 New state     14 was old state     15
 New state     15 was old state     14
 New state     16 was old state     17
 New state     17 was old state     16
 New state     20 was old state     21
 New state     21 was old state     22
 New state     22 was old state     20
 New state     24 was old state     25
 New state     25 was old state     24
 New state     27 was old state     29
 New state     29 was old state     27
 Excitation Energies [eV] at current iteration:
 Root      1 :     1.071040912031365
 Root      2 :     2.795227527311403
 Root      3 :     2.812768498267650
 Root      4 :     3.085121744890103
 Root      5 :     3.644394536139095
 Root      6 :     6.727281545168117
 Root      7 :     6.815298344964629
 Root      8 :     7.096221049859851
 Root      9 :     7.960655330024720
 Root     10 :     8.249793094902738
 Root     11 :     8.401081560003163
 Root     12 :     8.538470092793654
 Root     13 :     8.598655739339760
 Root     14 :     8.755311699917772
 Root     15 :     8.883472444992695
 Root     16 :     9.239441148175434
 Root     17 :     9.360233688135537
 Root     18 :     9.933548755120881
 Root     19 :    10.185649126452820
 Root     20 :    10.333622279796170
 Root     21 :    10.378392062155410
 Root     22 :    10.607542978218320
 Root     23 :    10.887608494083920
 Root     24 :    11.397329757872160
 Root     25 :    11.466097590427530
 Root     26 :    11.879314687844370
 Root     27 :    11.924003669979930
 Root     28 :    12.203205430938650
 Root     29 :    12.286969281453390
 Root     30 :    12.668913868891330
 Root     31 :    12.685389625521010
 Root     32 :    13.338289097710750
 Root     33 :    13.622757254431480
 Root     34 :    13.977458344635900
 Root     35 :    13.993180525538260
 Root     36 :    14.105477325033700
 Root     37 :    14.323078807015300
 Root     38 :    14.671631112913900
 Root     39 :    14.737534585229160
 Root     40 :    15.198760991008080
 Root     41 :    15.315713324620000
 Root     42 :    15.483016675329190
 Root     43 :    15.499594958395610
 Root     44 :    15.964156918576500
 Root     45 :    16.838847392252900
 Root     46 :    17.207204567185670
 Root     47 :    17.303345091184120
 Root     48 :    17.449286999110360
 Root     49 :    17.533092895266400
 Root     50 :    17.670045350062500
 Root     51 :    17.673726353463090
 Root     52 :    18.186262986501160
 Root     53 :    18.606556687299130
 Root     54 :    18.747387152042690
 Root     55 :    19.159076492403690
 Root     56 :    19.630155367690740
 Root     57 :    19.686611182129060
 Root     58 :    19.911399858703770
 Root     59 :    20.259629034015650
 Root     60 :    20.266127053050250
 Root     61 :    20.282700013273510
 Root     62 :    20.707580070428460
 Root     63 :    20.810799465512470
 Root     64 :    21.140990096112810
 Root     65 :    21.320342271519750
 Root     66 :    21.357298503135960
 Root     67 :    21.962670561760530
 Root     68 :    22.029705057978060
 Root     69 :    22.158073456256970
 Root     70 :    22.175175465817170
 Root     71 :    22.317883330802940
 Root     72 :    23.099000859006520
 Root     73 :    23.230870940266410
 Root     74 :    23.710753893181280
 Root     75 :    23.819587213068040
 Root     76 :    23.978513974363150
 Root     77 :    24.214790401295700
 Root     78 :    24.231347822089920
 Root     79 :    24.327895834563730
 Root     80 :    24.747979067822370
 Root     81 :    24.773273303767360
 Root     82 :    25.097954415206650
 Root     83 :    25.196378037719550
 Root     84 :    25.228400549577910
 Root     85 :    25.343963274079450
 Root     86 :    26.147100011383280
 Root     87 :    26.500214271309780
 Root     88 :    26.584012572491450
 Root     89 :    26.819372917527670
 Root     90 :    27.406786097908820
 Root     91 :    27.897577768494630
 Root     92 :    28.532457690271550
 Root     93 :    28.901363052770520
 Root     94 :    29.262978420315300
 Root     95 :    29.372990467828830
 Root     96 :    29.465314264458100
 Root     97 :    30.518474194018490
 Root     98 :    31.079497094066830
 Root     99 :    31.625085581920870
 Root    100 :    32.878408830226800
 Root    101 :    33.063928770382350
 Root    102 :    33.288853226809570
 Root    103 :    33.447153244013100
 Root    104 :    33.498309305108190
 Root    105 :    33.600754218055520
 Root    106 :    33.724183404392810
 Root    107 :    33.814094040011150
 Root    108 :    34.105648124211910
 Root    109 :    34.643502701353070
 Root    110 :    34.910771758629300
 Root    111 :    34.960298516126120
 Root    112 :    35.854066979546000
 Root    113 :    36.250821524791230
 Root    114 :    36.440572646209990
 Root    115 :    37.288476061992430
 Root    116 :    37.337018327670710
 Root    117 :    38.193735384996490
 Root    118 :    38.232123258753770
 Root    119 :    39.717800893651660
 Root    120 :    42.360281146355690
 Iteration     2 Dimension   180 NMult   120 NNew     60
 CISAX will form    60 AO SS matrices at one time.
 NMat=    60 NSing=    60 JSym2X=-1.
 Root      1 not converged, maximum delta is    0.006597083132249
 Root      2 not converged, maximum delta is    0.009381647662061
 Root      3 not converged, maximum delta is    0.008217934288538
 Root      4 not converged, maximum delta is    0.006666669256610
 Root      5 not converged, maximum delta is    0.009031870783989
 Root      6 not converged, maximum delta is    0.011722903283363
 Root      7 not converged, maximum delta is    0.002311721461715
 Root      8 not converged, maximum delta is    0.002366301252404
 Root      9 not converged, maximum delta is    0.002089365723454
 Root     10 not converged, maximum delta is    0.001312904010429
 Root     11 not converged, maximum delta is    0.003127276276605
 Root     12 not converged, maximum delta is    0.001893283803372
 Root     13 not converged, maximum delta is    0.007717794746642
 Root     14 not converged, maximum delta is    0.002748728744773
 Root     15 not converged, maximum delta is    0.003483850153474
 Root     16 not converged, maximum delta is    0.009422761066607
 Root     17 not converged, maximum delta is    0.006988049155278
 Root     18 not converged, maximum delta is    0.001709838507183
 Root     19 not converged, maximum delta is    0.005511208228470
 Root     20 not converged, maximum delta is    0.003900988184770
 Root     21 not converged, maximum delta is    0.003672301838055
 Root     22 not converged, maximum delta is    0.010165010961493
 Root     23 not converged, maximum delta is    0.001753197213397
 Root     24 not converged, maximum delta is    0.004529212414718
 Root     25 not converged, maximum delta is    0.009614607434665
 Root     26 not converged, maximum delta is    0.003565345255698
 Root     27 not converged, maximum delta is    0.007262897941490
 Root     28 not converged, maximum delta is    0.008245858664048
 Root     29 not converged, maximum delta is    0.007007139244308
 Root     30 not converged, maximum delta is    0.007842592033348
 Excitation Energies [eV] at current iteration:
 Root      1 :     1.064236463964826   Change is   -0.006804448066539
 Root      2 :     2.777024144608934   Change is   -0.018203382702469
 Root      3 :     2.792085230171007   Change is   -0.020683268096643
 Root      4 :     3.071638309869968   Change is   -0.013483435020136
 Root      5 :     3.624564404443136   Change is   -0.019830131695958
 Root      6 :     6.710780110325890   Change is   -0.016501434842228
 Root      7 :     6.813731616041614   Change is   -0.001566728923015
 Root      8 :     7.095346041856741   Change is   -0.000875008003110
 Root      9 :     7.959508784326035   Change is   -0.001146545698685
 Root     10 :     8.249342987014019   Change is   -0.000450107888718
 Root     11 :     8.399205880070790   Change is   -0.001875679932375
 Root     12 :     8.538095941324540   Change is   -0.000374151469113
 Root     13 :     8.576356242232329   Change is   -0.022299497107433
 Root     14 :     8.754082320962153   Change is   -0.001229378955618
 Root     15 :     8.881135657284617   Change is   -0.002336787708078
 Root     16 :     9.217659536110746   Change is   -0.021781612064689
 Root     17 :     9.351798232751486   Change is   -0.008435455384052
 Root     18 :     9.932621251838356   Change is   -0.000927503282526
 Root     19 :    10.182817850905190   Change is   -0.002831275547633
 Root     20 :    10.330554345531110   Change is   -0.003067934265067
 Root     21 :    10.376290987288920   Change is   -0.002101074866488
 Root     22 :    10.593487722301860   Change is   -0.014055255916463
 Root     23 :    10.886841753214240   Change is   -0.000766740869683
 Root     24 :    11.388805480275220   Change is   -0.008524277596944
 Root     25 :    11.443634414703250   Change is   -0.022463175724277
 Root     26 :    11.874975704079140   Change is   -0.004338983765235
 Root     27 :    11.919748394736980   Change is   -0.004255275242957
 Root     28 :    12.197204237751360   Change is   -0.006001193187287
 Root     29 :    12.278797759241180   Change is   -0.008171522212208
 Root     30 :    12.651633299780610   Change is   -0.017280569110723
 Iteration     3 Dimension   240 NMult   180 NNew     60
 CISAX will form    60 AO SS matrices at one time.
 NMat=    60 NSing=    60 JSym2X=-1.
 Root      1 has converged.
 Root      2 has converged.
 Root      3 has converged.
 Root      4 has converged.
 Root      5 has converged.
 Root      6 has converged.
 Root      7 has converged.
 Root      8 has converged.
 Root      9 has converged.
 Root     10 has converged.
 Root     11 has converged.
 Root     12 has converged.
 Root     13 has converged.
 Root     14 has converged.
 Root     15 has converged.
 Root     16 has converged.
 Root     17 has converged.
 Root     18 has converged.
 Root     19 has converged.
 Root     20 has converged.
 Root     21 has converged.
 Root     22 has converged.
 Root     23 has converged.
 Root     24 has converged.
 Root     25 has converged.
 Root     26 has converged.
 Root     27 has converged.
 Root     28 has converged.
 Root     29 has converged.
 Root     30 has converged.
 Excitation Energies [eV] at current iteration:
 Root      1 :     1.064235547453797   Change is   -0.000000916511029
 Root      2 :     2.777005600580637   Change is   -0.000018544028297
 Root      3 :     2.792082193937220   Change is   -0.000003036233787
 Root      4 :     3.071636334693080   Change is   -0.000001975176888
 Root      5 :     3.624559359437557   Change is   -0.000005045005579
 Root      6 :     6.710775924574030   Change is   -0.000004185751860
 Root      7 :     6.813731244919712   Change is   -0.000000371121902
 Root      8 :     7.095345812239287   Change is   -0.000000229617454
 Root      9 :     7.959506753753380   Change is   -0.000002030572656
 Root     10 :     8.249342803766405   Change is   -0.000000183247615
 Root     11 :     8.399205186642579   Change is   -0.000000693428209
 Root     12 :     8.538095860875638   Change is   -0.000000080448904
 Root     13 :     8.576319150604167   Change is   -0.000037091628162
 Root     14 :     8.754081910583238   Change is   -0.000000410378914
 Root     15 :     8.881129690791395   Change is   -0.000005966493220
 Root     16 :     9.217637300496060   Change is   -0.000022235614687
 Root     17 :     9.351784706427178   Change is   -0.000013526324307
 Root     18 :     9.932620549422149   Change is   -0.000000702416207
 Root     19 :    10.182814891668090   Change is   -0.000002959237092
 Root     20 :    10.330551240277640   Change is   -0.000003105253464
 Root     21 :    10.376288533053680   Change is   -0.000002454235240
 Root     22 :    10.593441023723950   Change is   -0.000046698577907
 Root     23 :    10.886841435779030   Change is   -0.000000317435202
 Root     24 :    11.388802009497420   Change is   -0.000003470777801
 Root     25 :    11.443586184625000   Change is   -0.000048230078259
 Root     26 :    11.874972076538350   Change is   -0.000003627540785
 Root     27 :    11.919746611369590   Change is   -0.000001783367389
 Root     28 :    12.197195118308490   Change is   -0.000009119442875
 Root     29 :    12.278774509693540   Change is   -0.000023249547644
 Root     30 :    12.651613195405440   Change is   -0.000020104375168
 Convergence achieved on expansion vectors.
 ***********************************************************************
 Excited states from <AA,BB:AA,BB> singles matrix:
 ***********************************************************************
 
 1PDM for each excited state written to RWF  633
 Ground to excited state transition densities written to RWF  633
 Ground to excited state transition electric dipole moments (Au):
       state          X           Y           Z        Dip. S.      Osc.
         1        -0.0000      0.0000     -0.0000      0.0000      0.0000
         2         0.0000      0.0000      0.5412      0.2929      0.0199
         3         0.0000     -0.1363      0.0000      0.0186      0.0013
         4        -0.0409     -0.0000      0.0000      0.0017      0.0001
         5         0.2453     -0.0000     -0.0000      0.0602      0.0053
         6         0.0000      0.0000     -0.0000      0.0000      0.0000
         7         0.0000     -0.1238      0.0000      0.0153      0.0026
         8        -0.5911     -0.0000      0.0000      0.3495      0.0607
         9         0.0000      0.0000     -0.4725      0.2233      0.0435
        10         0.0000      0.0000     -0.0000      0.0000      0.0000
        11        -0.0000     -0.4417     -0.0000      0.1951      0.0401
        12         0.0000      0.0000     -0.0000      0.0000      0.0000
        13        -0.0000      0.0000     -1.6112      2.5960      0.5455
        14        -0.4752     -0.0000      0.0000      0.2258      0.0484
        15        -0.0000      0.0000     -0.3282      0.1077      0.0234
        16         0.0000      0.0710     -0.0000      0.0050      0.0011
        17        -0.0000     -0.0000     -0.5150      0.2652      0.0608
        18        -0.0000     -0.2248     -0.0000      0.0505      0.0123
        19        -0.4532      0.0000      0.0000      0.2054      0.0512
        20        -0.0000     -0.2245      0.0000      0.0504      0.0128
        21         0.0000     -0.0000     -0.0000      0.0000      0.0000
        22         0.0000     -0.0000     -0.7712      0.5948      0.1544
        23        -0.0509      0.0000     -0.0000      0.0026      0.0007
        24        -0.0000     -0.1378     -0.0000      0.0190      0.0053
        25        -0.0000     -0.0000      1.0560      1.1151      0.3126
        26         0.0454     -0.0000     -0.0000      0.0021      0.0006
        27         0.0000      0.0000      0.0000      0.0000      0.0000
        28        -0.0000     -0.6295      0.0000      0.3963      0.1184
        29        -0.0000      0.0000      0.4063      0.1651      0.0497
        30         0.0000     -0.5152      0.0000      0.2654      0.0823
 Ground to excited state transition velocity dipole moments (Au):
       state          X           Y           Z        Dip. S.      Osc.
         1        -0.0000     -0.0000      0.0000      0.0000      0.0000
         2         0.0000     -0.0000     -0.0466      0.0022      0.0142
         3         0.0000      0.0113     -0.0000      0.0001      0.0008
         4        -0.0164      0.0000     -0.0000      0.0003      0.0016
         5        -0.0401      0.0000      0.0000      0.0016      0.0080
         6        -0.0000      0.0000      0.0000      0.0000      0.0000
         7        -0.0000      0.0261     -0.0000      0.0007      0.0018
         8         0.1569     -0.0000     -0.0000      0.0246      0.0629
         9        -0.0000     -0.0000      0.1351      0.0183      0.0416
        10        -0.0000     -0.0000      0.0000      0.0000      0.0000
        11        -0.0000      0.1375      0.0000      0.0189      0.0408
        12        -0.0000     -0.0000      0.0000      0.0000      0.0000
        13        -0.0000      0.0000      0.5070      0.2571      0.5437
        14         0.1589     -0.0000     -0.0000      0.0253      0.0523
        15         0.0000     -0.0000      0.1090      0.0119      0.0243
        16         0.0000     -0.0294     -0.0000      0.0009      0.0017
        17        -0.0000     -0.0000      0.1827      0.0334      0.0648
        18         0.0000      0.0875     -0.0000      0.0076      0.0140
        19         0.1526     -0.0000     -0.0000      0.0233      0.0415
        20         0.0000      0.0845     -0.0000      0.0071      0.0126
        21        -0.0000     -0.0000     -0.0000      0.0000      0.0000
        22        -0.0000     -0.0000      0.3012      0.0907      0.1554
        23         0.0135     -0.0000      0.0000      0.0002      0.0003
        24         0.0000      0.0532      0.0000      0.0028      0.0045
        25         0.0000      0.0000     -0.4226      0.1786      0.2832
        26        -0.0093      0.0000      0.0000      0.0001      0.0001
        27         0.0000     -0.0000     -0.0000      0.0000      0.0000
        28         0.0000      0.2792     -0.0000      0.0780      0.1160
        29        -0.0000     -0.0000     -0.1725      0.0298      0.0440
        30         0.0000      0.2413     -0.0000      0.0582      0.0835
 Ground to excited state transition magnetic dipole moments (Au):
       state          X           Y           Z
         1         0.0000      0.0000      0.9160
         2        -0.0000      0.0000     -0.0000
         3         0.6951      0.0000      0.0000
         4         0.0000     -1.9626      0.0000
         5        -0.0000     -0.5818      0.0000
         6         0.0000      0.0000     -1.1179
         7        -0.2750     -0.0000      0.0000
         8         0.0000     -0.1346     -0.0000
         9        -0.0000      0.0000     -0.0000
        10        -0.0000     -0.0000      0.0235
        11        -0.5153      0.0000      0.0000
        12         0.0000     -0.0000     -0.0018
        13         0.0000      0.0000      0.0000
        14         0.0000      0.2374      0.0000
        15        -0.0000      0.0000      0.0000
        16         0.7986      0.0000      0.0000
        17        -0.0000      0.0000      0.0000
        18         0.1662      0.0000      0.0000
        19        -0.0000      0.1613      0.0000
        20         0.0818     -0.0000      0.0000
        21        -0.0000     -0.0000     -0.0794
        22         0.0000      0.0000      0.0000
        23         0.0000      0.0575     -0.0000
        24        -0.0345     -0.0000     -0.0000
        25        -0.0000     -0.0000     -0.0000
        26         0.0000      0.1376      0.0000
        27        -0.0000     -0.0000     -0.0246
        28         0.7662     -0.0000     -0.0000
        29        -0.0000      0.0000     -0.0000
        30        -0.0302     -0.0000      0.0000
 Ground to excited state transition velocity quadrupole moments (Au):
       state          XX          YY          ZZ          XY          XZ          YZ
         1        -0.0000      0.0000     -0.0000     -0.0216      0.0000      0.0000
         2         0.0353     -0.0073     -0.0245     -0.0000     -0.0000     -0.0000
         3         0.0000      0.0000     -0.0000     -0.0000      0.0000      0.0268
         4        -0.0000     -0.0000     -0.0000     -0.0000      0.0188     -0.0000
         5         0.0000      0.0000      0.0000     -0.0000     -0.1065     -0.0000
         6        -0.0000     -0.0000     -0.0000      0.1717      0.0000     -0.0000
         7         0.0000      0.0000     -0.0000     -0.0000     -0.0000      0.1982
         8         0.0000     -0.0000     -0.0000      0.0000     -0.1957      0.0000
         9         0.0235      0.1331     -0.1939      0.0000      0.0000      0.0000
        10        -0.0000      0.0000      0.0000      0.2779     -0.0000      0.0000
        11         0.0000     -0.0000      0.0000     -0.0000     -0.0000      0.2629
        12        -0.0000     -0.0000      0.0000      0.0828     -0.0000      0.0000
        13        -0.2544     -0.0600     -0.0912     -0.0000      0.0000     -0.0000
        14        -0.0000     -0.0000      0.0000      0.0000      0.3372      0.0000
        15         0.7200      0.0530     -0.3614      0.0000      0.0000      0.0000
        16        -0.0000      0.0000     -0.0000      0.0000      0.0000      0.3512
        17         0.3313      0.1768      0.6760     -0.0000      0.0000      0.0000
        18         0.0000     -0.0000     -0.0000     -0.0000     -0.0000      0.0091
        19         0.0000      0.0000      0.0000      0.0000     -0.0674      0.0000
        20        -0.0000      0.0000     -0.0000      0.0000     -0.0000     -0.3615
        21         0.0000      0.0000      0.0000     -0.2766     -0.0000      0.0000
        22        -0.1286     -0.4197     -0.0563      0.0000      0.0000     -0.0000
        23         0.0000     -0.0000     -0.0000      0.0000     -0.1699     -0.0000
        24         0.0000     -0.0000      0.0000     -0.0000     -0.0000      0.4866
        25        -0.2717      0.3756     -0.3143      0.0000     -0.0000      0.0000
        26         0.0000     -0.0000     -0.0000     -0.0000      0.4287     -0.0000
        27         0.0000      0.0000      0.0000      0.3695     -0.0000      0.0000
        28        -0.0000      0.0000      0.0000      0.0000     -0.0000     -0.8438
        29        -0.2004     -0.0107      0.1349     -0.0000      0.0000      0.0000
        30         0.0000     -0.0000     -0.0000     -0.0000     -0.0000     -0.6405
 <0|del|b> * <b|rxdel|0> + <0|del|b> * <b|delr+rdel|0>
 Rotatory Strengths (R) in cgs (10**-40 erg-esu-cm/Gauss)
       state          XX          YY          ZZ    R(velocity)    E-M Angle
         1         0.0000      0.0000     -0.0000      0.0000       90.00
         2         0.0000      0.0000     -0.0000      0.0000       90.00
         3         0.0000      0.0000      0.0000      0.0000       90.00
         4        -0.0000     -0.0000     -0.0000     -0.0000       90.00
         5        -0.0000      0.0000     -0.0000     -0.0000       90.00
         6        -0.0000     -0.0000     -0.0000     -0.0000       90.00
         7         0.0000      0.0000      0.0000      0.0000       90.00
         8        -0.0000      0.0000      0.0000      0.0000       90.00
         9         0.0000     -0.0000     -0.0000     -0.0000       90.00
        10         0.0000     -0.0000      0.0000      0.0000       90.00
        11         0.0000      0.0000      0.0000      0.0000       90.00
        12         0.0000     -0.0000      0.0000     -0.0000       90.00
        13        -0.0000      0.0000     -0.0000      0.0000       90.00
        14         0.0000      0.0000     -0.0000      0.0000       90.00
        15         0.0000      0.0000     -0.0000      0.0000       90.00
        16         0.0000      0.0000      0.0000      0.0000       90.00
        17        -0.0000      0.0000      0.0000      0.0000       90.00
        18         0.0000      0.0000      0.0000      0.0000       90.00
        19        -0.0000      0.0000     -0.0000     -0.0000       90.00
        20         0.0000     -0.0000     -0.0000     -0.0000       90.00
        21         0.0000     -0.0000      0.0000      0.0000       90.00
        22         0.0000      0.0000     -0.0000      0.0000       90.00
        23        -0.0000     -0.0000      0.0000      0.0000       90.00
        24         0.0000      0.0000     -0.0000     -0.0000       90.00
        25        -0.0000      0.0000     -0.0000      0.0000       90.00
        26        -0.0000      0.0000      0.0000      0.0000       90.00
        27        -0.0000      0.0000      0.0000      0.0000       90.00
        28         0.0000     -0.0000      0.0000      0.0000       90.00
        29         0.0000      0.0000     -0.0000      0.0000       90.00
        30         0.0000     -0.0000     -0.0000     -0.0000       90.00
 1/2[<0|r|b>*<b|rxdel|0> + (<0|rxdel|b>*<b|r|0>)*]
 Rotatory Strengths (R) in cgs (10**-40 erg-esu-cm/Gauss)
       state          XX          YY          ZZ     R(length)
         1         0.0000     -0.0000      0.0000      0.0000
         2         0.0000     -0.0000      0.0000      0.0000
         3        -0.0000      0.0000     -0.0000      0.0000
         4         0.0000     -0.0000     -0.0000     -0.0000
         5         0.0000     -0.0000      0.0000      0.0000
         6        -0.0000     -0.0000     -0.0000     -0.0000
         7         0.0000     -0.0000     -0.0000     -0.0000
         8         0.0000     -0.0000      0.0000      0.0000
         9         0.0000     -0.0000     -0.0000     -0.0000
        10         0.0000      0.0000      0.0000      0.0000
        11        -0.0000      0.0000      0.0000      0.0000
        12        -0.0000      0.0000     -0.0000     -0.0000
        13         0.0000     -0.0000      0.0000      0.0000
        14         0.0000      0.0000     -0.0000      0.0000
        15        -0.0000     -0.0000      0.0000      0.0000
        16        -0.0000     -0.0000      0.0000     -0.0000
        17        -0.0000      0.0000      0.0000      0.0000
        18         0.0000      0.0000      0.0000      0.0000
        19        -0.0000     -0.0000     -0.0000     -0.0000
        20         0.0000     -0.0000     -0.0000      0.0000
        21         0.0000     -0.0000     -0.0000     -0.0000
        22        -0.0000      0.0000      0.0000      0.0000
        23         0.0000     -0.0000     -0.0000      0.0000
        24        -0.0000     -0.0000     -0.0000     -0.0000
        25        -0.0000     -0.0000      0.0000      0.0000
        26        -0.0000      0.0000      0.0000     -0.0000
        27         0.0000      0.0000      0.0000      0.0000
        28         0.0000     -0.0000      0.0000      0.0000
        29        -0.0000     -0.0000      0.0000      0.0000
        30         0.0000     -0.0000     -0.0000     -0.0000
  1/2[<0|del|b>*<b|r|0> + (<0|r|b>*<b|del|0>)*] (Au)
       state          X           Y           Z        Dip. S.   Osc.(frdel)
         1         0.0000     -0.0000     -0.0000      0.0000      0.0000
         2         0.0000     -0.0000     -0.0252      0.0252      0.0168
         3         0.0000     -0.0015     -0.0000      0.0015      0.0010
         4         0.0007     -0.0000     -0.0000     -0.0007     -0.0004
         5        -0.0098     -0.0000     -0.0000      0.0098      0.0066
         6        -0.0000      0.0000     -0.0000      0.0000      0.0000
         7        -0.0000     -0.0032     -0.0000      0.0032      0.0022
         8        -0.0927      0.0000     -0.0000      0.0927      0.0618
         9        -0.0000     -0.0000     -0.0639      0.0639      0.0426
        10        -0.0000     -0.0000     -0.0000      0.0000      0.0000
        11         0.0000     -0.0607     -0.0000      0.0607      0.0405
        12        -0.0000     -0.0000     -0.0000      0.0000      0.0000
        13         0.0000      0.0000     -0.8169      0.8169      0.5446
        14        -0.0755      0.0000     -0.0000      0.0755      0.0504
        15        -0.0000     -0.0000     -0.0358      0.0358      0.0238
        16         0.0000     -0.0021      0.0000      0.0021      0.0014
        17         0.0000      0.0000     -0.0941      0.0941      0.0627
        18        -0.0000     -0.0197      0.0000      0.0197      0.0131
        19        -0.0691     -0.0000     -0.0000      0.0691      0.0461
        20        -0.0000     -0.0190     -0.0000      0.0190      0.0127
        21        -0.0000      0.0000      0.0000     -0.0000     -0.0000
        22        -0.0000      0.0000     -0.2323      0.2323      0.1549
        23        -0.0007     -0.0000     -0.0000      0.0007      0.0005
        24        -0.0000     -0.0073     -0.0000      0.0073      0.0049
        25        -0.0000     -0.0000     -0.4463      0.4463      0.2975
        26        -0.0004     -0.0000     -0.0000      0.0004      0.0003
        27         0.0000     -0.0000     -0.0000      0.0000      0.0000
        28        -0.0000     -0.1758     -0.0000      0.1758      0.1172
        29         0.0000     -0.0000     -0.0701      0.0701      0.0467
        30         0.0000     -0.1243     -0.0000      0.1243      0.0829

 Excitation energies and oscillator strengths:
 
 Excited State   1:      Singlet-A2     1.0642 eV 1165.01 nm  f=0.0000  <S**2>=0.000
       3 -> 27         0.00058
       3 -> 38         0.00033
       3 -> 47         0.00327
       4 -> 27         0.00029
       4 -> 47        -0.00079
       5 -> 13         0.00104
       5 -> 18         0.00131
       5 -> 23         0.00118
       5 -> 28         0.00094
       5 -> 37         0.00057
       5 -> 44         0.00016
       5 -> 52         0.00013
       6 -> 27        -0.00052
       6 -> 38        -0.00047
       6 -> 47         0.00078
       7 -> 12        -0.00145
       7 -> 16         0.00540
       7 -> 19        -0.00495
       7 -> 22        -0.00114
       7 -> 25        -0.00043
       7 -> 30        -0.00205
       7 -> 33         0.00025
       7 -> 49         0.00012
       7 -> 53         0.00035
       8 ->  9         0.71207
       8 -> 13        -0.00497
       8 -> 18         0.02025
       8 -> 23        -0.00031
       8 -> 28         0.00974
       8 -> 31         0.00157
       8 -> 37         0.00045
       8 -> 46        -0.00027
       8 -> 52         0.00179
       3 <- 27         0.00011
       3 <- 38         0.00013
       3 <- 47         0.00329
       4 <- 27         0.00055
       4 <- 38         0.00016
       4 <- 47        -0.00059
       5 <-  9         0.00062
       5 <- 13        -0.00027
       5 <- 18        -0.00027
       5 <- 23         0.00013
       5 <- 28        -0.00022
       5 <- 31         0.00018
       5 <- 37         0.00033
       6 <- 38        -0.00034
       6 <- 47         0.00055
       7 <- 12         0.00227
       7 <- 16        -0.01045
       7 <- 19         0.00627
       7 <- 22         0.00504
       7 <- 25        -0.00063
       7 <- 30         0.00566
       7 <- 33        -0.00033
       7 <- 49        -0.00046
       7 <- 53         0.00143
       8 <-  9        -0.08579
       8 <- 13        -0.00075
       8 <- 18        -0.00804
       8 <- 23        -0.00047
       8 <- 28        -0.00281
       8 <- 31        -0.00086
       8 <- 37        -0.00014
       8 <- 46         0.00013
       8 <- 52         0.00040
 This state for optimization and/or second-order correction.
 Total Energy, E(TD-HF/TD-DFT) =  -114.272599198    
 Copying the excited state density for this state as the 1-particle RhoCI density.
 
 Excited State   2:      Singlet-A1     2.7770 eV  446.47 nm  f=0.0199  <S**2>=0.000
       3 -> 10        -0.01142
       3 -> 11        -0.00190
       3 -> 17        -0.00282
       3 -> 20        -0.00309
       3 -> 21         0.00072
       3 -> 26         0.00060
       3 -> 29         0.00017
       3 -> 32         0.00253
       3 -> 34         0.00090
       3 -> 36        -0.00086
       3 -> 39        -0.00026
       3 -> 43         0.00042
       3 -> 45        -0.00131
       3 -> 48         0.00231
       3 -> 50         0.00168
       3 -> 54        -0.00014
       4 -> 10         0.00022
       4 -> 11         0.00871
       4 -> 14         0.00118
       4 -> 15        -0.00675
       4 -> 17         0.00184
       4 -> 20         0.00132
       4 -> 21         0.00017
       4 -> 24        -0.00349
       4 -> 26         0.00253
       4 -> 32        -0.00097
       4 -> 34        -0.00060
       4 -> 39        -0.00029
       4 -> 43        -0.00039
       4 -> 45         0.00073
       4 -> 48        -0.00063
       4 -> 50        -0.00021
       4 -> 54         0.00013
       5 -> 12         0.00738
       5 -> 16         0.00088
       5 -> 19         0.00092
       5 -> 22         0.00602
       5 -> 25        -0.00337
       5 -> 30         0.00031
       5 -> 33        -0.00218
       5 -> 35         0.00268
       5 -> 40        -0.00084
       5 -> 42        -0.00097
       5 -> 51        -0.00091
       6 -> 10         0.26642
       6 -> 11         0.02653
       6 -> 14        -0.02802
       6 -> 15        -0.01721
       6 -> 17        -0.01397
       6 -> 20         0.00015
       6 -> 21         0.00335
       6 -> 24        -0.00612
       6 -> 26        -0.00211
       6 -> 29        -0.00170
       6 -> 32         0.00482
       6 -> 34         0.00135
       6 -> 36         0.00080
       6 -> 39        -0.00157
       6 -> 43         0.00075
       6 -> 45        -0.00099
       6 -> 48         0.00066
       6 -> 50         0.00041
       6 -> 54        -0.00099
       7 ->  9         0.67246
       7 -> 13        -0.00829
       7 -> 18        -0.00789
       7 -> 23        -0.00315
       7 -> 28         0.00182
       7 -> 31        -0.00330
       7 -> 37         0.00136
       7 -> 44        -0.00095
       7 -> 52         0.00104
       8 -> 12        -0.00680
       8 -> 16         0.02780
       8 -> 19        -0.01613
       8 -> 22        -0.00881
       8 -> 30        -0.00663
       8 -> 33         0.00072
       8 -> 35        -0.00036
       8 -> 40         0.00010
       8 -> 42         0.00014
       8 -> 51         0.00011
       8 -> 53        -0.00046
       3 <- 10        -0.00958
       3 <- 11        -0.00192
       3 <- 15        -0.00040
       3 <- 17        -0.00169
       3 <- 20        -0.00284
       3 <- 21         0.00031
       3 <- 24        -0.00039
       3 <- 26        -0.00016
       3 <- 29         0.00044
       3 <- 32         0.00212
       3 <- 34         0.00046
       3 <- 36        -0.00094
       3 <- 39        -0.00019
       3 <- 43         0.00044
       3 <- 45        -0.00140
       3 <- 48         0.00231
       3 <- 50         0.00169
       4 <- 10         0.00130
       4 <- 11         0.00682
       4 <- 14         0.00114
       4 <- 15        -0.00491
       4 <- 17         0.00118
       4 <- 20         0.00196
       4 <- 24        -0.00278
       4 <- 26         0.00235
       4 <- 29        -0.00042
       4 <- 32        -0.00091
       4 <- 34        -0.00052
       4 <- 36         0.00020
       4 <- 39        -0.00034
       4 <- 43        -0.00035
       4 <- 45         0.00063
       4 <- 48        -0.00037
       4 <- 54         0.00011
       5 <- 12         0.00491
       5 <- 16         0.00069
       5 <- 19         0.00079
       5 <- 22         0.00458
       5 <- 25        -0.00277
       5 <- 30         0.00032
       5 <- 33        -0.00188
       5 <- 35         0.00237
       5 <- 40        -0.00078
       5 <- 42        -0.00088
       5 <- 51        -0.00087
       6 <- 10         0.09479
       6 <- 11         0.01232
       6 <- 14        -0.01490
       6 <- 15        -0.01006
       6 <- 17        -0.00913
       6 <- 20        -0.00123
       6 <- 21         0.00259
       6 <- 24        -0.00419
       6 <- 26        -0.00087
       6 <- 29        -0.00066
       6 <- 32         0.00447
       6 <- 34         0.00150
       6 <- 36         0.00033
       6 <- 39        -0.00140
       6 <- 43         0.00064
       6 <- 45        -0.00072
       6 <- 48         0.00036
       6 <- 50         0.00028
       6 <- 54        -0.00093
       7 <-  9        -0.12893
       7 <- 13         0.00190
       7 <- 18        -0.01013
       7 <- 28        -0.00102
       7 <- 31        -0.00156
       7 <- 37         0.00066
       7 <- 44        -0.00086
       7 <- 46        -0.00047
       7 <- 52         0.00098
       8 <- 12        -0.00334
       8 <- 16         0.01576
       8 <- 19        -0.01032
       8 <- 22        -0.00627
       8 <- 25         0.00012
       8 <- 30        -0.00553
       8 <- 33         0.00059
       8 <- 35        -0.00027
       8 <- 42         0.00010
       8 <- 49        -0.00020
       8 <- 53        -0.00044
 
 Excited State   3:      Singlet-B2     2.7921 eV  444.06 nm  f=0.0013  <S**2>=0.000
       3 -> 12        -0.00102
       3 -> 16         0.00085
       3 -> 19        -0.00335
       3 -> 22         0.00113
       3 -> 25        -0.00087
       3 -> 30        -0.00217
       3 -> 33         0.00035
       3 -> 35         0.00102
       3 -> 40        -0.00105
       3 -> 42        -0.00029
       3 -> 49        -0.00407
       3 -> 51         0.00014
       3 -> 53         0.00023
       4 -> 12         0.00031
       4 -> 16        -0.00112
       4 -> 19         0.00026
       4 -> 22         0.00141
       4 -> 25         0.00041
       4 -> 30         0.00065
       4 -> 33        -0.00026
       4 -> 35         0.00038
       4 -> 40         0.00020
       4 -> 49         0.00072
       5 -> 10         0.00871
       5 -> 11         0.00083
       5 -> 14        -0.00207
       5 -> 15         0.00242
       5 -> 17        -0.00052
       5 -> 20         0.00178
       5 -> 21         0.00225
       5 -> 24         0.00122
       5 -> 26        -0.00020
       5 -> 29        -0.00202
       5 -> 32        -0.00060
       5 -> 34        -0.00010
       5 -> 39         0.00050
       5 -> 41         0.00033
       5 -> 48        -0.00027
       5 -> 50         0.00018
       5 -> 54        -0.00016
       6 -> 12         0.00234
       6 -> 16        -0.00291
       6 -> 19         0.00435
       6 -> 22        -0.00070
       6 -> 25         0.00115
       6 -> 30         0.00048
       6 -> 33        -0.00023
       6 -> 35        -0.00097
       6 -> 40         0.00058
       6 -> 42         0.00052
       6 -> 49         0.00093
       6 -> 53        -0.00044
       7 -> 27        -0.00043
       7 -> 38         0.00023
       7 -> 47         0.00260
       8 -> 10         0.70676
       8 -> 11         0.04133
       8 -> 14        -0.03924
       8 -> 15        -0.01711
       8 -> 17        -0.01645
       8 -> 20         0.00707
       8 -> 21         0.00456
       8 -> 24        -0.00486
       8 -> 26        -0.00355
       8 -> 29        -0.01367
       8 -> 32         0.00174
       8 -> 34        -0.00089
       8 -> 36         0.00185
       8 -> 39         0.00023
       8 -> 41        -0.00017
       8 -> 45        -0.00074
       8 -> 48        -0.00318
       8 -> 50         0.00105
       8 -> 54        -0.00251
       3 <- 12        -0.00035
       3 <- 16         0.00033
       3 <- 19        -0.00170
       3 <- 22         0.00086
       3 <- 25        -0.00079
       3 <- 30        -0.00090
       3 <- 33         0.00033
       3 <- 35         0.00062
       3 <- 40        -0.00091
       3 <- 42        -0.00014
       3 <- 49        -0.00411
       3 <- 51         0.00014
       3 <- 53         0.00063
       4 <- 12         0.00012
       4 <- 16        -0.00147
       4 <- 19         0.00019
       4 <- 22         0.00181
       4 <- 25         0.00018
       4 <- 30         0.00095
       4 <- 33        -0.00027
       4 <- 35         0.00054
       4 <- 49         0.00050
       5 <- 10        -0.00096
       5 <- 11        -0.00042
       5 <- 14        -0.00034
       5 <- 15         0.00199
       5 <- 17         0.00019
       5 <- 20         0.00075
       5 <- 21         0.00137
       5 <- 24         0.00133
       5 <- 29        -0.00045
       5 <- 32        -0.00020
       5 <- 39         0.00026
       5 <- 41         0.00035
       5 <- 45        -0.00017
       5 <- 48        -0.00029
       6 <- 12        -0.00116
       6 <- 16         0.00838
       6 <- 19        -0.00492
       6 <- 22        -0.00521
       6 <- 25         0.00139
       6 <- 30        -0.00630
       6 <- 33         0.00013
       6 <- 35        -0.00074
       6 <- 40         0.00056
       6 <- 42         0.00048
       6 <- 49         0.00148
       6 <- 53        -0.00146
       7 <- 27        -0.00045
       7 <- 38         0.00019
       7 <- 47         0.00228
       8 <- 10        -0.05884
       8 <- 11        -0.00691
       8 <- 14         0.00661
       8 <- 15         0.00223
       8 <- 17         0.00285
       8 <- 20        -0.00369
       8 <- 21        -0.00092
       8 <- 24         0.00134
       8 <- 26         0.00084
       8 <- 29         0.00301
       8 <- 32         0.00193
       8 <- 34         0.00073
       8 <- 36        -0.00094
       8 <- 39        -0.00076
       8 <- 41         0.00013
       8 <- 43         0.00027
       8 <- 45        -0.00138
       8 <- 48        -0.00269
       8 <- 50         0.00104
       8 <- 54        -0.00065
 
 Excited State   4:      Singlet-B1     3.0716 eV  403.64 nm  f=0.0001  <S**2>=0.000
       3 ->  9        -0.01762
       3 -> 13         0.00050
       3 -> 18        -0.00335
       3 -> 23         0.00105
       3 -> 28        -0.00144
       3 -> 31        -0.00112
       3 -> 37         0.00017
       3 -> 44         0.00017
       3 -> 46        -0.00140
       3 -> 52         0.00046
       4 ->  9        -0.00422
       4 -> 13         0.00060
       4 -> 18         0.00026
       4 -> 23         0.00045
       4 -> 28         0.00065
       4 -> 31        -0.00077
       4 -> 46         0.00010
       4 -> 52        -0.00013
       5 -> 27        -0.00202
       5 -> 47         0.00030
       6 ->  9         0.45869
       6 -> 13        -0.01225
       6 -> 18         0.01143
       6 -> 23        -0.00756
       6 -> 28         0.00379
       6 -> 31         0.00035
       6 -> 37        -0.00021
       6 -> 44        -0.00087
       6 -> 46         0.00217
       6 -> 52         0.00033
       7 -> 10         0.54365
       7 -> 11         0.03269
       7 -> 14        -0.03233
       7 -> 15        -0.01570
       7 -> 17        -0.01288
       7 -> 20         0.00460
       7 -> 21         0.00250
       7 -> 24        -0.00594
       7 -> 26        -0.00438
       7 -> 29        -0.00823
       7 -> 32         0.00172
       7 -> 34        -0.00077
       7 -> 36         0.00096
       7 -> 41        -0.00013
       7 -> 43         0.00045
       7 -> 45        -0.00108
       7 -> 48         0.00289
       7 -> 50         0.00090
       7 -> 54        -0.00115
       8 -> 27         0.00013
       8 -> 47         0.00350
       3 <-  9        -0.00586
       3 <- 13        -0.00047
       3 <- 18        -0.00214
       3 <- 23        -0.00014
       3 <- 28        -0.00092
       3 <- 31        -0.00066
       3 <- 44        -0.00014
       3 <- 46        -0.00135
       3 <- 52         0.00061
       4 <-  9        -0.00162
       4 <- 13         0.00073
       4 <- 18         0.00106
       4 <- 23         0.00053
       4 <- 28         0.00136
       4 <- 31        -0.00059
       4 <- 44        -0.00035
       5 <- 27        -0.00195
       5 <- 47         0.00028
       6 <-  9        -0.06325
       6 <- 13         0.00232
       6 <- 18        -0.00682
       6 <- 23         0.00086
       6 <- 28        -0.00417
       6 <- 31        -0.00223
       6 <- 44         0.00038
       6 <- 46         0.00216
       6 <- 52        -0.00075
       7 <- 10        -0.07043
       7 <- 11        -0.00838
       7 <- 14         0.01086
       7 <- 15         0.00522
       7 <- 17         0.00383
       7 <- 20        -0.00046
       7 <- 21        -0.00272
       7 <- 24         0.00263
       7 <- 26         0.00161
       7 <- 29         0.00243
       7 <- 36        -0.00021
       7 <- 39        -0.00037
       7 <- 41         0.00024
       7 <- 43         0.00024
       7 <- 45        -0.00077
       7 <- 48         0.00265
       7 <- 50         0.00116
       7 <- 54         0.00023
       8 <- 27         0.00042
       8 <- 47         0.00319
 
 Excited State   5:      Singlet-B1     3.6246 eV  342.07 nm  f=0.0053  <S**2>=0.000
       3 ->  9        -0.00654
       3 -> 13         0.00030
       3 -> 18         0.00014
       3 -> 23         0.00020
       3 -> 28         0.00159
       3 -> 31         0.00079
       3 -> 44         0.00037
       3 -> 46         0.00318
       3 -> 52         0.00044
       4 ->  9         0.02835
       4 -> 13        -0.00576
       4 -> 18        -0.00054
       4 -> 23        -0.00461
       4 -> 28        -0.00031
       4 -> 31        -0.00086
       4 -> 37        -0.00035
       4 -> 44         0.00037
       4 -> 46        -0.00092
       4 -> 52        -0.00021
       5 -> 27         0.00545
       5 -> 38         0.00378
       6 ->  9         0.54109
       6 -> 13        -0.01011
       6 -> 18         0.00491
       6 -> 23        -0.00661
       6 -> 28        -0.00119
       6 -> 31         0.00445
       6 -> 37        -0.00285
       6 -> 44        -0.00141
       6 -> 46         0.00188
       6 -> 52         0.00108
       7 -> 10        -0.45319
       7 -> 11        -0.02062
       7 -> 14         0.02165
       7 -> 15         0.01748
       7 -> 17         0.00383
       7 -> 20         0.00233
       7 -> 21        -0.00116
       7 -> 24         0.00588
       7 -> 26         0.00285
       7 -> 29         0.00520
       7 -> 34         0.00309
       7 -> 36         0.00148
       7 -> 39        -0.00060
       7 -> 43        -0.00023
       7 -> 45         0.00046
       7 -> 48         0.00092
       7 -> 50         0.00047
       7 -> 54         0.00143
       8 -> 27        -0.00040
       8 -> 38        -0.00016
       8 -> 47         0.00107
       3 <-  9        -0.00223
       3 <- 13        -0.00097
       3 <- 18        -0.00037
       3 <- 23        -0.00067
       3 <- 28         0.00124
       3 <- 31        -0.00026
       3 <- 37         0.00033
       3 <- 44         0.00037
       3 <- 46         0.00327
       4 <-  9         0.01535
       4 <- 13        -0.00298
       4 <- 18         0.00035
       4 <- 23        -0.00303
       4 <- 31        -0.00064
       4 <- 37        -0.00031
       4 <- 44         0.00043
       4 <- 46        -0.00057
       4 <- 52        -0.00015
       5 <- 27         0.00400
       5 <- 38         0.00325
       6 <-  9         0.00812
       6 <- 13         0.00151
       6 <- 18         0.00079
       6 <- 23        -0.00036
       6 <- 28        -0.00169
       6 <- 31         0.00457
       6 <- 37        -0.00270
       6 <- 44        -0.00090
       6 <- 46         0.00114
       6 <- 52         0.00112
       7 <- 10        -0.00955
       7 <- 11        -0.00190
       7 <- 14         0.00408
       7 <- 15         0.00774
       7 <- 17         0.00090
       7 <- 20         0.00496
       7 <- 21        -0.00028
       7 <- 24         0.00390
       7 <- 26         0.00105
       7 <- 29         0.00091
       7 <- 32        -0.00116
       7 <- 34         0.00214
       7 <- 36         0.00235
       7 <- 39        -0.00027
       7 <- 43        -0.00033
       7 <- 45         0.00057
       7 <- 48         0.00100
       7 <- 50         0.00076
       7 <- 54         0.00112
       8 <- 47         0.00124
 
 Excited State   6:      Singlet-A2     6.7108 eV  184.75 nm  f=0.0000  <S**2>=0.000
       3 -> 27        -0.00094
       3 -> 38        -0.00025
       4 -> 27        -0.00604
       4 -> 38         0.00044
       4 -> 47        -0.00016
       5 ->  9         0.70638
       5 -> 13        -0.02540
       5 -> 18         0.00319
       5 -> 23        -0.01585
       5 -> 28         0.00147
       5 -> 31        -0.00239
       5 -> 37        -0.00565
       5 -> 44        -0.00212
       5 -> 46         0.00050
       6 -> 27        -0.00059
       6 -> 38         0.00251
       6 -> 47         0.00013
       7 -> 12         0.01302
       7 -> 16         0.01245
       7 -> 19         0.00100
       7 -> 22        -0.00388
       7 -> 25        -0.00026
       7 -> 30        -0.00040
       7 -> 33        -0.00049
       7 -> 35        -0.00010
       7 -> 40        -0.00019
       7 -> 42         0.00025
       7 -> 51        -0.00076
       8 ->  9        -0.00021
       8 -> 13         0.00576
       8 -> 18         0.00141
       8 -> 23         0.00122
       8 -> 28         0.00018
       8 -> 31         0.00054
       8 -> 37         0.00085
       8 -> 44         0.00014
       8 -> 52         0.00014
       3 <- 27        -0.00103
       3 <- 38        -0.00034
       3 <- 47         0.00013
       4 <- 27        -0.00565
       5 <-  9        -0.01520
       5 <- 13         0.00212
       5 <- 18         0.00032
       5 <- 23         0.00015
       5 <- 28         0.00214
       5 <- 31        -0.00336
       5 <- 37        -0.00358
       5 <- 44        -0.00050
       6 <- 27        -0.00132
       6 <- 38         0.00187
       7 <- 12        -0.00362
       7 <- 16        -0.00033
       7 <- 19        -0.00095
       7 <- 22        -0.00408
       7 <- 25         0.00344
       7 <- 33         0.00030
       7 <- 35        -0.00067
       7 <- 42         0.00088
       7 <- 51        -0.00088
       8 <-  9         0.00047
       8 <- 13        -0.00043
       8 <- 18        -0.00100
       8 <- 23        -0.00037
       8 <- 28        -0.00095
       8 <- 31         0.00060
       8 <- 37         0.00047
 
 Excited State   7:      Singlet-B2     6.8137 eV  181.96 nm  f=0.0026  <S**2>=0.000
       3 -> 12         0.00147
       3 -> 16         0.00063
       3 -> 19        -0.00035
       3 -> 22        -0.00012
       3 -> 25        -0.00047
       3 -> 30        -0.00146
       3 -> 33         0.00018
       3 -> 40        -0.00012
       3 -> 49        -0.00019
       4 -> 12        -0.00039
       4 -> 16         0.00083
       4 -> 19         0.00056
       4 -> 22        -0.00101
       4 -> 25        -0.00062
       4 -> 30         0.00045
       5 -> 10        -0.00385
       5 -> 11        -0.00628
       5 -> 14         0.00258
       5 -> 15         0.00272
       5 -> 20         0.00034
       5 -> 21        -0.00035
       5 -> 24        -0.00028
       5 -> 26        -0.00018
       5 -> 29        -0.00053
       5 -> 32        -0.00055
       5 -> 34         0.00058
       5 -> 39         0.00016
       5 -> 41        -0.00021
       5 -> 43        -0.00020
       6 -> 12        -0.00420
       6 -> 16        -0.00193
       6 -> 19        -0.00062
       6 -> 22         0.00036
       6 -> 30        -0.00013
       6 -> 35         0.00049
       6 -> 42        -0.00010
       6 -> 49         0.00054
       7 -> 27        -0.00043
       7 -> 38        -0.00029
       7 -> 47         0.00073
       8 -> 10        -0.03823
       8 -> 11         0.70335
       8 -> 14         0.05746
       8 -> 15        -0.01792
       8 -> 17        -0.00225
       8 -> 20         0.01072
       8 -> 21         0.00197
       8 -> 24        -0.00185
       8 -> 26         0.00264
       8 -> 29        -0.00147
       8 -> 32         0.00012
       8 -> 34        -0.00018
       8 -> 36        -0.00038
       8 -> 41        -0.00024
       8 -> 43         0.00019
       8 -> 45        -0.00051
       8 -> 48        -0.00092
       8 -> 50         0.00035
       8 -> 54        -0.00020
       3 <- 16         0.00043
       3 <- 19        -0.00036
       3 <- 22        -0.00029
       3 <- 25        -0.00014
       3 <- 30        -0.00085
       3 <- 33         0.00010
       3 <- 49        -0.00019
       4 <- 12         0.00036
       4 <- 16         0.00065
       4 <- 19         0.00055
       4 <- 22        -0.00066
       4 <- 25        -0.00040
       4 <- 30         0.00032
       4 <- 42         0.00011
       5 <- 10        -0.00130
       5 <- 14         0.00043
       5 <- 20         0.00017
       5 <- 21         0.00016
       5 <- 24        -0.00062
       5 <- 26         0.00014
       5 <- 29        -0.00019
       5 <- 32        -0.00022
       5 <- 34         0.00049
       5 <- 41        -0.00016
       5 <- 43        -0.00014
       5 <- 48        -0.00011
       6 <- 12        -0.00055
       6 <- 19        -0.00043
       6 <- 30        -0.00040
       6 <- 35         0.00035
       6 <- 49         0.00051
       7 <- 27        -0.00029
       7 <- 38        -0.00022
       7 <- 47         0.00063
       8 <- 10        -0.00323
       8 <- 11        -0.00079
       8 <- 14        -0.00020
       8 <- 15         0.00012
       8 <- 17        -0.00107
       8 <- 20        -0.00189
       8 <- 21         0.00036
       8 <- 24         0.00012
       8 <- 29         0.00026
       8 <- 32         0.00116
       8 <- 34         0.00036
       8 <- 36        -0.00091
       8 <- 45        -0.00029
       8 <- 48        -0.00074
       8 <- 50         0.00040
 
 Excited State   8:      Singlet-B1     7.0953 eV  174.74 nm  f=0.0607  <S**2>=0.000
       3 ->  9        -0.00049
       3 -> 13         0.00144
       3 -> 18        -0.00069
       3 -> 23        -0.00024
       3 -> 28        -0.00142
       3 -> 31        -0.00075
       3 -> 44        -0.00017
       3 -> 52        -0.00015
       4 ->  9         0.00209
       4 -> 13         0.00144
       4 -> 18        -0.00013
       4 -> 23        -0.00152
       4 -> 31         0.00050
       4 -> 37        -0.00036
       4 -> 44        -0.00041
       5 -> 38         0.00043
       6 ->  9        -0.00463
       6 -> 13        -0.00175
       6 -> 18         0.00012
       6 -> 23         0.00071
       6 -> 28         0.00034
       6 -> 31        -0.00020
       6 -> 37        -0.00013
       6 -> 44         0.00039
       7 -> 10        -0.03719
       7 -> 11         0.70485
       7 -> 14         0.02815
       7 -> 15        -0.03082
       7 -> 17        -0.00346
       7 -> 20         0.00356
       7 -> 21         0.00348
       7 -> 24        -0.00551
       7 -> 26         0.00202
       7 -> 29        -0.00056
       7 -> 32         0.00012
       7 -> 34        -0.00020
       7 -> 36        -0.00066
       7 -> 41        -0.00031
       7 -> 43         0.00023
       7 -> 45        -0.00040
       7 -> 48         0.00020
       7 -> 54        -0.00018
       8 -> 38        -0.00016
       8 -> 47         0.00030
       3 <-  9         0.00042
       3 <- 18        -0.00047
       3 <- 23        -0.00040
       3 <- 28        -0.00094
       3 <- 31        -0.00037
       4 <-  9        -0.00337
       4 <- 13         0.00066
       4 <- 23        -0.00053
       4 <- 31         0.00050
       4 <- 37        -0.00029
       5 <- 38         0.00036
       6 <-  9        -0.00367
       6 <- 13         0.00095
       6 <- 18        -0.00023
       6 <- 23         0.00143
       6 <- 31        -0.00032
       6 <- 44         0.00044
       6 <- 46         0.00013
       6 <- 52        -0.00012
       7 <- 10        -0.00218
       7 <- 11        -0.00128
       7 <- 14        -0.00143
       7 <- 15         0.00044
       7 <- 17        -0.00063
       7 <- 20        -0.00332
       7 <- 26        -0.00129
       7 <- 29         0.00054
       7 <- 32         0.00076
       7 <- 34         0.00027
       7 <- 36        -0.00076
       7 <- 45        -0.00018
       7 <- 48         0.00018
       8 <- 47         0.00022
 
 Excited State   9:      Singlet-A1     7.9595 eV  155.77 nm  f=0.0435  <S**2>=0.000
       3 -> 10        -0.00134
       3 -> 11         0.00175
       3 -> 14         0.00191
       3 -> 17         0.00058
       3 -> 20         0.00079
       3 -> 26        -0.00072
       3 -> 29        -0.00053
       3 -> 32        -0.00017
       3 -> 41        -0.00018
       3 -> 48        -0.00034
       3 -> 50         0.00014
       3 -> 54        -0.00026
       4 -> 10         0.00331
       4 -> 11        -0.00464
       4 -> 14        -0.00203
       4 -> 15         0.00136
[...]
  45        4PX         0.00000  -0.00000   0.00000   0.00000   0.00000
  46        4PY         0.00000  -0.00000  -0.01102  -0.03284  -0.05322
  47        4PZ        -0.00361   0.00000   0.02054   0.03211   0.02017
  48        5S         -0.00162   0.00000   0.00859   0.01358   0.00916
  49        5PX         0.00000  -0.00000   0.00000   0.00000   0.00000
  50        5PY         0.00000  -0.00000  -0.00569  -0.01220  -0.01367
  51        5PZ        -0.00008   0.00000   0.00166   0.00204  -0.00022
  52        6D 0        0.00014   0.00000  -0.00046  -0.00087  -0.00095
  53        6D+1        0.00000   0.00000   0.00000   0.00000   0.00000
  54        6D-1       -0.00000  -0.00000  -0.00051  -0.00055   0.00037
  55        6D+2        0.00001   0.00000  -0.00000   0.00001   0.00001
  56        6D-2        0.00000   0.00000   0.00000   0.00000   0.00000
                          26        27        28        29        30
  26        4PX         0.00026
  27        4PY         0.00000   0.00107
  28        4PZ         0.00000  -0.00042   0.00063
  29 3   H  1S          0.00000  -0.00192  -0.00308   0.07694
  30        2S          0.00000  -0.00173  -0.00506   0.10864   0.15567
  31        3S          0.00000   0.00096  -0.00274   0.02958   0.04693
  32        4PX         0.00026   0.00000   0.00000   0.00000   0.00000
  33        4PY         0.00000  -0.00063  -0.00011   0.00826   0.01120
  34        4PZ         0.00000   0.00011  -0.00001   0.00454   0.00630
  35 4   O  1S          0.00000   0.00005   0.00007   0.00050  -0.00004
  36        2S          0.00000   0.00013   0.00012   0.00077  -0.00018
  37        2PX         0.00581   0.00000   0.00000   0.00000   0.00000
  38        2PY         0.00000  -0.00014   0.00024   0.00796   0.02469
  39        2PZ         0.00000  -0.00251  -0.00412   0.01726   0.02695
  40        3S          0.00000  -0.00055  -0.00064  -0.00219   0.00118
  41        3PX         0.00835   0.00000   0.00000   0.00000   0.00000
  42        3PY         0.00000  -0.00020   0.00035   0.01126   0.03502
  43        3PZ         0.00000  -0.00369  -0.00610   0.02546   0.03978
  44        4S          0.00000  -0.00072  -0.00077   0.00013   0.00367
  45        4PX         0.00753   0.00000   0.00000   0.00000   0.00000
  46        4PY         0.00000  -0.00012   0.00024   0.01102   0.03284
  47        4PZ         0.00000  -0.00297  -0.00495   0.02054   0.03211
  48        5S          0.00000  -0.00118  -0.00232   0.00859   0.01358
  49        5PX         0.00155   0.00000   0.00000   0.00000   0.00000
  50        5PY         0.00000   0.00019  -0.00021   0.00569   0.01220
  51        5PZ         0.00000  -0.00032   0.00020   0.00166   0.00204
  52        6D 0        0.00000   0.00005   0.00027  -0.00046  -0.00087
  53        6D+1       -0.00016   0.00000   0.00000   0.00000   0.00000
  54        6D-1        0.00000   0.00005  -0.00006   0.00051   0.00055
  55        6D+2        0.00000  -0.00000   0.00000  -0.00000   0.00001
  56        6D-2        0.00000   0.00000   0.00000   0.00000   0.00000
                          31        32        33        34        35
  31        3S          0.02432
  32        4PX         0.00000   0.00026
  33        4PY         0.00224   0.00000   0.00107
  34        4PZ         0.00109   0.00000   0.00042   0.00063
  35 4   O  1S         -0.00042   0.00000  -0.00005   0.00007   0.64205
  36        2S         -0.00077   0.00000  -0.00013   0.00012   0.57296
  37        2PX         0.00000   0.00581   0.00000   0.00000   0.00000
  38        2PY         0.04127   0.00000  -0.00014  -0.00024   0.00000
  39        2PZ         0.01683   0.00000   0.00251  -0.00412  -0.00707
  40        3S          0.00336   0.00000   0.00055  -0.00064  -0.15040
  41        3PX         0.00000   0.00835   0.00000   0.00000   0.00000
  42        3PY         0.05865   0.00000  -0.00020  -0.00035   0.00000
  43        3PZ         0.02490   0.00000   0.00369  -0.00610  -0.00885
  44        4S          0.00391   0.00000   0.00072  -0.00077  -0.13948
  45        4PX         0.00000   0.00753   0.00000   0.00000   0.00000
  46        4PY         0.05322   0.00000  -0.00012  -0.00024   0.00000
  47        4PZ         0.02017   0.00000   0.00297  -0.00495  -0.00526
  48        5S          0.00916   0.00000   0.00118  -0.00232   0.00899
  49        5PX         0.00000   0.00155   0.00000   0.00000   0.00000
  50        5PY         0.01367   0.00000   0.00019   0.00021   0.00000
  51        5PZ        -0.00022   0.00000   0.00032   0.00020  -0.00600
  52        6D 0       -0.00095   0.00000  -0.00005   0.00027  -0.00108
  53        6D+1        0.00000  -0.00016   0.00000   0.00000   0.00000
  54        6D-1       -0.00037   0.00000   0.00005   0.00006   0.00000
  55        6D+2        0.00001   0.00000   0.00000   0.00000  -0.00075
  56        6D-2        0.00000  -0.00000   0.00000   0.00000   0.00000
                          36        37        38        39        40
  36        2S          0.52968
  37        2PX         0.00000   0.13153
  38        2PY         0.00000   0.00000   0.19613
  39        2PZ        -0.01112   0.00000   0.00000   0.08095
  40        3S         -0.25196   0.00000   0.00000   0.03585   0.79005
  41        3PX         0.00000   0.18899   0.00000   0.00000   0.00000
  42        3PY         0.00000   0.00000   0.27888  -0.00000  -0.00000
  43        3PZ        -0.01468   0.00000   0.00000   0.11975   0.05051
  44        4S         -0.21824   0.00000   0.00000   0.03449   0.63400
  45        4PX         0.00000   0.17047   0.00000   0.00000   0.00000
  46        4PY         0.00000   0.00000   0.25088  -0.00000  -0.00000
  47        4PZ        -0.00929   0.00000   0.00000   0.09684   0.03475
  48        5S          0.00981   0.00000   0.00000   0.04336  -0.01166
  49        5PX         0.00000   0.03501   0.00000   0.00000   0.00000
  50        5PY         0.00000   0.00000   0.05670   0.00000  -0.00000
  51        5PZ        -0.00863   0.00000   0.00000  -0.00073   0.02225
  52        6D 0       -0.00167  -0.00000  -0.00000  -0.00449   0.00459
  53        6D+1        0.00000  -0.00369   0.00000   0.00000  -0.00000
  54        6D-1        0.00000   0.00000  -0.00334   0.00000  -0.00000
  55        6D+2       -0.00121   0.00000  -0.00000   0.00012   0.00360
  56        6D-2        0.00000   0.00000  -0.00000   0.00000   0.00000
                          41        42        43        44        45
  41        3PX         0.27154
  42        3PY         0.00000   0.39652
  43        3PZ         0.00000   0.00000   0.17715
  44        4S          0.00000   0.00000   0.04897   0.50978
  45        4PX         0.24494   0.00000   0.00000   0.00000   0.22094
  46        4PY         0.00000   0.35672  -0.00000  -0.00000   0.00000
  47        4PZ         0.00000   0.00000   0.14328   0.03470   0.00000
  48        5S          0.00000   0.00000   0.06425  -0.00643   0.00000
  49        5PX         0.05030   0.00000   0.00000   0.00000   0.04538
  50        5PY         0.00000   0.08062   0.00000  -0.00000   0.00000
  51        5PZ         0.00000   0.00000  -0.00117   0.01784   0.00000
  52        6D 0       -0.00000  -0.00000  -0.00667   0.00336  -0.00000
  53        6D+1       -0.00530   0.00000   0.00000  -0.00000  -0.00478
  54        6D-1        0.00000  -0.00475   0.00000  -0.00000   0.00000
  55        6D+2        0.00000  -0.00000   0.00017   0.00289   0.00000
  56        6D-2        0.00000  -0.00000   0.00000   0.00000   0.00000
                          46        47        48        49        50
  46        4PY         0.32092
  47        4PZ         0.00000   0.11594
  48        5S          0.00000   0.05222   0.02457
  49        5PX         0.00000   0.00000   0.00000   0.00932
  50        5PY         0.07259   0.00000   0.00000   0.00000   0.01664
  51        5PZ         0.00000  -0.00114  -0.00140   0.00000   0.00000
  52        6D 0       -0.00000  -0.00545  -0.00269  -0.00000  -0.00000
  53        6D+1        0.00000   0.00000   0.00000  -0.00098   0.00000
  54        6D-1       -0.00426   0.00000   0.00000   0.00000  -0.00092
  55        6D+2       -0.00000   0.00011  -0.00008   0.00000  -0.00000
  56        6D-2       -0.00000   0.00000   0.00000   0.00000  -0.00000
                          51        52        53        54        55
  51        5PZ         0.00084
  52        6D 0        0.00028   0.00032
  53        6D+1       -0.00000  -0.00000   0.00010
  54        6D-1       -0.00000   0.00000   0.00000   0.00007
  55        6D+2        0.00010   0.00002  -0.00000   0.00000   0.00002
  56        6D-2        0.00000   0.00000  -0.00000   0.00000   0.00000
                          56
  56        6D-2        0.00000
          Condensed to atoms (all electrons):
               1          2          3          4
     1  C    5.176945   0.350229   0.350229   0.232947
     2  H    0.350229   0.508520  -0.042446  -0.011250
     3  H    0.350229  -0.042446   0.508520  -0.011250
     4  O    0.232947  -0.011250  -0.011250   8.069096
 Mulliken charges:
               1
     1  C   -0.110351
     2  H    0.194947
     3  H    0.194947
     4  O   -0.279543
 Sum of Mulliken charges =  -0.00000
 Mulliken charges with hydrogens summed into heavy atoms:
               1
     1  C    0.279543
     4  O   -0.279543
 Electronic spatial extent (au):  <R**2>=             97.1307
 Charge=              0.0000 electrons
 Dipole moment (field-independent basis, Debye):
    X=             -0.0000    Y=             -0.0000    Z=             -4.3631  Tot=              4.3631
 Quadrupole moment (field-independent basis, Debye-Ang):
   XX=            -13.1233   YY=            -12.1102   ZZ=            -10.3008
   XY=              0.0000   XZ=              0.0000   YZ=             -0.0000
 Traceless Quadrupole moment (field-independent basis, Debye-Ang):
   XX=             -1.2785   YY=             -0.2654   ZZ=              1.5440
   XY=              0.0000   XZ=              0.0000   YZ=             -0.0000
 Octapole moment (field-independent basis, Debye-Ang**2):
  XXX=              0.0000  YYY=             -0.0000  ZZZ=             -3.2308  XYY=             -0.0000
  XXY=              0.0000  XXZ=              0.3542  XZZ=             -0.0000  YZZ=             -0.0000
  YYZ=             -2.8406  XYZ=             -0.0000
 Hexadecapole moment (field-independent basis, Debye-Ang**3):
 XXXX=            -14.4432 YYYY=            -18.7109 ZZZZ=            -84.8443 XXXY=             -0.0000
 XXXZ=             -0.0000 YYYX=             -0.0000 YYYZ=             -0.0000 ZZZX=              0.0000
 ZZZY=              0.0000 XXYY=             -5.9832 XXZZ=            -18.0025 YYZZ=            -15.6761
 XXYZ=             -0.0000 YYXZ=              0.0000 ZZXY=              0.0000
 N-N= 2.220295574067D+01 E-N=-3.127931269083D+02  KE= 1.133100640429D+02
 Symmetry A1   KE= 1.025768310560D+02
 Symmetry A2   KE= 1.886487831168D-35
 Symmetry B1   KE= 3.826827293223D+00
 Symmetry B2   KE= 6.906405693638D+00
 Leave Link  601 at Fri Sep 17 10:53:14 2021, MaxMem=   268435456 cpu:               0.0 elap:               0.0
 (Enter /software/gaussian/g16-a03/l9999.exe)
 Electronic transition elements 
                 1             2             3             4             5 
      1  -0.114273D+03 -0.114210D+03 -0.114209D+03 -0.114199D+03 -0.114179D+03
      2   0.000000D+00  0.000000D+00  0.000000D+00 -0.408865D-01  0.245289D+00
      3   0.000000D+00  0.000000D+00 -0.136343D+00  0.000000D+00  0.000000D+00
      4   0.000000D+00  0.541233D+00  0.000000D+00  0.000000D+00  0.000000D+00
      5   0.000000D+00  0.000000D+00  0.000000D+00 -0.163618D-01 -0.400587D-01
      6   0.000000D+00  0.000000D+00  0.112603D-01  0.000000D+00  0.000000D+00
      7   0.000000D+00 -0.465608D-01  0.000000D+00  0.000000D+00  0.000000D+00
      8   0.000000D+00  0.000000D+00  0.695112D+00  0.000000D+00  0.000000D+00
      9   0.000000D+00  0.000000D+00  0.000000D+00 -0.196258D+01 -0.581828D+00
     10   0.916045D+00  0.000000D+00  0.000000D+00  0.000000D+00  0.000000D+00
     11   0.000000D+00  0.353304D-01  0.000000D+00  0.000000D+00  0.000000D+00
     12   0.000000D+00 -0.729903D-02  0.000000D+00  0.000000D+00  0.000000D+00
     13   0.000000D+00 -0.245042D-01  0.000000D+00  0.000000D+00  0.000000D+00
     14  -0.216171D-01  0.000000D+00  0.000000D+00  0.000000D+00  0.000000D+00
     15   0.000000D+00  0.000000D+00  0.000000D+00  0.187547D-01 -0.106518D+00
     16   0.000000D+00  0.000000D+00  0.268254D-01  0.000000D+00  0.000000D+00
                 6             7             8             9            10 
      1  -0.114065D+03 -0.114061D+03 -0.114051D+03 -0.114019D+03 -0.114009D+03
      2   0.000000D+00  0.000000D+00 -0.591149D+00  0.000000D+00  0.000000D+00
      3   0.000000D+00 -0.123839D+00  0.000000D+00  0.000000D+00  0.000000D+00
      4   0.000000D+00  0.000000D+00  0.000000D+00 -0.472501D+00  0.000000D+00
      5   0.000000D+00  0.000000D+00  0.156854D+00  0.000000D+00  0.000000D+00
      6   0.000000D+00  0.260822D-01  0.000000D+00  0.000000D+00  0.000000D+00
      7   0.000000D+00  0.000000D+00  0.000000D+00  0.135134D+00  0.000000D+00
      8   0.000000D+00 -0.274993D+00  0.000000D+00  0.000000D+00  0.000000D+00
      9   0.000000D+00  0.000000D+00 -0.134625D+00  0.000000D+00  0.000000D+00
     10  -0.111788D+01  0.000000D+00  0.000000D+00  0.000000D+00  0.234858D-01
     11   0.000000D+00  0.000000D+00  0.000000D+00  0.235263D-01  0.000000D+00
     12   0.000000D+00  0.000000D+00  0.000000D+00  0.133070D+00  0.000000D+00
     13   0.000000D+00  0.000000D+00  0.000000D+00 -0.193861D+00  0.000000D+00
     14   0.171738D+00  0.000000D+00  0.000000D+00  0.000000D+00  0.277862D+00
     15   0.000000D+00  0.000000D+00 -0.195657D+00  0.000000D+00  0.000000D+00
     16   0.000000D+00  0.198216D+00  0.000000D+00  0.000000D+00  0.000000D+00
                11            12            13            14            15 
      1  -0.114003D+03 -0.113998D+03 -0.113997D+03 -0.113990D+03 -0.113985D+03
      2   0.000000D+00  0.000000D+00  0.000000D+00 -0.475220D+00  0.000000D+00
      3  -0.441704D+00  0.000000D+00  0.000000D+00  0.000000D+00  0.000000D+00
      4   0.000000D+00  0.000000D+00 -0.161122D+01  0.000000D+00 -0.328177D+00
      5   0.000000D+00  0.000000D+00  0.000000D+00  0.158933D+00  0.000000D+00
      6   0.137519D+00  0.000000D+00  0.000000D+00  0.000000D+00  0.000000D+00
      7   0.000000D+00  0.000000D+00  0.507007D+00  0.000000D+00  0.109008D+00
      8  -0.515255D+00  0.000000D+00  0.000000D+00  0.000000D+00  0.000000D+00
      9   0.000000D+00  0.000000D+00  0.000000D+00  0.237372D+00  0.000000D+00
     10   0.000000D+00 -0.183616D-02  0.000000D+00  0.000000D+00  0.000000D+00
     11   0.000000D+00  0.000000D+00 -0.254389D+00  0.000000D+00  0.720048D+00
     12   0.000000D+00  0.000000D+00 -0.599978D-01  0.000000D+00  0.530128D-01
     13   0.000000D+00  0.000000D+00 -0.912223D-01  0.000000D+00 -0.361355D+00
     14   0.000000D+00  0.827592D-01  0.000000D+00  0.000000D+00  0.000000D+00
     15   0.000000D+00  0.000000D+00  0.000000D+00  0.337233D+00  0.000000D+00
     16   0.262921D+00  0.000000D+00  0.000000D+00  0.000000D+00  0.000000D+00
                16            17            18            19            20 
      1  -0.113973D+03 -0.113968D+03 -0.113947D+03 -0.113937D+03 -0.113932D+03
      2   0.000000D+00  0.000000D+00  0.000000D+00 -0.453205D+00  0.000000D+00
      3   0.710491D-01  0.000000D+00 -0.224758D+00  0.000000D+00 -0.224518D+00
      4   0.000000D+00 -0.515006D+00  0.000000D+00  0.000000D+00  0.000000D+00
      5   0.000000D+00  0.000000D+00  0.000000D+00  0.152565D+00  0.000000D+00
      6  -0.294235D-01  0.000000D+00  0.874614D-01  0.000000D+00  0.845427D-01
      7   0.000000D+00  0.182730D+00  0.000000D+00  0.000000D+00  0.000000D+00
      8   0.798563D+00  0.000000D+00  0.166201D+00  0.000000D+00  0.818371D-01
      9   0.000000D+00  0.000000D+00  0.000000D+00  0.161288D+00  0.000000D+00
     10   0.000000D+00  0.000000D+00  0.000000D+00  0.000000D+00  0.000000D+00
     11   0.000000D+00  0.331307D+00  0.000000D+00  0.000000D+00  0.000000D+00
     12   0.000000D+00  0.176779D+00  0.000000D+00  0.000000D+00  0.000000D+00
     13   0.000000D+00  0.676015D+00  0.000000D+00  0.000000D+00  0.000000D+00
     14   0.000000D+00  0.000000D+00  0.000000D+00  0.000000D+00  0.000000D+00
     15   0.000000D+00  0.000000D+00  0.000000D+00 -0.674218D-01  0.000000D+00
     16   0.351154D+00  0.000000D+00  0.906255D-02  0.000000D+00 -0.361492D+00
                21            22            23            24            25 
      1  -0.113930D+03 -0.113922D+03 -0.113912D+03 -0.113893D+03 -0.113891D+03
      2   0.000000D+00  0.000000D+00 -0.508873D-01  0.000000D+00  0.000000D+00
      3   0.000000D+00  0.000000D+00  0.000000D+00 -0.137759D+00  0.000000D+00
      4   0.000000D+00 -0.771213D+00  0.000000D+00  0.000000D+00  0.105598D+01
      5   0.000000D+00  0.000000D+00  0.134520D-01  0.000000D+00  0.000000D+00
      6   0.000000D+00  0.000000D+00  0.000000D+00  0.531840D-01  0.000000D+00
      7   0.000000D+00  0.301228D+00  0.000000D+00  0.000000D+00 -0.422641D+00
      8   0.000000D+00  0.000000D+00  0.000000D+00 -0.344620D-01  0.000000D+00
      9   0.000000D+00  0.000000D+00  0.574800D-01  0.000000D+00  0.000000D+00
     10  -0.794065D-01  0.000000D+00  0.000000D+00  0.000000D+00  0.000000D+00
     11   0.000000D+00 -0.128610D+00  0.000000D+00  0.000000D+00 -0.271711D+00
     12   0.000000D+00 -0.419718D+00  0.000000D+00  0.000000D+00  0.375631D+00
     13   0.000000D+00 -0.562850D-01  0.000000D+00  0.000000D+00 -0.314348D+00
     14  -0.276584D+00  0.000000D+00  0.000000D+00  0.000000D+00  0.000000D+00
     15   0.000000D+00  0.000000D+00 -0.169862D+00  0.000000D+00  0.000000D+00
     16   0.000000D+00  0.000000D+00  0.000000D+00  0.486581D+00  0.000000D+00
                26            27            28            29            30 
      1  -0.113875D+03 -0.113874D+03 -0.113863D+03 -0.113860D+03 -0.113847D+03
      2   0.453803D-01  0.000000D+00  0.000000D+00  0.000000D+00  0.000000D+00
      3   0.000000D+00  0.000000D+00 -0.629484D+00  0.000000D+00 -0.515186D+00
      4   0.000000D+00  0.000000D+00  0.000000D+00  0.406349D+00  0.000000D+00
      5  -0.930302D-02  0.000000D+00  0.000000D+00  0.000000D+00  0.000000D+00
      6   0.000000D+00  0.000000D+00  0.279235D+00  0.000000D+00  0.241283D+00
      7   0.000000D+00  0.000000D+00  0.000000D+00 -0.172514D+00  0.000000D+00
      8   0.000000D+00  0.000000D+00  0.766161D+00  0.000000D+00 -0.301612D-01
      9   0.137613D+00  0.000000D+00  0.000000D+00  0.000000D+00  0.000000D+00
     10   0.000000D+00 -0.246162D-01  0.000000D+00  0.000000D+00  0.000000D+00
     11   0.000000D+00  0.000000D+00  0.000000D+00 -0.200427D+00  0.000000D+00
     12   0.000000D+00  0.000000D+00  0.000000D+00 -0.107174D-01  0.000000D+00
     13   0.000000D+00  0.000000D+00  0.000000D+00  0.134908D+00  0.000000D+00
     14   0.000000D+00  0.369465D+00  0.000000D+00  0.000000D+00  0.000000D+00
     15   0.428664D+00  0.000000D+00  0.000000D+00  0.000000D+00  0.000000D+00
     16   0.000000D+00  0.000000D+00 -0.843779D+00  0.000000D+00 -0.640489D+00

 Test job not archived.
 1\1\GINC-BHD0002\SP\RB3LYP TD-FC\6-311+G(d,p)\C1H2O1\BWEIGHT\17-Sep-20
 21\0\\#p B3LYP/6-311+G** #p TD=(singlets,nstates=30)IOp(6/8=3) IOp(9/4
 0=4)\\Scan Step 289, Bond Length 1.945\\0,1\C,0,0.,0.,-0.52736\H,0,0.,
 0.93726,-1.11871\H,0,0.,-0.93726,-1.11871\O,0,0.,0.,1.41764\\Version=E
 S64L-G16RevA.03\State=1-A1\HF=-114.3117091\RMSD=4.796e-10\PG=C02V [C2(
 C1O1),SGV(H2)]\\@


 NECESSARY EVIL: ONE WE LIKE TOO MUCH TO RELINQUISH.
 Job cpu time:       0 days  0 hours  0 minutes 25.9 seconds.
 Elapsed time:       0 days  0 hours  0 minutes 26.1 seconds.
 File lengths (MBytes):  RWF=     79 Int=      0 D2E=      0 Chk=     32 Scr=      1
 Normal termination of Gaussian 16 at Fri Sep 17 10:53:15 2021.
