 Entering Gaussian System, Link 0=g16
 Initial command:
 /software/gaussian/g16-c01/sse4/g16/l1.exe "/local_scratch/24657505/Gau-23438.inp" -scrdir="/local_scratch/24657505/"
 Entering Link 1 = /software/gaussian/g16-c01/sse4/g16/l1.exe PID=     23450.
  
 Copyright (c) 1988-2019, Gaussian, Inc.  All Rights Reserved.
  
 This is part of the Gaussian(R) 16 program.  It is based on
 the Gaussian(R) 09 system (copyright 2009, Gaussian, Inc.),
 the Gaussian(R) 03 system (copyright 2003, Gaussian, Inc.),
 the Gaussian(R) 98 system (copyright 1998, Gaussian, Inc.),
 the Gaussian(R) 94 system (copyright 1995, Gaussian, Inc.),
 the Gaussian 92(TM) system (copyright 1992, Gaussian, Inc.),
 the Gaussian 90(TM) system (copyright 1990, Gaussian, Inc.),
 the Gaussian 88(TM) system (copyright 1988, Gaussian, Inc.),
 the Gaussian 86(TM) system (copyright 1986, Carnegie Mellon
 University), and the Gaussian 82(TM) system (copyright 1983,
 Carnegie Mellon University). Gaussian is a federally registered
 trademark of Gaussian, Inc.
  
 This software contains proprietary and confidential information,
 including trade secrets, belonging to Gaussian, Inc.
  
 This software is provided under written license and may be
 used, copied, transmitted, or stored only in accord with that
 written license.
  
 The following legend is applicable only to US Government
 contracts under FAR:
  
                    RESTRICTED RIGHTS LEGEND
  
 Use, reproduction and disclosure by the US Government is
 subject to restrictions as set forth in subparagraphs (a)
 and (c) of the Commercial Computer Software - Restricted
 Rights clause in FAR 52.227-19.
  
 Gaussian, Inc.
 340 Quinnipiac St., Bldg. 40, Wallingford CT 06492
  
  
 ---------------------------------------------------------------
 Warning -- This program may not be used in any manner that
 competes with the business of Gaussian, Inc. or will provide
 assistance to any competitor of Gaussian, Inc.  The licensee
 of this program is prohibited from giving any competitor of
 Gaussian, Inc. access to this program.  By using this program,
 the user acknowledges that Gaussian, Inc. is engaged in the
 business of creating and licensing software in the field of
 computational chemistry and represents and warrants to the
 licensee that it is not a competitor of Gaussian, Inc. and that
 it will not use this program in any manner prohibited above.
 ---------------------------------------------------------------
  

 Cite this work as:
 Gaussian 16, Revision C.01,
 M. J. Frisch, G. W. Trucks, H. B. Schlegel, G. E. Scuseria, 
 M. A. Robb, J. R. Cheeseman, G. Scalmani, V. Barone, 
 G. A. Petersson, H. Nakatsuji, X. Li, M. Caricato, A. V. Marenich, 
 J. Bloino, B. G. Janesko, R. Gomperts, B. Mennucci, H. P. Hratchian, 
 J. V. Ortiz, A. F. Izmaylov, J. L. Sonnenberg, D. Williams-Young, 
 F. Ding, F. Lipparini, F. Egidi, J. Goings, B. Peng, A. Petrone, 
 T. Henderson, D. Ranasinghe, V. G. Zakrzewski, J. Gao, N. Rega, 
 G. Zheng, W. Liang, M. Hada, M. Ehara, K. Toyota, R. Fukuda, 
 J. Hasegawa, M. Ishida, T. Nakajima, Y. Honda, O. Kitao, H. Nakai, 
 T. Vreven, K. Throssell, J. A. Montgomery, Jr., J. E. Peralta, 
 F. Ogliaro, M. J. Bearpark, J. J. Heyd, E. N. Brothers, K. N. Kudin, 
 V. N. Staroverov, T. A. Keith, R. Kobayashi, J. Normand, 
 K. Raghavachari, A. P. Rendell, J. C. Burant, S. S. Iyengar, 
 J. Tomasi, M. Cossi, J. M. Millam, M. Klene, C. Adamo, R. Cammi, 
 J. W. Ochterski, R. L. Martin, K. Morokuma, O. Farkas, 
 J. B. Foresman, and D. J. Fox, Gaussian, Inc., Wallingford CT, 2019.
 
 ******************************************
 Gaussian 16:  ES64L-G16RevC.01  3-Jul-2019
                 1-May-2024 
 ******************************************
 %chk=geometry.chk
 %mem=9GB
 %nprocshared=12
 Will use up to   12 processors via shared memory.
 ---------------------------------------
 #P wB97XD/6-311+G* NoSymm #P Field=Y+38
 ---------------------------------------
 1/38=1,172=1/1;
 2/12=2,15=1,17=6,18=5,40=1/2;
 3/5=4,6=6,7=11,11=2,14=2,15=38,25=1,30=1,74=-58/1,2,3;
 4//1;
 5/5=2,38=5/2;
 6/7=2,8=2,9=2,10=2,28=1/1;
 99/5=1,9=1/99;
 Leave Link    1 at Wed May  1 14:47:55 2024, MaxMem=  1207959552 cpu:               2.0 elap:               2.0
 (Enter /software/gaussian/g16-c01/sse4/g16/l101.exe)
 -------
 TitleMe
 -------
 Symbolic Z-matrix:
 Charge =  1 Multiplicity = 1
 C                     0.0295    1.3397    0.0682 
 C                     1.4348    1.2867    0.0064 
 C                     2.1118    0.0511   -0.0054 
 C                     1.4451   -1.1372    0.0312 
 C                    -0.6879    0.1682    0.11 
 H                    -0.4713    2.2984    0.0781 
 H                     2.0273    2.1965   -0.0322 
 H                     1.9897   -2.0764    0.0232 
 H                    -1.7716    0.1804    0.1582 
 N                     3.5864    0.051    -0.0675 
 O                     4.1471   -1.0597   -0.0881 
 O                     4.145     1.1639   -0.0901 
 C                    -0.0236   -1.1458    0.0835 
 H                    -0.4367   -1.8725    0.7889 
 Br                   -0.5359   -1.8697   -1.7408 
 
 ITRead=  0  0  0  0  0  0  0  0  0  0  0  0  0  0  0
 MicOpt= -1 -1 -1 -1 -1 -1 -1 -1 -1 -1 -1 -1 -1 -1 -1
 NAtoms=     15 NQM=       15 NQMF=       0 NMMI=      0 NMMIF=      0
                NMic=       0 NMicF=      0.
                    Isotopes and Nuclear Properties:
 (Nuclear quadrupole moments (NQMom) in fm**2, nuclear magnetic moments (NMagM)
  in nuclear magnetons)

  Atom         1           2           3           4           5           6           7           8           9          10
 IAtWgt=          12          12          12          12          12           1           1           1           1          14
 AtmWgt=  12.0000000  12.0000000  12.0000000  12.0000000  12.0000000   1.0078250   1.0078250   1.0078250   1.0078250  14.0030740
 NucSpn=           0           0           0           0           0           1           1           1           1           2
 AtZEff=  -0.0000000  -0.0000000  -0.0000000  -0.0000000  -0.0000000  -0.0000000  -0.0000000  -0.0000000  -0.0000000  -0.0000000
 NQMom=    0.0000000   0.0000000   0.0000000   0.0000000   0.0000000   0.0000000   0.0000000   0.0000000   0.0000000   2.0440000
 NMagM=    0.0000000   0.0000000   0.0000000   0.0000000   0.0000000   2.7928460   2.7928460   2.7928460   2.7928460   0.4037610
 AtZNuc=   6.0000000   6.0000000   6.0000000   6.0000000   6.0000000   1.0000000   1.0000000   1.0000000   1.0000000   7.0000000

  Atom        11          12          13          14          15
 IAtWgt=          16          16          12           1          79
 AtmWgt=  15.9949146  15.9949146  12.0000000   1.0078250  78.9183361
 NucSpn=           0           0           0           1           3
 AtZEff=  -0.0000000  -0.0000000  -0.0000000  -0.0000000  -0.0000000
 NQMom=    0.0000000   0.0000000   0.0000000   0.0000000  31.3000000
 NMagM=    0.0000000   0.0000000   0.0000000   2.7928460   2.1063990
 AtZNuc=   8.0000000   8.0000000   6.0000000   1.0000000  35.0000000
 Leave Link  101 at Wed May  1 14:47:57 2024, MaxMem=  1207959552 cpu:               1.4 elap:               1.4
 (Enter /software/gaussian/g16-c01/sse4/g16/l202.exe)
                          Input orientation:                          
 ---------------------------------------------------------------------
 Center     Atomic      Atomic             Coordinates (Angstroms)
 Number     Number       Type             X           Y           Z
 ---------------------------------------------------------------------
      1          6           0        0.029500    1.339700    0.068200
      2          6           0        1.434800    1.286700    0.006400
      3          6           0        2.111800    0.051100   -0.005400
      4          6           0        1.445100   -1.137200    0.031200
      5          6           0       -0.687900    0.168200    0.110000
      6          1           0       -0.471300    2.298400    0.078100
      7          1           0        2.027300    2.196500   -0.032200
      8          1           0        1.989700   -2.076400    0.023200
      9          1           0       -1.771600    0.180400    0.158200
     10          7           0        3.586400    0.051000   -0.067500
     11          8           0        4.147100   -1.059700   -0.088100
     12          8           0        4.145000    1.163900   -0.090100
     13          6           0       -0.023600   -1.145800    0.083500
     14          1           0       -0.436700   -1.872500    0.788900
     15         35           0       -0.535900   -1.869700   -1.740800
 ---------------------------------------------------------------------
                    Distance matrix (angstroms):
                    1          2          3          4          5
     1  C    0.000000
     2  C    1.407656   0.000000
     3  C    2.449874   1.408963   0.000000
     4  C    2.853126   2.424049   1.363043   0.000000
     5  C    1.374344   2.401589   2.804523   2.501993   0.000000
     6  H    1.081667   2.159142   3.424870   3.934226   2.141421
     7  H    2.176095   1.086408   2.147231   3.384750   3.392128
     8  H    3.938800   3.408612   2.131193   1.085702   3.495040
     9  H    2.143837   3.395283   3.888995   3.478413   1.084840
    10  N    3.785591   2.482297   1.475907   2.450862   4.279589
    11  O    4.768247   3.587631   2.320164   2.705743   4.992415
    12  O    4.122294   2.714696   2.319353   3.549540   4.938459
    13  C    2.486114   2.837240   2.449573   1.469656   1.472614
    14  H    3.324903   3.754379   3.290289   2.157764   2.165286
    15  Br   3.727252   4.110867   3.702891   2.756973   2.757100
                    6          7          8          9         10
     6  H    0.000000
     7  H    2.503108   0.000000
     8  H    5.019802   4.273425   0.000000
     9  H    2.486588   4.304945   4.388479   0.000000
    10  N    4.640790   2.652397   2.661486   5.364313   0.000000
    11  O    5.712624   3.885809   2.387560   6.052233   1.244373
    12  O    4.756638   2.356750   3.893289   6.002923   1.245428
    13  C    3.473180   3.923079   2.218790   2.195425   3.806210
    14  H    4.231175   4.827242   2.552506   2.528663   4.540772
    15  Br   4.548146   5.101303   3.087568   3.055498   4.845862
                   11         12         13         14         15
    11  O    0.000000
    12  O    2.223602   0.000000
    13  C    4.175117   4.768865   0.000000
    14  H    4.737193   5.566358   1.093770   0.000000
    15  Br   5.031700   5.817075   2.028436   2.531646   0.000000
 Symmetry turned off by external request.
 Stoichiometry    C6H5BrNO2(1+)
 Framework group  C1[X(C6H5BrNO2)]
 Deg. of freedom    39
 Full point group                 C1      NOp   1
 Rotational constants (GHZ):           1.8252210           0.5518633           0.4576002
 Leave Link  202 at Wed May  1 14:47:58 2024, MaxMem=  1207959552 cpu:               1.2 elap:               1.2
 (Enter /software/gaussian/g16-c01/sse4/g16/l301.exe)
 Standard basis: 6-311+G(d) (5D, 7F)
 Ernie: Thresh=  0.10000D-02 Tol=  0.10000D-05 Strict=F.
 The following finite field(s) will be applied:
 An electric field of              0.0000  0.0038  0.0000
   261 basis functions,   443 primitive gaussians,   273 cartesian basis functions
    49 alpha electrons       49 beta electrons
       nuclear repulsion energy       739.2122215416 Hartrees.
 IExCor= 4639 DFT=T Ex+Corr=wB97XD ExCW=0 ScaHFX=  1.000000
 ScaDFX=  1.000000  1.000000  1.000000  1.000000 ScalE2=  1.000000  1.000000
 IRadAn=      5 IRanWt=     -1 IRanGd=            0 ICorTp=0 IEmpDi=121
 HFx  wShort=  0.000000 wLong=  0.200000 cFull=  0.222036 cShort=  0.000000 cLong=  0.777964
 DFx  wShort=  0.000000 wLong=  0.200000 cFull=  0.000000 cShort=  0.000000 cLong=  1.000000
 NAtoms=   15 NActive=   15 NUniq=   15 SFac= 1.00D+00 NAtFMM=   60 NAOKFM=F Big=F
 Integral buffers will be    131072 words long.
 Raffenetti 2 integral format.
 Two-electron integral symmetry is turned off.
 R6Disp:  Grimme-D2 Dispersion energy=       -0.0077368520 Hartrees.
 Nuclear repulsion after empirical dispersion term =      739.2044846896 Hartrees.
 Leave Link  301 at Wed May  1 14:47:59 2024, MaxMem=  1207959552 cpu:               1.0 elap:               1.0
 (Enter /software/gaussian/g16-c01/sse4/g16/l302.exe)
 NPDir=0 NMtPBC=     1 NCelOv=     1 NCel=       1 NClECP=     1 NCelD=      1
         NCelK=      1 NCelE2=     1 NClLst=     1 CellRange=     0.0.
 One-electron integrals computed using PRISM.
 NBasis=   261 RedAO= T EigKep=  2.35D-06  NBF=   261
 NBsUse=   261 1.00D-06 EigRej= -1.00D+00 NBFU=   261
 Precomputing XC quadrature grid using
 IXCGrd= 4 IRadAn=           5 IRanWt=          -1 IRanGd=           0 AccXCQ= 0.00D+00.
 Generated NRdTot=       0 NPtTot=           0 NUsed=           0 NTot=          32
 NSgBfM=   273   273   273   273   273 MxSgAt=    15 MxSgA2=    15.
 Leave Link  302 at Wed May  1 14:48:20 2024, MaxMem=  1207959552 cpu:              21.6 elap:              21.6
 (Enter /software/gaussian/g16-c01/sse4/g16/l303.exe)
 DipDrv:  MaxL=1.
 The nuclear repulsion energy is now       738.7725765588 hartrees.
 Leave Link  303 at Wed May  1 14:48:24 2024, MaxMem=  1207959552 cpu:               3.2 elap:               3.2
 (Enter /software/gaussian/g16-c01/sse4/g16/l401.exe)
 ExpMin= 3.50D-02 ExpMax= 4.40D+05 ExpMxC= 1.51D+04 IAcc=3 IRadAn=         5 AccDes= 0.00D+00
 Harris functional with IExCor= 4639 and IRadAn=       5 diagonalized for initial guess.
 HarFok:  IExCor= 4639 AccDes= 0.00D+00 IRadAn=         5 IDoV= 1 UseB2=F ITyADJ=14
 ICtDFT=  3500011 ScaDFX=  1.000000  1.000000  1.000000  1.000000
 FoFCou: FMM=F IPFlag=           0 FMFlag=      100000 FMFlg1=           0
         NFxFlg=           0 DoJE=T BraDBF=F KetDBF=T FulRan=T
         wScrn=  0.000000 ICntrl=       500 IOpCl=  0 I1Cent=   200000004 NGrid=           0
         NMat0=    1 NMatS0=      1 NMatT0=    0 NMatD0=    1 NMtDS0=    0 NMtDT0=    0
 Symmetry not used in FoFCou.
 Harris En= -2970.59882518837    
 JPrj=0 DoOrth=F DoCkMO=F.
 Leave Link  401 at Wed May  1 14:48:53 2024, MaxMem=  1207959552 cpu:              29.4 elap:              29.4
 (Enter /software/gaussian/g16-c01/sse4/g16/l502.exe)
 Two-electron integral symmetry not used.
 Closed shell SCF:
 Using DIIS extrapolation, IDIIS=  1040.
 NGot=  1207959552 LenX=  1207804877 LenY=  1207729907
 Requested convergence on RMS density matrix=1.00D-08 within 128 cycles.
 Requested convergence on MAX density matrix=1.00D-06.
 Requested convergence on             energy=1.00D-06.
 No special actions if energy rises.
 Fock matrices will be formed incrementally for  20 cycles.

 Cycle   1  Pass 1  IDiag  1:
 FoFJK:  IHMeth= 1 ICntrl=       0 DoSepK=T KAlg= 0 I1Cent=           0 FoldK=F
 IRaf=         1 NMat=       1 IRICut=       1 DoRegI=T DoRafI=F ISym2E= 0 IDoP0=0 IntGTp=1.
 FoFCou: FMM=F IPFlag=           0 FMFlag=      100000 FMFlg1=           0
         NFxFlg=           0 DoJE=T BraDBF=F KetDBF=F FulRan=T
         wScrn=  0.000000 ICntrl=       500 IOpCl=  0 I1Cent=           0 NGrid=           0
         NMat0=    1 NMatS0=      1 NMatT0=    0 NMatD0=    1 NMtDS0=    0 NMtDT0=    0
 Symmetry not used in FoFCou.
 E= -3009.72001832719    
 DIIS: error= 3.20D-01 at cycle   1 NSaved=   1.
 NSaved= 1 IEnMin= 1 EnMin= -3009.72001832719     IErMin= 1 ErrMin= 3.20D-01
 ErrMax= 3.20D-01  0.00D+00 EMaxC= 1.00D-01 BMatC= 1.19D+01 BMatP= 1.19D+01
 IDIUse=3 WtCom= 0.00D+00 WtEn= 1.00D+00
 Coeff-Com:  0.100D+01
 Coeff-En:   0.100D+01
 Coeff:      0.100D+01
 Gap=     0.335 Goal=   None    Shift=    0.000
 GapD=    0.335 DampG=1.000 DampE=0.250 DampFc=0.2500 IDamp=-1.
 Damping current iteration by 2.50D-01
 RMSDP=4.23D-02 MaxDP=4.08D+00              OVMax= 2.53D-01

 Cycle   2  Pass 1  IDiag  1:
 RMSU=  4.00D-03    CP:  8.94D-01
 E= -3010.00543743229     Delta-E=       -0.285419105100 Rises=F Damp=T
 DIIS: error= 2.25D-01 at cycle   2 NSaved=   2.
 NSaved= 2 IEnMin= 2 EnMin= -3010.00543743229     IErMin= 2 ErrMin= 2.25D-01
 ErrMax= 2.25D-01  0.00D+00 EMaxC= 1.00D-01 BMatC= 5.46D+00 BMatP= 1.19D+01
 IDIUse=3 WtCom= 0.00D+00 WtEn= 1.00D+00
 Coeff-Com: -0.184D+01 0.284D+01
 Coeff-En:   0.000D+00 0.100D+01
 Coeff:      0.000D+00 0.100D+01
 Gap=     0.292 Goal=   None    Shift=    0.000
 RMSDP=3.30D-02 MaxDP=3.14D+00 DE=-2.85D-01 OVMax= 7.50D-02

 Cycle   3  Pass 1  IDiag  1:
 RMSU=  4.26D-03    CP:  5.57D-01  3.00D+00
 E= -3010.38561756056     Delta-E=       -0.380180128270 Rises=F Damp=F
 DIIS: error= 6.57D-02 at cycle   3 NSaved=   3.
 NSaved= 3 IEnMin= 3 EnMin= -3010.38561756056     IErMin= 3 ErrMin= 6.57D-02
 ErrMax= 6.57D-02  0.00D+00 EMaxC= 1.00D-01 BMatC= 7.36D-01 BMatP= 5.46D+00
 IDIUse=3 WtCom= 3.43D-01 WtEn= 6.57D-01
 Coeff-Com:  0.270D+01-0.355D+01 0.185D+01
 Coeff-En:   0.290D-01 0.000D+00 0.971D+00
 Coeff:      0.944D+00-0.122D+01 0.127D+01
 Gap=     0.268 Goal=   None    Shift=    0.000
 RMSDP=8.07D-03 MaxDP=4.41D-01 DE=-3.80D-01 OVMax= 6.80D-02

 Cycle   4  Pass 1  IDiag  1:
 RMSU=  5.01D-03    CP:  5.77D-01  2.30D+00  2.01D+00
 E= -3010.48878469277     Delta-E=       -0.103167132213 Rises=F Damp=F
 DIIS: error= 3.82D-02 at cycle   4 NSaved=   4.
 NSaved= 4 IEnMin= 4 EnMin= -3010.48878469277     IErMin= 4 ErrMin= 3.82D-02
 ErrMax= 3.82D-02  0.00D+00 EMaxC= 1.00D-01 BMatC= 2.32D-01 BMatP= 7.36D-01
 IDIUse=3 WtCom= 6.18D-01 WtEn= 3.82D-01
 Coeff-Com:  0.556D-01-0.597D-01 0.397D+00 0.607D+00
 Coeff-En:   0.000D+00 0.000D+00 0.202D+00 0.798D+00
 Coeff:      0.343D-01-0.369D-01 0.322D+00 0.680D+00
 Gap=     0.268 Goal=   None    Shift=    0.000
 RMSDP=3.50D-03 MaxDP=2.93D-01 DE=-1.03D-01 OVMax= 4.22D-02

 Cycle   5  Pass 1  IDiag  1:
 RMSU=  1.52D-03    CP:  5.50D-01  2.69D+00  1.85D+00  8.34D-01
 E= -3010.53215827085     Delta-E=       -0.043373578079 Rises=F Damp=F
 DIIS: error= 8.17D-03 at cycle   5 NSaved=   5.
 NSaved= 5 IEnMin= 5 EnMin= -3010.53215827085     IErMin= 5 ErrMin= 8.17D-03
 ErrMax= 8.17D-03  0.00D+00 EMaxC= 1.00D-01 BMatC= 1.12D-02 BMatP= 2.32D-01
 IDIUse=3 WtCom= 9.18D-01 WtEn= 8.17D-02
 Coeff-Com: -0.141D+00 0.193D+00 0.111D+00 0.411D+00 0.426D+00
 Coeff-En:   0.000D+00 0.000D+00 0.000D+00 0.000D+00 0.100D+01
 Coeff:     -0.129D+00 0.178D+00 0.102D+00 0.377D+00 0.473D+00
 Gap=     0.269 Goal=   None    Shift=    0.000
 RMSDP=9.07D-04 MaxDP=4.07D-02 DE=-4.34D-02 OVMax= 3.28D-02

 Cycle   6  Pass 1  IDiag  1:
 RMSU=  5.36D-04    CP:  5.46D-01  2.65D+00  1.89D+00  8.77D-01  6.17D-01
 E= -3010.53649078883     Delta-E=       -0.004332517977 Rises=F Damp=F
 DIIS: error= 2.41D-03 at cycle   6 NSaved=   6.
 NSaved= 6 IEnMin= 6 EnMin= -3010.53649078883     IErMin= 6 ErrMin= 2.41D-03
 ErrMax= 2.41D-03  0.00D+00 EMaxC= 1.00D-01 BMatC= 7.47D-04 BMatP= 1.12D-02
 IDIUse=3 WtCom= 9.76D-01 WtEn= 2.41D-02
 Coeff-Com: -0.119D+00 0.160D+00-0.571D-03 0.176D+00 0.311D+00 0.472D+00
 Coeff-En:   0.000D+00 0.000D+00 0.000D+00 0.000D+00 0.600D-01 0.940D+00
 Coeff:     -0.116D+00 0.157D+00-0.557D-03 0.172D+00 0.305D+00 0.483D+00
 Gap=     0.253 Goal=   None    Shift=    0.000
 RMSDP=2.68D-04 MaxDP=1.33D-02 DE=-4.33D-03 OVMax= 8.42D-03

 Cycle   7  Pass 1  IDiag  1:
 RMSU=  2.07D-04    CP:  5.47D-01  2.66D+00  1.88D+00  8.63D-01  6.89D-01
                    CP:  8.45D-01
 E= -3010.53701136140     Delta-E=       -0.000520572577 Rises=F Damp=F
 DIIS: error= 2.23D-04 at cycle   7 NSaved=   7.
 NSaved= 7 IEnMin= 7 EnMin= -3010.53701136140     IErMin= 7 ErrMin= 2.23D-04
 ErrMax= 2.23D-04  0.00D+00 EMaxC= 1.00D-01 BMatC= 1.45D-05 BMatP= 7.47D-04
 IDIUse=3 WtCom= 9.98D-01 WtEn= 2.23D-03
 Coeff-Com: -0.334D-01 0.445D-01-0.121D-01 0.273D-01 0.546D-01 0.140D+00
 Coeff-Com:  0.779D+00
 Coeff-En:   0.000D+00 0.000D+00 0.000D+00 0.000D+00 0.000D+00 0.000D+00
 Coeff-En:   0.100D+01
 Coeff:     -0.333D-01 0.444D-01-0.121D-01 0.272D-01 0.545D-01 0.140D+00
 Coeff:      0.779D+00
 Gap=     0.254 Goal=   None    Shift=    0.000
 RMSDP=1.41D-04 MaxDP=1.08D-02 DE=-5.21D-04 OVMax= 2.76D-03

 Cycle   8  Pass 1  IDiag  1:
 RMSU=  8.19D-05    CP:  5.46D-01  2.65D+00  1.89D+00  8.75D-01  7.19D-01
                    CP:  9.30D-01  9.21D-01
 E= -3010.53703040193     Delta-E=       -0.000019040524 Rises=F Damp=F
 DIIS: error= 1.42D-04 at cycle   8 NSaved=   8.
 NSaved= 8 IEnMin= 8 EnMin= -3010.53703040193     IErMin= 8 ErrMin= 1.42D-04
 ErrMax= 1.42D-04  0.00D+00 EMaxC= 1.00D-01 BMatC= 2.72D-06 BMatP= 1.45D-05
 IDIUse=3 WtCom= 9.99D-01 WtEn= 1.42D-03
 Coeff-Com:  0.620D-02-0.855D-02-0.369D-02-0.145D-01-0.285D-01-0.394D-01
 Coeff-Com:  0.246D+00 0.842D+00
 Coeff-En:   0.000D+00 0.000D+00 0.000D+00 0.000D+00 0.000D+00 0.000D+00
 Coeff-En:   0.000D+00 0.100D+01
 Coeff:      0.619D-02-0.854D-02-0.368D-02-0.145D-01-0.285D-01-0.393D-01
 Coeff:      0.246D+00 0.842D+00
 Gap=     0.254 Goal=   None    Shift=    0.000
 RMSDP=6.22D-05 MaxDP=4.86D-03 DE=-1.90D-05 OVMax= 1.76D-03

 Cycle   9  Pass 1  IDiag  1:
 RMSU=  2.41D-05    CP:  5.47D-01  2.65D+00  1.89D+00  8.75D-01  7.21D-01
                    CP:  9.65D-01  1.14D+00  1.15D+00
 E= -3010.53703583687     Delta-E=       -0.000005434944 Rises=F Damp=F
 DIIS: error= 4.91D-05 at cycle   9 NSaved=   9.
 NSaved= 9 IEnMin= 9 EnMin= -3010.53703583687     IErMin= 9 ErrMin= 4.91D-05
 ErrMax= 4.91D-05  0.00D+00 EMaxC= 1.00D-01 BMatC= 2.22D-07 BMatP= 2.72D-06
 IDIUse=1 WtCom= 1.00D+00 WtEn= 0.00D+00
 Coeff-Com:  0.552D-02-0.740D-02 0.677D-03-0.700D-02-0.124D-01-0.267D-01
 Coeff-Com: -0.736D-01 0.173D+00 0.948D+00
 Coeff:      0.552D-02-0.740D-02 0.677D-03-0.700D-02-0.124D-01-0.267D-01
 Coeff:     -0.736D-01 0.173D+00 0.948D+00
 Gap=     0.254 Goal=   None    Shift=    0.000
 RMSDP=2.26D-05 MaxDP=1.54D-03 DE=-5.43D-06 OVMax= 1.06D-03

 Cycle  10  Pass 1  IDiag  1:
 RMSU=  8.83D-06    CP:  5.47D-01  2.65D+00  1.89D+00  8.76D-01  7.23D-01
                    CP:  9.80D-01  1.19D+00  1.26D+00  1.16D+00
 E= -3010.53703681642     Delta-E=       -0.000000979550 Rises=F Damp=F
 DIIS: error= 1.58D-05 at cycle  10 NSaved=  10.
 NSaved=10 IEnMin=10 EnMin= -3010.53703681642     IErMin=10 ErrMin= 1.58D-05
 ErrMax= 1.58D-05  0.00D+00 EMaxC= 1.00D-01 BMatC= 5.91D-08 BMatP= 2.22D-07
 IDIUse=1 WtCom= 1.00D+00 WtEn= 0.00D+00
 Coeff-Com:  0.404D-03-0.515D-03 0.359D-03-0.378D-03 0.911D-03 0.304D-03
 Coeff-Com: -0.518D-01-0.510D-01 0.294D+00 0.808D+00
 Coeff:      0.404D-03-0.515D-03 0.359D-03-0.378D-03 0.911D-03 0.304D-03
 Coeff:     -0.518D-01-0.510D-01 0.294D+00 0.808D+00
 Gap=     0.254 Goal=   None    Shift=    0.000
 RMSDP=7.81D-06 MaxDP=5.76D-04 DE=-9.80D-07 OVMax= 3.38D-04

 Cycle  11  Pass 1  IDiag  1:
 RMSU=  3.95D-06    CP:  5.47D-01  2.65D+00  1.89D+00  8.75D-01  7.23D-01
                    CP:  9.83D-01  1.20D+00  1.25D+00  1.26D+00  1.11D+00
 E= -3010.53703695935     Delta-E=       -0.000000142929 Rises=F Damp=F
 DIIS: error= 7.14D-06 at cycle  11 NSaved=  11.
 NSaved=11 IEnMin=11 EnMin= -3010.53703695935     IErMin=11 ErrMin= 7.14D-06
 ErrMax= 7.14D-06  0.00D+00 EMaxC= 1.00D-01 BMatC= 5.63D-09 BMatP= 5.91D-08
 IDIUse=1 WtCom= 1.00D+00 WtEn= 0.00D+00
 Coeff-Com: -0.362D-03 0.488D-03 0.639D-04 0.755D-03 0.157D-02 0.369D-02
 Coeff-Com:  0.837D-02-0.235D-01-0.142D+00 0.452D-01 0.111D+01
 Coeff:     -0.362D-03 0.488D-03 0.639D-04 0.755D-03 0.157D-02 0.369D-02
 Coeff:      0.837D-02-0.235D-01-0.142D+00 0.452D-01 0.111D+01
 Gap=     0.254 Goal=   None    Shift=    0.000
 RMSDP=5.10D-06 MaxDP=2.26D-04 DE=-1.43D-07 OVMax= 1.88D-04

 Cycle  12  Pass 1  IDiag  1:
 RMSU=  1.57D-06    CP:  5.47D-01  2.65D+00  1.89D+00  8.75D-01  7.23D-01
                    CP:  9.83D-01  1.20D+00  1.24D+00  1.28D+00  1.42D+00
                    CP:  1.41D+00
 E= -3010.53703699252     Delta-E=       -0.000000033174 Rises=F Damp=F
 DIIS: error= 2.30D-06 at cycle  12 NSaved=  12.
 NSaved=12 IEnMin=12 EnMin= -3010.53703699252     IErMin=12 ErrMin= 2.30D-06
 ErrMax= 2.30D-06  0.00D+00 EMaxC= 1.00D-01 BMatC= 1.57D-09 BMatP= 5.63D-09
 IDIUse=1 WtCom= 1.00D+00 WtEn= 0.00D+00
 Coeff-Com: -0.200D-03 0.265D-03-0.107D-04 0.395D-03 0.444D-03 0.121D-02
 Coeff-Com:  0.115D-01-0.153D-02-0.107D+00-0.977D-01 0.468D+00 0.725D+00
 Coeff:     -0.200D-03 0.265D-03-0.107D-04 0.395D-03 0.444D-03 0.121D-02
 Coeff:      0.115D-01-0.153D-02-0.107D+00-0.977D-01 0.468D+00 0.725D+00
 Gap=     0.254 Goal=   None    Shift=    0.000
 RMSDP=1.43D-06 MaxDP=8.05D-05 DE=-3.32D-08 OVMax= 6.74D-05

 Cycle  13  Pass 1  IDiag  1:
 RMSU=  4.75D-07    CP:  5.47D-01  2.65D+00  1.89D+00  8.75D-01  7.22D-01
                    CP:  9.83D-01  1.21D+00  1.23D+00  1.28D+00  1.47D+00
                    CP:  1.56D+00  1.04D+00
 E= -3010.53703699779     Delta-E=       -0.000000005266 Rises=F Damp=F
 DIIS: error= 7.72D-07 at cycle  13 NSaved=  13.
 NSaved=13 IEnMin=13 EnMin= -3010.53703699779     IErMin=13 ErrMin= 7.72D-07
 ErrMax= 7.72D-07  0.00D+00 EMaxC= 1.00D-01 BMatC= 3.01D-10 BMatP= 1.57D-09
 IDIUse=1 WtCom= 1.00D+00 WtEn= 0.00D+00
 Coeff-Com: -0.148D-04 0.195D-04-0.232D-04-0.478D-04-0.240D-03-0.703D-03
 Coeff-Com: -0.107D-02 0.290D-02 0.151D-01-0.345D-02-0.176D+00 0.145D+00
 Coeff-Com:  0.102D+01
 Coeff:     -0.148D-04 0.195D-04-0.232D-04-0.478D-04-0.240D-03-0.703D-03
 Coeff:     -0.107D-02 0.290D-02 0.151D-01-0.345D-02-0.176D+00 0.145D+00
 Coeff:      0.102D+01
 Gap=     0.254 Goal=   None    Shift=    0.000
 RMSDP=8.03D-07 MaxDP=5.60D-05 DE=-5.27D-09 OVMax= 4.05D-05

 Cycle  14  Pass 1  IDiag  1:
 RMSU=  2.47D-07    CP:  5.47D-01  2.65D+00  1.89D+00  8.75D-01  7.22D-01
                    CP:  9.83D-01  1.21D+00  1.23D+00  1.27D+00  1.51D+00
                    CP:  1.61D+00  1.38D+00  1.38D+00
 E= -3010.53703699911     Delta-E=       -0.000000001321 Rises=F Damp=F
 DIIS: error= 3.91D-07 at cycle  14 NSaved=  14.
 NSaved=14 IEnMin=14 EnMin= -3010.53703699911     IErMin=14 ErrMin= 3.91D-07
 ErrMax= 3.91D-07  0.00D+00 EMaxC= 1.00D-01 BMatC= 5.16D-11 BMatP= 3.01D-10
 IDIUse=1 WtCom= 1.00D+00 WtEn= 0.00D+00
 Coeff-Com:  0.179D-04-0.237D-04-0.967D-05-0.775D-04-0.139D-03-0.411D-03
 Coeff-Com: -0.227D-02 0.142D-02 0.237D-01 0.180D-01-0.160D+00-0.634D-01
 Coeff-Com:  0.288D+00 0.895D+00
 Coeff:      0.179D-04-0.237D-04-0.967D-05-0.775D-04-0.139D-03-0.411D-03
 Coeff:     -0.227D-02 0.142D-02 0.237D-01 0.180D-01-0.160D+00-0.634D-01
 Coeff:      0.288D+00 0.895D+00
 Gap=     0.254 Goal=   None    Shift=    0.000
 RMSDP=4.23D-07 MaxDP=2.96D-05 DE=-1.32D-09 OVMax= 2.10D-05

 Cycle  15  Pass 1  IDiag  1:
 RMSU=  1.15D-07    CP:  5.47D-01  2.65D+00  1.89D+00  8.75D-01  7.22D-01
                    CP:  9.83D-01  1.21D+00  1.23D+00  1.27D+00  1.53D+00
                    CP:  1.63D+00  1.55D+00  1.65D+00  1.27D+00
 E= -3010.53703699943     Delta-E=       -0.000000000323 Rises=F Damp=F
 DIIS: error= 2.39D-07 at cycle  15 NSaved=  15.
 NSaved=15 IEnMin=15 EnMin= -3010.53703699943     IErMin=15 ErrMin= 2.39D-07
 ErrMax= 2.39D-07  0.00D+00 EMaxC= 1.00D-01 BMatC= 1.24D-11 BMatP= 5.16D-11
 IDIUse=1 WtCom= 1.00D+00 WtEn= 0.00D+00
 Coeff-Com:  0.152D-04-0.202D-04 0.438D-05-0.139D-04 0.237D-04 0.835D-04
 Coeff-Com: -0.260D-03-0.141D-03 0.217D-02 0.721D-02-0.332D-03-0.415D-01
 Coeff-Com: -0.204D+00 0.283D+00 0.954D+00
 Coeff:      0.152D-04-0.202D-04 0.438D-05-0.139D-04 0.237D-04 0.835D-04
 Coeff:     -0.260D-03-0.141D-03 0.217D-02 0.721D-02-0.332D-03-0.415D-01
 Coeff:     -0.204D+00 0.283D+00 0.954D+00
 Gap=     0.254 Goal=   None    Shift=    0.000
 RMSDP=2.18D-07 MaxDP=1.80D-05 DE=-3.23D-10 OVMax= 1.12D-05

 Cycle  16  Pass 1  IDiag  1:
 RMSU=  5.36D-08    CP:  5.47D-01  2.65D+00  1.89D+00  8.75D-01  7.22D-01
                    CP:  9.82D-01  1.21D+00  1.23D+00  1.27D+00  1.54D+00
                    CP:  1.62D+00  1.62D+00  1.79D+00  1.57D+00  1.51D+00
 E= -3010.53703699953     Delta-E=       -0.000000000091 Rises=F Damp=F
 DIIS: error= 5.89D-08 at cycle  16 NSaved=  16.
 NSaved=16 IEnMin=16 EnMin= -3010.53703699953     IErMin=16 ErrMin= 5.89D-08
 ErrMax= 5.89D-08  0.00D+00 EMaxC= 1.00D-01 BMatC= 1.95D-12 BMatP= 1.24D-11
 IDIUse=1 WtCom= 1.00D+00 WtEn= 0.00D+00
 Coeff-Com:  0.248D-05-0.334D-05 0.283D-05 0.755D-05 0.315D-04 0.963D-04
 Coeff-Com:  0.262D-03-0.410D-03-0.339D-02-0.168D-03 0.241D-01-0.173D-02
 Coeff-Com: -0.103D+00-0.878D-01 0.211D+00 0.961D+00
 Coeff:      0.248D-05-0.334D-05 0.283D-05 0.755D-05 0.315D-04 0.963D-04
 Coeff:      0.262D-03-0.410D-03-0.339D-02-0.168D-03 0.241D-01-0.173D-02
 Coeff:     -0.103D+00-0.878D-01 0.211D+00 0.961D+00
 Gap=     0.254 Goal=   None    Shift=    0.000
 RMSDP=1.15D-07 MaxDP=9.96D-06 DE=-9.14D-11 OVMax= 4.86D-06

 Cycle  17  Pass 1  IDiag  1:
 RMSU=  1.86D-08    CP:  5.47D-01  2.65D+00  1.89D+00  8.75D-01  7.22D-01
                    CP:  9.82D-01  1.21D+00  1.23D+00  1.27D+00  1.55D+00
                    CP:  1.62D+00  1.66D+00  1.84D+00  1.67D+00  1.86D+00
                    CP:  1.10D+00
 E= -3010.53703699952     Delta-E=        0.000000000002 Rises=F Damp=F
 DIIS: error= 4.57D-08 at cycle  17 NSaved=  17.
 NSaved=17 IEnMin=16 EnMin= -3010.53703699953     IErMin=17 ErrMin= 4.57D-08
 ErrMax= 4.57D-08  0.00D+00 EMaxC= 1.00D-01 BMatC= 2.98D-13 BMatP= 1.95D-12
 IDIUse=1 WtCom= 1.00D+00 WtEn= 0.00D+00
 Coeff-Com: -0.150D-05 0.199D-05 0.734D-07 0.392D-05 0.661D-05 0.182D-04
 Coeff-Com:  0.106D-03-0.793D-04-0.119D-02-0.781D-03 0.679D-02 0.523D-02
 Coeff-Com:  0.251D-02-0.657D-01-0.810D-01 0.299D+00 0.835D+00
 Coeff:     -0.150D-05 0.199D-05 0.734D-07 0.392D-05 0.661D-05 0.182D-04
 Coeff:      0.106D-03-0.793D-04-0.119D-02-0.781D-03 0.679D-02 0.523D-02
 Coeff:      0.251D-02-0.657D-01-0.810D-01 0.299D+00 0.835D+00
 Gap=     0.254 Goal=   None    Shift=    0.000
 RMSDP=2.69D-08 MaxDP=2.34D-06 DE= 1.82D-12 OVMax= 1.03D-06

 Cycle  18  Pass 1  IDiag  1:
 RMSU=  7.40D-09    CP:  5.47D-01  2.65D+00  1.89D+00  8.75D-01  7.22D-01
                    CP:  9.82D-01  1.21D+00  1.23D+00  1.27D+00  1.55D+00
                    CP:  1.62D+00  1.67D+00  1.85D+00  1.69D+00  1.95D+00
                    CP:  1.28D+00  1.11D+00
 E= -3010.53703699956     Delta-E=       -0.000000000037 Rises=F Damp=F
 DIIS: error= 1.01D-08 at cycle  18 NSaved=  18.
 NSaved=18 IEnMin=18 EnMin= -3010.53703699956     IErMin=18 ErrMin= 1.01D-08
 ErrMax= 1.01D-08  0.00D+00 EMaxC= 1.00D-01 BMatC= 5.76D-14 BMatP= 2.98D-13
 IDIUse=1 WtCom= 1.00D+00 WtEn= 0.00D+00
 Coeff-Com: -0.532D-07 0.679D-07-0.337D-06-0.113D-05-0.531D-05-0.155D-04
 Coeff-Com: -0.206D-04 0.694D-04 0.309D-03-0.300D-03-0.297D-02 0.145D-02
 Coeff-Com:  0.224D-01-0.231D-02-0.682D-01-0.106D+00 0.251D+00 0.905D+00
 Coeff:     -0.532D-07 0.679D-07-0.337D-06-0.113D-05-0.531D-05-0.155D-04
 Coeff:     -0.206D-04 0.694D-04 0.309D-03-0.300D-03-0.297D-02 0.145D-02
 Coeff:      0.224D-01-0.231D-02-0.682D-01-0.106D+00 0.251D+00 0.905D+00
 Gap=     0.254 Goal=   None    Shift=    0.000
 RMSDP=1.10D-08 MaxDP=5.10D-07 DE=-3.73D-11 OVMax= 4.79D-07

 Cycle  19  Pass 1  IDiag  1:
 RMSU=  2.06D-09    CP:  5.47D-01  2.65D+00  1.89D+00  8.75D-01  7.22D-01
                    CP:  9.82D-01  1.21D+00  1.23D+00  1.27D+00  1.55D+00
                    CP:  1.62D+00  1.67D+00  1.85D+00  1.69D+00  1.99D+00
                    CP:  1.30D+00  1.32D+00  1.25D+00
 E= -3010.53703699950     Delta-E=        0.000000000061 Rises=F Damp=F
 DIIS: error= 3.56D-09 at cycle  19 NSaved=  19.
 NSaved=19 IEnMin=18 EnMin= -3010.53703699956     IErMin=19 ErrMin= 3.56D-09
 ErrMax= 3.56D-09  0.00D+00 EMaxC= 1.00D-01 BMatC= 2.43D-15 BMatP= 5.76D-14
 IDIUse=1 WtCom= 1.00D+00 WtEn= 0.00D+00
 Large coefficients: NSaved= 19 BigCof=    0.00 CofMax=   10.00 Det=-1.14D-14
 Inversion failed.  Reducing to 18 matrices.
 Large coefficients: NSaved= 18 BigCof=    0.00 CofMax=   10.00 Det=-9.03D-15
 Inversion failed.  Reducing to 17 matrices.
 Coeff-Com: -0.527D-07-0.220D-06-0.462D-06-0.165D-05-0.853D-05 0.151D-05
 Coeff-Com:  0.102D-03 0.434D-04-0.579D-03-0.333D-03 0.174D-02 0.385D-02
 Coeff-Com: -0.775D-03-0.256D-01-0.313D-01 0.421D-01 0.101D+01
 Coeff:     -0.527D-07-0.220D-06-0.462D-06-0.165D-05-0.853D-05 0.151D-05
 Coeff:      0.102D-03 0.434D-04-0.579D-03-0.333D-03 0.174D-02 0.385D-02
 Coeff:     -0.775D-03-0.256D-01-0.313D-01 0.421D-01 0.101D+01
 Gap=     0.254 Goal=   None    Shift=    0.000
 RMSDP=2.47D-09 MaxDP=1.30D-07 DE= 6.09D-11 OVMax= 8.90D-08

 SCF Done:  E(RwB97XD) =  -3010.53703700     A.U. after   19 cycles
            NFock= 19  Conv=0.25D-08     -V/T= 2.0016
 KE= 3.005847430350D+03 PE=-8.631552259235D+03 EE= 1.876395215327D+03
 Leave Link  502 at Wed May  1 15:07:10 2024, MaxMem=  1207959552 cpu:            1097.1 elap:            1097.3
 (Enter /software/gaussian/g16-c01/sse4/g16/l601.exe)
 Copying SCF densities to generalized density rwf, IOpCl= 0 IROHF=0.

 **********************************************************************

            Population analysis using the SCF Density.

 **********************************************************************

 Alpha  occ. eigenvalues -- -483.30495 -62.85514 -56.65212 -56.64633 -56.64630
 Alpha  occ. eigenvalues --  -19.45540 -19.45533 -14.85073 -10.57581 -10.57326
 Alpha  occ. eigenvalues --  -10.56790 -10.56521 -10.56482 -10.52882  -9.01316
 Alpha  occ. eigenvalues --   -6.84008  -6.82112  -6.82097  -2.93909  -2.93406
 Alpha  occ. eigenvalues --   -2.93392  -2.91876  -2.91876  -1.49337  -1.32315
 Alpha  occ. eigenvalues --   -1.22240  -1.13570  -1.11455  -1.03748  -1.00721
 Alpha  occ. eigenvalues --   -0.95049  -0.90602  -0.84988  -0.80448  -0.80297
 Alpha  occ. eigenvalues --   -0.79662  -0.77881  -0.75779  -0.75586  -0.71852
 Alpha  occ. eigenvalues --   -0.69000  -0.67250  -0.63291  -0.59638  -0.56823
 Alpha  occ. eigenvalues --   -0.55879  -0.55536  -0.55280  -0.54544
 Alpha virt. eigenvalues --   -0.29187  -0.20952  -0.15168  -0.12916  -0.08900
 Alpha virt. eigenvalues --   -0.06248  -0.05811  -0.04520  -0.04391  -0.02672
 Alpha virt. eigenvalues --   -0.02259  -0.01879  -0.00797  -0.00399   0.00863
 Alpha virt. eigenvalues --    0.01462   0.02147   0.02524   0.03028   0.03470
 Alpha virt. eigenvalues --    0.04811   0.04979   0.05475   0.06029   0.06964
 Alpha virt. eigenvalues --    0.07260   0.07459   0.07752   0.09016   0.09531
 Alpha virt. eigenvalues --    0.10583   0.11200   0.11445   0.12028   0.12825
 Alpha virt. eigenvalues --    0.13073   0.13316   0.13929   0.15491   0.16084
 Alpha virt. eigenvalues --    0.16916   0.17033   0.17974   0.18415   0.19168
 Alpha virt. eigenvalues --    0.20001   0.21317   0.21647   0.22203   0.24658
 Alpha virt. eigenvalues --    0.25490   0.27970   0.28395   0.30209   0.32404
 Alpha virt. eigenvalues --    0.33330   0.33904   0.34608   0.35233   0.36364
 Alpha virt. eigenvalues --    0.37445   0.37913   0.39514   0.41076   0.42112
 Alpha virt. eigenvalues --    0.42927   0.43841   0.44540   0.46616   0.47568
 Alpha virt. eigenvalues --    0.47962   0.50631   0.51168   0.52560   0.53666
 Alpha virt. eigenvalues --    0.54704   0.55567   0.57137   0.57492   0.59176
 Alpha virt. eigenvalues --    0.61474   0.62756   0.64716   0.67246   0.68976
 Alpha virt. eigenvalues --    0.70537   0.72256   0.72409   0.73560   0.74139
 Alpha virt. eigenvalues --    0.74941   0.79414   0.80278   0.83648   0.85442
 Alpha virt. eigenvalues --    0.86713   0.88179   0.92132   0.93379   0.98838
 Alpha virt. eigenvalues --    0.99861   1.01215   1.05016   1.05569   1.06857
 Alpha virt. eigenvalues --    1.09502   1.11136   1.12202   1.12706   1.14533
 Alpha virt. eigenvalues --    1.22267   1.24773   1.27004   1.33163   1.36751
 Alpha virt. eigenvalues --    1.37114   1.38450   1.45511   1.54645   1.57359
 Alpha virt. eigenvalues --    1.58739   1.59096   1.60843   1.62717   1.66616
 Alpha virt. eigenvalues --    1.69404   1.70053   1.73738   1.75537   1.79263
 Alpha virt. eigenvalues --    1.81425   1.85607   1.87582   1.94119   1.96225
 Alpha virt. eigenvalues --    1.98251   2.03177   2.04105   2.07350   2.08428
 Alpha virt. eigenvalues --    2.10100   2.14987   2.20528   2.22835   2.29184
 Alpha virt. eigenvalues --    2.37845   2.41486   2.42931   2.43874   2.52691
 Alpha virt. eigenvalues --    2.56897   2.63241   2.66321   2.68452   2.71917
 Alpha virt. eigenvalues --    2.73729   2.76784   2.77571   2.81278   2.82080
 Alpha virt. eigenvalues --    2.93855   2.96700   3.00926   3.06056   3.09205
 Alpha virt. eigenvalues --    3.13208   3.14985   3.19151   3.23857   3.24599
 Alpha virt. eigenvalues --    3.27618   3.39370   3.47689   3.51460   3.54794
 Alpha virt. eigenvalues --    3.57147   3.70215   3.74381   3.82399   3.87445
 Alpha virt. eigenvalues --    4.09682   4.09909   4.17352   4.22590   4.43395
 Alpha virt. eigenvalues --    4.44616   4.57728   4.60152   4.93455   4.96135
 Alpha virt. eigenvalues --    5.04775   5.08946   5.63099   6.16035   6.65382
 Alpha virt. eigenvalues --    7.48356   7.49933   7.59684  23.21555  23.61536
 Alpha virt. eigenvalues --   23.70159  23.79628  23.96198  24.01643  35.32885
 Alpha virt. eigenvalues --   47.91925  49.85851  49.94660 289.81247 289.82914
 Alpha virt. eigenvalues --  289.953501020.92336
          Condensed to atoms (all electrons):
               1          2          3          4          5          6
     1  C    9.024522  -2.532394   0.295145  -1.680707  -0.599023   0.307906
     2  C   -2.532394  13.162456  -1.904659  -2.381344   0.700766  -0.014977
     3  C    0.295145  -1.904659  13.329965  -3.414695  -1.331967   0.022812
     4  C   -1.680707  -2.381344  -3.414695  14.876179   1.397921   0.011692
     5  C   -0.599023   0.700766  -1.331967   1.397921   7.418703   0.018820
     6  H    0.307906  -0.014977   0.022812   0.011692   0.018820   0.351303
     7  H    0.074419   0.221358   0.087593  -0.036601  -0.021733  -0.002058
     8  H    0.002900  -0.006345   0.064467   0.259094  -0.017393   0.000001
     9  H    0.025843  -0.010880   0.002567  -0.002735   0.309349  -0.002414
    10  N   -0.166546   0.366691  -0.934262   0.330264   0.017793  -0.000655
    11  O    0.008151  -0.063252  -0.265159   0.002358  -0.054210  -0.000022
    12  O    0.339805  -0.056846  -0.278984  -0.089690  -0.044687   0.000019
    13  C    1.447012  -2.006042   0.988062  -3.535855  -1.833394  -0.009807
    14  H   -0.008891  -0.008684   0.009292  -0.088495  -0.024859  -0.000061
    15  Br   0.046066  -0.003017   0.067527   0.052031   0.072802  -0.000398
               7          8          9         10         11         12
     1  C    0.074419   0.002900   0.025843  -0.166546   0.008151   0.339805
     2  C    0.221358  -0.006345  -0.010880   0.366691  -0.063252  -0.056846
     3  C    0.087593   0.064467   0.002567  -0.934262  -0.265159  -0.278984
     4  C   -0.036601   0.259094  -0.002735   0.330264   0.002358  -0.089690
     5  C   -0.021733  -0.017393   0.309349   0.017793  -0.054210  -0.044687
     6  H   -0.002058   0.000001  -0.002414  -0.000655  -0.000022   0.000019
     7  H    0.313722  -0.000003   0.000006  -0.027475  -0.001613   0.023586
     8  H   -0.000003   0.284491   0.000108  -0.022467   0.021600  -0.000777
     9  H    0.000006   0.000108   0.329054   0.000409   0.000006   0.000006
    10  N   -0.027475  -0.022467   0.000409   7.352373   0.204303   0.138878
    11  O   -0.001613   0.021600   0.000006   0.204303   7.802787   0.000578
    12  O    0.023586  -0.000777   0.000006   0.138878   0.000578   7.913183
    13  C    0.016735   0.029814   0.004697  -0.155468   0.293863   0.046772
    14  H   -0.000017  -0.003787  -0.005617  -0.000190  -0.000295  -0.000067
    15  Br  -0.000106   0.002113  -0.000137   0.002498   0.000459   0.002004
              13         14         15
     1  C    1.447012  -0.008891   0.046066
     2  C   -2.006042  -0.008684  -0.003017
     3  C    0.988062   0.009292   0.067527
     4  C   -3.535855  -0.088495   0.052031
     5  C   -1.833394  -0.024859   0.072802
     6  H   -0.009807  -0.000061  -0.000398
     7  H    0.016735  -0.000017  -0.000106
     8  H    0.029814  -0.003787   0.002113
     9  H    0.004697  -0.005617  -0.000137
    10  N   -0.155468  -0.000190   0.002498
    11  O    0.293863  -0.000295   0.000459
    12  O    0.046772  -0.000067   0.002004
    13  C   10.828094   0.423670  -0.060234
    14  H    0.423670   0.332203  -0.037841
    15  Br  -0.060234  -0.037841  34.655372
 Mulliken charges:
               1
     1  C   -0.584208
     2  C    0.537170
     3  C   -0.737704
     4  C    0.300582
     5  C   -0.008890
     6  H    0.317840
     7  H    0.352187
     8  H    0.386185
     9  H    0.349737
    10  N   -0.106146
    11  O    0.050446
    12  O    0.006219
    13  C   -0.477918
    14  H    0.413639
    15  Br   0.200861
 Sum of Mulliken charges =   1.00000
 Mulliken charges with hydrogens summed into heavy atoms:
               1
     1  C   -0.266368
     2  C    0.889357
     3  C   -0.737704
     4  C    0.686768
     5  C    0.340847
    10  N   -0.106146
    11  O    0.050446
    12  O    0.006219
    13  C   -0.064279
    15  Br   0.200861
 Electronic spatial extent (au):  <R**2>=           2797.9471
 Charge=              1.0000 electrons
 Dipole moment (field-independent basis, Debye):
    X=             -0.9552    Y=             -1.6798    Z=             -0.1644  Tot=              1.9394
 Quadrupole moment (field-independent basis, Debye-Ang):
   XX=            -71.4523   YY=            -51.5234   ZZ=            -62.3055
   XY=              0.0806   XZ=              1.2342   YZ=              2.1621
 Traceless Quadrupole moment (field-independent basis, Debye-Ang):
   XX=             -9.6919   YY=             10.2370   ZZ=             -0.5451
   XY=              0.0806   XZ=              1.2342   YZ=              2.1621
 Octapole moment (field-independent basis, Debye-Ang**2):
  XXX=           -300.7109  YYY=             81.0693  ZZZ=             76.3626  XYY=            -76.9090
  XXY=             24.1926  XXZ=             32.0806  XZZ=            -78.4892  YZZ=             14.4275
  YYZ=             23.8561  XYZ=             -3.6285
 Hexadecapole moment (field-independent basis, Debye-Ang**3):
 XXXX=          -2283.7159 YYYY=           -670.9782 ZZZZ=           -344.9598 XXXY=            -88.6550
 XXXZ=            -21.0858 YYYX=            -63.3838 YYYZ=           -150.7740 ZZZX=            -17.4880
 ZZZY=           -132.3951 XXYY=           -456.5127 XXZZ=           -370.0603 YYZZ=           -159.8144
 XXYZ=            -53.6206 YYXZ=             -1.0788 ZZXY=             -8.5909
 N-N= 7.387725765588D+02 E-N=-8.631552258646D+03  KE= 3.005847430350D+03
 No NMR shielding tensors so no spin-rotation constants.
 Leave Link  601 at Wed May  1 15:07:18 2024, MaxMem=  1207959552 cpu:               7.3 elap:               7.4
 (Enter /software/gaussian/g16-c01/sse4/g16/l9999.exe)
 Unable to Open any file for archive entry.
 1\1\GINC-BHX0029\SP\RwB97XD\6-311+G(d)\C6H5Br1N1O2(1+)\BWEIGHT\01-May-
 2024\0\\#P wB97XD/6-311+G* NoSymm #P Field=Y+38\\TitleMe\\1,1\C,0,0.02
 95,1.3397,0.0682\C,0,1.4348,1.2867,0.0064\C,0,2.1118,0.0511,-0.0054\C,
 0,1.4451,-1.1372,0.0312\C,0,-0.6879,0.1682,0.11\H,0,-0.4713,2.2984,0.0
 781\H,0,2.0273,2.1965,-0.0322\H,0,1.9897,-2.0764,0.0232\H,0,-1.7716,0.
 1804,0.1582\N,0,3.5864,0.051,-0.0675\O,0,4.1471,-1.0597,-0.0881\O,0,4.
 145,1.1639,-0.0901\C,0,-0.0236,-1.1458,0.0835\H,0,-0.4367,-1.8725,0.78
 89\Br,0,-0.5359,-1.8697,-1.7408\\Version=ES64L-G16RevC.01\HF=-3010.537
 037\RMSD=2.473e-09\Dipole=-2.2823303,0.4871785,1.0814923\Quadrupole=-7
 .2057038,7.610985,-0.4052813,0.0599295,0.9175846,1.6074731\PG=C01 [X(C
 6H5Br1N1O2)]\\@
 The archive entry for this job was punched.


 The chemist is a guest at the physicist's table and
 frequently dines well.
                   -- Richard Bersohn
 Job cpu time:       0 days  0 hours 19 minutes 25.2 seconds.
 Elapsed time:       0 days  0 hours 19 minutes 25.3 seconds.
 File lengths (MBytes):  RWF=     40 Int=      0 D2E=      0 Chk=     32 Scr=      1
 Normal termination of Gaussian 16 at Wed May  1 15:07:18 2024.
