 Entering Gaussian System, Link 0=g16
 Initial command:
 /software/gaussian/g16-c01/sse4/g16/l1.exe "/local_scratch/24657537/Gau-8838.inp" -scrdir="/local_scratch/24657537/"
 Entering Link 1 = /software/gaussian/g16-c01/sse4/g16/l1.exe PID=      8849.
  
 Copyright (c) 1988-2019, Gaussian, Inc.  All Rights Reserved.
  
 This is part of the Gaussian(R) 16 program.  It is based on
 the Gaussian(R) 09 system (copyright 2009, Gaussian, Inc.),
 the Gaussian(R) 03 system (copyright 2003, Gaussian, Inc.),
 the Gaussian(R) 98 system (copyright 1998, Gaussian, Inc.),
 the Gaussian(R) 94 system (copyright 1995, Gaussian, Inc.),
 the Gaussian 92(TM) system (copyright 1992, Gaussian, Inc.),
 the Gaussian 90(TM) system (copyright 1990, Gaussian, Inc.),
 the Gaussian 88(TM) system (copyright 1988, Gaussian, Inc.),
 the Gaussian 86(TM) system (copyright 1986, Carnegie Mellon
 University), and the Gaussian 82(TM) system (copyright 1983,
 Carnegie Mellon University). Gaussian is a federally registered
 trademark of Gaussian, Inc.
  
 This software contains proprietary and confidential information,
 including trade secrets, belonging to Gaussian, Inc.
  
 This software is provided under written license and may be
 used, copied, transmitted, or stored only in accord with that
 written license.
  
 The following legend is applicable only to US Government
 contracts under FAR:
  
                    RESTRICTED RIGHTS LEGEND
  
 Use, reproduction and disclosure by the US Government is
 subject to restrictions as set forth in subparagraphs (a)
 and (c) of the Commercial Computer Software - Restricted
 Rights clause in FAR 52.227-19.
  
 Gaussian, Inc.
 340 Quinnipiac St., Bldg. 40, Wallingford CT 06492
  
  
 ---------------------------------------------------------------
 Warning -- This program may not be used in any manner that
 competes with the business of Gaussian, Inc. or will provide
 assistance to any competitor of Gaussian, Inc.  The licensee
 of this program is prohibited from giving any competitor of
 Gaussian, Inc. access to this program.  By using this program,
 the user acknowledges that Gaussian, Inc. is engaged in the
 business of creating and licensing software in the field of
 computational chemistry and represents and warrants to the
 licensee that it is not a competitor of Gaussian, Inc. and that
 it will not use this program in any manner prohibited above.
 ---------------------------------------------------------------
  

 Cite this work as:
 Gaussian 16, Revision C.01,
 M. J. Frisch, G. W. Trucks, H. B. Schlegel, G. E. Scuseria, 
 M. A. Robb, J. R. Cheeseman, G. Scalmani, V. Barone, 
 G. A. Petersson, H. Nakatsuji, X. Li, M. Caricato, A. V. Marenich, 
 J. Bloino, B. G. Janesko, R. Gomperts, B. Mennucci, H. P. Hratchian, 
 J. V. Ortiz, A. F. Izmaylov, J. L. Sonnenberg, D. Williams-Young, 
 F. Ding, F. Lipparini, F. Egidi, J. Goings, B. Peng, A. Petrone, 
 T. Henderson, D. Ranasinghe, V. G. Zakrzewski, J. Gao, N. Rega, 
 G. Zheng, W. Liang, M. Hada, M. Ehara, K. Toyota, R. Fukuda, 
 J. Hasegawa, M. Ishida, T. Nakajima, Y. Honda, O. Kitao, H. Nakai, 
 T. Vreven, K. Throssell, J. A. Montgomery, Jr., J. E. Peralta, 
 F. Ogliaro, M. J. Bearpark, J. J. Heyd, E. N. Brothers, K. N. Kudin, 
 V. N. Staroverov, T. A. Keith, R. Kobayashi, J. Normand, 
 K. Raghavachari, A. P. Rendell, J. C. Burant, S. S. Iyengar, 
 J. Tomasi, M. Cossi, J. M. Millam, M. Klene, C. Adamo, R. Cammi, 
 J. W. Ochterski, R. L. Martin, K. Morokuma, O. Farkas, 
 J. B. Foresman, and D. J. Fox, Gaussian, Inc., Wallingford CT, 2019.
 
 ******************************************
 Gaussian 16:  ES64L-G16RevC.01  3-Jul-2019
                 1-May-2024 
 ******************************************
 %chk=geometry.chk
 %mem=9GB
 %nprocshared=12
 Will use up to   12 processors via shared memory.
 ----------------------------------------
 #P wB97XD/6-311+G* NoSymm #P Field=Z-233
 ----------------------------------------
 1/38=1,172=1/1;
 2/12=2,15=1,17=6,18=5,40=1/2;
 3/5=4,6=6,7=11,11=2,14=3,15=-233,25=1,30=1,74=-58/1,2,3;
 4//1;
 5/5=2,38=5/2;
 6/7=2,8=2,9=2,10=2,28=1/1;
 99/5=1,9=1/99;
 Leave Link    1 at Wed May  1 14:56:59 2024, MaxMem=  1207959552 cpu:               1.3 elap:               1.3
 (Enter /software/gaussian/g16-c01/sse4/g16/l101.exe)
 -------
 TitleMe
 -------
 Symbolic Z-matrix:
 Charge =  1 Multiplicity = 1
 C                     0.0295    1.3397    0.0682 
 C                     1.4348    1.2867    0.0064 
 C                     2.1118    0.0511   -0.0054 
 C                     1.4451   -1.1372    0.0312 
 C                    -0.6879    0.1682    0.11 
 H                    -0.4713    2.2984    0.0781 
 H                     2.0273    2.1965   -0.0322 
 H                     1.9897   -2.0764    0.0232 
 H                    -1.7716    0.1804    0.1582 
 N                     3.5864    0.051    -0.0675 
 O                     4.1471   -1.0597   -0.0881 
 O                     4.145     1.1639   -0.0901 
 C                    -0.0236   -1.1458    0.0835 
 H                    -0.4367   -1.8725    0.7889 
 Br                   -0.5359   -1.8697   -1.7408 
 
 ITRead=  0  0  0  0  0  0  0  0  0  0  0  0  0  0  0
 MicOpt= -1 -1 -1 -1 -1 -1 -1 -1 -1 -1 -1 -1 -1 -1 -1
 NAtoms=     15 NQM=       15 NQMF=       0 NMMI=      0 NMMIF=      0
                NMic=       0 NMicF=      0.
                    Isotopes and Nuclear Properties:
 (Nuclear quadrupole moments (NQMom) in fm**2, nuclear magnetic moments (NMagM)
  in nuclear magnetons)

  Atom         1           2           3           4           5           6           7           8           9          10
 IAtWgt=          12          12          12          12          12           1           1           1           1          14
 AtmWgt=  12.0000000  12.0000000  12.0000000  12.0000000  12.0000000   1.0078250   1.0078250   1.0078250   1.0078250  14.0030740
 NucSpn=           0           0           0           0           0           1           1           1           1           2
 AtZEff=  -0.0000000  -0.0000000  -0.0000000  -0.0000000  -0.0000000  -0.0000000  -0.0000000  -0.0000000  -0.0000000  -0.0000000
 NQMom=    0.0000000   0.0000000   0.0000000   0.0000000   0.0000000   0.0000000   0.0000000   0.0000000   0.0000000   2.0440000
 NMagM=    0.0000000   0.0000000   0.0000000   0.0000000   0.0000000   2.7928460   2.7928460   2.7928460   2.7928460   0.4037610
 AtZNuc=   6.0000000   6.0000000   6.0000000   6.0000000   6.0000000   1.0000000   1.0000000   1.0000000   1.0000000   7.0000000

  Atom        11          12          13          14          15
 IAtWgt=          16          16          12           1          79
 AtmWgt=  15.9949146  15.9949146  12.0000000   1.0078250  78.9183361
 NucSpn=           0           0           0           1           3
 AtZEff=  -0.0000000  -0.0000000  -0.0000000  -0.0000000  -0.0000000
 NQMom=    0.0000000   0.0000000   0.0000000   0.0000000  31.3000000
 NMagM=    0.0000000   0.0000000   0.0000000   2.7928460   2.1063990
 AtZNuc=   8.0000000   8.0000000   6.0000000   1.0000000  35.0000000
 Leave Link  101 at Wed May  1 14:57:00 2024, MaxMem=  1207959552 cpu:               1.4 elap:               1.5
 (Enter /software/gaussian/g16-c01/sse4/g16/l202.exe)
                          Input orientation:                          
 ---------------------------------------------------------------------
 Center     Atomic      Atomic             Coordinates (Angstroms)
 Number     Number       Type             X           Y           Z
 ---------------------------------------------------------------------
      1          6           0        0.029500    1.339700    0.068200
      2          6           0        1.434800    1.286700    0.006400
      3          6           0        2.111800    0.051100   -0.005400
      4          6           0        1.445100   -1.137200    0.031200
      5          6           0       -0.687900    0.168200    0.110000
      6          1           0       -0.471300    2.298400    0.078100
      7          1           0        2.027300    2.196500   -0.032200
      8          1           0        1.989700   -2.076400    0.023200
      9          1           0       -1.771600    0.180400    0.158200
     10          7           0        3.586400    0.051000   -0.067500
     11          8           0        4.147100   -1.059700   -0.088100
     12          8           0        4.145000    1.163900   -0.090100
     13          6           0       -0.023600   -1.145800    0.083500
     14          1           0       -0.436700   -1.872500    0.788900
     15         35           0       -0.535900   -1.869700   -1.740800
 ---------------------------------------------------------------------
                    Distance matrix (angstroms):
                    1          2          3          4          5
     1  C    0.000000
     2  C    1.407656   0.000000
     3  C    2.449874   1.408963   0.000000
     4  C    2.853126   2.424049   1.363043   0.000000
     5  C    1.374344   2.401589   2.804523   2.501993   0.000000
     6  H    1.081667   2.159142   3.424870   3.934226   2.141421
     7  H    2.176095   1.086408   2.147231   3.384750   3.392128
     8  H    3.938800   3.408612   2.131193   1.085702   3.495040
     9  H    2.143837   3.395283   3.888995   3.478413   1.084840
    10  N    3.785591   2.482297   1.475907   2.450862   4.279589
    11  O    4.768247   3.587631   2.320164   2.705743   4.992415
    12  O    4.122294   2.714696   2.319353   3.549540   4.938459
    13  C    2.486114   2.837240   2.449573   1.469656   1.472614
    14  H    3.324903   3.754379   3.290289   2.157764   2.165286
    15  Br   3.727252   4.110867   3.702891   2.756973   2.757100
                    6          7          8          9         10
     6  H    0.000000
     7  H    2.503108   0.000000
     8  H    5.019802   4.273425   0.000000
     9  H    2.486588   4.304945   4.388479   0.000000
    10  N    4.640790   2.652397   2.661486   5.364313   0.000000
    11  O    5.712624   3.885809   2.387560   6.052233   1.244373
    12  O    4.756638   2.356750   3.893289   6.002923   1.245428
    13  C    3.473180   3.923079   2.218790   2.195425   3.806210
    14  H    4.231175   4.827242   2.552506   2.528663   4.540772
    15  Br   4.548146   5.101303   3.087568   3.055498   4.845862
                   11         12         13         14         15
    11  O    0.000000
    12  O    2.223602   0.000000
    13  C    4.175117   4.768865   0.000000
    14  H    4.737193   5.566358   1.093770   0.000000
    15  Br   5.031700   5.817075   2.028436   2.531646   0.000000
 Symmetry turned off by external request.
 Stoichiometry    C6H5BrNO2(1+)
 Framework group  C1[X(C6H5BrNO2)]
 Deg. of freedom    39
 Full point group                 C1      NOp   1
 Rotational constants (GHZ):           1.8252210           0.5518633           0.4576002
 Leave Link  202 at Wed May  1 14:57:01 2024, MaxMem=  1207959552 cpu:               1.3 elap:               1.3
 (Enter /software/gaussian/g16-c01/sse4/g16/l301.exe)
 Standard basis: 6-311+G(d) (5D, 7F)
 Ernie: Thresh=  0.10000D-02 Tol=  0.10000D-05 Strict=F.
 The following finite field(s) will be applied:
 An electric field of              0.0000  0.0000 -0.0233
   261 basis functions,   443 primitive gaussians,   273 cartesian basis functions
    49 alpha electrons       49 beta electrons
       nuclear repulsion energy       739.2122215416 Hartrees.
 IExCor= 4639 DFT=T Ex+Corr=wB97XD ExCW=0 ScaHFX=  1.000000
 ScaDFX=  1.000000  1.000000  1.000000  1.000000 ScalE2=  1.000000  1.000000
 IRadAn=      5 IRanWt=     -1 IRanGd=            0 ICorTp=0 IEmpDi=121
 HFx  wShort=  0.000000 wLong=  0.200000 cFull=  0.222036 cShort=  0.000000 cLong=  0.777964
 DFx  wShort=  0.000000 wLong=  0.200000 cFull=  0.000000 cShort=  0.000000 cLong=  1.000000
 NAtoms=   15 NActive=   15 NUniq=   15 SFac= 1.00D+00 NAtFMM=   60 NAOKFM=F Big=F
 Integral buffers will be    131072 words long.
 Raffenetti 2 integral format.
 Two-electron integral symmetry is turned off.
 R6Disp:  Grimme-D2 Dispersion energy=       -0.0077368520 Hartrees.
 Nuclear repulsion after empirical dispersion term =      739.2044846896 Hartrees.
 Leave Link  301 at Wed May  1 14:57:02 2024, MaxMem=  1207959552 cpu:               1.1 elap:               1.1
 (Enter /software/gaussian/g16-c01/sse4/g16/l302.exe)
 NPDir=0 NMtPBC=     1 NCelOv=     1 NCel=       1 NClECP=     1 NCelD=      1
         NCelK=      1 NCelE2=     1 NClLst=     1 CellRange=     0.0.
 One-electron integrals computed using PRISM.
 NBasis=   261 RedAO= T EigKep=  2.35D-06  NBF=   261
 NBsUse=   261 1.00D-06 EigRej= -1.00D+00 NBFU=   261
 Precomputing XC quadrature grid using
 IXCGrd= 4 IRadAn=           5 IRanWt=          -1 IRanGd=           0 AccXCQ= 0.00D+00.
 Generated NRdTot=       0 NPtTot=           0 NUsed=           0 NTot=          32
 NSgBfM=   273   273   273   273   273 MxSgAt=    15 MxSgA2=    15.
 Leave Link  302 at Wed May  1 14:57:24 2024, MaxMem=  1207959552 cpu:              21.8 elap:              21.8
 (Enter /software/gaussian/g16-c01/sse4/g16/l303.exe)
 DipDrv:  MaxL=1.
 The nuclear repulsion energy is now       741.8483692355 hartrees.
 Leave Link  303 at Wed May  1 14:57:28 2024, MaxMem=  1207959552 cpu:               3.4 elap:               3.4
 (Enter /software/gaussian/g16-c01/sse4/g16/l401.exe)
 ExpMin= 3.50D-02 ExpMax= 4.40D+05 ExpMxC= 1.51D+04 IAcc=3 IRadAn=         5 AccDes= 0.00D+00
 Harris functional with IExCor= 4639 and IRadAn=       5 diagonalized for initial guess.
 HarFok:  IExCor= 4639 AccDes= 0.00D+00 IRadAn=         5 IDoV= 1 UseB2=F ITyADJ=14
 ICtDFT=  3500011 ScaDFX=  1.000000  1.000000  1.000000  1.000000
 FoFCou: FMM=F IPFlag=           0 FMFlag=      100000 FMFlg1=           0
         NFxFlg=           0 DoJE=T BraDBF=F KetDBF=T FulRan=T
         wScrn=  0.000000 ICntrl=       500 IOpCl=  0 I1Cent=   200000004 NGrid=           0
         NMat0=    1 NMatS0=      1 NMatT0=    0 NMatD0=    1 NMtDS0=    0 NMtDT0=    0
 Symmetry not used in FoFCou.
 Harris En= -2970.67852599223    
 JPrj=0 DoOrth=F DoCkMO=F.
 Leave Link  401 at Wed May  1 14:57:59 2024, MaxMem=  1207959552 cpu:              31.0 elap:              31.0
 (Enter /software/gaussian/g16-c01/sse4/g16/l502.exe)
 Two-electron integral symmetry not used.
 Closed shell SCF:
 Using DIIS extrapolation, IDIIS=  1040.
 NGot=  1207959552 LenX=  1207804877 LenY=  1207729907
 Requested convergence on RMS density matrix=1.00D-08 within 128 cycles.
 Requested convergence on MAX density matrix=1.00D-06.
 Requested convergence on             energy=1.00D-06.
 No special actions if energy rises.
 Fock matrices will be formed incrementally for  20 cycles.

 Cycle   1  Pass 1  IDiag  1:
 FoFJK:  IHMeth= 1 ICntrl=       0 DoSepK=T KAlg= 0 I1Cent=           0 FoldK=F
 IRaf=         1 NMat=       1 IRICut=       1 DoRegI=T DoRafI=F ISym2E= 0 IDoP0=0 IntGTp=1.
 FoFCou: FMM=F IPFlag=           0 FMFlag=      100000 FMFlg1=           0
         NFxFlg=           0 DoJE=T BraDBF=F KetDBF=F FulRan=T
         wScrn=  0.000000 ICntrl=       500 IOpCl=  0 I1Cent=           0 NGrid=           0
         NMat0=    1 NMatS0=      1 NMatT0=    0 NMatD0=    1 NMtDS0=    0 NMtDT0=    0
 Symmetry not used in FoFCou.
 E= -3008.24098066850    
 DIIS: error= 3.22D-01 at cycle   1 NSaved=   1.
 NSaved= 1 IEnMin= 1 EnMin= -3008.24098066850     IErMin= 1 ErrMin= 3.22D-01
 ErrMax= 3.22D-01  0.00D+00 EMaxC= 1.00D-01 BMatC= 1.24D+01 BMatP= 1.24D+01
 IDIUse=3 WtCom= 0.00D+00 WtEn= 1.00D+00
 Coeff-Com:  0.100D+01
 Coeff-En:   0.100D+01
 Coeff:      0.100D+01
 Gap=    -0.752 Goal=   None    Shift=    0.000
 GapD=   -0.752 DampG=0.250 DampE=0.250 DampFc=0.2500 IDamp=-1.
 Damping current iteration by 2.50D-01
 RMSDP=4.49D-01 MaxDP=3.42D+01              OVMax= 9.43D-01

 Cycle   2  Pass 1  IDiag  1:
 RMSU=  2.08D-02    CP:  7.67D-01
 E= -3008.43492588873     Delta-E=       -0.193945220235 Rises=F Damp=T
 DIIS: error= 2.26D-01 at cycle   2 NSaved=   2.
 NSaved= 2 IEnMin= 2 EnMin= -3008.43492588873     IErMin= 2 ErrMin= 2.26D-01
 ErrMax= 2.26D-01  0.00D+00 EMaxC= 1.00D-01 BMatC= 5.69D+00 BMatP= 1.24D+01
 IDIUse=3 WtCom= 0.00D+00 WtEn= 1.00D+00
 Coeff-Com: -0.115D+01 0.215D+01
 Coeff-En:   0.426D+00 0.574D+00
 Coeff:      0.426D+00 0.574D+00
 Gap=     0.028 Goal=   None    Shift=    0.000
 RMSDP=3.40D-01 MaxDP=2.78D+01 DE=-1.94D-01 OVMax= 9.88D-01

 Cycle   3  Pass 1  IDiag  1:
 RMSU=  2.23D-02    CP:  5.24D-02  2.53D+00
 E= -3010.00086601157     Delta-E=       -1.565940122838 Rises=F Damp=F
 DIIS: error= 9.36D-02 at cycle   3 NSaved=   3.
 NSaved= 3 IEnMin= 3 EnMin= -3010.00086601157     IErMin= 3 ErrMin= 9.36D-02
 ErrMax= 9.36D-02  0.00D+00 EMaxC= 1.00D-01 BMatC= 1.80D+00 BMatP= 5.69D+00
 IDIUse=3 WtCom= 6.35D-02 WtEn= 9.36D-01
 Coeff-Com:  0.190D+00 0.687D-01 0.741D+00
 Coeff-En:   0.127D+00 0.000D+00 0.873D+00
 Coeff:      0.131D+00 0.436D-02 0.864D+00
 Gap=     0.420 Goal=   None    Shift=    0.000
 RMSDP=2.17D-02 MaxDP=1.18D+00 DE=-1.57D+00 OVMax= 2.18D-01

 Cycle   4  Pass 1  IDiag  1:
 RMSU=  1.97D-02    CP:  5.16D-02  2.63D+00  1.41D+00
 E= -3010.30647391323     Delta-E=       -0.305607901653 Rises=F Damp=F
 DIIS: error= 6.01D-02 at cycle   4 NSaved=   4.
 NSaved= 4 IEnMin= 4 EnMin= -3010.30647391323     IErMin= 4 ErrMin= 6.01D-02
 ErrMax= 6.01D-02  0.00D+00 EMaxC= 1.00D-01 BMatC= 7.80D-01 BMatP= 1.80D+00
 IDIUse=3 WtCom= 3.99D-01 WtEn= 6.01D-01
 Coeff-Com:  0.103D+00-0.105D+00 0.437D+00 0.565D+00
 Coeff-En:   0.000D+00 0.000D+00 0.277D+00 0.723D+00
 Coeff:      0.411D-01-0.419D-01 0.341D+00 0.660D+00
 Gap=     0.275 Goal=   None    Shift=    0.000
 RMSDP=1.73D-02 MaxDP=1.63D+00 DE=-3.06D-01 OVMax= 1.18D-01

 Cycle   5  Pass 1  IDiag  1:
 RMSU=  6.44D-03    CP:  4.18D-02  2.19D+00  1.11D+00  4.73D-01
 E= -3010.51026274989     Delta-E=       -0.203788836663 Rises=F Damp=F
 DIIS: error= 2.15D-02 at cycle   5 NSaved=   5.
 NSaved= 5 IEnMin= 5 EnMin= -3010.51026274989     IErMin= 5 ErrMin= 2.15D-02
 ErrMax= 2.15D-02  0.00D+00 EMaxC= 1.00D-01 BMatC= 7.05D-02 BMatP= 7.80D-01
 IDIUse=3 WtCom= 7.85D-01 WtEn= 2.15D-01
 Coeff-Com:  0.276D-01-0.317D-01 0.189D+00 0.364D+00 0.450D+00
 Coeff-En:   0.000D+00 0.000D+00 0.000D+00 0.988D-01 0.901D+00
 Coeff:      0.217D-01-0.249D-01 0.149D+00 0.307D+00 0.547D+00
 Gap=     0.268 Goal=   None    Shift=    0.000
 RMSDP=5.43D-03 MaxDP=3.09D-01 DE=-2.04D-01 OVMax= 6.58D-02

 Cycle   6  Pass 1  IDiag  1:
 RMSU=  2.65D-03    CP:  4.30D-02  2.25D+00  1.21D+00  6.36D-01  6.49D-01
 E= -3010.54789208585     Delta-E=       -0.037629335957 Rises=F Damp=F
 DIIS: error= 8.08D-03 at cycle   6 NSaved=   6.
 NSaved= 6 IEnMin= 6 EnMin= -3010.54789208585     IErMin= 6 ErrMin= 8.08D-03
 ErrMax= 8.08D-03  0.00D+00 EMaxC= 1.00D-01 BMatC= 8.09D-03 BMatP= 7.05D-02
 IDIUse=3 WtCom= 9.19D-01 WtEn= 8.08D-02
 Coeff-Com:  0.233D-02-0.338D-02 0.266D-02 0.494D-01 0.313D+00 0.636D+00
 Coeff-En:   0.000D+00 0.000D+00 0.000D+00 0.000D+00 0.831D-01 0.917D+00
 Coeff:      0.214D-02-0.311D-02 0.244D-02 0.454D-01 0.295D+00 0.658D+00
 Gap=     0.248 Goal=   None    Shift=    0.000
 RMSDP=1.35D-03 MaxDP=1.13D-01 DE=-3.76D-02 OVMax= 1.92D-02

 Cycle   7  Pass 1  IDiag  1:
 RMSU=  6.19D-04    CP:  4.24D-02  2.22D+00  1.20D+00  6.12D-01  7.53D-01
                    CP:  1.08D+00
 E= -3010.55330240994     Delta-E=       -0.005410324090 Rises=F Damp=F
 DIIS: error= 1.79D-03 at cycle   7 NSaved=   7.
 NSaved= 7 IEnMin= 7 EnMin= -3010.55330240994     IErMin= 7 ErrMin= 1.79D-03
 ErrMax= 1.79D-03  0.00D+00 EMaxC= 1.00D-01 BMatC= 3.29D-04 BMatP= 8.09D-03
 IDIUse=3 WtCom= 9.82D-01 WtEn= 1.79D-02
 Coeff-Com: -0.126D-02 0.119D-02-0.123D-01-0.407D-02 0.107D+00 0.317D+00
 Coeff-Com:  0.593D+00
 Coeff-En:   0.000D+00 0.000D+00 0.000D+00 0.000D+00 0.000D+00 0.000D+00
 Coeff-En:   0.100D+01
 Coeff:     -0.124D-02 0.117D-02-0.121D-01-0.400D-02 0.105D+00 0.311D+00
 Coeff:      0.600D+00
 Gap=     0.250 Goal=   None    Shift=    0.000
 RMSDP=3.25D-04 MaxDP=2.88D-02 DE=-5.41D-03 OVMax= 8.95D-03

 Cycle   8  Pass 1  IDiag  1:
 RMSU=  2.84D-04    CP:  4.24D-02  2.22D+00  1.20D+00  6.13D-01  7.56D-01
                    CP:  1.10D+00  1.01D+00
 E= -3010.55353579156     Delta-E=       -0.000233381624 Rises=F Damp=F
 DIIS: error= 1.30D-03 at cycle   8 NSaved=   8.
 NSaved= 8 IEnMin= 8 EnMin= -3010.55353579156     IErMin= 8 ErrMin= 1.30D-03
 ErrMax= 1.30D-03  0.00D+00 EMaxC= 1.00D-01 BMatC= 1.24D-04 BMatP= 3.29D-04
 IDIUse=3 WtCom= 9.87D-01 WtEn= 1.30D-02
 Coeff-Com: -0.220D-02 0.258D-02-0.879D-02-0.112D-01 0.104D-01 0.743D-01
 Coeff-Com:  0.407D+00 0.527D+00
 Coeff-En:   0.000D+00 0.000D+00 0.000D+00 0.000D+00 0.000D+00 0.000D+00
 Coeff-En:   0.152D+00 0.848D+00
 Coeff:     -0.218D-02 0.255D-02-0.868D-02-0.111D-01 0.103D-01 0.734D-01
 Coeff:      0.404D+00 0.532D+00
 Gap=     0.250 Goal=   None    Shift=    0.000
 RMSDP=2.06D-04 MaxDP=1.67D-02 DE=-2.33D-04 OVMax= 5.37D-03

 Cycle   9  Pass 1  IDiag  1:
 RMSU=  1.12D-04    CP:  4.25D-02  2.23D+00  1.20D+00  6.15D-01  7.59D-01
                    CP:  1.10D+00  1.17D+00  9.42D-01
 E= -3010.55364266745     Delta-E=       -0.000106875892 Rises=F Damp=F
 DIIS: error= 2.54D-04 at cycle   9 NSaved=   9.
 NSaved= 9 IEnMin= 9 EnMin= -3010.55364266745     IErMin= 9 ErrMin= 2.54D-04
 ErrMax= 2.54D-04  0.00D+00 EMaxC= 1.00D-01 BMatC= 8.87D-06 BMatP= 1.24D-04
 IDIUse=3 WtCom= 9.97D-01 WtEn= 2.54D-03
 Coeff-Com: -0.151D-02 0.205D-02-0.696D-03-0.268D-02-0.177D-01-0.412D-01
 Coeff-Com:  0.289D-01 0.202D+00 0.831D+00
 Coeff-En:   0.000D+00 0.000D+00 0.000D+00 0.000D+00 0.000D+00 0.000D+00
 Coeff-En:   0.000D+00 0.000D+00 0.100D+01
 Coeff:     -0.151D-02 0.205D-02-0.694D-03-0.267D-02-0.177D-01-0.411D-01
 Coeff:      0.288D-01 0.201D+00 0.832D+00
 Gap=     0.251 Goal=   None    Shift=    0.000
 RMSDP=1.42D-04 MaxDP=1.00D-02 DE=-1.07D-04 OVMax= 1.82D-03

 Cycle  10  Pass 1  IDiag  1:
 RMSU=  8.35D-05    CP:  4.26D-02  2.23D+00  1.20D+00  6.17D-01  7.58D-01
                    CP:  1.11D+00  1.26D+00  1.02D+00  1.33D+00
 E= -3010.55365758008     Delta-E=       -0.000014912633 Rises=F Damp=F
 DIIS: error= 7.13D-05 at cycle  10 NSaved=  10.
 NSaved=10 IEnMin=10 EnMin= -3010.55365758008     IErMin=10 ErrMin= 7.13D-05
 ErrMax= 7.13D-05  0.00D+00 EMaxC= 1.00D-01 BMatC= 1.92D-06 BMatP= 8.87D-06
 IDIUse=1 WtCom= 1.00D+00 WtEn= 0.00D+00
 Coeff-Com: -0.990D-03 0.140D-02 0.840D-03 0.867D-03-0.566D-02-0.201D-01
 Coeff-Com: -0.543D-01-0.239D-01 0.269D+00 0.833D+00
 Coeff:     -0.990D-03 0.140D-02 0.840D-03 0.867D-03-0.566D-02-0.201D-01
 Coeff:     -0.543D-01-0.239D-01 0.269D+00 0.833D+00
 Gap=     0.251 Goal=   None    Shift=    0.000
 RMSDP=4.33D-05 MaxDP=2.57D-03 DE=-1.49D-05 OVMax= 8.78D-04

 Cycle  11  Pass 1  IDiag  1:
 RMSU=  1.60D-05    CP:  4.26D-02  2.23D+00  1.20D+00  6.16D-01  7.58D-01
                    CP:  1.10D+00  1.26D+00  1.04D+00  1.50D+00  1.16D+00
 E= -3010.55366020615     Delta-E=       -0.000002626063 Rises=F Damp=F
 DIIS: error= 3.38D-05 at cycle  11 NSaved=  11.
 NSaved=11 IEnMin=11 EnMin= -3010.55366020615     IErMin=11 ErrMin= 3.38D-05
 ErrMax= 3.38D-05  0.00D+00 EMaxC= 1.00D-01 BMatC= 5.18D-07 BMatP= 1.92D-06
 IDIUse=1 WtCom= 1.00D+00 WtEn= 0.00D+00
 Coeff-Com: -0.599D-03 0.824D-03 0.174D-03 0.808D-03 0.109D-02 0.727D-03
 Coeff-Com: -0.148D-01-0.269D-01-0.420D-01 0.211D+00 0.869D+00
 Coeff:     -0.599D-03 0.824D-03 0.174D-03 0.808D-03 0.109D-02 0.727D-03
 Coeff:     -0.148D-01-0.269D-01-0.420D-01 0.211D+00 0.869D+00
 Gap=     0.251 Goal=   None    Shift=    0.000
 RMSDP=2.28D-05 MaxDP=1.81D-03 DE=-2.63D-06 OVMax= 4.09D-04

 Cycle  12  Pass 1  IDiag  1:
 RMSU=  8.14D-06    CP:  4.26D-02  2.23D+00  1.20D+00  6.16D-01  7.58D-01
                    CP:  1.10D+00  1.25D+00  1.04D+00  1.58D+00  1.31D+00
                    CP:  1.30D+00
 E= -3010.55366079985     Delta-E=       -0.000000593699 Rises=F Damp=F
 DIIS: error= 2.68D-05 at cycle  12 NSaved=  12.
 NSaved=12 IEnMin=12 EnMin= -3010.55366079985     IErMin=12 ErrMin= 2.68D-05
 ErrMax= 2.68D-05  0.00D+00 EMaxC= 1.00D-01 BMatC= 1.65D-07 BMatP= 5.18D-07
 IDIUse=1 WtCom= 1.00D+00 WtEn= 0.00D+00
 Coeff-Com: -0.256D-03 0.336D-03-0.134D-03 0.302D-03 0.182D-02 0.515D-02
 Coeff-Com:  0.103D-01-0.363D-03-0.831D-01-0.136D+00 0.234D+00 0.968D+00
 Coeff:     -0.256D-03 0.336D-03-0.134D-03 0.302D-03 0.182D-02 0.515D-02
 Coeff:      0.103D-01-0.363D-03-0.831D-01-0.136D+00 0.234D+00 0.968D+00
 Gap=     0.251 Goal=   None    Shift=    0.000
 RMSDP=1.34D-05 MaxDP=1.22D-03 DE=-5.94D-07 OVMax= 2.62D-04

 Cycle  13  Pass 1  IDiag  1:
 RMSU=  5.08D-06    CP:  4.26D-02  2.23D+00  1.20D+00  6.16D-01  7.58D-01
                    CP:  1.10D+00  1.26D+00  1.03D+00  1.63D+00  1.39D+00
                    CP:  1.43D+00  1.34D+00
 E= -3010.55366104323     Delta-E=       -0.000000243383 Rises=F Damp=F
 DIIS: error= 1.08D-05 at cycle  13 NSaved=  13.
 NSaved=13 IEnMin=13 EnMin= -3010.55366104323     IErMin=13 ErrMin= 1.08D-05
 ErrMax= 1.08D-05  0.00D+00 EMaxC= 1.00D-01 BMatC= 2.87D-08 BMatP= 1.65D-07
 IDIUse=1 WtCom= 1.00D+00 WtEn= 0.00D+00
 Coeff-Com: -0.674D-04 0.881D-04-0.574D-04-0.289D-04 0.215D-03 0.121D-02
 Coeff-Com:  0.722D-02 0.832D-02-0.743D-02-0.710D-01-0.160D+00 0.266D+00
 Coeff-Com:  0.955D+00
 Coeff:     -0.674D-04 0.881D-04-0.574D-04-0.289D-04 0.215D-03 0.121D-02
 Coeff:      0.722D-02 0.832D-02-0.743D-02-0.710D-01-0.160D+00 0.266D+00
 Coeff:      0.955D+00
 Gap=     0.251 Goal=   None    Shift=    0.000
 RMSDP=4.74D-06 MaxDP=2.93D-04 DE=-2.43D-07 OVMax= 1.07D-04

 Cycle  14  Pass 1  IDiag  1:
 RMSU=  2.05D-06    CP:  4.26D-02  2.23D+00  1.20D+00  6.16D-01  7.58D-01
                    CP:  1.10D+00  1.26D+00  1.03D+00  1.63D+00  1.40D+00
                    CP:  1.48D+00  1.60D+00  1.11D+00
 E= -3010.55366108636     Delta-E=       -0.000000043133 Rises=F Damp=F
 DIIS: error= 4.97D-06 at cycle  14 NSaved=  14.
 NSaved=14 IEnMin=14 EnMin= -3010.55366108636     IErMin=14 ErrMin= 4.97D-06
 ErrMax= 4.97D-06  0.00D+00 EMaxC= 1.00D-01 BMatC= 2.99D-09 BMatP= 2.87D-08
 IDIUse=1 WtCom= 1.00D+00 WtEn= 0.00D+00
 Coeff-Com: -0.994D-05 0.148D-04-0.176D-05-0.565D-04-0.243D-03-0.391D-03
 Coeff-Com:  0.109D-02 0.284D-02 0.964D-02-0.713D-02-0.103D+00-0.407D-01
 Coeff-Com:  0.361D+00 0.777D+00
 Coeff:     -0.994D-05 0.148D-04-0.176D-05-0.565D-04-0.243D-03-0.391D-03
 Coeff:      0.109D-02 0.284D-02 0.964D-02-0.713D-02-0.103D+00-0.407D-01
 Coeff:      0.361D+00 0.777D+00
 Gap=     0.251 Goal=   None    Shift=    0.000
 RMSDP=1.74D-06 MaxDP=1.76D-04 DE=-4.31D-08 OVMax= 4.36D-05

 Cycle  15  Pass 1  IDiag  1:
 RMSU=  8.52D-07    CP:  4.26D-02  2.23D+00  1.20D+00  6.16D-01  7.57D-01
                    CP:  1.10D+00  1.26D+00  1.03D+00  1.64D+00  1.40D+00
                    CP:  1.50D+00  1.72D+00  1.19D+00  1.12D+00
 E= -3010.55366109183     Delta-E=       -0.000000005469 Rises=F Damp=F
 DIIS: error= 8.30D-07 at cycle  15 NSaved=  15.
 NSaved=15 IEnMin=15 EnMin= -3010.55366109183     IErMin=15 ErrMin= 8.30D-07
 ErrMax= 8.30D-07  0.00D+00 EMaxC= 1.00D-01 BMatC= 2.53D-10 BMatP= 2.99D-09
 IDIUse=1 WtCom= 1.00D+00 WtEn= 0.00D+00
 Coeff-Com: -0.413D-06 0.581D-06 0.139D-05-0.750D-05-0.643D-04-0.173D-03
 Coeff-Com: -0.539D-03-0.383D-03 0.308D-02 0.752D-02 0.176D-04-0.349D-01
 Coeff-Com: -0.594D-01 0.217D+00 0.868D+00
 Coeff:     -0.413D-06 0.581D-06 0.139D-05-0.750D-05-0.643D-04-0.173D-03
 Coeff:     -0.539D-03-0.383D-03 0.308D-02 0.752D-02 0.176D-04-0.349D-01
 Coeff:     -0.594D-01 0.217D+00 0.868D+00
 Gap=     0.251 Goal=   None    Shift=    0.000
 RMSDP=8.86D-07 MaxDP=8.35D-05 DE=-5.47D-09 OVMax= 9.08D-06

 Cycle  16  Pass 1  IDiag  1:
 RMSU=  2.14D-07    CP:  4.26D-02  2.23D+00  1.20D+00  6.16D-01  7.57D-01
                    CP:  1.10D+00  1.26D+00  1.04D+00  1.64D+00  1.39D+00
                    CP:  1.49D+00  1.71D+00  1.20D+00  1.25D+00  1.14D+00
 E= -3010.55366109228     Delta-E=       -0.000000000453 Rises=F Damp=F
 DIIS: error= 2.84D-07 at cycle  16 NSaved=  16.
 NSaved=16 IEnMin=16 EnMin= -3010.55366109228     IErMin=16 ErrMin= 2.84D-07
 ErrMax= 2.84D-07  0.00D+00 EMaxC= 1.00D-01 BMatC= 1.94D-11 BMatP= 2.53D-10
 IDIUse=1 WtCom= 1.00D+00 WtEn= 0.00D+00
 Coeff-Com:  0.952D-06-0.156D-05-0.176D-05 0.152D-05 0.941D-05 0.680D-05
 Coeff-Com: -0.222D-03-0.353D-03-0.336D-03 0.209D-02 0.113D-01-0.268D-02
 Coeff-Com: -0.577D-01-0.116D-01 0.191D+00 0.868D+00
 Coeff:      0.952D-06-0.156D-05-0.176D-05 0.152D-05 0.941D-05 0.680D-05
 Coeff:     -0.222D-03-0.353D-03-0.336D-03 0.209D-02 0.113D-01-0.268D-02
 Coeff:     -0.577D-01-0.116D-01 0.191D+00 0.868D+00
 Gap=     0.251 Goal=   None    Shift=    0.000
 RMSDP=2.83D-07 MaxDP=2.53D-05 DE=-4.53D-10 OVMax= 5.18D-06

 Cycle  17  Pass 1  IDiag  1:
 RMSU=  8.16D-08    CP:  4.26D-02  2.23D+00  1.20D+00  6.16D-01  7.57D-01
                    CP:  1.10D+00  1.26D+00  1.04D+00  1.64D+00  1.39D+00
                    CP:  1.49D+00  1.72D+00  1.21D+00  1.29D+00  1.23D+00
                    CP:  1.25D+00
 E= -3010.55366109233     Delta-E=       -0.000000000043 Rises=F Damp=F
 DIIS: error= 1.16D-07 at cycle  17 NSaved=  17.
 NSaved=17 IEnMin=17 EnMin= -3010.55366109233     IErMin=17 ErrMin= 1.16D-07
 ErrMax= 1.16D-07  0.00D+00 EMaxC= 1.00D-01 BMatC= 6.28D-12 BMatP= 1.94D-11
 IDIUse=1 WtCom= 1.00D+00 WtEn= 0.00D+00
 Coeff-Com:  0.538D-06-0.813D-06-0.122D-05 0.153D-06 0.103D-04 0.245D-04
 Coeff-Com:  0.203D-04-0.181D-04-0.494D-03-0.574D-03 0.343D-02 0.450D-02
 Coeff-Com: -0.803D-02-0.281D-01-0.904D-01 0.301D+00 0.819D+00
 Coeff:      0.538D-06-0.813D-06-0.122D-05 0.153D-06 0.103D-04 0.245D-04
 Coeff:      0.203D-04-0.181D-04-0.494D-03-0.574D-03 0.343D-02 0.450D-02
 Coeff:     -0.803D-02-0.281D-01-0.904D-01 0.301D+00 0.819D+00
 Gap=     0.251 Goal=   None    Shift=    0.000
 RMSDP=9.82D-08 MaxDP=6.04D-06 DE=-4.27D-11 OVMax= 2.21D-06

 Cycle  18  Pass 1  IDiag  1:
 RMSU=  5.58D-08    CP:  4.26D-02  2.23D+00  1.20D+00  6.16D-01  7.57D-01
                    CP:  1.10D+00  1.26D+00  1.04D+00  1.64D+00  1.39D+00
                    CP:  1.49D+00  1.72D+00  1.20D+00  1.30D+00  1.26D+00
                    CP:  1.40D+00  1.23D+00
 E= -3010.55366109234     Delta-E=       -0.000000000011 Rises=F Damp=F
 DIIS: error= 4.38D-08 at cycle  18 NSaved=  18.
 NSaved=18 IEnMin=18 EnMin= -3010.55366109234     IErMin=18 ErrMin= 4.38D-08
 ErrMax= 4.38D-08  0.00D+00 EMaxC= 1.00D-01 BMatC= 6.67D-13 BMatP= 6.28D-12
 IDIUse=1 WtCom= 1.00D+00 WtEn= 0.00D+00
 Coeff-Com:  0.204D-06-0.240D-06 0.127D-06-0.680D-06-0.628D-06 0.196D-05
 Coeff-Com:  0.397D-04 0.526D-04-0.953D-05-0.485D-03-0.146D-02 0.692D-03
 Coeff-Com:  0.987D-02 0.137D-02-0.514D-01-0.840D-01 0.410D-01 0.108D+01
 Coeff:      0.204D-06-0.240D-06 0.127D-06-0.680D-06-0.628D-06 0.196D-05
 Coeff:      0.397D-04 0.526D-04-0.953D-05-0.485D-03-0.146D-02 0.692D-03
 Coeff:      0.987D-02 0.137D-02-0.514D-01-0.840D-01 0.410D-01 0.108D+01
 Gap=     0.251 Goal=   None    Shift=    0.000
 RMSDP=5.33D-08 MaxDP=4.52D-06 DE=-1.14D-11 OVMax= 1.69D-06

 Cycle  19  Pass 1  IDiag  1:
 RMSU=  1.62D-08    CP:  4.26D-02  2.23D+00  1.20D+00  6.16D-01  7.57D-01
                    CP:  1.10D+00  1.26D+00  1.04D+00  1.64D+00  1.39D+00
                    CP:  1.50D+00  1.72D+00  1.20D+00  1.30D+00  1.28D+00
                    CP:  1.43D+00  1.48D+00  1.42D+00
 E= -3010.55366109235     Delta-E=       -0.000000000010 Rises=F Damp=F
 DIIS: error= 1.84D-08 at cycle  19 NSaved=  19.
 NSaved=19 IEnMin=19 EnMin= -3010.55366109235     IErMin=19 ErrMin= 1.84D-08
 ErrMax= 1.84D-08  0.00D+00 EMaxC= 1.00D-01 BMatC= 2.21D-13 BMatP= 6.67D-13
 IDIUse=1 WtCom= 1.00D+00 WtEn= 0.00D+00
 Coeff-Com:  0.486D-07-0.408D-07 0.246D-06-0.301D-06-0.206D-05-0.365D-05
 Coeff-Com:  0.103D-04 0.190D-04 0.795D-04-0.100D-03-0.105D-02-0.566D-03
 Coeff-Com:  0.526D-02 0.479D-02-0.537D-02-0.768D-01-0.161D+00 0.423D+00
 Coeff-Com:  0.812D+00
 Coeff:      0.486D-07-0.408D-07 0.246D-06-0.301D-06-0.206D-05-0.365D-05
 Coeff:      0.103D-04 0.190D-04 0.795D-04-0.100D-03-0.105D-02-0.566D-03
 Coeff:      0.526D-02 0.479D-02-0.537D-02-0.768D-01-0.161D+00 0.423D+00
 Coeff:      0.812D+00
 Gap=     0.251 Goal=   None    Shift=    0.000
 RMSDP=2.71D-08 MaxDP=2.53D-06 DE=-1.00D-11 OVMax= 6.35D-07

 Cycle  20  Pass 1  IDiag  1:
 RMSU=  5.88D-09    CP:  4.26D-02  2.23D+00  1.20D+00  6.16D-01  7.57D-01
                    CP:  1.10D+00  1.26D+00  1.04D+00  1.64D+00  1.39D+00
                    CP:  1.50D+00  1.72D+00  1.20D+00  1.30D+00  1.28D+00
                    CP:  1.45D+00  1.54D+00  1.72D+00  1.33D+00
 E= -3010.55366109238     Delta-E=       -0.000000000035 Rises=F Damp=F
 DIIS: error= 6.00D-09 at cycle  20 NSaved=  20.
 NSaved=20 IEnMin=20 EnMin= -3010.55366109238     IErMin=20 ErrMin= 6.00D-09
 ErrMax= 6.00D-09  0.00D+00 EMaxC= 1.00D-01 BMatC= 1.53D-14 BMatP= 2.21D-13
 IDIUse=1 WtCom= 1.00D+00 WtEn= 0.00D+00
 Coeff-Com:  0.180D-07-0.285D-07 0.797D-08 0.524D-07-0.244D-06-0.842D-06
 Coeff-Com: -0.539D-05-0.517D-05 0.208D-04 0.637D-04 0.894D-04-0.318D-03
 Coeff-Com: -0.843D-03 0.542D-03 0.913D-02 0.738D-02-0.500D-01-0.958D-01
 Coeff-Com:  0.138D+00 0.992D+00
 Coeff:      0.180D-07-0.285D-07 0.797D-08 0.524D-07-0.244D-06-0.842D-06
 Coeff:     -0.539D-05-0.517D-05 0.208D-04 0.637D-04 0.894D-04-0.318D-03
 Coeff:     -0.843D-03 0.542D-03 0.913D-02 0.738D-02-0.500D-01-0.958D-01
 Coeff:      0.138D+00 0.992D+00
 Gap=     0.251 Goal=   None    Shift=    0.000
 RMSDP=8.97D-09 MaxDP=4.94D-07 DE=-3.46D-11 OVMax= 1.91D-07

 SCF Done:  E(RwB97XD) =  -3010.55366109     A.U. after   20 cycles
            NFock= 20  Conv=0.90D-08     -V/T= 2.0016
 KE= 3.005855866510D+03 PE=-8.635264712703D+03 EE= 1.877006815865D+03
 Leave Link  502 at Wed May  1 15:17:21 2024, MaxMem=  1207959552 cpu:            1162.1 elap:            1162.4
 (Enter /software/gaussian/g16-c01/sse4/g16/l601.exe)
 Copying SCF densities to generalized density rwf, IOpCl= 0 IROHF=0.

 **********************************************************************

            Population analysis using the SCF Density.

 **********************************************************************

 Alpha  occ. eigenvalues -- -483.35051 -62.90123 -56.69746 -56.69272 -56.69272
 Alpha  occ. eigenvalues --  -19.46748 -19.46653 -14.86232 -10.60171 -10.58739
 Alpha  occ. eigenvalues --  -10.58243 -10.58063 -10.57740 -10.53864  -9.05962
 Alpha  occ. eigenvalues --   -6.88447  -6.86875  -6.86867  -2.98397  -2.97974
 Alpha  occ. eigenvalues --   -2.97966  -2.96707  -2.96707  -1.50474  -1.33445
 Alpha  occ. eigenvalues --   -1.23903  -1.15920  -1.12881  -1.07268  -1.01980
 Alpha  occ. eigenvalues --   -0.96678  -0.91972  -0.86125  -0.81751  -0.81519
 Alpha  occ. eigenvalues --   -0.80859  -0.79182  -0.76997  -0.76894  -0.74256
 Alpha  occ. eigenvalues --   -0.70395  -0.68608  -0.65437  -0.62855  -0.60824
 Alpha  occ. eigenvalues --   -0.58055  -0.57767  -0.56896  -0.56418
 Alpha virt. eigenvalues --   -0.31299  -0.22260  -0.19966  -0.17472  -0.14982
 Alpha virt. eigenvalues --   -0.13620  -0.12302  -0.09562  -0.08190  -0.07957
 Alpha virt. eigenvalues --   -0.05555  -0.04678  -0.03649  -0.02632  -0.02354
 Alpha virt. eigenvalues --   -0.01173   0.00040   0.00662   0.01391   0.02260
 Alpha virt. eigenvalues --    0.03894   0.04774   0.05377   0.05643   0.06340
 Alpha virt. eigenvalues --    0.07487   0.07808   0.07992   0.08208   0.09353
 Alpha virt. eigenvalues --    0.10237   0.10884   0.11379   0.12099   0.12674
 Alpha virt. eigenvalues --    0.12875   0.13780   0.14703   0.15197   0.15754
 Alpha virt. eigenvalues --    0.16385   0.16970   0.17993   0.18728   0.19010
 Alpha virt. eigenvalues --    0.20562   0.20874   0.21086   0.22156   0.24094
 Alpha virt. eigenvalues --    0.24747   0.25411   0.26667   0.27753   0.27849
 Alpha virt. eigenvalues --    0.29173   0.31546   0.33523   0.34172   0.35697
 Alpha virt. eigenvalues --    0.37097   0.37292   0.37726   0.39465   0.40151
 Alpha virt. eigenvalues --    0.42300   0.42940   0.44228   0.46211   0.46753
 Alpha virt. eigenvalues --    0.47434   0.48146   0.48903   0.51139   0.52798
 Alpha virt. eigenvalues --    0.53281   0.54226   0.55349   0.56706   0.58645
 Alpha virt. eigenvalues --    0.60145   0.61341   0.62537   0.64865   0.67778
 Alpha virt. eigenvalues --    0.69584   0.70578   0.72014   0.72365   0.73237
 Alpha virt. eigenvalues --    0.73735   0.78569   0.78830   0.80741   0.83742
 Alpha virt. eigenvalues --    0.84903   0.87048   0.91095   0.91724   0.97435
 Alpha virt. eigenvalues --    0.98853   1.00052   1.03406   1.04551   1.05565
 Alpha virt. eigenvalues --    1.07723   1.10400   1.11038   1.11627   1.13457
 Alpha virt. eigenvalues --    1.21268   1.23737   1.25960   1.31920   1.35520
 Alpha virt. eigenvalues --    1.35938   1.36831   1.43723   1.53383   1.56153
 Alpha virt. eigenvalues --    1.57518   1.57737   1.59692   1.61408   1.65134
 Alpha virt. eigenvalues --    1.68160   1.68466   1.72521   1.74435   1.78011
 Alpha virt. eigenvalues --    1.80099   1.84552   1.86059   1.89364   1.91622
 Alpha virt. eigenvalues --    1.96328   2.01882   2.02465   2.04469   2.06713
 Alpha virt. eigenvalues --    2.08314   2.13576   2.19478   2.21797   2.28614
 Alpha virt. eigenvalues --    2.36835   2.40242   2.41942   2.42665   2.51498
 Alpha virt. eigenvalues --    2.55855   2.62100   2.65096   2.67253   2.70842
 Alpha virt. eigenvalues --    2.72481   2.75599   2.76436   2.79995   2.80600
 Alpha virt. eigenvalues --    2.92169   2.95151   2.99805   3.04379   3.07826
 Alpha virt. eigenvalues --    3.12082   3.13935   3.18152   3.22767   3.23393
 Alpha virt. eigenvalues --    3.26508   3.38209   3.46707   3.50268   3.53487
 Alpha virt. eigenvalues --    3.55893   3.69058   3.73271   3.81083   3.86001
 Alpha virt. eigenvalues --    4.04656   4.04913   4.12785   4.17933   4.38870
 Alpha virt. eigenvalues --    4.43511   4.56229   4.58964   4.92362   4.95033
 Alpha virt. eigenvalues --    5.03670   5.07837   5.61967   6.14924   6.60571
 Alpha virt. eigenvalues --    7.43285   7.44896   7.54910  23.20080  23.60192
 Alpha virt. eigenvalues --   23.67803  23.78240  23.94977  24.00290  35.31727
 Alpha virt. eigenvalues --   47.87279  49.84691  49.93503 289.76645 289.78316
 Alpha virt. eigenvalues --  289.908111020.87765
          Condensed to atoms (all electrons):
               1          2          3          4          5          6
     1  C    9.158469  -3.051444   0.725756  -2.000607  -0.952404   0.334226
     2  C   -3.051444  15.000004  -3.112123  -2.257174   1.634039  -0.031816
     3  C    0.725756  -3.112123  13.606070  -2.895284  -1.799991   0.028321
     4  C   -2.000607  -2.257174  -2.895284  15.093870   1.601649   0.019670
     5  C   -0.952404   1.634039  -1.799991   1.601649   8.251610  -0.003085
     6  H    0.334226  -0.031816   0.028321   0.019670  -0.003085   0.325880
     7  H    0.063632   0.217019   0.089349  -0.025523  -0.019001  -0.001575
     8  H    0.006772  -0.017060   0.076374   0.242604  -0.023740  -0.000004
     9  H    0.025277  -0.020623   0.011046  -0.013316   0.307441  -0.001908
    10  N   -0.177206   0.379574  -1.145681   0.491507   0.047670  -0.000734
    11  O    0.011645   0.031332  -0.202451  -0.112684  -0.045127  -0.000051
    12  O    0.328149  -0.107969  -0.200235  -0.086344  -0.048774   0.000042
    13  C    2.057332  -3.082695   1.468056  -4.415919  -2.990385  -0.013738
    14  H   -0.008629   0.007020  -0.004569  -0.067514  -0.022284  -0.000009
    15  Br   0.105140  -0.174187   0.089027   0.116418  -0.009239  -0.000600
               7          8          9         10         11         12
     1  C    0.063632   0.006772   0.025277  -0.177206   0.011645   0.328149
     2  C    0.217019  -0.017060  -0.020623   0.379574   0.031332  -0.107969
     3  C    0.089349   0.076374   0.011046  -1.145681  -0.202451  -0.200235
     4  C   -0.025523   0.242604  -0.013316   0.491507  -0.112684  -0.086344
     5  C   -0.019001  -0.023740   0.307441   0.047670  -0.045127  -0.048774
     6  H   -0.001575  -0.000004  -0.001908  -0.000734  -0.000051   0.000042
     7  H    0.298467  -0.000014   0.000023  -0.029065  -0.001500   0.022880
     8  H   -0.000014   0.284298   0.000055  -0.025859   0.020238  -0.000294
     9  H    0.000023   0.000055   0.309588   0.000212   0.000019   0.000012
    10  N   -0.029065  -0.025859   0.000212   7.524102   0.118597   0.113321
    11  O   -0.001500   0.020238   0.000019   0.118597   7.882826  -0.002694
    12  O    0.022880  -0.000294   0.000012   0.113321  -0.002694   7.899450
    13  C    0.013964   0.057830   0.025727  -0.193550   0.267538   0.047856
    14  H   -0.000010  -0.001818  -0.003260   0.001149  -0.000473  -0.000135
    15  Br   0.000017  -0.002448  -0.003062   0.005109  -0.003316   0.003222
              13         14         15
     1  C    2.057332  -0.008629   0.105140
     2  C   -3.082695   0.007020  -0.174187
     3  C    1.468056  -0.004569   0.089027
     4  C   -4.415919  -0.067514   0.116418
     5  C   -2.990385  -0.022284  -0.009239
     6  H   -0.013738  -0.000009  -0.000600
     7  H    0.013964  -0.000010   0.000017
     8  H    0.057830  -0.001818  -0.002448
     9  H    0.025727  -0.003260  -0.003062
    10  N   -0.193550   0.001149   0.005109
    11  O    0.267538  -0.000473  -0.003316
    12  O    0.047856  -0.000135   0.003222
    13  C   12.910752   0.386742  -0.071673
    14  H    0.386742   0.247462  -0.017431
    15  Br  -0.071673  -0.017431  35.006566
 Mulliken charges:
               1
     1  C   -0.626109
     2  C    0.586103
     3  C   -0.733665
     4  C    0.308647
     5  C    0.071624
     6  H    0.345380
     7  H    0.371337
     8  H    0.383066
     9  H    0.362771
    10  N   -0.109147
    11  O    0.036102
    12  O    0.031513
    13  C   -0.467838
    14  H    0.483758
    15  Br  -0.043543
 Sum of Mulliken charges =   1.00000
 Mulliken charges with hydrogens summed into heavy atoms:
               1
     1  C   -0.280729
     2  C    0.957440
     3  C   -0.733665
     4  C    0.691713
     5  C    0.434396
    10  N   -0.109147
    11  O    0.036102
    12  O    0.031513
    13  C    0.015920
    15  Br  -0.043543
 Electronic spatial extent (au):  <R**2>=           2802.3540
 Charge=              1.0000 electrons
 Dipole moment (field-independent basis, Debye):
    X=             -0.2619    Y=              0.2684    Z=              4.0281  Tot=              4.0455
 Quadrupole moment (field-independent basis, Debye-Ang):
   XX=            -70.4928   YY=            -53.2388   ZZ=            -67.4771
   XY=              0.6862   XZ=              2.9618   YZ=             -1.8031
 Traceless Quadrupole moment (field-independent basis, Debye-Ang):
   XX=             -6.7566   YY=             10.4974   ZZ=             -3.7408
   XY=              0.6862   XZ=              2.9618   YZ=             -1.8031
 Octapole moment (field-independent basis, Debye-Ang**2):
  XXX=           -294.9059  YYY=             93.9287  ZZZ=             96.9785  XYY=            -73.9096
  XXY=             31.2347  XXZ=             45.8701  XZZ=            -75.6765  YZZ=             25.7488
  YYZ=             37.7814  XYZ=             -1.0421
 Hexadecapole moment (field-independent basis, Debye-Ang**3):
 XXXX=          -2264.5472 YYYY=           -690.9190 ZZZZ=           -394.5871 XXXY=            -70.9448
 XXXZ=             15.3554 YYYX=            -63.7290 YYYZ=           -176.9618 ZZZX=            -21.4569
 ZZZY=           -163.8307 XXYY=           -456.4957 XXZZ=           -377.4269 YYZZ=           -185.2015
 XXYZ=            -57.9572 YYXZ=             -2.4020 ZZXY=            -14.0033
 N-N= 7.418483692355D+02 E-N=-8.635264712098D+03  KE= 3.005855866510D+03
 No NMR shielding tensors so no spin-rotation constants.
 Leave Link  601 at Wed May  1 15:17:28 2024, MaxMem=  1207959552 cpu:               7.4 elap:               7.4
 (Enter /software/gaussian/g16-c01/sse4/g16/l9999.exe)
 Unable to Open any file for archive entry.
 1\1\GINC-BHX0006\SP\RwB97XD\6-311+G(d)\C6H5Br1N1O2(1+)\BWEIGHT\01-May-
 2024\0\\#P wB97XD/6-311+G* NoSymm #P Field=Z-233\\TitleMe\\1,1\C,0,0.0
 295,1.3397,0.0682\C,0,1.4348,1.2867,0.0064\C,0,2.1118,0.0511,-0.0054\C
 ,0,1.4451,-1.1372,0.0312\C,0,-0.6879,0.1682,0.11\H,0,-0.4713,2.2984,0.
 0781\H,0,2.0273,2.1965,-0.0322\H,0,1.9897,-2.0764,0.0232\H,0,-1.7716,0
 .1804,0.1582\N,0,3.5864,0.051,-0.0675\O,0,4.1471,-1.0597,-0.0881\O,0,4
 .145,1.1639,-0.0901\C,0,-0.0236,-1.1458,0.0835\H,0,-0.4367,-1.8725,0.7
 889\Br,0,-0.5359,-1.8697,-1.7408\\Version=ES64L-G16RevC.01\HF=-3010.55
 36611\RMSD=8.967e-09\Dipole=-2.0095892,1.2536807,2.7309449\Quadrupole=
 -5.0233785,7.8045956,-2.7812172,0.5101678,2.2020384,-1.3405683\PG=C01 
 [X(C6H5Br1N1O2)]\\@
 The archive entry for this job was punched.


 MEN HAVE BECOME THE TOOLS OF THEIR TOOLS... THOREAU   
 Job cpu time:       0 days  0 hours 20 minutes 31.6 seconds.
 Elapsed time:       0 days  0 hours 20 minutes 31.9 seconds.
 File lengths (MBytes):  RWF=     40 Int=      0 D2E=      0 Chk=     32 Scr=      1
 Normal termination of Gaussian 16 at Wed May  1 15:17:29 2024.
