 Entering Gaussian System, Link 0=g16
 Initial command:
 /software/gaussian/g16-c01/sse4/g16/l1.exe "/local_scratch/24657545/Gau-31849.inp" -scrdir="/local_scratch/24657545/"
 Entering Link 1 = /software/gaussian/g16-c01/sse4/g16/l1.exe PID=     31850.
  
 Copyright (c) 1988-2019, Gaussian, Inc.  All Rights Reserved.
  
 This is part of the Gaussian(R) 16 program.  It is based on
 the Gaussian(R) 09 system (copyright 2009, Gaussian, Inc.),
 the Gaussian(R) 03 system (copyright 2003, Gaussian, Inc.),
 the Gaussian(R) 98 system (copyright 1998, Gaussian, Inc.),
 the Gaussian(R) 94 system (copyright 1995, Gaussian, Inc.),
 the Gaussian 92(TM) system (copyright 1992, Gaussian, Inc.),
 the Gaussian 90(TM) system (copyright 1990, Gaussian, Inc.),
 the Gaussian 88(TM) system (copyright 1988, Gaussian, Inc.),
 the Gaussian 86(TM) system (copyright 1986, Carnegie Mellon
 University), and the Gaussian 82(TM) system (copyright 1983,
 Carnegie Mellon University). Gaussian is a federally registered
 trademark of Gaussian, Inc.
  
 This software contains proprietary and confidential information,
 including trade secrets, belonging to Gaussian, Inc.
  
 This software is provided under written license and may be
 used, copied, transmitted, or stored only in accord with that
 written license.
  
 The following legend is applicable only to US Government
 contracts under FAR:
  
                    RESTRICTED RIGHTS LEGEND
  
 Use, reproduction and disclosure by the US Government is
 subject to restrictions as set forth in subparagraphs (a)
 and (c) of the Commercial Computer Software - Restricted
 Rights clause in FAR 52.227-19.
  
 Gaussian, Inc.
 340 Quinnipiac St., Bldg. 40, Wallingford CT 06492
  
  
 ---------------------------------------------------------------
 Warning -- This program may not be used in any manner that
 competes with the business of Gaussian, Inc. or will provide
 assistance to any competitor of Gaussian, Inc.  The licensee
 of this program is prohibited from giving any competitor of
 Gaussian, Inc. access to this program.  By using this program,
 the user acknowledges that Gaussian, Inc. is engaged in the
 business of creating and licensing software in the field of
 computational chemistry and represents and warrants to the
 licensee that it is not a competitor of Gaussian, Inc. and that
 it will not use this program in any manner prohibited above.
 ---------------------------------------------------------------
  

 Cite this work as:
 Gaussian 16, Revision C.01,
 M. J. Frisch, G. W. Trucks, H. B. Schlegel, G. E. Scuseria, 
 M. A. Robb, J. R. Cheeseman, G. Scalmani, V. Barone, 
 G. A. Petersson, H. Nakatsuji, X. Li, M. Caricato, A. V. Marenich, 
 J. Bloino, B. G. Janesko, R. Gomperts, B. Mennucci, H. P. Hratchian, 
 J. V. Ortiz, A. F. Izmaylov, J. L. Sonnenberg, D. Williams-Young, 
 F. Ding, F. Lipparini, F. Egidi, J. Goings, B. Peng, A. Petrone, 
 T. Henderson, D. Ranasinghe, V. G. Zakrzewski, J. Gao, N. Rega, 
 G. Zheng, W. Liang, M. Hada, M. Ehara, K. Toyota, R. Fukuda, 
 J. Hasegawa, M. Ishida, T. Nakajima, Y. Honda, O. Kitao, H. Nakai, 
 T. Vreven, K. Throssell, J. A. Montgomery, Jr., J. E. Peralta, 
 F. Ogliaro, M. J. Bearpark, J. J. Heyd, E. N. Brothers, K. N. Kudin, 
 V. N. Staroverov, T. A. Keith, R. Kobayashi, J. Normand, 
 K. Raghavachari, A. P. Rendell, J. C. Burant, S. S. Iyengar, 
 J. Tomasi, M. Cossi, J. M. Millam, M. Klene, C. Adamo, R. Cammi, 
 J. W. Ochterski, R. L. Martin, K. Morokuma, O. Farkas, 
 J. B. Foresman, and D. J. Fox, Gaussian, Inc., Wallingford CT, 2019.
 
 ******************************************
 Gaussian 16:  ES64L-G16RevC.01  3-Jul-2019
                 1-May-2024 
 ******************************************
 %chk=geometry.chk
 %mem=9GB
 %nprocshared=12
 Will use up to   12 processors via shared memory.
 ----------------------------------------
 #P wB97XD/6-311+G* NoSymm #P Field=Z-155
 ----------------------------------------
 1/38=1,172=1/1;
 2/12=2,15=1,17=6,18=5,40=1/2;
 3/5=4,6=6,7=11,11=2,14=3,15=-155,25=1,30=1,74=-58/1,2,3;
 4//1;
 5/5=2,38=5/2;
 6/7=2,8=2,9=2,10=2,28=1/1;
 99/5=1,9=1/99;
 Leave Link    1 at Wed May  1 14:58:59 2024, MaxMem=  1207959552 cpu:               1.5 elap:               1.5
 (Enter /software/gaussian/g16-c01/sse4/g16/l101.exe)
 -------
 TitleMe
 -------
 Symbolic Z-matrix:
 Charge =  1 Multiplicity = 1
 C                     0.0295    1.3397    0.0682 
 C                     1.4348    1.2867    0.0064 
 C                     2.1118    0.0511   -0.0054 
 C                     1.4451   -1.1372    0.0312 
 C                    -0.6879    0.1682    0.11 
 H                    -0.4713    2.2984    0.0781 
 H                     2.0273    2.1965   -0.0322 
 H                     1.9897   -2.0764    0.0232 
 H                    -1.7716    0.1804    0.1582 
 N                     3.5864    0.051    -0.0675 
 O                     4.1471   -1.0597   -0.0881 
 O                     4.145     1.1639   -0.0901 
 C                    -0.0236   -1.1458    0.0835 
 H                    -0.4367   -1.8725    0.7889 
 Br                   -0.5359   -1.8697   -1.7408 
 
 ITRead=  0  0  0  0  0  0  0  0  0  0  0  0  0  0  0
 MicOpt= -1 -1 -1 -1 -1 -1 -1 -1 -1 -1 -1 -1 -1 -1 -1
 NAtoms=     15 NQM=       15 NQMF=       0 NMMI=      0 NMMIF=      0
                NMic=       0 NMicF=      0.
                    Isotopes and Nuclear Properties:
 (Nuclear quadrupole moments (NQMom) in fm**2, nuclear magnetic moments (NMagM)
  in nuclear magnetons)

  Atom         1           2           3           4           5           6           7           8           9          10
 IAtWgt=          12          12          12          12          12           1           1           1           1          14
 AtmWgt=  12.0000000  12.0000000  12.0000000  12.0000000  12.0000000   1.0078250   1.0078250   1.0078250   1.0078250  14.0030740
 NucSpn=           0           0           0           0           0           1           1           1           1           2
 AtZEff=  -0.0000000  -0.0000000  -0.0000000  -0.0000000  -0.0000000  -0.0000000  -0.0000000  -0.0000000  -0.0000000  -0.0000000
 NQMom=    0.0000000   0.0000000   0.0000000   0.0000000   0.0000000   0.0000000   0.0000000   0.0000000   0.0000000   2.0440000
 NMagM=    0.0000000   0.0000000   0.0000000   0.0000000   0.0000000   2.7928460   2.7928460   2.7928460   2.7928460   0.4037610
 AtZNuc=   6.0000000   6.0000000   6.0000000   6.0000000   6.0000000   1.0000000   1.0000000   1.0000000   1.0000000   7.0000000

  Atom        11          12          13          14          15
 IAtWgt=          16          16          12           1          79
 AtmWgt=  15.9949146  15.9949146  12.0000000   1.0078250  78.9183361
 NucSpn=           0           0           0           1           3
 AtZEff=  -0.0000000  -0.0000000  -0.0000000  -0.0000000  -0.0000000
 NQMom=    0.0000000   0.0000000   0.0000000   0.0000000  31.3000000
 NMagM=    0.0000000   0.0000000   0.0000000   2.7928460   2.1063990
 AtZNuc=   8.0000000   8.0000000   6.0000000   1.0000000  35.0000000
 Leave Link  101 at Wed May  1 14:59:01 2024, MaxMem=  1207959552 cpu:               1.5 elap:               1.5
 (Enter /software/gaussian/g16-c01/sse4/g16/l202.exe)
                          Input orientation:                          
 ---------------------------------------------------------------------
 Center     Atomic      Atomic             Coordinates (Angstroms)
 Number     Number       Type             X           Y           Z
 ---------------------------------------------------------------------
      1          6           0        0.029500    1.339700    0.068200
      2          6           0        1.434800    1.286700    0.006400
      3          6           0        2.111800    0.051100   -0.005400
      4          6           0        1.445100   -1.137200    0.031200
      5          6           0       -0.687900    0.168200    0.110000
      6          1           0       -0.471300    2.298400    0.078100
      7          1           0        2.027300    2.196500   -0.032200
      8          1           0        1.989700   -2.076400    0.023200
      9          1           0       -1.771600    0.180400    0.158200
     10          7           0        3.586400    0.051000   -0.067500
     11          8           0        4.147100   -1.059700   -0.088100
     12          8           0        4.145000    1.163900   -0.090100
     13          6           0       -0.023600   -1.145800    0.083500
     14          1           0       -0.436700   -1.872500    0.788900
     15         35           0       -0.535900   -1.869700   -1.740800
 ---------------------------------------------------------------------
                    Distance matrix (angstroms):
                    1          2          3          4          5
     1  C    0.000000
     2  C    1.407656   0.000000
     3  C    2.449874   1.408963   0.000000
     4  C    2.853126   2.424049   1.363043   0.000000
     5  C    1.374344   2.401589   2.804523   2.501993   0.000000
     6  H    1.081667   2.159142   3.424870   3.934226   2.141421
     7  H    2.176095   1.086408   2.147231   3.384750   3.392128
     8  H    3.938800   3.408612   2.131193   1.085702   3.495040
     9  H    2.143837   3.395283   3.888995   3.478413   1.084840
    10  N    3.785591   2.482297   1.475907   2.450862   4.279589
    11  O    4.768247   3.587631   2.320164   2.705743   4.992415
    12  O    4.122294   2.714696   2.319353   3.549540   4.938459
    13  C    2.486114   2.837240   2.449573   1.469656   1.472614
    14  H    3.324903   3.754379   3.290289   2.157764   2.165286
    15  Br   3.727252   4.110867   3.702891   2.756973   2.757100
                    6          7          8          9         10
     6  H    0.000000
     7  H    2.503108   0.000000
     8  H    5.019802   4.273425   0.000000
     9  H    2.486588   4.304945   4.388479   0.000000
    10  N    4.640790   2.652397   2.661486   5.364313   0.000000
    11  O    5.712624   3.885809   2.387560   6.052233   1.244373
    12  O    4.756638   2.356750   3.893289   6.002923   1.245428
    13  C    3.473180   3.923079   2.218790   2.195425   3.806210
    14  H    4.231175   4.827242   2.552506   2.528663   4.540772
    15  Br   4.548146   5.101303   3.087568   3.055498   4.845862
                   11         12         13         14         15
    11  O    0.000000
    12  O    2.223602   0.000000
    13  C    4.175117   4.768865   0.000000
    14  H    4.737193   5.566358   1.093770   0.000000
    15  Br   5.031700   5.817075   2.028436   2.531646   0.000000
 Symmetry turned off by external request.
 Stoichiometry    C6H5BrNO2(1+)
 Framework group  C1[X(C6H5BrNO2)]
 Deg. of freedom    39
 Full point group                 C1      NOp   1
 Rotational constants (GHZ):           1.8252210           0.5518633           0.4576002
 Leave Link  202 at Wed May  1 14:59:02 2024, MaxMem=  1207959552 cpu:               1.1 elap:               1.1
 (Enter /software/gaussian/g16-c01/sse4/g16/l301.exe)
 Standard basis: 6-311+G(d) (5D, 7F)
 Ernie: Thresh=  0.10000D-02 Tol=  0.10000D-05 Strict=F.
 The following finite field(s) will be applied:
 An electric field of              0.0000  0.0000 -0.0155
   261 basis functions,   443 primitive gaussians,   273 cartesian basis functions
    49 alpha electrons       49 beta electrons
       nuclear repulsion energy       739.2122215416 Hartrees.
 IExCor= 4639 DFT=T Ex+Corr=wB97XD ExCW=0 ScaHFX=  1.000000
 ScaDFX=  1.000000  1.000000  1.000000  1.000000 ScalE2=  1.000000  1.000000
 IRadAn=      5 IRanWt=     -1 IRanGd=            0 ICorTp=0 IEmpDi=121
 HFx  wShort=  0.000000 wLong=  0.200000 cFull=  0.222036 cShort=  0.000000 cLong=  0.777964
 DFx  wShort=  0.000000 wLong=  0.200000 cFull=  0.000000 cShort=  0.000000 cLong=  1.000000
 NAtoms=   15 NActive=   15 NUniq=   15 SFac= 1.00D+00 NAtFMM=   60 NAOKFM=F Big=F
 Integral buffers will be    131072 words long.
 Raffenetti 2 integral format.
 Two-electron integral symmetry is turned off.
 R6Disp:  Grimme-D2 Dispersion energy=       -0.0077368520 Hartrees.
 Nuclear repulsion after empirical dispersion term =      739.2044846896 Hartrees.
 Leave Link  301 at Wed May  1 14:59:03 2024, MaxMem=  1207959552 cpu:               1.0 elap:               1.0
 (Enter /software/gaussian/g16-c01/sse4/g16/l302.exe)
 NPDir=0 NMtPBC=     1 NCelOv=     1 NCel=       1 NClECP=     1 NCelD=      1
         NCelK=      1 NCelE2=     1 NClLst=     1 CellRange=     0.0.
 One-electron integrals computed using PRISM.
 NBasis=   261 RedAO= T EigKep=  2.35D-06  NBF=   261
 NBsUse=   261 1.00D-06 EigRej= -1.00D+00 NBFU=   261
 Precomputing XC quadrature grid using
 IXCGrd= 4 IRadAn=           5 IRanWt=          -1 IRanGd=           0 AccXCQ= 0.00D+00.
 Generated NRdTot=       0 NPtTot=           0 NUsed=           0 NTot=          32
 NSgBfM=   273   273   273   273   273 MxSgAt=    15 MxSgA2=    15.
 Leave Link  302 at Wed May  1 14:59:25 2024, MaxMem=  1207959552 cpu:              21.8 elap:              21.8
 (Enter /software/gaussian/g16-c01/sse4/g16/l303.exe)
 DipDrv:  MaxL=1.
 The nuclear repulsion energy is now       740.9632920055 hartrees.
 Leave Link  303 at Wed May  1 14:59:28 2024, MaxMem=  1207959552 cpu:               3.3 elap:               3.3
 (Enter /software/gaussian/g16-c01/sse4/g16/l401.exe)
 ExpMin= 3.50D-02 ExpMax= 4.40D+05 ExpMxC= 1.51D+04 IAcc=3 IRadAn=         5 AccDes= 0.00D+00
 Harris functional with IExCor= 4639 and IRadAn=       5 diagonalized for initial guess.
 HarFok:  IExCor= 4639 AccDes= 0.00D+00 IRadAn=         5 IDoV= 1 UseB2=F ITyADJ=14
 ICtDFT=  3500011 ScaDFX=  1.000000  1.000000  1.000000  1.000000
 FoFCou: FMM=F IPFlag=           0 FMFlag=      100000 FMFlg1=           0
         NFxFlg=           0 DoJE=T BraDBF=F KetDBF=T FulRan=T
         wScrn=  0.000000 ICntrl=       500 IOpCl=  0 I1Cent=   200000004 NGrid=           0
         NMat0=    1 NMatS0=      1 NMatT0=    0 NMatD0=    1 NMtDS0=    0 NMtDT0=    0
 Symmetry not used in FoFCou.
 Harris En= -2970.62245414335    
 JPrj=0 DoOrth=F DoCkMO=F.
 Leave Link  401 at Wed May  1 14:59:59 2024, MaxMem=  1207959552 cpu:              30.8 elap:              30.8
 (Enter /software/gaussian/g16-c01/sse4/g16/l502.exe)
 Two-electron integral symmetry not used.
 Closed shell SCF:
 Using DIIS extrapolation, IDIIS=  1040.
 NGot=  1207959552 LenX=  1207804877 LenY=  1207729907
 Requested convergence on RMS density matrix=1.00D-08 within 128 cycles.
 Requested convergence on MAX density matrix=1.00D-06.
 Requested convergence on             energy=1.00D-06.
 No special actions if energy rises.
 Fock matrices will be formed incrementally for  20 cycles.

 Cycle   1  Pass 1  IDiag  1:
 FoFJK:  IHMeth= 1 ICntrl=       0 DoSepK=T KAlg= 0 I1Cent=           0 FoldK=F
 IRaf=         1 NMat=       1 IRICut=       1 DoRegI=T DoRafI=F ISym2E= 0 IDoP0=0 IntGTp=1.
 FoFCou: FMM=F IPFlag=           0 FMFlag=      100000 FMFlg1=           0
         NFxFlg=           0 DoJE=T BraDBF=F KetDBF=F FulRan=T
         wScrn=  0.000000 ICntrl=       500 IOpCl=  0 I1Cent=           0 NGrid=           0
         NMat0=    1 NMatS0=      1 NMatT0=    0 NMatD0=    1 NMtDS0=    0 NMtDT0=    0
 Symmetry not used in FoFCou.
 E= -3009.71171374523    
 DIIS: error= 3.20D-01 at cycle   1 NSaved=   1.
 NSaved= 1 IEnMin= 1 EnMin= -3009.71171374523     IErMin= 1 ErrMin= 3.20D-01
 ErrMax= 3.20D-01  0.00D+00 EMaxC= 1.00D-01 BMatC= 1.19D+01 BMatP= 1.19D+01
 IDIUse=3 WtCom= 0.00D+00 WtEn= 1.00D+00
 Coeff-Com:  0.100D+01
 Coeff-En:   0.100D+01
 Coeff:      0.100D+01
 Gap=     0.353 Goal=   None    Shift=    0.000
 GapD=    0.353 DampG=1.000 DampE=0.250 DampFc=0.2500 IDamp=-1.
 Damping current iteration by 2.50D-01
 RMSDP=5.27D-02 MaxDP=5.22D+00              OVMax= 2.58D-01

 Cycle   2  Pass 1  IDiag  1:
 RMSU=  5.08D-03    CP:  8.80D-01
 E= -3009.99974233692     Delta-E=       -0.288028591692 Rises=F Damp=T
 DIIS: error= 2.25D-01 at cycle   2 NSaved=   2.
 NSaved= 2 IEnMin= 2 EnMin= -3009.99974233692     IErMin= 2 ErrMin= 2.25D-01
 ErrMax= 2.25D-01  0.00D+00 EMaxC= 1.00D-01 BMatC= 5.46D+00 BMatP= 1.19D+01
 IDIUse=3 WtCom= 0.00D+00 WtEn= 1.00D+00
 Coeff-Com: -0.186D+01 0.286D+01
 Coeff-En:   0.000D+00 0.100D+01
 Coeff:      0.000D+00 0.100D+01
 Gap=     0.292 Goal=   None    Shift=    0.000
 RMSDP=3.99D-02 MaxDP=4.01D+00 DE=-2.88D-01 OVMax= 7.64D-02

 Cycle   3  Pass 1  IDiag  1:
 RMSU=  4.40D-03    CP:  5.09D-01  3.00D+00
 E= -3010.39590155281     Delta-E=       -0.396159215893 Rises=F Damp=F
 DIIS: error= 6.49D-02 at cycle   3 NSaved=   3.
 NSaved= 3 IEnMin= 3 EnMin= -3010.39590155281     IErMin= 3 ErrMin= 6.49D-02
 ErrMax= 6.49D-02  0.00D+00 EMaxC= 1.00D-01 BMatC= 7.16D-01 BMatP= 5.46D+00
 IDIUse=3 WtCom= 3.51D-01 WtEn= 6.49D-01
 Coeff-Com:  0.280D+01-0.368D+01 0.188D+01
 Coeff-En:   0.480D-02 0.000D+00 0.995D+00
 Coeff:      0.983D+00-0.129D+01 0.131D+01
 Gap=     0.265 Goal=   None    Shift=    0.000
 RMSDP=8.61D-03 MaxDP=4.32D-01 DE=-3.96D-01 OVMax= 6.51D-02

 Cycle   4  Pass 1  IDiag  1:
 RMSU=  5.86D-03    CP:  5.45D-01  2.53D+00  1.65D+00
 E= -3010.49471469560     Delta-E=       -0.098813142787 Rises=F Damp=F
 DIIS: error= 3.95D-02 at cycle   4 NSaved=   4.
 NSaved= 4 IEnMin= 4 EnMin= -3010.49471469560     IErMin= 4 ErrMin= 3.95D-02
 ErrMax= 3.95D-02  0.00D+00 EMaxC= 1.00D-01 BMatC= 2.45D-01 BMatP= 7.16D-01
 IDIUse=3 WtCom= 6.05D-01 WtEn= 3.95D-01
 Coeff-Com: -0.146D+00 0.207D+00 0.301D+00 0.637D+00
 Coeff-En:   0.000D+00 0.000D+00 0.207D+00 0.793D+00
 Coeff:     -0.882D-01 0.125D+00 0.264D+00 0.699D+00
 Gap=     0.259 Goal=   None    Shift=    0.000
 RMSDP=3.92D-03 MaxDP=3.12D-01 DE=-9.88D-02 OVMax= 2.74D-02

 Cycle   5  Pass 1  IDiag  1:
 RMSU=  1.74D-03    CP:  5.14D-01  2.76D+00  1.51D+00  8.50D-01
 E= -3010.54142359854     Delta-E=       -0.046708902943 Rises=F Damp=F
 DIIS: error= 6.92D-03 at cycle   5 NSaved=   5.
 NSaved= 5 IEnMin= 5 EnMin= -3010.54142359854     IErMin= 5 ErrMin= 6.92D-03
 ErrMax= 6.92D-03  0.00D+00 EMaxC= 1.00D-01 BMatC= 7.90D-03 BMatP= 2.45D-01
 IDIUse=3 WtCom= 9.31D-01 WtEn= 6.92D-02
 Coeff-Com: -0.137D+00 0.187D+00 0.692D-01 0.345D+00 0.536D+00
 Coeff-En:   0.000D+00 0.000D+00 0.000D+00 0.000D+00 0.100D+01
 Coeff:     -0.128D+00 0.174D+00 0.644D-01 0.321D+00 0.569D+00
 Gap=     0.258 Goal=   None    Shift=    0.000
 RMSDP=7.17D-04 MaxDP=4.34D-02 DE=-4.67D-02 OVMax= 1.44D-02

 Cycle   6  Pass 1  IDiag  1:
 RMSU=  4.80D-04    CP:  5.15D-01  2.77D+00  1.53D+00  8.72D-01  7.09D-01
 E= -3010.54308383338     Delta-E=       -0.001660234841 Rises=F Damp=F
 DIIS: error= 2.07D-03 at cycle   6 NSaved=   6.
 NSaved= 6 IEnMin= 6 EnMin= -3010.54308383338     IErMin= 6 ErrMin= 2.07D-03
 ErrMax= 2.07D-03  0.00D+00 EMaxC= 1.00D-01 BMatC= 3.89D-04 BMatP= 7.90D-03
 IDIUse=3 WtCom= 9.79D-01 WtEn= 2.07D-02
 Coeff-Com: -0.977D-01 0.131D+00 0.127D-02 0.164D+00 0.376D+00 0.425D+00
 Coeff-En:   0.000D+00 0.000D+00 0.000D+00 0.000D+00 0.174D-01 0.983D+00
 Coeff:     -0.956D-01 0.129D+00 0.124D-02 0.160D+00 0.368D+00 0.437D+00
 Gap=     0.256 Goal=   None    Shift=    0.000
 RMSDP=2.22D-04 MaxDP=1.48D-02 DE=-1.66D-03 OVMax= 7.17D-03

 Cycle   7  Pass 1  IDiag  1:
 RMSU=  1.59D-04    CP:  5.15D-01  2.76D+00  1.53D+00  8.73D-01  7.81D-01
                    CP:  8.33D-01
 E= -3010.54336247752     Delta-E=       -0.000278644133 Rises=F Damp=F
 DIIS: error= 4.18D-04 at cycle   7 NSaved=   7.
 NSaved= 7 IEnMin= 7 EnMin= -3010.54336247752     IErMin= 7 ErrMin= 4.18D-04
 ErrMax= 4.18D-04  0.00D+00 EMaxC= 1.00D-01 BMatC= 1.99D-05 BMatP= 3.89D-04
 IDIUse=3 WtCom= 9.96D-01 WtEn= 4.18D-03
 Coeff-Com: -0.329D-01 0.438D-01-0.142D-01 0.259D-01 0.817D-01 0.198D+00
 Coeff-Com:  0.698D+00
 Coeff-En:   0.000D+00 0.000D+00 0.000D+00 0.000D+00 0.000D+00 0.000D+00
 Coeff-En:   0.100D+01
 Coeff:     -0.328D-01 0.436D-01-0.142D-01 0.258D-01 0.814D-01 0.197D+00
 Coeff:      0.699D+00
 Gap=     0.255 Goal=   None    Shift=    0.000
 RMSDP=1.34D-04 MaxDP=1.06D-02 DE=-2.79D-04 OVMax= 3.21D-03

 Cycle   8  Pass 1  IDiag  1:
 RMSU=  7.04D-05    CP:  5.15D-01  2.75D+00  1.54D+00  8.79D-01  8.24D-01
                    CP:  8.62D-01  1.02D+00
 E= -3010.54338905833     Delta-E=       -0.000026580812 Rises=F Damp=F
 DIIS: error= 1.10D-04 at cycle   8 NSaved=   8.
 NSaved= 8 IEnMin= 8 EnMin= -3010.54338905833     IErMin= 8 ErrMin= 1.10D-04
 ErrMax= 1.10D-04  0.00D+00 EMaxC= 1.00D-01 BMatC= 2.39D-06 BMatP= 1.99D-05
 IDIUse=3 WtCom= 9.99D-01 WtEn= 1.10D-03
 Coeff-Com:  0.861D-02-0.117D-01-0.318D-02-0.187D-01-0.427D-01-0.402D-01
 Coeff-Com:  0.162D+00 0.946D+00
 Coeff-En:   0.000D+00 0.000D+00 0.000D+00 0.000D+00 0.000D+00 0.000D+00
 Coeff-En:   0.000D+00 0.100D+01
 Coeff:      0.860D-02-0.117D-01-0.318D-02-0.187D-01-0.426D-01-0.401D-01
 Coeff:      0.162D+00 0.946D+00
 Gap=     0.255 Goal=   None    Shift=    0.000
 RMSDP=6.25D-05 MaxDP=3.91D-03 DE=-2.66D-05 OVMax= 2.48D-03

 Cycle   9  Pass 1  IDiag  1:
 RMSU=  2.83D-05    CP:  5.15D-01  2.74D+00  1.54D+00  8.81D-01  8.22D-01
                    CP:  9.18D-01  1.21D+00  1.21D+00
 E= -3010.54339631483     Delta-E=       -0.000007256506 Rises=F Damp=F
 DIIS: error= 5.03D-05 at cycle   9 NSaved=   9.
 NSaved= 9 IEnMin= 9 EnMin= -3010.54339631483     IErMin= 9 ErrMin= 5.03D-05
 ErrMax= 5.03D-05  0.00D+00 EMaxC= 1.00D-01 BMatC= 3.39D-07 BMatP= 2.39D-06
 IDIUse=1 WtCom= 1.00D+00 WtEn= 0.00D+00
 Coeff-Com:  0.691D-02-0.926D-02 0.890D-03-0.923D-02-0.218D-01-0.405D-01
 Coeff-Com: -0.633D-01 0.286D+00 0.850D+00
 Coeff:      0.691D-02-0.926D-02 0.890D-03-0.923D-02-0.218D-01-0.405D-01
 Coeff:     -0.633D-01 0.286D+00 0.850D+00
 Gap=     0.255 Goal=   None    Shift=    0.000
 RMSDP=2.03D-05 MaxDP=1.20D-03 DE=-7.26D-06 OVMax= 1.12D-03

 Cycle  10  Pass 1  IDiag  1:
 RMSU=  1.01D-05    CP:  5.15D-01  2.74D+00  1.54D+00  8.81D-01  8.26D-01
                    CP:  9.24D-01  1.25D+00  1.32D+00  1.24D+00
 E= -3010.54339756766     Delta-E=       -0.000001252825 Rises=F Damp=F
 DIIS: error= 1.76D-05 at cycle  10 NSaved=  10.
 NSaved=10 IEnMin=10 EnMin= -3010.54339756766     IErMin=10 ErrMin= 1.76D-05
 ErrMax= 1.76D-05  0.00D+00 EMaxC= 1.00D-01 BMatC= 7.79D-08 BMatP= 3.39D-07
 IDIUse=1 WtCom= 1.00D+00 WtEn= 0.00D+00
 Coeff-Com:  0.359D-03-0.450D-03 0.468D-03-0.112D-04 0.152D-02-0.385D-02
 Coeff-Com: -0.456D-01-0.554D-01 0.276D+00 0.827D+00
 Coeff:      0.359D-03-0.450D-03 0.468D-03-0.112D-04 0.152D-02-0.385D-02
 Coeff:     -0.456D-01-0.554D-01 0.276D+00 0.827D+00
 Gap=     0.255 Goal=   None    Shift=    0.000
 RMSDP=1.22D-05 MaxDP=7.98D-04 DE=-1.25D-06 OVMax= 4.47D-04

 Cycle  11  Pass 1  IDiag  1:
 RMSU=  6.19D-06    CP:  5.15D-01  2.74D+00  1.54D+00  8.80D-01  8.24D-01
                    CP:  9.30D-01  1.25D+00  1.32D+00  1.51D+00  1.27D+00
 E= -3010.54339776772     Delta-E=       -0.000000200064 Rises=F Damp=F
 DIIS: error= 7.02D-06 at cycle  11 NSaved=  11.
 NSaved=11 IEnMin=11 EnMin= -3010.54339776772     IErMin=11 ErrMin= 7.02D-06
 ErrMax= 7.02D-06  0.00D+00 EMaxC= 1.00D-01 BMatC= 6.88D-09 BMatP= 7.79D-08
 IDIUse=1 WtCom= 1.00D+00 WtEn= 0.00D+00
 Coeff-Com: -0.391D-03 0.529D-03 0.102D-03 0.944D-03 0.292D-02 0.422D-02
 Coeff-Com:  0.693D-03-0.453D-01-0.720D-01 0.139D+00 0.970D+00
 Coeff:     -0.391D-03 0.529D-03 0.102D-03 0.944D-03 0.292D-02 0.422D-02
 Coeff:      0.693D-03-0.453D-01-0.720D-01 0.139D+00 0.970D+00
 Gap=     0.255 Goal=   None    Shift=    0.000
 RMSDP=5.41D-06 MaxDP=3.93D-04 DE=-2.00D-07 OVMax= 1.91D-04

 Cycle  12  Pass 1  IDiag  1:
 RMSU=  1.49D-06    CP:  5.15D-01  2.74D+00  1.54D+00  8.80D-01  8.24D-01
                    CP:  9.31D-01  1.24D+00  1.31D+00  1.62D+00  1.50D+00
                    CP:  1.31D+00
 E= -3010.54339780014     Delta-E=       -0.000000032417 Rises=F Damp=F
 DIIS: error= 2.94D-06 at cycle  12 NSaved=  12.
 NSaved=12 IEnMin=12 EnMin= -3010.54339780014     IErMin=12 ErrMin= 2.94D-06
 ErrMax= 2.94D-06  0.00D+00 EMaxC= 1.00D-01 BMatC= 2.37D-09 BMatP= 6.88D-09
 IDIUse=1 WtCom= 1.00D+00 WtEn= 0.00D+00
 Coeff-Com: -0.199D-03 0.264D-03-0.855D-05 0.442D-03 0.924D-03 0.244D-02
 Coeff-Com:  0.949D-02-0.104D-01-0.892D-01-0.104D+00 0.470D+00 0.720D+00
 Coeff:     -0.199D-03 0.264D-03-0.855D-05 0.442D-03 0.924D-03 0.244D-02
 Coeff:      0.949D-02-0.104D-01-0.892D-01-0.104D+00 0.470D+00 0.720D+00
 Gap=     0.255 Goal=   None    Shift=    0.000
 RMSDP=2.30D-06 MaxDP=1.96D-04 DE=-3.24D-08 OVMax= 7.20D-05

 Cycle  13  Pass 1  IDiag  1:
 RMSU=  5.65D-07    CP:  5.15D-01  2.74D+00  1.54D+00  8.80D-01  8.23D-01
                    CP:  9.32D-01  1.24D+00  1.31D+00  1.66D+00  1.58D+00
                    CP:  1.51D+00  1.03D+00
 E= -3010.54339780548     Delta-E=       -0.000000005344 Rises=F Damp=F
 DIIS: error= 7.63D-07 at cycle  13 NSaved=  13.
 NSaved=13 IEnMin=13 EnMin= -3010.54339780548     IErMin=13 ErrMin= 7.63D-07
 ErrMax= 7.63D-07  0.00D+00 EMaxC= 1.00D-01 BMatC= 1.47D-10 BMatP= 2.37D-09
 IDIUse=1 WtCom= 1.00D+00 WtEn= 0.00D+00
 Coeff-Com: -0.370D-04 0.493D-04-0.123D-04 0.298D-05-0.242D-03-0.370D-03
 Coeff-Com:  0.530D-03 0.227D-02-0.175D-02-0.209D-01-0.265D-01 0.119D+00
 Coeff-Com:  0.928D+00
 Coeff:     -0.370D-04 0.493D-04-0.123D-04 0.298D-05-0.242D-03-0.370D-03
 Coeff:      0.530D-03 0.227D-02-0.175D-02-0.209D-01-0.265D-01 0.119D+00
 Coeff:      0.928D+00
 Gap=     0.255 Goal=   None    Shift=    0.000
 RMSDP=6.39D-07 MaxDP=4.34D-05 DE=-5.34D-09 OVMax= 1.23D-05

 Cycle  14  Pass 1  IDiag  1:
 RMSU=  2.61D-07    CP:  5.15D-01  2.74D+00  1.54D+00  8.80D-01  8.24D-01
                    CP:  9.32D-01  1.24D+00  1.31D+00  1.67D+00  1.58D+00
                    CP:  1.54D+00  1.20D+00  1.19D+00
 E= -3010.54339780579     Delta-E=       -0.000000000307 Rises=F Damp=F
 DIIS: error= 2.96D-07 at cycle  14 NSaved=  14.
 NSaved=14 IEnMin=14 EnMin= -3010.54339780579     IErMin=14 ErrMin= 2.96D-07
 ErrMax= 2.96D-07  0.00D+00 EMaxC= 1.00D-01 BMatC= 2.22D-11 BMatP= 1.47D-10
 IDIUse=1 WtCom= 1.00D+00 WtEn= 0.00D+00
 Coeff-Com: -0.429D-06 0.856D-06-0.645D-05-0.463D-04-0.197D-03-0.455D-03
 Coeff-Com: -0.999D-03 0.238D-02 0.111D-01 0.507D-02-0.769D-01-0.488D-01
 Coeff-Com:  0.330D+00 0.779D+00
 Coeff:     -0.429D-06 0.856D-06-0.645D-05-0.463D-04-0.197D-03-0.455D-03
 Coeff:     -0.999D-03 0.238D-02 0.111D-01 0.507D-02-0.769D-01-0.488D-01
 Coeff:      0.330D+00 0.779D+00
 Gap=     0.255 Goal=   None    Shift=    0.000
 RMSDP=2.38D-07 MaxDP=1.54D-05 DE=-3.07D-10 OVMax= 5.83D-06

 Cycle  15  Pass 1  IDiag  1:
 RMSU=  6.39D-08    CP:  5.15D-01  2.74D+00  1.54D+00  8.80D-01  8.24D-01
                    CP:  9.33D-01  1.24D+00  1.31D+00  1.68D+00  1.58D+00
                    CP:  1.56D+00  1.28D+00  1.34D+00  1.12D+00
 E= -3010.54339780585     Delta-E=       -0.000000000063 Rises=F Damp=F
 DIIS: error= 8.36D-08 at cycle  15 NSaved=  15.
 NSaved=15 IEnMin=15 EnMin= -3010.54339780585     IErMin=15 ErrMin= 8.36D-08
 ErrMax= 8.36D-08  0.00D+00 EMaxC= 1.00D-01 BMatC= 2.56D-12 BMatP= 2.22D-11
 IDIUse=1 WtCom= 1.00D+00 WtEn= 0.00D+00
 Coeff-Com:  0.450D-05-0.597D-05 0.122D-06-0.675D-05 0.139D-04-0.179D-04
 Coeff-Com: -0.258D-03 0.624D-04 0.219D-02 0.440D-02-0.117D-01-0.255D-01
 Coeff-Com: -0.780D-01 0.147D+00 0.962D+00
 Coeff:      0.450D-05-0.597D-05 0.122D-06-0.675D-05 0.139D-04-0.179D-04
 Coeff:     -0.258D-03 0.624D-04 0.219D-02 0.440D-02-0.117D-01-0.255D-01
 Coeff:     -0.780D-01 0.147D+00 0.962D+00
 Gap=     0.255 Goal=   None    Shift=    0.000
 RMSDP=1.00D-07 MaxDP=7.40D-06 DE=-6.28D-11 OVMax= 3.50D-06

 Cycle  16  Pass 1  IDiag  1:
 RMSU=  3.81D-08    CP:  5.15D-01  2.74D+00  1.54D+00  8.80D-01  8.24D-01
                    CP:  9.33D-01  1.24D+00  1.31D+00  1.68D+00  1.58D+00
                    CP:  1.56D+00  1.30D+00  1.41D+00  1.26D+00  1.25D+00
 E= -3010.54339780592     Delta-E=       -0.000000000070 Rises=F Damp=F
 DIIS: error= 3.40D-08 at cycle  16 NSaved=  16.
 NSaved=16 IEnMin=16 EnMin= -3010.54339780592     IErMin=16 ErrMin= 3.40D-08
 ErrMax= 3.40D-08  0.00D+00 EMaxC= 1.00D-01 BMatC= 5.42D-13 BMatP= 2.56D-12
 IDIUse=1 WtCom= 1.00D+00 WtEn= 0.00D+00
 Coeff-Com:  0.130D-05-0.176D-05 0.111D-05 0.524D-05 0.336D-04 0.612D-04
 Coeff-Com:  0.528D-04-0.367D-03-0.966D-03 0.963D-03 0.754D-02 0.807D-03
 Coeff-Com: -0.659D-01-0.888D-01 0.250D+00 0.897D+00
 Coeff:      0.130D-05-0.176D-05 0.111D-05 0.524D-05 0.336D-04 0.612D-04
 Coeff:      0.528D-04-0.367D-03-0.966D-03 0.963D-03 0.754D-02 0.807D-03
 Coeff:     -0.659D-01-0.888D-01 0.250D+00 0.897D+00
 Gap=     0.255 Goal=   None    Shift=    0.000
 RMSDP=4.26D-08 MaxDP=3.02D-06 DE=-6.96D-11 OVMax= 1.69D-06

 Cycle  17  Pass 1  IDiag  1:
 RMSU=  1.00D-08    CP:  5.15D-01  2.74D+00  1.54D+00  8.80D-01  8.24D-01
                    CP:  9.33D-01  1.24D+00  1.31D+00  1.68D+00  1.58D+00
                    CP:  1.56D+00  1.31D+00  1.43D+00  1.30D+00  1.52D+00
                    CP:  1.21D+00
 E= -3010.54339780590     Delta-E=        0.000000000020 Rises=F Damp=F
 DIIS: error= 1.55D-08 at cycle  17 NSaved=  17.
 NSaved=17 IEnMin=16 EnMin= -3010.54339780592     IErMin=17 ErrMin= 1.55D-08
 ErrMax= 1.55D-08  0.00D+00 EMaxC= 1.00D-01 BMatC= 9.93D-14 BMatP= 5.42D-13
 IDIUse=1 WtCom= 1.00D+00 WtEn= 0.00D+00
 Coeff-Com:  0.934D-07-0.131D-06 0.310D-06 0.143D-05 0.373D-05 0.129D-04
 Coeff-Com:  0.389D-04-0.638D-04-0.478D-03-0.301D-03 0.283D-02 0.356D-02
 Coeff-Com: -0.129D-02-0.489D-01-0.114D+00 0.235D+00 0.923D+00
 Coeff:      0.934D-07-0.131D-06 0.310D-06 0.143D-05 0.373D-05 0.129D-04
 Coeff:      0.389D-04-0.638D-04-0.478D-03-0.301D-03 0.283D-02 0.356D-02
 Coeff:     -0.129D-02-0.489D-01-0.114D+00 0.235D+00 0.923D+00
 Gap=     0.255 Goal=   None    Shift=    0.000
 RMSDP=1.72D-08 MaxDP=8.88D-07 DE= 2.00D-11 OVMax= 8.10D-07

 Cycle  18  Pass 1  IDiag  1:
 RMSU=  4.66D-09    CP:  5.15D-01  2.74D+00  1.54D+00  8.80D-01  8.24D-01
                    CP:  9.33D-01  1.24D+00  1.31D+00  1.68D+00  1.58D+00
                    CP:  1.56D+00  1.31D+00  1.44D+00  1.32D+00  1.58D+00
                    CP:  1.45D+00  1.26D+00
 E= -3010.54339780588     Delta-E=        0.000000000021 Rises=F Damp=F
 DIIS: error= 5.97D-09 at cycle  18 NSaved=  18.
 NSaved=18 IEnMin=16 EnMin= -3010.54339780592     IErMin=18 ErrMin= 5.97D-09
 ErrMax= 5.97D-09  0.00D+00 EMaxC= 1.00D-01 BMatC= 1.93D-14 BMatP= 9.93D-14
 IDIUse=1 WtCom= 1.00D+00 WtEn= 0.00D+00
 Coeff-Com:  0.359D-07-0.471D-07-0.123D-06-0.113D-05-0.686D-05-0.103D-04
 Coeff-Com: -0.269D-05 0.770D-04 0.800D-04-0.320D-03-0.104D-02 0.729D-03
 Coeff-Com:  0.164D-01 0.755D-02-0.889D-01-0.131D+00 0.234D+00 0.962D+00
 Coeff:      0.359D-07-0.471D-07-0.123D-06-0.113D-05-0.686D-05-0.103D-04
 Coeff:     -0.269D-05 0.770D-04 0.800D-04-0.320D-03-0.104D-02 0.729D-03
 Coeff:      0.164D-01 0.755D-02-0.889D-01-0.131D+00 0.234D+00 0.962D+00
 Gap=     0.255 Goal=   None    Shift=    0.000
 RMSDP=7.89D-09 MaxDP=5.81D-07 DE= 2.14D-11 OVMax= 3.22D-07

 SCF Done:  E(RwB97XD) =  -3010.54339781     A.U. after   18 cycles
            NFock= 18  Conv=0.79D-08     -V/T= 2.0016
 KE= 3.005859882559D+03 PE=-8.634262565594D+03 EE= 1.876895993224D+03
 Leave Link  502 at Wed May  1 15:17:29 2024, MaxMem=  1207959552 cpu:            1050.0 elap:            1050.0
 (Enter /software/gaussian/g16-c01/sse4/g16/l601.exe)
 Copying SCF densities to generalized density rwf, IOpCl= 0 IROHF=0.

 **********************************************************************

            Population analysis using the SCF Density.

 **********************************************************************

 Alpha  occ. eigenvalues -- -483.33633 -62.88693 -56.68337 -56.67832 -56.67831
 Alpha  occ. eigenvalues --  -19.46351 -19.46264 -14.85845 -10.59420 -10.58224
 Alpha  occ. eigenvalues --  -10.57779 -10.57598 -10.57296 -10.53445  -9.04523
 Alpha  occ. eigenvalues --   -6.87069  -6.85402  -6.85390  -2.97005  -2.96559
 Alpha  occ. eigenvalues --   -2.96548  -2.95213  -2.95213  -1.50096  -1.33068
 Alpha  occ. eigenvalues --   -1.23360  -1.15140  -1.12399  -1.06220  -1.01559
 Alpha  occ. eigenvalues --   -0.96164  -0.91520  -0.85737  -0.81290  -0.81135
 Alpha  occ. eigenvalues --   -0.80467  -0.78771  -0.76583  -0.76457  -0.73450
 Alpha  occ. eigenvalues --   -0.69935  -0.68135  -0.64763  -0.61674  -0.59275
 Alpha  occ. eigenvalues --   -0.57544  -0.57074  -0.56515  -0.56050
 Alpha virt. eigenvalues --   -0.30597  -0.21800  -0.17475  -0.14257  -0.13603
 Alpha virt. eigenvalues --   -0.10008  -0.09013  -0.07716  -0.06195  -0.05422
 Alpha virt. eigenvalues --   -0.04204  -0.03572  -0.02927  -0.02250  -0.01761
 Alpha virt. eigenvalues --   -0.00440   0.00195   0.01183   0.01692   0.03028
 Alpha virt. eigenvalues --    0.04416   0.04824   0.05517   0.05835   0.06353
 Alpha virt. eigenvalues --    0.06754   0.07881   0.08137   0.08560   0.08885
 Alpha virt. eigenvalues --    0.10406   0.10992   0.11559   0.11892   0.12559
 Alpha virt. eigenvalues --    0.12710   0.13368   0.14035   0.14925   0.15886
 Alpha virt. eigenvalues --    0.16463   0.17188   0.17965   0.18916   0.19043
 Alpha virt. eigenvalues --    0.19796   0.20637   0.21207   0.21819   0.24401
 Alpha virt. eigenvalues --    0.25256   0.26429   0.27274   0.27873   0.28051
 Alpha virt. eigenvalues --    0.30351   0.32305   0.33595   0.34403   0.35898
 Alpha virt. eigenvalues --    0.37101   0.37657   0.38039   0.39923   0.40512
 Alpha virt. eigenvalues --    0.42364   0.43318   0.44244   0.46342   0.46900
 Alpha virt. eigenvalues --    0.47732   0.48736   0.49589   0.51496   0.53139
 Alpha virt. eigenvalues --    0.53590   0.54543   0.55861   0.56803   0.58972
 Alpha virt. eigenvalues --    0.60560   0.61681   0.63142   0.65589   0.68069
 Alpha virt. eigenvalues --    0.69835   0.71159   0.72389   0.72612   0.73618
 Alpha virt. eigenvalues --    0.73970   0.78987   0.79210   0.81461   0.84300
 Alpha virt. eigenvalues --    0.85425   0.87415   0.91393   0.92223   0.97881
 Alpha virt. eigenvalues --    0.99148   1.00453   1.03907   1.04890   1.05952
 Alpha virt. eigenvalues --    1.08249   1.10662   1.11427   1.11958   1.13782
 Alpha virt. eigenvalues --    1.21596   1.24063   1.26286   1.32350   1.35923
 Alpha virt. eigenvalues --    1.36325   1.37299   1.44272   1.53791   1.56548
 Alpha virt. eigenvalues --    1.57918   1.58159   1.60070   1.61810   1.65609
 Alpha virt. eigenvalues --    1.68573   1.68952   1.72943   1.74796   1.78431
 Alpha virt. eigenvalues --    1.80522   1.84933   1.86614   1.90817   1.93025
 Alpha virt. eigenvalues --    1.96851   2.02323   2.03032   2.05332   2.07208
 Alpha virt. eigenvalues --    2.08792   2.14040   2.19860   2.22162   2.28932
 Alpha virt. eigenvalues --    2.37165   2.40626   2.42218   2.43010   2.51900
 Alpha virt. eigenvalues --    2.56203   2.62488   2.65503   2.67645   2.71218
 Alpha virt. eigenvalues --    2.72865   2.75984   2.76821   2.80445   2.81051
 Alpha virt. eigenvalues --    2.92695   2.95628   3.00173   3.04862   3.08274
 Alpha virt. eigenvalues --    3.12464   3.14346   3.18532   3.23153   3.23770
 Alpha virt. eigenvalues --    3.26876   3.38595   3.47092   3.50668   3.53902
 Alpha virt. eigenvalues --    3.56293   3.69438   3.73634   3.81524   3.86470
 Alpha virt. eigenvalues --    4.06197   4.06446   4.14190   4.19362   4.40259
 Alpha virt. eigenvalues --    4.43878   4.56714   4.59357   4.92727   4.95398
 Alpha virt. eigenvalues --    5.04040   5.08206   5.62343   6.15294   6.62042
 Alpha virt. eigenvalues --    7.44840   7.46438   7.56373  23.20575  23.60642
 Alpha virt. eigenvalues --   23.68495  23.78730  23.95416  24.00745  35.32113
 Alpha virt. eigenvalues --   47.88718  49.85082  49.93893 289.78076 289.79745
 Alpha virt. eigenvalues --  289.922221020.89187
          Condensed to atoms (all electrons):
               1          2          3          4          5          6
     1  C    9.000283  -2.769428   0.572458  -1.855654  -0.779728   0.323281
     2  C   -2.769428  13.953080  -2.553842  -2.231273   1.226753  -0.022871
     3  C    0.572458  -2.553842  13.281324  -2.930285  -1.600227   0.024770
     4  C   -1.855654  -2.231273  -2.930285  14.577346   1.494532   0.016518
     5  C   -0.779728   1.226753  -1.600227   1.494532   7.765238   0.005425
     6  H    0.323281  -0.022871   0.024770   0.016518   0.005425   0.329860
     7  H    0.066237   0.223723   0.083613  -0.029007  -0.018638  -0.001706
     8  H    0.004863  -0.013527   0.074318   0.249362  -0.020112  -0.000002
     9  H    0.026423  -0.015489   0.007502  -0.009604   0.312696  -0.002100
    10  N   -0.169030   0.365826  -1.038951   0.426413   0.039850  -0.000661
    11  O    0.011700  -0.021075  -0.230493  -0.058657  -0.049956  -0.000038
    12  O    0.330514  -0.063517  -0.239119  -0.101200  -0.045906   0.000019
    13  C    1.779965  -2.560047   1.212614  -3.879674  -2.394718  -0.012540
    14  H   -0.007184   0.002514  -0.000138  -0.076360  -0.028623  -0.000028
    15  Br   0.074139  -0.085767   0.066196   0.103105   0.042728  -0.000574
               7          8          9         10         11         12
     1  C    0.066237   0.004863   0.026423  -0.169030   0.011700   0.330514
     2  C    0.223723  -0.013527  -0.015489   0.365826  -0.021075  -0.063517
     3  C    0.083613   0.074318   0.007502  -1.038951  -0.230493  -0.239119
     4  C   -0.029007   0.249362  -0.009604   0.426413  -0.058657  -0.101200
     5  C   -0.018638  -0.020112   0.312696   0.039850  -0.049956  -0.045906
     6  H   -0.001706  -0.000002  -0.002100  -0.000661  -0.000038   0.000019
     7  H    0.299786  -0.000013   0.000010  -0.027515  -0.001497   0.022743
     8  H   -0.000013   0.287667   0.000062  -0.024994   0.021283  -0.000564
     9  H    0.000010   0.000062   0.315060   0.000260   0.000017   0.000009
    10  N   -0.027515  -0.024994   0.000260   7.437552   0.151304   0.134580
    11  O   -0.001497   0.021283   0.000017   0.151304   7.861380  -0.000259
    12  O    0.022743  -0.000564   0.000009   0.134580  -0.000259   7.885368
    13  C    0.013561   0.045835   0.013157  -0.192813   0.285124   0.045681
    14  H   -0.000008  -0.002286  -0.003723   0.000772  -0.000414  -0.000121
    15  Br  -0.000135  -0.001166  -0.002359   0.004519  -0.001786   0.002412
              13         14         15
     1  C    1.779965  -0.007184   0.074139
     2  C   -2.560047   0.002514  -0.085767
     3  C    1.212614  -0.000138   0.066196
     4  C   -3.879674  -0.076360   0.103105
     5  C   -2.394718  -0.028623   0.042728
     6  H   -0.012540  -0.000028  -0.000574
     7  H    0.013561  -0.000008  -0.000135
     8  H    0.045835  -0.002286  -0.001166
     9  H    0.013157  -0.003723  -0.002359
    10  N   -0.192813   0.000772   0.004519
    11  O    0.285124  -0.000414  -0.001786
    12  O    0.045681  -0.000121   0.002412
    13  C   11.798249   0.409197  -0.091520
    14  H    0.409197   0.274438  -0.025434
    15  Br  -0.091520  -0.025434  34.884921
 Mulliken charges:
               1
     1  C   -0.608840
     2  C    0.564940
     3  C   -0.729739
     4  C    0.304438
     5  C    0.050684
     6  H    0.340649
     7  H    0.368847
     8  H    0.379273
     9  H    0.358078
    10  N   -0.107111
    11  O    0.033368
    12  O    0.029363
    13  C   -0.472071
    14  H    0.457399
    15  Br   0.030721
 Sum of Mulliken charges =   1.00000
 Mulliken charges with hydrogens summed into heavy atoms:
               1
     1  C   -0.268191
     2  C    0.933787
     3  C   -0.729739
     4  C    0.683711
     5  C    0.408763
    10  N   -0.107111
    11  O    0.033368
    12  O    0.029363
    13  C   -0.014672
    15  Br   0.030721
 Electronic spatial extent (au):  <R**2>=           2800.9118
 Charge=              1.0000 electrons
 Dipole moment (field-independent basis, Debye):
    X=             -0.4524    Y=             -0.0133    Z=              2.6637  Tot=              2.7019
 Quadrupole moment (field-independent basis, Debye-Ang):
   XX=            -70.7379   YY=            -52.8087   ZZ=            -65.7222
   XY=              0.8852   XZ=              2.3423   YZ=             -0.6346
 Traceless Quadrupole moment (field-independent basis, Debye-Ang):
   XX=             -7.6482   YY=             10.2809   ZZ=             -2.6326
   XY=              0.8852   XZ=              2.3423   YZ=             -0.6346
 Octapole moment (field-independent basis, Debye-Ang**2):
  XXX=           -296.5055  YYY=             91.7630  ZZZ=             90.0414  XYY=            -74.6370
  XXY=             30.8090  XXZ=             41.2527  XZZ=            -76.4699  YZZ=             22.4522
  YYZ=             33.5675  XYZ=             -1.8283
 Hexadecapole moment (field-independent basis, Debye-Ang**3):
 XXXX=          -2269.4020 YYYY=           -685.7012 ZZZZ=           -376.9969 XXXY=            -70.0749
 XXXZ=              3.0215 YYYX=            -62.3428 YYYZ=           -169.4818 ZZZX=            -20.2601
 ZZZY=           -153.7689 XXYY=           -456.2559 XXZZ=           -374.5995 YYZZ=           -177.3236
 XXYZ=            -56.7473 YYXZ=             -2.2646 ZZXY=            -12.1087
 N-N= 7.409632920055D+02 E-N=-8.634262567206D+03  KE= 3.005859882559D+03
 No NMR shielding tensors so no spin-rotation constants.
 Leave Link  601 at Wed May  1 15:17:36 2024, MaxMem=  1207959552 cpu:               7.3 elap:               7.3
 (Enter /software/gaussian/g16-c01/sse4/g16/l9999.exe)
 Unable to Open any file for archive entry.
 1\1\GINC-BHX0004\SP\RwB97XD\6-311+G(d)\C6H5Br1N1O2(1+)\BWEIGHT\01-May-
 2024\0\\#P wB97XD/6-311+G* NoSymm #P Field=Z-155\\TitleMe\\1,1\C,0,0.0
 295,1.3397,0.0682\C,0,1.4348,1.2867,0.0064\C,0,2.1118,0.0511,-0.0054\C
 ,0,1.4451,-1.1372,0.0312\C,0,-0.6879,0.1682,0.11\H,0,-0.4713,2.2984,0.
 0781\H,0,2.0273,2.1965,-0.0322\H,0,1.9897,-2.0764,0.0232\H,0,-1.7716,0
 .1804,0.1582\N,0,3.5864,0.051,-0.0675\O,0,4.1471,-1.0597,-0.0881\O,0,4
 .145,1.1639,-0.0901\C,0,-0.0236,-1.1458,0.0835\H,0,-0.4367,-1.8725,0.7
 889\Br,0,-0.5359,-1.8697,-1.7408\\Version=ES64L-G16RevC.01\HF=-3010.54
 33978\RMSD=7.891e-09\Dipole=-2.0845122,1.1428676,2.1941683\Quadrupole=
 -5.6862845,7.6435761,-1.9572916,0.6581338,1.741407,-0.4718189\PG=C01 [
 X(C6H5Br1N1O2)]\\@
 The archive entry for this job was punched.


 THOUGH I SPEAK WITH THE TONGUES OF MEN AND OF ANGELS, 
 AND HAVE NOT LOVE,
 I AM BECOME AS SOUNDING BRASS, A TINKLING CYMBAL.
 AND THOUGH I HAVE THE GIFT OF PROPHECY,
 AND UNDERSTAND ALL MYSTERIES, AND ALL KNOWLEDGE.
 AND THOUGH I HAVE ALL FAITH, SO THAT I COULD REMOVE MOUNTAINS,
 AND HAVE NOT LOVE, I AM NOTHING.
 AND THOUGH I BESTOW ALL MY GOODS TO FEED THE POOR,
 AND THOUGH I GIVE MY BODY TO BE BURNED,
 AND HAVE NOT LOVE IT PROFITETH ME NOTHING.
 LOVE SUFFERETH LONG, AND IS KIND,
 LOVE ENVIETH NOT,
 LOVE VAUNTETH NOT ITSELF, IS NOT PUFFED UP,
 DOTH NOT BEHAVE ITSELF UNSEEMLY, SEEKETH NOT HER OWN,
 IS NOT EASILY PROVOKED, THINKETH NO EVIL,
 REJOICETH NOT IN INIQUITY, BUT REJOICETH IN THE TRUTH,
 BEARETH ALL THINGS, BELIEVETH ALL THINGS,
 HOPETH ALL THINGS, ENDURETH ALL THINGS.
 LOVE NEVER FAILETH, BUT WHETHER THERE BE PROPHECIES, THEY SHALL FAIL, 
 WHETHER THERE BE TONGUES, THEY SHALL CEASE,
 WHETHER THERE BE KNOWLEDGE, IT SHALL VANISH AWAY.
 FOR WE KNOW IN PART, AND WE PROPHESY IN PART.
 BUT WHEN THAT WHICH IS PERFECT IS COME, THEN THAT WHICH IS IN PART 
 SHALL BE DONE AWAY. 
 WHEN I WAS A CHILD, I SPAKE AS A CHILD, I UNDERSTOOD AS A CHILD, 
 I THOUGHT AS A CHILD.
 BUT WHEN I BECAME A MAN, I PUT AWAY CHILDISH THINGS.
 FOR NOW WE SEE THROUGH A GLASS, DARKLY, BUT THEN FACE TO FACE.
 NOW I KNOW IN PART. BUT THEN SHALL I KNOW EVEN AS ALSO I AM KNOWN.
 AND NOW ABIDETH FAITH, HOPE AND LOVE, THESE THREE.
 BUT THE GREATEST OF THESE IS LOVE.

                     I CORINTHIANS 13
 Job cpu time:       0 days  0 hours 18 minutes 39.2 seconds.
 Elapsed time:       0 days  0 hours 18 minutes 39.2 seconds.
 File lengths (MBytes):  RWF=     40 Int=      0 D2E=      0 Chk=     32 Scr=      1
 Normal termination of Gaussian 16 at Wed May  1 15:17:37 2024.
