 Entering Gaussian System, Link 0=g16
 Initial command:
 /software/gaussian/g16-a03/l1.exe "/local_scratch/6484847/Gau-13683.inp" -scrdir="/local_scratch/6484847/"
 Entering Link 1 = /software/gaussian/g16-a03/l1.exe PID=     13795.
  
 Copyright (c) 1988,1990,1992,1993,1995,1998,2003,2009,2016,
            Gaussian, Inc.  All Rights Reserved.
  
 This is part of the Gaussian(R) 16 program.  It is based on
 the Gaussian(R) 09 system (copyright 2009, Gaussian, Inc.),
 the Gaussian(R) 03 system (copyright 2003, Gaussian, Inc.),
 the Gaussian(R) 98 system (copyright 1998, Gaussian, Inc.),
 the Gaussian(R) 94 system (copyright 1995, Gaussian, Inc.),
 the Gaussian 92(TM) system (copyright 1992, Gaussian, Inc.),
 the Gaussian 90(TM) system (copyright 1990, Gaussian, Inc.),
 the Gaussian 88(TM) system (copyright 1988, Gaussian, Inc.),
 the Gaussian 86(TM) system (copyright 1986, Carnegie Mellon
 University), and the Gaussian 82(TM) system (copyright 1983,
 Carnegie Mellon University). Gaussian is a federally registered
 trademark of Gaussian, Inc.
  
 This software contains proprietary and confidential information,
 including trade secrets, belonging to Gaussian, Inc.
  
 This software is provided under written license and may be
 used, copied, transmitted, or stored only in accord with that
 written license.
  
 The following legend is applicable only to US Government
 contracts under FAR:
  
                    RESTRICTED RIGHTS LEGEND
  
 Use, reproduction and disclosure by the US Government is
 subject to restrictions as set forth in subparagraphs (a)
 and (c) of the Commercial Computer Software - Restricted
 Rights clause in FAR 52.227-19.
  
 Gaussian, Inc.
 340 Quinnipiac St., Bldg. 40, Wallingford CT 06492
  
  
 ---------------------------------------------------------------
 Warning -- This program may not be used in any manner that
 competes with the business of Gaussian, Inc. or will provide
 assistance to any competitor of Gaussian, Inc.  The licensee
 of this program is prohibited from giving any competitor of
 Gaussian, Inc. access to this program.  By using this program,
 the user acknowledges that Gaussian, Inc. is engaged in the
 business of creating and licensing software in the field of
 computational chemistry and represents and warrants to the
 licensee that it is not a competitor of Gaussian, Inc. and that
 it will not use this program in any manner prohibited above.
 ---------------------------------------------------------------
  

 Cite this work as:
 Gaussian 16, Revision A.03,
 M. J. Frisch, G. W. Trucks, H. B. Schlegel, G. E. Scuseria, 
 M. A. Robb, J. R. Cheeseman, G. Scalmani, V. Barone, 
 G. A. Petersson, H. Nakatsuji, X. Li, M. Caricato, A. V. Marenich, 
 J. Bloino, B. G. Janesko, R. Gomperts, B. Mennucci, H. P. Hratchian, 
 J. V. Ortiz, A. F. Izmaylov, J. L. Sonnenberg, D. Williams-Young, 
 F. Ding, F. Lipparini, F. Egidi, J. Goings, B. Peng, A. Petrone, 
 T. Henderson, D. Ranasinghe, V. G. Zakrzewski, J. Gao, N. Rega, 
 G. Zheng, W. Liang, M. Hada, M. Ehara, K. Toyota, R. Fukuda, 
 J. Hasegawa, M. Ishida, T. Nakajima, Y. Honda, O. Kitao, H. Nakai, 
 T. Vreven, K. Throssell, J. A. Montgomery, Jr., J. E. Peralta, 
 F. Ogliaro, M. J. Bearpark, J. J. Heyd, E. N. Brothers, K. N. Kudin, 
 V. N. Staroverov, T. A. Keith, R. Kobayashi, J. Normand, 
 K. Raghavachari, A. P. Rendell, J. C. Burant, S. S. Iyengar, 
 J. Tomasi, M. Cossi, J. M. Millam, M. Klene, C. Adamo, R. Cammi, 
 J. W. Ochterski, R. L. Martin, K. Morokuma, O. Farkas, 
 J. B. Foresman, and D. J. Fox, Gaussian, Inc., Wallingford CT, 2016.
 
 ******************************************
 Gaussian 16:  ES64L-G16RevA.03 25-Dec-2016
                17-Sep-2021 
 ******************************************
 %chk=geometry.chk
 %mem=2GB
 %nprocshared=1
 Will use up to    1 processors via shared memory.
 --------------------------------------------------------------------
 #p B3LYP/6-311+G** #p TD=(singlets,nstates=30)IOp(6/8=3) IOp(9/40=4)
 --------------------------------------------------------------------
 1/38=1,172=1/1;
 2/12=2,17=6,18=5,40=1/2;
 3/5=4,6=6,7=111,11=9,25=1,30=1,74=-5/1,2,3,8;
 4//1;
 5/5=2,38=5/2;
 8/6=1,10=2,108=30/1;
 9/40=4,41=30,42=1,48=1,70=2/14;
 6/7=2,8=3,9=2,10=2/1;
 99/5=1,9=1/99;
 Leave Link    1 at Fri Sep 17 10:52:08 2021, MaxMem=   268435456 cpu:               0.0 elap:               0.1
 (Enter /software/gaussian/g16-a03/l101.exe)
 -------------------------------
 Scan Step 116, Bond Length 1.08
 -------------------------------
 Symbolic Z-matrix:
 Charge =  0 Multiplicity = 1
 C                     0.        0.       -0.52736 
 H                     0.        0.93726  -1.11871 
 H                     0.       -0.93726  -1.11871 
 O                     0.        0.        0.55264 
 
 ITRead=  0  0  0  0
 MicOpt= -1 -1 -1 -1
 NAtoms=      4 NQM=        4 NQMF=       0 NMMI=      0 NMMIF=      0
                NMic=       0 NMicF=      0.
                    Isotopes and Nuclear Properties:
 (Nuclear quadrupole moments (NQMom) in fm**2, nuclear magnetic moments (NMagM)
  in nuclear magnetons)

  Atom         1           2           3           4
 IAtWgt=          12           1           1          16
 AtmWgt=  12.0000000   1.0078250   1.0078250  15.9949146
 NucSpn=           0           1           1           0
 AtZEff=  -0.0000000  -0.0000000  -0.0000000  -0.0000000
 NQMom=    0.0000000   0.0000000   0.0000000   0.0000000
 NMagM=    0.0000000   2.7928460   2.7928460   0.0000000
 AtZNuc=   6.0000000   1.0000000   1.0000000   8.0000000
 Leave Link  101 at Fri Sep 17 10:52:09 2021, MaxMem=   268435456 cpu:               0.1 elap:               0.1
 (Enter /software/gaussian/g16-a03/l202.exe)
                          Input orientation:                          
 ---------------------------------------------------------------------
 Center     Atomic      Atomic             Coordinates (Angstroms)
 Number     Number       Type             X           Y           Z
 ---------------------------------------------------------------------
      1          6           0        0.000000    0.000000   -0.527360
      2          1           0        0.000000    0.937260   -1.118710
      3          1           0        0.000000   -0.937260   -1.118710
      4          8           0        0.000000    0.000000    0.552640
 ---------------------------------------------------------------------
                    Distance matrix (angstroms):
                    1          2          3          4
     1  C    0.000000
     2  H    1.108220   0.000000
     3  H    1.108220   1.874520   0.000000
     4  O    1.080000   1.916212   1.916212   0.000000
 Stoichiometry    CH2O
 Framework group  C2V[C2(CO),SGV(H2)]
 Deg. of freedom     3
 Full point group                 C2V     NOp   4
 Largest Abelian subgroup         C2V     NOp   4
 Largest concise Abelian subgroup C2      NOp   2
                         Standard orientation:                         
 ---------------------------------------------------------------------
 Center     Atomic      Atomic             Coordinates (Angstroms)
 Number     Number       Type             X           Y           Z
 ---------------------------------------------------------------------
      1          6           0        0.000000    0.000000   -0.466081
      2          1           0        0.000000    0.937260   -1.057431
      3          1           0       -0.000000   -0.937260   -1.057431
      4          8           0        0.000000    0.000000    0.613919
 ---------------------------------------------------------------------
 Rotational constants (GHZ):         285.4183527          47.0437335          40.3869959
 Leave Link  202 at Fri Sep 17 10:52:09 2021, MaxMem=   268435456 cpu:               0.0 elap:               0.1
 (Enter /software/gaussian/g16-a03/l301.exe)
 Standard basis: 6-311+G(d,p) (5D, 7F)
 Ernie: Thresh=  0.10000D-02 Tol=  0.10000D-05 Strict=F.
 There are    29 symmetry adapted cartesian basis functions of A1  symmetry.
 There are     3 symmetry adapted cartesian basis functions of A2  symmetry.
 There are    11 symmetry adapted cartesian basis functions of B1  symmetry.
 There are    15 symmetry adapted cartesian basis functions of B2  symmetry.
 There are    27 symmetry adapted basis functions of A1  symmetry.
 There are     3 symmetry adapted basis functions of A2  symmetry.
 There are    11 symmetry adapted basis functions of B1  symmetry.
 There are    15 symmetry adapted basis functions of B2  symmetry.
    56 basis functions,    88 primitive gaussians,    58 cartesian basis functions
     8 alpha electrons        8 beta electrons
       nuclear repulsion energy        33.9498399469 Hartrees.
 IExCor=  402 DFT=T Ex+Corr=B3LYP ExCW=0 ScaHFX=  0.200000
 ScaDFX=  0.800000  0.720000  1.000000  0.810000 ScalE2=  1.000000  1.000000
 IRadAn=      5 IRanWt=     -1 IRanGd=            0 ICorTp=0 IEmpDi=  4
 NAtoms=    4 NActive=    4 NUniq=    3 SFac= 1.78D+00 NAtFMM=   60 NAOKFM=F Big=F
 Integral buffers will be    131072 words long.
 Regular integral format.
 Two-electron integral symmetry is turned on.
 Leave Link  301 at Fri Sep 17 10:52:09 2021, MaxMem=   268435456 cpu:               0.0 elap:               0.1
 (Enter /software/gaussian/g16-a03/l302.exe)
 NPDir=0 NMtPBC=     1 NCelOv=     1 NCel=       1 NClECP=     1 NCelD=      1
         NCelK=      1 NCelE2=     1 NClLst=     1 CellRange=     0.0.
 One-electron integrals computed using PRISM.
 One-electron integral symmetry used in STVInt
 NBasis=    56 RedAO= T EigKep=  2.67D-03  NBF=    27     3    11    15
 NBsUse=    56 1.00D-06 EigRej= -1.00D+00 NBFU=    27     3    11    15
 Precomputing XC quadrature grid using
 IXCGrd= 4 IRadAn=           5 IRanWt=          -1 IRanGd=           0 AccXCQ= 0.00D+00.
 Generated NRdTot=       0 NPtTot=           0 NUsed=           0 NTot=          32
 NSgBfM=    58    58    58    58    58 MxSgAt=     4 MxSgA2=     4.
 Leave Link  302 at Fri Sep 17 10:52:10 2021, MaxMem=   268435456 cpu:               0.1 elap:               0.1
 (Enter /software/gaussian/g16-a03/l303.exe)
 DipDrv:  MaxL=1.
 Leave Link  303 at Fri Sep 17 10:52:10 2021, MaxMem=   268435456 cpu:               0.0 elap:               0.0
 (Enter /software/gaussian/g16-a03/l308.exe)
 Leave Link  308 at Fri Sep 17 10:52:10 2021, MaxMem=   268435456 cpu:               0.0 elap:               0.0
 (Enter /software/gaussian/g16-a03/l401.exe)
 ExpMin= 4.38D-02 ExpMax= 8.59D+03 ExpMxC= 1.30D+03 IAcc=3 IRadAn=         5 AccDes= 0.00D+00
 Harris functional with IExCor=  402 and IRadAn=       5 diagonalized for initial guess.
 HarFok:  IExCor=  402 AccDes= 0.00D+00 IRadAn=         5 IDoV= 1 UseB2=F ITyADJ=14
 ICtDFT=  3500011 ScaDFX=  1.000000  1.000000  1.000000  1.000000
 FoFCou: FMM=F IPFlag=           0 FMFlag=      100000 FMFlg1=           0
         NFxFlg=           0 DoJE=T BraDBF=F KetDBF=T FulRan=T
         wScrn=  0.000000 ICntrl=       500 IOpCl=  0 I1Cent=   200000004 NGrid=           0
         NMat0=    1 NMatS0=      1 NMatT0=    0 NMatD0=    1 NMtDS0=    0 NMtDT0=    0
 Petite list used in FoFCou.
 Harris En= -114.534620644681    
 JPrj=0 DoOrth=F DoCkMO=F.
 Initial guess orbital symmetries:
       Occupied  (A1) (A1) (A1) (A1) (B2) (A1) (B1) (B2)
       Virtual   (B1) (A1) (A1) (B2) (B1) (A1) (B2) (A1) (B1) (B2)
                 (A1) (A1) (A1) (B2) (B1) (B2) (A1) (A1) (A2) (A1)
                 (B1) (B2) (B1) (A1) (A1) (B2) (B2) (B1) (A1) (A2)
                 (A1) (B2) (A1) (B2) (B1) (A1) (A2) (A1) (B1) (B2)
                 (A1) (A1) (B2) (B1) (B2) (A1) (A1) (A1)
 The electronic state of the initial guess is 1-A1.
 Leave Link  401 at Fri Sep 17 10:52:10 2021, MaxMem=   268435456 cpu:               0.3 elap:               0.3
 (Enter /software/gaussian/g16-a03/l502.exe)
 Keep R1 ints in memory in symmetry-blocked form, NReq=2159909.
 FoFCou: FMM=F IPFlag=           0 FMFlag=           0 FMFlg1=           0
         NFxFlg=           0 DoJE=F BraDBF=F KetDBF=F FulRan=T
         wScrn=  0.000000 ICntrl=       600 IOpCl=  0 I1Cent=           0 NGrid=           0
         NMat0=    1 NMatS0=   1596 NMatT0=    0 NMatD0=    1 NMtDS0=    0 NMtDT0=    0
 Petite list used in FoFCou.
 Closed shell SCF:
 Using DIIS extrapolation, IDIIS=  1040.
 NGot=   268435456 LenX=   268074384 LenY=   268070579
 Requested convergence on RMS density matrix=1.00D-08 within 128 cycles.
 Requested convergence on MAX density matrix=1.00D-06.
 Requested convergence on             energy=1.00D-06.
 No special actions if energy rises.

 Cycle   1  Pass 1  IDiag  1:
 E= -114.441044232608    
 DIIS: error= 4.61D-02 at cycle   1 NSaved=   1.
 NSaved= 1 IEnMin= 1 EnMin= -114.441044232608     IErMin= 1 ErrMin= 4.61D-02
 ErrMax= 4.61D-02  0.00D+00 EMaxC= 1.00D-01 BMatC= 1.04D-01 BMatP= 1.04D-01
 IDIUse=3 WtCom= 5.39D-01 WtEn= 4.61D-01
 Coeff-Com:  0.100D+01
 Coeff-En:   0.100D+01
 Coeff:      0.100D+01
 Gap=     0.182 Goal=   None    Shift=    0.000
 GapD=    0.182 DampG=1.000 DampE=0.500 DampFc=0.5000 IDamp=-1.
 Damping current iteration by 5.00D-01
 RMSDP=1.03D-02 MaxDP=1.13D-01              OVMax= 2.26D-01

 Cycle   2  Pass 1  IDiag  1:
 E= -114.455079981493     Delta-E=       -0.014035748885 Rises=F Damp=T
 DIIS: error= 2.23D-02 at cycle   2 NSaved=   2.
 NSaved= 2 IEnMin= 2 EnMin= -114.455079981493     IErMin= 2 ErrMin= 2.23D-02
 ErrMax= 2.23D-02  0.00D+00 EMaxC= 1.00D-01 BMatC= 1.47D-02 BMatP= 1.04D-01
 IDIUse=3 WtCom= 7.77D-01 WtEn= 2.23D-01
 Coeff-Com:  0.227D+00 0.773D+00
 Coeff-En:   0.401D+00 0.599D+00
 Coeff:      0.266D+00 0.734D+00
 Gap=     0.260 Goal=   None    Shift=    0.000
 RMSDP=2.33D-03 MaxDP=2.40D-02 DE=-1.40D-02 OVMax= 1.68D-01

 Cycle   3  Pass 1  IDiag  1:
 E= -114.507583496681     Delta-E=       -0.052503515188 Rises=F Damp=F
 DIIS: error= 9.29D-03 at cycle   3 NSaved=   3.
 NSaved= 3 IEnMin= 3 EnMin= -114.507583496681     IErMin= 3 ErrMin= 9.29D-03
 ErrMax= 9.29D-03  0.00D+00 EMaxC= 1.00D-01 BMatC= 4.21D-03 BMatP= 1.47D-02
 IDIUse=3 WtCom= 9.07D-01 WtEn= 9.29D-02
 Coeff-Com:  0.557D-01 0.360D+00 0.584D+00
 Coeff-En:   0.000D+00 0.000D+00 0.100D+01
 Coeff:      0.505D-01 0.327D+00 0.623D+00
 Gap=     0.238 Goal=   None    Shift=    0.000
 RMSDP=8.66D-04 MaxDP=1.93D-02 DE=-5.25D-02 OVMax= 3.09D-02

 Cycle   4  Pass 1  IDiag  1:
 E= -114.510780083650     Delta-E=       -0.003196586969 Rises=F Damp=F
 DIIS: error= 3.75D-03 at cycle   4 NSaved=   4.
 NSaved= 4 IEnMin= 4 EnMin= -114.510780083650     IErMin= 4 ErrMin= 3.75D-03
 ErrMax= 3.75D-03  0.00D+00 EMaxC= 1.00D-01 BMatC= 4.17D-04 BMatP= 4.21D-03
 IDIUse=3 WtCom= 9.63D-01 WtEn= 3.75D-02
 Coeff-Com: -0.626D-02 0.391D-01 0.267D+00 0.700D+00
 Coeff-En:   0.000D+00 0.000D+00 0.290D-01 0.971D+00
 Coeff:     -0.603D-02 0.377D-01 0.258D+00 0.710D+00
 Gap=     0.240 Goal=   None    Shift=    0.000
 RMSDP=2.45D-04 MaxDP=5.61D-03 DE=-3.20D-03 OVMax= 5.71D-03

 Cycle   5  Pass 1  IDiag  1:
 E= -114.511138813867     Delta-E=       -0.000358730217 Rises=F Damp=F
 DIIS: error= 2.29D-04 at cycle   5 NSaved=   5.
 NSaved= 5 IEnMin= 5 EnMin= -114.511138813867     IErMin= 5 ErrMin= 2.29D-04
 ErrMax= 2.29D-04  0.00D+00 EMaxC= 1.00D-01 BMatC= 2.04D-06 BMatP= 4.17D-04
 IDIUse=3 WtCom= 9.98D-01 WtEn= 2.29D-03
 Coeff-Com: -0.794D-04-0.277D-02 0.334D-01 0.125D+00 0.844D+00
 Coeff-En:   0.000D+00 0.000D+00 0.000D+00 0.000D+00 0.100D+01
 Coeff:     -0.792D-04-0.276D-02 0.334D-01 0.125D+00 0.845D+00
 Gap=     0.240 Goal=   None    Shift=    0.000
 RMSDP=3.00D-05 MaxDP=2.78D-04 DE=-3.59D-04 OVMax= 5.88D-04

 Cycle   6  Pass 1  IDiag  1:
 E= -114.511140851481     Delta-E=       -0.000002037615 Rises=F Damp=F
 DIIS: error= 1.45D-05 at cycle   6 NSaved=   6.
 NSaved= 6 IEnMin= 6 EnMin= -114.511140851481     IErMin= 6 ErrMin= 1.45D-05
 ErrMax= 1.45D-05  0.00D+00 EMaxC= 1.00D-01 BMatC= 9.53D-09 BMatP= 2.04D-06
 IDIUse=1 WtCom= 1.00D+00 WtEn= 0.00D+00
 Coeff-Com:  0.223D-03-0.669D-03-0.169D-02-0.244D-02 0.129D-01 0.992D+00
 Coeff:      0.223D-03-0.669D-03-0.169D-02-0.244D-02 0.129D-01 0.992D+00
 Gap=     0.240 Goal=   None    Shift=    0.000
 RMSDP=2.38D-06 MaxDP=2.16D-05 DE=-2.04D-06 OVMax= 4.34D-05

 Cycle   7  Pass 1  IDiag  1:
 E= -114.511140861080     Delta-E=       -0.000000009599 Rises=F Damp=F
 DIIS: error= 2.13D-06 at cycle   7 NSaved=   7.
 NSaved= 7 IEnMin= 7 EnMin= -114.511140861080     IErMin= 7 ErrMin= 2.13D-06
 ErrMax= 2.13D-06  0.00D+00 EMaxC= 1.00D-01 BMatC= 1.74D-10 BMatP= 9.53D-09
 IDIUse=1 WtCom= 1.00D+00 WtEn= 0.00D+00
 Coeff-Com:  0.854D-05-0.105D-04-0.318D-03-0.147D-02-0.991D-02 0.830D-01
 Coeff-Com:  0.929D+00
 Coeff:      0.854D-05-0.105D-04-0.318D-03-0.147D-02-0.991D-02 0.830D-01
 Coeff:      0.929D+00
 Gap=     0.240 Goal=   None    Shift=    0.000
 RMSDP=1.69D-07 MaxDP=2.81D-06 DE=-9.60D-09 OVMax= 4.14D-06

 Cycle   8  Pass 1  IDiag  1:
 E= -114.511140861231     Delta-E=       -0.000000000151 Rises=F Damp=F
 DIIS: error= 6.11D-07 at cycle   8 NSaved=   8.
 NSaved= 8 IEnMin= 8 EnMin= -114.511140861231     IErMin= 8 ErrMin= 6.11D-07
 ErrMax= 6.11D-07  0.00D+00 EMaxC= 1.00D-01 BMatC= 7.31D-12 BMatP= 1.74D-10
 IDIUse=1 WtCom= 1.00D+00 WtEn= 0.00D+00
 Coeff-Com: -0.186D-05 0.459D-05 0.138D-04-0.131D-03-0.134D-02-0.610D-02
 Coeff-Com:  0.120D+00 0.887D+00
 Coeff:     -0.186D-05 0.459D-05 0.138D-04-0.131D-03-0.134D-02-0.610D-02
 Coeff:      0.120D+00 0.887D+00
 Gap=     0.240 Goal=   None    Shift=    0.000
 RMSDP=6.48D-08 MaxDP=6.14D-07 DE=-1.51D-10 OVMax= 9.15D-07

 Cycle   9  Pass 1  IDiag  1:
 E= -114.511140861237     Delta-E=       -0.000000000005 Rises=F Damp=F
 DIIS: error= 2.80D-08 at cycle   9 NSaved=   9.
 NSaved= 9 IEnMin= 9 EnMin= -114.511140861237     IErMin= 9 ErrMin= 2.80D-08
 ErrMax= 2.80D-08  0.00D+00 EMaxC= 1.00D-01 BMatC= 4.76D-14 BMatP= 7.31D-12
 IDIUse=1 WtCom= 1.00D+00 WtEn= 0.00D+00
 Coeff-Com: -0.938D-07 0.349D-06 0.299D-05-0.268D-05 0.521D-06-0.161D-02
 Coeff-Com: -0.406D-02 0.408D-01 0.965D+00
 Coeff:     -0.938D-07 0.349D-06 0.299D-05-0.268D-05 0.521D-06-0.161D-02
 Coeff:     -0.406D-02 0.408D-01 0.965D+00
 Gap=     0.240 Goal=   None    Shift=    0.000
 RMSDP=3.15D-09 MaxDP=5.92D-08 DE=-5.46D-12 OVMax= 6.12D-08

 SCF Done:  E(RB3LYP) =  -114.511140861     A.U. after    9 cycles
            NFock=  9  Conv=0.32D-08     -V/T= 1.9979
 KE= 1.147525663813D+02 PE=-3.372053349404D+02 EE= 7.399178775098D+01
 Leave Link  502 at Fri Sep 17 10:52:12 2021, MaxMem=   268435456 cpu:               1.6 elap:               1.9
 (Enter /software/gaussian/g16-a03/l801.exe)
 DoSCS=F DFT=T ScalE2(SS,OS)=  1.000000  1.000000
 ExpMin= 4.38D-02 ExpMax= 8.59D+03 ExpMxC= 1.30D+03 IAcc=3 IRadAn=         5 AccDes= 0.00D+00
 HarFok:  IExCor=  205 AccDes= 0.00D+00 IRadAn=         5 IDoV=-2 UseB2=F ITyADJ=14
 ICtDFT= 12500011 ScaDFX=  1.000000  1.000000  1.000000  1.000000
 Largest valence mixing into a core orbital is  4.22D-05
 Largest core mixing into a valence orbital is  8.58D-06
 Range of M.O.s used for correlation:     3    56
 NBasis=    56 NAE=     8 NBE=     8 NFC=     2 NFV=     0
 NROrb=     54 NOA=     6 NOB=     6 NVA=    48 NVB=    48
 Leave Link  801 at Fri Sep 17 10:52:12 2021, MaxMem=   268435456 cpu:               0.2 elap:               0.2
 (Enter /software/gaussian/g16-a03/l914.exe)
 RHF ground state
 Keep R1, R2, and R3 ints in memory in symmetry-blocked form, NReq=6042848.
 FoFCou: FMM=F IPFlag=           0 FMFlag=           0 FMFlg1=           0
         NFxFlg=           0 DoJE=F BraDBF=F KetDBF=F FulRan=T
         wScrn=  0.000000 ICntrl=       600 IOpCl=  0 I1Cent=           0 NGrid=           0
         NMat0=    1 NMatS0=   1596 NMatT0=    0 NMatD0=    1 NMtDS0=    0 NMtDT0=    0
 Petite list used in FoFCou.
 MDV=   268435456 DFT=T DoStab=F Mixed=T DoRPA=T DoScal=F NonHer=T
 Making orbital integer symmetry assigments:
 Orbital symmetries:
       Occupied  (A1) (A1) (A1) (A1) (B2) (A1) (B1) (B2)
       Virtual   (B1) (A1) (A1) (B2) (B1) (A1) (A1) (B2) (B1) (B2)
                 (A1) (A1) (A1) (B2) (B1) (B2) (A1) (A1) (A2) (B1)
                 (A1) (B2) (B1) (A1) (A1) (B2) (B2) (B1) (A1) (A2)
                 (A1) (B2) (A1) (B2) (A1) (B1) (A2) (A1) (B1) (B2)
                 (A1) (A1) (B2) (B1) (B2) (A1) (A1) (A1)
   120 initial guesses have been made.
 Convergence on wavefunction:    0.001000000000000
 Davidson Disk Diagonalization:  ConvIn= 1.00D-03 SkipCon=T Conv= 1.00D-03.
 Max sub-space:  1728 roots to seek:   120 dimension of matrix:          576
 Iteration     1 Dimension   120 NMult     0 NNew    120
 CISAX will form   120 AO SS matrices at one time.
 NMat=   120 NSing=   120 JSym2X=-1.
 New state      7 was old state      8
 New state      8 was old state      9
 New state      9 was old state      7
 New state     10 was old state     16
 New state     16 was old state     17
 New state     17 was old state     10
 New state     20 was old state     21
 New state     21 was old state     20
 New state     25 was old state     26
 New state     26 was old state     25
 New state     27 was old state     28
 New state     28 was old state     30
 New state     29 was old state     27
 New state     30 was old state     29
 Excitation Energies [eV] at current iteration:
 Root      1 :     4.686863622090337
 Root      2 :     6.611705837244825
 Root      3 :     7.409775422362725
 Root      4 :     7.557857958844099
 Root      5 :     8.062089866246477
 Root      6 :    10.297549157885060
 Root      7 :    10.703934032082470
 Root      8 :    11.035821366218460
 Root      9 :    11.070943328932930
 Root     10 :    11.685292575023790
 Root     11 :    11.724800089479470
 Root     12 :    12.059381771841290
 Root     13 :    12.363749316863880
 Root     14 :    12.463541722983800
 Root     15 :    12.600619933174090
 Root     16 :    12.625188638299230
 Root     17 :    12.978765120365150
 Root     18 :    13.300594586005110
 Root     19 :    13.361900614292400
 Root     20 :    13.514250680369010
 Root     21 :    13.537756905599620
 Root     22 :    13.726419732650510
 Root     23 :    13.929815974589510
 Root     24 :    14.614614194463420
 Root     25 :    14.806443254740170
 Root     26 :    14.926045948868620
 Root     27 :    15.173794483209370
 Root     28 :    15.506028138366360
 Root     29 :    15.704098428111620
 Root     30 :    15.715821023683930
 Root     31 :    16.318291241224150
 Root     32 :    16.341389423959660
 Root     33 :    16.609321886467720
 Root     34 :    16.799003023475180
 Root     35 :    17.027305558645200
 Root     36 :    17.092306932851320
 Root     37 :    17.189320349286870
 Root     38 :    17.347194060601020
 Root     39 :    17.380397829697280
 Root     40 :    17.686227036924490
 Root     41 :    17.711897775383740
 Root     42 :    17.996003267859920
 Root     43 :    18.123626064527470
 Root     44 :    18.359834075268520
 Root     45 :    18.680521542677560
 Root     46 :    18.852569895703980
 Root     47 :    19.241507589098070
 Root     48 :    19.483268280301570
 Root     49 :    19.598002690123090
 Root     50 :    19.605982761775390
 Root     51 :    19.739571673739960
 Root     52 :    20.283260116959480
 Root     53 :    20.394728370791600
 Root     54 :    20.621008956278360
 Root     55 :    20.727046939121310
 Root     56 :    21.028692785929640
 Root     57 :    21.147125113599380
 Root     58 :    21.932735228257600
 Root     59 :    21.934040184054810
 Root     60 :    22.130864170011390
 Root     61 :    22.885718949737030
 Root     62 :    23.158607858054430
 Root     63 :    23.771699558772070
 Root     64 :    23.883663800007350
 Root     65 :    24.184558725241850
 Root     66 :    24.401923238770130
 Root     67 :    25.083825798166350
 Root     68 :    25.287504878542860
 Root     69 :    25.439671206001230
 Root     70 :    25.495547703606230
 Root     71 :    25.791624830838740
 Root     72 :    26.505636016689060
 Root     73 :    26.558049648646600
 Root     74 :    26.866168096254890
 Root     75 :    27.845883680723240
 Root     76 :    28.531912804842420
 Root     77 :    28.742510393116120
 Root     78 :    29.003610068455490
 Root     79 :    29.250412543002820
 Root     80 :    29.263448601879900
 Root     81 :    29.319676532297470
 Root     82 :    29.870068153055070
 Root     83 :    29.889015574293850
 Root     84 :    30.469482122305020
 Root     85 :    30.696628314309910
 Root     86 :    31.339878280290740
 Root     87 :    31.422006369394100
 Root     88 :    31.656330453339040
 Root     89 :    31.995496096446660
 Root     90 :    32.683977231424000
 Root     91 :    33.290036919542140
 Root     92 :    33.644837540403690
 Root     93 :    33.708073719623570
 Root     94 :    34.030635175386440
 Root     95 :    34.756483335215840
 Root     96 :    34.814300072511490
 Root     97 :    34.914806430378370
 Root     98 :    35.116455848009700
 Root     99 :    35.273021740548400
 Root    100 :    36.150307834343860
 Root    101 :    36.264863979912200
 Root    102 :    36.854207427429980
 Root    103 :    37.162662790734560
 Root    104 :    37.401351282693150
 Root    105 :    38.531144427867030
 Root    106 :    38.669857704717370
 Root    107 :    39.006232051896350
 Root    108 :    39.009391348401720
 Root    109 :    39.085770553448630
 Root    110 :    39.273612004163030
 Root    111 :    39.551209985467330
 Root    112 :    39.900996576311510
 Root    113 :    40.286965510356790
 Root    114 :    40.859981197238160
 Root    115 :    41.058430073826510
 Root    116 :    41.185169314359920
 Root    117 :    41.342044121520490
 Root    118 :    41.754763848675450
 Root    119 :    42.867960907299790
 Root    120 :    47.259107857177550
 Iteration     2 Dimension   180 NMult   120 NNew     60
 CISAX will form    60 AO SS matrices at one time.
 NMat=    60 NSing=    60 JSym2X=-1.
 Root      1 not converged, maximum delta is    0.005709411424421
 Root      2 not converged, maximum delta is    0.003735244478713
 Root      3 not converged, maximum delta is    0.002706774177325
 Root      4 not converged, maximum delta is    0.003313514461332
 Root      5 not converged, maximum delta is    0.001807030605382
 Root      6 not converged, maximum delta is    0.006118600847537
 Root      7 not converged, maximum delta is    0.011847527467333
 New state      8 was old state      9
 Root      8 not converged, maximum delta is    0.017022705356982
 New state      9 was old state      8
 Root      9 not converged, maximum delta is    0.002269142284246
 Root     10 not converged, maximum delta is    0.006365051953817
 Root     11 not converged, maximum delta is    0.001611930891034
 Root     12 not converged, maximum delta is    0.002194418273153
 Root     13 not converged, maximum delta is    0.070681341827805
 Root     14 not converged, maximum delta is    0.070767414958288
 Root     15 not converged, maximum delta is    0.005087493846660
 Root     16 has converged.
 Root     17 not converged, maximum delta is    0.048777170846435
 Root     18 not converged, maximum delta is    0.057056004075890
 Root     19 not converged, maximum delta is    0.025272240552989
 New state     20 was old state     21
 Root     20 not converged, maximum delta is    0.039029016761585
 New state     21 was old state     20
 Root     21 not converged, maximum delta is    0.025311837247421
 Root     22 not converged, maximum delta is    0.003780827990833
 Root     23 not converged, maximum delta is    0.008135851892750
 Root     24 not converged, maximum delta is    0.004875291991751
 Root     25 not converged, maximum delta is    0.023788136852350
 Root     26 not converged, maximum delta is    0.010410455382948
 Root     27 not converged, maximum delta is    0.001935582908471
 Root     28 not converged, maximum delta is    0.010087636455902
 Root     29 not converged, maximum delta is    0.075767451380911
 Root     30 not converged, maximum delta is    0.004992358245701
 Excitation Energies [eV] at current iteration:
 Root      1 :     4.674438920590715   Change is   -0.012424701499622
 Root      2 :     6.609217808226495   Change is   -0.002488029018330
 Root      3 :     7.403826581399105   Change is   -0.005948840963619
 Root      4 :     7.554981002315546   Change is   -0.002876956528554
 Root      5 :     8.061151560776938   Change is   -0.000938305469540
 Root      6 :    10.284725954794890   Change is   -0.012823203090172
 Root      7 :    10.632092290335060   Change is   -0.071841741747418
 Root      8 :    11.026246604828350   Change is   -0.044696724104586
 Root      9 :    11.033747059904000   Change is   -0.002074306314462
 Root     10 :    11.678045168877380   Change is   -0.007247406146412
 Root     11 :    11.723951090231440   Change is   -0.000848999248028
 Root     12 :    12.058258775757120   Change is   -0.001122996084167
 Root     13 :    12.321976871406990   Change is   -0.041772445456895
 Root     14 :    12.453375409718980   Change is   -0.010166313264825
 Root     15 :    12.595100367696520   Change is   -0.005519565477561
 Root     16 :    12.624800764003150   Change is   -0.000387874296088
 Root     17 :    12.936159678225880   Change is   -0.042605442139274
 Root     18 :    13.286847148383860   Change is   -0.013747437621252
 Root     19 :    13.357398004588440   Change is   -0.004502609703964
 Root     20 :    13.489071600395930   Change is   -0.048685305203694
 Root     21 :    13.500738602189450   Change is   -0.013512078179565
 Root     22 :    13.722485017046330   Change is   -0.003934715604178
 Root     23 :    13.922797339755370   Change is   -0.007018634834140
 Root     24 :    14.609175066027770   Change is   -0.005439128435652
 Root     25 :    14.794146806424570   Change is   -0.012296448315592
 Root     26 :    14.903577181579990   Change is   -0.022468767288636
 Root     27 :    15.173049194365590   Change is   -0.000745288843783
 Root     28 :    15.488145258117970   Change is   -0.017882880248391
 Root     29 :    15.603099041531480   Change is   -0.100999386580141
 Root     30 :    15.710335081111110   Change is   -0.005485942572818
 Iteration     3 Dimension   237 NMult   180 NNew     57
 CISAX will form    57 AO SS matrices at one time.
 NMat=    57 NSing=    57 JSym2X=-1.
 Root      1 has converged.
 Root      2 has converged.
 Root      3 has converged.
 Root      4 has converged.
 Root      5 has converged.
 Root      6 has converged.
 Root      7 has converged.
 Root      8 has converged.
 Root      9 has converged.
 Root     10 has converged.
 Root     11 has converged.
 Root     12 has converged.
 Root     13 has converged.
 Root     14 has converged.
 Root     15 has converged.
 Root     16 has converged.
 Root     17 has converged.
 Root     18 has converged.
 Root     19 has converged.
 Root     20 has converged.
 Root     21 has converged.
 Root     22 has converged.
 Root     23 has converged.
 Root     24 has converged.
 Root     25 has converged.
 Root     26 has converged.
 Root     27 has converged.
 Root     28 has converged.
 Root     29 has converged.
 Root     30 has converged.
 Excitation Energies [eV] at current iteration:
 Root      1 :     4.674436612564978   Change is   -0.000002308025737
 Root      2 :     6.609215709553145   Change is   -0.000002098673350
 Root      3 :     7.403823751463625   Change is   -0.000002829935481
 Root      4 :     7.554978947221471   Change is   -0.000002055094074
 Root      5 :     8.061151420658119   Change is   -0.000000140118819
 Root      6 :    10.284720117489610   Change is   -0.000005837305283
 Root      7 :    10.631954694959590   Change is   -0.000137595375464
 Root      8 :    11.026199346811900   Change is   -0.000047258016451
 Root      9 :    11.033743227877510   Change is   -0.000003832026492
 Root     10 :    11.678042750853090   Change is   -0.000002418024290
 Root     11 :    11.723949796439860   Change is   -0.000001293791581
 Root     12 :    12.058258209097380   Change is   -0.000000566659742
 Root     13 :    12.321891922589090   Change is   -0.000084948817898
 Root     14 :    12.453355967777810   Change is   -0.000019441941171
 Root     15 :    12.595087398544200   Change is   -0.000012969152325
 Root     16 :    12.624800604864590   Change is   -0.000000159138552
 Root     17 :    12.936084867041230   Change is   -0.000074811184648
 Root     18 :    13.286801842433610   Change is   -0.000045305950246
 Root     19 :    13.357389371360180   Change is   -0.000008633228264
 Root     20 :    13.488996489854640   Change is   -0.000075110541286
 Root     21 :    13.500720729697260   Change is   -0.000017872492180
 Root     22 :    13.722477154509110   Change is   -0.000007862537219
 Root     23 :    13.922778562187910   Change is   -0.000018777567454
 Root     24 :    14.609163568708110   Change is   -0.000011497319664
 Root     25 :    14.794116952033600   Change is   -0.000029854390978
 Root     26 :    14.903535905649970   Change is   -0.000041275930022
 Root     27 :    15.173048885978770   Change is   -0.000000308386822
 Root     28 :    15.488114510885940   Change is   -0.000030747232029
 Root     29 :    15.602980545239560   Change is   -0.000118496291923
 Root     30 :    15.710321493323150   Change is   -0.000013587787965
 Convergence achieved on expansion vectors.
 ***********************************************************************
 Excited states from <AA,BB:AA,BB> singles matrix:
 ***********************************************************************
 
 1PDM for each excited state written to RWF  633
 Ground to excited state transition densities written to RWF  633
 Ground to excited state transition electric dipole moments (Au):
       state          X           Y           Z        Dip. S.      Osc.
         1        -0.0000      0.0000      0.0000      0.0000      0.0000
         2         0.0000      0.5635      0.0000      0.3175      0.0514
         3        -0.0000      0.3443     -0.0000      0.1186      0.0215
         4         0.0000      0.0000     -0.5402      0.2918      0.0540
         5         0.0000     -0.0000     -0.0000      0.0000      0.0000
         6        -0.0000      0.8653      0.0000      0.7487      0.1886
         7         0.0267      0.0000      0.0000      0.0007      0.0002
         8        -0.0000      0.0000      0.2759      0.0761      0.0206
         9        -0.0000     -0.0642      0.0000      0.0041      0.0011
        10        -0.0000      0.0000     -0.0000      0.0000      0.0000
        11        -0.3781      0.0000      0.0000      0.1430      0.0411
        12        -0.0000     -0.0000      0.0000      0.0000      0.0000
        13         0.0000      0.0000     -0.4367      0.1907      0.0576
        14         0.0000     -0.0000     -0.5115      0.2616      0.0798
        15         0.2977      0.0000      0.0000      0.0886      0.0274
        16        -0.0000      0.0000      0.0000      0.0000      0.0000
        17         0.0000     -0.0000      1.0560      1.1151      0.3534
        18        -0.0000      0.0000      0.4459      0.1988      0.0647
        19        -0.0000     -0.3973     -0.0000      0.1579      0.0517
        20        -0.0000      0.0000     -0.5617      0.3155      0.1043
        21         0.0000     -0.2763     -0.0000      0.0763      0.0253
        22        -0.0000     -0.5586     -0.0000      0.3120      0.1049
        23        -0.2678      0.0000      0.0000      0.0717      0.0245
        24         0.0000      0.2343      0.0000      0.0549      0.0197
        25        -0.0556     -0.0000     -0.0000      0.0031      0.0011
        26         0.0000      0.0000     -0.1790      0.0321      0.0117
        27         0.0000     -0.0000      0.0000      0.0000      0.0000
        28         0.0000     -0.2457      0.0000      0.0604      0.0229
        29        -0.6655     -0.0000      0.0000      0.4429      0.1693
        30         0.0000      0.0000      0.1069      0.0114      0.0044
 Ground to excited state transition velocity dipole moments (Au):
       state          X           Y           Z        Dip. S.      Osc.
         1        -0.0000      0.0000     -0.0000      0.0000      0.0000
         2         0.0000     -0.1359     -0.0000      0.0185      0.0507
         3         0.0000     -0.0980     -0.0000      0.0096      0.0235
         4        -0.0000      0.0000      0.1449      0.0210      0.0504
         5        -0.0000     -0.0000     -0.0000      0.0000      0.0000
         6         0.0000     -0.3262     -0.0000      0.1064      0.1876
         7        -0.0209     -0.0000     -0.0000      0.0004      0.0007
         8         0.0000      0.0000     -0.1029      0.0106      0.0174
         9         0.0000     -0.0039     -0.0000      0.0000      0.0000
        10         0.0000     -0.0000      0.0000      0.0000      0.0000
        11         0.1663     -0.0000     -0.0000      0.0276      0.0428
        12         0.0000      0.0000     -0.0000      0.0000      0.0000
        13        -0.0000     -0.0000      0.1986      0.0394      0.0581
        14        -0.0000      0.0000      0.2286      0.0523      0.0761
        15        -0.1469     -0.0000     -0.0000      0.0216      0.0311
        16         0.0000      0.0000     -0.0000      0.0000      0.0000
        17        -0.0000      0.0000     -0.4990      0.2490      0.3492
        18         0.0000      0.0000     -0.2238      0.0501      0.0684
        19         0.0000      0.1945      0.0000      0.0378      0.0514
        20         0.0000     -0.0000      0.2820      0.0795      0.1069
        21        -0.0000      0.1486      0.0000      0.0221      0.0297
        22        -0.0000      0.2800      0.0000      0.0784      0.1036
        23         0.1308     -0.0000     -0.0000      0.0171      0.0223
        24         0.0000     -0.1298     -0.0000      0.0169      0.0209
        25         0.0497      0.0000      0.0000      0.0025      0.0030
        26        -0.0000     -0.0000      0.1049      0.0110      0.0134
        27        -0.0000      0.0000     -0.0000      0.0000      0.0000
        28        -0.0000      0.1406     -0.0000      0.0198      0.0231
        29         0.3823      0.0000     -0.0000      0.1461      0.1699
        30        -0.0000      0.0000     -0.0631      0.0040      0.0046
 Ground to excited state transition magnetic dipole moments (Au):
       state          X           Y           Z
         1        -0.0000      0.0000      1.2772
         2        -0.4384      0.0000     -0.0000
         3         0.7694     -0.0000      0.0000
         4        -0.0000     -0.0000      0.0000
         5        -0.0000     -0.0000     -0.1156
         6        -0.9110      0.0000      0.0000
         7         0.0000     -1.4344      0.0000
         8        -0.0000      0.0000     -0.0000
         9         0.6980      0.0000      0.0000
        10        -0.0000     -0.0000     -0.4995
        11        -0.0000     -0.0355      0.0000
        12         0.0000      0.0000      0.1563
        13         0.0000     -0.0000     -0.0000
        14        -0.0000     -0.0000      0.0000
        15        -0.0000     -0.0002      0.0000
        16         0.0000      0.0000      0.0456
        17        -0.0000     -0.0000     -0.0000
        18        -0.0000      0.0000      0.0000
        19        -0.3175      0.0000      0.0000
        20         0.0000      0.0000      0.0000
        21        -0.6016     -0.0000      0.0000
        22         0.2546      0.0000     -0.0000
        23        -0.0000      0.5216      0.0000
        24        -0.2470     -0.0000      0.0000
        25        -0.0000     -0.3425      0.0000
        26        -0.0000      0.0000     -0.0000
        27         0.0000      0.0000      0.0671
        28         0.9103     -0.0000     -0.0000
        29         0.0000     -0.3851     -0.0000
        30        -0.0000      0.0000      0.0000
 Ground to excited state transition velocity quadrupole moments (Au):
       state          XX          YY          ZZ          XY          XZ          YZ
         1        -0.0000      0.0000     -0.0000     -0.1406      0.0000     -0.0000
         2         0.0000      0.0000     -0.0000     -0.0000      0.0000      0.5331
         3        -0.0000      0.0000     -0.0000     -0.0000      0.0000      0.1180
         4        -0.1117     -0.4865     -0.2425     -0.0000     -0.0000      0.0000
         5         0.0000     -0.0000      0.0000     -0.1235      0.0000     -0.0000
         6        -0.0000      0.0000      0.0000      0.0000      0.0000      0.7393
         7         0.0000     -0.0000     -0.0000     -0.0000     -0.4298      0.0000
         8         0.2658     -0.3638     -0.5794      0.0000     -0.0000     -0.0000
         9         0.0000     -0.0000     -0.0000     -0.0000      0.0000      0.3107
        10        -0.0000      0.0000      0.0000      0.3048     -0.0000      0.0000
        11         0.0000      0.0000      0.0000     -0.0000     -0.0605      0.0000
        12         0.0000      0.0000      0.0000      0.2322     -0.0000     -0.0000
        13        -0.1584     -0.4287     -0.1636      0.0000     -0.0000     -0.0000
        14         0.1618      0.2788      0.2219      0.0000     -0.0000      0.0000
        15        -0.0000     -0.0000     -0.0000      0.0000     -0.2743     -0.0000
        16         0.0000      0.0000      0.0000      0.2576      0.0000      0.0000
        17         0.4252      0.8062      0.7755     -0.0000     -0.0000      0.0000
        18        -0.3711     -0.3206     -0.0766      0.0000      0.0000      0.0000
        19         0.0000      0.0000     -0.0000      0.0000      0.0000     -0.0303
        20         0.4939     -0.3341     -0.0664      0.0000      0.0000     -0.0000
        21         0.0000     -0.0000     -0.0000     -0.0000      0.0000      0.2008
        22         0.0000     -0.0000      0.0000     -0.0000      0.0000     -0.4325
        23        -0.0000      0.0000      0.0000     -0.0000      0.1600     -0.0000
        24        -0.0000     -0.0000     -0.0000     -0.0000     -0.0000     -0.3462
        25         0.0000      0.0000      0.0000      0.0000     -0.1256      0.0000
        26         0.3084      0.7787      0.0790     -0.0000      0.0000     -0.0000
        27        -0.0000     -0.0000      0.0000      0.2938      0.0000      0.0000
        28        -0.0000      0.0000     -0.0000     -0.0000     -0.0000     -0.0114
        29        -0.0000      0.0000     -0.0000     -0.0000     -0.4338      0.0000
        30        -0.2293      0.4118     -0.1350      0.0000      0.0000      0.0000
 <0|del|b> * <b|rxdel|0> + <0|del|b> * <b|delr+rdel|0>
 Rotatory Strengths (R) in cgs (10**-40 erg-esu-cm/Gauss)
       state          XX          YY          ZZ    R(velocity)    E-M Angle
         1        -0.0000     -0.0000      0.0000     -0.0000       90.00
         2        -0.0000      0.0000     -0.0000     -0.0000       90.00
         3         0.0000      0.0000      0.0000      0.0000       90.00
         4        -0.0000      0.0000     -0.0000      0.0000       90.00
         5         0.0000     -0.0000     -0.0000      0.0000       90.00
         6        -0.0000     -0.0000     -0.0000     -0.0000       90.00
         7         0.0000     -0.0000      0.0000      0.0000       90.00
         8        -0.0000      0.0000     -0.0000      0.0000       90.00
         9        -0.0000      0.0000      0.0000      0.0000       90.00
        10        -0.0000     -0.0000     -0.0000     -0.0000       90.00
        11        -0.0000     -0.0000     -0.0000     -0.0000       90.00
        12        -0.0000      0.0000      0.0000     -0.0000       90.00
        13         0.0000     -0.0000      0.0000     -0.0000       90.00
        14         0.0000      0.0000     -0.0000      0.0000       90.00
        15        -0.0000      0.0000      0.0000      0.0000       90.00
        16        -0.0000      0.0000      0.0000     -0.0000       90.00
        17         0.0000     -0.0000      0.0000      0.0000       90.00
        18        -0.0000      0.0000      0.0000     -0.0000       90.00
        19         0.0000     -0.0000     -0.0000     -0.0000       90.00
        20         0.0000     -0.0000     -0.0000      0.0000       90.00
        21        -0.0000      0.0000      0.0000      0.0000       90.00
        22         0.0000      0.0000      0.0000      0.0000       90.00
        23        -0.0000     -0.0000      0.0000     -0.0000       90.00
        24         0.0000     -0.0000      0.0000      0.0000       90.00
        25        -0.0000      0.0000     -0.0000     -0.0000       90.00
        26        -0.0000     -0.0000     -0.0000     -0.0000       90.00
        27        -0.0000      0.0000      0.0000     -0.0000       90.00
        28         0.0000     -0.0000     -0.0000     -0.0000       90.00
        29         0.0000      0.0000      0.0000      0.0000       90.00
        30        -0.0000      0.0000      0.0000     -0.0000       90.00
 1/2[<0|r|b>*<b|rxdel|0> + (<0|rxdel|b>*<b|r|0>)*]
 Rotatory Strengths (R) in cgs (10**-40 erg-esu-cm/Gauss)
       state          XX          YY          ZZ     R(length)
         1        -0.0000     -0.0000     -0.0000     -0.0000
         2         0.0000     -0.0000      0.0000     -0.0000
         3         0.0000      0.0000      0.0000      0.0000
         4         0.0000      0.0000      0.0000      0.0000
         5         0.0000     -0.0000     -0.0000     -0.0000
         6        -0.0000     -0.0000     -0.0000     -0.0000
         7        -0.0000      0.0000     -0.0000      0.0000
         8        -0.0000     -0.0000      0.0000      0.0000
         9         0.0000      0.0000     -0.0000      0.0000
        10        -0.0000      0.0000     -0.0000     -0.0000
        11        -0.0000      0.0000     -0.0000     -0.0000
        12         0.0000      0.0000     -0.0000     -0.0000
        13        -0.0000      0.0000     -0.0000     -0.0000
        14         0.0000     -0.0000      0.0000      0.0000
        15         0.0000      0.0000     -0.0000      0.0000
        16         0.0000     -0.0000     -0.0000     -0.0000
        17         0.0000     -0.0000      0.0000      0.0000
        18        -0.0000     -0.0000     -0.0000     -0.0000
        19        -0.0000      0.0000      0.0000      0.0000
        20         0.0000     -0.0000      0.0000      0.0000
        21         0.0000     -0.0000      0.0000      0.0000
        22         0.0000      0.0000     -0.0000      0.0000
        23        -0.0000     -0.0000     -0.0000     -0.0000
        24         0.0000      0.0000     -0.0000      0.0000
        25        -0.0000     -0.0000      0.0000     -0.0000
        26         0.0000     -0.0000     -0.0000     -0.0000
        27        -0.0000      0.0000     -0.0000     -0.0000
        28        -0.0000     -0.0000      0.0000     -0.0000
        29         0.0000     -0.0000      0.0000      0.0000
        30         0.0000     -0.0000     -0.0000     -0.0000
  1/2[<0|del|b>*<b|r|0> + (<0|r|b>*<b|del|0>)*] (Au)
       state          X           Y           Z        Dip. S.   Osc.(frdel)
         1         0.0000      0.0000     -0.0000     -0.0000     -0.0000
         2         0.0000     -0.0766     -0.0000      0.0766      0.0511
         3        -0.0000     -0.0337      0.0000      0.0337      0.0225
         4        -0.0000      0.0000     -0.0783      0.0783      0.0522
         5        -0.0000      0.0000      0.0000     -0.0000     -0.0000
         6        -0.0000     -0.2822     -0.0000      0.2822      0.1881
         7        -0.0006     -0.0000     -0.0000      0.0006      0.0004
         8        -0.0000      0.0000     -0.0284      0.0284      0.0189
         9        -0.0000      0.0002     -0.0000     -0.0002     -0.0002
        10        -0.0000     -0.0000     -0.0000      0.0000      0.0000
        11        -0.0629     -0.0000     -0.0000      0.0629      0.0419
        12        -0.0000     -0.0000     -0.0000      0.0000      0.0000
        13        -0.0000     -0.0000     -0.0867      0.0867      0.0578
        14        -0.0000     -0.0000     -0.1169      0.1169      0.0780
        15        -0.0437     -0.0000     -0.0000      0.0437      0.0292
        16        -0.0000      0.0000     -0.0000      0.0000      0.0000
        17        -0.0000     -0.0000     -0.5270      0.5270      0.3513
        18        -0.0000      0.0000     -0.0998      0.0998      0.0665
        19        -0.0000     -0.0773     -0.0000      0.0773      0.0515
        20        -0.0000     -0.0000     -0.1584      0.1584      0.1056
        21        -0.0000     -0.0410     -0.0000      0.0410      0.0274
        22         0.0000     -0.1564     -0.0000      0.1564      0.1043
        23        -0.0350     -0.0000     -0.0000      0.0350      0.0234
        24         0.0000     -0.0304     -0.0000      0.0304      0.0203
        25        -0.0028     -0.0000     -0.0000      0.0028      0.0018
        26        -0.0000     -0.0000     -0.0188      0.0188      0.0125
        27        -0.0000     -0.0000     -0.0000      0.0000      0.0000
        28        -0.0000     -0.0345     -0.0000      0.0345      0.0230
        29        -0.2544     -0.0000     -0.0000      0.2544      0.1696
        30        -0.0000      0.0000     -0.0068      0.0068      0.0045

 Excitation energies and oscillator strengths:
 
 Excited State   1:      Singlet-A2     4.6744 eV  265.24 nm  f=0.0000  <S**2>=0.000
       3 -> 27         0.00286
       3 -> 38         0.00241
       3 -> 45         0.00202
       4 -> 27         0.00258
       4 -> 38        -0.00070
       4 -> 45        -0.00109
       5 ->  9         0.01988
       5 -> 13        -0.00663
       5 -> 17         0.00613
       5 -> 23        -0.00185
       5 -> 28         0.00396
       5 -> 31         0.00291
       5 -> 36         0.00395
       5 -> 44         0.00068
       5 -> 47         0.00013
       5 -> 52         0.00085
       6 -> 27         0.00035
       6 -> 38        -0.00068
       6 -> 45         0.00168
       7 -> 12        -0.00062
       7 -> 16         0.00203
       7 -> 18        -0.00204
       7 -> 22         0.00136
       7 -> 24         0.00127
       7 -> 30        -0.00076
       7 -> 34         0.00038
       7 -> 35         0.00045
       7 -> 40        -0.00039
       7 -> 48         0.00056
       7 -> 51         0.00022
       7 -> 53         0.00042
       8 ->  9         0.70277
       8 -> 13        -0.07232
       8 -> 17         0.02481
       8 -> 23        -0.01180
       8 -> 28         0.00740
       8 -> 31         0.00340
       8 -> 36        -0.00107
       8 -> 44        -0.00022
       8 -> 47        -0.00019
       8 -> 52         0.00142
       3 <- 27         0.00197
       3 <- 38         0.00204
       3 <- 45         0.00210
       4 <- 27         0.00337
       4 <- 38        -0.00015
       4 <- 45        -0.00097
       5 <- 13        -0.00093
       5 <- 17        -0.00074
       5 <- 23         0.00053
       5 <- 28        -0.00048
       5 <- 31        -0.00108
       5 <- 36         0.00179
       5 <- 44         0.00036
       5 <- 47         0.00017
       5 <- 52         0.00022
       6 <- 27         0.00079
       6 <- 38        -0.00064
       6 <- 45         0.00130
       7 <- 12        -0.00095
       7 <- 16        -0.00562
       7 <- 18        -0.00110
       7 <- 22         0.00669
       7 <- 24        -0.00069
       7 <- 30         0.00254
       7 <- 34        -0.00131
       7 <- 35         0.00253
       7 <- 40        -0.00097
       7 <- 42         0.00043
       7 <- 48         0.00039
       7 <- 53         0.00111
       8 <-  9        -0.01815
       8 <- 13         0.00491
       8 <- 17        -0.00388
       8 <- 23         0.00075
       8 <- 28        -0.00058
       8 <- 31         0.00159
       8 <- 36        -0.00194
       8 <- 52         0.00042
 This state for optimization and/or second-order correction.
 Total Energy, E(TD-HF/TD-DFT) =  -114.339358477    
 Copying the excited state density for this state as the 1-particle RhoCI density.
 
 Excited State   2:      Singlet-B2     6.6092 eV  187.59 nm  f=0.0514  <S**2>=0.000
       3 -> 12         0.00123
       3 -> 16         0.00061
       3 -> 18         0.00111
       3 -> 22        -0.00024
       3 -> 24         0.00130
       3 -> 30        -0.00012
       3 -> 35        -0.00026
       4 -> 12        -0.00434
       4 -> 16         0.00111
       4 -> 18         0.00234
       4 -> 22        -0.00331
       4 -> 24         0.00378
       4 -> 34        -0.00077
       4 -> 35         0.00081
       4 -> 40        -0.00050
       5 -> 10        -0.00313
       5 -> 11        -0.00924
       5 -> 14         0.00676
       5 -> 15        -0.00123
       5 -> 19         0.00272
       5 -> 20         0.00030
       5 -> 21         0.00473
       5 -> 25         0.00020
       5 -> 26         0.00242
       5 -> 29         0.00213
       5 -> 32        -0.00015
       5 -> 33        -0.00086
       5 -> 37        -0.00038
       5 -> 39        -0.00030
       5 -> 43        -0.00055
       5 -> 46        -0.00052
       5 -> 49         0.00017
       6 -> 12         0.00115
       6 -> 16         0.00105
       6 -> 18         0.00352
       6 -> 22        -0.00271
       6 -> 24         0.00165
       6 -> 30        -0.00033
       6 -> 34        -0.00014
       6 -> 40         0.00019
       6 -> 42        -0.00029
       6 -> 48         0.00038
       6 -> 51        -0.00049
       7 -> 27         0.00046
       7 -> 38        -0.00030
       7 -> 45         0.00068
       8 -> 10         0.70477
       8 -> 11        -0.05161
       8 -> 14         0.00228
       8 -> 15        -0.00923
       8 -> 19         0.01704
       8 -> 20         0.01083
       8 -> 21        -0.00483
       8 -> 25         0.00073
       8 -> 26         0.00144
       8 -> 29         0.00056
       8 -> 32         0.00069
       8 -> 33         0.00222
       8 -> 37         0.00053
       8 -> 39         0.00051
       8 -> 41        -0.00016
       8 -> 43         0.00069
       8 -> 46        -0.00085
       8 -> 54         0.00017
       3 <- 12         0.00034
       3 <- 16         0.00050
       3 <- 18         0.00047
       3 <- 22        -0.00034
       3 <- 24         0.00084
       3 <- 30        -0.00011
       3 <- 35        -0.00025
       4 <- 12         0.00056
       4 <- 16         0.00152
       4 <- 18         0.00244
       4 <- 22        -0.00202
       4 <- 24         0.00268
       4 <- 34        -0.00052
       4 <- 35         0.00053
       4 <- 40        -0.00024
       4 <- 42        -0.00015
       4 <- 48        -0.00011
       5 <- 10         0.00245
       5 <- 11        -0.00019
       5 <- 14         0.00493
       5 <- 15        -0.00114
       5 <- 19         0.00065
       5 <- 20         0.00037
       5 <- 21         0.00228
       5 <- 25         0.00168
       5 <- 26         0.00153
       5 <- 29         0.00060
       5 <- 32        -0.00036
       5 <- 33        -0.00082
       5 <- 37        -0.00037
       5 <- 39        -0.00017
       5 <- 43        -0.00039
       5 <- 46        -0.00044
       5 <- 49         0.00016
       6 <- 12         0.00034
       6 <- 16        -0.00021
       6 <- 18         0.00165
       6 <- 22        -0.00095
       6 <- 24         0.00063
       6 <- 30         0.00038
       6 <- 34        -0.00021
       6 <- 35         0.00028
       6 <- 40         0.00017
       6 <- 42        -0.00028
       6 <- 48         0.00032
       6 <- 51        -0.00050
       6 <- 53         0.00011
       7 <- 27         0.00035
       7 <- 38        -0.00022
       7 <- 45         0.00058
       8 <- 10        -0.00263
       8 <- 11        -0.00076
       8 <- 14        -0.00809
       8 <- 15         0.00013
       8 <- 19        -0.00047
       8 <- 20        -0.00039
       8 <- 21        -0.00296
       8 <- 25        -0.00279
       8 <- 29        -0.00070
       8 <- 32        -0.00026
       8 <- 33         0.00150
       8 <- 37         0.00052
       8 <- 39         0.00042
       8 <- 43         0.00052
       8 <- 46        -0.00058
       8 <- 50        -0.00014
 
 Excited State   3:      Singlet-B2     7.4038 eV  167.46 nm  f=0.0215  <S**2>=0.000
       3 -> 12        -0.00022
       3 -> 16        -0.00066
       3 -> 18         0.00057
       3 -> 22         0.00027
       3 -> 24         0.00030
       3 -> 30         0.00157
       3 -> 34         0.00014
       3 -> 35        -0.00035
       3 -> 40         0.00031
       3 -> 42        -0.00019
       3 -> 48         0.00028
       3 -> 51        -0.00027
       4 -> 12         0.00309
       4 -> 16        -0.00089
       4 -> 18         0.00322
       4 -> 22        -0.00155
       4 -> 24         0.00329
       4 -> 30        -0.00108
       4 -> 34         0.00053
       4 -> 35        -0.00042
       4 -> 42        -0.00019
       4 -> 48         0.00019
       4 -> 51        -0.00015
       5 -> 10        -0.00752
       5 -> 11         0.00029
       5 -> 14         0.00603
       5 -> 15        -0.00664
       5 -> 19        -0.00374
       5 -> 20        -0.00300
       5 -> 21         0.00100
       5 -> 25         0.00141
       5 -> 26        -0.00050
       5 -> 29         0.00143
       5 -> 32        -0.00098
       5 -> 33        -0.00136
       5 -> 39         0.00046
       5 -> 41        -0.00085
       5 -> 46         0.00079
       5 -> 49        -0.00024
       5 -> 50         0.00039
       6 -> 12        -0.00324
       6 -> 16        -0.00186
       6 -> 18        -0.00145
       6 -> 22         0.00146
       6 -> 30         0.00058
       6 -> 34        -0.00044
       6 -> 35         0.00145
       6 -> 40        -0.00088
       6 -> 42         0.00028
       6 -> 48        -0.00082
       6 -> 51         0.00067
       6 -> 53         0.00012
       7 -> 27        -0.00042
       7 -> 38        -0.00114
       7 -> 45        -0.00146
       8 -> 10         0.05224
       8 -> 11         0.70424
       8 -> 14        -0.01139
       8 -> 15         0.01626
       8 -> 19        -0.02455
       8 -> 20         0.01182
       8 -> 21        -0.00213
       8 -> 25         0.00052
       8 -> 26        -0.00151
       8 -> 29        -0.00066
       8 -> 32        -0.00034
       8 -> 33         0.00021
       8 -> 41        -0.00139
       8 -> 43         0.00013
       8 -> 46         0.00129
       8 -> 49        -0.00053
       8 -> 50         0.00068
       8 -> 54        -0.00017
       3 <- 12         0.00032
       3 <- 16        -0.00027
       3 <- 18         0.00077
       3 <- 24         0.00040
       3 <- 30         0.00095
       3 <- 34         0.00021
       3 <- 35        -0.00041
       3 <- 40         0.00027
       3 <- 42        -0.00016
       3 <- 48         0.00023
       3 <- 51        -0.00017
       3 <- 53        -0.00023
       4 <- 12         0.00036
       4 <- 16         0.00050
       4 <- 18         0.00092
       4 <- 22        -0.00119
       4 <- 24         0.00136
       4 <- 30        -0.00046
       4 <- 34         0.00049
       4 <- 42        -0.00021
       4 <- 48         0.00013
       4 <- 51        -0.00020
       5 <- 10         0.00131
       5 <- 11        -0.00083
       5 <- 14         0.00225
       5 <- 15        -0.00045
       5 <- 19         0.00078
       5 <- 20        -0.00017
       5 <- 21         0.00088
       5 <- 25         0.00114
       5 <- 26        -0.00054
       5 <- 29         0.00077
       5 <- 32         0.00047
       5 <- 33        -0.00114
       5 <- 37         0.00017
       5 <- 39         0.00021
       5 <- 41        -0.00087
       5 <- 46         0.00073
       5 <- 49        -0.00012
       5 <- 50         0.00035
       6 <- 12        -0.00035
       6 <- 16        -0.00027
       6 <- 18        -0.00019
       6 <- 22         0.00048
       6 <- 30         0.00023
       6 <- 34        -0.00025
       6 <- 35         0.00109
       6 <- 40        -0.00065
       6 <- 42         0.00019
       6 <- 48        -0.00068
       6 <- 51         0.00056
       7 <- 38        -0.00091
       7 <- 45        -0.00124
       8 <- 10        -0.00082
       8 <- 11         0.00024
       8 <- 14        -0.00433
       8 <- 15         0.00062
       8 <- 19         0.00302
       8 <- 20        -0.00139
       8 <- 21        -0.00213
       8 <- 26        -0.00157
       8 <- 29        -0.00040
       8 <- 32         0.00131
       8 <- 33         0.00029
       8 <- 37        -0.00015
       8 <- 39        -0.00027
       8 <- 41        -0.00118
       8 <- 46         0.00104
       8 <- 49        -0.00028
       8 <- 50         0.00053
 
 Excited State   4:      Singlet-A1     7.5550 eV  164.11 nm  f=0.0540  <S**2>=0.000
       3 -> 10         0.00166
       3 -> 11        -0.00101
       3 -> 14         0.00056
       3 -> 15        -0.00034
       3 -> 19         0.00083
       3 -> 20         0.00115
       3 -> 21         0.00037
       3 -> 25        -0.00027
       3 -> 26         0.00082
       3 -> 29         0.00118
       3 -> 32        -0.00030
       3 -> 33        -0.00036
       3 -> 37        -0.00029
       3 -> 39         0.00012
       3 -> 41        -0.00021
       3 -> 50         0.00038
       3 -> 54        -0.00021
       4 -> 10         0.00530
       4 -> 11         0.00770
       4 -> 14         0.00565
       4 -> 15        -0.00012
       4 -> 19         0.00047
       4 -> 20         0.00532
       4 -> 21         0.00216
       4 -> 25         0.00718
       4 -> 26         0.00103
       4 -> 29        -0.00047
       4 -> 32         0.00026
       4 -> 33        -0.00071
       4 -> 39        -0.00028
       4 -> 41         0.00018
       4 -> 43         0.00015
       4 -> 46        -0.00024
       4 -> 49        -0.00019
       5 -> 12         0.00744
       5 -> 18         0.01156
       5 -> 22        -0.00126
       5 -> 24         0.00512
       5 -> 30         0.00012
       5 -> 34        -0.00015
       5 -> 35         0.00082
       5 -> 51         0.00032
       5 -> 53        -0.00015
       6 -> 10         0.01322
       6 -> 11        -0.00387
       6 -> 14         0.00424
       6 -> 15         0.00149
       6 -> 19         0.00453
       6 -> 20         0.00447
       6 -> 21         0.00173
       6 -> 25         0.00262
       6 -> 26         0.00049
       6 -> 29        -0.00113
       6 -> 32         0.00060
       6 -> 33        -0.00043
       6 -> 43         0.00012
       6 -> 49        -0.00038
       6 -> 50        -0.00050
       7 ->  9         0.01252
       7 -> 13         0.00796
       7 -> 17         0.00425
       7 -> 23         0.00512
       7 -> 31         0.00085
       7 -> 36         0.00056
       7 -> 44         0.00065
       7 -> 47        -0.00036
       7 -> 52        -0.00011
       8 -> 12         0.70572
       8 -> 16        -0.01987
       8 -> 18         0.02829
       8 -> 22         0.00519
       8 -> 24         0.00240
       8 -> 30         0.00136
       8 -> 34         0.00152
       8 -> 35        -0.00213
       8 -> 40        -0.00072
       8 -> 42         0.00057
       8 -> 48        -0.00036
       8 -> 51         0.00030
       8 -> 53        -0.00020
       3 <- 10         0.00059
       3 <- 11        -0.00020
       3 <- 14         0.00033
       3 <- 19         0.00033
       3 <- 20         0.00053
       3 <- 21         0.00033
       3 <- 26         0.00047
       3 <- 29         0.00075
       3 <- 32        -0.00028
       3 <- 33        -0.00019
       3 <- 37        -0.00023
       3 <- 39         0.00011
       3 <- 41        -0.00017
       3 <- 46         0.00018
       3 <- 50         0.00033
       3 <- 54        -0.00019
       4 <- 10         0.00486
       4 <- 11         0.00211
       4 <- 14         0.00414
       4 <- 15        -0.00057
       4 <- 19         0.00033
       4 <- 20         0.00302
       4 <- 21         0.00088
       4 <- 25         0.00403
       4 <- 26         0.00063
       4 <- 33        -0.00101
       4 <- 39        -0.00031
       4 <- 46        -0.00022
       4 <- 49        -0.00015
       5 <- 12         0.00277
       5 <- 16         0.00164
       5 <- 18         0.00421
       5 <- 22        -0.00030
       5 <- 24         0.00277
       5 <- 34        -0.00034
       5 <- 35         0.00076
       5 <- 40         0.00011
       5 <- 51         0.00022
       5 <- 53        -0.00013
       6 <- 10         0.00367
       6 <- 11        -0.00047
       6 <- 14         0.00177
       6 <- 15         0.00048
       6 <- 19         0.00158
       6 <- 20         0.00225
       6 <- 21         0.00066
       6 <- 25         0.00138
       6 <- 26         0.00054
       6 <- 29        -0.00065
       6 <- 32         0.00040
       6 <- 33        -0.00043
       6 <- 39        -0.00012
       6 <- 41         0.00014
       6 <- 49        -0.00026
       6 <- 50        -0.00048
       7 <-  9         0.00183
       7 <- 13         0.00221
       7 <- 17         0.00141
       7 <- 23         0.00270
       7 <- 28        -0.00015
       7 <- 31         0.00060
       7 <- 36         0.00044
       7 <- 44         0.00054
       7 <- 47        -0.00031
       8 <- 12        -0.00170
       8 <- 16        -0.00768
       8 <- 18        -0.00306
       8 <- 22         0.00075
       8 <- 24        -0.00221
       8 <- 30         0.00013
       8 <- 34         0.00082
       8 <- 35        -0.00117
       8 <- 40        -0.00065
       8 <- 42         0.00048
       8 <- 48        -0.00042
       8 <- 51         0.00024
       8 <- 53        -0.00021
 
 Excited State   5:      Singlet-A2     8.0612 eV  153.80 nm  f=0.0000  <S**2>=0.000
       3 -> 27        -0.00070
       3 -> 38        -0.00062
       3 -> 45        -0.00037
       4 -> 27         0.00013
       4 -> 38         0.00056
       4 -> 45         0.00011
       5 ->  9        -0.00925
       5 -> 13        -0.00101
       5 -> 17         0.00581
       5 -> 23        -0.00128
       5 -> 31        -0.00179
       5 -> 36        -0.00128
       5 -> 44        -0.00024
       5 -> 52        -0.00014
       6 -> 27         0.00020
       6 -> 38         0.00028
       6 -> 45        -0.00038
       7 -> 12        -0.00052
       7 -> 16        -0.00181
       7 -> 18         0.00181
       7 -> 22        -0.00073
       7 -> 24        -0.00018
       7 -> 30         0.00013
       7 -> 35        -0.00018
       7 -> 40         0.00014
       7 -> 48        -0.00013
       8 ->  9         0.07233
       8 -> 13         0.70293
       8 -> 17         0.01352
       8 -> 23         0.01890
       8 -> 31        -0.00131
       8 -> 47         0.00018
       8 -> 52        -0.00020
       3 <- 27        -0.00028
       3 <- 38        -0.00045
       3 <- 45        -0.00045
       4 <- 27        -0.00028
       5 <-  9        -0.00025
       5 <- 13        -0.00027
       5 <- 17         0.00061
       5 <- 36        -0.00030
       6 <- 38         0.00021
       6 <- 45        -0.00011
       7 <- 12        -0.00066
       7 <- 16        -0.00077
       7 <- 18         0.00065
       7 <- 22        -0.00131
       7 <- 24        -0.00033
       7 <- 30         0.00018
       7 <- 34         0.00046
       7 <- 35        -0.00077
       7 <- 40         0.00039
       7 <- 42        -0.00023
       7 <- 53        -0.00015
       8 <-  9         0.00312
       8 <- 13         0.00140
       8 <- 17         0.00024
       8 <- 23        -0.00027
       8 <- 31        -0.00017
       8 <- 36         0.00026
 
 Excited State   6:      Singlet-B2    10.2847 eV  120.55 nm  f=0.1886  <S**2>=0.000
       3 -> 12        -0.00032
       3 -> 16        -0.00195
       3 -> 18         0.00071
       3 -> 22         0.00143
       3 -> 24         0.00100
       3 -> 30         0.00140
       3 -> 34        -0.00072
       3 -> 40        -0.00024
       3 -> 42         0.00050
       3 -> 48         0.00033
       3 -> 51        -0.00020
       3 -> 53        -0.00011
       4 -> 12        -0.00732
       4 -> 16         0.00121
       4 -> 18         0.00447
       4 -> 22        -0.01513
       4 -> 24         0.00841
       4 -> 30         0.00026
       4 -> 34         0.00243
       4 -> 35        -0.00264
       4 -> 40        -0.00209
       4 -> 42         0.00115
       4 -> 48         0.00026
       4 -> 51        -0.00014
       5 -> 10         0.01756
       5 -> 11        -0.00643
       5 -> 14         0.03410
       5 -> 15        -0.00772
       5 -> 19         0.00528
       5 -> 20        -0.01445
       5 -> 21         0.01647
       5 -> 25         0.00796
       5 -> 26         0.00284
       5 -> 29        -0.00043
       5 -> 32         0.00015
       5 -> 33         0.00354
       5 -> 39         0.00219
       5 -> 41        -0.00108
       5 -> 43        -0.00071
       5 -> 50         0.00032
       6 -> 12         0.00431
       6 -> 16         0.00450
       6 -> 18         0.00943
       6 -> 22        -0.00911
       6 -> 24         0.00535
       6 -> 30         0.00100
       6 -> 34         0.00172
       6 -> 35        -0.00051
       6 -> 40        -0.00122
       6 -> 42         0.00020
       6 -> 48        -0.00054
       6 -> 51         0.00024
       7 -> 27         0.00696
       7 -> 45        -0.00075
       8 -> 10        -0.00257
       8 -> 11         0.01262
       8 -> 14         0.70471
       8 -> 15        -0.02127
       8 -> 19         0.01887
       8 -> 20         0.00522
       8 -> 21        -0.02298
       8 -> 25        -0.00731
       8 -> 26         0.00113
       8 -> 29        -0.00104
       8 -> 32         0.00100
       8 -> 33         0.00289
       8 -> 37         0.00140
       8 -> 39        -0.00380
       8 -> 43         0.00199
       8 -> 49        -0.00075
       8 -> 50         0.00043
       3 <- 12        -0.00029
       3 <- 16        -0.00097
       3 <- 18         0.00023
       3 <- 22         0.00051
       3 <- 24         0.00049
       3 <- 30         0.00081
       3 <- 34        -0.00036
       3 <- 35        -0.00012
       3 <- 40        -0.00018
       3 <- 42         0.00034
       3 <- 48         0.00033
       3 <- 51        -0.00014
       3 <- 53        -0.00017
       4 <- 12        -0.00100
       4 <- 16         0.00151
       4 <- 18         0.00336
       4 <- 22        -0.00748
       4 <- 24         0.00505
       4 <- 30         0.00035
       4 <- 34         0.00092
       4 <- 35        -0.00196
       4 <- 40        -0.00153
       4 <- 42         0.00063
       4 <- 51        -0.00028
       5 <- 10         0.00399
       5 <- 11        -0.00178
       5 <- 14         0.01147
       5 <- 15        -0.00223
       5 <- 19         0.00251
       5 <- 20        -0.00549
       5 <- 21         0.00781
       5 <- 25         0.00486
       5 <- 26         0.00135
       5 <- 29        -0.00079
       5 <- 32         0.00061
       5 <- 33         0.00172
       5 <- 39         0.00167
       5 <- 41        -0.00065
       5 <- 43        -0.00056
       5 <- 46         0.00012
       5 <- 49         0.00011
       5 <- 50         0.00020
       6 <- 12         0.00061
       6 <- 16         0.00119
       6 <- 18         0.00298
       6 <- 22        -0.00392
       6 <- 24         0.00244
       6 <- 30         0.00071
       6 <- 34         0.00090
       6 <- 35        -0.00027
       6 <- 40        -0.00093
       6 <- 48        -0.00046
       6 <- 51         0.00014
       7 <- 27         0.00437
       7 <- 38        -0.00012
       7 <- 45        -0.00075
       8 <- 10        -0.00818
       8 <- 11        -0.00381
       8 <- 14        -0.01865
       8 <- 19         0.00247
       8 <- 20         0.00335
       8 <- 21        -0.01293
       8 <- 25        -0.00562
       8 <- 26        -0.00101
       8 <- 29        -0.00073
       8 <- 32         0.00081
       8 <- 33         0.00068
       8 <- 37         0.00077
       8 <- 39        -0.00233
       8 <- 43         0.00134
       8 <- 46         0.00034
       8 <- 49        -0.00048
       8 <- 50         0.00029
 
 Excited State   7:      Singlet-B1    10.6320 eV  116.61 nm  f=0.0002  <S**2>=0.000
       3 ->  9        -0.02905
       3 -> 13         0.00908
       3 -> 17        -0.00788
       3 -> 23         0.00572
       3 -> 28        -0.00358
       3 -> 31        -0.00064
       3 -> 36        -0.00022
       3 -> 44         0.00080
       3 -> 47        -0.00031
       3 -> 52         0.00106
       4 ->  9         0.01600
       4 -> 13        -0.00288
       4 -> 17         0.00095
       4 -> 23        -0.00232
       4 -> 28        -0.00049
       4 -> 31         0.00338
       4 -> 44        -0.00027
       4 -> 47        -0.00172
       4 -> 52        -0.00102
       5 -> 27        -0.00197
       5 -> 38         0.00264
       5 -> 45         0.00428
       6 ->  9         0.70221
       6 -> 13        -0.06371
       6 -> 17         0.02927
       6 -> 23        -0.01198
       6 -> 28         0.01058
       6 -> 31        -0.00191
       6 -> 36        -0.00242
       6 -> 44        -0.00303
       6 -> 47         0.00611
       6 -> 52         0.00202
       7 -> 10         0.00520
       7 -> 11         0.02434
       7 -> 14         0.00318
       7 -> 15        -0.01397
       7 -> 19        -0.00691
       7 -> 20         0.00406
       7 -> 21         0.00450
       7 -> 25        -0.00410
       7 -> 26         0.00833
       7 -> 29        -0.00064
       7 -> 33        -0.00122
       7 -> 37        -0.00204
       7 -> 39         0.00132
       7 -> 41        -0.00280
       7 -> 43         0.00134
       7 -> 46         0.00519
       7 -> 49        -0.00138
       7 -> 50        -0.00178
       7 -> 54         0.00046
       8 -> 27         0.00590
       8 -> 38         0.00159
       8 -> 45         0.00651
       3 <-  9        -0.00856
       3 <- 13         0.00233
       3 <- 17        -0.00322
       3 <- 23         0.00152
       3 <- 28        -0.00177
       3 <- 31        -0.00049
       3 <- 36        -0.00032
       3 <- 52         0.00090
       4 <-  9         0.00331
       4 <- 13        -0.00017
       4 <- 17         0.00222
       4 <- 23        -0.00060
       4 <- 28         0.00162
       4 <- 31         0.00364
       4 <- 36         0.00074
       4 <- 44         0.00012
       4 <- 47        -0.00145
       4 <- 52        -0.00051
       5 <- 27        -0.00168
       5 <- 38         0.00194
       5 <- 45         0.00363
       6 <-  9        -0.01824
       6 <- 13         0.00630
       6 <- 17        -0.00330
       6 <- 23         0.00242
       6 <- 28        -0.00035
       6 <- 31        -0.00366
       6 <- 36        -0.00290
       6 <- 44        -0.00178
       6 <- 47         0.00506
       6 <- 52         0.00062
       7 <- 10         0.00091
       7 <- 11         0.00120
       7 <- 14         0.00015
       7 <- 15        -0.00047
       7 <- 19        -0.00029
       7 <- 20         0.00410
       7 <- 21         0.00405
       7 <- 25        -0.00556
       7 <- 26         0.00634
       7 <- 29         0.00407
       7 <- 32         0.00143
       7 <- 37        -0.00292
       7 <- 39         0.00132
       7 <- 41        -0.00187
       7 <- 43         0.00139
       7 <- 46         0.00443
       7 <- 49        -0.00113
       7 <- 50        -0.00115
       7 <- 54         0.00087
       8 <- 27         0.00388
       8 <- 38         0.00128
       8 <- 45         0.00537
 
 Excited State   8:      Singlet-A1    11.0262 eV  112.45 nm  f=0.0206  <S**2>=0.000
       3 -> 10         0.00236
       3 -> 11         0.00482
       3 -> 14         0.00194
       3 -> 15        -0.00134
       3 -> 19        -0.00514
       3 -> 20         0.00608
       3 -> 21         0.00345
       3 -> 25        -0.00349
       3 -> 26         0.00692
       3 -> 29         0.00666
       3 -> 32        -0.00288
       3 -> 33         0.00019
       3 -> 37        -0.00323
       3 -> 39         0.00170
       3 -> 43         0.00121
       3 -> 46         0.00136
       3 -> 49        -0.00035
       3 -> 50         0.00074
       4 -> 10         0.04861
       4 -> 11        -0.00461
       4 -> 14         0.02429
       4 -> 15        -0.00598
       4 -> 19         0.01144
       4 -> 20         0.00861
       4 -> 21         0.00640
       4 -> 25         0.01210
       4 -> 26         0.00440
       4 -> 29         0.00037
       4 -> 32         0.00195
       4 -> 33         0.00048
       4 -> 37         0.00149
       4 -> 41        -0.00029
       4 -> 46        -0.00112
       4 -> 49         0.00079
       5 -> 12         0.05219
       5 -> 16         0.04500
       5 -> 18         0.01955
       5 -> 22        -0.01056
       5 -> 24         0.02021
       5 -> 30        -0.00477
       5 -> 35        -0.00198
       5 -> 40        -0.00048
       5 -> 42         0.00081
       5 -> 48         0.00013
       5 -> 53        -0.00053
       6 -> 10         0.02868
       6 -> 11         0.00545
       6 -> 14         0.01202
       6 -> 15        -0.00894
       6 -> 19         0.00058
       6 -> 20        -0.01179
       6 -> 21        -0.00641
       6 -> 25         0.01826
       6 -> 26        -0.01098
       6 -> 29        -0.01032
       6 -> 32        -0.00037
       6 -> 33        -0.00238
       6 -> 37         0.00342
       6 -> 39        -0.00044
       6 -> 41        -0.00186
       6 -> 43        -0.00040
       6 -> 46         0.00106
       6 -> 49        -0.00088
       6 -> 50        -0.00079
       6 -> 54         0.00029
       7 ->  9         0.54119
       7 -> 13         0.05591
       7 -> 17        -0.00126
       7 -> 23         0.01581
       7 -> 28        -0.00096
       7 -> 31        -0.00151
       7 -> 36        -0.00012
       7 -> 44         0.00022
       7 -> 47         0.00017
       7 -> 52         0.00110
       8 -> 12         0.00031
       8 -> 16         0.43875
       8 -> 18        -0.00302
       8 -> 22        -0.04366
       8 -> 24         0.00714
       8 -> 30        -0.00711
       8 -> 34         0.00593
       8 -> 35        -0.00775
       8 -> 40         0.00247
       8 -> 42        -0.00081
       8 -> 48         0.00045
       8 -> 51         0.00057
       8 -> 53        -0.00082
       3 <- 10         0.00082
       3 <- 11         0.00231
       3 <- 14         0.00162
       3 <- 15        -0.00020
       3 <- 19        -0.00269
       3 <- 20         0.00335
       3 <- 21         0.00292
       3 <- 25        -0.00274
       3 <- 26         0.00460
       3 <- 29         0.00446
       3 <- 32        -0.00184
       3 <- 33         0.00067
       3 <- 37        -0.00229
       3 <- 39         0.00127
       3 <- 41        -0.00022
       3 <- 43         0.00104
       3 <- 46         0.00153
       3 <- 49        -0.00051
       3 <- 50         0.00058
       4 <- 10         0.00917
       4 <- 11        -0.00023
       4 <- 14         0.00683
       4 <- 15        -0.00170
       4 <- 19         0.00377
       4 <- 20         0.00342
       4 <- 21         0.00242
       4 <- 25         0.00567
       4 <- 26         0.00268
       4 <- 29         0.00024
       4 <- 32         0.00149
       4 <- 33        -0.00078
       4 <- 37         0.00080
       4 <- 41        -0.00037
       4 <- 46        -0.00059
       4 <- 49         0.00082
       5 <- 12         0.00796
       5 <- 16         0.01071
       5 <- 18         0.00649
       5 <- 22        -0.00432
       5 <- 24         0.00818
       5 <- 30        -0.00195
       5 <- 34        -0.00015
       5 <- 35        -0.00071
       5 <- 40        -0.00046
       5 <- 42         0.00059
       5 <- 53        -0.00042
       6 <- 10         0.00165
       6 <- 11         0.00048
       6 <- 14         0.00205
       6 <- 15        -0.00125
[...]
  46        4PY         0.00000   0.00000  -0.04780  -0.10262  -0.13892
  47        4PZ        -0.00091  -0.00000   0.00925   0.01623   0.00436
  48        5S         -0.00006   0.00000  -0.00007   0.00239   0.00163
  49        5PX         0.00000   0.00000   0.00000   0.00000   0.00000
  50        5PY         0.00000   0.00000  -0.02716  -0.04823  -0.04576
  51        5PZ        -0.00030  -0.00000   0.00340   0.00459   0.00068
  52        6D 0        0.00017   0.00000  -0.00138  -0.00262  -0.00073
  53        6D+1        0.00000   0.00000   0.00000   0.00000  -0.00000
  54        6D-1        0.00000   0.00000  -0.00307  -0.00314   0.00247
  55        6D+2        0.00001   0.00000  -0.00007  -0.00011  -0.00001
  56        6D-2        0.00000   0.00000  -0.00000   0.00000   0.00000
                          26        27        28        29        30
  26        4PX         0.00019
  27        4PY        -0.00000   0.00120
  28        4PZ         0.00000  -0.00047   0.00034
  29 3   H  1S          0.00000  -0.00286  -0.00158   0.08214
  30        2S          0.00000  -0.00377  -0.00256   0.12133   0.18427
  31        3S          0.00000  -0.00083  -0.00146   0.06084   0.10500
  32        4PX         0.00019   0.00000   0.00000  -0.00000  -0.00000
  33        4PY         0.00000  -0.00059  -0.00005   0.00751   0.00968
  34        4PZ        -0.00000   0.00005  -0.00016   0.00432   0.00589
  35 4   O  1S          0.00000  -0.00056  -0.00082   0.00293   0.00341
  36        2S          0.00000  -0.00125  -0.00075   0.00504   0.00660
  37        2PX         0.00461   0.00000  -0.00000  -0.00000  -0.00000
  38        2PY         0.00000  -0.00462   0.00225   0.02485   0.06158
  39        2PZ         0.00000  -0.00278  -0.00157   0.01022   0.01953
  40        3S         -0.00000   0.00488   0.00016  -0.01672  -0.02382
  41        3PX         0.00678   0.00000  -0.00000  -0.00000  -0.00000
  42        3PY         0.00000  -0.00673   0.00329   0.03585   0.08906
  43        3PZ         0.00000  -0.00388  -0.00220   0.01424   0.02722
  44        4S         -0.00000   0.00253  -0.00138  -0.01084  -0.01046
  45        4PX         0.00510   0.00000  -0.00000  -0.00000  -0.00000
  46        4PY         0.00000  -0.00475   0.00168   0.04780   0.10262
  47        4PZ         0.00000  -0.00216  -0.00097   0.00925   0.01623
  48        5S          0.00000  -0.00033  -0.00081  -0.00007   0.00239
  49        5PX         0.00028   0.00000   0.00000  -0.00000  -0.00000
  50        5PY         0.00000  -0.00006  -0.00074   0.02716   0.04823
  51        5PZ         0.00000  -0.00062   0.00009   0.00340   0.00459
  52        6D 0       -0.00000   0.00041   0.00021  -0.00138  -0.00262
  53        6D+1       -0.00055  -0.00000   0.00000  -0.00000  -0.00000
  54        6D-1       -0.00000   0.00060  -0.00047   0.00307   0.00314
  55        6D+2       -0.00000   0.00002   0.00000  -0.00007  -0.00011
  56        6D-2       -0.00000   0.00000   0.00000  -0.00000   0.00000
                          31        32        33        34        35
  31        3S          0.09264
  32        4PX        -0.00000   0.00019
  33        4PY         0.00094  -0.00000   0.00120
  34        4PZ         0.00179  -0.00000   0.00047   0.00034
  35 4   O  1S          0.00145  -0.00000   0.00056  -0.00082   0.63936
  36        2S          0.00168  -0.00000   0.00125  -0.00075   0.56866
  37        2PX        -0.00000   0.00461   0.00000   0.00000   0.00000
  38        2PY         0.09928   0.00000  -0.00462  -0.00225   0.00000
  39        2PZ         0.00567  -0.00000   0.00278  -0.00157  -0.00920
  40        3S         -0.00269   0.00000  -0.00488   0.00016  -0.12990
  41        3PX        -0.00000   0.00678   0.00000   0.00000   0.00000
  42        3PY         0.14401   0.00000  -0.00673  -0.00329   0.00000
  43        3PZ         0.00792  -0.00000   0.00388  -0.00220  -0.01270
  44        4S          0.00145   0.00000  -0.00253  -0.00138  -0.12866
  45        4PX        -0.00000   0.00510   0.00000   0.00000   0.00000
  46        4PY         0.13892   0.00000  -0.00475  -0.00168   0.00000
  47        4PZ         0.00436  -0.00000   0.00216  -0.00097  -0.01395
  48        5S          0.00163  -0.00000   0.00033  -0.00081  -0.00584
  49        5PX        -0.00000   0.00028   0.00000  -0.00000   0.00000
  50        5PY         0.04576   0.00000  -0.00006   0.00074   0.00000
  51        5PZ         0.00068  -0.00000   0.00062   0.00009   0.00090
  52        6D 0       -0.00073   0.00000  -0.00041   0.00021  -0.00146
  53        6D+1        0.00000  -0.00055  -0.00000  -0.00000   0.00000
  54        6D-1       -0.00247  -0.00000   0.00060   0.00047   0.00000
  55        6D+2       -0.00001   0.00000  -0.00002   0.00000  -0.00061
  56        6D-2        0.00000   0.00000  -0.00000   0.00000  -0.00000
                          36        37        38        39        40
  36        2S          0.52290
  37        2PX         0.00000   0.11330
  38        2PY         0.00000  -0.00000   0.18003
  39        2PZ        -0.01440   0.00000   0.00000   0.15422
  40        3S         -0.22103   0.00000   0.00000   0.04508   0.67662
  41        3PX         0.00000   0.16652  -0.00000   0.00000   0.00000
  42        3PY         0.00000  -0.00000   0.26156   0.00000   0.00000
  43        3PZ        -0.01929   0.00000   0.00000   0.21504   0.05869
  44        4S         -0.20164   0.00000   0.00000   0.15890   0.56782
  45        4PX         0.00000   0.12528  -0.00000   0.00000   0.00000
  46        4PY         0.00000  -0.00000   0.22529   0.00000   0.00000
  47        4PZ        -0.02307   0.00000   0.00000   0.11269   0.07191
  48        5S         -0.01146   0.00000   0.00000   0.06296   0.04197
  49        5PX         0.00000   0.00679  -0.00000   0.00000   0.00000
  50        5PY         0.00000  -0.00000   0.05088   0.00000   0.00000
  51        5PZ         0.00095   0.00000   0.00000   0.00590  -0.00103
  52        6D 0       -0.00302   0.00000   0.00000  -0.01813   0.01032
  53        6D+1        0.00000  -0.01360  -0.00000   0.00000   0.00000
  54        6D-1        0.00000  -0.00000  -0.01202   0.00000   0.00000
  55        6D+2       -0.00103   0.00000   0.00000   0.00013   0.00314
  56        6D-2       -0.00000   0.00000   0.00000   0.00000   0.00000
                          41        42        43        44        45
  41        3PX         0.24474
  42        3PY        -0.00000   0.38001
  43        3PZ         0.00000   0.00000   0.29991
  44        4S          0.00000   0.00000   0.21829   0.57531
  45        4PX         0.18413  -0.00000   0.00000   0.00000   0.13853
  46        4PY        -0.00000   0.32723   0.00000   0.00000  -0.00000
  47        4PZ         0.00000   0.00000   0.15690   0.14608   0.00000
  48        5S          0.00000   0.00000   0.08771   0.08393   0.00000
  49        5PX         0.00997  -0.00000   0.00000   0.00000   0.00750
  50        5PY        -0.00000   0.07382   0.00000   0.00000  -0.00000
  51        5PZ         0.00000   0.00000   0.00820   0.00334   0.00000
  52        6D 0        0.00000   0.00000  -0.02538  -0.00646   0.00000
  53        6D+1       -0.01999   0.00000   0.00000   0.00000  -0.01504
  54        6D-1        0.00000  -0.01749   0.00000   0.00000   0.00000
  55        6D+2        0.00000   0.00000   0.00016   0.00256   0.00000
  56        6D-2        0.00000   0.00000   0.00000   0.00000   0.00000
                          46        47        48        49        50
  46        4PY         0.28777
  47        4PZ         0.00000   0.08495
  48        5S          0.00000   0.04709   0.02707
  49        5PX        -0.00000   0.00000   0.00000   0.00041
  50        5PY         0.07072   0.00000   0.00000  -0.00000   0.02287
  51        5PZ         0.00000   0.00442   0.00193   0.00000   0.00000
  52        6D 0        0.00000  -0.01231  -0.00689   0.00000   0.00000
  53        6D+1        0.00000   0.00000   0.00000  -0.00081   0.00000
  54        6D-1       -0.01339   0.00000   0.00000   0.00000  -0.00140
  55        6D+2        0.00000   0.00028   0.00016   0.00000   0.00000
  56        6D-2        0.00000   0.00000  -0.00000   0.00000   0.00000
                          51        52        53        54        55
  51        5PZ         0.00054
  52        6D 0       -0.00072   0.00250
  53        6D+1        0.00000   0.00000   0.00163
  54        6D-1        0.00000   0.00000   0.00000   0.00127
  55        6D+2       -0.00001   0.00006   0.00000   0.00000   0.00001
  56        6D-2        0.00000   0.00000   0.00000   0.00000   0.00000
                          56
  56        6D-2        0.00000
          Condensed to atoms (all electrons):
               1          2          3          4
     1  C    4.724560   0.402241   0.402241   0.407891
     2  H    0.402241   0.743336  -0.125174  -0.095298
     3  H    0.402241  -0.125174   0.743336  -0.095298
     4  O    0.407891  -0.095298  -0.095298   7.995564
 Mulliken charges:
               1
     1  C    0.063068
     2  H    0.074895
     3  H    0.074895
     4  O   -0.212859
 Sum of Mulliken charges =  -0.00000
 Mulliken charges with hydrogens summed into heavy atoms:
               1
     1  C    0.212859
     4  O   -0.212859
 Electronic spatial extent (au):  <R**2>=             56.4275
 Charge=             -0.0000 electrons
 Dipole moment (field-independent basis, Debye):
    X=             -0.0000    Y=              0.0000    Z=             -1.8313  Tot=              1.8313
 Quadrupole moment (field-independent basis, Debye-Ang):
   XX=            -11.3715   YY=            -11.8467   ZZ=            -12.7555
   XY=              0.0000   XZ=              0.0000   YZ=              0.0000
 Traceless Quadrupole moment (field-independent basis, Debye-Ang):
   XX=              0.6198   YY=              0.1445   ZZ=             -0.7643
   XY=              0.0000   XZ=              0.0000   YZ=              0.0000
 Octapole moment (field-independent basis, Debye-Ang**2):
  XXX=              0.0000  YYY=              0.0000  ZZZ=              1.4447  XYY=              0.0000
  XXY=             -0.0000  XXZ=              0.8242  XZZ=              0.0000  YZZ=             -0.0000
  YYZ=              0.3997  XYZ=             -0.0000
 Hexadecapole moment (field-independent basis, Debye-Ang**3):
 XXXX=             -9.8787 YYYY=            -20.2011 ZZZZ=            -42.8491 XXXY=             -0.0000
 XXXZ=             -0.0000 YYYX=             -0.0000 YYYZ=             -0.0000 ZZZX=             -0.0000
 ZZZY=             -0.0000 XXYY=             -5.2315 XXZZ=             -8.6560 YYZZ=            -10.8191
 XXYZ=              0.0000 YYXZ=             -0.0000 ZZXY=             -0.0000
 N-N= 3.394983994691D+01 E-N=-3.372053346730D+02  KE= 1.147525663813D+02
 Symmetry A1   KE= 1.041500606734D+02
 Symmetry A2   KE= 6.172731091768D-36
 Symmetry B1   KE= 3.820903855777D+00
 Symmetry B2   KE= 6.781601852149D+00
 Leave Link  601 at Fri Sep 17 10:52:37 2021, MaxMem=   268435456 cpu:               0.0 elap:               0.0
 (Enter /software/gaussian/g16-a03/l9999.exe)
 Electronic transition elements 
                 1             2             3             4             5 
      1  -0.114339D+03 -0.114268D+03 -0.114239D+03 -0.114234D+03 -0.114215D+03
      2   0.000000D+00  0.000000D+00  0.000000D+00  0.000000D+00  0.000000D+00
      3   0.000000D+00  0.563465D+00  0.344312D+00  0.000000D+00  0.000000D+00
      4   0.000000D+00  0.000000D+00  0.000000D+00 -0.540164D+00  0.000000D+00
      5   0.000000D+00  0.000000D+00  0.000000D+00  0.000000D+00  0.000000D+00
      6   0.000000D+00 -0.135919D+00 -0.980059D-01  0.000000D+00  0.000000D+00
      7   0.000000D+00  0.000000D+00  0.000000D+00  0.144882D+00  0.000000D+00
      8   0.000000D+00 -0.438445D+00  0.769380D+00  0.000000D+00  0.000000D+00
      9   0.000000D+00  0.000000D+00  0.000000D+00  0.000000D+00  0.000000D+00
     10   0.127715D+01  0.000000D+00  0.000000D+00  0.000000D+00 -0.115592D+00
     11   0.000000D+00  0.000000D+00  0.000000D+00 -0.111699D+00  0.000000D+00
     12   0.000000D+00  0.000000D+00  0.000000D+00 -0.486473D+00  0.000000D+00
     13   0.000000D+00  0.000000D+00  0.000000D+00 -0.242527D+00  0.000000D+00
     14  -0.140616D+00  0.000000D+00  0.000000D+00  0.000000D+00 -0.123496D+00
     15   0.000000D+00  0.000000D+00  0.000000D+00  0.000000D+00  0.000000D+00
     16   0.000000D+00  0.533087D+00  0.117972D+00  0.000000D+00  0.000000D+00
                 6             7             8             9            10 
      1  -0.114133D+03 -0.114120D+03 -0.114106D+03 -0.114106D+03 -0.114082D+03
      2   0.000000D+00  0.267280D-01  0.000000D+00  0.000000D+00  0.000000D+00
      3   0.865268D+00  0.000000D+00  0.000000D+00 -0.641928D-01  0.000000D+00
      4   0.000000D+00  0.000000D+00  0.275856D+00  0.000000D+00  0.000000D+00
      5   0.000000D+00 -0.208562D-01  0.000000D+00  0.000000D+00  0.000000D+00
      6  -0.326163D+00  0.000000D+00  0.000000D+00 -0.389162D-02  0.000000D+00
      7   0.000000D+00  0.000000D+00 -0.102948D+00  0.000000D+00  0.000000D+00
      8  -0.910961D+00  0.000000D+00  0.000000D+00  0.697981D+00  0.000000D+00
      9   0.000000D+00 -0.143442D+01  0.000000D+00  0.000000D+00  0.000000D+00
     10   0.000000D+00  0.000000D+00  0.000000D+00  0.000000D+00 -0.499453D+00
     11   0.000000D+00  0.000000D+00  0.265814D+00  0.000000D+00  0.000000D+00
     12   0.000000D+00  0.000000D+00 -0.363753D+00  0.000000D+00  0.000000D+00
     13   0.000000D+00  0.000000D+00 -0.579358D+00  0.000000D+00  0.000000D+00
     14   0.000000D+00  0.000000D+00  0.000000D+00  0.000000D+00  0.304825D+00
     15   0.000000D+00 -0.429841D+00  0.000000D+00  0.000000D+00  0.000000D+00
     16   0.739267D+00  0.000000D+00  0.000000D+00  0.310664D+00  0.000000D+00
                11            12            13            14            15 
      1  -0.114080D+03 -0.114068D+03 -0.114058D+03 -0.114053D+03 -0.114048D+03
      2  -0.378134D+00  0.000000D+00  0.000000D+00  0.000000D+00  0.297723D+00
      3   0.000000D+00  0.000000D+00  0.000000D+00  0.000000D+00  0.000000D+00
      4   0.000000D+00  0.000000D+00 -0.436710D+00 -0.511494D+00  0.000000D+00
      5   0.166269D+00  0.000000D+00  0.000000D+00  0.000000D+00 -0.146905D+00
      6   0.000000D+00  0.000000D+00  0.000000D+00  0.000000D+00  0.000000D+00
      7   0.000000D+00  0.000000D+00  0.198589D+00  0.228605D+00  0.000000D+00
      8   0.000000D+00  0.000000D+00  0.000000D+00  0.000000D+00  0.000000D+00
      9  -0.354790D-01  0.000000D+00  0.000000D+00  0.000000D+00 -0.175935D-03
     10   0.000000D+00  0.156309D+00  0.000000D+00  0.000000D+00  0.000000D+00
     11   0.000000D+00  0.000000D+00 -0.158445D+00  0.161826D+00  0.000000D+00
     12   0.000000D+00  0.000000D+00 -0.428728D+00  0.278798D+00  0.000000D+00
     13   0.000000D+00  0.000000D+00 -0.163554D+00  0.221927D+00  0.000000D+00
     14   0.000000D+00  0.232249D+00  0.000000D+00  0.000000D+00  0.000000D+00
     15  -0.604583D-01  0.000000D+00  0.000000D+00  0.000000D+00 -0.274336D+00
     16   0.000000D+00  0.000000D+00  0.000000D+00  0.000000D+00  0.000000D+00
                16            17            18            19            20 
      1  -0.114047D+03 -0.114036D+03 -0.114023D+03 -0.114020D+03 -0.114015D+03
      2   0.000000D+00  0.000000D+00  0.000000D+00  0.000000D+00  0.000000D+00
      3   0.000000D+00  0.000000D+00  0.000000D+00 -0.397322D+00  0.000000D+00
      4   0.000000D+00  0.105599D+01  0.445902D+00  0.000000D+00 -0.561716D+00
      5   0.000000D+00  0.000000D+00  0.000000D+00  0.000000D+00  0.000000D+00
      6   0.000000D+00  0.000000D+00  0.000000D+00  0.194498D+00  0.000000D+00
      7   0.000000D+00 -0.499013D+00 -0.223827D+00  0.000000D+00  0.281959D+00
      8   0.000000D+00  0.000000D+00  0.000000D+00 -0.317474D+00  0.000000D+00
      9   0.000000D+00  0.000000D+00  0.000000D+00  0.000000D+00  0.000000D+00
     10   0.455515D-01  0.000000D+00  0.000000D+00  0.000000D+00  0.000000D+00
     11   0.000000D+00  0.425179D+00 -0.371083D+00  0.000000D+00  0.493928D+00
     12   0.000000D+00  0.806219D+00 -0.320638D+00  0.000000D+00 -0.334116D+00
     13   0.000000D+00  0.775454D+00 -0.765951D-01  0.000000D+00 -0.664047D-01
     14   0.257595D+00  0.000000D+00  0.000000D+00  0.000000D+00  0.000000D+00
     15   0.000000D+00  0.000000D+00  0.000000D+00  0.000000D+00  0.000000D+00
     16   0.000000D+00  0.000000D+00  0.000000D+00 -0.302951D-01  0.000000D+00
                21            22            23            24            25 
      1  -0.114015D+03 -0.114007D+03 -0.113999D+03 -0.113974D+03 -0.113967D+03
      2   0.000000D+00  0.000000D+00 -0.267841D+00  0.000000D+00 -0.555888D-01
      3  -0.276301D+00 -0.558610D+00  0.000000D+00  0.234337D+00  0.000000D+00
      4   0.000000D+00  0.000000D+00  0.000000D+00  0.000000D+00  0.000000D+00
      5   0.000000D+00  0.000000D+00  0.130815D+00  0.000000D+00  0.496861D-01
      6   0.148569D+00  0.279954D+00  0.000000D+00 -0.129830D+00  0.000000D+00
      7   0.000000D+00  0.000000D+00  0.000000D+00  0.000000D+00  0.000000D+00
      8  -0.601612D+00  0.254598D+00  0.000000D+00 -0.247006D+00  0.000000D+00
      9   0.000000D+00  0.000000D+00  0.521554D+00  0.000000D+00 -0.342464D+00
     10   0.000000D+00  0.000000D+00  0.000000D+00  0.000000D+00  0.000000D+00
     11   0.000000D+00  0.000000D+00  0.000000D+00  0.000000D+00  0.000000D+00
     12   0.000000D+00  0.000000D+00  0.000000D+00  0.000000D+00  0.000000D+00
     13   0.000000D+00  0.000000D+00  0.000000D+00  0.000000D+00  0.000000D+00
     14   0.000000D+00  0.000000D+00  0.000000D+00  0.000000D+00  0.000000D+00
     15   0.000000D+00  0.000000D+00  0.159984D+00  0.000000D+00 -0.125572D+00
     16   0.200841D+00 -0.432455D+00  0.000000D+00 -0.346170D+00  0.000000D+00
                26            27            28            29            30 
      1  -0.113963D+03 -0.113954D+03 -0.113942D+03 -0.113938D+03 -0.113934D+03
      2   0.000000D+00  0.000000D+00  0.000000D+00 -0.665477D+00  0.000000D+00
      3   0.000000D+00  0.000000D+00 -0.245745D+00  0.000000D+00  0.000000D+00
      4  -0.179048D+00  0.000000D+00  0.000000D+00  0.000000D+00  0.106949D+00
      5   0.000000D+00  0.000000D+00  0.000000D+00  0.382257D+00  0.000000D+00
      6   0.000000D+00  0.000000D+00  0.140558D+00  0.000000D+00  0.000000D+00
      7   0.104863D+00  0.000000D+00  0.000000D+00  0.000000D+00 -0.631429D-01
      8   0.000000D+00  0.000000D+00  0.910255D+00  0.000000D+00  0.000000D+00
      9   0.000000D+00  0.000000D+00  0.000000D+00 -0.385067D+00  0.000000D+00
     10   0.000000D+00  0.670670D-01  0.000000D+00  0.000000D+00  0.000000D+00
     11   0.308406D+00  0.000000D+00  0.000000D+00  0.000000D+00 -0.229262D+00
     12   0.778733D+00  0.000000D+00  0.000000D+00  0.000000D+00  0.411766D+00
     13   0.790135D-01  0.000000D+00  0.000000D+00  0.000000D+00 -0.135026D+00
     14   0.000000D+00  0.293758D+00  0.000000D+00  0.000000D+00  0.000000D+00
     15   0.000000D+00  0.000000D+00  0.000000D+00 -0.433812D+00  0.000000D+00
     16   0.000000D+00  0.000000D+00 -0.113793D-01  0.000000D+00  0.000000D+00

 Test job not archived.
 1\1\GINC-BHD0010\SP\RB3LYP TD-FC\6-311+G(d,p)\C1H2O1\BWEIGHT\17-Sep-20
 21\0\\#p B3LYP/6-311+G** #p TD=(singlets,nstates=30)IOp(6/8=3) IOp(9/4
 0=4)\\Scan Step 116, Bond Length 1.08\\0,1\C,0,0.,0.,-0.52736\H,0,0.,0
 .93726,-1.11871\H,0,0.,-0.93726,-1.11871\O,0,0.,0.,0.55264\\Version=ES
 64L-G16RevA.03\State=1-A1\HF=-114.5111409\RMSD=3.155e-09\PG=C02V [C2(C
 1O1),SGV(H2)]\\@


 I LOVE MANKIND - IT'S PEOPLE I CAN'T STAND.
     -- LINUS OF PEANUTS
 Job cpu time:       0 days  0 hours  0 minutes 26.6 seconds.
 Elapsed time:       0 days  0 hours  0 minutes 27.2 seconds.
 File lengths (MBytes):  RWF=     79 Int=      0 D2E=      0 Chk=     32 Scr=      1
 Normal termination of Gaussian 16 at Fri Sep 17 10:52:37 2021.
