 Entering Gaussian System, Link 0=g16
 Initial command:
 /software/gaussian/g16-c01/sse4/g16/l1.exe "/local_scratch/24665348/Gau-10233.inp" -scrdir="/local_scratch/24665348/"
 Entering Link 1 = /software/gaussian/g16-c01/sse4/g16/l1.exe PID=     10250.
  
 Copyright (c) 1988-2019, Gaussian, Inc.  All Rights Reserved.
  
 This is part of the Gaussian(R) 16 program.  It is based on
 the Gaussian(R) 09 system (copyright 2009, Gaussian, Inc.),
 the Gaussian(R) 03 system (copyright 2003, Gaussian, Inc.),
 the Gaussian(R) 98 system (copyright 1998, Gaussian, Inc.),
 the Gaussian(R) 94 system (copyright 1995, Gaussian, Inc.),
 the Gaussian 92(TM) system (copyright 1992, Gaussian, Inc.),
 the Gaussian 90(TM) system (copyright 1990, Gaussian, Inc.),
 the Gaussian 88(TM) system (copyright 1988, Gaussian, Inc.),
 the Gaussian 86(TM) system (copyright 1986, Carnegie Mellon
 University), and the Gaussian 82(TM) system (copyright 1983,
 Carnegie Mellon University). Gaussian is a federally registered
 trademark of Gaussian, Inc.
  
 This software contains proprietary and confidential information,
 including trade secrets, belonging to Gaussian, Inc.
  
 This software is provided under written license and may be
 used, copied, transmitted, or stored only in accord with that
 written license.
  
 The following legend is applicable only to US Government
 contracts under FAR:
  
                    RESTRICTED RIGHTS LEGEND
  
 Use, reproduction and disclosure by the US Government is
 subject to restrictions as set forth in subparagraphs (a)
 and (c) of the Commercial Computer Software - Restricted
 Rights clause in FAR 52.227-19.
  
 Gaussian, Inc.
 340 Quinnipiac St., Bldg. 40, Wallingford CT 06492
  
  
 ---------------------------------------------------------------
 Warning -- This program may not be used in any manner that
 competes with the business of Gaussian, Inc. or will provide
 assistance to any competitor of Gaussian, Inc.  The licensee
 of this program is prohibited from giving any competitor of
 Gaussian, Inc. access to this program.  By using this program,
 the user acknowledges that Gaussian, Inc. is engaged in the
 business of creating and licensing software in the field of
 computational chemistry and represents and warrants to the
 licensee that it is not a competitor of Gaussian, Inc. and that
 it will not use this program in any manner prohibited above.
 ---------------------------------------------------------------
  

 Cite this work as:
 Gaussian 16, Revision C.01,
 M. J. Frisch, G. W. Trucks, H. B. Schlegel, G. E. Scuseria, 
 M. A. Robb, J. R. Cheeseman, G. Scalmani, V. Barone, 
 G. A. Petersson, H. Nakatsuji, X. Li, M. Caricato, A. V. Marenich, 
 J. Bloino, B. G. Janesko, R. Gomperts, B. Mennucci, H. P. Hratchian, 
 J. V. Ortiz, A. F. Izmaylov, J. L. Sonnenberg, D. Williams-Young, 
 F. Ding, F. Lipparini, F. Egidi, J. Goings, B. Peng, A. Petrone, 
 T. Henderson, D. Ranasinghe, V. G. Zakrzewski, J. Gao, N. Rega, 
 G. Zheng, W. Liang, M. Hada, M. Ehara, K. Toyota, R. Fukuda, 
 J. Hasegawa, M. Ishida, T. Nakajima, Y. Honda, O. Kitao, H. Nakai, 
 T. Vreven, K. Throssell, J. A. Montgomery, Jr., J. E. Peralta, 
 F. Ogliaro, M. J. Bearpark, J. J. Heyd, E. N. Brothers, K. N. Kudin, 
 V. N. Staroverov, T. A. Keith, R. Kobayashi, J. Normand, 
 K. Raghavachari, A. P. Rendell, J. C. Burant, S. S. Iyengar, 
 J. Tomasi, M. Cossi, J. M. Millam, M. Klene, C. Adamo, R. Cammi, 
 J. W. Ochterski, R. L. Martin, K. Morokuma, O. Farkas, 
 J. B. Foresman, and D. J. Fox, Gaussian, Inc., Wallingford CT, 2019.
 
 ******************************************
 Gaussian 16:  ES64L-G16RevC.01  3-Jul-2019
                 2-May-2024 
 ******************************************
 %chk=geometry.chk
 %mem=1GB
 %nprocshared=12
 Will use up to   12 processors via shared memory.
 ----------------------------------------
 #P wB97XD/6-311+G* NoSymm #P Field=Y+243
 ----------------------------------------
 1/38=1,172=1/1;
 2/12=2,15=1,17=6,18=5,40=1/2;
 3/5=4,6=6,7=11,11=2,14=2,15=243,25=1,30=1,74=-58/1,2,3;
 4//1;
 5/5=2,38=5/2;
 6/7=2,8=2,9=2,10=2,28=1/1;
 99/5=1,9=1/99;
 Leave Link    1 at Thu May  2 13:58:19 2024, MaxMem=   134217728 cpu:               2.3 elap:               2.3
 (Enter /software/gaussian/g16-c01/sse4/g16/l101.exe)
 -------
 TitleMe
 -------
 Symbolic Z-matrix:
 Charge =  1 Multiplicity = 1
 C                     0.5193    1.233    -0.0319 
 C                     1.9445    1.2692   -0.0367 
 C                     2.6204    0.0928   -0.025 
 C                    -0.196     0.0301    0.001 
 H                    -0.0207    2.1742   -0.0434 
 H                     2.4828    2.2089   -0.0361 
 H                    -1.2777    0.0399    0.0117 
 N                     4.0921    0.0959    0.0366 
 O                     4.6393   -1.0217    0.1446 
 O                     4.6649    1.1984   -0.0233 
 C                     0.4943   -1.1671    0.021 
 H                    -0.0325   -2.1149    0.0545 
 C                     1.9629   -1.2165   -0.0211 
 H                     2.4436   -1.9631    0.6151 
 Br                    2.173    -1.9491   -1.9062 
 
 ITRead=  0  0  0  0  0  0  0  0  0  0  0  0  0  0  0
 MicOpt= -1 -1 -1 -1 -1 -1 -1 -1 -1 -1 -1 -1 -1 -1 -1
 NAtoms=     15 NQM=       15 NQMF=       0 NMMI=      0 NMMIF=      0
                NMic=       0 NMicF=      0.
                    Isotopes and Nuclear Properties:
 (Nuclear quadrupole moments (NQMom) in fm**2, nuclear magnetic moments (NMagM)
  in nuclear magnetons)

  Atom         1           2           3           4           5           6           7           8           9          10
 IAtWgt=          12          12          12          12           1           1           1          14          16          16
 AtmWgt=  12.0000000  12.0000000  12.0000000  12.0000000   1.0078250   1.0078250   1.0078250  14.0030740  15.9949146  15.9949146
 NucSpn=           0           0           0           0           1           1           1           2           0           0
 AtZEff=  -0.0000000  -0.0000000  -0.0000000  -0.0000000  -0.0000000  -0.0000000  -0.0000000  -0.0000000  -0.0000000  -0.0000000
 NQMom=    0.0000000   0.0000000   0.0000000   0.0000000   0.0000000   0.0000000   0.0000000   2.0440000   0.0000000   0.0000000
 NMagM=    0.0000000   0.0000000   0.0000000   0.0000000   2.7928460   2.7928460   2.7928460   0.4037610   0.0000000   0.0000000
 AtZNuc=   6.0000000   6.0000000   6.0000000   6.0000000   1.0000000   1.0000000   1.0000000   7.0000000   8.0000000   8.0000000

  Atom        11          12          13          14          15
 IAtWgt=          12           1          12           1          79
 AtmWgt=  12.0000000   1.0078250  12.0000000   1.0078250  78.9183361
 NucSpn=           0           1           0           1           3
 AtZEff=  -0.0000000  -0.0000000  -0.0000000  -0.0000000  -0.0000000
 NQMom=    0.0000000   0.0000000   0.0000000   0.0000000  31.3000000
 NMagM=    0.0000000   2.7928460   0.0000000   2.7928460   2.1063990
 AtZNuc=   6.0000000   1.0000000   6.0000000   1.0000000  35.0000000
 Leave Link  101 at Thu May  2 13:58:21 2024, MaxMem=   134217728 cpu:               1.6 elap:               1.6
 (Enter /software/gaussian/g16-c01/sse4/g16/l202.exe)
                          Input orientation:                          
 ---------------------------------------------------------------------
 Center     Atomic      Atomic             Coordinates (Angstroms)
 Number     Number       Type             X           Y           Z
 ---------------------------------------------------------------------
      1          6           0        0.519300    1.233000   -0.031900
      2          6           0        1.944500    1.269200   -0.036700
      3          6           0        2.620400    0.092800   -0.025000
      4          6           0       -0.196000    0.030100    0.001000
      5          1           0       -0.020700    2.174200   -0.043400
      6          1           0        2.482800    2.208900   -0.036100
      7          1           0       -1.277700    0.039900    0.011700
      8          7           0        4.092100    0.095900    0.036600
      9          8           0        4.639300   -1.021700    0.144600
     10          8           0        4.664900    1.198400   -0.023300
     11          6           0        0.494300   -1.167100    0.021000
     12          1           0       -0.032500   -2.114900    0.054500
     13          6           0        1.962900   -1.216500   -0.021100
     14          1           0        2.443600   -1.963100    0.615100
     15         35           0        2.173000   -1.949100   -1.906200
 ---------------------------------------------------------------------
                    Distance matrix (angstroms):
                    1          2          3          4          5
     1  C    0.000000
     2  C    1.425668   0.000000
     3  C    2.390549   1.356796   0.000000
     4  C    1.399895   2.473566   2.817218   0.000000
     5  H    1.085168   2.163581   3.362733   2.151712   0.000000
     6  H    2.192654   1.082960   2.120598   3.453189   2.503751
     7  H    2.157452   3.449071   3.898632   1.081797   2.477564
     8  N    3.750012   2.448304   1.472992   4.288753   4.608780
     9  O    4.699917   3.541615   2.312322   4.950458   5.653735
    10  O    4.145753   2.721354   2.324292   4.999386   4.786171
    11  C    2.400813   2.835836   2.471794   1.382101   3.381369
    12  H    3.394169   3.920329   3.452266   2.151887   4.290233
    13  C    2.843264   2.485817   1.465124   2.493060   3.928360
    14  H    3.786370   3.334922   2.160489   3.364142   4.860416
    15  Br   4.046416   3.728900   2.812194   3.628609   5.028314
                    6          7          8          9         10
     6  H    0.000000
     7  H    4.341452   0.000000
     8  N    2.657047   5.370150   0.000000
     9  O    3.888434   6.012948   1.249048   0.000000
    10  O    2.404752   6.054572   1.243863   2.226587   0.000000
    11  C    3.918516   2.144043   3.813080   4.149391   4.794941
    12  H    5.003018   2.489080   4.679774   4.798846   5.748876
    13  C    3.464662   3.475788   2.501842   2.688591   3.623886
    14  H    4.222698   4.268978   2.700314   2.434893   3.916224
    15  Br   4.569706   4.420610   3.411663   3.338935   4.434144
                   11         12         13         14         15
    11  C    0.000000
    12  H    1.084880   0.000000
    13  C    1.470034   2.189625   0.000000
    14  H    2.187771   2.543302   1.092353   0.000000
    15  Br   2.672762   2.955683   2.033334   2.535818   0.000000
 Symmetry turned off by external request.
 Stoichiometry    C6H5BrNO2(1+)
 Framework group  C1[X(C6H5BrNO2)]
 Deg. of freedom    39
 Full point group                 C1      NOp   1
 Rotational constants (GHZ):           1.1632986           0.9594224           0.5957624
 Leave Link  202 at Thu May  2 13:58:23 2024, MaxMem=   134217728 cpu:               1.3 elap:               1.4
 (Enter /software/gaussian/g16-c01/sse4/g16/l301.exe)
 Standard basis: 6-311+G(d) (5D, 7F)
 Ernie: Thresh=  0.10000D-02 Tol=  0.10000D-05 Strict=F.
 The following finite field(s) will be applied:
 An electric field of              0.0000  0.0243  0.0000
   261 basis functions,   443 primitive gaussians,   273 cartesian basis functions
    49 alpha electrons       49 beta electrons
       nuclear repulsion energy       772.8945969580 Hartrees.
 IExCor= 4639 DFT=T Ex+Corr=wB97XD ExCW=0 ScaHFX=  1.000000
 ScaDFX=  1.000000  1.000000  1.000000  1.000000 ScalE2=  1.000000  1.000000
 IRadAn=      5 IRanWt=     -1 IRanGd=            0 ICorTp=0 IEmpDi=121
 HFx  wShort=  0.000000 wLong=  0.200000 cFull=  0.222036 cShort=  0.000000 cLong=  0.777964
 DFx  wShort=  0.000000 wLong=  0.200000 cFull=  0.000000 cShort=  0.000000 cLong=  1.000000
 NAtoms=   15 NActive=   15 NUniq=   15 SFac= 1.00D+00 NAtFMM=   60 NAOKFM=F Big=F
 Integral buffers will be    131072 words long.
 Raffenetti 2 integral format.
 Two-electron integral symmetry is turned off.
 R6Disp:  Grimme-D2 Dispersion energy=       -0.0080346408 Hartrees.
 Nuclear repulsion after empirical dispersion term =      772.8865623173 Hartrees.
 Leave Link  301 at Thu May  2 13:58:24 2024, MaxMem=   134217728 cpu:               1.1 elap:               1.1
 (Enter /software/gaussian/g16-c01/sse4/g16/l302.exe)
 NPDir=0 NMtPBC=     1 NCelOv=     1 NCel=       1 NClECP=     1 NCelD=      1
         NCelK=      1 NCelE2=     1 NClLst=     1 CellRange=     0.0.
 One-electron integrals computed using PRISM.
 NBasis=   261 RedAO= T EigKep=  2.52D-06  NBF=   261
 NBsUse=   261 1.00D-06 EigRej= -1.00D+00 NBFU=   261
 Precomputing XC quadrature grid using
 IXCGrd= 4 IRadAn=           5 IRanWt=          -1 IRanGd=           0 AccXCQ= 0.00D+00.
 Generated NRdTot=       0 NPtTot=           0 NUsed=           0 NTot=          32
 NSgBfM=   273   273   273   273   273 MxSgAt=    15 MxSgA2=    15.
 Leave Link  302 at Thu May  2 13:58:46 2024, MaxMem=   134217728 cpu:              21.9 elap:              22.0
 (Enter /software/gaussian/g16-c01/sse4/g16/l303.exe)
 DipDrv:  MaxL=1.
 The nuclear repulsion energy is now       769.9320656993 hartrees.
 Leave Link  303 at Thu May  2 13:58:49 2024, MaxMem=   134217728 cpu:               3.3 elap:               3.3
 (Enter /software/gaussian/g16-c01/sse4/g16/l401.exe)
 ExpMin= 3.50D-02 ExpMax= 4.40D+05 ExpMxC= 1.51D+04 IAcc=3 IRadAn=         5 AccDes= 0.00D+00
 Harris functional with IExCor= 4639 and IRadAn=       5 diagonalized for initial guess.
 HarFok:  IExCor= 4639 AccDes= 0.00D+00 IRadAn=         5 IDoV= 1 UseB2=F ITyADJ=14
 ICtDFT=  3500011 ScaDFX=  1.000000  1.000000  1.000000  1.000000
 FoFCou: FMM=F IPFlag=           0 FMFlag=      100000 FMFlg1=           0
         NFxFlg=           0 DoJE=T BraDBF=F KetDBF=T FulRan=T
         wScrn=  0.000000 ICntrl=       500 IOpCl=  0 I1Cent=   200000004 NGrid=           0
         NMat0=    1 NMatS0=      1 NMatT0=    0 NMatD0=    1 NMtDS0=    0 NMtDT0=    0
 Symmetry not used in FoFCou.
 Harris En= -2970.77410173235    
 JPrj=0 DoOrth=F DoCkMO=F.
 Leave Link  401 at Thu May  2 13:59:20 2024, MaxMem=   134217728 cpu:              31.3 elap:              31.3
 (Enter /software/gaussian/g16-c01/sse4/g16/l502.exe)
 Two-electron integral symmetry not used.
 Closed shell SCF:
 Using DIIS extrapolation, IDIIS=  1040.
 NGot=   134217728 LenX=   134063053 LenY=   133988083
 Requested convergence on RMS density matrix=1.00D-08 within 128 cycles.
 Requested convergence on MAX density matrix=1.00D-06.
 Requested convergence on             energy=1.00D-06.
 No special actions if energy rises.
 Fock matrices will be formed incrementally for  20 cycles.

 Cycle   1  Pass 1  IDiag  1:
 FoFJK:  IHMeth= 1 ICntrl=       0 DoSepK=T KAlg= 0 I1Cent=           0 FoldK=F
 IRaf=         1 NMat=       1 IRICut=       1 DoRegI=T DoRafI=F ISym2E= 0 IDoP0=0 IntGTp=1.
 FoFCou: FMM=F IPFlag=           0 FMFlag=      100000 FMFlg1=           0
         NFxFlg=           0 DoJE=T BraDBF=F KetDBF=F FulRan=T
         wScrn=  0.000000 ICntrl=       500 IOpCl=  0 I1Cent=           0 NGrid=           0
         NMat0=    1 NMatS0=      1 NMatT0=    0 NMatD0=    1 NMtDS0=    0 NMtDT0=    0
 Symmetry not used in FoFCou.
 E= -3007.55858485642    
 DIIS: error= 2.91D-01 at cycle   1 NSaved=   1.
 NSaved= 1 IEnMin= 1 EnMin= -3007.55858485642     IErMin= 1 ErrMin= 2.91D-01
 ErrMax= 2.91D-01  0.00D+00 EMaxC= 1.00D-01 BMatC= 1.33D+01 BMatP= 1.33D+01
 IDIUse=3 WtCom= 0.00D+00 WtEn= 1.00D+00
 Coeff-Com:  0.100D+01
 Coeff-En:   0.100D+01
 Coeff:      0.100D+01
 Gap=    -0.119 Goal=   None    Shift=    0.000
 GapD=   -0.119 DampG=0.250 DampE=0.250 DampFc=0.2500 IDamp=-1.
 Damping current iteration by 2.50D-01
 RMSDP=1.00D+01 MaxDP=1.09D+03              OVMax= 7.34D-01

 Cycle   2  Pass 1  IDiag  1:
 RMSU=  3.79D-02    CP:  7.51D-01
 E= -3008.32043831191     Delta-E=       -0.761853455490 Rises=F Damp=T
 DIIS: error= 2.19D-01 at cycle   2 NSaved=   2.
 NSaved= 2 IEnMin= 2 EnMin= -3008.32043831191     IErMin= 2 ErrMin= 2.19D-01
 ErrMax= 2.19D-01  0.00D+00 EMaxC= 1.00D-01 BMatC= 5.45D+00 BMatP= 1.33D+01
 IDIUse=3 WtCom= 0.00D+00 WtEn= 1.00D+00
 Coeff-Com: -0.102D+01 0.202D+01
 Coeff-En:   0.214D+00 0.786D+00
 Coeff:      0.214D+00 0.786D+00
 Gap=    -0.011 Goal=   None    Shift=    0.000
 RMSDP=7.53D+00 MaxDP=8.19D+02 DE=-7.62D-01 OVMax= 7.52D-01

 Cycle   3  Pass 1  IDiag  1:
 RMSU=  2.67D-02    CP:  2.59D-03  2.08D+00
 E= -3009.48873412318     Delta-E=       -1.168295811276 Rises=F Damp=F
 DIIS: error= 1.12D-01 at cycle   3 NSaved=   3.
 NSaved= 3 IEnMin= 3 EnMin= -3009.48873412318     IErMin= 3 ErrMin= 1.12D-01
 ErrMax= 1.12D-01  0.00D+00 EMaxC= 1.00D-01 BMatC= 2.16D+00 BMatP= 5.45D+00
 IDIUse=3 WtCom= 0.00D+00 WtEn= 1.00D+00
 EnCoef did   100 forward-backward iterations
 Coeff-Com:  0.195D+00 0.708D-01 0.735D+00
 Coeff-En:   0.268D+00 0.307D-02 0.729D+00
 Coeff:      0.268D+00 0.307D-02 0.729D+00
 Gap=     0.520 Goal=   None    Shift=    0.000
 RMSDP=4.29D-02 MaxDP=4.25D+00 DE=-1.17D+00 OVMax= 4.02D-01

 Cycle   4  Pass 1  IDiag  1:
 RMSU=  2.85D-02    CP:  3.44D-03  1.30D+00  1.35D+00
 E= -3009.65809983286     Delta-E=       -0.169365709678 Rises=F Damp=F
 DIIS: error= 1.14D-01 at cycle   4 NSaved=   4.
 NSaved= 4 IEnMin= 4 EnMin= -3009.65809983286     IErMin= 3 ErrMin= 1.12D-01
 ErrMax= 1.14D-01  0.00D+00 EMaxC= 1.00D-01 BMatC= 1.28D+00 BMatP= 2.16D+00
 IDIUse=3 WtCom= 0.00D+00 WtEn= 1.00D+00
 Coeff-Com:  0.191D+00-0.145D+00 0.485D+00 0.469D+00
 Coeff-En:   0.000D+00 0.000D+00 0.464D+00 0.536D+00
 Coeff:      0.000D+00 0.000D+00 0.464D+00 0.536D+00
 Gap=     0.206 Goal=   None    Shift=    0.000
 RMSDP=2.22D-02 MaxDP=1.24D+00 DE=-1.69D-01 OVMax= 3.80D-01

 Cycle   5  Pass 1  IDiag  1:
 RMSU=  1.83D-02    CP:  3.96D-03  1.28D+00  1.36D+00  5.99D-01
 E= -3010.45542421373     Delta-E=       -0.797324380866 Rises=F Damp=F
 DIIS: error= 2.65D-02 at cycle   5 NSaved=   5.
 NSaved= 5 IEnMin= 5 EnMin= -3010.45542421373     IErMin= 5 ErrMin= 2.65D-02
 ErrMax= 2.65D-02  0.00D+00 EMaxC= 1.00D-01 BMatC= 2.34D-01 BMatP= 1.28D+00
 IDIUse=3 WtCom= 7.35D-01 WtEn= 2.65D-01
 Coeff-Com: -0.528D-01 0.718D-01 0.160D+00 0.265D+00 0.556D+00
 Coeff-En:   0.000D+00 0.000D+00 0.000D+00 0.878D-01 0.912D+00
 Coeff:     -0.388D-01 0.528D-01 0.118D+00 0.218D+00 0.651D+00
 Gap=     0.245 Goal=   None    Shift=    0.000
 RMSDP=9.70D-03 MaxDP=7.53D-01 DE=-7.97D-01 OVMax= 1.24D-01

 Cycle   6  Pass 1  IDiag  1:
 RMSU=  6.04D-03    CP:  3.92D-03  1.18D+00  1.23D+00  5.65D-01  6.99D-01
 E= -3010.55758046206     Delta-E=       -0.102156248335 Rises=F Damp=F
 DIIS: error= 1.57D-02 at cycle   6 NSaved=   6.
 NSaved= 6 IEnMin= 6 EnMin= -3010.55758046206     IErMin= 6 ErrMin= 1.57D-02
 ErrMax= 1.57D-02  0.00D+00 EMaxC= 1.00D-01 BMatC= 3.32D-02 BMatP= 2.34D-01
 IDIUse=3 WtCom= 8.43D-01 WtEn= 1.57D-01
 Coeff-Com: -0.459D-01 0.633D-01 0.120D-01 0.180D-01 0.302D+00 0.650D+00
 Coeff-En:   0.000D+00 0.000D+00 0.000D+00 0.000D+00 0.685D-01 0.931D+00
 Coeff:     -0.388D-01 0.534D-01 0.101D-01 0.152D-01 0.266D+00 0.694D+00
 Gap=     0.233 Goal=   None    Shift=    0.000
 RMSDP=2.91D-03 MaxDP=2.67D-01 DE=-1.02D-01 OVMax= 4.99D-02

 Cycle   7  Pass 1  IDiag  1:
 RMSU=  1.84D-03    CP:  3.82D-03  1.19D+00  1.20D+00  4.99D-01  7.01D-01
                    CP:  9.86D-01
 E= -3010.57282013697     Delta-E=       -0.015239674904 Rises=F Damp=F
 DIIS: error= 3.47D-03 at cycle   7 NSaved=   7.
 NSaved= 7 IEnMin= 7 EnMin= -3010.57282013697     IErMin= 7 ErrMin= 3.47D-03
 ErrMax= 3.47D-03  0.00D+00 EMaxC= 1.00D-01 BMatC= 2.49D-03 BMatP= 3.32D-02
 IDIUse=3 WtCom= 9.65D-01 WtEn= 3.47D-02
 Coeff-Com: -0.228D-01 0.316D-01-0.128D-01-0.757D-02 0.506D-01 0.278D+00
 Coeff-Com:  0.683D+00
 Coeff-En:   0.000D+00 0.000D+00 0.000D+00 0.000D+00 0.000D+00 0.376D-01
 Coeff-En:   0.962D+00
 Coeff:     -0.220D-01 0.305D-01-0.123D-01-0.731D-02 0.489D-01 0.270D+00
 Coeff:      0.692D+00
 Gap=     0.228 Goal=   None    Shift=    0.000
 RMSDP=1.05D-03 MaxDP=9.30D-02 DE=-1.52D-02 OVMax= 9.80D-03

 Cycle   8  Pass 1  IDiag  1:
 RMSU=  5.63D-04    CP:  3.89D-03  1.20D+00  1.21D+00  5.04D-01  7.03D-01
                    CP:  1.06D+00  1.04D+00
 E= -3010.57446527193     Delta-E=       -0.001645134958 Rises=F Damp=F
 DIIS: error= 1.17D-03 at cycle   8 NSaved=   8.
 NSaved= 8 IEnMin= 8 EnMin= -3010.57446527193     IErMin= 8 ErrMin= 1.17D-03
 ErrMax= 1.17D-03  0.00D+00 EMaxC= 1.00D-01 BMatC= 2.42D-04 BMatP= 2.49D-03
 IDIUse=3 WtCom= 9.88D-01 WtEn= 1.17D-02
 Coeff-Com: -0.738D-02 0.994D-02-0.576D-02-0.142D-02-0.187D-01 0.160D-01
 Coeff-Com:  0.320D+00 0.687D+00
 Coeff-En:   0.000D+00 0.000D+00 0.000D+00 0.000D+00 0.000D+00 0.000D+00
 Coeff-En:   0.000D+00 0.100D+01
 Coeff:     -0.729D-02 0.983D-02-0.569D-02-0.140D-02-0.185D-01 0.158D-01
 Coeff:      0.317D+00 0.691D+00
 Gap=     0.229 Goal=   None    Shift=    0.000
 RMSDP=7.79D-04 MaxDP=6.52D-02 DE=-1.65D-03 OVMax= 5.74D-03

 Cycle   9  Pass 1  IDiag  1:
 RMSU=  2.81D-04    CP:  3.85D-03  1.20D+00  1.20D+00  5.02D-01  6.76D-01
                    CP:  1.07D+00  1.23D+00  1.21D+00
 E= -3010.57471023487     Delta-E=       -0.000244962939 Rises=F Damp=F
 DIIS: error= 3.47D-04 at cycle   9 NSaved=   9.
 NSaved= 9 IEnMin= 9 EnMin= -3010.57471023487     IErMin= 9 ErrMin= 3.47D-04
 ErrMax= 3.47D-04  0.00D+00 EMaxC= 1.00D-01 BMatC= 2.94D-05 BMatP= 2.42D-04
 IDIUse=3 WtCom= 9.97D-01 WtEn= 3.47D-03
 Coeff-Com: -0.741D-03 0.992D-03-0.635D-03 0.913D-03-0.156D-01-0.383D-01
 Coeff-Com:  0.130D-01 0.292D+00 0.748D+00
 Coeff-En:   0.000D+00 0.000D+00 0.000D+00 0.000D+00 0.000D+00 0.000D+00
 Coeff-En:   0.000D+00 0.000D+00 0.100D+01
 Coeff:     -0.739D-03 0.988D-03-0.632D-03 0.909D-03-0.155D-01-0.382D-01
 Coeff:      0.129D-01 0.291D+00 0.749D+00
 Gap=     0.228 Goal=   None    Shift=    0.000
 RMSDP=2.58D-04 MaxDP=1.43D-02 DE=-2.45D-04 OVMax= 3.82D-03

 Cycle  10  Pass 1  IDiag  1:
 RMSU=  1.19D-04    CP:  3.85D-03  1.20D+00  1.20D+00  5.02D-01  6.70D-01
                    CP:  1.08D+00  1.31D+00  1.37D+00  1.05D+00
 E= -3010.57475676744     Delta-E=       -0.000046532577 Rises=F Damp=F
 DIIS: error= 6.70D-05 at cycle  10 NSaved=  10.
 NSaved=10 IEnMin=10 EnMin= -3010.57475676744     IErMin=10 ErrMin= 6.70D-05
 ErrMax= 6.70D-05  0.00D+00 EMaxC= 1.00D-01 BMatC= 2.34D-06 BMatP= 2.94D-05
 IDIUse=1 WtCom= 1.00D+00 WtEn= 0.00D+00
 Coeff-Com:  0.109D-03-0.166D-03-0.454D-05 0.605D-05-0.192D-03-0.221D-02
 Coeff-Com: -0.240D-01-0.556D-02 0.146D+00 0.886D+00
 Coeff:      0.109D-03-0.166D-03-0.454D-05 0.605D-05-0.192D-03-0.221D-02
 Coeff:     -0.240D-01-0.556D-02 0.146D+00 0.886D+00
 Gap=     0.228 Goal=   None    Shift=    0.000
 RMSDP=9.38D-05 MaxDP=3.77D-03 DE=-4.65D-05 OVMax= 3.20D-03

 Cycle  11  Pass 1  IDiag  1:
 RMSU=  6.37D-05    CP:  3.85D-03  1.20D+00  1.20D+00  5.01D-01  6.71D-01
                    CP:  1.08D+00  1.33D+00  1.43D+00  1.14D+00  1.06D+00
 E= -3010.57476887561     Delta-E=       -0.000012108164 Rises=F Damp=F
 DIIS: error= 6.57D-05 at cycle  11 NSaved=  11.
 NSaved=11 IEnMin=11 EnMin= -3010.57476887561     IErMin=11 ErrMin= 6.57D-05
 ErrMax= 6.57D-05  0.00D+00 EMaxC= 1.00D-01 BMatC= 8.42D-07 BMatP= 2.34D-06
 IDIUse=1 WtCom= 1.00D+00 WtEn= 0.00D+00
 Coeff-Com:  0.446D-04-0.867D-04-0.228D-03-0.137D-03 0.266D-02 0.816D-02
 Coeff-Com:  0.490D-02-0.431D-01-0.142D+00 0.108D+00 0.106D+01
 Coeff:      0.446D-04-0.867D-04-0.228D-03-0.137D-03 0.266D-02 0.816D-02
 Coeff:      0.490D-02-0.431D-01-0.142D+00 0.108D+00 0.106D+01
 Gap=     0.228 Goal=   None    Shift=    0.000
 RMSDP=7.19D-05 MaxDP=6.66D-03 DE=-1.21D-05 OVMax= 2.50D-03

 Cycle  12  Pass 1  IDiag  1:
 RMSU=  2.18D-05    CP:  3.85D-03  1.20D+00  1.20D+00  5.01D-01  6.72D-01
                    CP:  1.08D+00  1.34D+00  1.44D+00  1.13D+00  1.28D+00
                    CP:  1.66D+00
 E= -3010.57477475659     Delta-E=       -0.000005880987 Rises=F Damp=F
 DIIS: error= 2.92D-05 at cycle  12 NSaved=  12.
 NSaved=12 IEnMin=12 EnMin= -3010.57477475659     IErMin=12 ErrMin= 2.92D-05
 ErrMax= 2.92D-05  0.00D+00 EMaxC= 1.00D-01 BMatC= 2.54D-07 BMatP= 8.42D-07
 IDIUse=1 WtCom= 1.00D+00 WtEn= 0.00D+00
 Coeff-Com:  0.837D-04-0.116D-03-0.693D-04 0.318D-04 0.545D-03 0.300D-02
 Coeff-Com:  0.118D-01-0.137D-01-0.103D+00-0.263D+00 0.366D+00 0.998D+00
 Coeff:      0.837D-04-0.116D-03-0.693D-04 0.318D-04 0.545D-03 0.300D-02
 Coeff:      0.118D-01-0.137D-01-0.103D+00-0.263D+00 0.366D+00 0.998D+00
 Gap=     0.228 Goal=   None    Shift=    0.000
 RMSDP=5.06D-05 MaxDP=2.01D-03 DE=-5.88D-06 OVMax= 2.07D-03

 Cycle  13  Pass 1  IDiag  1:
 RMSU=  1.41D-05    CP:  3.85D-03  1.20D+00  1.20D+00  5.01D-01  6.73D-01
                    CP:  1.08D+00  1.35D+00  1.46D+00  1.14D+00  1.42D+00
                    CP:  2.10D+00  1.46D+00
 E= -3010.57477708102     Delta-E=       -0.000002324427 Rises=F Damp=F
 DIIS: error= 1.27D-05 at cycle  13 NSaved=  13.
 NSaved=13 IEnMin=13 EnMin= -3010.57477708102     IErMin=13 ErrMin= 1.27D-05
 ErrMax= 1.27D-05  0.00D+00 EMaxC= 1.00D-01 BMatC= 4.69D-08 BMatP= 2.54D-07
 IDIUse=1 WtCom= 1.00D+00 WtEn= 0.00D+00
 Coeff-Com: -0.754D-05 0.177D-04 0.495D-04 0.224D-04-0.478D-03-0.125D-02
 Coeff-Com:  0.735D-03 0.534D-02 0.134D-01-0.802D-01-0.184D+00 0.256D+00
 Coeff-Com:  0.990D+00
 Coeff:     -0.754D-05 0.177D-04 0.495D-04 0.224D-04-0.478D-03-0.125D-02
 Coeff:      0.735D-03 0.534D-02 0.134D-01-0.802D-01-0.184D+00 0.256D+00
 Coeff:      0.990D+00
 Gap=     0.228 Goal=   None    Shift=    0.000
 RMSDP=2.50D-05 MaxDP=2.93D-03 DE=-2.32D-06 OVMax= 9.66D-04

 Cycle  14  Pass 1  IDiag  1:
 RMSU=  5.92D-06    CP:  3.85D-03  1.20D+00  1.20D+00  5.01D-01  6.73D-01
                    CP:  1.08D+00  1.36D+00  1.47D+00  1.13D+00  1.47D+00
                    CP:  2.26D+00  1.88D+00  1.32D+00
 E= -3010.57477750552     Delta-E=       -0.000000424494 Rises=F Damp=F
 DIIS: error= 4.03D-06 at cycle  14 NSaved=  14.
 NSaved=14 IEnMin=14 EnMin= -3010.57477750552     IErMin=14 ErrMin= 4.03D-06
 ErrMax= 4.03D-06  0.00D+00 EMaxC= 1.00D-01 BMatC= 1.02D-08 BMatP= 4.69D-08
 IDIUse=1 WtCom= 1.00D+00 WtEn= 0.00D+00
 Coeff-Com: -0.148D-04 0.237D-04 0.517D-04 0.606D-05-0.178D-03-0.104D-02
 Coeff-Com: -0.243D-02 0.295D-02 0.189D-01 0.192D-01-0.105D+00-0.758D-01
 Coeff-Com:  0.228D+00 0.915D+00
 Coeff:     -0.148D-04 0.237D-04 0.517D-04 0.606D-05-0.178D-03-0.104D-02
 Coeff:     -0.243D-02 0.295D-02 0.189D-01 0.192D-01-0.105D+00-0.758D-01
 Coeff:      0.228D+00 0.915D+00
 Gap=     0.228 Goal=   None    Shift=    0.000
 RMSDP=9.71D-06 MaxDP=8.53D-04 DE=-4.24D-07 OVMax= 3.26D-04

 Cycle  15  Pass 1  IDiag  1:
 RMSU=  1.78D-06    CP:  3.85D-03  1.20D+00  1.20D+00  5.02D-01  6.73D-01
                    CP:  1.08D+00  1.36D+00  1.47D+00  1.13D+00  1.48D+00
                    CP:  2.29D+00  2.00D+00  1.55D+00  1.41D+00
 E= -3010.57477756148     Delta-E=       -0.000000055962 Rises=F Damp=F
 DIIS: error= 2.88D-06 at cycle  15 NSaved=  15.
 NSaved=15 IEnMin=15 EnMin= -3010.57477756148     IErMin=15 ErrMin= 2.88D-06
 ErrMax= 2.88D-06  0.00D+00 EMaxC= 1.00D-01 BMatC= 3.31D-09 BMatP= 1.02D-08
 IDIUse=1 WtCom= 1.00D+00 WtEn= 0.00D+00
 Coeff-Com: -0.467D-05 0.650D-05 0.184D-04 0.256D-05 0.655D-04-0.260D-03
 Coeff-Com: -0.142D-02-0.381D-03 0.211D-02 0.239D-01 0.167D-01-0.779D-01
 Coeff-Com: -0.200D+00 0.304D+00 0.933D+00
 Coeff:     -0.467D-05 0.650D-05 0.184D-04 0.256D-05 0.655D-04-0.260D-03
 Coeff:     -0.142D-02-0.381D-03 0.211D-02 0.239D-01 0.167D-01-0.779D-01
 Coeff:     -0.200D+00 0.304D+00 0.933D+00
 Gap=     0.228 Goal=   None    Shift=    0.000
 RMSDP=5.88D-06 MaxDP=5.16D-04 DE=-5.60D-08 OVMax= 1.43D-04

 Cycle  16  Pass 1  IDiag  1:
 RMSU=  7.36D-07    CP:  3.85D-03  1.20D+00  1.20D+00  5.02D-01  6.73D-01
                    CP:  1.08D+00  1.36D+00  1.47D+00  1.13D+00  1.49D+00
                    CP:  2.28D+00  2.05D+00  1.66D+00  1.63D+00  1.41D+00
 E= -3010.57477757240     Delta-E=       -0.000000010925 Rises=F Damp=F
 DIIS: error= 7.53D-07 at cycle  16 NSaved=  16.
 NSaved=16 IEnMin=16 EnMin= -3010.57477757240     IErMin=16 ErrMin= 7.53D-07
 ErrMax= 7.53D-07  0.00D+00 EMaxC= 1.00D-01 BMatC= 2.19D-10 BMatP= 3.31D-09
 IDIUse=1 WtCom= 1.00D+00 WtEn= 0.00D+00
 Coeff-Com:  0.103D-05-0.150D-05 0.139D-05 0.678D-06 0.250D-04 0.752D-04
 Coeff-Com:  0.173D-03-0.339D-03-0.187D-02-0.116D-02 0.153D-01 0.297D-02
 Coeff-Com: -0.416D-01-0.930D-01 0.781D-01 0.104D+01
 Coeff:      0.103D-05-0.150D-05 0.139D-05 0.678D-06 0.250D-04 0.752D-04
 Coeff:      0.173D-03-0.339D-03-0.187D-02-0.116D-02 0.153D-01 0.297D-02
 Coeff:     -0.416D-01-0.930D-01 0.781D-01 0.104D+01
 Gap=     0.228 Goal=   None    Shift=    0.000
 RMSDP=1.73D-06 MaxDP=1.50D-04 DE=-1.09D-08 OVMax= 2.79D-05

 Cycle  17  Pass 1  IDiag  1:
 RMSU=  3.91D-07    CP:  3.85D-03  1.20D+00  1.20D+00  5.02D-01  6.73D-01
                    CP:  1.08D+00  1.36D+00  1.47D+00  1.13D+00  1.49D+00
                    CP:  2.28D+00  2.05D+00  1.67D+00  1.69D+00  1.58D+00
                    CP:  1.24D+00
 E= -3010.57477757318     Delta-E=       -0.000000000781 Rises=F Damp=F
 DIIS: error= 3.43D-07 at cycle  17 NSaved=  17.
 NSaved=17 IEnMin=17 EnMin= -3010.57477757318     IErMin=17 ErrMin= 3.43D-07
 ErrMax= 3.43D-07  0.00D+00 EMaxC= 1.00D-01 BMatC= 1.91D-11 BMatP= 2.19D-10
 IDIUse=1 WtCom= 1.00D+00 WtEn= 0.00D+00
 Coeff-Com:  0.743D-06-0.108D-05-0.142D-05-0.149D-06 0.111D-05 0.428D-04
 Coeff-Com:  0.159D-03 0.179D-04-0.495D-03-0.202D-02 0.863D-04 0.498D-02
 Coeff-Com:  0.149D-01-0.359D-01-0.647D-01 0.109D+00 0.974D+00
 Coeff:      0.743D-06-0.108D-05-0.142D-05-0.149D-06 0.111D-05 0.428D-04
 Coeff:      0.159D-03 0.179D-04-0.495D-03-0.202D-02 0.863D-04 0.498D-02
 Coeff:      0.149D-01-0.359D-01-0.647D-01 0.109D+00 0.974D+00
 Gap=     0.228 Goal=   None    Shift=    0.000
 RMSDP=3.39D-07 MaxDP=2.66D-05 DE=-7.81D-10 OVMax= 6.20D-06

 Cycle  18  Pass 1  IDiag  1:
 RMSU=  1.10D-07    CP:  3.85D-03  1.20D+00  1.20D+00  5.02D-01  6.73D-01
                    CP:  1.08D+00  1.36D+00  1.47D+00  1.13D+00  1.50D+00
                    CP:  2.28D+00  2.05D+00  1.67D+00  1.69D+00  1.62D+00
                    CP:  1.28D+00  1.18D+00
 E= -3010.57477757328     Delta-E=       -0.000000000101 Rises=F Damp=F
 DIIS: error= 1.66D-07 at cycle  18 NSaved=  18.
 NSaved=18 IEnMin=18 EnMin= -3010.57477757328     IErMin=18 ErrMin= 1.66D-07
 ErrMax= 1.66D-07  0.00D+00 EMaxC= 1.00D-01 BMatC= 7.26D-12 BMatP= 1.91D-11
 IDIUse=1 WtCom= 1.00D+00 WtEn= 0.00D+00
 Coeff-Com:  0.268D-06-0.383D-06-0.121D-05-0.343D-06-0.399D-05 0.902D-05
 Coeff-Com:  0.404D-04 0.970D-04 0.103D-03-0.407D-03-0.224D-02 0.895D-03
 Coeff-Com:  0.124D-01 0.296D-03-0.352D-01-0.146D+00 0.318D+00 0.851D+00
 Coeff:      0.268D-06-0.383D-06-0.121D-05-0.343D-06-0.399D-05 0.902D-05
 Coeff:      0.404D-04 0.970D-04 0.103D-03-0.407D-03-0.224D-02 0.895D-03
 Coeff:      0.124D-01 0.296D-03-0.352D-01-0.146D+00 0.318D+00 0.851D+00
 Gap=     0.228 Goal=   None    Shift=    0.000
 RMSDP=1.78D-07 MaxDP=1.39D-05 DE=-1.01D-10 OVMax= 3.14D-06

 Cycle  19  Pass 1  IDiag  1:
 RMSU=  4.26D-08    CP:  3.85D-03  1.20D+00  1.20D+00  5.02D-01  6.73D-01
                    CP:  1.08D+00  1.36D+00  1.47D+00  1.13D+00  1.50D+00
                    CP:  2.28D+00  2.05D+00  1.67D+00  1.69D+00  1.62D+00
                    CP:  1.30D+00  1.34D+00  1.31D+00
 E= -3010.57477757331     Delta-E=       -0.000000000023 Rises=F Damp=F
 DIIS: error= 7.45D-08 at cycle  19 NSaved=  19.
 NSaved=19 IEnMin=19 EnMin= -3010.57477757331     IErMin=19 ErrMin= 7.45D-08
 ErrMax= 7.45D-08  0.00D+00 EMaxC= 1.00D-01 BMatC= 1.17D-12 BMatP= 7.26D-12
 IDIUse=1 WtCom= 1.00D+00 WtEn= 0.00D+00
 Coeff-Com:  0.436D-07-0.550D-07-0.221D-06-0.282D-06-0.940D-06-0.261D-05
 Coeff-Com: -0.198D-04 0.230D-04 0.821D-04 0.308D-03-0.603D-03-0.983D-03
 Coeff-Com:  0.870D-03 0.770D-02 0.546D-02-0.634D-01-0.760D-01 0.276D+00
 Coeff-Com:  0.851D+00
 Coeff:      0.436D-07-0.550D-07-0.221D-06-0.282D-06-0.940D-06-0.261D-05
 Coeff:     -0.198D-04 0.230D-04 0.821D-04 0.308D-03-0.603D-03-0.983D-03
 Coeff:      0.870D-03 0.770D-02 0.546D-02-0.634D-01-0.760D-01 0.276D+00
 Coeff:      0.851D+00
 Gap=     0.228 Goal=   None    Shift=    0.000
 RMSDP=8.55D-08 MaxDP=6.72D-06 DE=-2.27D-11 OVMax= 1.54D-06

 Cycle  20  Pass 1  IDiag  1:
 RMSU=  2.02D-08    CP:  3.85D-03  1.20D+00  1.20D+00  5.02D-01  6.73D-01
                    CP:  1.08D+00  1.36D+00  1.47D+00  1.13D+00  1.50D+00
                    CP:  2.28D+00  2.05D+00  1.67D+00  1.68D+00  1.61D+00
                    CP:  1.29D+00  1.34D+00  1.53D+00  1.28D+00
 E= -3010.57477757331     Delta-E=        0.000000000000 Rises=F Damp=F
 DIIS: error= 3.49D-08 at cycle  20 NSaved=  20.
 NSaved=20 IEnMin=19 EnMin= -3010.57477757331     IErMin=20 ErrMin= 3.49D-08
 ErrMax= 3.49D-08  0.00D+00 EMaxC= 1.00D-01 BMatC= 1.80D-13 BMatP= 1.17D-12
 IDIUse=1 WtCom= 1.00D+00 WtEn= 0.00D+00
 Coeff-Com:  0.245D-08-0.510D-08 0.575D-07 0.282D-07-0.101D-06-0.263D-05
 Coeff-Com: -0.895D-05-0.455D-05-0.304D-05 0.937D-04 0.250D-03-0.248D-03
 Coeff-Com: -0.164D-02 0.623D-03 0.480D-02 0.102D-01-0.634D-01-0.105D+00
 Coeff-Com:  0.159D+00 0.995D+00
 Coeff:      0.245D-08-0.510D-08 0.575D-07 0.282D-07-0.101D-06-0.263D-05
 Coeff:     -0.895D-05-0.455D-05-0.304D-05 0.937D-04 0.250D-03-0.248D-03
 Coeff:     -0.164D-02 0.623D-03 0.480D-02 0.102D-01-0.634D-01-0.105D+00
 Coeff:      0.159D+00 0.995D+00
 Gap=     0.228 Goal=   None    Shift=    0.000
 RMSDP=4.18D-08 MaxDP=2.47D-06 DE= 0.00D+00 OVMax= 1.05D-06

 Cycle  21  Pass 1  IDiag  1:
 Restarting incremental Fock formation.
 E= -3010.57477757331     Delta-E=       -0.000000000004 Rises=F Damp=F
 DIIS: error= 1.77D-08 at cycle  21 NSaved=  20.
 NSaved=20 IEnMin=20 EnMin= -3010.57477757331     IErMin=20 ErrMin= 1.77D-08
 ErrMax= 1.77D-08  0.00D+00 EMaxC= 1.00D-01 BMatC= 2.73D-14 BMatP= 1.80D-13
 IDIUse=1 WtCom= 1.00D+00 WtEn= 0.00D+00
 Coeff-Com: -0.820D-09 0.489D-07 0.605D-07 0.140D-06 0.647D-07 0.199D-05
 Coeff-Com: -0.593D-05-0.161D-04-0.499D-04 0.164D-03 0.148D-03-0.392D-03
 Coeff-Com: -0.125D-02-0.247D-03 0.140D-01 0.761D-02-0.603D-01-0.134D+00
 Coeff-Com:  0.139D+00 0.104D+01
 Coeff:     -0.820D-09 0.489D-07 0.605D-07 0.140D-06 0.647D-07 0.199D-05
 Coeff:     -0.593D-05-0.161D-04-0.499D-04 0.164D-03 0.148D-03-0.392D-03
 Coeff:     -0.125D-02-0.247D-03 0.140D-01 0.761D-02-0.603D-01-0.134D+00
 Coeff:      0.139D+00 0.104D+01
 Gap=     0.228 Goal=   None    Shift=    0.000
 RMSDP=1.67D-08 MaxDP=1.61D-06 DE=-3.64D-12 OVMax= 4.99D-07

 Cycle  22  Pass 1  IDiag  1:
 RMSU=  1.55D-08    CP:  1.00D+00
 E= -3010.57477757335     Delta-E=       -0.000000000041 Rises=F Damp=F
 DIIS: error= 7.99D-09 at cycle  22 NSaved=  20.
 NSaved=20 IEnMin=20 EnMin= -3010.57477757335     IErMin=20 ErrMin= 7.99D-09
 ErrMax= 7.99D-09  0.00D+00 EMaxC= 1.00D-01 BMatC= 6.26D-15 BMatP= 2.73D-14
 IDIUse=1 WtCom= 1.00D+00 WtEn= 0.00D+00
 Large coefficients: NSaved= 20 BigCof=    0.00 CofMax=   10.00 Det=-1.34D-14
 Inversion failed.  Reducing to 19 matrices.
 Coeff-Com:  0.135D-07 0.449D-07 0.488D-06 0.202D-05-0.263D-06 0.739D-06
 Coeff-Com: -0.266D-04-0.220D-04 0.743D-04 0.228D-03-0.262D-03-0.104D-02
 Coeff-Com: -0.328D-03 0.124D-01 0.117D-01-0.606D-01-0.166D+00 0.183D+00
 Coeff-Com:  0.102D+01
 Coeff:      0.135D-07 0.449D-07 0.488D-06 0.202D-05-0.263D-06 0.739D-06
 Coeff:     -0.266D-04-0.220D-04 0.743D-04 0.228D-03-0.262D-03-0.104D-02
 Coeff:     -0.328D-03 0.124D-01 0.117D-01-0.606D-01-0.166D+00 0.183D+00
 Coeff:      0.102D+01
 Gap=     0.228 Goal=   None    Shift=    0.000
 RMSDP=7.12D-09 MaxDP=5.25D-07 DE=-4.09D-11 OVMax= 2.73D-07

 SCF Done:  E(RwB97XD) =  -3010.57477757     A.U. after   22 cycles
            NFock= 22  Conv=0.71D-08     -V/T= 2.0016
 KE= 3.005790497506D+03 PE=-8.695194221549D+03 EE= 1.908896880771D+03
 Leave Link  502 at Thu May  2 14:22:17 2024, MaxMem=   134217728 cpu:            1375.4 elap:            1376.4
 (Enter /software/gaussian/g16-c01/sse4/g16/l601.exe)
 Copying SCF densities to generalized density rwf, IOpCl= 0 IROHF=0.

 **********************************************************************

            Population analysis using the SCF Density.

 **********************************************************************

 Alpha  occ. eigenvalues -- -483.27842 -62.82798 -56.62544 -56.61913 -56.61888
 Alpha  occ. eigenvalues --  -19.46464 -19.46011 -14.85432 -10.58571 -10.56675
 Alpha  occ. eigenvalues --  -10.55303 -10.54756 -10.53830 -10.51958  -8.98554
 Alpha  occ. eigenvalues --   -6.81367  -6.79308  -6.79231  -2.91237  -2.90709
 Alpha  occ. eigenvalues --   -2.90648  -2.89002  -2.89001  -1.49813  -1.32794
 Alpha  occ. eigenvalues --   -1.21262  -1.12020  -1.10837  -1.02781  -0.98895
 Alpha  occ. eigenvalues --   -0.94118  -0.89775  -0.84687  -0.80452  -0.79849
 Alpha  occ. eigenvalues --   -0.79257  -0.77142  -0.75836  -0.74317  -0.70592
 Alpha  occ. eigenvalues --   -0.67287  -0.66416  -0.61928  -0.58223  -0.57389
 Alpha  occ. eigenvalues --   -0.56463  -0.55666  -0.51881  -0.51366
 Alpha virt. eigenvalues --   -0.28549  -0.20155  -0.19173  -0.14791  -0.13451
 Alpha virt. eigenvalues --   -0.12005  -0.08907  -0.08642  -0.06800  -0.04393
 Alpha virt. eigenvalues --   -0.04333  -0.02705  -0.01292  -0.00315  -0.00159
 Alpha virt. eigenvalues --    0.00145   0.02111   0.03123   0.03432   0.03924
 Alpha virt. eigenvalues --    0.04860   0.06013   0.06438   0.07364   0.08172
 Alpha virt. eigenvalues --    0.08687   0.08815   0.09222   0.10097   0.11093
 Alpha virt. eigenvalues --    0.11995   0.12314   0.13490   0.14096   0.14342
 Alpha virt. eigenvalues --    0.14929   0.15986   0.16363   0.16915   0.17663
 Alpha virt. eigenvalues --    0.18200   0.19408   0.19907   0.21078   0.21846
 Alpha virt. eigenvalues --    0.22921   0.24446   0.25075   0.25775   0.26733
 Alpha virt. eigenvalues --    0.28098   0.28521   0.29244   0.31425   0.33630
 Alpha virt. eigenvalues --    0.34172   0.34804   0.37120   0.37977   0.38352
 Alpha virt. eigenvalues --    0.39403   0.40342   0.41472   0.43344   0.44204
 Alpha virt. eigenvalues --    0.44934   0.45450   0.46070   0.47320   0.49103
 Alpha virt. eigenvalues --    0.50307   0.52334   0.52895   0.52963   0.54952
 Alpha virt. eigenvalues --    0.55147   0.57448   0.58437   0.61037   0.61361
 Alpha virt. eigenvalues --    0.63988   0.64433   0.67422   0.68619   0.69702
 Alpha virt. eigenvalues --    0.71051   0.71763   0.74075   0.75173   0.76370
 Alpha virt. eigenvalues --    0.77620   0.78584   0.80271   0.86358   0.87057
 Alpha virt. eigenvalues --    0.88263   0.89085   0.91912   0.95139   0.98060
 Alpha virt. eigenvalues --    1.01720   1.03456   1.04012   1.06701   1.07632
 Alpha virt. eigenvalues --    1.10604   1.12984   1.13592   1.14270   1.18094
 Alpha virt. eigenvalues --    1.22582   1.24470   1.28529   1.35344   1.36978
 Alpha virt. eigenvalues --    1.38021   1.40107   1.45204   1.56621   1.57435
 Alpha virt. eigenvalues --    1.58014   1.60357   1.62515   1.64681   1.67319
 Alpha virt. eigenvalues --    1.68681   1.72559   1.74674   1.76531   1.80504
 Alpha virt. eigenvalues --    1.84624   1.86060   1.88212   1.98114   1.99045
 Alpha virt. eigenvalues --    1.99508   2.03716   2.05232   2.08599   2.10662
 Alpha virt. eigenvalues --    2.14765   2.16250   2.23162   2.24385   2.26933
 Alpha virt. eigenvalues --    2.34059   2.41075   2.42681   2.45825   2.54000
 Alpha virt. eigenvalues --    2.60002   2.63848   2.66648   2.69577   2.71753
 Alpha virt. eigenvalues --    2.73975   2.76533   2.78219   2.80984   2.83580
 Alpha virt. eigenvalues --    2.94911   2.99199   3.02207   3.07872   3.09756
 Alpha virt. eigenvalues --    3.15460   3.16296   3.19251   3.22948   3.26484
 Alpha virt. eigenvalues --    3.27615   3.38534   3.46923   3.51011   3.54851
 Alpha virt. eigenvalues --    3.58717   3.69091   3.74422   3.84875   3.88522
 Alpha virt. eigenvalues --    4.13830   4.14737   4.22926   4.27248   4.44849
 Alpha virt. eigenvalues --    4.47347   4.55949   4.60131   4.93245   4.96717
 Alpha virt. eigenvalues --    5.04733   5.10302   5.62118   6.15196   6.71896
 Alpha virt. eigenvalues --    7.52792   7.55084   7.65094  23.23219  23.62251
 Alpha virt. eigenvalues --   23.74778  23.79006  23.96698  24.02418  35.31729
 Alpha virt. eigenvalues --   47.97617  49.85217  49.93891 289.85175 289.87510
 Alpha virt. eigenvalues --  290.000951020.98688
          Condensed to atoms (all electrons):
               1          2          3          4          5          6
     1  C   10.324321  -5.371645   1.429080  -0.773512   0.266906   0.093511
     2  C   -5.371645  21.042439  -6.181515   0.966831  -0.043953   0.043831
     3  C    1.429080  -6.181515  18.678063  -1.885926   0.018149   0.270374
     4  C   -0.773512   0.966831  -1.885926   7.491051   0.093707  -0.041904
     5  H    0.266906  -0.043953   0.018149   0.093707   0.448385  -0.003767
     6  H    0.093511   0.043831   0.270374  -0.041904  -0.003767   0.411330
     7  H    0.004459  -0.024771   0.019648   0.282050  -0.004047  -0.000012
     8  N   -0.180911   0.253823  -1.515835  -0.046663  -0.000572  -0.045831
     9  O   -0.085918   0.311782  -0.223877   0.012905  -0.000060  -0.003587
    10  O    0.398294  -0.366865  -0.207820  -0.040200   0.000068   0.029530
    11  C    1.365238  -1.708101   2.142771  -0.909394  -0.041525   0.021308
    12  H    0.003962   0.014082  -0.002988  -0.003586   0.000036  -0.000024
    13  C   -1.306853  -3.118025  -6.251338   1.155599   0.030820  -0.022897
    14  H   -0.018519   0.035484   0.074644   0.020047  -0.000042   0.000027
    15  Br  -0.045536  -0.090258  -0.218059   0.083558   0.000063  -0.001109
               7          8          9         10         11         12
     1  C    0.004459  -0.180911  -0.085918   0.398294   1.365238   0.003962
     2  C   -0.024771   0.253823   0.311782  -0.366865  -1.708101   0.014082
     3  C    0.019648  -1.515835  -0.223877  -0.207820   2.142771  -0.002988
     4  C    0.282050  -0.046663   0.012905  -0.040200  -0.909394  -0.003586
     5  H   -0.004047  -0.000572  -0.000060   0.000068  -0.041525   0.000036
     6  H   -0.000012  -0.045831  -0.003587   0.029530   0.021308  -0.000024
     7  H    0.344096   0.000182  -0.000012   0.000007   0.068523  -0.001555
     8  N    0.000182   7.695645   0.136584   0.090564  -0.045927   0.001352
     9  O   -0.000012   0.136584   7.702458  -0.015881   0.171747   0.000007
    10  O    0.000007   0.090564  -0.015881   8.085229   0.043703  -0.000017
    11  C    0.068523  -0.045927   0.171747   0.043703   9.162741   0.323180
    12  H   -0.001555   0.001352   0.000007  -0.000017   0.323180   0.255207
    13  C   -0.014023   0.795485  -0.189088   0.050143  -4.451313  -0.022164
    14  H   -0.000061  -0.046632   0.014944  -0.002524  -0.095584  -0.003366
    15  Br  -0.000416   0.157491  -0.056976   0.002864   0.112194  -0.002248
              13         14         15
     1  C   -1.306853  -0.018519  -0.045536
     2  C   -3.118025   0.035484  -0.090258
     3  C   -6.251338   0.074644  -0.218059
     4  C    1.155599   0.020047   0.083558
     5  H    0.030820  -0.000042   0.000063
     6  H   -0.022897   0.000027  -0.001109
     7  H   -0.014023  -0.000061  -0.000416
     8  N    0.795485  -0.046632   0.157491
     9  O   -0.189088   0.014944  -0.056976
    10  O    0.050143  -0.002524   0.002864
    11  C   -4.451313  -0.095584   0.112194
    12  H   -0.022164  -0.003366  -0.002248
    13  C   19.231842   0.298794   0.236125
    14  H    0.298794   0.283061  -0.027894
    15  Br   0.236125  -0.027894  34.477430
 Mulliken charges:
               1
     1  C   -0.102877
     2  C    0.236860
     3  C   -0.145371
     4  C   -0.404562
     5  H    0.235831
     6  H    0.249220
     7  H    0.325932
     8  N   -0.248755
     9  O    0.224971
    10  O   -0.067095
    11  C   -0.159560
    12  H    0.438121
    13  C   -0.423108
    14  H    0.467621
    15  Br   0.372771
 Sum of Mulliken charges =   1.00000
 Mulliken charges with hydrogens summed into heavy atoms:
               1
     1  C    0.132954
     2  C    0.486079
     3  C   -0.145371
     4  C   -0.078630
     8  N   -0.248755
     9  O    0.224971
    10  O   -0.067095
    11  C    0.278561
    13  C    0.044513
    15  Br   0.372771
 Electronic spatial extent (au):  <R**2>=           3941.8742
 Charge=              1.0000 electrons
 Dipole moment (field-independent basis, Debye):
    X=              3.1549    Y=             -8.0916    Z=             -1.7719  Tot=              8.8638
 Quadrupole moment (field-independent basis, Debye-Ang):
   XX=            -67.4853   YY=            -48.2998   ZZ=            -59.6542
   XY=            -18.0002   XZ=             -4.7938   YZ=              6.2825
 Traceless Quadrupole moment (field-independent basis, Debye-Ang):
   XX=             -9.0056   YY=             10.1800   ZZ=             -1.1744
   XY=            -18.0002   XZ=             -4.7938   YZ=              6.2825
 Octapole moment (field-independent basis, Debye-Ang**2):
  XXX=           -514.7621  YYY=             49.1161  ZZZ=             75.1805  XYY=           -129.2662
  XXY=            -30.2665  XXZ=             20.5733  XZZ=           -126.2699  YZZ=              3.8752
  YYZ=             14.7855  XYZ=             16.4254
 Hexadecapole moment (field-independent basis, Debye-Ang**3):
 XXXX=          -3473.2763 YYYY=           -667.0787 ZZZZ=           -373.9721 XXXY=            -39.8826
 XXXZ=            173.6515 YYYX=            101.0453 YYYZ=           -137.7520 ZZZX=            149.8982
 ZZZY=           -119.8873 XXYY=           -610.8362 XXZZ=           -510.2128 YYZZ=           -146.2459
 XXYZ=            -20.2063 YYXZ=             25.0802 ZZXY=              0.0040
 N-N= 7.699320656993D+02 E-N=-8.695194221735D+03  KE= 3.005790497506D+03
 No NMR shielding tensors so no spin-rotation constants.
 Leave Link  601 at Thu May  2 14:22:24 2024, MaxMem=   134217728 cpu:               7.3 elap:               7.3
 (Enter /software/gaussian/g16-c01/sse4/g16/l9999.exe)
 Unable to Open any file for archive entry.
 1\1\GINC-BHX0014\SP\RwB97XD\6-311+G(d)\C6H5Br1N1O2(1+)\BWEIGHT\02-May-
 2024\0\\#P wB97XD/6-311+G* NoSymm #P Field=Y+243\\TitleMe\\1,1\C,0,0.5
 193,1.233,-0.0319\C,0,1.9445,1.2692,-0.0367\C,0,2.6204,0.0928,-0.025\C
 ,0,-0.196,0.0301,0.001\H,0,-0.0207,2.1742,-0.0434\H,0,2.4828,2.2089,-0
 .0361\H,0,-1.2777,0.0399,0.0117\N,0,4.0921,0.0959,0.0366\O,0,4.6393,-1
 .0217,0.1446\O,0,4.6649,1.1984,-0.0233\C,0,0.4943,-1.1671,0.021\H,0,-0
 .0325,-2.1149,0.0545\C,0,1.9629,-1.2165,-0.0211\H,0,2.4436,-1.9631,0.6
 151\Br,0,2.173,-1.9491,-1.9062\\Version=ES64L-G16RevC.01\HF=-3010.5747
 776\RMSD=7.118e-09\Dipole=-3.0879795,-1.9553606,0.5521081\Quadrupole=-
 6.6954106,7.5685616,-0.873151,-13.3826749,-3.5640912,4.6708774\PG=C01 
 [X(C6H5Br1N1O2)]\\@
 The archive entry for this job was punched.


 SEEN ON A WALL AT THE UNIVERSITY OF ILLINOIS AT CHICAGO CIRCLE:

 TO DO IS TO BE  -- SOCRATES
 TO BE IS TO DO  -- SARTRE
 OO BE DO BE DO  -- SINATRA
 Job cpu time:       0 days  0 hours 24 minutes  6.5 seconds.
 Elapsed time:       0 days  0 hours 24 minutes  7.5 seconds.
 File lengths (MBytes):  RWF=     40 Int=      0 D2E=      0 Chk=     32 Scr=      1
 Normal termination of Gaussian 16 at Thu May  2 14:22:25 2024.
