 Entering Gaussian System, Link 0=g16
 Initial command:
 /software/gaussian/g16-c01/sse4/g16/l1.exe "/local_scratch/24657528/Gau-23944.inp" -scrdir="/local_scratch/24657528/"
 Entering Link 1 = /software/gaussian/g16-c01/sse4/g16/l1.exe PID=     23959.
  
 Copyright (c) 1988-2019, Gaussian, Inc.  All Rights Reserved.
  
 This is part of the Gaussian(R) 16 program.  It is based on
 the Gaussian(R) 09 system (copyright 2009, Gaussian, Inc.),
 the Gaussian(R) 03 system (copyright 2003, Gaussian, Inc.),
 the Gaussian(R) 98 system (copyright 1998, Gaussian, Inc.),
 the Gaussian(R) 94 system (copyright 1995, Gaussian, Inc.),
 the Gaussian 92(TM) system (copyright 1992, Gaussian, Inc.),
 the Gaussian 90(TM) system (copyright 1990, Gaussian, Inc.),
 the Gaussian 88(TM) system (copyright 1988, Gaussian, Inc.),
 the Gaussian 86(TM) system (copyright 1986, Carnegie Mellon
 University), and the Gaussian 82(TM) system (copyright 1983,
 Carnegie Mellon University). Gaussian is a federally registered
 trademark of Gaussian, Inc.
  
 This software contains proprietary and confidential information,
 including trade secrets, belonging to Gaussian, Inc.
  
 This software is provided under written license and may be
 used, copied, transmitted, or stored only in accord with that
 written license.
  
 The following legend is applicable only to US Government
 contracts under FAR:
  
                    RESTRICTED RIGHTS LEGEND
  
 Use, reproduction and disclosure by the US Government is
 subject to restrictions as set forth in subparagraphs (a)
 and (c) of the Commercial Computer Software - Restricted
 Rights clause in FAR 52.227-19.
  
 Gaussian, Inc.
 340 Quinnipiac St., Bldg. 40, Wallingford CT 06492
  
  
 ---------------------------------------------------------------
 Warning -- This program may not be used in any manner that
 competes with the business of Gaussian, Inc. or will provide
 assistance to any competitor of Gaussian, Inc.  The licensee
 of this program is prohibited from giving any competitor of
 Gaussian, Inc. access to this program.  By using this program,
 the user acknowledges that Gaussian, Inc. is engaged in the
 business of creating and licensing software in the field of
 computational chemistry and represents and warrants to the
 licensee that it is not a competitor of Gaussian, Inc. and that
 it will not use this program in any manner prohibited above.
 ---------------------------------------------------------------
  

 Cite this work as:
 Gaussian 16, Revision C.01,
 M. J. Frisch, G. W. Trucks, H. B. Schlegel, G. E. Scuseria, 
 M. A. Robb, J. R. Cheeseman, G. Scalmani, V. Barone, 
 G. A. Petersson, H. Nakatsuji, X. Li, M. Caricato, A. V. Marenich, 
 J. Bloino, B. G. Janesko, R. Gomperts, B. Mennucci, H. P. Hratchian, 
 J. V. Ortiz, A. F. Izmaylov, J. L. Sonnenberg, D. Williams-Young, 
 F. Ding, F. Lipparini, F. Egidi, J. Goings, B. Peng, A. Petrone, 
 T. Henderson, D. Ranasinghe, V. G. Zakrzewski, J. Gao, N. Rega, 
 G. Zheng, W. Liang, M. Hada, M. Ehara, K. Toyota, R. Fukuda, 
 J. Hasegawa, M. Ishida, T. Nakajima, Y. Honda, O. Kitao, H. Nakai, 
 T. Vreven, K. Throssell, J. A. Montgomery, Jr., J. E. Peralta, 
 F. Ogliaro, M. J. Bearpark, J. J. Heyd, E. N. Brothers, K. N. Kudin, 
 V. N. Staroverov, T. A. Keith, R. Kobayashi, J. Normand, 
 K. Raghavachari, A. P. Rendell, J. C. Burant, S. S. Iyengar, 
 J. Tomasi, M. Cossi, J. M. Millam, M. Klene, C. Adamo, R. Cammi, 
 J. W. Ochterski, R. L. Martin, K. Morokuma, O. Farkas, 
 J. B. Foresman, and D. J. Fox, Gaussian, Inc., Wallingford CT, 2019.
 
 ******************************************
 Gaussian 16:  ES64L-G16RevC.01  3-Jul-2019
                 1-May-2024 
 ******************************************
 %chk=geometry.chk
 %mem=9GB
 %nprocshared=12
 Will use up to   12 processors via shared memory.
 ----------------------------------------
 #P wB97XD/6-311+G* NoSymm #P Field=Y+262
 ----------------------------------------
 1/38=1,172=1/1;
 2/12=2,15=1,17=6,18=5,40=1/2;
 3/5=4,6=6,7=11,11=2,14=2,15=262,25=1,30=1,74=-58/1,2,3;
 4//1;
 5/5=2,38=5/2;
 6/7=2,8=2,9=2,10=2,28=1/1;
 99/5=1,9=1/99;
 Leave Link    1 at Wed May  1 14:50:54 2024, MaxMem=  1207959552 cpu:               1.3 elap:               1.4
 (Enter /software/gaussian/g16-c01/sse4/g16/l101.exe)
 -------
 TitleMe
 -------
 Symbolic Z-matrix:
 Charge =  1 Multiplicity = 1
 C                     0.0295    1.3397    0.0682 
 C                     1.4348    1.2867    0.0064 
 C                     2.1118    0.0511   -0.0054 
 C                     1.4451   -1.1372    0.0312 
 C                    -0.6879    0.1682    0.11 
 H                    -0.4713    2.2984    0.0781 
 H                     2.0273    2.1965   -0.0322 
 H                     1.9897   -2.0764    0.0232 
 H                    -1.7716    0.1804    0.1582 
 N                     3.5864    0.051    -0.0675 
 O                     4.1471   -1.0597   -0.0881 
 O                     4.145     1.1639   -0.0901 
 C                    -0.0236   -1.1458    0.0835 
 H                    -0.4367   -1.8725    0.7889 
 Br                   -0.5359   -1.8697   -1.7408 
 
 ITRead=  0  0  0  0  0  0  0  0  0  0  0  0  0  0  0
 MicOpt= -1 -1 -1 -1 -1 -1 -1 -1 -1 -1 -1 -1 -1 -1 -1
 NAtoms=     15 NQM=       15 NQMF=       0 NMMI=      0 NMMIF=      0
                NMic=       0 NMicF=      0.
                    Isotopes and Nuclear Properties:
 (Nuclear quadrupole moments (NQMom) in fm**2, nuclear magnetic moments (NMagM)
  in nuclear magnetons)

  Atom         1           2           3           4           5           6           7           8           9          10
 IAtWgt=          12          12          12          12          12           1           1           1           1          14
 AtmWgt=  12.0000000  12.0000000  12.0000000  12.0000000  12.0000000   1.0078250   1.0078250   1.0078250   1.0078250  14.0030740
 NucSpn=           0           0           0           0           0           1           1           1           1           2
 AtZEff=  -0.0000000  -0.0000000  -0.0000000  -0.0000000  -0.0000000  -0.0000000  -0.0000000  -0.0000000  -0.0000000  -0.0000000
 NQMom=    0.0000000   0.0000000   0.0000000   0.0000000   0.0000000   0.0000000   0.0000000   0.0000000   0.0000000   2.0440000
 NMagM=    0.0000000   0.0000000   0.0000000   0.0000000   0.0000000   2.7928460   2.7928460   2.7928460   2.7928460   0.4037610
 AtZNuc=   6.0000000   6.0000000   6.0000000   6.0000000   6.0000000   1.0000000   1.0000000   1.0000000   1.0000000   7.0000000

  Atom        11          12          13          14          15
 IAtWgt=          16          16          12           1          79
 AtmWgt=  15.9949146  15.9949146  12.0000000   1.0078250  78.9183361
 NucSpn=           0           0           0           1           3
 AtZEff=  -0.0000000  -0.0000000  -0.0000000  -0.0000000  -0.0000000
 NQMom=    0.0000000   0.0000000   0.0000000   0.0000000  31.3000000
 NMagM=    0.0000000   0.0000000   0.0000000   2.7928460   2.1063990
 AtZNuc=   8.0000000   8.0000000   6.0000000   1.0000000  35.0000000
 Leave Link  101 at Wed May  1 14:50:55 2024, MaxMem=  1207959552 cpu:               1.5 elap:               1.5
 (Enter /software/gaussian/g16-c01/sse4/g16/l202.exe)
                          Input orientation:                          
 ---------------------------------------------------------------------
 Center     Atomic      Atomic             Coordinates (Angstroms)
 Number     Number       Type             X           Y           Z
 ---------------------------------------------------------------------
      1          6           0        0.029500    1.339700    0.068200
      2          6           0        1.434800    1.286700    0.006400
      3          6           0        2.111800    0.051100   -0.005400
      4          6           0        1.445100   -1.137200    0.031200
      5          6           0       -0.687900    0.168200    0.110000
      6          1           0       -0.471300    2.298400    0.078100
      7          1           0        2.027300    2.196500   -0.032200
      8          1           0        1.989700   -2.076400    0.023200
      9          1           0       -1.771600    0.180400    0.158200
     10          7           0        3.586400    0.051000   -0.067500
     11          8           0        4.147100   -1.059700   -0.088100
     12          8           0        4.145000    1.163900   -0.090100
     13          6           0       -0.023600   -1.145800    0.083500
     14          1           0       -0.436700   -1.872500    0.788900
     15         35           0       -0.535900   -1.869700   -1.740800
 ---------------------------------------------------------------------
                    Distance matrix (angstroms):
                    1          2          3          4          5
     1  C    0.000000
     2  C    1.407656   0.000000
     3  C    2.449874   1.408963   0.000000
     4  C    2.853126   2.424049   1.363043   0.000000
     5  C    1.374344   2.401589   2.804523   2.501993   0.000000
     6  H    1.081667   2.159142   3.424870   3.934226   2.141421
     7  H    2.176095   1.086408   2.147231   3.384750   3.392128
     8  H    3.938800   3.408612   2.131193   1.085702   3.495040
     9  H    2.143837   3.395283   3.888995   3.478413   1.084840
    10  N    3.785591   2.482297   1.475907   2.450862   4.279589
    11  O    4.768247   3.587631   2.320164   2.705743   4.992415
    12  O    4.122294   2.714696   2.319353   3.549540   4.938459
    13  C    2.486114   2.837240   2.449573   1.469656   1.472614
    14  H    3.324903   3.754379   3.290289   2.157764   2.165286
    15  Br   3.727252   4.110867   3.702891   2.756973   2.757100
                    6          7          8          9         10
     6  H    0.000000
     7  H    2.503108   0.000000
     8  H    5.019802   4.273425   0.000000
     9  H    2.486588   4.304945   4.388479   0.000000
    10  N    4.640790   2.652397   2.661486   5.364313   0.000000
    11  O    5.712624   3.885809   2.387560   6.052233   1.244373
    12  O    4.756638   2.356750   3.893289   6.002923   1.245428
    13  C    3.473180   3.923079   2.218790   2.195425   3.806210
    14  H    4.231175   4.827242   2.552506   2.528663   4.540772
    15  Br   4.548146   5.101303   3.087568   3.055498   4.845862
                   11         12         13         14         15
    11  O    0.000000
    12  O    2.223602   0.000000
    13  C    4.175117   4.768865   0.000000
    14  H    4.737193   5.566358   1.093770   0.000000
    15  Br   5.031700   5.817075   2.028436   2.531646   0.000000
 Symmetry turned off by external request.
 Stoichiometry    C6H5BrNO2(1+)
 Framework group  C1[X(C6H5BrNO2)]
 Deg. of freedom    39
 Full point group                 C1      NOp   1
 Rotational constants (GHZ):           1.8252210           0.5518633           0.4576002
 Leave Link  202 at Wed May  1 14:50:56 2024, MaxMem=  1207959552 cpu:               1.3 elap:               1.3
 (Enter /software/gaussian/g16-c01/sse4/g16/l301.exe)
 Standard basis: 6-311+G(d) (5D, 7F)
 Ernie: Thresh=  0.10000D-02 Tol=  0.10000D-05 Strict=F.
 The following finite field(s) will be applied:
 An electric field of              0.0000  0.0262  0.0000
   261 basis functions,   443 primitive gaussians,   273 cartesian basis functions
    49 alpha electrons       49 beta electrons
       nuclear repulsion energy       739.2122215416 Hartrees.
 IExCor= 4639 DFT=T Ex+Corr=wB97XD ExCW=0 ScaHFX=  1.000000
 ScaDFX=  1.000000  1.000000  1.000000  1.000000 ScalE2=  1.000000  1.000000
 IRadAn=      5 IRanWt=     -1 IRanGd=            0 ICorTp=0 IEmpDi=121
 HFx  wShort=  0.000000 wLong=  0.200000 cFull=  0.222036 cShort=  0.000000 cLong=  0.777964
 DFx  wShort=  0.000000 wLong=  0.200000 cFull=  0.000000 cShort=  0.000000 cLong=  1.000000
 NAtoms=   15 NActive=   15 NUniq=   15 SFac= 1.00D+00 NAtFMM=   60 NAOKFM=F Big=F
 Integral buffers will be    131072 words long.
 Raffenetti 2 integral format.
 Two-electron integral symmetry is turned off.
 R6Disp:  Grimme-D2 Dispersion energy=       -0.0077368520 Hartrees.
 Nuclear repulsion after empirical dispersion term =      739.2044846896 Hartrees.
 Leave Link  301 at Wed May  1 14:50:57 2024, MaxMem=  1207959552 cpu:               1.0 elap:               1.0
 (Enter /software/gaussian/g16-c01/sse4/g16/l302.exe)
 NPDir=0 NMtPBC=     1 NCelOv=     1 NCel=       1 NClECP=     1 NCelD=      1
         NCelK=      1 NCelE2=     1 NClLst=     1 CellRange=     0.0.
 One-electron integrals computed using PRISM.
 NBasis=   261 RedAO= T EigKep=  2.35D-06  NBF=   261
 NBsUse=   261 1.00D-06 EigRej= -1.00D+00 NBFU=   261
 Precomputing XC quadrature grid using
 IXCGrd= 4 IRadAn=           5 IRanWt=          -1 IRanGd=           0 AccXCQ= 0.00D+00.
 Generated NRdTot=       0 NPtTot=           0 NUsed=           0 NTot=          32
 NSgBfM=   273   273   273   273   273 MxSgAt=    15 MxSgA2=    15.
 Leave Link  302 at Wed May  1 14:51:19 2024, MaxMem=  1207959552 cpu:              21.5 elap:              21.5
 (Enter /software/gaussian/g16-c01/sse4/g16/l303.exe)
 DipDrv:  MaxL=1.
 The nuclear repulsion energy is now       736.2265917881 hartrees.
 Leave Link  303 at Wed May  1 14:51:22 2024, MaxMem=  1207959552 cpu:               3.1 elap:               3.1
 (Enter /software/gaussian/g16-c01/sse4/g16/l401.exe)
 ExpMin= 3.50D-02 ExpMax= 4.40D+05 ExpMxC= 1.51D+04 IAcc=3 IRadAn=         5 AccDes= 0.00D+00
 Harris functional with IExCor= 4639 and IRadAn=       5 diagonalized for initial guess.
 HarFok:  IExCor= 4639 AccDes= 0.00D+00 IRadAn=         5 IDoV= 1 UseB2=F ITyADJ=14
 ICtDFT=  3500011 ScaDFX=  1.000000  1.000000  1.000000  1.000000
 FoFCou: FMM=F IPFlag=           0 FMFlag=      100000 FMFlg1=           0
         NFxFlg=           0 DoJE=T BraDBF=F KetDBF=T FulRan=T
         wScrn=  0.000000 ICntrl=       500 IOpCl=  0 I1Cent=   200000004 NGrid=           0
         NMat0=    1 NMatS0=      1 NMatT0=    0 NMatD0=    1 NMtDS0=    0 NMtDT0=    0
 Symmetry not used in FoFCou.
 Harris En= -2970.82335591834    
 JPrj=0 DoOrth=F DoCkMO=F.
 Leave Link  401 at Wed May  1 14:51:53 2024, MaxMem=  1207959552 cpu:              30.8 elap:              30.8
 (Enter /software/gaussian/g16-c01/sse4/g16/l502.exe)
 Two-electron integral symmetry not used.
 Closed shell SCF:
 Using DIIS extrapolation, IDIIS=  1040.
 NGot=  1207959552 LenX=  1207804877 LenY=  1207729907
 Requested convergence on RMS density matrix=1.00D-08 within 128 cycles.
 Requested convergence on MAX density matrix=1.00D-06.
 Requested convergence on             energy=1.00D-06.
 No special actions if energy rises.
 Fock matrices will be formed incrementally for  20 cycles.

 Cycle   1  Pass 1  IDiag  1:
 FoFJK:  IHMeth= 1 ICntrl=       0 DoSepK=T KAlg= 0 I1Cent=           0 FoldK=F
 IRaf=         1 NMat=       1 IRICut=       1 DoRegI=T DoRafI=F ISym2E= 0 IDoP0=0 IntGTp=1.
 FoFCou: FMM=F IPFlag=           0 FMFlag=      100000 FMFlg1=           0
         NFxFlg=           0 DoJE=T BraDBF=F KetDBF=F FulRan=T
         wScrn=  0.000000 ICntrl=       500 IOpCl=  0 I1Cent=           0 NGrid=           0
         NMat0=    1 NMatS0=      1 NMatT0=    0 NMatD0=    1 NMtDS0=    0 NMtDT0=    0
 Symmetry not used in FoFCou.
 E= -3006.18916159932    
 DIIS: error= 3.23D-01 at cycle   1 NSaved=   1.
 NSaved= 1 IEnMin= 1 EnMin= -3006.18916159932     IErMin= 1 ErrMin= 3.23D-01
 ErrMax= 3.23D-01  0.00D+00 EMaxC= 1.00D-01 BMatC= 1.42D+01 BMatP= 1.42D+01
 IDIUse=3 WtCom= 0.00D+00 WtEn= 1.00D+00
 Coeff-Com:  0.100D+01
 Coeff-En:   0.100D+01
 Coeff:      0.100D+01
 Gap=     0.290 Goal=   None    Shift=    0.000
 GapD=    0.290 DampG=1.000 DampE=0.250 DampFc=0.2500 IDamp=-1.
 Damping current iteration by 2.50D-01
 RMSDP=2.24D+01 MaxDP=1.62D+03              OVMax= 8.07D-01

 Cycle   2  Pass 1  IDiag  1:
 RMSU=  2.73D-02    CP:  7.50D-01
 E= -3007.55138192914     Delta-E=       -1.362220329818 Rises=F Damp=T
 DIIS: error= 2.25D-01 at cycle   2 NSaved=   2.
 NSaved= 2 IEnMin= 2 EnMin= -3007.55138192914     IErMin= 2 ErrMin= 2.25D-01
 ErrMax= 2.25D-01  0.00D+00 EMaxC= 1.00D-01 BMatC= 5.50D+00 BMatP= 1.42D+01
 IDIUse=3 WtCom= 0.00D+00 WtEn= 1.00D+00
 Coeff-Com: -0.950D+00 0.195D+01
 Coeff-En:   0.735D-01 0.927D+00
 Coeff:      0.735D-01 0.927D+00
 Gap=     0.496 Goal=   None    Shift=    0.000
 RMSDP=1.68D+01 MaxDP=1.22D+03 DE=-1.36D+00 OVMax= 8.39D-01

 Cycle   3  Pass 1  IDiag  1:
 RMSU=  3.48D-02    CP:  2.97D-03  1.92D+00
 E= -3009.57011952139     Delta-E=       -2.018737592252 Rises=F Damp=F
 DIIS: error= 8.85D-02 at cycle   3 NSaved=   3.
 NSaved= 3 IEnMin= 3 EnMin= -3009.57011952139     IErMin= 3 ErrMin= 8.85D-02
 ErrMax= 8.85D-02  0.00D+00 EMaxC= 1.00D-01 BMatC= 1.89D+00 BMatP= 5.50D+00
 IDIUse=3 WtCom= 1.15D-01 WtEn= 8.85D-01
 Coeff-Com:  0.127D+00 0.141D+00 0.731D+00
 Coeff-En:   0.172D+00 0.000D+00 0.828D+00
 Coeff:      0.167D+00 0.163D-01 0.816D+00
 Gap=     0.605 Goal=   None    Shift=    0.000
 RMSDP=7.31D-02 MaxDP=6.62D+00 DE=-2.02D+00 OVMax= 4.22D-01

 Cycle   4  Pass 1  IDiag  1:
 RMSU=  4.30D-02    CP:  5.39D-03  1.70D+00  1.65D+00
 E= -3009.39837352764     Delta-E=        0.171745993750 Rises=F Damp=F
 DIIS: error= 1.11D-01 at cycle   4 NSaved=   4.
 NSaved= 4 IEnMin= 3 EnMin= -3009.57011952139     IErMin= 3 ErrMin= 8.85D-02
 ErrMax= 1.11D-01  0.00D+00 EMaxC= 1.00D-01 BMatC= 1.74D+00 BMatP= 1.89D+00
 IDIUse=3 WtCom= 0.00D+00 WtEn= 1.00D+00
 Coeff-Com:  0.107D+00-0.463D-01 0.518D+00 0.421D+00
 Coeff-En:   0.000D+00 0.000D+00 0.534D+00 0.466D+00
 Coeff:      0.000D+00 0.000D+00 0.534D+00 0.466D+00
 Gap=     0.250 Goal=   None    Shift=    0.000
 RMSDP=5.54D-02 MaxDP=6.00D+00 DE= 1.72D-01 OVMax= 4.48D-01

 Cycle   5  Pass 1  IDiag  1:
 RMSU=  2.28D-02    CP:  3.41D-03  1.89D+00  1.33D+00  5.26D-01
 E= -3010.48958696953     Delta-E=       -1.091213441895 Rises=F Damp=F
 DIIS: error= 2.66D-02 at cycle   5 NSaved=   5.
 NSaved= 5 IEnMin= 5 EnMin= -3010.48958696953     IErMin= 5 ErrMin= 2.66D-02
 ErrMax= 2.66D-02  0.00D+00 EMaxC= 1.00D-01 BMatC= 1.92D-01 BMatP= 1.74D+00
 IDIUse=3 WtCom= 7.34D-01 WtEn= 2.66D-01
 Coeff-Com: -0.265D-01 0.372D-01 0.217D+00 0.229D+00 0.544D+00
 Coeff-En:   0.000D+00 0.000D+00 0.000D+00 0.000D+00 0.100D+01
 Coeff:     -0.194D-01 0.273D-01 0.159D+00 0.168D+00 0.665D+00
 Gap=     0.243 Goal=   None    Shift=    0.000
 RMSDP=2.83D-02 MaxDP=1.90D+00 DE=-1.09D+00 OVMax= 1.37D-01

 Cycle   6  Pass 1  IDiag  1:
 RMSU=  9.49D-03    CP:  2.45D-03  1.58D+00  1.09D+00  3.54D-01  6.81D-01
 E= -3010.54718812415     Delta-E=       -0.057601154619 Rises=F Damp=F
 DIIS: error= 2.18D-02 at cycle   6 NSaved=   6.
 NSaved= 6 IEnMin= 6 EnMin= -3010.54718812415     IErMin= 6 ErrMin= 2.18D-02
 ErrMax= 2.18D-02  0.00D+00 EMaxC= 1.00D-01 BMatC= 5.75D-02 BMatP= 1.92D-01
 IDIUse=3 WtCom= 7.82D-01 WtEn= 2.18D-01
 Coeff-Com: -0.342D-01 0.475D-01 0.265D-01-0.380D-02 0.357D+00 0.607D+00
 Coeff-En:   0.000D+00 0.000D+00 0.000D+00 0.000D+00 0.267D+00 0.733D+00
 Coeff:     -0.267D-01 0.372D-01 0.207D-01-0.297D-02 0.338D+00 0.634D+00
 Gap=     0.269 Goal=   None    Shift=    0.000
 RMSDP=4.58D-03 MaxDP=4.34D-01 DE=-5.76D-02 OVMax= 7.58D-02

 Cycle   7  Pass 1  IDiag  1:
 RMSU=  2.13D-03    CP:  2.35D-03  1.56D+00  1.04D+00  3.00D-01  7.52D-01
                    CP:  9.48D-01
 E= -3010.57938550227     Delta-E=       -0.032197378122 Rises=F Damp=F
 DIIS: error= 3.08D-03 at cycle   7 NSaved=   7.
 NSaved= 7 IEnMin= 7 EnMin= -3010.57938550227     IErMin= 7 ErrMin= 3.08D-03
 ErrMax= 3.08D-03  0.00D+00 EMaxC= 1.00D-01 BMatC= 1.29D-03 BMatP= 5.75D-02
 IDIUse=3 WtCom= 9.69D-01 WtEn= 3.08D-02
 Coeff-Com: -0.888D-02 0.120D-01-0.134D-01-0.682D-02 0.393D-01 0.170D+00
 Coeff-Com:  0.808D+00
 Coeff-En:   0.000D+00 0.000D+00 0.000D+00 0.000D+00 0.000D+00 0.000D+00
 Coeff-En:   0.100D+01
 Coeff:     -0.860D-02 0.116D-01-0.130D-01-0.661D-02 0.381D-01 0.165D+00
 Coeff:      0.814D+00
 Gap=     0.234 Goal=   None    Shift=    0.000
 RMSDP=2.14D-03 MaxDP=1.11D-01 DE=-3.22D-02 OVMax= 1.10D-02

 Cycle   8  Pass 1  IDiag  1:
 RMSU=  8.61D-04    CP:  2.29D-03  1.56D+00  1.02D+00  2.86D-01  7.47D-01
                    CP:  1.06D+00  1.14D+00
 E= -3010.58038770279     Delta-E=       -0.001002200513 Rises=F Damp=F
 DIIS: error= 4.32D-04 at cycle   8 NSaved=   8.
 NSaved= 8 IEnMin= 8 EnMin= -3010.58038770279     IErMin= 8 ErrMin= 4.32D-04
 ErrMax= 4.32D-04  0.00D+00 EMaxC= 1.00D-01 BMatC= 8.29D-05 BMatP= 1.29D-03
 IDIUse=3 WtCom= 9.96D-01 WtEn= 4.32D-03
 Coeff-Com: -0.290D-02 0.368D-02-0.722D-02-0.164D-02-0.566D-02 0.224D-01
 Coeff-Com:  0.333D+00 0.658D+00
 Coeff-En:   0.000D+00 0.000D+00 0.000D+00 0.000D+00 0.000D+00 0.000D+00
 Coeff-En:   0.000D+00 0.100D+01
 Coeff:     -0.289D-02 0.367D-02-0.719D-02-0.163D-02-0.564D-02 0.223D-01
 Coeff:      0.332D+00 0.660D+00
 Gap=     0.232 Goal=   None    Shift=    0.000
 RMSDP=5.45D-04 MaxDP=3.35D-02 DE=-1.00D-03 OVMax= 3.83D-03

 Cycle   9  Pass 1  IDiag  1:
 RMSU=  2.21D-04    CP:  2.28D-03  1.56D+00  1.01D+00  2.83D-01  7.51D-01
                    CP:  1.08D+00  1.27D+00  1.19D+00
 E= -3010.58049326421     Delta-E=       -0.000105561422 Rises=F Damp=F
 DIIS: error= 1.78D-04 at cycle   9 NSaved=   9.
 NSaved= 9 IEnMin= 9 EnMin= -3010.58049326421     IErMin= 9 ErrMin= 1.78D-04
 ErrMax= 1.78D-04  0.00D+00 EMaxC= 1.00D-01 BMatC= 6.79D-06 BMatP= 8.29D-05
 IDIUse=3 WtCom= 9.98D-01 WtEn= 1.78D-03
 Coeff-Com:  0.337D-05-0.163D-05-0.398D-03 0.203D-03-0.790D-02-0.153D-01
 Coeff-Com: -0.210D-01 0.170D+00 0.874D+00
 Coeff-En:   0.000D+00 0.000D+00 0.000D+00 0.000D+00 0.000D+00 0.000D+00
 Coeff-En:   0.000D+00 0.000D+00 0.100D+01
 Coeff:      0.336D-05-0.163D-05-0.397D-03 0.202D-03-0.788D-02-0.152D-01
 Coeff:     -0.209D-01 0.170D+00 0.874D+00
 Gap=     0.232 Goal=   None    Shift=    0.000
 RMSDP=3.47D-04 MaxDP=1.67D-02 DE=-1.06D-04 OVMax= 2.90D-03

 Cycle  10  Pass 1  IDiag  1:
 RMSU=  1.02D-04    CP:  2.28D-03  1.56D+00  1.01D+00  2.80D-01  7.51D-01
                    CP:  1.10D+00  1.34D+00  1.35D+00  1.41D+00
 E= -3010.58051413768     Delta-E=       -0.000020873476 Rises=F Damp=F
 DIIS: error= 6.10D-05 at cycle  10 NSaved=  10.
 NSaved=10 IEnMin=10 EnMin= -3010.58051413768     IErMin=10 ErrMin= 6.10D-05
 ErrMax= 6.10D-05  0.00D+00 EMaxC= 1.00D-01 BMatC= 1.17D-06 BMatP= 6.79D-06
 IDIUse=1 WtCom= 1.00D+00 WtEn= 0.00D+00
 Coeff-Com:  0.888D-04-0.112D-03 0.277D-03-0.161D-03-0.338D-03-0.211D-02
 Coeff-Com: -0.341D-01-0.363D-01 0.229D+00 0.844D+00
 Coeff:      0.888D-04-0.112D-03 0.277D-03-0.161D-03-0.338D-03-0.211D-02
 Coeff:     -0.341D-01-0.363D-01 0.229D+00 0.844D+00
 Gap=     0.233 Goal=   None    Shift=    0.000
 RMSDP=8.62D-05 MaxDP=3.97D-03 DE=-2.09D-05 OVMax= 1.99D-03

 Cycle  11  Pass 1  IDiag  1:
 RMSU=  3.34D-05    CP:  2.28D-03  1.56D+00  1.01D+00  2.80D-01  7.50D-01
                    CP:  1.10D+00  1.36D+00  1.38D+00  1.53D+00  1.23D+00
 E= -3010.58051982912     Delta-E=       -0.000005691435 Rises=F Damp=F
 DIIS: error= 2.88D-05 at cycle  11 NSaved=  11.
 NSaved=11 IEnMin=11 EnMin= -3010.58051982912     IErMin=11 ErrMin= 2.88D-05
 ErrMax= 2.88D-05  0.00D+00 EMaxC= 1.00D-01 BMatC= 3.45D-07 BMatP= 1.17D-06
 IDIUse=1 WtCom= 1.00D+00 WtEn= 0.00D+00
 Coeff-Com:  0.251D-04-0.481D-04 0.325D-04-0.595D-04 0.186D-02 0.308D-02
 Coeff-Com:  0.551D-03-0.488D-01-0.172D+00 0.198D+00 0.102D+01
 Coeff:      0.251D-04-0.481D-04 0.325D-04-0.595D-04 0.186D-02 0.308D-02
 Coeff:      0.551D-03-0.488D-01-0.172D+00 0.198D+00 0.102D+01
 Gap=     0.232 Goal=   None    Shift=    0.000
 RMSDP=7.95D-05 MaxDP=5.29D-03 DE=-5.69D-06 OVMax= 1.76D-03

 Cycle  12  Pass 1  IDiag  1:
 RMSU=  2.10D-05    CP:  2.28D-03  1.56D+00  1.01D+00  2.81D-01  7.51D-01
                    CP:  1.10D+00  1.37D+00  1.39D+00  1.66D+00  1.62D+00
                    CP:  1.47D+00
 E= -3010.58052263293     Delta-E=       -0.000002803808 Rises=F Damp=F
 DIIS: error= 1.74D-05 at cycle  12 NSaved=  12.
 NSaved=12 IEnMin=12 EnMin= -3010.58052263293     IErMin=12 ErrMin= 1.74D-05
 ErrMax= 1.74D-05  0.00D+00 EMaxC= 1.00D-01 BMatC= 1.12D-07 BMatP= 3.45D-07
 IDIUse=1 WtCom= 1.00D+00 WtEn= 0.00D+00
 Coeff-Com:  0.144D-04-0.288D-04-0.189D-04 0.763D-04 0.631D-03 0.118D-02
 Coeff-Com:  0.783D-02-0.114D-01-0.117D+00-0.953D-01 0.405D+00 0.809D+00
 Coeff:      0.144D-04-0.288D-04-0.189D-04 0.763D-04 0.631D-03 0.118D-02
 Coeff:      0.783D-02-0.114D-01-0.117D+00-0.953D-01 0.405D+00 0.809D+00
 Gap=     0.232 Goal=   None    Shift=    0.000
 RMSDP=2.73D-05 MaxDP=1.73D-03 DE=-2.80D-06 OVMax= 1.02D-03

 Cycle  13  Pass 1  IDiag  1:
 RMSU=  9.02D-06    CP:  2.28D-03  1.56D+00  1.01D+00  2.81D-01  7.51D-01
                    CP:  1.10D+00  1.38D+00  1.40D+00  1.71D+00  1.73D+00
                    CP:  1.67D+00  1.35D+00
 E= -3010.58052344045     Delta-E=       -0.000000807526 Rises=F Damp=F
 DIIS: error= 1.12D-05 at cycle  13 NSaved=  13.
 NSaved=13 IEnMin=13 EnMin= -3010.58052344045     IErMin=13 ErrMin= 1.12D-05
 ErrMax= 1.12D-05  0.00D+00 EMaxC= 1.00D-01 BMatC= 3.85D-08 BMatP= 1.12D-07
 IDIUse=1 WtCom= 1.00D+00 WtEn= 0.00D+00
 Coeff-Com: -0.332D-04 0.514D-04-0.828D-05 0.355D-04-0.305D-03-0.484D-03
 Coeff-Com:  0.185D-02 0.984D-02 0.104D-01-0.106D+00-0.211D+00 0.346D+00
 Coeff-Com:  0.949D+00
 Coeff:     -0.332D-04 0.514D-04-0.828D-05 0.355D-04-0.305D-03-0.484D-03
 Coeff:      0.185D-02 0.984D-02 0.104D-01-0.106D+00-0.211D+00 0.346D+00
 Coeff:      0.949D+00
 Gap=     0.232 Goal=   None    Shift=    0.000
 RMSDP=1.97D-05 MaxDP=1.51D-03 DE=-8.08D-07 OVMax= 8.39D-04

 Cycle  14  Pass 1  IDiag  1:
 RMSU=  5.96D-06    CP:  2.28D-03  1.56D+00  1.01D+00  2.81D-01  7.50D-01
                    CP:  1.10D+00  1.38D+00  1.40D+00  1.72D+00  1.79D+00
                    CP:  1.87D+00  1.76D+00  1.65D+00
 E= -3010.58052377901     Delta-E=       -0.000000338558 Rises=F Damp=F
 DIIS: error= 4.25D-06 at cycle  14 NSaved=  14.
 NSaved=14 IEnMin=14 EnMin= -3010.58052377901     IErMin=14 ErrMin= 4.25D-06
 ErrMax= 4.25D-06  0.00D+00 EMaxC= 1.00D-01 BMatC= 9.14D-09 BMatP= 3.85D-08
 IDIUse=1 WtCom= 1.00D+00 WtEn= 0.00D+00
 Coeff-Com: -0.290D-04 0.429D-04 0.999D-05 0.735D-05-0.287D-03-0.568D-03
 Coeff-Com: -0.158D-02 0.641D-02 0.394D-01-0.501D-02-0.197D+00-0.580D-01
 Coeff-Com:  0.295D+00 0.922D+00
 Coeff:     -0.290D-04 0.429D-04 0.999D-05 0.735D-05-0.287D-03-0.568D-03
 Coeff:     -0.158D-02 0.641D-02 0.394D-01-0.501D-02-0.197D+00-0.580D-01
 Coeff:      0.295D+00 0.922D+00
 Gap=     0.232 Goal=   None    Shift=    0.000
 RMSDP=9.40D-06 MaxDP=7.26D-04 DE=-3.39D-07 OVMax= 3.70D-04

 Cycle  15  Pass 1  IDiag  1:
 RMSU=  1.72D-06    CP:  2.28D-03  1.56D+00  1.01D+00  2.81D-01  7.50D-01
                    CP:  1.10D+00  1.38D+00  1.41D+00  1.72D+00  1.79D+00
                    CP:  1.93D+00  1.93D+00  2.11D+00  1.61D+00
 E= -3010.58052384507     Delta-E=       -0.000000066061 Rises=F Damp=F
 DIIS: error= 2.81D-06 at cycle  15 NSaved=  15.
 NSaved=15 IEnMin=15 EnMin= -3010.58052384507     IErMin=15 ErrMin= 2.81D-06
 ErrMax= 2.81D-06  0.00D+00 EMaxC= 1.00D-01 BMatC= 2.35D-09 BMatP= 9.14D-09
 IDIUse=1 WtCom= 1.00D+00 WtEn= 0.00D+00
 Coeff-Com: -0.349D-05 0.464D-05 0.122D-04-0.707D-06-0.223D-05-0.154D-03
 Coeff-Com: -0.143D-02-0.216D-02 0.576D-02 0.298D-01 0.195D-02-0.902D-01
 Coeff-Com: -0.225D+00 0.296D+00 0.985D+00
 Coeff:     -0.349D-05 0.464D-05 0.122D-04-0.707D-06-0.223D-05-0.154D-03
 Coeff:     -0.143D-02-0.216D-02 0.576D-02 0.298D-01 0.195D-02-0.902D-01
 Coeff:     -0.225D+00 0.296D+00 0.985D+00
 Gap=     0.232 Goal=   None    Shift=    0.000
 RMSDP=4.86D-06 MaxDP=2.04D-04 DE=-6.61D-08 OVMax= 2.11D-04

 Cycle  16  Pass 1  IDiag  1:
 RMSU=  1.04D-06    CP:  2.28D-03  1.56D+00  1.01D+00  2.81D-01  7.50D-01
                    CP:  1.10D+00  1.38D+00  1.41D+00  1.72D+00  1.79D+00
                    CP:  1.95D+00  2.01D+00  2.33D+00  1.88D+00  1.32D+00
 E= -3010.58052385952     Delta-E=       -0.000000014449 Rises=F Damp=F
 DIIS: error= 1.07D-06 at cycle  16 NSaved=  16.
 NSaved=16 IEnMin=16 EnMin= -3010.58052385952     IErMin=16 ErrMin= 1.07D-06
 ErrMax= 1.07D-06  0.00D+00 EMaxC= 1.00D-01 BMatC= 2.69D-10 BMatP= 2.35D-09
 IDIUse=1 WtCom= 1.00D+00 WtEn= 0.00D+00
 Coeff-Com:  0.790D-06-0.146D-05-0.109D-05-0.138D-05 0.269D-04 0.331D-04
 Coeff-Com:  0.104D-04-0.103D-02-0.346D-02 0.737D-02 0.225D-01-0.400D-02
 Coeff-Com: -0.818D-01-0.940D-01 0.214D+00 0.940D+00
 Coeff:      0.790D-06-0.146D-05-0.109D-05-0.138D-05 0.269D-04 0.331D-04
 Coeff:      0.104D-04-0.103D-02-0.346D-02 0.737D-02 0.225D-01-0.400D-02
 Coeff:     -0.818D-01-0.940D-01 0.214D+00 0.940D+00
 Gap=     0.232 Goal=   None    Shift=    0.000
 RMSDP=2.30D-06 MaxDP=1.77D-04 DE=-1.44D-08 OVMax= 4.59D-05

 Cycle  17  Pass 1  IDiag  1:
 RMSU=  4.09D-07    CP:  2.28D-03  1.56D+00  1.01D+00  2.81D-01  7.50D-01
                    CP:  1.10D+00  1.38D+00  1.41D+00  1.72D+00  1.79D+00
                    CP:  1.96D+00  2.03D+00  2.36D+00  1.96D+00  1.61D+00
                    CP:  1.19D+00
 E= -3010.58052386078     Delta-E=       -0.000000001258 Rises=F Damp=F
 DIIS: error= 5.92D-07 at cycle  17 NSaved=  17.
 NSaved=17 IEnMin=17 EnMin= -3010.58052386078     IErMin=17 ErrMin= 5.92D-07
 ErrMax= 5.92D-07  0.00D+00 EMaxC= 1.00D-01 BMatC= 3.94D-11 BMatP= 2.69D-10
 IDIUse=1 WtCom= 1.00D+00 WtEn= 0.00D+00
 Coeff-Com:  0.122D-05-0.178D-05-0.176D-05 0.316D-07 0.629D-05 0.312D-04
 Coeff-Com:  0.198D-03-0.126D-04-0.175D-02-0.200D-02 0.411D-02 0.133D-01
 Coeff-Com:  0.141D-01-0.728D-01-0.669D-01 0.250D+00 0.862D+00
 Coeff:      0.122D-05-0.178D-05-0.176D-05 0.316D-07 0.629D-05 0.312D-04
 Coeff:      0.198D-03-0.126D-04-0.175D-02-0.200D-02 0.411D-02 0.133D-01
 Coeff:      0.141D-01-0.728D-01-0.669D-01 0.250D+00 0.862D+00
 Gap=     0.232 Goal=   None    Shift=    0.000
 RMSDP=8.55D-07 MaxDP=4.72D-05 DE=-1.26D-09 OVMax= 1.06D-05

 Cycle  18  Pass 1  IDiag  1:
 RMSU=  1.90D-07    CP:  2.28D-03  1.56D+00  1.01D+00  2.81D-01  7.50D-01
                    CP:  1.10D+00  1.38D+00  1.41D+00  1.72D+00  1.79D+00
                    CP:  1.96D+00  2.03D+00  2.36D+00  1.96D+00  1.69D+00
                    CP:  1.19D+00  1.55D+00
 E= -3010.58052386102     Delta-E=       -0.000000000244 Rises=F Damp=F
 DIIS: error= 1.64D-07 at cycle  18 NSaved=  18.
 NSaved=18 IEnMin=18 EnMin= -3010.58052386102     IErMin=18 ErrMin= 1.64D-07
 ErrMax= 1.64D-07  0.00D+00 EMaxC= 1.00D-01 BMatC= 1.23D-11 BMatP= 3.94D-11
 IDIUse=1 WtCom= 1.00D+00 WtEn= 0.00D+00
 Coeff-Com:  0.148D-06-0.168D-06-0.614D-06 0.101D-06-0.420D-05 0.350D-05
 Coeff-Com:  0.402D-04 0.236D-03 0.521D-03-0.183D-02-0.471D-02 0.373D-02
 Coeff-Com:  0.197D-01 0.712D-02-0.586D-01-0.207D+00 0.191D+00 0.105D+01
 Coeff:      0.148D-06-0.168D-06-0.614D-06 0.101D-06-0.420D-05 0.350D-05
 Coeff:      0.402D-04 0.236D-03 0.521D-03-0.183D-02-0.471D-02 0.373D-02
 Coeff:      0.197D-01 0.712D-02-0.586D-01-0.207D+00 0.191D+00 0.105D+01
 Gap=     0.232 Goal=   None    Shift=    0.000
 RMSDP=5.63D-07 MaxDP=3.65D-05 DE=-2.44D-10 OVMax= 8.32D-06

 Cycle  19  Pass 1  IDiag  1:
 RMSU=  9.18D-08    CP:  2.28D-03  1.56D+00  1.01D+00  2.81D-01  7.50D-01
                    CP:  1.10D+00  1.38D+00  1.41D+00  1.72D+00  1.79D+00
                    CP:  1.96D+00  2.03D+00  2.36D+00  1.96D+00  1.75D+00
                    CP:  1.24D+00  2.03D+00  1.30D+00
 E= -3010.58052386111     Delta-E=       -0.000000000086 Rises=F Damp=F
 DIIS: error= 7.97D-08 at cycle  19 NSaved=  19.
 NSaved=19 IEnMin=19 EnMin= -3010.58052386111     IErMin=19 ErrMin= 7.97D-08
 ErrMax= 7.97D-08  0.00D+00 EMaxC= 1.00D-01 BMatC= 1.71D-12 BMatP= 1.23D-11
 IDIUse=1 WtCom= 1.00D+00 WtEn= 0.00D+00
 Coeff-Com: -0.274D-06 0.416D-06 0.201D-06-0.512D-09-0.199D-05-0.530D-05
 Coeff-Com: -0.347D-04 0.329D-04 0.369D-03 0.274D-04-0.132D-02-0.127D-02
 Coeff-Com:  0.108D-03 0.143D-01 0.287D-02-0.866D-01-0.854D-01 0.182D+00
 Coeff-Com:  0.975D+00
 Coeff:     -0.274D-06 0.416D-06 0.201D-06-0.512D-09-0.199D-05-0.530D-05
 Coeff:     -0.347D-04 0.329D-04 0.369D-03 0.274D-04-0.132D-02-0.127D-02
 Coeff:      0.108D-03 0.143D-01 0.287D-02-0.866D-01-0.854D-01 0.182D+00
 Coeff:      0.975D+00
 Gap=     0.232 Goal=   None    Shift=    0.000
 RMSDP=1.99D-07 MaxDP=1.34D-05 DE=-8.64D-11 OVMax= 4.63D-06

 Cycle  20  Pass 1  IDiag  1:
 RMSU=  3.55D-08    CP:  2.28D-03  1.56D+00  1.01D+00  2.81D-01  7.50D-01
                    CP:  1.10D+00  1.38D+00  1.41D+00  1.72D+00  1.79D+00
                    CP:  1.96D+00  2.03D+00  2.36D+00  1.96D+00  1.75D+00
                    CP:  1.24D+00  2.22D+00  1.49D+00  1.49D+00
 E= -3010.58052386113     Delta-E=       -0.000000000024 Rises=F Damp=F
 DIIS: error= 4.14D-08 at cycle  20 NSaved=  20.
 NSaved=20 IEnMin=20 EnMin= -3010.58052386113     IErMin=20 ErrMin= 4.14D-08
 ErrMax= 4.14D-08  0.00D+00 EMaxC= 1.00D-01 BMatC= 5.00D-13 BMatP= 1.71D-12
 IDIUse=1 WtCom= 1.00D+00 WtEn= 0.00D+00
 Coeff-Com: -0.174D-06 0.238D-06 0.266D-06 0.141D-06 0.255D-06-0.338D-05
 Coeff-Com: -0.163D-04-0.451D-04-0.935D-04 0.365D-03 0.114D-02-0.893D-03
 Coeff-Com: -0.456D-02-0.542D-03 0.115D-01 0.332D-01-0.409D-01-0.211D+00
 Coeff-Com: -0.519D-02 0.122D+01
 Coeff:     -0.174D-06 0.238D-06 0.266D-06 0.141D-06 0.255D-06-0.338D-05
 Coeff:     -0.163D-04-0.451D-04-0.935D-04 0.365D-03 0.114D-02-0.893D-03
 Coeff:     -0.456D-02-0.542D-03 0.115D-01 0.332D-01-0.409D-01-0.211D+00
 Coeff:     -0.519D-02 0.122D+01
 Gap=     0.232 Goal=   None    Shift=    0.000
 RMSDP=1.62D-07 MaxDP=1.11D-05 DE=-2.41D-11 OVMax= 3.29D-06

 Cycle  21  Pass 1  IDiag  1:
 Restarting incremental Fock formation.
 E= -3010.58052386113     Delta-E=        0.000000000003 Rises=F Damp=F
 DIIS: error= 1.77D-08 at cycle  21 NSaved=  20.
 NSaved=20 IEnMin=19 EnMin= -3010.58052386113     IErMin=20 ErrMin= 1.77D-08
 ErrMax= 1.77D-08  0.00D+00 EMaxC= 1.00D-01 BMatC= 1.10D-13 BMatP= 5.00D-13
 IDIUse=1 WtCom= 1.00D+00 WtEn= 0.00D+00
 Coeff-Com: -0.652D-08 0.783D-07 0.884D-07 0.370D-06 0.421D-07 0.375D-05
 Coeff-Com: -0.143D-04-0.106D-03 0.289D-04 0.528D-03 0.239D-04-0.672D-03
 Coeff-Com: -0.316D-02 0.159D-02 0.245D-01 0.126D-01-0.603D-01-0.271D+00
 Coeff-Com:  0.197D+00 0.110D+01
 Coeff:     -0.652D-08 0.783D-07 0.884D-07 0.370D-06 0.421D-07 0.375D-05
 Coeff:     -0.143D-04-0.106D-03 0.289D-04 0.528D-03 0.239D-04-0.672D-03
 Coeff:     -0.316D-02 0.159D-02 0.245D-01 0.126D-01-0.603D-01-0.271D+00
 Coeff:      0.197D+00 0.110D+01
 Gap=     0.232 Goal=   None    Shift=    0.000
 RMSDP=5.91D-08 MaxDP=3.71D-06 DE= 2.73D-12 OVMax= 1.56D-06

 Cycle  22  Pass 1  IDiag  1:
 RMSU=  4.89D-08    CP:  1.00D+00
 E= -3010.58052386108     Delta-E=        0.000000000048 Rises=F Damp=F
 DIIS: error= 5.81D-09 at cycle  22 NSaved=  20.
 NSaved=20 IEnMin=18 EnMin= -3010.58052386113     IErMin=20 ErrMin= 5.81D-09
 ErrMax= 5.81D-09  0.00D+00 EMaxC= 1.00D-01 BMatC= 1.67D-14 BMatP= 1.10D-13
 IDIUse=1 WtCom= 1.00D+00 WtEn= 0.00D+00
 Coeff-Com: -0.197D-07-0.131D-07 0.189D-06 0.831D-06 0.375D-05 0.489D-05
 Coeff-Com: -0.482D-05-0.433D-04-0.550D-04 0.441D-04 0.526D-03-0.411D-03
 Coeff-Com: -0.940D-03 0.409D-03 0.449D-02 0.205D-01-0.677D-01-0.133D+00
 Coeff-Com:  0.301D+00 0.876D+00
 Coeff:     -0.197D-07-0.131D-07 0.189D-06 0.831D-06 0.375D-05 0.489D-05
 Coeff:     -0.482D-05-0.433D-04-0.550D-04 0.441D-04 0.526D-03-0.411D-03
 Coeff:     -0.940D-03 0.409D-03 0.449D-02 0.205D-01-0.677D-01-0.133D+00
 Coeff:      0.301D+00 0.876D+00
 Gap=     0.232 Goal=   None    Shift=    0.000
 RMSDP=1.64D-08 MaxDP=1.23D-06 DE= 4.77D-11 OVMax= 4.32D-07

 Cycle  23  Pass 1  IDiag  1:
 RMSU=  8.30D-09    CP:  1.00D+00  1.26D+00
 E= -3010.58052386115     Delta-E=       -0.000000000067 Rises=F Damp=F
 DIIS: error= 1.90D-09 at cycle  23 NSaved=  20.
 NSaved=20 IEnMin=20 EnMin= -3010.58052386115     IErMin=20 ErrMin= 1.90D-09
 ErrMax= 1.90D-09  0.00D+00 EMaxC= 1.00D-01 BMatC= 1.76D-15 BMatP= 1.67D-14
 IDIUse=1 WtCom= 1.00D+00 WtEn= 0.00D+00
 Large coefficients: NSaved= 20 BigCof=    0.00 CofMax=   10.00 Det=-8.30D-15
 Inversion failed.  Reducing to 19 matrices.
 Large coefficients: NSaved= 19 BigCof=    0.00 CofMax=   10.00 Det=-8.32D-15
 Inversion failed.  Reducing to 18 matrices.
 Large coefficients: NSaved= 18 BigCof=    0.00 CofMax=   10.00 Det=-8.47D-15
 Inversion failed.  Reducing to 17 matrices.
 Coeff-Com: -0.453D-06 0.247D-05 0.127D-04-0.805D-05-0.699D-04-0.388D-05
 Coeff-Com:  0.110D-03 0.353D-03-0.226D-03-0.267D-02-0.213D-02 0.117D-01
 Coeff-Com:  0.277D-01-0.422D-01-0.107D+00 0.744D-01 0.104D+01
 Coeff:     -0.453D-06 0.247D-05 0.127D-04-0.805D-05-0.699D-04-0.388D-05
 Coeff:      0.110D-03 0.353D-03-0.226D-03-0.267D-02-0.213D-02 0.117D-01
 Coeff:      0.277D-01-0.422D-01-0.107D+00 0.744D-01 0.104D+01
 Gap=     0.232 Goal=   None    Shift=    0.000
 RMSDP=5.92D-09 MaxDP=4.44D-07 DE=-6.73D-11 OVMax= 9.34D-08

 SCF Done:  E(RwB97XD) =  -3010.58052386     A.U. after   23 cycles
            NFock= 23  Conv=0.59D-08     -V/T= 2.0016
 KE= 3.005786029754D+03 PE=-8.627843284450D+03 EE= 1.875250139046D+03
 Leave Link  502 at Wed May  1 15:14:20 2024, MaxMem=  1207959552 cpu:            1347.0 elap:            1347.3
 (Enter /software/gaussian/g16-c01/sse4/g16/l601.exe)
 Copying SCF densities to generalized density rwf, IOpCl= 0 IROHF=0.

 **********************************************************************

            Population analysis using the SCF Density.

 **********************************************************************

 Alpha  occ. eigenvalues -- -483.27599 -62.82558 -56.62302 -56.61666 -56.61655
 Alpha  occ. eigenvalues --  -19.45546 -19.45232 -14.84699 -10.57666 -10.56275
 Alpha  occ. eigenvalues --  -10.56087 -10.55096 -10.54823 -10.53977  -8.98314
 Alpha  occ. eigenvalues --   -6.81122  -6.79050  -6.79015  -2.90994  -2.90451
 Alpha  occ. eigenvalues --   -2.90422  -2.88766  -2.88766  -1.49077  -1.32077
 Alpha  occ. eigenvalues --   -1.21566  -1.12459  -1.11014  -1.01490  -1.00279
 Alpha  occ. eigenvalues --   -0.94254  -0.90072  -0.85072  -0.80389  -0.79680
 Alpha  occ. eigenvalues --   -0.79317  -0.77701  -0.75327  -0.74588  -0.71062
 Alpha  occ. eigenvalues --   -0.68150  -0.66545  -0.62211  -0.58628  -0.56818
 Alpha  occ. eigenvalues --   -0.55668  -0.54807  -0.51676  -0.51434
 Alpha virt. eigenvalues --   -0.28194  -0.20531  -0.20250  -0.16220  -0.15001
 Alpha virt. eigenvalues --   -0.11127  -0.09922  -0.09611  -0.07428  -0.05367
 Alpha virt. eigenvalues --   -0.04926  -0.03133  -0.01533  -0.01097  -0.00619
 Alpha virt. eigenvalues --   -0.00262   0.01361   0.02435   0.02795   0.02915
 Alpha virt. eigenvalues --    0.04712   0.05610   0.06315   0.06751   0.07052
 Alpha virt. eigenvalues --    0.07839   0.08889   0.09362   0.10354   0.11430
 Alpha virt. eigenvalues --    0.11820   0.12593   0.13391   0.13882   0.14485
 Alpha virt. eigenvalues --    0.15227   0.15528   0.16131   0.16720   0.17734
 Alpha virt. eigenvalues --    0.19255   0.19702   0.20694   0.21358   0.21805
 Alpha virt. eigenvalues --    0.23433   0.24601   0.25646   0.26130   0.28387
 Alpha virt. eigenvalues --    0.28686   0.28769   0.29303   0.31634   0.33134
 Alpha virt. eigenvalues --    0.34174   0.35640   0.36838   0.37853   0.38599
 Alpha virt. eigenvalues --    0.39350   0.40273   0.41696   0.42653   0.43563
 Alpha virt. eigenvalues --    0.44459   0.45515   0.46437   0.47034   0.48466
 Alpha virt. eigenvalues --    0.49312   0.51768   0.52205   0.52940   0.54301
 Alpha virt. eigenvalues --    0.55725   0.57177   0.57451   0.59802   0.61353
 Alpha virt. eigenvalues --    0.61939   0.64662   0.67024   0.68551   0.68675
 Alpha virt. eigenvalues --    0.70878   0.71670   0.72625   0.74334   0.75523
 Alpha virt. eigenvalues --    0.76684   0.80013   0.82038   0.85929   0.86760
 Alpha virt. eigenvalues --    0.87941   0.88500   0.93038   0.94321   0.98338
 Alpha virt. eigenvalues --    1.00991   1.01253   1.05313   1.06545   1.07662
 Alpha virt. eigenvalues --    1.10380   1.10658   1.12565   1.13325   1.15770
 Alpha virt. eigenvalues --    1.23156   1.25491   1.27450   1.33564   1.37184
 Alpha virt. eigenvalues --    1.37481   1.40014   1.46742   1.55220   1.57760
 Alpha virt. eigenvalues --    1.59159   1.59885   1.61255   1.63571   1.67423
 Alpha virt. eigenvalues --    1.69800   1.71054   1.74141   1.76068   1.79630
 Alpha virt. eigenvalues --    1.82079   1.85008   1.88664   1.96611   1.99099
 Alpha virt. eigenvalues --    2.00550   2.03678   2.04785   2.08736   2.09859
 Alpha virt. eigenvalues --    2.12537   2.15564   2.20447   2.22853   2.27188
 Alpha virt. eigenvalues --    2.38093   2.42361   2.43400   2.46146   2.52848
 Alpha virt. eigenvalues --    2.57520   2.63423   2.66728   2.69087   2.71785
 Alpha virt. eigenvalues --    2.74628   2.77128   2.77776   2.81528   2.82934
 Alpha virt. eigenvalues --    2.95081   2.97860   3.01238   3.07588   3.10068
 Alpha virt. eigenvalues --    3.13410   3.14224   3.18699   3.23677   3.25627
 Alpha virt. eigenvalues --    3.27867   3.39698   3.47108   3.51728   3.55474
 Alpha virt. eigenvalues --    3.57890   3.70607   3.74716   3.82833   3.88137
 Alpha virt. eigenvalues --    4.13038   4.13224   4.20371   4.25758   4.44850
 Alpha virt. eigenvalues --    4.46475   4.58459   4.60496   4.93466   4.96504
 Alpha virt. eigenvalues --    5.04815   5.09292   5.63345   6.16269   6.68686
 Alpha virt. eigenvalues --    7.51721   7.53315   7.62901  23.22001  23.62025
 Alpha virt. eigenvalues --   23.72500  23.79641  23.96034  24.02166  35.33256
 Alpha virt. eigenvalues --   47.94934  49.86003  49.94809 289.84183 289.85850
 Alpha virt. eigenvalues --  289.982491020.95248
          Condensed to atoms (all electrons):
               1          2          3          4          5          6
     1  C   12.301566  -5.798777   1.777218  -3.557398  -1.202934   0.264513
     2  C   -5.798777  18.385645  -4.408956   0.366331   1.260533  -0.027083
     3  C    1.777218  -4.408956  17.772587  -7.093943  -2.972094   0.002194
     4  C   -3.557398   0.366331  -7.093943  18.800226   3.106942   0.022528
     5  C   -1.202934   1.260533  -2.972094   3.106942   9.158596   0.096713
     6  H    0.264513  -0.027083   0.002194   0.022528   0.096713   0.464487
     7  H    0.123602   0.100646   0.205803  -0.064344  -0.047037  -0.004167
     8  H    0.000622   0.011846   0.032458   0.286496  -0.013281  -0.000006
     9  H    0.006959   0.006100  -0.000695   0.023167   0.274605  -0.002957
    10  N   -0.400059   0.599417  -1.149559   0.498567   0.056144  -0.000688
    11  O   -0.029162  -0.039327  -0.285425   0.114708  -0.045923  -0.000023
    12  O    0.472461  -0.169272  -0.284890  -0.141221  -0.057481   0.000020
    13  C    2.612262  -4.879191   3.054627  -6.610213  -3.645394  -0.029580
    14  H    0.000350  -0.042945   0.042213  -0.188586  -0.044620  -0.000110
    15  Br   0.047657  -0.055887   0.187442   0.011623   0.196311  -0.000367
               7          8          9         10         11         12
     1  C    0.123602   0.000622   0.006959  -0.400059  -0.029162   0.472461
     2  C    0.100646   0.011846   0.006100   0.599417  -0.039327  -0.169272
     3  C    0.205803   0.032458  -0.000695  -1.149559  -0.285425  -0.284890
     4  C   -0.064344   0.286496   0.023167   0.498567   0.114708  -0.141221
     5  C   -0.047037  -0.013281   0.274605   0.056144  -0.045923  -0.057481
     6  H   -0.004167  -0.000006  -0.002957  -0.000688  -0.000023   0.000020
     7  H    0.403655   0.000024  -0.000024  -0.040731  -0.002442   0.031351
     8  H    0.000024   0.235507   0.000151  -0.016614   0.015505  -0.000149
     9  H   -0.000024   0.000151   0.348546   0.000483   0.000017   0.000002
    10  N   -0.040731  -0.016614   0.000483   7.419461   0.273044   0.036130
    11  O   -0.002442   0.015505   0.000017   0.273044   7.610008  -0.001678
    12  O    0.031351  -0.000149   0.000002   0.036130  -0.001678   8.147611
    13  C    0.032153  -0.005080   0.010592  -0.171124   0.224609   0.081367
    14  H   -0.000016  -0.002476  -0.006367  -0.000509  -0.000380  -0.000046
    15  Br  -0.000201   0.001421  -0.005226  -0.004747   0.000685   0.002014
              13         14         15
     1  C    2.612262   0.000350   0.047657
     2  C   -4.879191  -0.042945  -0.055887
     3  C    3.054627   0.042213   0.187442
     4  C   -6.610213  -0.188586   0.011623
     5  C   -3.645394  -0.044620   0.196311
     6  H   -0.029580  -0.000110  -0.000367
     7  H    0.032153  -0.000016  -0.000201
     8  H   -0.005080  -0.002476   0.001421
     9  H    0.010592  -0.006367  -0.005226
    10  N   -0.171124  -0.000509  -0.004747
    11  O    0.224609  -0.000380   0.000685
    12  O    0.081367  -0.000046   0.002014
    13  C   15.554199   0.517261  -0.193046
    14  H    0.517261   0.282795  -0.025189
    15  Br  -0.193046  -0.025189  34.474623
 Mulliken charges:
               1
     1  C   -0.618881
     2  C    0.690919
     3  C   -0.878978
     4  C    0.425119
     5  C   -0.121078
     6  H    0.214526
     7  H    0.261728
     8  H    0.453576
     9  H    0.344648
    10  N   -0.099215
    11  O    0.165785
    12  O   -0.116219
    13  C   -0.553442
    14  H    0.468625
    15  Br   0.362887
 Sum of Mulliken charges =   1.00000
 Mulliken charges with hydrogens summed into heavy atoms:
               1
     1  C   -0.404355
     2  C    0.952647
     3  C   -0.878978
     4  C    0.878695
     5  C    0.223570
    10  N   -0.099215
    11  O    0.165785
    12  O   -0.116219
    13  C   -0.084817
    15  Br   0.362887
 Electronic spatial extent (au):  <R**2>=           2795.9390
 Charge=              1.0000 electrons
 Dipole moment (field-independent basis, Debye):
    X=             -1.6465    Y=             -8.2305    Z=             -1.0767  Tot=              8.4623
 Quadrupole moment (field-independent basis, Debye-Ang):
   XX=            -72.5352   YY=            -49.4867   ZZ=            -60.5585
   XY=             -7.0901   XZ=              1.9798   YZ=              5.1995
 Traceless Quadrupole moment (field-independent basis, Debye-Ang):
   XX=            -11.6751   YY=             11.3735   ZZ=              0.3016
   XY=             -7.0901   XZ=              1.9798   YZ=              5.1995
 Octapole moment (field-independent basis, Debye-Ang**2):
  XXX=           -306.7437  YYY=             42.1934  ZZZ=             70.8825  XYY=            -82.2824
  XXY=            -10.3948  XXZ=             31.2702  XZZ=            -80.6280  YZZ=              3.7837
  YYZ=             15.0673  XYZ=             -5.0880
 Hexadecapole moment (field-independent basis, Debye-Ang**3):
 XXXX=          -2307.6894 YYYY=           -649.3292 ZZZZ=           -331.7686 XXXY=           -208.8786
 XXXZ=            -18.4706 YYYX=            -86.6334 YYYZ=           -125.1606 ZZZX=            -13.5619
 ZZZY=           -115.5078 XXYY=           -462.3549 XXZZ=           -369.6550 YYZZ=           -142.0257
 XXYZ=            -48.3499 YYXZ=              4.5103 ZZXY=             -9.3348
 N-N= 7.362265917881D+02 E-N=-8.627843283874D+03  KE= 3.005786029754D+03
 No NMR shielding tensors so no spin-rotation constants.
 Leave Link  601 at Wed May  1 15:14:28 2024, MaxMem=  1207959552 cpu:               7.4 elap:               7.4
 (Enter /software/gaussian/g16-c01/sse4/g16/l9999.exe)
 Unable to Open any file for archive entry.
 1\1\GINC-BHX0032\SP\RwB97XD\6-311+G(d)\C6H5Br1N1O2(1+)\BWEIGHT\01-May-
 2024\0\\#P wB97XD/6-311+G* NoSymm #P Field=Y+262\\TitleMe\\1,1\C,0,0.0
 295,1.3397,0.0682\C,0,1.4348,1.2867,0.0064\C,0,2.1118,0.0511,-0.0054\C
 ,0,1.4451,-1.1372,0.0312\C,0,-0.6879,0.1682,0.11\H,0,-0.4713,2.2984,0.
 0781\H,0,2.0273,2.1965,-0.0322\H,0,1.9897,-2.0764,0.0232\H,0,-1.7716,0
 .1804,0.1582\N,0,3.5864,0.051,-0.0675\O,0,4.1471,-1.0597,-0.0881\O,0,4
 .145,1.1639,-0.0901\C,0,-0.0236,-1.1458,0.0835\H,0,-0.4367,-1.8725,0.7
 889\Br,0,-0.5359,-1.8697,-1.7408\\Version=ES64L-G16RevC.01\HF=-3010.58
 05239\RMSD=5.923e-09\Dipole=-2.5543397,-2.0900326,0.7225788\Quadrupole
 =-8.68015,8.4558878,0.2242622,-5.2713475,1.4719393,3.8656973\PG=C01 [X
 (C6H5Br1N1O2)]\\@
 The archive entry for this job was punched.


 SOME THINGS ARE EASY, THEY ARE ONLY HARD TO DO.
            -- A. EINSTEIN TO J. O. HIRSCHFELDER
 THE ONLY TROUBLE WITH A SURE THING IS THE UNCERTAINTY.
     -- FROM A TEABAG (BELONGING TO W.H.?)
 Job cpu time:       0 days  0 hours 23 minutes 35.9 seconds.
 Elapsed time:       0 days  0 hours 23 minutes 36.1 seconds.
 File lengths (MBytes):  RWF=     40 Int=      0 D2E=      0 Chk=     32 Scr=      1
 Normal termination of Gaussian 16 at Wed May  1 15:14:29 2024.
