 Entering Gaussian System, Link 0=g16
 Initial command:
 /software/gaussian/g16-c01/sse4/g16/l1.exe "/local_scratch/24665396/Gau-7736.inp" -scrdir="/local_scratch/24665396/"
 Entering Link 1 = /software/gaussian/g16-c01/sse4/g16/l1.exe PID=      7807.
  
 Copyright (c) 1988-2019, Gaussian, Inc.  All Rights Reserved.
  
 This is part of the Gaussian(R) 16 program.  It is based on
 the Gaussian(R) 09 system (copyright 2009, Gaussian, Inc.),
 the Gaussian(R) 03 system (copyright 2003, Gaussian, Inc.),
 the Gaussian(R) 98 system (copyright 1998, Gaussian, Inc.),
 the Gaussian(R) 94 system (copyright 1995, Gaussian, Inc.),
 the Gaussian 92(TM) system (copyright 1992, Gaussian, Inc.),
 the Gaussian 90(TM) system (copyright 1990, Gaussian, Inc.),
 the Gaussian 88(TM) system (copyright 1988, Gaussian, Inc.),
 the Gaussian 86(TM) system (copyright 1986, Carnegie Mellon
 University), and the Gaussian 82(TM) system (copyright 1983,
 Carnegie Mellon University). Gaussian is a federally registered
 trademark of Gaussian, Inc.
  
 This software contains proprietary and confidential information,
 including trade secrets, belonging to Gaussian, Inc.
  
 This software is provided under written license and may be
 used, copied, transmitted, or stored only in accord with that
 written license.
  
 The following legend is applicable only to US Government
 contracts under FAR:
  
                    RESTRICTED RIGHTS LEGEND
  
 Use, reproduction and disclosure by the US Government is
 subject to restrictions as set forth in subparagraphs (a)
 and (c) of the Commercial Computer Software - Restricted
 Rights clause in FAR 52.227-19.
  
 Gaussian, Inc.
 340 Quinnipiac St., Bldg. 40, Wallingford CT 06492
  
  
 ---------------------------------------------------------------
 Warning -- This program may not be used in any manner that
 competes with the business of Gaussian, Inc. or will provide
 assistance to any competitor of Gaussian, Inc.  The licensee
 of this program is prohibited from giving any competitor of
 Gaussian, Inc. access to this program.  By using this program,
 the user acknowledges that Gaussian, Inc. is engaged in the
 business of creating and licensing software in the field of
 computational chemistry and represents and warrants to the
 licensee that it is not a competitor of Gaussian, Inc. and that
 it will not use this program in any manner prohibited above.
 ---------------------------------------------------------------
  

 Cite this work as:
 Gaussian 16, Revision C.01,
 M. J. Frisch, G. W. Trucks, H. B. Schlegel, G. E. Scuseria, 
 M. A. Robb, J. R. Cheeseman, G. Scalmani, V. Barone, 
 G. A. Petersson, H. Nakatsuji, X. Li, M. Caricato, A. V. Marenich, 
 J. Bloino, B. G. Janesko, R. Gomperts, B. Mennucci, H. P. Hratchian, 
 J. V. Ortiz, A. F. Izmaylov, J. L. Sonnenberg, D. Williams-Young, 
 F. Ding, F. Lipparini, F. Egidi, J. Goings, B. Peng, A. Petrone, 
 T. Henderson, D. Ranasinghe, V. G. Zakrzewski, J. Gao, N. Rega, 
 G. Zheng, W. Liang, M. Hada, M. Ehara, K. Toyota, R. Fukuda, 
 J. Hasegawa, M. Ishida, T. Nakajima, Y. Honda, O. Kitao, H. Nakai, 
 T. Vreven, K. Throssell, J. A. Montgomery, Jr., J. E. Peralta, 
 F. Ogliaro, M. J. Bearpark, J. J. Heyd, E. N. Brothers, K. N. Kudin, 
 V. N. Staroverov, T. A. Keith, R. Kobayashi, J. Normand, 
 K. Raghavachari, A. P. Rendell, J. C. Burant, S. S. Iyengar, 
 J. Tomasi, M. Cossi, J. M. Millam, M. Klene, C. Adamo, R. Cammi, 
 J. W. Ochterski, R. L. Martin, K. Morokuma, O. Farkas, 
 J. B. Foresman, and D. J. Fox, Gaussian, Inc., Wallingford CT, 2019.
 
 ******************************************
 Gaussian 16:  ES64L-G16RevC.01  3-Jul-2019
                 2-May-2024 
 ******************************************
 %chk=geometry.chk
 %mem=1GB
 %nprocshared=12
 Will use up to   12 processors via shared memory.
 ----------------------------------------
 #P wB97XD/6-311+G* NoSymm #P Field=Z+126
 ----------------------------------------
 1/38=1,172=1/1;
 2/12=2,15=1,17=6,18=5,40=1/2;
 3/5=4,6=6,7=11,11=2,14=3,15=126,25=1,30=1,74=-58/1,2,3;
 4//1;
 5/5=2,38=5/2;
 6/7=2,8=2,9=2,10=2,28=1/1;
 99/5=1,9=1/99;
 Leave Link    1 at Thu May  2 13:58:19 2024, MaxMem=   134217728 cpu:               2.3 elap:               2.3
 (Enter /software/gaussian/g16-c01/sse4/g16/l101.exe)
 -------
 TitleMe
 -------
 Symbolic Z-matrix:
 Charge =  1 Multiplicity = 1
 C                     0.5193    1.233    -0.0319 
 C                     1.9445    1.2692   -0.0367 
 C                     2.6204    0.0928   -0.025 
 C                    -0.196     0.0301    0.001 
 H                    -0.0207    2.1742   -0.0434 
 H                     2.4828    2.2089   -0.0361 
 H                    -1.2777    0.0399    0.0117 
 N                     4.0921    0.0959    0.0366 
 O                     4.6393   -1.0217    0.1446 
 O                     4.6649    1.1984   -0.0233 
 C                     0.4943   -1.1671    0.021 
 H                    -0.0325   -2.1149    0.0545 
 C                     1.9629   -1.2165   -0.0211 
 H                     2.4436   -1.9631    0.6151 
 Br                    2.173    -1.9491   -1.9062 
 
 ITRead=  0  0  0  0  0  0  0  0  0  0  0  0  0  0  0
 MicOpt= -1 -1 -1 -1 -1 -1 -1 -1 -1 -1 -1 -1 -1 -1 -1
 NAtoms=     15 NQM=       15 NQMF=       0 NMMI=      0 NMMIF=      0
                NMic=       0 NMicF=      0.
                    Isotopes and Nuclear Properties:
 (Nuclear quadrupole moments (NQMom) in fm**2, nuclear magnetic moments (NMagM)
  in nuclear magnetons)

  Atom         1           2           3           4           5           6           7           8           9          10
 IAtWgt=          12          12          12          12           1           1           1          14          16          16
 AtmWgt=  12.0000000  12.0000000  12.0000000  12.0000000   1.0078250   1.0078250   1.0078250  14.0030740  15.9949146  15.9949146
 NucSpn=           0           0           0           0           1           1           1           2           0           0
 AtZEff=  -0.0000000  -0.0000000  -0.0000000  -0.0000000  -0.0000000  -0.0000000  -0.0000000  -0.0000000  -0.0000000  -0.0000000
 NQMom=    0.0000000   0.0000000   0.0000000   0.0000000   0.0000000   0.0000000   0.0000000   2.0440000   0.0000000   0.0000000
 NMagM=    0.0000000   0.0000000   0.0000000   0.0000000   2.7928460   2.7928460   2.7928460   0.4037610   0.0000000   0.0000000
 AtZNuc=   6.0000000   6.0000000   6.0000000   6.0000000   1.0000000   1.0000000   1.0000000   7.0000000   8.0000000   8.0000000

  Atom        11          12          13          14          15
 IAtWgt=          12           1          12           1          79
 AtmWgt=  12.0000000   1.0078250  12.0000000   1.0078250  78.9183361
 NucSpn=           0           1           0           1           3
 AtZEff=  -0.0000000  -0.0000000  -0.0000000  -0.0000000  -0.0000000
 NQMom=    0.0000000   0.0000000   0.0000000   0.0000000  31.3000000
 NMagM=    0.0000000   2.7928460   0.0000000   2.7928460   2.1063990
 AtZNuc=   6.0000000   1.0000000   6.0000000   1.0000000  35.0000000
 Leave Link  101 at Thu May  2 13:58:21 2024, MaxMem=   134217728 cpu:               1.6 elap:               1.6
 (Enter /software/gaussian/g16-c01/sse4/g16/l202.exe)
                          Input orientation:                          
 ---------------------------------------------------------------------
 Center     Atomic      Atomic             Coordinates (Angstroms)
 Number     Number       Type             X           Y           Z
 ---------------------------------------------------------------------
      1          6           0        0.519300    1.233000   -0.031900
      2          6           0        1.944500    1.269200   -0.036700
      3          6           0        2.620400    0.092800   -0.025000
      4          6           0       -0.196000    0.030100    0.001000
      5          1           0       -0.020700    2.174200   -0.043400
      6          1           0        2.482800    2.208900   -0.036100
      7          1           0       -1.277700    0.039900    0.011700
      8          7           0        4.092100    0.095900    0.036600
      9          8           0        4.639300   -1.021700    0.144600
     10          8           0        4.664900    1.198400   -0.023300
     11          6           0        0.494300   -1.167100    0.021000
     12          1           0       -0.032500   -2.114900    0.054500
     13          6           0        1.962900   -1.216500   -0.021100
     14          1           0        2.443600   -1.963100    0.615100
     15         35           0        2.173000   -1.949100   -1.906200
 ---------------------------------------------------------------------
                    Distance matrix (angstroms):
                    1          2          3          4          5
     1  C    0.000000
     2  C    1.425668   0.000000
     3  C    2.390549   1.356796   0.000000
     4  C    1.399895   2.473566   2.817218   0.000000
     5  H    1.085168   2.163581   3.362733   2.151712   0.000000
     6  H    2.192654   1.082960   2.120598   3.453189   2.503751
     7  H    2.157452   3.449071   3.898632   1.081797   2.477564
     8  N    3.750012   2.448304   1.472992   4.288753   4.608780
     9  O    4.699917   3.541615   2.312322   4.950458   5.653735
    10  O    4.145753   2.721354   2.324292   4.999386   4.786171
    11  C    2.400813   2.835836   2.471794   1.382101   3.381369
    12  H    3.394169   3.920329   3.452266   2.151887   4.290233
    13  C    2.843264   2.485817   1.465124   2.493060   3.928360
    14  H    3.786370   3.334922   2.160489   3.364142   4.860416
    15  Br   4.046416   3.728900   2.812194   3.628609   5.028314
                    6          7          8          9         10
     6  H    0.000000
     7  H    4.341452   0.000000
     8  N    2.657047   5.370150   0.000000
     9  O    3.888434   6.012948   1.249048   0.000000
    10  O    2.404752   6.054572   1.243863   2.226587   0.000000
    11  C    3.918516   2.144043   3.813080   4.149391   4.794941
    12  H    5.003018   2.489080   4.679774   4.798846   5.748876
    13  C    3.464662   3.475788   2.501842   2.688591   3.623886
    14  H    4.222698   4.268978   2.700314   2.434893   3.916224
    15  Br   4.569706   4.420610   3.411663   3.338935   4.434144
                   11         12         13         14         15
    11  C    0.000000
    12  H    1.084880   0.000000
    13  C    1.470034   2.189625   0.000000
    14  H    2.187771   2.543302   1.092353   0.000000
    15  Br   2.672762   2.955683   2.033334   2.535818   0.000000
 Symmetry turned off by external request.
 Stoichiometry    C6H5BrNO2(1+)
 Framework group  C1[X(C6H5BrNO2)]
 Deg. of freedom    39
 Full point group                 C1      NOp   1
 Rotational constants (GHZ):           1.1632986           0.9594224           0.5957624
 Leave Link  202 at Thu May  2 13:58:22 2024, MaxMem=   134217728 cpu:               1.2 elap:               1.2
 (Enter /software/gaussian/g16-c01/sse4/g16/l301.exe)
 Standard basis: 6-311+G(d) (5D, 7F)
 Ernie: Thresh=  0.10000D-02 Tol=  0.10000D-05 Strict=F.
 The following finite field(s) will be applied:
 An electric field of              0.0000  0.0000  0.0126
   261 basis functions,   443 primitive gaussians,   273 cartesian basis functions
    49 alpha electrons       49 beta electrons
       nuclear repulsion energy       772.8945969580 Hartrees.
 IExCor= 4639 DFT=T Ex+Corr=wB97XD ExCW=0 ScaHFX=  1.000000
 ScaDFX=  1.000000  1.000000  1.000000  1.000000 ScalE2=  1.000000  1.000000
 IRadAn=      5 IRanWt=     -1 IRanGd=            0 ICorTp=0 IEmpDi=121
 HFx  wShort=  0.000000 wLong=  0.200000 cFull=  0.222036 cShort=  0.000000 cLong=  0.777964
 DFx  wShort=  0.000000 wLong=  0.200000 cFull=  0.000000 cShort=  0.000000 cLong=  1.000000
 NAtoms=   15 NActive=   15 NUniq=   15 SFac= 1.00D+00 NAtFMM=   60 NAOKFM=F Big=F
 Integral buffers will be    131072 words long.
 Raffenetti 2 integral format.
 Two-electron integral symmetry is turned off.
 R6Disp:  Grimme-D2 Dispersion energy=       -0.0080346408 Hartrees.
 Nuclear repulsion after empirical dispersion term =      772.8865623173 Hartrees.
 Leave Link  301 at Thu May  2 13:58:24 2024, MaxMem=   134217728 cpu:               1.0 elap:               1.0
 (Enter /software/gaussian/g16-c01/sse4/g16/l302.exe)
 NPDir=0 NMtPBC=     1 NCelOv=     1 NCel=       1 NClECP=     1 NCelD=      1
         NCelK=      1 NCelE2=     1 NClLst=     1 CellRange=     0.0.
 One-electron integrals computed using PRISM.
 NBasis=   261 RedAO= T EigKep=  2.52D-06  NBF=   261
 NBsUse=   261 1.00D-06 EigRej= -1.00D+00 NBFU=   261
 Precomputing XC quadrature grid using
 IXCGrd= 4 IRadAn=           5 IRanWt=          -1 IRanGd=           0 AccXCQ= 0.00D+00.
 Generated NRdTot=       0 NPtTot=           0 NUsed=           0 NTot=          32
 NSgBfM=   273   273   273   273   273 MxSgAt=    15 MxSgA2=    15.
 Leave Link  302 at Thu May  2 13:58:46 2024, MaxMem=   134217728 cpu:              21.8 elap:              21.8
 (Enter /software/gaussian/g16-c01/sse4/g16/l303.exe)
 DipDrv:  MaxL=1.
 The nuclear repulsion energy is now       771.3282856890 hartrees.
 Leave Link  303 at Thu May  2 13:58:49 2024, MaxMem=   134217728 cpu:               3.3 elap:               3.3
 (Enter /software/gaussian/g16-c01/sse4/g16/l401.exe)
 ExpMin= 3.50D-02 ExpMax= 4.40D+05 ExpMxC= 1.51D+04 IAcc=3 IRadAn=         5 AccDes= 0.00D+00
 Harris functional with IExCor= 4639 and IRadAn=       5 diagonalized for initial guess.
 HarFok:  IExCor= 4639 AccDes= 0.00D+00 IRadAn=         5 IDoV= 1 UseB2=F ITyADJ=14
 ICtDFT=  3500011 ScaDFX=  1.000000  1.000000  1.000000  1.000000
 FoFCou: FMM=F IPFlag=           0 FMFlag=      100000 FMFlg1=           0
         NFxFlg=           0 DoJE=T BraDBF=F KetDBF=T FulRan=T
         wScrn=  0.000000 ICntrl=       500 IOpCl=  0 I1Cent=   200000004 NGrid=           0
         NMat0=    1 NMatS0=      1 NMatT0=    0 NMatD0=    1 NMtDS0=    0 NMtDT0=    0
 Symmetry not used in FoFCou.
 Harris En= -2970.61273194196    
 JPrj=0 DoOrth=F DoCkMO=F.
 Leave Link  401 at Thu May  2 13:59:20 2024, MaxMem=   134217728 cpu:              31.3 elap:              31.3
 (Enter /software/gaussian/g16-c01/sse4/g16/l502.exe)
 Two-electron integral symmetry not used.
 Closed shell SCF:
 Using DIIS extrapolation, IDIIS=  1040.
 NGot=   134217728 LenX=   134063053 LenY=   133988083
 Requested convergence on RMS density matrix=1.00D-08 within 128 cycles.
 Requested convergence on MAX density matrix=1.00D-06.
 Requested convergence on             energy=1.00D-06.
 No special actions if energy rises.
 Fock matrices will be formed incrementally for  20 cycles.

 Cycle   1  Pass 1  IDiag  1:
 FoFJK:  IHMeth= 1 ICntrl=       0 DoSepK=T KAlg= 0 I1Cent=           0 FoldK=F
 IRaf=         1 NMat=       1 IRICut=       1 DoRegI=T DoRafI=F ISym2E= 0 IDoP0=0 IntGTp=1.
 FoFCou: FMM=F IPFlag=           0 FMFlag=      100000 FMFlg1=           0
         NFxFlg=           0 DoJE=T BraDBF=F KetDBF=F FulRan=T
         wScrn=  0.000000 ICntrl=       500 IOpCl=  0 I1Cent=           0 NGrid=           0
         NMat0=    1 NMatS0=      1 NMatT0=    0 NMatD0=    1 NMtDS0=    0 NMtDT0=    0
 Symmetry not used in FoFCou.
 E= -3009.68423867767    
 DIIS: error= 2.91D-01 at cycle   1 NSaved=   1.
 NSaved= 1 IEnMin= 1 EnMin= -3009.68423867767     IErMin= 1 ErrMin= 2.91D-01
 ErrMax= 2.91D-01  0.00D+00 EMaxC= 1.00D-01 BMatC= 1.20D+01 BMatP= 1.20D+01
 IDIUse=3 WtCom= 0.00D+00 WtEn= 1.00D+00
 Coeff-Com:  0.100D+01
 Coeff-En:   0.100D+01
 Coeff:      0.100D+01
 Gap=     0.317 Goal=   None    Shift=    0.000
 GapD=    0.317 DampG=1.000 DampE=0.250 DampFc=0.2500 IDamp=-1.
 Damping current iteration by 2.50D-01
 RMSDP=1.05D-01 MaxDP=1.27D+01              OVMax= 2.61D-01

 Cycle   2  Pass 1  IDiag  1:
 RMSU=  7.68D-03    CP:  8.61D-01
 E= -3009.98586037661     Delta-E=       -0.301621698936 Rises=F Damp=T
 DIIS: error= 2.19D-01 at cycle   2 NSaved=   2.
 NSaved= 2 IEnMin= 2 EnMin= -3009.98586037661     IErMin= 2 ErrMin= 2.19D-01
 ErrMax= 2.19D-01  0.00D+00 EMaxC= 1.00D-01 BMatC= 5.46D+00 BMatP= 1.20D+01
 IDIUse=3 WtCom= 0.00D+00 WtEn= 1.00D+00
 Coeff-Com: -0.181D+01 0.281D+01
 Coeff-En:   0.000D+00 0.100D+01
 Coeff:      0.000D+00 0.100D+01
 Gap=     0.268 Goal=   None    Shift=    0.000
 RMSDP=7.57D-02 MaxDP=9.60D+00 DE=-3.02D-01 OVMax= 7.64D-02

 Cycle   3  Pass 1  IDiag  1:
 RMSU=  4.95D-03    CP:  4.51D-01  3.00D+00
 E= -3010.37473789298     Delta-E=       -0.388877516369 Rises=F Damp=F
 DIIS: error= 6.67D-02 at cycle   3 NSaved=   3.
 NSaved= 3 IEnMin= 3 EnMin= -3010.37473789298     IErMin= 3 ErrMin= 6.67D-02
 ErrMax= 6.67D-02  0.00D+00 EMaxC= 1.00D-01 BMatC= 7.63D-01 BMatP= 5.46D+00
 IDIUse=3 WtCom= 3.33D-01 WtEn= 6.67D-01
 Coeff-Com:  0.258D+01-0.339D+01 0.180D+01
 Coeff-En:   0.543D-01 0.000D+00 0.946D+00
 Coeff:      0.897D+00-0.113D+01 0.123D+01
 Gap=     0.269 Goal=   None    Shift=    0.000
 RMSDP=1.79D-02 MaxDP=1.86D+00 DE=-3.89D-01 OVMax= 9.81D-02

 Cycle   4  Pass 1  IDiag  1:
 RMSU=  4.86D-03    CP:  5.32D-01  2.10D+00  1.89D+00
 E= -3010.49456125962     Delta-E=       -0.119823366640 Rises=F Damp=F
 DIIS: error= 3.68D-02 at cycle   4 NSaved=   4.
 NSaved= 4 IEnMin= 4 EnMin= -3010.49456125962     IErMin= 4 ErrMin= 3.68D-02
 ErrMax= 3.68D-02  0.00D+00 EMaxC= 1.00D-01 BMatC= 2.15D-01 BMatP= 7.63D-01
 IDIUse=3 WtCom= 6.32D-01 WtEn= 3.68D-01
 Coeff-Com: -0.130D+00 0.187D+00 0.285D+00 0.658D+00
 Coeff-En:   0.000D+00 0.000D+00 0.181D+00 0.819D+00
 Coeff:     -0.824D-01 0.118D+00 0.247D+00 0.717D+00
 Gap=     0.247 Goal=   None    Shift=    0.000
 RMSDP=1.12D-02 MaxDP=1.55D+00 DE=-1.20D-01 OVMax= 3.80D-02

 Cycle   5  Pass 1  IDiag  1:
 RMSU=  2.10D-03    CP:  4.74D-01  2.39D+00  1.83D+00  5.86D-01
 E= -3010.53867449635     Delta-E=       -0.044113236734 Rises=F Damp=F
 DIIS: error= 6.74D-03 at cycle   5 NSaved=   5.
 NSaved= 5 IEnMin= 5 EnMin= -3010.53867449635     IErMin= 5 ErrMin= 6.74D-03
 ErrMax= 6.74D-03  0.00D+00 EMaxC= 1.00D-01 BMatC= 8.44D-03 BMatP= 2.15D-01
 IDIUse=3 WtCom= 9.33D-01 WtEn= 6.74D-02
 Coeff-Com: -0.145D+00 0.198D+00 0.667D-01 0.378D+00 0.502D+00
 Coeff-En:   0.000D+00 0.000D+00 0.000D+00 0.000D+00 0.100D+01
 Coeff:     -0.135D+00 0.185D+00 0.622D-01 0.353D+00 0.536D+00
 Gap=     0.235 Goal=   None    Shift=    0.000
 RMSDP=2.44D-03 MaxDP=3.27D-01 DE=-4.41D-02 OVMax= 2.00D-02

 Cycle   6  Pass 1  IDiag  1:
 RMSU=  5.60D-04    CP:  4.86D-01  2.33D+00  1.86D+00  6.96D-01  7.04D-01
 E= -3010.54084739294     Delta-E=       -0.002172896589 Rises=F Damp=F
 DIIS: error= 2.61D-03 at cycle   6 NSaved=   6.
 NSaved= 6 IEnMin= 6 EnMin= -3010.54084739294     IErMin= 6 ErrMin= 2.61D-03
 ErrMax= 2.61D-03  0.00D+00 EMaxC= 1.00D-01 BMatC= 5.21D-04 BMatP= 8.44D-03
 IDIUse=3 WtCom= 9.74D-01 WtEn= 2.61D-02
 Coeff-Com: -0.105D+00 0.142D+00-0.321D-02 0.178D+00 0.359D+00 0.430D+00
 Coeff-En:   0.000D+00 0.000D+00 0.000D+00 0.000D+00 0.628D-01 0.937D+00
 Coeff:     -0.102D+00 0.138D+00-0.313D-02 0.173D+00 0.352D+00 0.443D+00
 Gap=     0.235 Goal=   None    Shift=    0.000
 RMSDP=8.17D-04 MaxDP=1.05D-01 DE=-2.17D-03 OVMax= 8.71D-03

 Cycle   7  Pass 1  IDiag  1:
 RMSU=  2.52D-04    CP:  4.82D-01  2.35D+00  1.88D+00  6.83D-01  8.56D-01
                    CP:  7.47D-01
 E= -3010.54122086662     Delta-E=       -0.000373473678 Rises=F Damp=F
 DIIS: error= 4.34D-04 at cycle   7 NSaved=   7.
 NSaved= 7 IEnMin= 7 EnMin= -3010.54122086662     IErMin= 7 ErrMin= 4.34D-04
 ErrMax= 4.34D-04  0.00D+00 EMaxC= 1.00D-01 BMatC= 2.12D-05 BMatP= 5.21D-04
 IDIUse=3 WtCom= 9.96D-01 WtEn= 4.34D-03
 Coeff-Com: -0.393D-01 0.524D-01-0.130D-01 0.398D-01 0.910D-01 0.196D+00
 Coeff-Com:  0.674D+00
 Coeff-En:   0.000D+00 0.000D+00 0.000D+00 0.000D+00 0.000D+00 0.000D+00
 Coeff-En:   0.100D+01
 Coeff:     -0.391D-01 0.522D-01-0.130D-01 0.396D-01 0.906D-01 0.195D+00
 Coeff:      0.675D+00
 Gap=     0.236 Goal=   None    Shift=    0.000
 RMSDP=2.17D-04 MaxDP=2.92D-02 DE=-3.73D-04 OVMax= 2.13D-03

 Cycle   8  Pass 1  IDiag  1:
 RMSU=  7.90D-05    CP:  4.81D-01  2.35D+00  1.89D+00  6.87D-01  8.88D-01
                    CP:  7.48D-01  9.72D-01
 E= -3010.54124474877     Delta-E=       -0.000023882148 Rises=F Damp=F
 DIIS: error= 1.36D-04 at cycle   8 NSaved=   8.
 NSaved= 8 IEnMin= 8 EnMin= -3010.54124474877     IErMin= 8 ErrMin= 1.36D-04
 ErrMax= 1.36D-04  0.00D+00 EMaxC= 1.00D-01 BMatC= 3.18D-06 BMatP= 2.12D-05
 IDIUse=3 WtCom= 9.99D-01 WtEn= 1.36D-03
 Coeff-Com:  0.363D-02-0.510D-02-0.414D-02-0.145D-01-0.337D-01-0.261D-01
 Coeff-Com:  0.203D+00 0.877D+00
 Coeff-En:   0.000D+00 0.000D+00 0.000D+00 0.000D+00 0.000D+00 0.000D+00
 Coeff-En:   0.000D+00 0.100D+01
 Coeff:      0.362D-02-0.509D-02-0.413D-02-0.145D-01-0.337D-01-0.261D-01
 Coeff:      0.203D+00 0.877D+00
 Gap=     0.236 Goal=   None    Shift=    0.000
 RMSDP=9.50D-05 MaxDP=9.08D-03 DE=-2.39D-05 OVMax= 1.45D-03

 Cycle   9  Pass 1  IDiag  1:
 RMSU=  2.98D-05    CP:  4.81D-01  2.35D+00  1.89D+00  6.92D-01  9.10D-01
                    CP:  7.66D-01  1.21D+00  1.28D+00
 E= -3010.54125195788     Delta-E=       -0.000007209109 Rises=F Damp=F
 DIIS: error= 2.35D-05 at cycle   9 NSaved=   9.
 NSaved= 9 IEnMin= 9 EnMin= -3010.54125195788     IErMin= 9 ErrMin= 2.35D-05
 ErrMax= 2.35D-05  0.00D+00 EMaxC= 1.00D-01 BMatC= 3.14D-07 BMatP= 3.18D-06
 IDIUse=1 WtCom= 1.00D+00 WtEn= 0.00D+00
 Coeff-Com:  0.689D-02-0.927D-02 0.799D-03-0.102D-01-0.218D-01-0.353D-01
 Coeff-Com: -0.585D-01 0.205D+00 0.923D+00
 Coeff:      0.689D-02-0.927D-02 0.799D-03-0.102D-01-0.218D-01-0.353D-01
 Coeff:     -0.585D-01 0.205D+00 0.923D+00
 Gap=     0.236 Goal=   None    Shift=    0.000
 RMSDP=8.35D-05 MaxDP=1.08D-02 DE=-7.21D-06 OVMax= 1.14D-03

 Cycle  10  Pass 1  IDiag  1:
 RMSU=  1.73D-05    CP:  4.81D-01  2.35D+00  1.90D+00  6.91D-01  9.23D-01
                    CP:  7.61D-01  1.29D+00  1.55D+00  1.19D+00
 E= -3010.54125379074     Delta-E=       -0.000001832859 Rises=F Damp=F
 DIIS: error= 1.62D-05 at cycle  10 NSaved=  10.
 NSaved=10 IEnMin=10 EnMin= -3010.54125379074     IErMin=10 ErrMin= 1.62D-05
 ErrMax= 1.62D-05  0.00D+00 EMaxC= 1.00D-01 BMatC= 9.85D-08 BMatP= 3.14D-07
 IDIUse=1 WtCom= 1.00D+00 WtEn= 0.00D+00
 Coeff-Com: -0.199D-04 0.626D-04 0.458D-03 0.559D-03 0.315D-02 0.298D-02
 Coeff-Com: -0.415D-01-0.117D+00 0.213D+00 0.937D+00
 Coeff:     -0.199D-04 0.626D-04 0.458D-03 0.559D-03 0.315D-02 0.298D-02
 Coeff:     -0.415D-01-0.117D+00 0.213D+00 0.937D+00
 Gap=     0.236 Goal=   None    Shift=    0.000
 RMSDP=1.55D-05 MaxDP=7.41D-04 DE=-1.83D-06 OVMax= 6.79D-04

 Cycle  11  Pass 1  IDiag  1:
 RMSU=  9.13D-06    CP:  4.81D-01  2.35D+00  1.89D+00  6.91D-01  9.25D-01
                    CP:  7.63D-01  1.29D+00  1.62D+00  1.35D+00  1.47D+00
 E= -3010.54125431270     Delta-E=       -0.000000521964 Rises=F Damp=F
 DIIS: error= 8.11D-06 at cycle  11 NSaved=  11.
 NSaved=11 IEnMin=11 EnMin= -3010.54125431270     IErMin=11 ErrMin= 8.11D-06
 ErrMax= 8.11D-06  0.00D+00 EMaxC= 1.00D-01 BMatC= 1.77D-08 BMatP= 9.85D-08
 IDIUse=1 WtCom= 1.00D+00 WtEn= 0.00D+00
 Coeff-Com: -0.916D-03 0.123D-02-0.960D-05 0.172D-02 0.388D-02 0.691D-02
 Coeff-Com:  0.155D-01-0.425D-01-0.217D+00 0.356D-01 0.120D+01
 Coeff:     -0.916D-03 0.123D-02-0.960D-05 0.172D-02 0.388D-02 0.691D-02
 Coeff:      0.155D-01-0.425D-01-0.217D+00 0.356D-01 0.120D+01
 Gap=     0.236 Goal=   None    Shift=    0.000
 RMSDP=1.42D-05 MaxDP=9.68D-04 DE=-5.22D-07 OVMax= 5.06D-04

 Cycle  12  Pass 1  IDiag  1:
 RMSU=  2.74D-06    CP:  4.81D-01  2.35D+00  1.90D+00  6.90D-01  9.26D-01
                    CP:  7.63D-01  1.30D+00  1.67D+00  1.43D+00  1.96D+00
                    CP:  1.52D+00
 E= -3010.54125449415     Delta-E=       -0.000000181446 Rises=F Damp=F
 DIIS: error= 4.76D-06 at cycle  12 NSaved=  12.
 NSaved=12 IEnMin=12 EnMin= -3010.54125449415     IErMin=12 ErrMin= 4.76D-06
 ErrMax= 4.76D-06  0.00D+00 EMaxC= 1.00D-01 BMatC= 7.38D-09 BMatP= 1.77D-08
 IDIUse=1 WtCom= 1.00D+00 WtEn= 0.00D+00
 Coeff-Com: -0.439D-03 0.581D-03-0.958D-04 0.741D-03 0.891D-03 0.222D-02
 Coeff-Com:  0.192D-01 0.561D-02-0.170D+00-0.210D+00 0.604D+00 0.748D+00
 Coeff:     -0.439D-03 0.581D-03-0.958D-04 0.741D-03 0.891D-03 0.222D-02
 Coeff:      0.192D-01 0.561D-02-0.170D+00-0.210D+00 0.604D+00 0.748D+00
 Gap=     0.236 Goal=   None    Shift=    0.000
 RMSDP=6.65D-06 MaxDP=4.07D-04 DE=-1.81D-07 OVMax= 2.26D-04

 Cycle  13  Pass 1  IDiag  1:
 RMSU=  1.56D-06    CP:  4.81D-01  2.35D+00  1.90D+00  6.90D-01  9.28D-01
                    CP:  7.65D-01  1.31D+00  1.67D+00  1.46D+00  2.14D+00
                    CP:  1.75D+00  1.53D+00
 E= -3010.54125452726     Delta-E=       -0.000000033109 Rises=F Damp=F
 DIIS: error= 1.61D-06 at cycle  13 NSaved=  13.
 NSaved=13 IEnMin=13 EnMin= -3010.54125452726     IErMin=13 ErrMin= 1.61D-06
 ErrMax= 1.61D-06  0.00D+00 EMaxC= 1.00D-01 BMatC= 9.15D-10 BMatP= 7.38D-09
 IDIUse=1 WtCom= 1.00D+00 WtEn= 0.00D+00
 Coeff-Com: -0.132D-04 0.174D-04-0.343D-04-0.155D-03-0.751D-03-0.153D-02
 Coeff-Com: -0.223D-02 0.466D-02 0.385D-01-0.503D-02-0.219D+00 0.749D-01
 Coeff-Com:  0.111D+01
 Coeff:     -0.132D-04 0.174D-04-0.343D-04-0.155D-03-0.751D-03-0.153D-02
 Coeff:     -0.223D-02 0.466D-02 0.385D-01-0.503D-02-0.219D+00 0.749D-01
 Coeff:      0.111D+01
 Gap=     0.236 Goal=   None    Shift=    0.000
 RMSDP=4.57D-06 MaxDP=4.04D-04 DE=-3.31D-08 OVMax= 7.54D-05

 Cycle  14  Pass 1  IDiag  1:
 RMSU=  5.54D-07    CP:  4.81D-01  2.35D+00  1.90D+00  6.90D-01  9.28D-01
                    CP:  7.67D-01  1.31D+00  1.67D+00  1.47D+00  2.20D+00
                    CP:  1.77D+00  2.03D+00  1.60D+00
 E= -3010.54125453126     Delta-E=       -0.000000004002 Rises=F Damp=F
 DIIS: error= 4.83D-07 at cycle  14 NSaved=  14.
 NSaved=14 IEnMin=14 EnMin= -3010.54125453126     IErMin=14 ErrMin= 4.83D-07
 ErrMax= 4.83D-07  0.00D+00 EMaxC= 1.00D-01 BMatC= 1.03D-10 BMatP= 9.15D-10
 IDIUse=1 WtCom= 1.00D+00 WtEn= 0.00D+00
 Coeff-Com:  0.188D-04-0.246D-04-0.761D-05-0.110D-03-0.282D-03-0.664D-03
 Coeff-Com: -0.264D-02 0.177D-03 0.321D-01 0.247D-01-0.146D+00-0.608D-01
 Coeff-Com:  0.348D+00 0.806D+00
 Coeff:      0.188D-04-0.246D-04-0.761D-05-0.110D-03-0.282D-03-0.664D-03
 Coeff:     -0.264D-02 0.177D-03 0.321D-01 0.247D-01-0.146D+00-0.608D-01
 Coeff:      0.348D+00 0.806D+00
 Gap=     0.236 Goal=   None    Shift=    0.000
 RMSDP=1.56D-06 MaxDP=1.49D-04 DE=-4.00D-09 OVMax= 1.76D-05

 Cycle  15  Pass 1  IDiag  1:
 RMSU=  2.10D-07    CP:  4.81D-01  2.35D+00  1.90D+00  6.90D-01  9.28D-01
                    CP:  7.67D-01  1.32D+00  1.67D+00  1.47D+00  2.21D+00
                    CP:  1.77D+00  2.18D+00  1.81D+00  1.30D+00
 E= -3010.54125453167     Delta-E=       -0.000000000414 Rises=F Damp=F
 DIIS: error= 2.68D-07 at cycle  15 NSaved=  15.
 NSaved=15 IEnMin=15 EnMin= -3010.54125453167     IErMin=15 ErrMin= 2.68D-07
 ErrMax= 2.68D-07  0.00D+00 EMaxC= 1.00D-01 BMatC= 1.87D-11 BMatP= 1.03D-10
 IDIUse=1 WtCom= 1.00D+00 WtEn= 0.00D+00
 Coeff-Com:  0.367D-05-0.481D-05 0.299D-05 0.784D-05 0.927D-04 0.147D-03
 Coeff-Com:  0.588D-04-0.850D-03-0.438D-03 0.663D-02 0.516D-02-0.257D-01
 Coeff-Com: -0.122D+00 0.224D+00 0.913D+00
 Coeff:      0.367D-05-0.481D-05 0.299D-05 0.784D-05 0.927D-04 0.147D-03
 Coeff:      0.588D-04-0.850D-03-0.438D-03 0.663D-02 0.516D-02-0.257D-01
 Coeff:     -0.122D+00 0.224D+00 0.913D+00
 Gap=     0.236 Goal=   None    Shift=    0.000
 RMSDP=6.38D-07 MaxDP=6.35D-05 DE=-4.14D-10 OVMax= 8.01D-06

 Cycle  16  Pass 1  IDiag  1:
 RMSU=  6.26D-08    CP:  4.81D-01  2.35D+00  1.90D+00  6.90D-01  9.29D-01
                    CP:  7.68D-01  1.32D+00  1.67D+00  1.47D+00  2.21D+00
                    CP:  1.76D+00  2.24D+00  1.91D+00  1.51D+00  1.31D+00
 E= -3010.54125453175     Delta-E=       -0.000000000076 Rises=F Damp=F
 DIIS: error= 8.83D-08 at cycle  16 NSaved=  16.
 NSaved=16 IEnMin=16 EnMin= -3010.54125453175     IErMin=16 ErrMin= 8.83D-08
 ErrMax= 8.83D-08  0.00D+00 EMaxC= 1.00D-01 BMatC= 2.21D-12 BMatP= 1.87D-11
 IDIUse=1 WtCom= 1.00D+00 WtEn= 0.00D+00
 Coeff-Com: -0.708D-05 0.944D-05 0.130D-06 0.193D-04 0.461D-04 0.888D-04
 Coeff-Com:  0.365D-03-0.185D-03-0.428D-02-0.141D-02 0.180D-01 0.461D-02
 Coeff-Com: -0.491D-01-0.956D-01 0.397D-01 0.109D+01
 Coeff:     -0.708D-05 0.944D-05 0.130D-06 0.193D-04 0.461D-04 0.888D-04
 Coeff:      0.365D-03-0.185D-03-0.428D-02-0.141D-02 0.180D-01 0.461D-02
 Coeff:     -0.491D-01-0.956D-01 0.397D-01 0.109D+01
 Gap=     0.236 Goal=   None    Shift=    0.000
 RMSDP=2.28D-07 MaxDP=2.30D-05 DE=-7.64D-11 OVMax= 3.88D-06

 Cycle  17  Pass 1  IDiag  1:
 RMSU=  2.95D-08    CP:  4.81D-01  2.35D+00  1.90D+00  6.90D-01  9.29D-01
                    CP:  7.68D-01  1.32D+00  1.67D+00  1.47D+00  2.22D+00
                    CP:  1.76D+00  2.26D+00  1.94D+00  1.57D+00  1.51D+00
                    CP:  1.46D+00
 E= -3010.54125453179     Delta-E=       -0.000000000044 Rises=F Damp=F
 DIIS: error= 4.88D-08 at cycle  17 NSaved=  17.
 NSaved=17 IEnMin=17 EnMin= -3010.54125453179     IErMin=17 ErrMin= 4.88D-08
 ErrMax= 4.88D-08  0.00D+00 EMaxC= 1.00D-01 BMatC= 4.13D-13 BMatP= 2.21D-12
 IDIUse=1 WtCom= 1.00D+00 WtEn= 0.00D+00
 Coeff-Com: -0.412D-05 0.551D-05-0.107D-05 0.249D-05-0.110D-04-0.218D-04
 Coeff-Com:  0.128D-04 0.147D-03-0.212D-03-0.967D-03-0.117D-03 0.404D-02
 Coeff-Com:  0.188D-01-0.401D-01-0.143D+00-0.146D-01 0.118D+01
 Coeff:     -0.412D-05 0.551D-05-0.107D-05 0.249D-05-0.110D-04-0.218D-04
 Coeff:      0.128D-04 0.147D-03-0.212D-03-0.967D-03-0.117D-03 0.404D-02
 Coeff:      0.188D-01-0.401D-01-0.143D+00-0.146D-01 0.118D+01
 Gap=     0.236 Goal=   None    Shift=    0.000
 RMSDP=5.81D-08 MaxDP=4.04D-06 DE=-4.41D-11 OVMax= 2.18D-06

 Cycle  18  Pass 1  IDiag  1:
 RMSU=  1.72D-08    CP:  4.81D-01  2.35D+00  1.90D+00  6.90D-01  9.29D-01
                    CP:  7.68D-01  1.32D+00  1.67D+00  1.47D+00  2.22D+00
                    CP:  1.76D+00  2.26D+00  1.94D+00  1.57D+00  1.54D+00
                    CP:  1.85D+00  1.68D+00
 E= -3010.54125453179     Delta-E=        0.000000000007 Rises=F Damp=F
 DIIS: error= 1.99D-08 at cycle  18 NSaved=  18.
 NSaved=18 IEnMin=17 EnMin= -3010.54125453179     IErMin=18 ErrMin= 1.99D-08
 ErrMax= 1.99D-08  0.00D+00 EMaxC= 1.00D-01 BMatC= 1.06D-13 BMatP= 4.13D-13
 IDIUse=1 WtCom= 1.00D+00 WtEn= 0.00D+00
 Coeff-Com:  0.240D-07-0.301D-07-0.360D-06-0.290D-05-0.142D-04-0.274D-04
 Coeff-Com: -0.577D-04 0.104D-03 0.626D-03-0.137D-03-0.309D-02 0.593D-03
 Coeff-Com:  0.156D-01 0.442D-02-0.502D-01-0.200D+00 0.379D+00 0.853D+00
 Coeff:      0.240D-07-0.301D-07-0.360D-06-0.290D-05-0.142D-04-0.274D-04
 Coeff:     -0.577D-04 0.104D-03 0.626D-03-0.137D-03-0.309D-02 0.593D-03
 Coeff:      0.156D-01 0.442D-02-0.502D-01-0.200D+00 0.379D+00 0.853D+00
 Gap=     0.236 Goal=   None    Shift=    0.000
 RMSDP=3.28D-08 MaxDP=3.67D-06 DE= 6.82D-12 OVMax= 9.32D-07

 Cycle  19  Pass 1  IDiag  1:
 RMSU=  5.12D-09    CP:  4.81D-01  2.35D+00  1.90D+00  6.90D-01  9.29D-01
                    CP:  7.68D-01  1.32D+00  1.67D+00  1.47D+00  2.22D+00
                    CP:  1.76D+00  2.26D+00  1.95D+00  1.56D+00  1.53D+00
                    CP:  1.97D+00  2.06D+00  1.46D+00
 E= -3010.54125453178     Delta-E=        0.000000000008 Rises=F Damp=F
 DIIS: error= 8.32D-09 at cycle  19 NSaved=  19.
 NSaved=19 IEnMin=17 EnMin= -3010.54125453179     IErMin=19 ErrMin= 8.32D-09
 ErrMax= 8.32D-09  0.00D+00 EMaxC= 1.00D-01 BMatC= 2.61D-14 BMatP= 1.06D-13
 IDIUse=1 WtCom= 1.00D+00 WtEn= 0.00D+00
 Coeff-Com:  0.122D-06-0.161D-06 0.770D-07 0.331D-06 0.387D-05 0.700D-05
 Coeff-Com: -0.103D-05-0.439D-04 0.355D-04 0.249D-03 0.396D-04-0.108D-02
 Coeff-Com: -0.482D-02 0.104D-01 0.351D-01-0.202D-01-0.309D+00 0.112D+00
 Coeff-Com:  0.118D+01
 Coeff:      0.122D-06-0.161D-06 0.770D-07 0.331D-06 0.387D-05 0.700D-05
 Coeff:     -0.103D-05-0.439D-04 0.355D-04 0.249D-03 0.396D-04-0.108D-02
 Coeff:     -0.482D-02 0.104D-01 0.351D-01-0.202D-01-0.309D+00 0.112D+00
 Coeff:      0.118D+01
 Gap=     0.236 Goal=   None    Shift=    0.000
 RMSDP=2.95D-08 MaxDP=2.21D-06 DE= 8.19D-12 OVMax= 7.29D-07

 Cycle  20  Pass 1  IDiag  1:
 RMSU=  3.08D-09    CP:  4.81D-01  2.35D+00  1.90D+00  6.90D-01  9.29D-01
                    CP:  7.68D-01  1.32D+00  1.67D+00  1.47D+00  2.22D+00
                    CP:  1.76D+00  2.26D+00  1.95D+00  1.56D+00  1.52D+00
                    CP:  2.05D+00  2.34D+00  2.03D+00  1.62D+00
 E= -3010.54125453180     Delta-E=       -0.000000000023 Rises=F Damp=F
 DIIS: error= 2.28D-09 at cycle  20 NSaved=  20.
 NSaved=20 IEnMin=20 EnMin= -3010.54125453180     IErMin=20 ErrMin= 2.28D-09
 ErrMax= 2.28D-09  0.00D+00 EMaxC= 1.00D-01 BMatC= 3.31D-15 BMatP= 2.61D-14
 IDIUse=1 WtCom= 1.00D+00 WtEn= 0.00D+00
 Large coefficients: NSaved= 20 BigCof=    0.00 CofMax=   10.00 Det=-7.29D-15
 Inversion failed.  Reducing to 19 matrices.
 Large coefficients: NSaved= 19 BigCof=    0.00 CofMax=   10.00 Det=-7.29D-15
 Inversion failed.  Reducing to 18 matrices.
 Large coefficients: NSaved= 18 BigCof=    0.00 CofMax=   10.00 Det=-7.32D-15
 Inversion failed.  Reducing to 17 matrices.
 Large coefficients: NSaved= 17 BigCof=    0.00 CofMax=   10.00 Det=-7.35D-15
 Inversion failed.  Reducing to 16 matrices.
 Large coefficients: NSaved= 16 BigCof=    0.00 CofMax=   10.00 Det=-7.94D-15
 Inversion failed.  Reducing to 15 matrices.
 Coeff-Com:  0.498D-06 0.244D-05-0.471D-06-0.960D-05-0.501D-05 0.294D-04
 Coeff-Com: -0.217D-05-0.639D-03 0.784D-03 0.550D-02 0.149D-01-0.598D-01
 Coeff-Com: -0.534D-01 0.152D+00 0.940D+00
 Coeff:      0.498D-06 0.244D-05-0.471D-06-0.960D-05-0.501D-05 0.294D-04
 Coeff:     -0.217D-05-0.639D-03 0.784D-03 0.550D-02 0.149D-01-0.598D-01
 Coeff:     -0.534D-01 0.152D+00 0.940D+00
 Gap=     0.236 Goal=   None    Shift=    0.000
 RMSDP=5.67D-09 MaxDP=5.09D-07 DE=-2.27D-11 OVMax= 1.32D-07

 SCF Done:  E(RwB97XD) =  -3010.54125453     A.U. after   20 cycles
            NFock= 20  Conv=0.57D-08     -V/T= 2.0016
 KE= 3.005829922268D+03 PE=-8.697478619552D+03 EE= 1.909779157064D+03
 Leave Link  502 at Thu May  2 14:19:41 2024, MaxMem=   134217728 cpu:            1220.4 elap:            1220.8
 (Enter /software/gaussian/g16-c01/sse4/g16/l601.exe)
 Copying SCF densities to generalized density rwf, IOpCl= 0 IROHF=0.

 **********************************************************************

            Population analysis using the SCF Density.

 **********************************************************************

 Alpha  occ. eigenvalues -- -483.29087 -62.84072 -56.63805 -56.63186 -56.63168
 Alpha  occ. eigenvalues --  -19.45893 -19.45889 -14.85284 -10.58417 -10.56803
 Alpha  occ. eigenvalues --  -10.56448 -10.55974 -10.52607 -10.52008  -8.99850
 Alpha  occ. eigenvalues --   -6.82634  -6.80612  -6.80558  -2.92512  -2.91988
 Alpha  occ. eigenvalues --   -2.91945  -2.90328  -2.90327  -1.49569  -1.32540
 Alpha  occ. eigenvalues --   -1.21510  -1.12023  -1.11335  -1.03282  -0.99298
 Alpha  occ. eigenvalues --   -0.94443  -0.89798  -0.84419  -0.80335  -0.79597
 Alpha  occ. eigenvalues --   -0.79434  -0.77190  -0.75730  -0.74788  -0.70833
 Alpha  occ. eigenvalues --   -0.67707  -0.66765  -0.62032  -0.58642  -0.57041
 Alpha  occ. eigenvalues --   -0.56273  -0.55581  -0.53686  -0.52613
 Alpha virt. eigenvalues --   -0.29003  -0.19852  -0.14213  -0.12445  -0.10103
 Alpha virt. eigenvalues --   -0.07259  -0.06969  -0.05467  -0.03616  -0.03247
 Alpha virt. eigenvalues --   -0.02042  -0.00936   0.00151   0.00556   0.01402
 Alpha virt. eigenvalues --    0.01952   0.02930   0.04318   0.04667   0.04902
 Alpha virt. eigenvalues --    0.05635   0.06155   0.06521   0.07400   0.07855
 Alpha virt. eigenvalues --    0.08387   0.08559   0.09364   0.09837   0.10014
 Alpha virt. eigenvalues --    0.10823   0.11649   0.12355   0.13114   0.13170
 Alpha virt. eigenvalues --    0.13450   0.14086   0.15329   0.15819   0.16091
 Alpha virt. eigenvalues --    0.17131   0.17600   0.18331   0.19035   0.19309
 Alpha virt. eigenvalues --    0.21164   0.21488   0.22128   0.22879   0.25198
 Alpha virt. eigenvalues --    0.25456   0.26287   0.29057   0.30776   0.33121
 Alpha virt. eigenvalues --    0.33869   0.34817   0.35525   0.35883   0.37572
 Alpha virt. eigenvalues --    0.38497   0.39347   0.40168   0.41486   0.42958
 Alpha virt. eigenvalues --    0.44353   0.44778   0.46305   0.47856   0.48025
 Alpha virt. eigenvalues --    0.49493   0.51267   0.52083   0.53661   0.54312
 Alpha virt. eigenvalues --    0.55914   0.56859   0.58793   0.59008   0.61003
 Alpha virt. eigenvalues --    0.62131   0.63239   0.65852   0.68960   0.69401
 Alpha virt. eigenvalues --    0.72086   0.72430   0.73540   0.74954   0.75592
 Alpha virt. eigenvalues --    0.75949   0.77949   0.80265   0.85107   0.86508
 Alpha virt. eigenvalues --    0.87928   0.88736   0.92153   0.95231   0.99351
 Alpha virt. eigenvalues --    1.00938   1.03477   1.04656   1.06499   1.07633
 Alpha virt. eigenvalues --    1.09517   1.12974   1.13825   1.14619   1.18589
 Alpha virt. eigenvalues --    1.21435   1.23338   1.28881   1.34309   1.37097
 Alpha virt. eigenvalues --    1.37749   1.39825   1.44321   1.55864   1.57448
 Alpha virt. eigenvalues --    1.57974   1.60503   1.62040   1.64726   1.66782
 Alpha virt. eigenvalues --    1.68797   1.72399   1.74489   1.76098   1.80363
 Alpha virt. eigenvalues --    1.84769   1.86179   1.88105   1.97417   1.97876
 Alpha virt. eigenvalues --    1.98915   2.03623   2.04150   2.08212   2.10271
 Alpha virt. eigenvalues --    2.14142   2.15713   2.23103   2.24315   2.28160
 Alpha virt. eigenvalues --    2.34338   2.40523   2.42143   2.45051   2.54145
 Alpha virt. eigenvalues --    2.58840   2.63970   2.66837   2.69583   2.72070
 Alpha virt. eigenvalues --    2.74239   2.76815   2.78141   2.81085   2.83031
 Alpha virt. eigenvalues --    2.94231   2.98863   3.02088   3.06753   3.09893
 Alpha virt. eigenvalues --    3.15698   3.17183   3.18347   3.22967   3.26963
 Alpha virt. eigenvalues --    3.28550   3.38534   3.47499   3.50877   3.55178
 Alpha virt. eigenvalues --    3.58327   3.69267   3.74605   3.84580   3.88313
 Alpha virt. eigenvalues --    4.12392   4.13286   4.21600   4.25815   4.44810
 Alpha virt. eigenvalues --    4.46232   4.55598   4.60399   4.93885   4.96670
 Alpha virt. eigenvalues --    5.05585   5.10016   5.62364   6.15469   6.70363
 Alpha virt. eigenvalues --    7.51356   7.53629   7.63642  23.23152  23.62218
 Alpha virt. eigenvalues --   23.73153  23.79061  23.96591  24.03030  35.31881
 Alpha virt. eigenvalues --   47.96309  49.85565  49.94227 289.83913 289.86248
 Alpha virt. eigenvalues --  289.988431020.97435
          Condensed to atoms (all electrons):
               1          2          3          4          5          6
     1  C    7.763336  -1.927771   0.523546   0.043494   0.294707   0.058764
     2  C   -1.927771  18.687942  -3.118440   0.387492  -0.003165   0.196311
     3  C    0.523546  -3.118440  21.027843  -1.379199   0.007783   0.111851
     4  C    0.043494   0.387492  -1.379199   6.422319   0.028595  -0.014000
     5  H    0.294707  -0.003165   0.007783   0.028595   0.333205  -0.001724
     6  H    0.058764   0.196311   0.111851  -0.014000  -0.001724   0.313725
     7  H    0.024482  -0.027480   0.016391   0.309386  -0.002654  -0.000000
     8  N   -0.105379  -0.405579  -2.262803   0.025405  -0.000137  -0.031137
     9  O    0.014003   0.495257   0.251842  -0.019602  -0.000028  -0.002568
    10  O    0.251965  -0.183978  -0.324117  -0.014565  -0.000016   0.021281
    11  C    0.793000  -0.296159   2.674079  -0.344965  -0.029077   0.008662
    12  H   -0.015780   0.024930   0.000089   0.026498   0.000050  -0.000021
    13  C   -1.585746  -7.796791 -11.290829   0.889323   0.028214  -0.009491
    14  H    0.004962   0.021084   0.076938  -0.005696  -0.000053   0.000099
    15  Br   0.005472  -0.278120  -0.267438  -0.021381   0.000416  -0.000622
               7          8          9         10         11         12
     1  C    0.024482  -0.105379   0.014003   0.251965   0.793000  -0.015780
     2  C   -0.027480  -0.405579   0.495257  -0.183978  -0.296159   0.024930
     3  C    0.016391  -2.262803   0.251842  -0.324117   2.674079   0.000089
     4  C    0.309386   0.025405  -0.019602  -0.014565  -0.344965   0.026498
     5  H   -0.002654  -0.000137  -0.000028  -0.000016  -0.029077   0.000050
     6  H   -0.000000  -0.031137  -0.002568   0.021281   0.008662  -0.000021
     7  H    0.341097   0.000095  -0.000012   0.000009   0.020387  -0.002298
     8  N    0.000095   7.823953  -0.062699   0.241944  -0.342481   0.000717
     9  O   -0.000012  -0.062699   7.981218  -0.011163   0.278360   0.000149
    10  O    0.000009   0.241944  -0.011163   7.805249  -0.015103  -0.000040
    11  C    0.020387  -0.342481   0.278360  -0.015103   8.216761   0.296099
    12  H   -0.002298   0.000717   0.000149  -0.000040   0.296099   0.329775
    13  C   -0.007117   2.233456  -0.964977   0.151767  -5.100630  -0.009521
    14  H   -0.000042  -0.045894   0.020004  -0.001693   0.054170  -0.006599
    15  Br  -0.000180   0.197733  -0.067989   0.008921   0.021256   0.002785
              13         14         15
     1  C   -1.585746   0.004962   0.005472
     2  C   -7.796791   0.021084  -0.278120
     3  C  -11.290829   0.076938  -0.267438
     4  C    0.889323  -0.005696  -0.021381
     5  H    0.028214  -0.000053   0.000416
     6  H   -0.009491   0.000099  -0.000622
     7  H   -0.007117  -0.000042  -0.000180
     8  N    2.233456  -0.045894   0.197733
     9  O   -0.964977   0.020004  -0.067989
    10  O    0.151767  -0.001693   0.008921
    11  C   -5.100630   0.054170   0.021256
    12  H   -0.009521  -0.006599   0.002785
    13  C   29.110379   0.175275   0.584535
    14  H    0.175275   0.388234  -0.051304
    15  Br   0.584535  -0.051304  34.559404
 Mulliken charges:
               1
     1  C   -0.143054
     2  C    0.224466
     3  C   -0.047534
     4  C   -0.333103
     5  H    0.343886
     6  H    0.348870
     7  H    0.327937
     8  N   -0.267194
     9  O    0.088204
    10  O    0.069537
    11  C   -0.234358
    12  H    0.353167
    13  C   -0.407848
    14  H    0.370516
    15  Br   0.306511
 Sum of Mulliken charges =   1.00000
 Mulliken charges with hydrogens summed into heavy atoms:
               1
     1  C    0.200831
     2  C    0.573335
     3  C   -0.047534
     4  C   -0.005167
     8  N   -0.267194
     9  O    0.088204
    10  O    0.069537
    11  C    0.118809
    13  C   -0.037333
    15  Br   0.306511
 Electronic spatial extent (au):  <R**2>=           3943.4966
 Charge=              1.0000 electrons
 Dipole moment (field-independent basis, Debye):
    X=              2.9739    Y=             -1.4220    Z=             -3.0276  Tot=              4.4758
 Quadrupole moment (field-independent basis, Debye-Ang):
   XX=            -67.8833   YY=            -50.3435   ZZ=            -59.3948
   XY=             -4.0184   XZ=             -7.2546   YZ=              4.6760
 Traceless Quadrupole moment (field-independent basis, Debye-Ang):
   XX=             -8.6761   YY=              8.8637   ZZ=             -0.1876
   XY=             -4.0184   XZ=             -7.2546   YZ=              4.6760
 Octapole moment (field-independent basis, Debye-Ang**2):
  XXX=           -515.1282  YYY=             88.2126  ZZZ=             71.2812  XYY=           -134.1705
  XXY=             22.0942  XXZ=             10.8340  XZZ=           -126.1835  YZZ=             11.0227
  YYZ=             18.2119  XYZ=             12.9880
 Hexadecapole moment (field-independent basis, Debye-Ang**3):
 XXXX=          -3467.2211 YYYY=           -693.3386 ZZZZ=           -367.8561 XXXY=            174.5844
 XXXZ=            132.7633 YYYX=            176.5584 YYYZ=           -157.8557 ZZZX=            142.7785
 ZZZY=           -125.9198 XXYY=           -618.6224 XXZZ=           -510.7024 YYZZ=           -157.4257
 XXYZ=            -28.3243 YYXZ=             33.2906 ZZXY=             15.4237
 N-N= 7.713282856890D+02 E-N=-8.697478619428D+03  KE= 3.005829922268D+03
 No NMR shielding tensors so no spin-rotation constants.
 Leave Link  601 at Thu May  2 14:19:49 2024, MaxMem=   134217728 cpu:               7.5 elap:               7.4
 (Enter /software/gaussian/g16-c01/sse4/g16/l9999.exe)
 Unable to Open any file for archive entry.
 1\1\GINC-BHX0018\SP\RwB97XD\6-311+G(d)\C6H5Br1N1O2(1+)\BWEIGHT\02-May-
 2024\0\\#P wB97XD/6-311+G* NoSymm #P Field=Z+126\\TitleMe\\1,1\C,0,0.5
 193,1.233,-0.0319\C,0,1.9445,1.2692,-0.0367\C,0,2.6204,0.0928,-0.025\C
 ,0,-0.196,0.0301,0.001\H,0,-0.0207,2.1742,-0.0434\H,0,2.4828,2.2089,-0
 .0361\H,0,-1.2777,0.0399,0.0117\N,0,4.0921,0.0959,0.0366\O,0,4.6393,-1
 .0217,0.1446\O,0,4.6649,1.1984,-0.0233\C,0,0.4943,-1.1671,0.021\H,0,-0
 .0325,-2.1149,0.0545\C,0,1.9629,-1.2165,-0.0211\H,0,2.4436,-1.9631,0.6
 151\Br,0,2.173,-1.9491,-1.9062\\Version=ES64L-G16RevC.01\HF=-3010.5412
 545\RMSD=5.670e-09\Dipole=-3.1591853,0.6686658,0.0580869\Quadrupole=-6
 .450469,6.5899761,-0.1395071,-2.9875593,-5.3935892,3.4765143\PG=C01 [X
 (C6H5Br1N1O2)]\\@
 The archive entry for this job was punched.


 THE TEST OF A FIRST RATE INTELLIGENCE IS THE ABILITY TO HOLD TWO OPPOSED
 IDEAS IN THE MIND AT THE SAME TIME, AND STILL RETAIN THE ABILITY TO FUNCTION.
 ONE SHOULD, FOR EXAMPLE, BE ABLE TO SEE THAT THINGS ARE HOPELESS AND YET BE
 DETERMINED TO MAKE THEM OTHERWISE.

                                                       -- F. SCOTT FITZGERALD
 Job cpu time:       0 days  0 hours 21 minutes 31.2 seconds.
 Elapsed time:       0 days  0 hours 21 minutes 31.5 seconds.
 File lengths (MBytes):  RWF=     40 Int=      0 D2E=      0 Chk=     32 Scr=      1
 Normal termination of Gaussian 16 at Thu May  2 14:19:49 2024.
