 Entering Gaussian System, Link 0=g16
 Initial command:
 /software/gaussian/g16-a03/l1.exe "/local_scratch/6484822/Gau-29882.inp" -scrdir="/local_scratch/6484822/"
 Entering Link 1 = /software/gaussian/g16-a03/l1.exe PID=     29933.
  
 Copyright (c) 1988,1990,1992,1993,1995,1998,2003,2009,2016,
            Gaussian, Inc.  All Rights Reserved.
  
 This is part of the Gaussian(R) 16 program.  It is based on
 the Gaussian(R) 09 system (copyright 2009, Gaussian, Inc.),
 the Gaussian(R) 03 system (copyright 2003, Gaussian, Inc.),
 the Gaussian(R) 98 system (copyright 1998, Gaussian, Inc.),
 the Gaussian(R) 94 system (copyright 1995, Gaussian, Inc.),
 the Gaussian 92(TM) system (copyright 1992, Gaussian, Inc.),
 the Gaussian 90(TM) system (copyright 1990, Gaussian, Inc.),
 the Gaussian 88(TM) system (copyright 1988, Gaussian, Inc.),
 the Gaussian 86(TM) system (copyright 1986, Carnegie Mellon
 University), and the Gaussian 82(TM) system (copyright 1983,
 Carnegie Mellon University). Gaussian is a federally registered
 trademark of Gaussian, Inc.
  
 This software contains proprietary and confidential information,
 including trade secrets, belonging to Gaussian, Inc.
  
 This software is provided under written license and may be
 used, copied, transmitted, or stored only in accord with that
 written license.
  
 The following legend is applicable only to US Government
 contracts under FAR:
  
                    RESTRICTED RIGHTS LEGEND
  
 Use, reproduction and disclosure by the US Government is
 subject to restrictions as set forth in subparagraphs (a)
 and (c) of the Commercial Computer Software - Restricted
 Rights clause in FAR 52.227-19.
  
 Gaussian, Inc.
 340 Quinnipiac St., Bldg. 40, Wallingford CT 06492
  
  
 ---------------------------------------------------------------
 Warning -- This program may not be used in any manner that
 competes with the business of Gaussian, Inc. or will provide
 assistance to any competitor of Gaussian, Inc.  The licensee
 of this program is prohibited from giving any competitor of
 Gaussian, Inc. access to this program.  By using this program,
 the user acknowledges that Gaussian, Inc. is engaged in the
 business of creating and licensing software in the field of
 computational chemistry and represents and warrants to the
 licensee that it is not a competitor of Gaussian, Inc. and that
 it will not use this program in any manner prohibited above.
 ---------------------------------------------------------------
  

 Cite this work as:
 Gaussian 16, Revision A.03,
 M. J. Frisch, G. W. Trucks, H. B. Schlegel, G. E. Scuseria, 
 M. A. Robb, J. R. Cheeseman, G. Scalmani, V. Barone, 
 G. A. Petersson, H. Nakatsuji, X. Li, M. Caricato, A. V. Marenich, 
 J. Bloino, B. G. Janesko, R. Gomperts, B. Mennucci, H. P. Hratchian, 
 J. V. Ortiz, A. F. Izmaylov, J. L. Sonnenberg, D. Williams-Young, 
 F. Ding, F. Lipparini, F. Egidi, J. Goings, B. Peng, A. Petrone, 
 T. Henderson, D. Ranasinghe, V. G. Zakrzewski, J. Gao, N. Rega, 
 G. Zheng, W. Liang, M. Hada, M. Ehara, K. Toyota, R. Fukuda, 
 J. Hasegawa, M. Ishida, T. Nakajima, Y. Honda, O. Kitao, H. Nakai, 
 T. Vreven, K. Throssell, J. A. Montgomery, Jr., J. E. Peralta, 
 F. Ogliaro, M. J. Bearpark, J. J. Heyd, E. N. Brothers, K. N. Kudin, 
 V. N. Staroverov, T. A. Keith, R. Kobayashi, J. Normand, 
 K. Raghavachari, A. P. Rendell, J. C. Burant, S. S. Iyengar, 
 J. Tomasi, M. Cossi, J. M. Millam, M. Klene, C. Adamo, R. Cammi, 
 J. W. Ochterski, R. L. Martin, K. Morokuma, O. Farkas, 
 J. B. Foresman, and D. J. Fox, Gaussian, Inc., Wallingford CT, 2016.
 
 ******************************************
 Gaussian 16:  ES64L-G16RevA.03 25-Dec-2016
                17-Sep-2021 
 ******************************************
 %chk=geometry.chk
 %mem=2GB
 %nprocshared=1
 Will use up to    1 processors via shared memory.
 --------------------------------------------------------------------
 #p B3LYP/6-311+G** #p TD=(singlets,nstates=30)IOp(6/8=3) IOp(9/40=4)
 --------------------------------------------------------------------
 1/38=1,172=1/1;
 2/12=2,17=6,18=5,40=1/2;
 3/5=4,6=6,7=111,11=9,25=1,30=1,74=-5/1,2,3,8;
 4//1;
 5/5=2,38=5/2;
 8/6=1,10=2,108=30/1;
 9/40=4,41=30,42=1,48=1,70=2/14;
 6/7=2,8=3,9=2,10=2/1;
 99/5=1,9=1/99;
 Leave Link    1 at Fri Sep 17 10:52:05 2021, MaxMem=   268435456 cpu:               0.0 elap:               0.4
 (Enter /software/gaussian/g16-a03/l101.exe)
 --------------------------------------------
 Scan Step 91, Bond Length 0.9550000000000001
 --------------------------------------------
 Symbolic Z-matrix:
 Charge =  0 Multiplicity = 1
 C                     0.        0.       -0.52736 
 H                     0.        0.93726  -1.11871 
 H                     0.       -0.93726  -1.11871 
 O                     0.        0.        0.42764 
 
 ITRead=  0  0  0  0
 MicOpt= -1 -1 -1 -1
 NAtoms=      4 NQM=        4 NQMF=       0 NMMI=      0 NMMIF=      0
                NMic=       0 NMicF=      0.
                    Isotopes and Nuclear Properties:
 (Nuclear quadrupole moments (NQMom) in fm**2, nuclear magnetic moments (NMagM)
  in nuclear magnetons)

  Atom         1           2           3           4
 IAtWgt=          12           1           1          16
 AtmWgt=  12.0000000   1.0078250   1.0078250  15.9949146
 NucSpn=           0           1           1           0
 AtZEff=  -0.0000000  -0.0000000  -0.0000000  -0.0000000
 NQMom=    0.0000000   0.0000000   0.0000000   0.0000000
 NMagM=    0.0000000   2.7928460   2.7928460   0.0000000
 AtZNuc=   6.0000000   1.0000000   1.0000000   8.0000000
 Leave Link  101 at Fri Sep 17 10:52:06 2021, MaxMem=   268435456 cpu:               0.1 elap:               0.1
 (Enter /software/gaussian/g16-a03/l202.exe)
                          Input orientation:                          
 ---------------------------------------------------------------------
 Center     Atomic      Atomic             Coordinates (Angstroms)
 Number     Number       Type             X           Y           Z
 ---------------------------------------------------------------------
      1          6           0        0.000000    0.000000   -0.527360
      2          1           0        0.000000    0.937260   -1.118710
      3          1           0        0.000000   -0.937260   -1.118710
      4          8           0        0.000000    0.000000    0.427640
 ---------------------------------------------------------------------
                    Distance matrix (angstroms):
                    1          2          3          4
     1  C    0.000000
     2  H    1.108220   0.000000
     3  H    1.108220   1.874520   0.000000
     4  O    0.955000   1.808219   1.808219   0.000000
 Stoichiometry    CH2O
 Framework group  C2V[C2(CO),SGV(H2)]
 Deg. of freedom     3
 Full point group                 C2V     NOp   4
 Largest Abelian subgroup         C2V     NOp   4
 Largest concise Abelian subgroup C2      NOp   2
                         Standard orientation:                         
 ---------------------------------------------------------------------
 Center     Atomic      Atomic             Coordinates (Angstroms)
 Number     Number       Type             X           Y           Z
 ---------------------------------------------------------------------
      1          6           0        0.000000    0.000000   -0.403581
      2          1           0        0.000000    0.937260   -0.994931
      3          1           0       -0.000000   -0.937260   -0.994931
      4          8           0        0.000000   -0.000000    0.551419
 ---------------------------------------------------------------------
 Rotational constants (GHZ):         285.4183527          58.1982792          48.3412485
 Leave Link  202 at Fri Sep 17 10:52:06 2021, MaxMem=   268435456 cpu:               0.0 elap:               0.0
 (Enter /software/gaussian/g16-a03/l301.exe)
 Standard basis: 6-311+G(d,p) (5D, 7F)
 Ernie: Thresh=  0.10000D-02 Tol=  0.10000D-05 Strict=F.
 There are    29 symmetry adapted cartesian basis functions of A1  symmetry.
 There are     3 symmetry adapted cartesian basis functions of A2  symmetry.
 There are    11 symmetry adapted cartesian basis functions of B1  symmetry.
 There are    15 symmetry adapted cartesian basis functions of B2  symmetry.
 There are    27 symmetry adapted basis functions of A1  symmetry.
 There are     3 symmetry adapted basis functions of A2  symmetry.
 There are    11 symmetry adapted basis functions of B1  symmetry.
 There are    15 symmetry adapted basis functions of B2  symmetry.
    56 basis functions,    88 primitive gaussians,    58 cartesian basis functions
     8 alpha electrons        8 beta electrons
       nuclear repulsion energy        37.2921310883 Hartrees.
 IExCor=  402 DFT=T Ex+Corr=B3LYP ExCW=0 ScaHFX=  0.200000
 ScaDFX=  0.800000  0.720000  1.000000  0.810000 ScalE2=  1.000000  1.000000
 IRadAn=      5 IRanWt=     -1 IRanGd=            0 ICorTp=0 IEmpDi=  4
 NAtoms=    4 NActive=    4 NUniq=    3 SFac= 1.78D+00 NAtFMM=   60 NAOKFM=F Big=F
 Integral buffers will be    131072 words long.
 Regular integral format.
 Two-electron integral symmetry is turned on.
 Leave Link  301 at Fri Sep 17 10:52:06 2021, MaxMem=   268435456 cpu:               0.0 elap:               0.1
 (Enter /software/gaussian/g16-a03/l302.exe)
 NPDir=0 NMtPBC=     1 NCelOv=     1 NCel=       1 NClECP=     1 NCelD=      1
         NCelK=      1 NCelE2=     1 NClLst=     1 CellRange=     0.0.
 One-electron integrals computed using PRISM.
 One-electron integral symmetry used in STVInt
 NBasis=    56 RedAO= T EigKep=  1.67D-03  NBF=    27     3    11    15
 NBsUse=    56 1.00D-06 EigRej= -1.00D+00 NBFU=    27     3    11    15
 Precomputing XC quadrature grid using
 IXCGrd= 4 IRadAn=           5 IRanWt=          -1 IRanGd=           0 AccXCQ= 0.00D+00.
 Generated NRdTot=       0 NPtTot=           0 NUsed=           0 NTot=          32
 NSgBfM=    58    58    58    58    58 MxSgAt=     4 MxSgA2=     4.
 Leave Link  302 at Fri Sep 17 10:52:06 2021, MaxMem=   268435456 cpu:               0.1 elap:               0.1
 (Enter /software/gaussian/g16-a03/l303.exe)
 DipDrv:  MaxL=1.
 Leave Link  303 at Fri Sep 17 10:52:06 2021, MaxMem=   268435456 cpu:               0.0 elap:               0.0
 (Enter /software/gaussian/g16-a03/l308.exe)
 Leave Link  308 at Fri Sep 17 10:52:06 2021, MaxMem=   268435456 cpu:               0.0 elap:               0.0
 (Enter /software/gaussian/g16-a03/l401.exe)
 ExpMin= 4.38D-02 ExpMax= 8.59D+03 ExpMxC= 1.30D+03 IAcc=3 IRadAn=         5 AccDes= 0.00D+00
 Harris functional with IExCor=  402 and IRadAn=       5 diagonalized for initial guess.
 HarFok:  IExCor=  402 AccDes= 0.00D+00 IRadAn=         5 IDoV= 1 UseB2=F ITyADJ=14
 ICtDFT=  3500011 ScaDFX=  1.000000  1.000000  1.000000  1.000000
 FoFCou: FMM=F IPFlag=           0 FMFlag=      100000 FMFlg1=           0
         NFxFlg=           0 DoJE=T BraDBF=F KetDBF=T FulRan=T
         wScrn=  0.000000 ICntrl=       500 IOpCl=  0 I1Cent=   200000004 NGrid=           0
         NMat0=    1 NMatS0=      1 NMatT0=    0 NMatD0=    1 NMtDS0=    0 NMtDT0=    0
 Petite list used in FoFCou.
 Harris En= -114.429752225082    
 JPrj=0 DoOrth=F DoCkMO=F.
 Initial guess orbital symmetries:
       Occupied  (A1) (A1) (A1) (B2) (A1) (B1) (A1) (B2)
       Virtual   (B1) (A1) (A1) (B2) (B1) (A1) (A1) (B2) (B2) (B1)
                 (A1) (A1) (A1) (B1) (B2) (B2) (A1) (A1) (A2) (B1)
                 (B2) (A1) (B1) (A1) (B2) (A1) (B2) (A2) (B1) (A1)
                 (A1) (A1) (B2) (B2) (B1) (A1) (A1) (A2) (A1) (B1)
                 (B2) (B2) (A1) (B1) (B2) (A1) (A1) (A1)
 The electronic state of the initial guess is 1-A1.
 Leave Link  401 at Fri Sep 17 10:52:06 2021, MaxMem=   268435456 cpu:               0.3 elap:               0.3
 (Enter /software/gaussian/g16-a03/l502.exe)
 Keep R1 ints in memory in symmetry-blocked form, NReq=2159909.
 FoFCou: FMM=F IPFlag=           0 FMFlag=           0 FMFlg1=           0
         NFxFlg=           0 DoJE=F BraDBF=F KetDBF=F FulRan=T
         wScrn=  0.000000 ICntrl=       600 IOpCl=  0 I1Cent=           0 NGrid=           0
         NMat0=    1 NMatS0=   1596 NMatT0=    0 NMatD0=    1 NMtDS0=    0 NMtDT0=    0
 Petite list used in FoFCou.
 Closed shell SCF:
 Using DIIS extrapolation, IDIIS=  1040.
 NGot=   268435456 LenX=   268074384 LenY=   268070579
 Requested convergence on RMS density matrix=1.00D-08 within 128 cycles.
 Requested convergence on MAX density matrix=1.00D-06.
 Requested convergence on             energy=1.00D-06.
 No special actions if energy rises.

 Cycle   1  Pass 1  IDiag  1:
 E= -114.261322426889    
 DIIS: error= 6.39D-02 at cycle   1 NSaved=   1.
 NSaved= 1 IEnMin= 1 EnMin= -114.261322426889     IErMin= 1 ErrMin= 6.39D-02
 ErrMax= 6.39D-02  0.00D+00 EMaxC= 1.00D-01 BMatC= 1.69D-01 BMatP= 1.69D-01
 IDIUse=3 WtCom= 3.61D-01 WtEn= 6.39D-01
 Coeff-Com:  0.100D+01
 Coeff-En:   0.100D+01
 Coeff:      0.100D+01
 Gap=     0.167 Goal=   None    Shift=    0.000
 GapD=    0.167 DampG=1.000 DampE=0.500 DampFc=0.5000 IDamp=-1.
 Damping current iteration by 5.00D-01
 RMSDP=1.19D-02 MaxDP=1.47D-01              OVMax= 2.49D-01

 Cycle   2  Pass 1  IDiag  1:
 E= -114.297297368898     Delta-E=       -0.035974942010 Rises=F Damp=T
 DIIS: error= 1.77D-02 at cycle   2 NSaved=   2.
 NSaved= 2 IEnMin= 2 EnMin= -114.297297368898     IErMin= 2 ErrMin= 1.77D-02
 ErrMax= 1.77D-02  0.00D+00 EMaxC= 1.00D-01 BMatC= 1.09D-02 BMatP= 1.69D-01
 IDIUse=3 WtCom= 8.23D-01 WtEn= 1.77D-01
 Coeff-Com:  0.132D+00 0.868D+00
 Coeff-En:   0.286D+00 0.714D+00
 Coeff:      0.160D+00 0.840D+00
 Gap=     0.278 Goal=   None    Shift=    0.000
 RMSDP=2.86D-03 MaxDP=3.60D-02 DE=-3.60D-02 OVMax= 1.49D-01

 Cycle   3  Pass 1  IDiag  1:
 E= -114.365237203270     Delta-E=       -0.067939834372 Rises=F Damp=F
 DIIS: error= 1.31D-02 at cycle   3 NSaved=   3.
 NSaved= 3 IEnMin= 3 EnMin= -114.365237203270     IErMin= 3 ErrMin= 1.31D-02
 ErrMax= 1.31D-02  0.00D+00 EMaxC= 1.00D-01 BMatC= 5.76D-03 BMatP= 1.09D-02
 IDIUse=3 WtCom= 8.69D-01 WtEn= 1.31D-01
 Coeff-Com:  0.687D-02 0.416D+00 0.577D+00
 Coeff-En:   0.000D+00 0.000D+00 0.100D+01
 Coeff:      0.597D-02 0.362D+00 0.632D+00
 Gap=     0.255 Goal=   None    Shift=    0.000
 RMSDP=1.03D-03 MaxDP=1.77D-02 DE=-6.79D-02 OVMax= 3.17D-02

 Cycle   4  Pass 1  IDiag  1:
 E= -114.368947506838     Delta-E=       -0.003710303568 Rises=F Damp=F
 DIIS: error= 4.14D-03 at cycle   4 NSaved=   4.
 NSaved= 4 IEnMin= 4 EnMin= -114.368947506838     IErMin= 4 ErrMin= 4.14D-03
 ErrMax= 4.14D-03  0.00D+00 EMaxC= 1.00D-01 BMatC= 5.68D-04 BMatP= 5.76D-03
 IDIUse=3 WtCom= 9.59D-01 WtEn= 4.14D-02
 Coeff-Com: -0.145D-01 0.565D-01 0.281D+00 0.677D+00
 Coeff-En:   0.000D+00 0.000D+00 0.275D-01 0.973D+00
 Coeff:     -0.139D-01 0.541D-01 0.271D+00 0.689D+00
 Gap=     0.255 Goal=   None    Shift=    0.000
 RMSDP=2.81D-04 MaxDP=6.30D-03 DE=-3.71D-03 OVMax= 6.26D-03

 Cycle   5  Pass 1  IDiag  1:
 E= -114.369393308545     Delta-E=       -0.000445801707 Rises=F Damp=F
 DIIS: error= 1.95D-04 at cycle   5 NSaved=   5.
 NSaved= 5 IEnMin= 5 EnMin= -114.369393308545     IErMin= 5 ErrMin= 1.95D-04
 ErrMax= 1.95D-04  0.00D+00 EMaxC= 1.00D-01 BMatC= 2.23D-06 BMatP= 5.68D-04
 IDIUse=3 WtCom= 9.98D-01 WtEn= 1.95D-03
 Coeff-Com: -0.514D-03-0.210D-02 0.235D-01 0.108D+00 0.871D+00
 Coeff-En:   0.000D+00 0.000D+00 0.000D+00 0.000D+00 0.100D+01
 Coeff:     -0.513D-03-0.209D-02 0.235D-01 0.108D+00 0.871D+00
 Gap=     0.255 Goal=   None    Shift=    0.000
 RMSDP=3.45D-05 MaxDP=4.23D-04 DE=-4.46D-04 OVMax= 5.82D-04

 Cycle   6  Pass 1  IDiag  1:
 E= -114.369395565907     Delta-E=       -0.000002257363 Rises=F Damp=F
 DIIS: error= 1.59D-05 at cycle   6 NSaved=   6.
 NSaved= 6 IEnMin= 6 EnMin= -114.369395565907     IErMin= 6 ErrMin= 1.59D-05
 ErrMax= 1.59D-05  0.00D+00 EMaxC= 1.00D-01 BMatC= 8.50D-09 BMatP= 2.23D-06
 IDIUse=1 WtCom= 1.00D+00 WtEn= 0.00D+00
 Coeff-Com:  0.221D-03-0.635D-03-0.103D-02 0.198D-02 0.482D-01 0.951D+00
 Coeff:      0.221D-03-0.635D-03-0.103D-02 0.198D-02 0.482D-01 0.951D+00
 Gap=     0.255 Goal=   None    Shift=    0.000
 RMSDP=1.74D-06 MaxDP=1.55D-05 DE=-2.26D-06 OVMax= 3.33D-05

 Cycle   7  Pass 1  IDiag  1:
 E= -114.369395573735     Delta-E=       -0.000000007828 Rises=F Damp=F
 DIIS: error= 1.32D-06 at cycle   7 NSaved=   7.
 NSaved= 7 IEnMin= 7 EnMin= -114.369395573735     IErMin= 7 ErrMin= 1.32D-06
 ErrMax= 1.32D-06  0.00D+00 EMaxC= 1.00D-01 BMatC= 4.25D-11 BMatP= 8.50D-09
 IDIUse=1 WtCom= 1.00D+00 WtEn= 0.00D+00
 Coeff-Com: -0.618D-06-0.243D-05-0.110D-03-0.668D-03-0.608D-02 0.975D-02
 Coeff-Com:  0.997D+00
 Coeff:     -0.618D-06-0.243D-05-0.110D-03-0.668D-03-0.608D-02 0.975D-02
 Coeff:      0.997D+00
 Gap=     0.255 Goal=   None    Shift=    0.000
 RMSDP=2.30D-07 MaxDP=2.39D-06 DE=-7.83D-09 OVMax= 3.69D-06

 Cycle   8  Pass 1  IDiag  1:
 E= -114.369395573783     Delta-E=       -0.000000000048 Rises=F Damp=F
 DIIS: error= 1.92D-07 at cycle   8 NSaved=   8.
 NSaved= 8 IEnMin= 8 EnMin= -114.369395573783     IErMin= 8 ErrMin= 1.92D-07
 ErrMax= 1.92D-07  0.00D+00 EMaxC= 1.00D-01 BMatC= 1.15D-12 BMatP= 4.25D-11
 IDIUse=1 WtCom= 1.00D+00 WtEn= 0.00D+00
 Coeff-Com: -0.269D-05 0.470D-05 0.957D-05-0.618D-04-0.790D-03-0.695D-02
 Coeff-Com:  0.758D-01 0.932D+00
 Coeff:     -0.269D-05 0.470D-05 0.957D-05-0.618D-04-0.790D-03-0.695D-02
 Coeff:      0.758D-01 0.932D+00
 Gap=     0.255 Goal=   None    Shift=    0.000
 RMSDP=2.38D-08 MaxDP=2.51D-07 DE=-4.75D-11 OVMax= 5.84D-07

 Cycle   9  Pass 1  IDiag  1:
 E= -114.369395573784     Delta-E=       -0.000000000002 Rises=F Damp=F
 DIIS: error= 1.78D-08 at cycle   9 NSaved=   9.
 NSaved= 9 IEnMin= 9 EnMin= -114.369395573784     IErMin= 9 ErrMin= 1.78D-08
 ErrMax= 1.78D-08  0.00D+00 EMaxC= 1.00D-01 BMatC= 2.28D-14 BMatP= 1.15D-12
 IDIUse=1 WtCom= 1.00D+00 WtEn= 0.00D+00
 Coeff-Com: -0.151D-06 0.520D-06 0.781D-06-0.212D-05-0.239D-04-0.712D-03
 Coeff-Com: -0.905D-02 0.133D+00 0.877D+00
 Coeff:     -0.151D-06 0.520D-06 0.781D-06-0.212D-05-0.239D-04-0.712D-03
 Coeff:     -0.905D-02 0.133D+00 0.877D+00
 Gap=     0.255 Goal=   None    Shift=    0.000
 RMSDP=3.73D-09 MaxDP=4.35D-08 DE=-1.59D-12 OVMax= 5.72D-08

 SCF Done:  E(RB3LYP) =  -114.369395574     A.U. after    9 cycles
            NFock=  9  Conv=0.37D-08     -V/T= 1.9877
 KE= 1.157901203841D+02 PE=-3.442502690822D+02 EE= 7.679862203601D+01
 Leave Link  502 at Fri Sep 17 10:52:08 2021, MaxMem=   268435456 cpu:               1.6 elap:               1.9
 (Enter /software/gaussian/g16-a03/l801.exe)
 DoSCS=F DFT=T ScalE2(SS,OS)=  1.000000  1.000000
 ExpMin= 4.38D-02 ExpMax= 8.59D+03 ExpMxC= 1.30D+03 IAcc=3 IRadAn=         5 AccDes= 0.00D+00
 HarFok:  IExCor=  205 AccDes= 0.00D+00 IRadAn=         5 IDoV=-2 UseB2=F ITyADJ=14
 ICtDFT= 12500011 ScaDFX=  1.000000  1.000000  1.000000  1.000000
 Largest valence mixing into a core orbital is  4.43D-05
 Largest core mixing into a valence orbital is  7.86D-06
 Range of M.O.s used for correlation:     3    56
 NBasis=    56 NAE=     8 NBE=     8 NFC=     2 NFV=     0
 NROrb=     54 NOA=     6 NOB=     6 NVA=    48 NVB=    48
 Leave Link  801 at Fri Sep 17 10:52:08 2021, MaxMem=   268435456 cpu:               0.2 elap:               0.2
 (Enter /software/gaussian/g16-a03/l914.exe)
 RHF ground state
 Keep R1, R2, and R3 ints in memory in symmetry-blocked form, NReq=6042848.
 FoFCou: FMM=F IPFlag=           0 FMFlag=           0 FMFlg1=           0
         NFxFlg=           0 DoJE=F BraDBF=F KetDBF=F FulRan=T
         wScrn=  0.000000 ICntrl=       600 IOpCl=  0 I1Cent=           0 NGrid=           0
         NMat0=    1 NMatS0=   1596 NMatT0=    0 NMatD0=    1 NMtDS0=    0 NMtDT0=    0
 Petite list used in FoFCou.
 MDV=   268435456 DFT=T DoStab=F Mixed=T DoRPA=T DoScal=F NonHer=T
 Making orbital integer symmetry assigments:
 Orbital symmetries:
       Occupied  (A1) (A1) (A1) (A1) (B2) (B1) (A1) (B2)
       Virtual   (B1) (A1) (A1) (B2) (B1) (A1) (A1) (B2) (B1) (B2)
                 (A1) (A1) (A1) (B1) (B2) (B2) (A1) (A1) (A2) (B1)
                 (B2) (A1) (B1) (A1) (B2) (A1) (B2) (A2) (B1) (A1)
                 (A1) (B2) (A1) (B2) (B1) (A1) (A1) (A2) (B2) (A1)
                 (B1) (B2) (A1) (B1) (B2) (A1) (A1) (A1)
   120 initial guesses have been made.
 Convergence on wavefunction:    0.001000000000000
 Davidson Disk Diagonalization:  ConvIn= 1.00D-03 SkipCon=T Conv= 1.00D-03.
 Max sub-space:  1728 roots to seek:   120 dimension of matrix:          576
 Iteration     1 Dimension   120 NMult     0 NNew    120
 CISAX will form   120 AO SS matrices at one time.
 NMat=   120 NSing=   120 JSym2X=-1.
 New state     14 was old state     15
 New state     15 was old state     16
 New state     16 was old state     20
 New state     18 was old state     14
 New state     20 was old state     18
 New state     23 was old state     25
 New state     24 was old state     23
 New state     25 was old state     24
 New state     28 was old state     29
 New state     29 was old state     32
 Excitation Energies [eV] at current iteration:
 Root      1 :     5.321255081398834
 Root      2 :     6.189516608663220
 Root      3 :     6.978239627554151
 Root      4 :     7.115172029382605
 Root      5 :     7.719727055613794
 Root      6 :    10.104382899550630
 Root      7 :    10.494340439566790
 Root      8 :    11.506228896410390
 Root      9 :    11.570942826272790
 Root     10 :    12.105893133017050
 Root     11 :    12.417087921972950
 Root     12 :    12.921882399965020
 Root     13 :    13.251314667122170
 Root     14 :    13.449938587436660
 Root     15 :    13.880776448994090
 Root     16 :    13.947641176509530
 Root     17 :    14.008359141426460
 Root     18 :    14.292326696722490
 Root     19 :    14.325079307537000
 Root     20 :    14.332756803741610
 Root     21 :    14.738411197292130
 Root     22 :    15.005958168723040
 Root     23 :    15.282475709464510
 Root     24 :    15.392808264086850
 Root     25 :    15.730272283654650
 Root     26 :    15.872186592189650
 Root     27 :    15.883773612021840
 Root     28 :    16.360594522271330
 Root     29 :    16.518726570232130
 Root     30 :    16.683666352250910
 Root     31 :    16.767972124001800
 Root     32 :    16.790051943618750
 Root     33 :    16.816445251336800
 Root     34 :    17.367491179023050
 Root     35 :    17.649028341003890
 Root     36 :    17.957541257596950
 Root     37 :    18.087213021216250
 Root     38 :    18.300801214337550
 Root     39 :    18.346934231317530
 Root     40 :    18.348498211731870
 Root     41 :    18.827333260017760
 Root     42 :    19.000204670439210
 Root     43 :    19.124428220423580
 Root     44 :    19.266088014943590
 Root     45 :    19.394232700540310
 Root     46 :    19.411238546456090
 Root     47 :    19.959916760012740
 Root     48 :    19.981745098144940
 Root     49 :    20.054213896697900
 Root     50 :    20.173983463501330
 Root     51 :    20.396834256894860
 Root     52 :    20.418625093731350
 Root     53 :    20.949463639615860
 Root     54 :    21.089478286902080
 Root     55 :    21.366428403600240
 Root     56 :    21.561971235848240
 Root     57 :    21.680558180049530
 Root     58 :    21.757586172432130
 Root     59 :    22.460434449502970
 Root     60 :    22.611070790522650
 Root     61 :    22.817886612071190
 Root     62 :    24.048021761234570
 Root     63 :    24.107880787789160
 Root     64 :    24.713454599955900
 Root     65 :    25.303393231162080
 Root     66 :    26.202428252119870
 Root     67 :    26.231299619671140
 Root     68 :    26.526108093861350
 Root     69 :    26.617144441835710
 Root     70 :    26.623454962694360
 Root     71 :    27.470461918878360
 Root     72 :    27.891638736402420
 Root     73 :    27.960401741612770
 Root     74 :    28.663328083526180
 Root     75 :    28.935934824698940
 Root     76 :    29.340073990515420
 Root     77 :    29.611654314720140
 Root     78 :    29.768428847764880
 Root     79 :    29.827666637915650
 Root     80 :    30.651873657272830
 Root     81 :    31.352046753345170
 Root     82 :    31.363105535041650
 Root     83 :    31.945135310329580
 Root     84 :    32.507602802881120
 Root     85 :    32.712220635851470
 Root     86 :    32.915741023598770
 Root     87 :    32.927752227355670
 Root     88 :    32.950734884149320
 Root     89 :    32.958182932532780
 Root     90 :    33.556222405031700
 Root     91 :    33.632333154912390
 Root     92 :    34.316410496508660
 Root     93 :    34.337140592391580
 Root     94 :    35.824883454330360
 Root     95 :    36.089220440893850
 Root     96 :    36.644942359155180
 Root     97 :    37.072386019937580
 Root     98 :    37.584989052937570
 Root     99 :    37.815015648672290
 Root    100 :    38.359597841589510
 Root    101 :    38.370570183686440
 Root    102 :    38.525503427015990
 Root    103 :    39.264531045252450
 Root    104 :    39.283287633883550
 Root    105 :    39.393174758079620
 Root    106 :    39.417910668567610
 Root    107 :    39.633436218214480
 Root    108 :    40.073643301976550
 Root    109 :    40.445387969961150
 Root    110 :    40.661736069027500
 Root    111 :    41.058173627038850
 Root    112 :    41.629614677477550
 Root    113 :    41.885966469298450
 Root    114 :    41.927008204281310
 Root    115 :    42.314665006962910
 Root    116 :    42.532158912029570
 Root    117 :    42.670855216423240
 Root    118 :    42.929539297177630
 Root    119 :    43.193367249298310
 Root    120 :    46.386409885085590
 Iteration     2 Dimension   180 NMult   120 NNew     60
 CISAX will form    60 AO SS matrices at one time.
 NMat=    60 NSing=    60 JSym2X=-1.
 Root      1 not converged, maximum delta is    0.005603543977625
 Root      2 not converged, maximum delta is    0.003366508696885
 Root      3 not converged, maximum delta is    0.002559473678017
 Root      4 not converged, maximum delta is    0.003978897416690
 Root      5 not converged, maximum delta is    0.002532870982982
 Root      6 not converged, maximum delta is    0.007841934354131
 Root      7 not converged, maximum delta is    0.002029092821721
 Root      8 not converged, maximum delta is    0.008139028936265
 Root      9 not converged, maximum delta is    0.001562114389197
 Root     10 not converged, maximum delta is    0.005831094411365
 Root     11 not converged, maximum delta is    0.013215675663058
 Root     12 not converged, maximum delta is    0.004300316262978
 Root     13 not converged, maximum delta is    0.009736593399743
 Root     14 not converged, maximum delta is    0.001321000394373
 Root     15 not converged, maximum delta is    0.045643744863306
 Root     16 not converged, maximum delta is    0.006421371412412
 Root     17 not converged, maximum delta is    0.004046115899638
 Root     18 not converged, maximum delta is    0.061058413572884
 Root     19 not converged, maximum delta is    0.001944424903275
 Root     20 not converged, maximum delta is    0.012366675668977
 Root     21 not converged, maximum delta is    0.015478984054027
 Root     22 not converged, maximum delta is    0.010383265639211
 Root     23 not converged, maximum delta is    0.009723357874608
 Root     24 not converged, maximum delta is    0.029039322126700
 Root     25 not converged, maximum delta is    0.024952441411315
 Root     26 not converged, maximum delta is    0.004656456871673
 Root     27 not converged, maximum delta is    0.006184738764874
 Root     28 not converged, maximum delta is    0.044196410575888
 Root     29 not converged, maximum delta is    0.002854288663631
 Root     30 not converged, maximum delta is    0.108232073542609
 Excitation Energies [eV] at current iteration:
 Root      1 :     5.309953772159637   Change is   -0.011301309239197
 Root      2 :     6.186243083791084   Change is   -0.003273524872135
 Root      3 :     6.973183571475452   Change is   -0.005056056078699
 Root      4 :     7.111631857436878   Change is   -0.003540171945727
 Root      5 :     7.717465842409466   Change is   -0.002261213204328
 Root      6 :    10.088857169090390   Change is   -0.015525730460241
 Root      7 :    10.492568070569440   Change is   -0.001772368997353
 Root      8 :    11.491514650372970   Change is   -0.014714246037428
 Root      9 :    11.569705818288800   Change is   -0.001237007983984
 Root     10 :    12.096572004277040   Change is   -0.009321128740009
 Root     11 :    12.349339344482580   Change is   -0.067748577490370
 Root     12 :    12.913574492189990   Change is   -0.008307907775020
 Root     13 :    13.238261205713450   Change is   -0.013053461408715
 Root     14 :    13.448966579977560   Change is   -0.000972007459102
 Root     15 :    13.860380513155540   Change is   -0.020395935838552
 Root     16 :    13.941681612791020   Change is   -0.005959563718514
 Root     17 :    14.000615759717370   Change is   -0.007743381709098
 Root     18 :    14.190600293304720   Change is   -0.101726403417772
 Root     19 :    14.324627777601470   Change is   -0.000451529935528
 Root     20 :    14.328983649817690   Change is   -0.003773153923929
 Root     21 :    14.715157554382340   Change is   -0.023253642909797
 Root     22 :    15.003300536872180   Change is   -0.002657631850862
 Root     23 :    15.263295192698460   Change is   -0.019180516766053
 Root     24 :    15.342720720351670   Change is   -0.050087543735174
 Root     25 :    15.651976595110120   Change is   -0.078295688544525
 Root     26 :    15.867514961840970   Change is   -0.004671630348686
 Root     27 :    15.878320738665810   Change is   -0.005452873356037
 Root     28 :    16.337197704383330   Change is   -0.023396817888002
 Root     29 :    16.517393872525350   Change is   -0.001332697706778
 Root     30 :    16.624425811126130   Change is   -0.059240541124778
 Iteration     3 Dimension   239 NMult   180 NNew     59
 CISAX will form    59 AO SS matrices at one time.
 NMat=    59 NSing=    59 JSym2X=-1.
 Root      1 has converged.
 Root      2 has converged.
 Root      3 has converged.
 Root      4 has converged.
 Root      5 has converged.
 Root      6 has converged.
 Root      7 has converged.
 Root      8 has converged.
 Root      9 has converged.
 Root     10 has converged.
 Root     11 has converged.
 Root     12 has converged.
 Root     13 has converged.
 Root     14 has converged.
 Root     15 has converged.
 Root     16 has converged.
 Root     17 has converged.
 Root     18 has converged.
 Root     19 has converged.
 Root     20 has converged.
 Root     21 has converged.
 Root     22 has converged.
 Root     23 has converged.
 Root     24 has converged.
 Root     25 has converged.
 Root     26 has converged.
 Root     27 has converged.
 Root     28 has converged.
 Root     29 has converged.
 Root     30 has converged.
 Excitation Energies [eV] at current iteration:
 Root      1 :     5.309951316229241   Change is   -0.000002455930396
 Root      2 :     6.186240916170258   Change is   -0.000002167620827
 Root      3 :     6.973181232024668   Change is   -0.000002339450784
 Root      4 :     7.111630007359233   Change is   -0.000001850077645
 Root      5 :     7.717465369103521   Change is   -0.000000473305945
 Root      6 :    10.088850283657020   Change is   -0.000006885433371
 Root      7 :    10.492565802859720   Change is   -0.000002267709713
 Root      8 :    11.491495896240390   Change is   -0.000018754132582
 Root      9 :    11.569704891863690   Change is   -0.000000926425112
 Root     10 :    12.096554723457240   Change is   -0.000017280819798
 Root     11 :    12.349184631460870   Change is   -0.000154713021710
 Root     12 :    12.913563109174980   Change is   -0.000011383015018
 Root     13 :    13.238237898042610   Change is   -0.000023307670848
 Root     14 :    13.448963572536510   Change is   -0.000003007441053
 Root     15 :    13.860334806859610   Change is   -0.000045706295930
 Root     16 :    13.941678134809130   Change is   -0.000003477981887
 Root     17 :    14.000600397412930   Change is   -0.000015362304437
 Root     18 :    14.190343033199250   Change is   -0.000257260105463
 Root     19 :    14.324627435201190   Change is   -0.000000342400283
 Root     20 :    14.328970880925730   Change is   -0.000012768891959
 Root     21 :    14.715084990465260   Change is   -0.000072563917070
 Root     22 :    15.003294404891650   Change is   -0.000006131980526
 Root     23 :    15.263265856144330   Change is   -0.000029336554130
 Root     24 :    15.342576797209150   Change is   -0.000143923142520
 Root     25 :    15.651825414677570   Change is   -0.000151180432553
 Root     26 :    15.867503412791010   Change is   -0.000011549049952
 Root     27 :    15.878305664999230   Change is   -0.000015073666574
 Root     28 :    16.337130994776910   Change is   -0.000066709606423
 Root     29 :    16.517393101729540   Change is   -0.000000770795807
 Root     30 :    16.624231915730210   Change is   -0.000193895395926
 Convergence achieved on expansion vectors.
 ***********************************************************************
 Excited states from <AA,BB:AA,BB> singles matrix:
 ***********************************************************************
 
 1PDM for each excited state written to RWF  633
 Ground to excited state transition densities written to RWF  633
 Ground to excited state transition electric dipole moments (Au):
       state          X           Y           Z        Dip. S.      Osc.
         1        -0.0000      0.0000     -0.0000      0.0000      0.0000
         2        -0.0000      0.7008      0.0000      0.4911      0.0744
         3         0.0000      0.3484      0.0000      0.1214      0.0207
         4        -0.0000      0.0000     -0.5290      0.2799      0.0488
         5         0.0000      0.0000     -0.0000      0.0000      0.0000
         6        -0.0000      1.0379      0.0000      1.0773      0.2663
         7         0.0000      0.2186      0.0000      0.0478      0.0123
         8        -0.0000      0.0000      0.0672      0.0045      0.0013
         9        -0.0000     -0.0000     -0.0000      0.0000      0.0000
        10        -0.0000     -0.0000     -0.6893      0.4752      0.1408
        11        -0.0448     -0.0000      0.0000      0.0020      0.0006
        12         0.0000     -0.3596     -0.0000      0.1293      0.0409
        13         0.0000     -0.0000     -0.1414      0.0200      0.0065
        14        -0.3479     -0.0000      0.0000      0.1210      0.0399
        15         0.0000      0.0000      0.9206      0.8474      0.2878
        16         0.0000     -0.0000     -0.0000      0.0000      0.0000
        17         0.0000     -0.3587     -0.0000      0.1287      0.0441
        18        -0.0000     -0.0000      0.3445      0.1187      0.0413
        19         0.0000     -0.0000      0.0000      0.0000      0.0000
        20         0.2145      0.0000     -0.0000      0.0460      0.0162
        21        -0.2564      0.0000     -0.0000      0.0657      0.0237
        22         0.0000     -0.4724      0.0000      0.2231      0.0820
        23         0.0000     -0.2165      0.0000      0.0469      0.0175
        24        -0.0000     -0.0000     -0.5985      0.3582      0.1347
        25        -0.6223     -0.0000      0.0000      0.3873      0.1485
        26         0.0000      0.0000      0.2731      0.0746      0.0290
        27        -0.0000      0.1805     -0.0000      0.0326      0.0127
        28         0.0000     -0.0000      0.1918      0.0368      0.0147
        29         0.0000     -0.0000     -0.0000      0.0000      0.0000
        30        -0.0000      0.0000     -0.2483      0.0617      0.0251
 Ground to excited state transition velocity dipole moments (Au):
       state          X           Y           Z        Dip. S.      Osc.
         1         0.0000      0.0000      0.0000      0.0000      0.0000
         2         0.0000     -0.1561      0.0000      0.0244      0.0715
         3        -0.0000     -0.0920      0.0000      0.0085      0.0220
         4         0.0000      0.0000      0.1322      0.0175      0.0446
         5        -0.0000     -0.0000      0.0000      0.0000      0.0000
         6         0.0000     -0.3867     -0.0000      0.1495      0.2689
         7        -0.0000     -0.0521      0.0000      0.0027      0.0047
         8        -0.0000      0.0000     -0.0332      0.0011      0.0017
         9         0.0000      0.0000      0.0000      0.0000      0.0000
        10        -0.0000      0.0000      0.3076      0.0946      0.1419
        11         0.0107      0.0000      0.0000      0.0001      0.0002
        12        -0.0000      0.1776     -0.0000      0.0315      0.0443
        13        -0.0000     -0.0000      0.0675      0.0046      0.0062
        14         0.1755     -0.0000     -0.0000      0.0308      0.0415
        15        -0.0000     -0.0000     -0.4677      0.2187      0.2863
        16        -0.0000      0.0000      0.0000      0.0000      0.0000
        17        -0.0000      0.1843      0.0000      0.0340      0.0440
        18         0.0000     -0.0000     -0.1728      0.0299      0.0382
        19        -0.0000      0.0000     -0.0000      0.0000      0.0000
        20        -0.1204     -0.0000      0.0000      0.0145      0.0184
        21         0.1316     -0.0000      0.0000      0.0173      0.0213
        22         0.0000      0.2587     -0.0000      0.0669      0.0809
        23        -0.0000      0.1117     -0.0000      0.0125      0.0148
        24         0.0000      0.0000      0.3407      0.1161      0.1372
        25         0.3685      0.0000     -0.0000      0.1358      0.1574
        26        -0.0000     -0.0000     -0.1588      0.0252      0.0288
        27         0.0000     -0.1093      0.0000      0.0119      0.0136
        28        -0.0000      0.0000     -0.1237      0.0153      0.0170
        29        -0.0000      0.0000     -0.0000      0.0000      0.0000
        30        -0.0000     -0.0000      0.1556      0.0242      0.0264
 Ground to excited state transition magnetic dipole moments (Au):
       state          X           Y           Z
         1        -0.0000     -0.0000      1.2864
         2        -0.4370     -0.0000     -0.0000
         3         0.7944     -0.0000      0.0000
         4         0.0000      0.0000     -0.0000
         5        -0.0000     -0.0000     -0.3052
         6        -0.8544      0.0000     -0.0000
         7        -0.9060      0.0000      0.0000
         8        -0.0000     -0.0000      0.0000
         9        -0.0000      0.0000      0.0805
        10        -0.0000     -0.0000      0.0000
        11         0.0000     -1.2145      0.0000
        12        -0.4762     -0.0000     -0.0000
        13         0.0000     -0.0000      0.0000
        14        -0.0000     -0.0480     -0.0000
        15        -0.0000     -0.0000     -0.0000
        16        -0.0000      0.0000     -0.3815
        17        -0.3019      0.0000      0.0000
        18         0.0000      0.0000     -0.0000
        19         0.0000     -0.0000      0.0644
        20        -0.0000     -0.1588     -0.0000
        21         0.0000      0.7676      0.0000
        22         0.2944      0.0000      0.0000
        23         1.1758      0.0000      0.0000
        24         0.0000     -0.0000      0.0000
        25         0.0000     -0.4966     -0.0000
        26         0.0000      0.0000      0.0000
        27        -0.1411     -0.0000      0.0000
        28         0.0000      0.0000     -0.0000
        29        -0.0000      0.0000      0.1019
        30        -0.0000     -0.0000     -0.0000
 Ground to excited state transition velocity quadrupole moments (Au):
       state          XX          YY          ZZ          XY          XZ          YZ
         1        -0.0000      0.0000     -0.0000     -0.2064      0.0000      0.0000
         2         0.0000      0.0000      0.0000      0.0000     -0.0000      0.5276
         3        -0.0000     -0.0000      0.0000      0.0000     -0.0000      0.2215
         4        -0.1635     -0.6037     -0.2096     -0.0000      0.0000      0.0000
         5         0.0000     -0.0000      0.0000     -0.1282     -0.0000     -0.0000
         6        -0.0000     -0.0000      0.0000      0.0000      0.0000      0.8909
         7        -0.0000      0.0000      0.0000     -0.0000      0.0000     -0.1921
         8         0.0985      0.7574      0.7656     -0.0000     -0.0000      0.0000
         9         0.0000      0.0000      0.0000      0.2660     -0.0000     -0.0000
        10         0.2015     -0.4030     -0.5113      0.0000     -0.0000      0.0000
        11         0.0000     -0.0000      0.0000      0.0000     -0.4625      0.0000
        12        -0.0000      0.0000      0.0000     -0.0000     -0.0000      0.0873
        13         0.0925      0.3161      0.4689     -0.0000     -0.0000      0.0000
        14         0.0000      0.0000      0.0000      0.0000     -0.0189     -0.0000
        15         0.2376      0.3006      0.2593      0.0000     -0.0000      0.0000
        16        -0.0000     -0.0000     -0.0000      0.2702      0.0000      0.0000
        17        -0.0000     -0.0000     -0.0000     -0.0000      0.0000      0.0681
        18         0.6765      0.6509      0.2339      0.0000      0.0000     -0.0000
        19        -0.0000      0.0000     -0.0000      0.2327     -0.0000     -0.0000
        20         0.0000     -0.0000     -0.0000     -0.0000     -0.3102      0.0000
        21         0.0000     -0.0000     -0.0000      0.0000      0.3406      0.0000
        22        -0.0000      0.0000      0.0000     -0.0000     -0.0000     -0.3013
        23        -0.0000      0.0000      0.0000     -0.0000      0.0000     -0.1426
        24         0.2402     -0.5789     -0.0801      0.0000     -0.0000     -0.0000
        25         0.0000      0.0000      0.0000      0.0000     -0.4924      0.0000
        26         0.1414     -0.1103      0.3940      0.0000      0.0000     -0.0000
        27        -0.0000      0.0000     -0.0000      0.0000     -0.0000     -0.3326
        28        -0.5108     -0.2016     -0.2075      0.0000      0.0000     -0.0000
        29        -0.0000      0.0000     -0.0000      0.2398      0.0000     -0.0000
        30         0.2046      0.7055     -0.1961     -0.0000     -0.0000      0.0000
 <0|del|b> * <b|rxdel|0> + <0|del|b> * <b|delr+rdel|0>
 Rotatory Strengths (R) in cgs (10**-40 erg-esu-cm/Gauss)
       state          XX          YY          ZZ    R(velocity)    E-M Angle
         1         0.0000      0.0000     -0.0000      0.0000       90.00
         2        -0.0000      0.0000      0.0000      0.0000       90.00
         3        -0.0000     -0.0000     -0.0000     -0.0000       90.00
         4        -0.0000     -0.0000      0.0000     -0.0000       90.00
         5        -0.0000     -0.0000      0.0000     -0.0000       90.00
         6         0.0000      0.0000     -0.0000     -0.0000       90.00
         7        -0.0000      0.0000      0.0000      0.0000       90.00
         8         0.0000     -0.0000     -0.0000     -0.0000       90.00
         9         0.0000     -0.0000     -0.0000      0.0000       90.00
        10         0.0000     -0.0000     -0.0000      0.0000       90.00
        11        -0.0000      0.0000     -0.0000     -0.0000       90.00
        12        -0.0000      0.0000      0.0000      0.0000       90.00
        13        -0.0000      0.0000     -0.0000      0.0000       90.00
        14         0.0000     -0.0000      0.0000     -0.0000       90.00
        15         0.0000      0.0000      0.0000      0.0000       90.00
        16        -0.0000     -0.0000      0.0000     -0.0000       90.00
        17         0.0000      0.0000      0.0000      0.0000       90.00
        18        -0.0000      0.0000      0.0000      0.0000       90.00
        19        -0.0000      0.0000     -0.0000     -0.0000       90.00
        20        -0.0000      0.0000      0.0000      0.0000       90.00
        21        -0.0000      0.0000     -0.0000     -0.0000       90.00
        22         0.0000     -0.0000      0.0000      0.0000       90.00
        23        -0.0000     -0.0000     -0.0000     -0.0000       90.00
        24         0.0000     -0.0000      0.0000      0.0000       90.00
        25        -0.0000      0.0000      0.0000      0.0000       90.00
        26        -0.0000     -0.0000     -0.0000     -0.0000       90.00
        27        -0.0000     -0.0000      0.0000     -0.0000       90.00
        28        -0.0000      0.0000     -0.0000      0.0000       90.00
        29        -0.0000      0.0000      0.0000     -0.0000       90.00
        30        -0.0000      0.0000      0.0000     -0.0000       90.00
 1/2[<0|r|b>*<b|rxdel|0> + (<0|rxdel|b>*<b|r|0>)*]
 Rotatory Strengths (R) in cgs (10**-40 erg-esu-cm/Gauss)
       state          XX          YY          ZZ     R(length)
         1        -0.0000      0.0000      0.0000      0.0000
         2        -0.0000      0.0000      0.0000      0.0000
         3        -0.0000      0.0000     -0.0000      0.0000
         4         0.0000     -0.0000     -0.0000     -0.0000
         5         0.0000      0.0000     -0.0000     -0.0000
         6        -0.0000     -0.0000      0.0000     -0.0000
         7         0.0000     -0.0000     -0.0000     -0.0000
         8        -0.0000      0.0000     -0.0000     -0.0000
         9        -0.0000      0.0000      0.0000      0.0000
        10        -0.0000     -0.0000      0.0000      0.0000
        11         0.0000     -0.0000     -0.0000     -0.0000
        12         0.0000     -0.0000     -0.0000      0.0000
        13        -0.0000     -0.0000      0.0000      0.0000
        14        -0.0000     -0.0000      0.0000     -0.0000
        15         0.0000      0.0000      0.0000      0.0000
        16         0.0000      0.0000     -0.0000     -0.0000
        17         0.0000      0.0000      0.0000      0.0000
        18         0.0000      0.0000      0.0000      0.0000
        19        -0.0000     -0.0000     -0.0000     -0.0000
        20         0.0000      0.0000     -0.0000      0.0000
        21         0.0000     -0.0000      0.0000     -0.0000
        22        -0.0000      0.0000     -0.0000      0.0000
        23        -0.0000      0.0000     -0.0000     -0.0000
        24         0.0000     -0.0000      0.0000      0.0000
        25         0.0000     -0.0000      0.0000      0.0000
        26        -0.0000     -0.0000     -0.0000     -0.0000
        27        -0.0000      0.0000      0.0000     -0.0000
        28        -0.0000      0.0000      0.0000      0.0000
        29         0.0000      0.0000      0.0000      0.0000
        30        -0.0000      0.0000     -0.0000     -0.0000
  1/2[<0|del|b>*<b|r|0> + (<0|r|b>*<b|del|0>)*] (Au)
       state          X           Y           Z        Dip. S.   Osc.(frdel)
         1        -0.0000      0.0000     -0.0000     -0.0000     -0.0000
         2        -0.0000     -0.1094      0.0000      0.1094      0.0729
         3        -0.0000     -0.0321      0.0000      0.0321      0.0214
         4        -0.0000      0.0000     -0.0699      0.0699      0.0466
         5        -0.0000     -0.0000     -0.0000      0.0000      0.0000
         6        -0.0000     -0.4014     -0.0000      0.4014      0.2676
         7        -0.0000     -0.0114      0.0000      0.0114      0.0076
         8         0.0000      0.0000     -0.0022      0.0022      0.0015
         9        -0.0000     -0.0000     -0.0000      0.0000      0.0000
        10         0.0000     -0.0000     -0.2121      0.2121      0.1414
        11        -0.0005     -0.0000      0.0000      0.0005      0.0003
        12        -0.0000     -0.0638      0.0000      0.0638      0.0426
        13        -0.0000      0.0000     -0.0095      0.0095      0.0064
        14        -0.0610      0.0000     -0.0000      0.0610      0.0407
        15        -0.0000     -0.0000     -0.4305      0.4305      0.2870
        16        -0.0000     -0.0000     -0.0000      0.0000      0.0000
        17        -0.0000     -0.0661     -0.0000      0.0661      0.0441
        18        -0.0000      0.0000     -0.0595      0.0595      0.0397
        19        -0.0000     -0.0000     -0.0000      0.0000      0.0000
        20        -0.0258     -0.0000     -0.0000      0.0258      0.0172
        21        -0.0337     -0.0000     -0.0000      0.0337      0.0225
        22         0.0000     -0.1222     -0.0000      0.1222      0.0815
        23        -0.0000     -0.0242     -0.0000      0.0242      0.0161
        24        -0.0000     -0.0000     -0.2039      0.2039      0.1359
        25        -0.2293     -0.0000     -0.0000      0.2293      0.1529
        26        -0.0000     -0.0000     -0.0434      0.0434      0.0289
        27        -0.0000     -0.0197     -0.0000      0.0197      0.0131
        28        -0.0000     -0.0000     -0.0237      0.0237      0.0158
        29        -0.0000     -0.0000      0.0000      0.0000      0.0000
        30         0.0000     -0.0000     -0.0386      0.0386      0.0258

 Excitation energies and oscillator strengths:
 
 Excited State   1:      Singlet-A2     5.3100 eV  233.49 nm  f=0.0000  <S**2>=0.000
       3 -> 27         0.00299
       3 -> 36         0.00242
       3 -> 46         0.00150
       4 -> 27         0.00323
       4 -> 36        -0.00075
       4 -> 46        -0.00084
       5 ->  9         0.01306
       5 -> 13        -0.00940
       5 -> 17         0.00620
       5 -> 22        -0.00324
       5 -> 28         0.00335
       5 -> 31         0.00248
       5 -> 37         0.00390
       5 -> 43         0.00062
       5 -> 52         0.00080
       6 -> 12        -0.00060
       6 -> 16        -0.00148
       6 -> 18        -0.00091
       6 -> 23         0.00175
       6 -> 24         0.00082
       6 -> 29        -0.00055
       6 -> 33         0.00030
       6 -> 35         0.00055
       6 -> 40        -0.00018
       6 -> 42         0.00047
       6 -> 47         0.00066
       6 -> 50        -0.00017
       6 -> 53         0.00033
       7 -> 27         0.00084
       7 -> 36        -0.00043
       7 -> 46         0.00140
       8 ->  9         0.69697
       8 -> 13        -0.11498
       8 -> 17         0.02825
       8 -> 22        -0.01039
       8 -> 28         0.00597
       8 -> 31         0.00350
       8 -> 37        -0.00202
       8 -> 43        -0.00025
       8 -> 52         0.00111
       3 <- 27         0.00215
       3 <- 36         0.00207
       3 <- 46         0.00157
       4 <- 27         0.00386
       4 <- 36        -0.00036
       4 <- 46        -0.00079
       5 <-  9         0.00024
       5 <- 13        -0.00108
       5 <- 17        -0.00026
       5 <- 22         0.00037
       5 <- 28        -0.00022
       5 <- 31        -0.00112
       5 <- 37         0.00175
       5 <- 43         0.00043
       5 <- 49         0.00014
       5 <- 52         0.00020
       6 <- 12        -0.00096
       6 <- 16         0.00326
       6 <- 18        -0.00287
       6 <- 23         0.00549
       6 <- 24        -0.00135
       6 <- 29         0.00191
       6 <- 33        -0.00109
       6 <- 35         0.00226
       6 <- 40        -0.00026
       6 <- 42         0.00097
       6 <- 47         0.00050
       6 <- 53         0.00088
       7 <- 27         0.00108
       7 <- 36        -0.00046
       7 <- 46         0.00109
       8 <-  9        -0.01228
       8 <- 13         0.00753
       8 <- 17        -0.00396
       8 <- 22         0.00059
       8 <- 28        -0.00042
       8 <- 31         0.00245
       8 <- 37        -0.00225
       8 <- 52         0.00034
 This state for optimization and/or second-order correction.
 Total Energy, E(TD-HF/TD-DFT) =  -114.174258453    
 Copying the excited state density for this state as the 1-particle RhoCI density.
 
 Excited State   2:      Singlet-B2     6.1862 eV  200.42 nm  f=0.0744  <S**2>=0.000
       3 -> 12         0.00100
       3 -> 16        -0.00010
       3 -> 18         0.00112
       3 -> 23        -0.00012
       3 -> 24         0.00122
       3 -> 29        -0.00016
       3 -> 35        -0.00016
       3 -> 42         0.00011
       3 -> 50        -0.00014
       4 -> 12        -0.00557
       4 -> 16         0.00045
       4 -> 18         0.00207
       4 -> 23        -0.00291
       4 -> 24         0.00402
       4 -> 29        -0.00034
       4 -> 33        -0.00095
       4 -> 35         0.00089
       4 -> 40        -0.00024
       4 -> 42         0.00044
       5 -> 10         0.00019
       5 -> 11        -0.00790
       5 -> 14         0.00594
       5 -> 15         0.00151
       5 -> 19         0.00361
       5 -> 20        -0.00079
       5 -> 21         0.00348
       5 -> 25         0.00090
       5 -> 26        -0.00152
       5 -> 30         0.00248
       5 -> 32        -0.00015
       5 -> 38        -0.00068
       5 -> 39         0.00020
       5 -> 41         0.00023
       5 -> 44        -0.00047
       5 -> 45        -0.00058
       5 -> 48         0.00032
       6 -> 27         0.00080
       6 -> 46         0.00082
       7 -> 12         0.00195
       7 -> 16         0.00132
       7 -> 18         0.00429
       7 -> 23        -0.00251
       7 -> 24         0.00217
       7 -> 42        -0.00038
       7 -> 47         0.00036
       7 -> 50         0.00051
       8 -> 10         0.70604
       8 -> 11        -0.02720
       8 -> 14        -0.01114
       8 -> 15         0.01123
       8 -> 19         0.01939
       8 -> 20         0.00897
       8 -> 21        -0.00679
       8 -> 25         0.00081
       8 -> 26        -0.00079
       8 -> 30         0.00022
       8 -> 32         0.00236
       8 -> 34         0.00175
       8 -> 38         0.00071
       8 -> 39        -0.00058
       8 -> 41        -0.00024
       8 -> 44         0.00061
       8 -> 45        -0.00099
       8 -> 48         0.00024
       8 -> 54        -0.00016
       3 <- 12         0.00031
       3 <- 16        -0.00025
       3 <- 18         0.00059
       3 <- 23        -0.00019
       3 <- 24         0.00085
       3 <- 29        -0.00015
       3 <- 35        -0.00016
       4 <- 12         0.00021
       4 <- 18         0.00277
       4 <- 23        -0.00177
       4 <- 24         0.00298
       4 <- 29        -0.00027
       4 <- 33        -0.00069
       4 <- 35         0.00065
       4 <- 40        -0.00024
       4 <- 42         0.00014
       5 <- 10         0.00227
       5 <- 14         0.00455
       5 <- 15         0.00154
       5 <- 19         0.00091
       5 <- 20        -0.00012
       5 <- 21         0.00199
       5 <- 25         0.00168
       5 <- 26        -0.00131
       5 <- 30         0.00088
       5 <- 32        -0.00047
       5 <- 34        -0.00012
       5 <- 38        -0.00049
       5 <- 39         0.00016
       5 <- 41         0.00031
       5 <- 44        -0.00031
       5 <- 45        -0.00050
       5 <- 48         0.00029
       6 <- 27         0.00061
       6 <- 46         0.00070
       7 <- 12         0.00055
       7 <- 16         0.00123
       7 <- 18         0.00174
       7 <- 23        -0.00098
       7 <- 24         0.00094
       7 <- 29         0.00057
       7 <- 33        -0.00014
       7 <- 35         0.00014
       7 <- 42        -0.00034
       7 <- 47         0.00032
       7 <- 50         0.00055
       8 <- 10        -0.00371
       8 <- 11        -0.00145
       8 <- 14        -0.01112
       8 <- 15        -0.00116
       8 <- 19        -0.00081
       8 <- 20        -0.00033
       8 <- 21        -0.00383
       8 <- 25        -0.00304
       8 <- 26        -0.00053
       8 <- 30        -0.00057
       8 <- 32         0.00106
       8 <- 34         0.00160
       8 <- 38         0.00072
       8 <- 39        -0.00047
       8 <- 41        -0.00011
       8 <- 44         0.00052
       8 <- 45        -0.00068
       8 <- 48         0.00025
 
 Excited State   3:      Singlet-B2     6.9732 eV  177.80 nm  f=0.0207  <S**2>=0.000
       3 -> 12        -0.00014
       3 -> 16         0.00070
       3 -> 18         0.00019
       3 -> 23         0.00019
       3 -> 24         0.00040
       3 -> 29         0.00115
       3 -> 33         0.00014
       3 -> 35        -0.00031
       3 -> 42        -0.00032
       3 -> 47         0.00021
       3 -> 50         0.00024
       4 -> 12         0.00303
       4 -> 16         0.00311
       4 -> 18         0.00286
       4 -> 23        -0.00153
       4 -> 24         0.00355
       4 -> 29        -0.00110
       4 -> 33         0.00055
       4 -> 35        -0.00025
       4 -> 40        -0.00022
       4 -> 47         0.00015
       4 -> 50         0.00015
       5 -> 10        -0.00613
       5 -> 11         0.00021
       5 -> 14         0.00387
       5 -> 15         0.00540
       5 -> 19        -0.00371
       5 -> 20        -0.00143
       5 -> 21         0.00123
       5 -> 25         0.00114
       5 -> 26         0.00124
       5 -> 30         0.00085
       5 -> 32        -0.00196
       5 -> 34        -0.00069
       5 -> 39        -0.00064
       5 -> 41        -0.00082
       5 -> 45         0.00064
       5 -> 48        -0.00045
       5 -> 51        -0.00025
       6 -> 27        -0.00074
       6 -> 36        -0.00129
       6 -> 46        -0.00120
       7 -> 12        -0.00307
       7 -> 16         0.00090
       7 -> 18        -0.00228
       7 -> 23         0.00141
       7 -> 24        -0.00015
       7 -> 29         0.00014
       7 -> 33        -0.00031
       7 -> 35         0.00131
       7 -> 40        -0.00036
       7 -> 42         0.00072
       7 -> 47        -0.00068
       7 -> 50        -0.00065
       7 -> 53         0.00015
       8 -> 10         0.02776
       8 -> 11         0.70557
       8 -> 14        -0.01523
       8 -> 15        -0.02136
       8 -> 19        -0.02006
       8 -> 20         0.01418
       8 -> 21        -0.00234
       8 -> 25         0.00032
       8 -> 26         0.00034
       8 -> 30        -0.00162
       8 -> 32         0.00012
       8 -> 34         0.00042
       8 -> 38        -0.00012
       8 -> 39        -0.00040
       8 -> 41        -0.00140
       8 -> 45         0.00080
       8 -> 48        -0.00073
       8 -> 51        -0.00023
       8 -> 54         0.00017
       3 <- 12         0.00027
       3 <- 16         0.00052
       3 <- 18         0.00048
       3 <- 24         0.00047
       3 <- 29         0.00074
       3 <- 33         0.00019
       3 <- 35        -0.00035
       3 <- 42        -0.00028
       3 <- 47         0.00017
       3 <- 50         0.00014
       3 <- 53        -0.00022
       4 <- 12         0.00032
       4 <- 16         0.00021
       4 <- 18         0.00122
       4 <- 23        -0.00127
       4 <- 24         0.00160
       4 <- 29        -0.00045
       4 <- 33         0.00054
       4 <- 40        -0.00021
       4 <- 42        -0.00013
       4 <- 50         0.00022
       5 <- 10         0.00135
       5 <- 11        -0.00046
       5 <- 14         0.00196
       5 <- 15         0.00051
       5 <- 19         0.00065
       5 <- 20         0.00015
       5 <- 21         0.00099
       5 <- 25         0.00097
       5 <- 26         0.00088
       5 <- 30         0.00079
       5 <- 32        -0.00053
       5 <- 34        -0.00117
       5 <- 38         0.00012
       5 <- 39        -0.00042
       5 <- 41        -0.00083
       5 <- 44        -0.00014
       5 <- 45         0.00063
       5 <- 48        -0.00031
       5 <- 51        -0.00024
       6 <- 27        -0.00029
       6 <- 36        -0.00106
       6 <- 46        -0.00103
       7 <- 12        -0.00036
       7 <- 16        -0.00017
       7 <- 18        -0.00030
       7 <- 23         0.00031
       7 <- 29        -0.00019
       7 <- 33        -0.00011
       7 <- 35         0.00094
       7 <- 40        -0.00028
       7 <- 42         0.00051
       7 <- 47        -0.00059
       7 <- 50        -0.00058
       8 <- 10        -0.00139
       8 <- 11         0.00102
       8 <- 14        -0.00561
       8 <- 15        -0.00107
       8 <- 19         0.00227
       8 <- 20        -0.00174
       8 <- 21        -0.00244
       8 <- 25        -0.00025
       8 <- 26         0.00109
       8 <- 30        -0.00098
       8 <- 32         0.00113
       8 <- 34        -0.00012
       8 <- 38        -0.00028
       8 <- 39        -0.00017
       8 <- 41        -0.00118
       8 <- 45         0.00068
       8 <- 48        -0.00047
       8 <- 51        -0.00023
 
 Excited State   4:      Singlet-A1     7.1116 eV  174.34 nm  f=0.0488  <S**2>=0.000
       3 -> 10         0.00142
       3 -> 11        -0.00092
       3 -> 14         0.00025
       3 -> 15         0.00052
       3 -> 19         0.00123
       3 -> 20         0.00057
       3 -> 25         0.00012
       3 -> 26        -0.00023
       3 -> 30         0.00114
       3 -> 32        -0.00029
       3 -> 34        -0.00021
       3 -> 38        -0.00035
       3 -> 39        -0.00021
       3 -> 41        -0.00017
       3 -> 48        -0.00015
       3 -> 51        -0.00032
       3 -> 54         0.00021
       4 -> 10         0.00555
       4 -> 11         0.00967
       4 -> 14         0.00621
       4 -> 15         0.00117
       4 -> 19         0.00077
       4 -> 20         0.00635
       4 -> 21         0.00247
       4 -> 25         0.00698
       4 -> 26        -0.00080
       4 -> 30        -0.00066
       4 -> 32        -0.00045
       4 -> 34        -0.00093
       4 -> 38        -0.00016
       4 -> 39         0.00064
       4 -> 41         0.00020
       4 -> 45        -0.00031
       4 -> 48        -0.00025
       5 -> 12         0.00773
       5 -> 16         0.00549
       5 -> 18         0.00984
       5 -> 24         0.00453
       5 -> 29         0.00049
       5 -> 33        -0.00016
       5 -> 35         0.00090
       5 -> 42        -0.00020
       5 -> 50        -0.00036
       5 -> 53        -0.00015
       6 ->  9         0.00895
       6 -> 13         0.00479
       6 -> 17         0.00513
       6 -> 22         0.00452
       6 -> 28         0.00044
       6 -> 31         0.00087
       6 -> 37         0.00053
       6 -> 43         0.00057
       6 -> 49        -0.00037
       7 -> 10         0.01333
       7 -> 11        -0.00486
       7 -> 14         0.00347
       7 -> 15        -0.00132
       7 -> 19         0.00690
       7 -> 20         0.00374
       7 -> 21         0.00148
       7 -> 25         0.00214
       7 -> 26        -0.00041
       7 -> 30        -0.00014
       7 -> 32         0.00057
       7 -> 34        -0.00087
       7 -> 39         0.00019
       7 -> 44         0.00010
       7 -> 48        -0.00019
       7 -> 51         0.00051
       8 -> 12         0.70557
       8 -> 16         0.03704
       8 -> 18         0.01315
       8 -> 23         0.00454
       8 -> 24         0.00148
       8 -> 29         0.00267
       8 -> 33         0.00152
       8 -> 35        -0.00239
       8 -> 42         0.00125
       8 -> 47        -0.00039
       8 -> 50        -0.00018
       8 -> 53        -0.00015
       3 <- 10         0.00057
       3 <- 11        -0.00030
       3 <- 14         0.00017
       3 <- 15         0.00022
       3 <- 19         0.00064
       3 <- 20         0.00025
       3 <- 25         0.00025
       3 <- 30         0.00068
       3 <- 32        -0.00023
       3 <- 34        -0.00012
       3 <- 38        -0.00027
       3 <- 39        -0.00018
       3 <- 41        -0.00016
       3 <- 45         0.00010
       3 <- 48        -0.00017
       3 <- 51        -0.00027
       3 <- 54         0.00019
       4 <- 10         0.00549
       4 <- 11         0.00316
       4 <- 14         0.00459
       4 <- 15         0.00135
       4 <- 19         0.00059
       4 <- 20         0.00359
       4 <- 21         0.00093
       4 <- 25         0.00413
       4 <- 26        -0.00037
       4 <- 32        -0.00073
       4 <- 34        -0.00092
       4 <- 38        -0.00024
       4 <- 39         0.00057
       4 <- 45        -0.00030
       4 <- 48        -0.00021
       5 <- 12         0.00271
       5 <- 16         0.00093
       5 <- 18         0.00424
       5 <- 23         0.00040
       5 <- 24         0.00246
       5 <- 29         0.00011
       5 <- 33        -0.00031
       5 <- 35         0.00080
       5 <- 42        -0.00018
       5 <- 50        -0.00028
       5 <- 53        -0.00013
       6 <-  9         0.00258
       6 <- 13         0.00172
       6 <- 17         0.00213
       6 <- 22         0.00258
       6 <- 28         0.00023
       6 <- 31         0.00065
       6 <- 37         0.00043
       6 <- 43         0.00048
       6 <- 49        -0.00032
       7 <- 10         0.00430
       7 <- 11        -0.00097
       7 <- 14         0.00161
       7 <- 15        -0.00044
       7 <- 19         0.00279
       7 <- 20         0.00206
       7 <- 21         0.00056
       7 <- 25         0.00123
       7 <- 26        -0.00043
       7 <- 32         0.00031
       7 <- 34        -0.00064
       7 <- 39         0.00026
       7 <- 41         0.00013
       7 <- 51         0.00047
       8 <- 12        -0.00290
       8 <- 16         0.00758
       8 <- 18        -0.00763
       8 <- 24        -0.00235
       8 <- 29         0.00111
       8 <- 33         0.00104
       8 <- 35        -0.00158
       8 <- 42         0.00103
       8 <- 47        -0.00046
       8 <- 50        -0.00016
       8 <- 53        -0.00017
 
 Excited State   5:      Singlet-A2     7.7175 eV  160.65 nm  f=0.0000  <S**2>=0.000
       3 -> 27        -0.00126
       3 -> 36        -0.00108
       3 -> 46        -0.00058
       4 -> 27        -0.00036
       4 -> 36         0.00067
       4 -> 46         0.00019
       5 ->  9        -0.00966
       5 -> 13         0.00469
       5 -> 17         0.00380
       5 -> 22         0.00020
       5 -> 31        -0.00212
       5 -> 37        -0.00197
       5 -> 43        -0.00030
       5 -> 52        -0.00030
       6 -> 12        -0.00036
       6 -> 16         0.00205
       6 -> 18         0.00097
       6 -> 23        -0.00102
       6 -> 24        -0.00026
       6 -> 29         0.00030
       6 -> 35        -0.00029
       6 -> 42        -0.00026
       6 -> 47        -0.00025
       6 -> 53        -0.00014
       7 -> 36         0.00026
       7 -> 46        -0.00061
       8 ->  9         0.11536
       8 -> 13         0.69721
       8 -> 17         0.00305
       8 -> 22         0.02170
       8 -> 28        -0.00110
       8 -> 31        -0.00133
       8 -> 37         0.00052
       8 -> 43         0.00012
       8 -> 49         0.00018
       8 -> 52        -0.00036
       3 <- 27        -0.00069
       3 <- 36        -0.00086
       3 <- 46        -0.00068
       4 <- 27        -0.00089
       4 <- 46         0.00022
       5 <-  9        -0.00028
       5 <- 17         0.00061
       5 <- 22        -0.00011
       5 <- 31         0.00013
       5 <- 37        -0.00058
       5 <- 43        -0.00015
       6 <- 12        -0.00056
       6 <- 16         0.00052
       6 <- 18         0.00061
       6 <- 23        -0.00207
       6 <- 33         0.00062
       6 <- 35        -0.00111
       6 <- 40         0.00012
       6 <- 42        -0.00060
       6 <- 53        -0.00029
       7 <- 27        -0.00028
       7 <- 36         0.00025
       7 <- 46        -0.00028
       8 <-  9         0.00552
       8 <- 13         0.00033
       8 <- 17         0.00049
       8 <- 22        -0.00044
       8 <- 28         0.00018
       8 <- 31        -0.00061
       8 <- 37         0.00065
       8 <- 52        -0.00015
 
 Excited State   6:      Singlet-B2    10.0889 eV  122.89 nm  f=0.2663  <S**2>=0.000
       3 -> 12        -0.00041
       3 -> 16         0.00183
       3 -> 18        -0.00036
       3 -> 23         0.00140
       3 -> 24         0.00074
       3 -> 29         0.00131
       3 -> 33        -0.00089
       3 -> 35         0.00010
       3 -> 40         0.00031
       3 -> 42         0.00065
       3 -> 47         0.00032
       3 -> 50         0.00017
       4 -> 12        -0.01204
       4 -> 16         0.00525
       4 -> 18         0.00198
       4 -> 23        -0.01485
       4 -> 24         0.01105
       4 -> 33         0.00254
       4 -> 35        -0.00324
       4 -> 40        -0.00044
       4 -> 42         0.00242
       4 -> 47         0.00017
       5 -> 10         0.01197
       5 -> 11        -0.00711
       5 -> 14         0.02825
       5 -> 15         0.00783
       5 -> 19         0.00511
       5 -> 20        -0.01497
       5 -> 21         0.01499
       5 -> 25         0.00742
       5 -> 26        -0.00209
       5 -> 30        -0.00112
       5 -> 32         0.00281
       5 -> 34         0.00277
       5 -> 38         0.00018
       5 -> 39        -0.00223
       5 -> 41        -0.00030
       5 -> 44        -0.00052
       5 -> 51        -0.00021
       6 -> 27         0.00755
       6 -> 36         0.00036
       6 -> 46        -0.00052
       7 -> 12         0.00254
       7 -> 16         0.00424
       7 -> 18         0.00889
       7 -> 23        -0.00761
       7 -> 24         0.00646
       7 -> 29         0.00134
       7 -> 33         0.00170
       7 -> 35        -0.00091
       7 -> 40        -0.00052
       7 -> 42         0.00085
       7 -> 47        -0.00043
       7 -> 50        -0.00020
       8 -> 10         0.01105
       8 -> 11         0.01437
       8 -> 14         0.70437
       8 -> 15        -0.02860
       8 -> 19         0.02101
       8 -> 20         0.01160
       8 -> 21        -0.03574
       8 -> 25        -0.00950
       8 -> 26        -0.00110
       8 -> 30        -0.00067
       8 -> 32         0.00370
       8 -> 34         0.00270
       8 -> 38         0.00062
       8 -> 39         0.00483
       8 -> 41        -0.00152
       8 -> 44         0.00149
       8 -> 45        -0.00092
       8 -> 48        -0.00090
       3 <- 12        -0.00029
       3 <- 16         0.00087
       3 <- 18        -0.00027
       3 <- 23         0.00063
       3 <- 24         0.00046
       3 <- 29         0.00076
       3 <- 33        -0.00051
       3 <- 40         0.00022
       3 <- 42         0.00050
       3 <- 47         0.00032
       3 <- 50         0.00011
       3 <- 53        -0.00011
       4 <- 12        -0.00215
       4 <- 16         0.00152
       4 <- 18         0.00306
       4 <- 23        -0.00773
       4 <- 24         0.00645
       4 <- 29         0.00018
       4 <- 33         0.00088
       4 <- 35        -0.00229
       4 <- 40        -0.00050
       4 <- 42         0.00168
       4 <- 50         0.00021
       5 <- 10         0.00365
       5 <- 11        -0.00158
       5 <- 14         0.01077
       5 <- 15         0.00310
       5 <- 19         0.00232
       5 <- 20        -0.00603
       5 <- 21         0.00758
       5 <- 25         0.00443
       5 <- 26        -0.00143
       5 <- 30        -0.00114
       5 <- 32         0.00192
       5 <- 34         0.00091
       5 <- 38         0.00016
       5 <- 39        -0.00165
       5 <- 44        -0.00033
       5 <- 45         0.00012
       5 <- 51        -0.00014
       6 <- 27         0.00492
       6 <- 46        -0.00061
       7 <- 12         0.00037
       7 <- 16         0.00129
       7 <- 18         0.00300
       7 <- 23        -0.00357
       7 <- 24         0.00308
       7 <- 29         0.00095
       7 <- 33         0.00094
       7 <- 35        -0.00056
       7 <- 40        -0.00049
       7 <- 42         0.00058
       7 <- 47        -0.00035
       8 <- 10        -0.01167
       8 <- 11        -0.00555
       8 <- 14        -0.02600
       8 <- 15        -0.00190
       8 <- 19         0.00224
       8 <- 20         0.00440
       8 <- 21        -0.01777
       8 <- 25        -0.00656
       8 <- 26         0.00021
       8 <- 30        -0.00058
       8 <- 32         0.00167
       8 <- 34         0.00087
       8 <- 38         0.00046
       8 <- 39         0.00303
       8 <- 41        -0.00106
       8 <- 44         0.00113
       8 <- 45        -0.00033
       8 <- 48        -0.00067
 
 Excited State   7:      Singlet-B2    10.4926 eV  118.16 nm  f=0.0123  <S**2>=0.000
       3 -> 16         0.00059
       3 -> 18        -0.00036
       3 -> 23         0.00134
       3 -> 24         0.00014
       3 -> 29         0.00048
       3 -> 33        -0.00024
       3 -> 35         0.00044
       3 -> 42         0.00025
       4 -> 12        -0.00202
       4 -> 16        -0.00237
       4 -> 18         0.00069
       4 -> 23        -0.00416
       4 -> 24        -0.00124
       4 -> 33        -0.00085
       4 -> 40         0.00020
       4 -> 42         0.00015
       4 -> 47         0.00020
       4 -> 50         0.00013
       5 -> 11         0.00815
       5 -> 14         0.00182
       5 -> 15         0.01324
       5 -> 19         0.00017
       5 -> 20        -0.00148
       5 -> 21        -0.00021
       5 -> 25        -0.00036
       5 -> 26        -0.00338
       5 -> 30        -0.00136
       5 -> 32         0.00114
       5 -> 34        -0.00064
       5 -> 38         0.00056
       5 -> 39         0.00036
       5 -> 41        -0.00066
       5 -> 44        -0.00057
       5 -> 45         0.00031
       5 -> 48        -0.00029
       5 -> 51         0.00013
       5 -> 54         0.00020
       6 -> 27         0.00080
       6 -> 36         0.00014
       6 -> 46        -0.00045
       7 -> 12        -0.00023
       7 -> 16        -0.00032
       7 -> 18        -0.00025
       7 -> 23         0.00178
       7 -> 24         0.00086
       7 -> 29         0.00087
       7 -> 33        -0.00015
       7 -> 35         0.00034
       7 -> 40        -0.00024
       7 -> 42         0.00032
       7 -> 47        -0.00022
       7 -> 50        -0.00030
       8 -> 10        -0.01019
       8 -> 11         0.02305
       8 -> 14         0.02756
       8 -> 15         0.70539
       8 -> 19         0.01727
       8 -> 20        -0.01562
       8 -> 21        -0.01088
       8 -> 25         0.00565
       8 -> 26        -0.00765
       8 -> 30        -0.00089
       8 -> 34        -0.00050
       8 -> 38         0.00105
       8 -> 41        -0.00032
       8 -> 44         0.00038
       8 -> 45         0.00042
       8 -> 54         0.00019
       3 <- 12        -0.00023
       3 <- 16         0.00075
       3 <- 18        -0.00043
       3 <- 23         0.00065
       3 <- 24        -0.00041
       3 <- 29         0.00060
       3 <- 33        -0.00025
       3 <- 35         0.00038
       3 <- 42         0.00014
       4 <- 18         0.00074
       4 <- 23        -0.00067
       4 <- 24         0.00052
       4 <- 29         0.00022
       4 <- 33        -0.00069
       4 <- 35        -0.00030
       4 <- 40         0.00013
       4 <- 47         0.00019
       4 <- 50         0.00019
       5 <- 10         0.00068
       5 <- 11        -0.00058
       5 <- 14         0.00088
       5 <- 15         0.00064
       5 <- 19         0.00123
       5 <- 20        -0.00088
       5 <- 21         0.00014
       5 <- 25         0.00050
       5 <- 26        -0.00029
       5 <- 30        -0.00035
       5 <- 32         0.00067
       5 <- 38        -0.00015
       5 <- 39         0.00017
       5 <- 41        -0.00015
       5 <- 44        -0.00023
       5 <- 45         0.00013
       5 <- 48        -0.00024
       5 <- 51        -0.00011
       6 <- 27         0.00030
       6 <- 36         0.00022
       6 <- 46        -0.00022
       7 <- 12         0.00035
       7 <- 16        -0.00112
       7 <- 18         0.00054
       7 <- 24         0.00091
       7 <- 29        -0.00057
       7 <- 40        -0.00014
       7 <- 42         0.00030
       7 <- 47        -0.00028
       7 <- 50        -0.00046
       7 <- 53        -0.00020
       8 <- 10        -0.00168
       8 <- 11        -0.00108
       8 <- 14        -0.00276
       8 <- 15         0.00098
       8 <- 19         0.00050
       8 <- 20         0.00108
       8 <- 21        -0.00076
       8 <- 25        -0.00091
       8 <- 26         0.00029
       8 <- 30         0.00058
       8 <- 32         0.00029
       8 <- 34        -0.00020
       8 <- 38         0.00078
       8 <- 41        -0.00018
       8 <- 44         0.00028
       8 <- 45         0.00023
       8 <- 48        -0.00016
       8 <- 51        -0.00017
 
 Excited State   8:      Singlet-A1    11.4915 eV  107.89 nm  f=0.0013  <S**2>=0.000
       3 -> 10        -0.00074
       3 -> 11         0.00148
       3 -> 14         0.00130
       3 -> 15        -0.00209
       3 -> 19        -0.00228
       3 -> 20         0.00135
       3 -> 21         0.00205
       3 -> 25        -0.00185
       3 -> 26        -0.00012
       3 -> 30         0.00047
       3 -> 32        -0.00118
       3 -> 34         0.00267
       3 -> 38        -0.00020
       3 -> 39        -0.00013
       3 -> 41         0.00124
       3 -> 44         0.00020
       3 -> 45        -0.00088
       3 -> 48        -0.00028
       3 -> 51        -0.00032
       3 -> 54         0.00025
       4 -> 10        -0.02513
       4 -> 11        -0.00867
       4 -> 14        -0.01075
       4 -> 15        -0.00989
       4 -> 19        -0.00115
       4 -> 20        -0.01185
       4 -> 21        -0.00148
       4 -> 25        -0.00412
       4 -> 26         0.00414
       4 -> 30        -0.00103
       4 -> 32         0.00317
       4 -> 34        -0.00093
       4 -> 39        -0.00080
       4 -> 45         0.00063
       4 -> 48        -0.00013
       4 -> 51        -0.00037
       4 -> 54        -0.00028
       5 -> 12        -0.01396
       5 -> 16        -0.00029
       5 -> 18        -0.01198
       5 -> 23        -0.00234
       5 -> 24        -0.00868
       5 -> 29        -0.00219
       5 -> 33        -0.00102
       5 -> 35         0.00030
       5 -> 42         0.00133
       5 -> 47        -0.00049
       5 -> 50        -0.00056
       5 -> 53        -0.00022
       6 ->  9        -0.12214
       6 -> 13        -0.00114
       6 -> 17        -0.02941
       6 -> 22        -0.00529
       6 -> 28        -0.00984
       6 -> 31         0.00026
       6 -> 37         0.00041
       6 -> 43         0.00035
       6 -> 49        -0.00115
       6 -> 52        -0.00119
       7 -> 10        -0.06184
       7 -> 11         0.02255
       7 -> 14        -0.00572
       7 -> 15         0.01815
       7 -> 19        -0.01820
       7 -> 20        -0.00764
       7 -> 21        -0.00357
       7 -> 25        -0.00306
       7 -> 26        -0.00992
       7 -> 30        -0.00472
       7 -> 32        -0.00324
       7 -> 34         0.00082
       7 -> 38         0.00063
       7 -> 39        -0.00040
       7 -> 41         0.00077
       7 -> 44         0.00026
       7 -> 45        -0.00043
       7 -> 48         0.00086
       7 -> 51         0.00156
       7 -> 54         0.00075
       8 -> 12        -0.03450
       8 -> 16         0.65995
       8 -> 18         0.20212
       8 -> 23         0.00816
       8 -> 24         0.00968
       8 -> 29        -0.00376
       8 -> 33         0.00022
       8 -> 35         0.00155
       8 -> 40         0.00015
       8 -> 42        -0.00037
       8 -> 47        -0.00046
       8 -> 50        -0.00084
       8 -> 53        -0.00029
       3 <- 10        -0.00053
       3 <- 11         0.00098
       3 <- 14         0.00040
       3 <- 15        -0.00104
       3 <- 19        -0.00169
       3 <- 20         0.00072
       3 <- 21         0.00102
       3 <- 25        -0.00092
       3 <- 30         0.00018
       3 <- 32        -0.00098
       3 <- 34         0.00187
       3 <- 38        -0.00017
       3 <- 41         0.00106
       3 <- 44         0.00018
       3 <- 45        -0.00074
       3 <- 48        -0.00013
       3 <- 51        -0.00027
[...]
  54        6D-1        0.00000   0.00000  -0.00333  -0.00326   0.00300
  55        6D+2        0.00000   0.00000  -0.00009  -0.00016  -0.00002
  56        6D-2        0.00000   0.00000  -0.00000   0.00000  -0.00000
                          26        27        28        29        30
  26        4PX         0.00015
  27        4PY        -0.00000   0.00133
  28        4PZ         0.00000  -0.00053   0.00034
  29 3   H  1S          0.00000  -0.00356  -0.00110   0.08382
  30        2S          0.00000  -0.00504  -0.00176   0.12533   0.19260
  31        3S          0.00000  -0.00134  -0.00124   0.07386   0.12634
  32        4PX         0.00015   0.00000  -0.00000  -0.00000  -0.00000
  33        4PY         0.00000  -0.00071   0.00000   0.00718   0.00927
  34        4PZ         0.00000  -0.00000  -0.00017   0.00426   0.00577
  35 4   O  1S          0.00000  -0.00093  -0.00069   0.00342   0.00481
  36        2S          0.00000  -0.00196  -0.00049   0.00592   0.00902
  37        2PX         0.00424   0.00000  -0.00000  -0.00000  -0.00000
  38        2PY         0.00000  -0.00546   0.00306   0.02696   0.06428
  39        2PZ         0.00000  -0.00451  -0.00024   0.00905   0.02040
  40        3S         -0.00000   0.00721  -0.00072  -0.01989  -0.03172
  41        3PX         0.00616   0.00000  -0.00000  -0.00000  -0.00000
  42        3PY         0.00000  -0.00783   0.00436   0.03996   0.09445
  43        3PZ         0.00000  -0.00641  -0.00034   0.01290   0.02895
  44        4S         -0.00000   0.00336  -0.00117  -0.01660  -0.01881
  45        4PX         0.00423   0.00000  -0.00000  -0.00000  -0.00000
  46        4PY         0.00000  -0.00526   0.00212   0.05684   0.11517
  47        4PZ         0.00000  -0.00294  -0.00010   0.00709   0.01459
  48        5S         -0.00000   0.00010  -0.00049  -0.00496  -0.00379
  49        5PX         0.00012   0.00000   0.00000  -0.00000  -0.00000
  50        5PY         0.00000  -0.00019  -0.00081   0.03500   0.06098
  51        5PZ         0.00000  -0.00087   0.00018   0.00404   0.00564
  52        6D 0       -0.00000   0.00090   0.00001  -0.00204  -0.00409
  53        6D+1       -0.00060  -0.00000   0.00000  -0.00000  -0.00000
  54        6D-1       -0.00000   0.00076  -0.00062   0.00333   0.00326
  55        6D+2       -0.00000   0.00004  -0.00000  -0.00009  -0.00016
  56        6D-2       -0.00000   0.00000  -0.00000  -0.00000   0.00000
                          31        32        33        34        35
  31        3S          0.12079
  32        4PX        -0.00000   0.00015
  33        4PY         0.00044  -0.00000   0.00133
  34        4PZ         0.00181  -0.00000   0.00053   0.00034
  35 4   O  1S          0.00202  -0.00000   0.00093  -0.00069   0.63934
  36        2S          0.00238  -0.00000   0.00196  -0.00049   0.56894
  37        2PX        -0.00000   0.00424   0.00000   0.00000   0.00000
  38        2PY         0.10669   0.00000  -0.00546  -0.00306   0.00000
  39        2PZ        -0.00122  -0.00000   0.00451  -0.00024  -0.00558
  40        3S         -0.00430   0.00000  -0.00721  -0.00072  -0.12604
  41        3PX        -0.00000   0.00616   0.00000   0.00000   0.00000
  42        3PY         0.15526   0.00000  -0.00783  -0.00436   0.00000
  43        3PZ        -0.00166  -0.00000   0.00641  -0.00034  -0.00948
  44        4S         -0.00600   0.00000  -0.00336  -0.00117  -0.12555
  45        4PX        -0.00000   0.00423   0.00000   0.00000   0.00000
  46        4PY         0.15461   0.00000  -0.00526  -0.00212   0.00000
  47        4PZ        -0.00069  -0.00000   0.00294  -0.00010  -0.01380
  48        5S         -0.00188   0.00000  -0.00010  -0.00049  -0.01079
  49        5PX        -0.00000   0.00012   0.00000  -0.00000   0.00000
  50        5PY         0.06081   0.00000  -0.00019   0.00081   0.00000
  51        5PZ         0.00060  -0.00000   0.00087   0.00018   0.00265
  52        6D 0        0.00003   0.00000  -0.00090   0.00001  -0.00238
  53        6D+1        0.00000  -0.00060  -0.00000  -0.00000   0.00000
  54        6D-1       -0.00300  -0.00000   0.00076   0.00062   0.00000
  55        6D+2       -0.00002   0.00000  -0.00004  -0.00000  -0.00052
  56        6D-2       -0.00000   0.00000  -0.00000  -0.00000  -0.00000
                          36        37        38        39        40
  36        2S          0.52369
  37        2PX         0.00000   0.11764
  38        2PY         0.00000  -0.00000   0.17821
  39        2PZ        -0.00849   0.00000   0.00000   0.17437
  40        3S         -0.21777   0.00000   0.00000   0.02750   0.66633
  41        3PX         0.00000   0.17083  -0.00000   0.00000   0.00000
  42        3PY         0.00000  -0.00000   0.25757   0.00000   0.00000
  43        3PZ        -0.01215   0.00000   0.00000   0.24486   0.03144
  44        4S         -0.19920   0.00000   0.00000   0.16683   0.56086
  45        4PX         0.00000   0.11733  -0.00000   0.00000   0.00000
  46        4PY         0.00000  -0.00000   0.21481   0.00000   0.00000
  47        4PZ        -0.02204   0.00000   0.00000   0.12098   0.06522
  48        5S         -0.01832   0.00000   0.00000   0.06065   0.05724
  49        5PX         0.00000   0.00323  -0.00000   0.00000   0.00000
  50        5PY         0.00000  -0.00000   0.05355   0.00000   0.00000
  51        5PZ         0.00354   0.00000   0.00000   0.00776  -0.00770
  52        6D 0       -0.00503  -0.00000  -0.00000  -0.02435   0.01744
  53        6D+1        0.00000  -0.01671   0.00000   0.00000  -0.00000
  54        6D-1        0.00000   0.00000  -0.01501   0.00000  -0.00000
  55        6D+2       -0.00094   0.00000   0.00000  -0.00009   0.00300
  56        6D-2       -0.00000   0.00000   0.00000  -0.00000   0.00000
                          41        42        43        44        45
  41        3PX         0.24805
  42        3PY        -0.00000   0.37229
  43        3PZ         0.00000   0.00000   0.34398
  44        4S          0.00000   0.00000   0.22853   0.59423
  45        4PX         0.17037  -0.00000   0.00000   0.00000   0.11702
  46        4PY        -0.00000   0.31096   0.00000   0.00000  -0.00000
  47        4PZ         0.00000   0.00000   0.16943   0.15232   0.00000
  48        5S          0.00000   0.00000   0.08470   0.09824   0.00000
  49        5PX         0.00469  -0.00000   0.00000   0.00000   0.00322
  50        5PY        -0.00000   0.07795   0.00000   0.00000  -0.00000
  51        5PZ         0.00000   0.00000   0.01097  -0.00069   0.00000
  52        6D 0       -0.00000  -0.00000  -0.03443  -0.00612  -0.00000
  53        6D+1       -0.02427   0.00000   0.00000   0.00000  -0.01667
  54        6D-1        0.00000  -0.02158   0.00000   0.00000   0.00000
  55        6D+2        0.00000   0.00000  -0.00016   0.00234   0.00000
  56        6D-2        0.00000   0.00000   0.00000   0.00000   0.00000
                          46        47        48        49        50
  46        4PY         0.27102
  47        4PZ         0.00000   0.08740
  48        5S          0.00000   0.04494   0.02603
  49        5PX        -0.00000   0.00000   0.00000   0.00009
  50        5PY         0.07792   0.00000   0.00000  -0.00000   0.03088
  51        5PZ         0.00000   0.00500   0.00130   0.00000   0.00000
  52        6D 0       -0.00000  -0.01542  -0.00692  -0.00000  -0.00000
  53        6D+1        0.00000   0.00000   0.00000  -0.00046   0.00000
  54        6D-1       -0.01530   0.00000   0.00000   0.00000  -0.00143
  55        6D+2        0.00000   0.00015   0.00019   0.00000   0.00000
  56        6D-2        0.00000   0.00000   0.00000   0.00000   0.00000
                          51        52        53        54        55
  51        5PZ         0.00085
  52        6D 0       -0.00138   0.00409
  53        6D+1        0.00000   0.00000   0.00237
  54        6D-1        0.00000   0.00000   0.00000   0.00190
  55        6D+2       -0.00004   0.00011   0.00000   0.00000   0.00001
  56        6D-2       -0.00000   0.00000   0.00000   0.00000   0.00000
                          56
  56        6D-2        0.00000
          Condensed to atoms (all electrons):
               1          2          3          4
     1  C    4.602005   0.430645   0.430645   0.386238
     2  H    0.430645   0.830641  -0.156007  -0.133896
     3  H    0.430645  -0.156007   0.830641  -0.133896
     4  O    0.386238  -0.133896  -0.133896   8.089253
 Mulliken charges:
               1
     1  C    0.150467
     2  H    0.028616
     3  H    0.028616
     4  O   -0.207699
 Sum of Mulliken charges =   0.00000
 Mulliken charges with hydrogens summed into heavy atoms:
               1
     1  C    0.207699
     4  O   -0.207699
 Electronic spatial extent (au):  <R**2>=             52.4070
 Charge=              0.0000 electrons
 Dipole moment (field-independent basis, Debye):
    X=              0.0000    Y=              0.0000    Z=             -1.0129  Tot=              1.0129
 Quadrupole moment (field-independent basis, Debye-Ang):
   XX=            -10.9821   YY=            -12.1195   ZZ=            -13.0617
   XY=             -0.0000   XZ=             -0.0000   YZ=              0.0000
 Traceless Quadrupole moment (field-independent basis, Debye-Ang):
   XX=              1.0723   YY=             -0.0651   ZZ=             -1.0073
   XY=             -0.0000   XZ=             -0.0000   YZ=              0.0000
 Octapole moment (field-independent basis, Debye-Ang**2):
  XXX=              0.0000  YYY=              0.0000  ZZZ=              2.8909  XYY=              0.0000
  XXY=              0.0000  XXZ=              1.0754  XZZ=              0.0000  YZZ=             -0.0000
  YYZ=              1.6189  XYZ=              0.0000
 Hexadecapole moment (field-independent basis, Debye-Ang**3):
 XXXX=             -9.1872 YYYY=            -22.4322 ZZZZ=            -39.2106 XXXY=             -0.0000
 XXXZ=             -0.0000 YYYX=             -0.0000 YYYZ=             -0.0000 ZZZX=             -0.0000
 ZZZY=             -0.0000 XXYY=             -5.3677 XXZZ=             -7.8420 YYZZ=            -11.1981
 XXYZ=              0.0000 YYXZ=             -0.0000 ZZXY=             -0.0000
 N-N= 3.729213108826D+01 E-N=-3.442502694865D+02  KE= 1.157901203841D+02
 Symmetry A1   KE= 1.049417465554D+02
 Symmetry A2   KE= 1.157947609323D-35
 Symmetry B1   KE= 4.032080648382D+00
 Symmetry B2   KE= 6.816293180324D+00
 Leave Link  601 at Fri Sep 17 10:52:33 2021, MaxMem=   268435456 cpu:               0.0 elap:               0.0
 (Enter /software/gaussian/g16-a03/l9999.exe)
 Electronic transition elements 
                 1             2             3             4             5 
      1  -0.114174D+03 -0.114142D+03 -0.114113D+03 -0.114108D+03 -0.114086D+03
      2   0.000000D+00  0.000000D+00  0.000000D+00  0.000000D+00  0.000000D+00
      3   0.000000D+00  0.700815D+00  0.348376D+00  0.000000D+00  0.000000D+00
      4   0.000000D+00  0.000000D+00  0.000000D+00 -0.529011D+00  0.000000D+00
      5   0.000000D+00  0.000000D+00  0.000000D+00  0.000000D+00  0.000000D+00
      6   0.000000D+00 -0.156130D+00 -0.920036D-01  0.000000D+00  0.000000D+00
      7   0.000000D+00  0.000000D+00  0.000000D+00  0.132198D+00  0.000000D+00
      8   0.000000D+00 -0.437032D+00  0.794398D+00  0.000000D+00  0.000000D+00
      9   0.000000D+00  0.000000D+00  0.000000D+00  0.000000D+00  0.000000D+00
     10   0.128638D+01  0.000000D+00  0.000000D+00  0.000000D+00 -0.305192D+00
     11   0.000000D+00  0.000000D+00  0.000000D+00 -0.163476D+00  0.000000D+00
     12   0.000000D+00  0.000000D+00  0.000000D+00 -0.603691D+00  0.000000D+00
     13   0.000000D+00  0.000000D+00  0.000000D+00 -0.209622D+00  0.000000D+00
     14  -0.206396D+00  0.000000D+00  0.000000D+00  0.000000D+00 -0.128211D+00
     15   0.000000D+00  0.000000D+00  0.000000D+00  0.000000D+00  0.000000D+00
     16   0.000000D+00  0.527585D+00  0.221493D+00  0.000000D+00  0.000000D+00
                 6             7             8             9            10 
      1  -0.113999D+03 -0.113984D+03 -0.113947D+03 -0.113944D+03 -0.113925D+03
      2   0.000000D+00  0.000000D+00  0.000000D+00  0.000000D+00  0.000000D+00
      3   0.103793D+01  0.218604D+00  0.000000D+00  0.000000D+00  0.000000D+00
      4   0.000000D+00  0.000000D+00  0.671652D-01  0.000000D+00 -0.689326D+00
      5   0.000000D+00  0.000000D+00  0.000000D+00  0.000000D+00  0.000000D+00
      6  -0.386717D+00 -0.520607D-01  0.000000D+00  0.000000D+00  0.000000D+00
      7   0.000000D+00  0.000000D+00 -0.332219D-01  0.000000D+00  0.307644D+00
      8  -0.854403D+00 -0.905968D+00  0.000000D+00  0.000000D+00  0.000000D+00
      9   0.000000D+00  0.000000D+00  0.000000D+00  0.000000D+00  0.000000D+00
     10   0.000000D+00  0.000000D+00  0.000000D+00  0.804617D-01  0.000000D+00
     11   0.000000D+00  0.000000D+00  0.985116D-01  0.000000D+00  0.201503D+00
     12   0.000000D+00  0.000000D+00  0.757435D+00  0.000000D+00 -0.402984D+00
     13   0.000000D+00  0.000000D+00  0.765597D+00  0.000000D+00 -0.511346D+00
     14   0.000000D+00  0.000000D+00  0.000000D+00  0.265999D+00  0.000000D+00
     15   0.000000D+00  0.000000D+00  0.000000D+00  0.000000D+00  0.000000D+00
     16   0.890879D+00 -0.192119D+00  0.000000D+00  0.000000D+00  0.000000D+00
                11            12            13            14            15 
      1  -0.113916D+03 -0.113895D+03 -0.113883D+03 -0.113875D+03 -0.113860D+03
      2  -0.447814D-01  0.000000D+00  0.000000D+00 -0.347881D+00  0.000000D+00
      3   0.000000D+00 -0.359559D+00  0.000000D+00  0.000000D+00  0.000000D+00
      4   0.000000D+00  0.000000D+00 -0.141428D+00  0.000000D+00  0.920552D+00
      5   0.106682D-01  0.000000D+00  0.000000D+00  0.175486D+00  0.000000D+00
      6   0.000000D+00  0.177558D+00  0.000000D+00  0.000000D+00  0.000000D+00
      7   0.000000D+00  0.000000D+00  0.674543D-01  0.000000D+00 -0.467661D+00
      8   0.000000D+00 -0.476152D+00  0.000000D+00  0.000000D+00  0.000000D+00
      9  -0.121451D+01  0.000000D+00  0.000000D+00 -0.479538D-01  0.000000D+00
     10   0.000000D+00  0.000000D+00  0.000000D+00  0.000000D+00  0.000000D+00
     11   0.000000D+00  0.000000D+00  0.925381D-01  0.000000D+00  0.237621D+00
     12   0.000000D+00  0.000000D+00  0.316074D+00  0.000000D+00  0.300566D+00
     13   0.000000D+00  0.000000D+00  0.468882D+00  0.000000D+00  0.259338D+00
     14   0.000000D+00  0.000000D+00  0.000000D+00  0.000000D+00  0.000000D+00
     15  -0.462478D+00  0.000000D+00  0.000000D+00 -0.188519D-01  0.000000D+00
     16   0.000000D+00  0.873184D-01  0.000000D+00  0.000000D+00  0.000000D+00
                16            17            18            19            20 
      1  -0.113857D+03 -0.113855D+03 -0.113848D+03 -0.113843D+03 -0.113843D+03
      2   0.000000D+00  0.000000D+00  0.000000D+00  0.000000D+00  0.214513D+00
      3   0.000000D+00 -0.358683D+00  0.000000D+00  0.000000D+00  0.000000D+00
      4   0.000000D+00  0.000000D+00  0.344481D+00  0.000000D+00  0.000000D+00
      5   0.000000D+00  0.000000D+00  0.000000D+00  0.000000D+00 -0.120398D+00
      6   0.000000D+00  0.184268D+00  0.000000D+00  0.000000D+00  0.000000D+00
      7   0.000000D+00  0.000000D+00 -0.172814D+00  0.000000D+00  0.000000D+00
      8   0.000000D+00 -0.301872D+00  0.000000D+00  0.000000D+00  0.000000D+00
      9   0.000000D+00  0.000000D+00  0.000000D+00  0.000000D+00 -0.158810D+00
     10  -0.381483D+00  0.000000D+00  0.000000D+00  0.644214D-01  0.000000D+00
     11   0.000000D+00  0.000000D+00  0.676527D+00  0.000000D+00  0.000000D+00
     12   0.000000D+00  0.000000D+00  0.650875D+00  0.000000D+00  0.000000D+00
     13   0.000000D+00  0.000000D+00  0.233864D+00  0.000000D+00  0.000000D+00
     14   0.270158D+00  0.000000D+00  0.000000D+00  0.232685D+00  0.000000D+00
     15   0.000000D+00  0.000000D+00  0.000000D+00  0.000000D+00 -0.310215D+00
     16   0.000000D+00  0.680538D-01  0.000000D+00  0.000000D+00  0.000000D+00
                21            22            23            24            25 
      1  -0.113829D+03 -0.113818D+03 -0.113808D+03 -0.113806D+03 -0.113794D+03
      2  -0.256390D+00  0.000000D+00  0.000000D+00  0.000000D+00 -0.622316D+00
      3   0.000000D+00 -0.472370D+00 -0.216460D+00  0.000000D+00  0.000000D+00
      4   0.000000D+00  0.000000D+00  0.000000D+00 -0.598525D+00  0.000000D+00
      5   0.131585D+00  0.000000D+00  0.000000D+00  0.000000D+00  0.368477D+00
      6   0.000000D+00  0.258655D+00  0.111689D+00  0.000000D+00  0.000000D+00
      7   0.000000D+00  0.000000D+00  0.000000D+00  0.340674D+00  0.000000D+00
      8   0.000000D+00  0.294401D+00  0.117576D+01  0.000000D+00  0.000000D+00
      9   0.767579D+00  0.000000D+00  0.000000D+00  0.000000D+00 -0.496593D+00
     10   0.000000D+00  0.000000D+00  0.000000D+00  0.000000D+00  0.000000D+00
     11   0.000000D+00  0.000000D+00  0.000000D+00  0.240168D+00  0.000000D+00
     12   0.000000D+00  0.000000D+00  0.000000D+00 -0.578886D+00  0.000000D+00
     13   0.000000D+00  0.000000D+00  0.000000D+00 -0.800739D-01  0.000000D+00
     14   0.000000D+00  0.000000D+00  0.000000D+00  0.000000D+00  0.000000D+00
     15   0.340609D+00  0.000000D+00  0.000000D+00  0.000000D+00 -0.492437D+00
     16   0.000000D+00 -0.301340D+00 -0.142645D+00  0.000000D+00  0.000000D+00
                26            27            28            29            30 
      1  -0.113786D+03 -0.113786D+03 -0.113769D+03 -0.113762D+03 -0.113758D+03
      2   0.000000D+00  0.000000D+00  0.000000D+00  0.000000D+00  0.000000D+00
      3   0.000000D+00  0.180490D+00  0.000000D+00  0.000000D+00  0.000000D+00
      4   0.273101D+00  0.000000D+00  0.191809D+00  0.000000D+00 -0.248327D+00
      5   0.000000D+00  0.000000D+00  0.000000D+00  0.000000D+00  0.000000D+00
      6   0.000000D+00 -0.109276D+00  0.000000D+00  0.000000D+00  0.000000D+00
      7  -0.158793D+00  0.000000D+00 -0.123747D+00  0.000000D+00  0.155634D+00
      8   0.000000D+00 -0.141111D+00  0.000000D+00  0.000000D+00  0.000000D+00
      9   0.000000D+00  0.000000D+00  0.000000D+00  0.000000D+00  0.000000D+00
     10   0.000000D+00  0.000000D+00  0.000000D+00  0.101945D+00  0.000000D+00
     11   0.141378D+00  0.000000D+00 -0.510781D+00  0.000000D+00  0.204645D+00
     12  -0.110304D+00  0.000000D+00 -0.201635D+00  0.000000D+00  0.705476D+00
     13   0.394005D+00  0.000000D+00 -0.207548D+00  0.000000D+00 -0.196108D+00
     14   0.000000D+00  0.000000D+00  0.000000D+00  0.239844D+00  0.000000D+00
     15   0.000000D+00  0.000000D+00  0.000000D+00  0.000000D+00  0.000000D+00
     16   0.000000D+00 -0.332616D+00  0.000000D+00  0.000000D+00  0.000000D+00

 Test job not archived.
 1\1\GINC-BHD0008\SP\RB3LYP TD-FC\6-311+G(d,p)\C1H2O1\BWEIGHT\17-Sep-20
 21\0\\#p B3LYP/6-311+G** #p TD=(singlets,nstates=30)IOp(6/8=3) IOp(9/4
 0=4)\\Scan Step 91, Bond Length 0.9550000000000001\\0,1\C,0,0.,0.,-0.5
 2736\H,0,0.,0.93726,-1.11871\H,0,0.,-0.93726,-1.11871\O,0,0.,0.,0.4276
 4\\Version=ES64L-G16RevA.03\State=1-A1\HF=-114.3693956\RMSD=3.725e-09\
 PG=C02V [C2(C1O1),SGV(H2)]\\@


 THE ENLIGHTENED ONE, BECAUSE HE SAW MANKIND DROWNING  
 IN THE GREAT SEA OF BIRTH, DEATH, AND SORROW, LONGED TO SAVE 
 THEM, FOR THIS HE WAS MOVED TO PITY.                         
 BECAUSE HE SAW MEN OF THE WORLD STRAYING IN FALSE PATHS, AND 
 NONE TO GUIDE THEM, FOR THIS HE WAS MOVED TO PITY.           
                     ..................                       
 BECAUSE HE SAW THE MEN OF THE WORLD PLOUGHING THEIR FIELDS,  
 SOWING THE SEED, TRAFFICKING, HUCKSTERING, BUYING, SELLING,  
 AND AT THE END WINNOWING NOTHING BUT BITTERNESS,             
 FOR THIS HE WAS MOVED TO PITY......                   
                   BUDAH'S PITY - UPSAKA SILA SUTRA           
 Job cpu time:       0 days  0 hours  0 minutes 27.0 seconds.
 Elapsed time:       0 days  0 hours  0 minutes 27.6 seconds.
 File lengths (MBytes):  RWF=     79 Int=      0 D2E=      0 Chk=     32 Scr=      1
 Normal termination of Gaussian 16 at Fri Sep 17 10:52:33 2021.
