 Entering Gaussian System, Link 0=g16
 Initial command:
 /software/gaussian/g16-c01/sse4/g16/l1.exe "/local_scratch/24657526/Gau-15404.inp" -scrdir="/local_scratch/24657526/"
 Entering Link 1 = /software/gaussian/g16-c01/sse4/g16/l1.exe PID=     15405.
  
 Copyright (c) 1988-2019, Gaussian, Inc.  All Rights Reserved.
  
 This is part of the Gaussian(R) 16 program.  It is based on
 the Gaussian(R) 09 system (copyright 2009, Gaussian, Inc.),
 the Gaussian(R) 03 system (copyright 2003, Gaussian, Inc.),
 the Gaussian(R) 98 system (copyright 1998, Gaussian, Inc.),
 the Gaussian(R) 94 system (copyright 1995, Gaussian, Inc.),
 the Gaussian 92(TM) system (copyright 1992, Gaussian, Inc.),
 the Gaussian 90(TM) system (copyright 1990, Gaussian, Inc.),
 the Gaussian 88(TM) system (copyright 1988, Gaussian, Inc.),
 the Gaussian 86(TM) system (copyright 1986, Carnegie Mellon
 University), and the Gaussian 82(TM) system (copyright 1983,
 Carnegie Mellon University). Gaussian is a federally registered
 trademark of Gaussian, Inc.
  
 This software contains proprietary and confidential information,
 including trade secrets, belonging to Gaussian, Inc.
  
 This software is provided under written license and may be
 used, copied, transmitted, or stored only in accord with that
 written license.
  
 The following legend is applicable only to US Government
 contracts under FAR:
  
                    RESTRICTED RIGHTS LEGEND
  
 Use, reproduction and disclosure by the US Government is
 subject to restrictions as set forth in subparagraphs (a)
 and (c) of the Commercial Computer Software - Restricted
 Rights clause in FAR 52.227-19.
  
 Gaussian, Inc.
 340 Quinnipiac St., Bldg. 40, Wallingford CT 06492
  
  
 ---------------------------------------------------------------
 Warning -- This program may not be used in any manner that
 competes with the business of Gaussian, Inc. or will provide
 assistance to any competitor of Gaussian, Inc.  The licensee
 of this program is prohibited from giving any competitor of
 Gaussian, Inc. access to this program.  By using this program,
 the user acknowledges that Gaussian, Inc. is engaged in the
 business of creating and licensing software in the field of
 computational chemistry and represents and warrants to the
 licensee that it is not a competitor of Gaussian, Inc. and that
 it will not use this program in any manner prohibited above.
 ---------------------------------------------------------------
  

 Cite this work as:
 Gaussian 16, Revision C.01,
 M. J. Frisch, G. W. Trucks, H. B. Schlegel, G. E. Scuseria, 
 M. A. Robb, J. R. Cheeseman, G. Scalmani, V. Barone, 
 G. A. Petersson, H. Nakatsuji, X. Li, M. Caricato, A. V. Marenich, 
 J. Bloino, B. G. Janesko, R. Gomperts, B. Mennucci, H. P. Hratchian, 
 J. V. Ortiz, A. F. Izmaylov, J. L. Sonnenberg, D. Williams-Young, 
 F. Ding, F. Lipparini, F. Egidi, J. Goings, B. Peng, A. Petrone, 
 T. Henderson, D. Ranasinghe, V. G. Zakrzewski, J. Gao, N. Rega, 
 G. Zheng, W. Liang, M. Hada, M. Ehara, K. Toyota, R. Fukuda, 
 J. Hasegawa, M. Ishida, T. Nakajima, Y. Honda, O. Kitao, H. Nakai, 
 T. Vreven, K. Throssell, J. A. Montgomery, Jr., J. E. Peralta, 
 F. Ogliaro, M. J. Bearpark, J. J. Heyd, E. N. Brothers, K. N. Kudin, 
 V. N. Staroverov, T. A. Keith, R. Kobayashi, J. Normand, 
 K. Raghavachari, A. P. Rendell, J. C. Burant, S. S. Iyengar, 
 J. Tomasi, M. Cossi, J. M. Millam, M. Klene, C. Adamo, R. Cammi, 
 J. W. Ochterski, R. L. Martin, K. Morokuma, O. Farkas, 
 J. B. Foresman, and D. J. Fox, Gaussian, Inc., Wallingford CT, 2019.
 
 ******************************************
 Gaussian 16:  ES64L-G16RevC.01  3-Jul-2019
                 1-May-2024 
 ******************************************
 %chk=geometry.chk
 %mem=9GB
 %nprocshared=12
 Will use up to   12 processors via shared memory.
 ----------------------------------------
 #P wB97XD/6-311+G* NoSymm #P Field=Y+243
 ----------------------------------------
 1/38=1,172=1/1;
 2/12=2,15=1,17=6,18=5,40=1/2;
 3/5=4,6=6,7=11,11=2,14=2,15=243,25=1,30=1,74=-58/1,2,3;
 4//1;
 5/5=2,38=5/2;
 6/7=2,8=2,9=2,10=2,28=1/1;
 99/5=1,9=1/99;
 Leave Link    1 at Wed May  1 14:50:53 2024, MaxMem=  1207959552 cpu:               1.0 elap:               1.1
 (Enter /software/gaussian/g16-c01/sse4/g16/l101.exe)
 -------
 TitleMe
 -------
 Symbolic Z-matrix:
 Charge =  1 Multiplicity = 1
 C                     0.0295    1.3397    0.0682 
 C                     1.4348    1.2867    0.0064 
 C                     2.1118    0.0511   -0.0054 
 C                     1.4451   -1.1372    0.0312 
 C                    -0.6879    0.1682    0.11 
 H                    -0.4713    2.2984    0.0781 
 H                     2.0273    2.1965   -0.0322 
 H                     1.9897   -2.0764    0.0232 
 H                    -1.7716    0.1804    0.1582 
 N                     3.5864    0.051    -0.0675 
 O                     4.1471   -1.0597   -0.0881 
 O                     4.145     1.1639   -0.0901 
 C                    -0.0236   -1.1458    0.0835 
 H                    -0.4367   -1.8725    0.7889 
 Br                   -0.5359   -1.8697   -1.7408 
 
 ITRead=  0  0  0  0  0  0  0  0  0  0  0  0  0  0  0
 MicOpt= -1 -1 -1 -1 -1 -1 -1 -1 -1 -1 -1 -1 -1 -1 -1
 NAtoms=     15 NQM=       15 NQMF=       0 NMMI=      0 NMMIF=      0
                NMic=       0 NMicF=      0.
                    Isotopes and Nuclear Properties:
 (Nuclear quadrupole moments (NQMom) in fm**2, nuclear magnetic moments (NMagM)
  in nuclear magnetons)

  Atom         1           2           3           4           5           6           7           8           9          10
 IAtWgt=          12          12          12          12          12           1           1           1           1          14
 AtmWgt=  12.0000000  12.0000000  12.0000000  12.0000000  12.0000000   1.0078250   1.0078250   1.0078250   1.0078250  14.0030740
 NucSpn=           0           0           0           0           0           1           1           1           1           2
 AtZEff=  -0.0000000  -0.0000000  -0.0000000  -0.0000000  -0.0000000  -0.0000000  -0.0000000  -0.0000000  -0.0000000  -0.0000000
 NQMom=    0.0000000   0.0000000   0.0000000   0.0000000   0.0000000   0.0000000   0.0000000   0.0000000   0.0000000   2.0440000
 NMagM=    0.0000000   0.0000000   0.0000000   0.0000000   0.0000000   2.7928460   2.7928460   2.7928460   2.7928460   0.4037610
 AtZNuc=   6.0000000   6.0000000   6.0000000   6.0000000   6.0000000   1.0000000   1.0000000   1.0000000   1.0000000   7.0000000

  Atom        11          12          13          14          15
 IAtWgt=          16          16          12           1          79
 AtmWgt=  15.9949146  15.9949146  12.0000000   1.0078250  78.9183361
 NucSpn=           0           0           0           1           3
 AtZEff=  -0.0000000  -0.0000000  -0.0000000  -0.0000000  -0.0000000
 NQMom=    0.0000000   0.0000000   0.0000000   0.0000000  31.3000000
 NMagM=    0.0000000   0.0000000   0.0000000   2.7928460   2.1063990
 AtZNuc=   8.0000000   8.0000000   6.0000000   1.0000000  35.0000000
 Leave Link  101 at Wed May  1 14:50:55 2024, MaxMem=  1207959552 cpu:               1.3 elap:               1.3
 (Enter /software/gaussian/g16-c01/sse4/g16/l202.exe)
                          Input orientation:                          
 ---------------------------------------------------------------------
 Center     Atomic      Atomic             Coordinates (Angstroms)
 Number     Number       Type             X           Y           Z
 ---------------------------------------------------------------------
      1          6           0        0.029500    1.339700    0.068200
      2          6           0        1.434800    1.286700    0.006400
      3          6           0        2.111800    0.051100   -0.005400
      4          6           0        1.445100   -1.137200    0.031200
      5          6           0       -0.687900    0.168200    0.110000
      6          1           0       -0.471300    2.298400    0.078100
      7          1           0        2.027300    2.196500   -0.032200
      8          1           0        1.989700   -2.076400    0.023200
      9          1           0       -1.771600    0.180400    0.158200
     10          7           0        3.586400    0.051000   -0.067500
     11          8           0        4.147100   -1.059700   -0.088100
     12          8           0        4.145000    1.163900   -0.090100
     13          6           0       -0.023600   -1.145800    0.083500
     14          1           0       -0.436700   -1.872500    0.788900
     15         35           0       -0.535900   -1.869700   -1.740800
 ---------------------------------------------------------------------
                    Distance matrix (angstroms):
                    1          2          3          4          5
     1  C    0.000000
     2  C    1.407656   0.000000
     3  C    2.449874   1.408963   0.000000
     4  C    2.853126   2.424049   1.363043   0.000000
     5  C    1.374344   2.401589   2.804523   2.501993   0.000000
     6  H    1.081667   2.159142   3.424870   3.934226   2.141421
     7  H    2.176095   1.086408   2.147231   3.384750   3.392128
     8  H    3.938800   3.408612   2.131193   1.085702   3.495040
     9  H    2.143837   3.395283   3.888995   3.478413   1.084840
    10  N    3.785591   2.482297   1.475907   2.450862   4.279589
    11  O    4.768247   3.587631   2.320164   2.705743   4.992415
    12  O    4.122294   2.714696   2.319353   3.549540   4.938459
    13  C    2.486114   2.837240   2.449573   1.469656   1.472614
    14  H    3.324903   3.754379   3.290289   2.157764   2.165286
    15  Br   3.727252   4.110867   3.702891   2.756973   2.757100
                    6          7          8          9         10
     6  H    0.000000
     7  H    2.503108   0.000000
     8  H    5.019802   4.273425   0.000000
     9  H    2.486588   4.304945   4.388479   0.000000
    10  N    4.640790   2.652397   2.661486   5.364313   0.000000
    11  O    5.712624   3.885809   2.387560   6.052233   1.244373
    12  O    4.756638   2.356750   3.893289   6.002923   1.245428
    13  C    3.473180   3.923079   2.218790   2.195425   3.806210
    14  H    4.231175   4.827242   2.552506   2.528663   4.540772
    15  Br   4.548146   5.101303   3.087568   3.055498   4.845862
                   11         12         13         14         15
    11  O    0.000000
    12  O    2.223602   0.000000
    13  C    4.175117   4.768865   0.000000
    14  H    4.737193   5.566358   1.093770   0.000000
    15  Br   5.031700   5.817075   2.028436   2.531646   0.000000
 Symmetry turned off by external request.
 Stoichiometry    C6H5BrNO2(1+)
 Framework group  C1[X(C6H5BrNO2)]
 Deg. of freedom    39
 Full point group                 C1      NOp   1
 Rotational constants (GHZ):           1.8252210           0.5518633           0.4576002
 Leave Link  202 at Wed May  1 14:50:56 2024, MaxMem=  1207959552 cpu:               1.1 elap:               1.1
 (Enter /software/gaussian/g16-c01/sse4/g16/l301.exe)
 Standard basis: 6-311+G(d) (5D, 7F)
 Ernie: Thresh=  0.10000D-02 Tol=  0.10000D-05 Strict=F.
 The following finite field(s) will be applied:
 An electric field of              0.0000  0.0243  0.0000
   261 basis functions,   443 primitive gaussians,   273 cartesian basis functions
    49 alpha electrons       49 beta electrons
       nuclear repulsion energy       739.2122215416 Hartrees.
 IExCor= 4639 DFT=T Ex+Corr=wB97XD ExCW=0 ScaHFX=  1.000000
 ScaDFX=  1.000000  1.000000  1.000000  1.000000 ScalE2=  1.000000  1.000000
 IRadAn=      5 IRanWt=     -1 IRanGd=            0 ICorTp=0 IEmpDi=121
 HFx  wShort=  0.000000 wLong=  0.200000 cFull=  0.222036 cShort=  0.000000 cLong=  0.777964
 DFx  wShort=  0.000000 wLong=  0.200000 cFull=  0.000000 cShort=  0.000000 cLong=  1.000000
 NAtoms=   15 NActive=   15 NUniq=   15 SFac= 1.00D+00 NAtFMM=   60 NAOKFM=F Big=F
 Integral buffers will be    131072 words long.
 Raffenetti 2 integral format.
 Two-electron integral symmetry is turned off.
 R6Disp:  Grimme-D2 Dispersion energy=       -0.0077368520 Hartrees.
 Nuclear repulsion after empirical dispersion term =      739.2044846896 Hartrees.
 Leave Link  301 at Wed May  1 14:50:57 2024, MaxMem=  1207959552 cpu:               0.9 elap:               0.8
 (Enter /software/gaussian/g16-c01/sse4/g16/l302.exe)
 NPDir=0 NMtPBC=     1 NCelOv=     1 NCel=       1 NClECP=     1 NCelD=      1
         NCelK=      1 NCelE2=     1 NClLst=     1 CellRange=     0.0.
 One-electron integrals computed using PRISM.
 NBasis=   261 RedAO= T EigKep=  2.35D-06  NBF=   261
 NBsUse=   261 1.00D-06 EigRej= -1.00D+00 NBFU=   261
 Precomputing XC quadrature grid using
 IXCGrd= 4 IRadAn=           5 IRanWt=          -1 IRanGd=           0 AccXCQ= 0.00D+00.
 Generated NRdTot=       0 NPtTot=           0 NUsed=           0 NTot=          32
 NSgBfM=   273   273   273   273   273 MxSgAt=    15 MxSgA2=    15.
 Leave Link  302 at Wed May  1 14:51:18 2024, MaxMem=  1207959552 cpu:              21.2 elap:              21.2
 (Enter /software/gaussian/g16-c01/sse4/g16/l303.exe)
 DipDrv:  MaxL=1.
 The nuclear repulsion energy is now       736.4425458535 hartrees.
 Leave Link  303 at Wed May  1 14:51:21 2024, MaxMem=  1207959552 cpu:               3.2 elap:               3.2
 (Enter /software/gaussian/g16-c01/sse4/g16/l401.exe)
 ExpMin= 3.50D-02 ExpMax= 4.40D+05 ExpMxC= 1.51D+04 IAcc=3 IRadAn=         5 AccDes= 0.00D+00
 Harris functional with IExCor= 4639 and IRadAn=       5 diagonalized for initial guess.
 HarFok:  IExCor= 4639 AccDes= 0.00D+00 IRadAn=         5 IDoV= 1 UseB2=F ITyADJ=14
 ICtDFT=  3500011 ScaDFX=  1.000000  1.000000  1.000000  1.000000
 FoFCou: FMM=F IPFlag=           0 FMFlag=      100000 FMFlg1=           0
         NFxFlg=           0 DoJE=T BraDBF=F KetDBF=T FulRan=T
         wScrn=  0.000000 ICntrl=       500 IOpCl=  0 I1Cent=   200000004 NGrid=           0
         NMat0=    1 NMatS0=      1 NMatT0=    0 NMatD0=    1 NMtDS0=    0 NMtDT0=    0
 Symmetry not used in FoFCou.
 Harris En= -2970.76812376714    
 JPrj=0 DoOrth=F DoCkMO=F.
 Leave Link  401 at Wed May  1 14:51:51 2024, MaxMem=  1207959552 cpu:              29.8 elap:              29.8
 (Enter /software/gaussian/g16-c01/sse4/g16/l502.exe)
 Two-electron integral symmetry not used.
 Closed shell SCF:
 Using DIIS extrapolation, IDIIS=  1040.
 NGot=  1207959552 LenX=  1207804877 LenY=  1207729907
 Requested convergence on RMS density matrix=1.00D-08 within 128 cycles.
 Requested convergence on MAX density matrix=1.00D-06.
 Requested convergence on             energy=1.00D-06.
 No special actions if energy rises.
 Fock matrices will be formed incrementally for  20 cycles.

 Cycle   1  Pass 1  IDiag  1:
 FoFJK:  IHMeth= 1 ICntrl=       0 DoSepK=T KAlg= 0 I1Cent=           0 FoldK=F
 IRaf=         1 NMat=       1 IRICut=       1 DoRegI=T DoRafI=F ISym2E= 0 IDoP0=0 IntGTp=1.
 FoFCou: FMM=F IPFlag=           0 FMFlag=      100000 FMFlg1=           0
         NFxFlg=           0 DoJE=T BraDBF=F KetDBF=F FulRan=T
         wScrn=  0.000000 ICntrl=       500 IOpCl=  0 I1Cent=           0 NGrid=           0
         NMat0=    1 NMatS0=      1 NMatT0=    0 NMatD0=    1 NMtDS0=    0 NMtDT0=    0
 Symmetry not used in FoFCou.
 E= -3007.44250484530    
 DIIS: error= 3.21D-01 at cycle   1 NSaved=   1.
 NSaved= 1 IEnMin= 1 EnMin= -3007.44250484530     IErMin= 1 ErrMin= 3.21D-01
 ErrMax= 3.21D-01  0.00D+00 EMaxC= 1.00D-01 BMatC= 1.32D+01 BMatP= 1.32D+01
 IDIUse=3 WtCom= 0.00D+00 WtEn= 1.00D+00
 Coeff-Com:  0.100D+01
 Coeff-En:   0.100D+01
 Coeff:      0.100D+01
 Gap=    -0.311 Goal=   None    Shift=    0.000
 GapD=   -0.311 DampG=0.250 DampE=0.250 DampFc=0.2500 IDamp=-1.
 Damping current iteration by 2.50D-01
 RMSDP=3.49D+00 MaxDP=3.31D+02              OVMax= 7.45D-01

 Cycle   2  Pass 1  IDiag  1:
 RMSU=  2.79D-02    CP:  7.52D-01
 E= -3008.36582637473     Delta-E=       -0.923321529423 Rises=F Damp=T
 DIIS: error= 2.25D-01 at cycle   2 NSaved=   2.
 NSaved= 2 IEnMin= 2 EnMin= -3008.36582637473     IErMin= 2 ErrMin= 2.25D-01
 ErrMax= 2.25D-01  0.00D+00 EMaxC= 1.00D-01 BMatC= 5.50D+00 BMatP= 1.32D+01
 IDIUse=3 WtCom= 0.00D+00 WtEn= 1.00D+00
 Coeff-Com: -0.106D+01 0.206D+01
 Coeff-En:   0.147D+00 0.853D+00
 Coeff:      0.147D+00 0.853D+00
 Gap=     0.227 Goal=   None    Shift=    0.000
 RMSDP=2.62D+00 MaxDP=2.51D+02 DE=-9.23D-01 OVMax= 7.76D-01

 Cycle   3  Pass 1  IDiag  1:
 RMSU=  3.40D-02    CP:  5.74D-03  2.25D+00
 E= -3009.51966686587     Delta-E=       -1.153840491143 Rises=F Damp=F
 DIIS: error= 9.44D-02 at cycle   3 NSaved=   3.
 NSaved= 3 IEnMin= 3 EnMin= -3009.51966686587     IErMin= 3 ErrMin= 9.44D-02
 ErrMax= 9.44D-02  0.00D+00 EMaxC= 1.00D-01 BMatC= 2.05D+00 BMatP= 5.50D+00
 IDIUse=3 WtCom= 5.61D-02 WtEn= 9.44D-01
 EnCoef did   100 forward-backward iterations
 Coeff-Com:  0.135D+00 0.146D+00 0.718D+00
 Coeff-En:   0.253D+00 0.337D-02 0.744D+00
 Coeff:      0.246D+00 0.114D-01 0.742D+00
 Gap=     0.587 Goal=   None    Shift=    0.000
 RMSDP=3.17D-02 MaxDP=2.61D+00 DE=-1.15D+00 OVMax= 3.61D-01

 Cycle   4  Pass 1  IDiag  1:
 RMSU=  2.69D-02    CP:  6.92D-03  1.88D+00  1.37D+00
 E= -3009.53943742036     Delta-E=       -0.019770554492 Rises=F Damp=F
 DIIS: error= 1.09D-01 at cycle   4 NSaved=   4.
 NSaved= 4 IEnMin= 4 EnMin= -3009.53943742036     IErMin= 3 ErrMin= 9.44D-02
 ErrMax= 1.09D-01  0.00D+00 EMaxC= 1.00D-01 BMatC= 1.44D+00 BMatP= 2.05D+00
 IDIUse=3 WtCom= 0.00D+00 WtEn= 1.00D+00
 Coeff-Com:  0.196D+00-0.154D+00 0.504D+00 0.454D+00
 Coeff-En:   0.000D+00 0.000D+00 0.496D+00 0.504D+00
 Coeff:      0.000D+00 0.000D+00 0.496D+00 0.504D+00
 Gap=     0.190 Goal=   None    Shift=    0.000
 RMSDP=2.33D-02 MaxDP=1.35D+00 DE=-1.98D-02 OVMax= 4.16D-01

 Cycle   5  Pass 1  IDiag  1:
 RMSU=  1.82D-02    CP:  8.77D-03  2.08D+00  1.55D+00  6.22D-01
 E= -3010.48934335975     Delta-E=       -0.949905939386 Rises=F Damp=F
 DIIS: error= 2.64D-02 at cycle   5 NSaved=   5.
 NSaved= 5 IEnMin= 5 EnMin= -3010.48934335975     IErMin= 5 ErrMin= 2.64D-02
 ErrMax= 2.64D-02  0.00D+00 EMaxC= 1.00D-01 BMatC= 1.92D-01 BMatP= 1.44D+00
 IDIUse=3 WtCom= 7.36D-01 WtEn= 2.64D-01
 Coeff-Com: -0.468D-01 0.629D-01 0.175D+00 0.228D+00 0.581D+00
 Coeff-En:   0.000D+00 0.000D+00 0.000D+00 0.551D-03 0.999D+00
 Coeff:     -0.344D-01 0.463D-01 0.129D+00 0.167D+00 0.692D+00
 Gap=     0.255 Goal=   None    Shift=    0.000
 RMSDP=1.54D-02 MaxDP=1.30D+00 DE=-9.50D-01 OVMax= 1.02D-01

 Cycle   6  Pass 1  IDiag  1:
 RMSU=  5.12D-03    CP:  7.16D-03  1.78D+00  1.37D+00  5.99D-01  5.31D-01
 E= -3010.55377608388     Delta-E=       -0.064432724130 Rises=F Damp=F
 DIIS: error= 1.59D-02 at cycle   6 NSaved=   6.
 NSaved= 6 IEnMin= 6 EnMin= -3010.55377608388     IErMin= 6 ErrMin= 1.59D-02
 ErrMax= 1.59D-02  0.00D+00 EMaxC= 1.00D-01 BMatC= 3.87D-02 BMatP= 1.92D-01
 IDIUse=3 WtCom= 8.41D-01 WtEn= 1.59D-01
 Coeff-Com: -0.436D-01 0.605D-01 0.235D-01 0.106D-02 0.331D+00 0.627D+00
 Coeff-En:   0.000D+00 0.000D+00 0.000D+00 0.000D+00 0.152D+00 0.848D+00
 Coeff:     -0.367D-01 0.508D-01 0.198D-01 0.888D-03 0.303D+00 0.662D+00
 Gap=     0.268 Goal=   None    Shift=    0.000
 RMSDP=2.49D-03 MaxDP=1.23D-01 DE=-6.44D-02 OVMax= 5.39D-02

 Cycle   7  Pass 1  IDiag  1:
 RMSU=  1.79D-03    CP:  7.23D-03  1.77D+00  1.37D+00  5.44D-01  5.75D-01
                    CP:  1.02D+00
 E= -3010.57317716025     Delta-E=       -0.019401076377 Rises=F Damp=F
 DIIS: error= 2.99D-03 at cycle   7 NSaved=   7.
 NSaved= 7 IEnMin= 7 EnMin= -3010.57317716025     IErMin= 7 ErrMin= 2.99D-03
 ErrMax= 2.99D-03  0.00D+00 EMaxC= 1.00D-01 BMatC= 1.75D-03 BMatP= 3.87D-02
 IDIUse=3 WtCom= 9.70D-01 WtEn= 2.99D-02
 Coeff-Com: -0.214D-01 0.293D-01-0.112D-01-0.109D-01 0.582D-01 0.245D+00
 Coeff-Com:  0.711D+00
 Coeff-En:   0.000D+00 0.000D+00 0.000D+00 0.000D+00 0.000D+00 0.000D+00
 Coeff-En:   0.100D+01
 Coeff:     -0.207D-01 0.285D-01-0.109D-01-0.106D-01 0.564D-01 0.238D+00
 Coeff:      0.719D+00
 Gap=     0.235 Goal=   None    Shift=    0.000
 RMSDP=8.40D-04 MaxDP=6.45D-02 DE=-1.94D-02 OVMax= 9.51D-03

 Cycle   8  Pass 1  IDiag  1:
 RMSU=  4.40D-04    CP:  7.15D-03  1.78D+00  1.37D+00  5.52D-01  5.43D-01
                    CP:  1.03D+00  9.56D-01
 E= -3010.57432874945     Delta-E=       -0.001151589194 Rises=F Damp=F
 DIIS: error= 9.82D-04 at cycle   8 NSaved=   8.
 NSaved= 8 IEnMin= 8 EnMin= -3010.57432874945     IErMin= 8 ErrMin= 9.82D-04
 ErrMax= 9.82D-04  0.00D+00 EMaxC= 1.00D-01 BMatC= 1.69D-04 BMatP= 1.75D-03
 IDIUse=3 WtCom= 9.90D-01 WtEn= 9.82D-03
 Coeff-Com: -0.641D-02 0.855D-02-0.584D-02-0.896D-04-0.187D-01-0.156D-02
 Coeff-Com:  0.296D+00 0.728D+00
 Coeff-En:   0.000D+00 0.000D+00 0.000D+00 0.000D+00 0.000D+00 0.000D+00
 Coeff-En:   0.000D+00 0.100D+01
 Coeff:     -0.635D-02 0.846D-02-0.578D-02-0.888D-04-0.185D-01-0.155D-02
 Coeff:      0.293D+00 0.731D+00
 Gap=     0.235 Goal=   None    Shift=    0.000
 RMSDP=7.53D-04 MaxDP=5.19D-02 DE=-1.15D-03 OVMax= 5.53D-03

 Cycle   9  Pass 1  IDiag  1:
 RMSU=  2.29D-04    CP:  7.10D-03  1.78D+00  1.36D+00  5.50D-01  5.16D-01
                    CP:  1.02D+00  1.17D+00  1.38D+00
 E= -3010.57452430063     Delta-E=       -0.000195551186 Rises=F Damp=F
 DIIS: error= 3.98D-04 at cycle   9 NSaved=   9.
 NSaved= 9 IEnMin= 9 EnMin= -3010.57452430063     IErMin= 9 ErrMin= 3.98D-04
 ErrMax= 3.98D-04  0.00D+00 EMaxC= 1.00D-01 BMatC= 2.55D-05 BMatP= 1.69D-04
 IDIUse=3 WtCom= 9.96D-01 WtEn= 3.98D-03
 Coeff-Com: -0.621D-03 0.800D-03-0.125D-02 0.177D-02-0.169D-01-0.396D-01
 Coeff-Com: -0.691D-02 0.314D+00 0.748D+00
 Coeff-En:   0.000D+00 0.000D+00 0.000D+00 0.000D+00 0.000D+00 0.000D+00
 Coeff-En:   0.000D+00 0.000D+00 0.100D+01
 Coeff:     -0.618D-03 0.796D-03-0.124D-02 0.176D-02-0.168D-01-0.395D-01
 Coeff:     -0.688D-02 0.313D+00 0.749D+00
 Gap=     0.234 Goal=   None    Shift=    0.000
 RMSDP=2.60D-04 MaxDP=2.00D-02 DE=-1.96D-04 OVMax= 3.82D-03

 Cycle  10  Pass 1  IDiag  1:
 RMSU=  1.31D-04    CP:  7.10D-03  1.78D+00  1.36D+00  5.51D-01  5.12D-01
                    CP:  1.04D+00  1.26D+00  1.50D+00  1.13D+00
 E= -3010.57456501624     Delta-E=       -0.000040715602 Rises=F Damp=F
 DIIS: error= 8.17D-05 at cycle  10 NSaved=  10.
 NSaved=10 IEnMin=10 EnMin= -3010.57456501624     IErMin=10 ErrMin= 8.17D-05
 ErrMax= 8.17D-05  0.00D+00 EMaxC= 1.00D-01 BMatC= 3.15D-06 BMatP= 2.55D-05
 IDIUse=1 WtCom= 1.00D+00 WtEn= 0.00D+00
 Coeff-Com:  0.152D-03-0.228D-03-0.258D-04 0.156D-03-0.108D-03-0.146D-02
 Coeff-Com: -0.330D-01-0.346D-02 0.202D+00 0.836D+00
 Coeff:      0.152D-03-0.228D-03-0.258D-04 0.156D-03-0.108D-03-0.146D-02
 Coeff:     -0.330D-01-0.346D-02 0.202D+00 0.836D+00
 Gap=     0.235 Goal=   None    Shift=    0.000
 RMSDP=7.32D-05 MaxDP=4.35D-03 DE=-4.07D-05 OVMax= 3.06D-03

 Cycle  11  Pass 1  IDiag  1:
 RMSU=  4.68D-05    CP:  7.10D-03  1.78D+00  1.36D+00  5.51D-01  5.12D-01
                    CP:  1.04D+00  1.26D+00  1.56D+00  1.22D+00  1.26D+00
 E= -3010.57457612549     Delta-E=       -0.000011109256 Rises=F Damp=F
 DIIS: error= 4.83D-05 at cycle  11 NSaved=  11.
 NSaved=11 IEnMin=11 EnMin= -3010.57457612549     IErMin=11 ErrMin= 4.83D-05
 ErrMax= 4.83D-05  0.00D+00 EMaxC= 1.00D-01 BMatC= 7.16D-07 BMatP= 3.15D-06
 IDIUse=1 WtCom= 1.00D+00 WtEn= 0.00D+00
 Coeff-Com:  0.117D-03-0.184D-03-0.815D-04-0.259D-03 0.287D-02 0.794D-02
 Coeff-Com:  0.740D-02-0.420D-01-0.137D+00 0.572D-01 0.110D+01
 Coeff:      0.117D-03-0.184D-03-0.815D-04-0.259D-03 0.287D-02 0.794D-02
 Coeff:      0.740D-02-0.420D-01-0.137D+00 0.572D-01 0.110D+01
 Gap=     0.234 Goal=   None    Shift=    0.000
 RMSDP=1.22D-04 MaxDP=8.05D-03 DE=-1.11D-05 OVMax= 2.53D-03

 Cycle  12  Pass 1  IDiag  1:
 RMSU=  1.73D-05    CP:  7.11D-03  1.78D+00  1.37D+00  5.52D-01  5.14D-01
                    CP:  1.05D+00  1.28D+00  1.57D+00  1.22D+00  1.70D+00
                    CP:  1.60D+00
 E= -3010.57458129675     Delta-E=       -0.000005171262 Rises=F Damp=F
 DIIS: error= 2.49D-05 at cycle  12 NSaved=  12.
 NSaved=12 IEnMin=12 EnMin= -3010.57458129675     IErMin=12 ErrMin= 2.49D-05
 ErrMax= 2.49D-05  0.00D+00 EMaxC= 1.00D-01 BMatC= 2.04D-07 BMatP= 7.16D-07
 IDIUse=1 WtCom= 1.00D+00 WtEn= 0.00D+00
 Coeff-Com:  0.124D-03-0.167D-03 0.552D-05-0.804D-04 0.535D-03 0.219D-02
 Coeff-Com:  0.129D-01-0.129D-01-0.103D+00-0.237D+00 0.316D+00 0.102D+01
 Coeff:      0.124D-03-0.167D-03 0.552D-05-0.804D-04 0.535D-03 0.219D-02
 Coeff:      0.129D-01-0.129D-01-0.103D+00-0.237D+00 0.316D+00 0.102D+01
 Gap=     0.234 Goal=   None    Shift=    0.000
 RMSDP=8.23D-05 MaxDP=5.85D-03 DE=-5.17D-06 OVMax= 1.98D-03

 Cycle  13  Pass 1  IDiag  1:
 RMSU=  1.30D-05    CP:  7.11D-03  1.78D+00  1.37D+00  5.52D-01  5.16D-01
                    CP:  1.05D+00  1.29D+00  1.58D+00  1.25D+00  1.98D+00
                    CP:  2.04D+00  1.74D+00
 E= -3010.57458316679     Delta-E=       -0.000001870036 Rises=F Damp=F
 DIIS: error= 1.05D-05 at cycle  13 NSaved=  13.
 NSaved=13 IEnMin=13 EnMin= -3010.57458316679     IErMin=13 ErrMin= 1.05D-05
 ErrMax= 1.05D-05  0.00D+00 EMaxC= 1.00D-01 BMatC= 4.00D-08 BMatP= 2.04D-07
 IDIUse=1 WtCom= 1.00D+00 WtEn= 0.00D+00
 Coeff-Com:  0.506D-05-0.119D-05 0.375D-04 0.782D-05-0.533D-03-0.129D-02
 Coeff-Com:  0.747D-03 0.655D-02 0.149D-01-0.586D-01-0.207D+00 0.264D+00
 Coeff-Com:  0.981D+00
 Coeff:      0.506D-05-0.119D-05 0.375D-04 0.782D-05-0.533D-03-0.129D-02
 Coeff:      0.747D-03 0.655D-02 0.149D-01-0.586D-01-0.207D+00 0.264D+00
 Coeff:      0.981D+00
 Gap=     0.234 Goal=   None    Shift=    0.000
 RMSDP=2.74D-05 MaxDP=1.45D-03 DE=-1.87D-06 OVMax= 8.85D-04

 Cycle  14  Pass 1  IDiag  1:
 RMSU=  6.72D-06    CP:  7.11D-03  1.78D+00  1.37D+00  5.52D-01  5.17D-01
                    CP:  1.05D+00  1.29D+00  1.58D+00  1.25D+00  2.07D+00
                    CP:  2.19D+00  2.19D+00  1.34D+00
 E= -3010.57458350578     Delta-E=       -0.000000338988 Rises=F Damp=F
 DIIS: error= 4.30D-06 at cycle  14 NSaved=  14.
 NSaved=14 IEnMin=14 EnMin= -3010.57458350578     IErMin=14 ErrMin= 4.30D-06
 ErrMax= 4.30D-06  0.00D+00 EMaxC= 1.00D-01 BMatC= 7.78D-09 BMatP= 4.00D-08
 IDIUse=1 WtCom= 1.00D+00 WtEn= 0.00D+00
 Coeff-Com: -0.291D-05 0.590D-05 0.307D-04 0.159D-04-0.137D-03-0.770D-03
 Coeff-Com: -0.272D-02 0.165D-02 0.162D-01 0.297D-01-0.851D-01-0.109D+00
 Coeff-Com:  0.124D+00 0.103D+01
 Coeff:     -0.291D-05 0.590D-05 0.307D-04 0.159D-04-0.137D-03-0.770D-03
 Coeff:     -0.272D-02 0.165D-02 0.162D-01 0.297D-01-0.851D-01-0.109D+00
 Coeff:      0.124D+00 0.103D+01
 Gap=     0.234 Goal=   None    Shift=    0.000
 RMSDP=1.53D-05 MaxDP=1.23D-03 DE=-3.39D-07 OVMax= 3.60D-04

 Cycle  15  Pass 1  IDiag  1:
 RMSU=  1.77D-06    CP:  7.12D-03  1.78D+00  1.37D+00  5.52D-01  5.17D-01
                    CP:  1.05D+00  1.29D+00  1.59D+00  1.26D+00  2.10D+00
                    CP:  2.24D+00  2.36D+00  1.70D+00  1.40D+00
 E= -3010.57458356147     Delta-E=       -0.000000055696 Rises=F Damp=F
 DIIS: error= 2.66D-06 at cycle  15 NSaved=  15.
 NSaved=15 IEnMin=15 EnMin= -3010.57458356147     IErMin=15 ErrMin= 2.66D-06
 ErrMax= 2.66D-06  0.00D+00 EMaxC= 1.00D-01 BMatC= 2.55D-09 BMatP= 7.78D-09
 IDIUse=1 WtCom= 1.00D+00 WtEn= 0.00D+00
 Coeff-Com:  0.561D-06-0.529D-06 0.127D-04 0.620D-05 0.693D-04-0.987D-04
 Coeff-Com: -0.141D-02-0.110D-02 0.258D-02 0.260D-01 0.164D-01-0.939D-01
 Coeff-Com: -0.204D+00 0.432D+00 0.824D+00
 Coeff:      0.561D-06-0.529D-06 0.127D-04 0.620D-05 0.693D-04-0.987D-04
 Coeff:     -0.141D-02-0.110D-02 0.258D-02 0.260D-01 0.164D-01-0.939D-01
 Coeff:     -0.204D+00 0.432D+00 0.824D+00
 Gap=     0.234 Goal=   None    Shift=    0.000
 RMSDP=5.80D-06 MaxDP=3.68D-04 DE=-5.57D-08 OVMax= 1.17D-04

 Cycle  16  Pass 1  IDiag  1:
 RMSU=  1.15D-06    CP:  7.12D-03  1.78D+00  1.37D+00  5.52D-01  5.17D-01
                    CP:  1.05D+00  1.29D+00  1.59D+00  1.26D+00  2.12D+00
                    CP:  2.24D+00  2.44D+00  1.81D+00  1.62D+00  1.17D+00
 E= -3010.57458357045     Delta-E=       -0.000000008979 Rises=F Damp=F
 DIIS: error= 7.97D-07 at cycle  16 NSaved=  16.
 NSaved=16 IEnMin=16 EnMin= -3010.57458357045     IErMin=16 ErrMin= 7.97D-07
 ErrMax= 7.97D-07  0.00D+00 EMaxC= 1.00D-01 BMatC= 2.17D-10 BMatP= 2.55D-09
 IDIUse=1 WtCom= 1.00D+00 WtEn= 0.00D+00
 Coeff-Com:  0.130D-05-0.181D-05 0.291D-05-0.176D-05 0.371D-04 0.853D-04
 Coeff-Com:  0.104D-03-0.611D-03-0.139D-02 0.713D-03 0.134D-01-0.102D-03
 Coeff-Com: -0.623D-01-0.527D-01 0.140D+00 0.962D+00
 Coeff:      0.130D-05-0.181D-05 0.291D-05-0.176D-05 0.371D-04 0.853D-04
 Coeff:      0.104D-03-0.611D-03-0.139D-02 0.713D-03 0.134D-01-0.102D-03
 Coeff:     -0.623D-01-0.527D-01 0.140D+00 0.962D+00
 Gap=     0.234 Goal=   None    Shift=    0.000
 RMSDP=1.26D-06 MaxDP=6.93D-05 DE=-8.98D-09 OVMax= 3.10D-05

 Cycle  17  Pass 1  IDiag  1:
 RMSU=  3.40D-07    CP:  7.12D-03  1.78D+00  1.37D+00  5.52D-01  5.17D-01
                    CP:  1.05D+00  1.29D+00  1.59D+00  1.26D+00  2.12D+00
                    CP:  2.25D+00  2.45D+00  1.84D+00  1.68D+00  1.38D+00
                    CP:  1.09D+00
 E= -3010.57458357156     Delta-E=       -0.000000001113 Rises=F Damp=F
 DIIS: error= 2.51D-07 at cycle  17 NSaved=  17.
 NSaved=17 IEnMin=17 EnMin= -3010.57458357156     IErMin=17 ErrMin= 2.51D-07
 ErrMax= 2.51D-07  0.00D+00 EMaxC= 1.00D-01 BMatC= 4.14D-11 BMatP= 2.17D-10
 IDIUse=1 WtCom= 1.00D+00 WtEn= 0.00D+00
 Coeff-Com:  0.120D-05-0.161D-05 0.435D-06-0.988D-06 0.239D-05 0.335D-04
 Coeff-Com:  0.197D-03-0.550D-04-0.551D-03-0.269D-02 0.174D-02 0.105D-01
 Coeff-Com:  0.396D-02-0.643D-01-0.556D-01 0.330D+00 0.777D+00
 Coeff:      0.120D-05-0.161D-05 0.435D-06-0.988D-06 0.239D-05 0.335D-04
 Coeff:      0.197D-03-0.550D-04-0.551D-03-0.269D-02 0.174D-02 0.105D-01
 Coeff:      0.396D-02-0.643D-01-0.556D-01 0.330D+00 0.777D+00
 Gap=     0.234 Goal=   None    Shift=    0.000
 RMSDP=4.02D-07 MaxDP=2.37D-05 DE=-1.11D-09 OVMax= 1.17D-05

 Cycle  18  Pass 1  IDiag  1:
 RMSU=  1.21D-07    CP:  7.12D-03  1.78D+00  1.37D+00  5.52D-01  5.17D-01
                    CP:  1.05D+00  1.29D+00  1.59D+00  1.26D+00  2.12D+00
                    CP:  2.25D+00  2.45D+00  1.84D+00  1.68D+00  1.43D+00
                    CP:  1.12D+00  1.43D+00
 E= -3010.57458357168     Delta-E=       -0.000000000118 Rises=F Damp=F
 DIIS: error= 1.47D-07 at cycle  18 NSaved=  18.
 NSaved=18 IEnMin=18 EnMin= -3010.57458357168     IErMin=18 ErrMin= 1.47D-07
 ErrMax= 1.47D-07  0.00D+00 EMaxC= 1.00D-01 BMatC= 9.15D-12 BMatP= 4.14D-11
 IDIUse=1 WtCom= 1.00D+00 WtEn= 0.00D+00
 Coeff-Com:  0.499D-07-0.958D-07-0.108D-05-0.195D-06-0.632D-05-0.536D-05
 Coeff-Com:  0.363D-04 0.155D-03 0.196D-03-0.782D-03-0.254D-02 0.195D-02
 Coeff-Com:  0.159D-01-0.285D-02-0.493D-01-0.154D+00 0.189D+00 0.100D+01
 Coeff:      0.499D-07-0.958D-07-0.108D-05-0.195D-06-0.632D-05-0.536D-05
 Coeff:      0.363D-04 0.155D-03 0.196D-03-0.782D-03-0.254D-02 0.195D-02
 Coeff:      0.159D-01-0.285D-02-0.493D-01-0.154D+00 0.189D+00 0.100D+01
 Gap=     0.234 Goal=   None    Shift=    0.000
 RMSDP=3.12D-07 MaxDP=1.81D-05 DE=-1.18D-10 OVMax= 1.06D-05

 Cycle  19  Pass 1  IDiag  1:
 RMSU=  8.79D-08    CP:  7.12D-03  1.78D+00  1.37D+00  5.52D-01  5.17D-01
                    CP:  1.05D+00  1.29D+00  1.59D+00  1.26D+00  2.12D+00
                    CP:  2.26D+00  2.45D+00  1.84D+00  1.67D+00  1.46D+00
                    CP:  1.15D+00  1.75D+00  1.48D+00
 E= -3010.57458357173     Delta-E=       -0.000000000048 Rises=F Damp=F
 DIIS: error= 7.96D-08 at cycle  19 NSaved=  19.
 NSaved=19 IEnMin=19 EnMin= -3010.57458357173     IErMin=19 ErrMin= 7.96D-08
 ErrMax= 7.96D-08  0.00D+00 EMaxC= 1.00D-01 BMatC= 2.54D-12 BMatP= 9.15D-12
 IDIUse=1 WtCom= 1.00D+00 WtEn= 0.00D+00
 Coeff-Com: -0.615D-07 0.590D-07-0.419D-06 0.608D-07-0.174D-05-0.526D-05
 Coeff-Com: -0.353D-04 0.391D-04 0.143D-03 0.397D-03-0.770D-03-0.217D-02
 Coeff-Com:  0.239D-02 0.129D-01 0.655D-02-0.979D-01-0.139D+00 0.203D+00
 Coeff-Com:  0.101D+01
 Coeff:     -0.615D-07 0.590D-07-0.419D-06 0.608D-07-0.174D-05-0.526D-05
 Coeff:     -0.353D-04 0.391D-04 0.143D-03 0.397D-03-0.770D-03-0.217D-02
 Coeff:      0.239D-02 0.129D-01 0.655D-02-0.979D-01-0.139D+00 0.203D+00
 Coeff:      0.101D+01
 Gap=     0.234 Goal=   None    Shift=    0.000
 RMSDP=1.42D-07 MaxDP=7.33D-06 DE=-4.82D-11 OVMax= 6.21D-06

 Cycle  20  Pass 1  IDiag  1:
 RMSU=  2.53D-08    CP:  7.12D-03  1.78D+00  1.37D+00  5.52D-01  5.17D-01
                    CP:  1.05D+00  1.29D+00  1.59D+00  1.26D+00  2.12D+00
                    CP:  2.26D+00  2.45D+00  1.85D+00  1.67D+00  1.48D+00
                    CP:  1.15D+00  1.93D+00  1.90D+00  1.49D+00
 E= -3010.57458357175     Delta-E=       -0.000000000018 Rises=F Damp=F
 DIIS: error= 3.97D-08 at cycle  20 NSaved=  20.
 NSaved=20 IEnMin=20 EnMin= -3010.57458357175     IErMin=20 ErrMin= 3.97D-08
 ErrMax= 3.97D-08  0.00D+00 EMaxC= 1.00D-01 BMatC= 5.86D-13 BMatP= 2.54D-12
 IDIUse=1 WtCom= 1.00D+00 WtEn= 0.00D+00
 Coeff-Com: -0.808D-07 0.111D-06 0.351D-07 0.877D-07 0.106D-05 0.664D-07
 Coeff-Com: -0.194D-04-0.238D-04-0.135D-04 0.327D-03 0.616D-03-0.136D-02
 Coeff-Com: -0.345D-02 0.339D-02 0.176D-01 0.918D-02-0.939D-01-0.198D+00
 Coeff-Com:  0.184D+00 0.108D+01
 Coeff:     -0.808D-07 0.111D-06 0.351D-07 0.877D-07 0.106D-05 0.664D-07
 Coeff:     -0.194D-04-0.238D-04-0.135D-04 0.327D-03 0.616D-03-0.136D-02
 Coeff:     -0.345D-02 0.339D-02 0.176D-01 0.918D-02-0.939D-01-0.198D+00
 Coeff:      0.184D+00 0.108D+01
 Gap=     0.234 Goal=   None    Shift=    0.000
 RMSDP=9.29D-08 MaxDP=5.38D-06 DE=-1.77D-11 OVMax= 4.26D-06

 Cycle  21  Pass 1  IDiag  1:
 Restarting incremental Fock formation.
 E= -3010.57458357180     Delta-E=       -0.000000000055 Rises=F Damp=F
 DIIS: error= 2.09D-08 at cycle  21 NSaved=  20.
 NSaved=20 IEnMin=20 EnMin= -3010.57458357180     IErMin=20 ErrMin= 2.09D-08
 ErrMax= 2.09D-08  0.00D+00 EMaxC= 1.00D-01 BMatC= 1.59D-13 BMatP= 5.86D-13
 IDIUse=1 WtCom= 1.00D+00 WtEn= 0.00D+00
 Coeff-Com:  0.187D-08 0.138D-06 0.340D-07 0.566D-06 0.961D-06 0.586D-05
 Coeff-Com: -0.127D-04-0.391D-04-0.654D-04 0.326D-03 0.262D-03-0.959D-03
 Coeff-Com: -0.389D-02 0.283D-02 0.270D-01 0.230D-01-0.657D-01-0.294D+00
 Coeff-Com:  0.241D+00 0.107D+01
 Coeff:      0.187D-08 0.138D-06 0.340D-07 0.566D-06 0.961D-06 0.586D-05
 Coeff:     -0.127D-04-0.391D-04-0.654D-04 0.326D-03 0.262D-03-0.959D-03
 Coeff:     -0.389D-02 0.283D-02 0.270D-01 0.230D-01-0.657D-01-0.294D+00
 Coeff:      0.241D+00 0.107D+01
 Gap=     0.234 Goal=   None    Shift=    0.000
 RMSDP=5.62D-08 MaxDP=4.09D-06 DE=-5.55D-11 OVMax= 1.94D-06

 Cycle  22  Pass 1  IDiag  1:
 RMSU=  4.79D-08    CP:  1.00D+00
 E= -3010.57458357176     Delta-E=        0.000000000040 Rises=F Damp=F
 DIIS: error= 9.26D-09 at cycle  22 NSaved=  20.
 NSaved=20 IEnMin=19 EnMin= -3010.57458357180     IErMin=20 ErrMin= 9.26D-09
 ErrMax= 9.26D-09  0.00D+00 EMaxC= 1.00D-01 BMatC= 2.01D-14 BMatP= 1.59D-13
 IDIUse=1 WtCom= 1.00D+00 WtEn= 0.00D+00
 Coeff-Com:  0.412D-07-0.244D-07 0.578D-07 0.264D-06 0.344D-05 0.316D-05
 Coeff-Com:  0.505D-06-0.476D-04-0.468D-04 0.176D-03 0.468D-03-0.979D-03
 Coeff-Com: -0.136D-02-0.130D-03 0.141D-01 0.331D-01-0.835D-01-0.120D+00
 Coeff-Com:  0.944D-01 0.106D+01
 Coeff:      0.412D-07-0.244D-07 0.578D-07 0.264D-06 0.344D-05 0.316D-05
 Coeff:      0.505D-06-0.476D-04-0.468D-04 0.176D-03 0.468D-03-0.979D-03
 Coeff:     -0.136D-02-0.130D-03 0.141D-01 0.331D-01-0.835D-01-0.120D+00
 Coeff:      0.944D-01 0.106D+01
 Gap=     0.234 Goal=   None    Shift=    0.000
 RMSDP=2.37D-08 MaxDP=1.38D-06 DE= 4.05D-11 OVMax= 5.67D-07

 Cycle  23  Pass 1  IDiag  1:
 RMSU=  1.10D-08    CP:  1.00D+00  1.40D+00
 E= -3010.57458357177     Delta-E=       -0.000000000003 Rises=F Damp=F
 DIIS: error= 2.99D-09 at cycle  23 NSaved=  20.
 NSaved=20 IEnMin=18 EnMin= -3010.57458357180     IErMin=20 ErrMin= 2.99D-09
 ErrMax= 2.99D-09  0.00D+00 EMaxC= 1.00D-01 BMatC= 3.72D-15 BMatP= 2.01D-14
 IDIUse=1 WtCom= 1.00D+00 WtEn= 0.00D+00
 Large coefficients: NSaved= 20 BigCof=    0.00 CofMax=   10.00 Det=-7.27D-15
 Inversion failed.  Reducing to 19 matrices.
 Large coefficients: NSaved= 19 BigCof=    0.00 CofMax=   10.00 Det=-7.60D-15
 Inversion failed.  Reducing to 18 matrices.
 Large coefficients: NSaved= 18 BigCof=    0.00 CofMax=   10.00 Det=-8.14D-15
 Inversion failed.  Reducing to 17 matrices.
 Large coefficients: NSaved= 17 BigCof=    0.00 CofMax=   10.00 Det=-8.31D-15
 Inversion failed.  Reducing to 16 matrices.
 Large coefficients: NSaved= 16 BigCof=    0.00 CofMax=   10.00 Det=-8.62D-15
 Inversion failed.  Reducing to 15 matrices.
 Coeff-Com:  0.579D-06 0.789D-05-0.843D-05-0.244D-04 0.189D-04 0.698D-04
 Coeff-Com:  0.148D-03-0.156D-02-0.308D-02 0.664D-02 0.183D-01-0.139D-01
 Coeff-Com: -0.117D+00 0.109D+00 0.100D+01
 Coeff:      0.579D-06 0.789D-05-0.843D-05-0.244D-04 0.189D-04 0.698D-04
 Coeff:      0.148D-03-0.156D-02-0.308D-02 0.664D-02 0.183D-01-0.139D-01
 Coeff:     -0.117D+00 0.109D+00 0.100D+01
 Gap=     0.234 Goal=   None    Shift=    0.000
 RMSDP=8.05D-09 MaxDP=4.59D-07 DE=-2.73D-12 OVMax= 1.21D-07

 SCF Done:  E(RwB97XD) =  -3010.57458357     A.U. after   23 cycles
            NFock= 23  Conv=0.81D-08     -V/T= 2.0016
 KE= 3.005792798580D+03 PE=-8.628175809372D+03 EE= 1.875365881366D+03
 Leave Link  502 at Wed May  1 15:13:37 2024, MaxMem=  1207959552 cpu:            1305.4 elap:            1305.7
 (Enter /software/gaussian/g16-c01/sse4/g16/l601.exe)
 Copying SCF densities to generalized density rwf, IOpCl= 0 IROHF=0.

 **********************************************************************

            Population analysis using the SCF Density.

 **********************************************************************

 Alpha  occ. eigenvalues -- -483.27805 -62.82770 -56.62510 -56.61879 -56.61869
 Alpha  occ. eigenvalues --  -19.45523 -19.45230 -14.84719 -10.57627 -10.56292
 Alpha  occ. eigenvalues --  -10.56125 -10.55215 -10.55037 -10.53872  -8.98531
 Alpha  occ. eigenvalues --   -6.81331  -6.79271  -6.79239  -2.91204  -2.90664
 Alpha  occ. eigenvalues --   -2.90638  -2.88991  -2.88991  -1.49082  -1.32079
 Alpha  occ. eigenvalues --   -1.21599  -1.12513  -1.11059  -1.01635  -1.00322
 Alpha  occ. eigenvalues --   -0.94300  -0.90107  -0.85036  -0.80371  -0.79721
 Alpha  occ. eigenvalues --   -0.79329  -0.77669  -0.75358  -0.74684  -0.71109
 Alpha  occ. eigenvalues --   -0.68226  -0.66618  -0.62312  -0.58680  -0.56787
 Alpha  occ. eigenvalues --   -0.55667  -0.54844  -0.51976  -0.51694
 Alpha virt. eigenvalues --   -0.28261  -0.20304  -0.19383  -0.15111  -0.14930
 Alpha virt. eigenvalues --   -0.11212  -0.09323  -0.09052  -0.07089  -0.04841
 Alpha virt. eigenvalues --   -0.04372  -0.02751  -0.01383  -0.00772  -0.00428
 Alpha virt. eigenvalues --   -0.00023   0.01519   0.02612   0.02890   0.03223
 Alpha virt. eigenvalues --    0.04952   0.05659   0.06166   0.06725   0.07147
 Alpha virt. eigenvalues --    0.07785   0.08839   0.09263   0.10046   0.11117
 Alpha virt. eigenvalues --    0.11790   0.12424   0.13300   0.13516   0.14259
 Alpha virt. eigenvalues --    0.15019   0.15320   0.15875   0.16462   0.17437
 Alpha virt. eigenvalues --    0.18825   0.19287   0.20388   0.21156   0.21491
 Alpha virt. eigenvalues --    0.23107   0.24186   0.25300   0.25654   0.28066
 Alpha virt. eigenvalues --    0.28298   0.28620   0.29140   0.31421   0.33066
 Alpha virt. eigenvalues --    0.34231   0.35634   0.36659   0.37696   0.38245
 Alpha virt. eigenvalues --    0.39111   0.40020   0.41361   0.42589   0.43540
 Alpha virt. eigenvalues --    0.44240   0.45232   0.46189   0.46913   0.48311
 Alpha virt. eigenvalues --    0.49174   0.51717   0.52257   0.52775   0.54316
 Alpha virt. eigenvalues --    0.55702   0.57001   0.57374   0.59593   0.61321
 Alpha virt. eigenvalues --    0.61628   0.64511   0.66919   0.68420   0.68941
 Alpha virt. eigenvalues --    0.70823   0.71448   0.72591   0.74273   0.75369
 Alpha virt. eigenvalues --    0.76544   0.79863   0.81872   0.85789   0.86623
 Alpha virt. eigenvalues --    0.87832   0.88470   0.92968   0.94247   0.98424
 Alpha virt. eigenvalues --    1.00900   1.01246   1.05322   1.06451   1.07606
 Alpha virt. eigenvalues --    1.10455   1.10594   1.12523   1.13265   1.15655
 Alpha virt. eigenvalues --    1.23052   1.25427   1.27427   1.33522   1.37161
 Alpha virt. eigenvalues --    1.37462   1.39895   1.46645   1.55179   1.57739
 Alpha virt. eigenvalues --    1.59132   1.59837   1.61225   1.63517   1.67365
 Alpha virt. eigenvalues --    1.69784   1.70979   1.74098   1.76023   1.79606
 Alpha virt. eigenvalues --    1.82048   1.85072   1.88546   1.96477   1.98874
 Alpha virt. eigenvalues --    2.00332   2.03642   2.04733   2.08659   2.09755
 Alpha virt. eigenvalues --    2.12317   2.15519   2.20455   2.22859   2.27364
 Alpha virt. eigenvalues --    2.38089   2.42301   2.43382   2.45943   2.52851
 Alpha virt. eigenvalues --    2.57454   2.63419   2.66702   2.69032   2.71815
 Alpha virt. eigenvalues --    2.74565   2.77120   2.77768   2.81520   2.82874
 Alpha virt. eigenvalues --    2.94980   2.97775   3.01228   3.07497   3.09984
 Alpha virt. eigenvalues --    3.13406   3.14298   3.18746   3.23704   3.25540
 Alpha virt. eigenvalues --    3.27862   3.39683   3.47160   3.51717   3.55433
 Alpha virt. eigenvalues --    3.57831   3.70588   3.74700   3.82802   3.88087
 Alpha virt. eigenvalues --    4.12789   4.12979   4.20149   4.25521   4.44846
 Alpha virt. eigenvalues --    4.46246   4.58406   4.60480   4.93493   4.96483
 Alpha virt. eigenvalues --    5.04840   5.09272   5.63342   6.16267   6.68440
 Alpha virt. eigenvalues --    7.51470   7.53062   7.62661  23.21976  23.61991
 Alpha virt. eigenvalues --   23.72320  23.79645  23.96063  24.02126  35.33236
 Alpha virt. eigenvalues --   47.94717  49.86015  49.94821 289.83973 289.85640
 Alpha virt. eigenvalues --  289.980421020.95041
          Condensed to atoms (all electrons):
               1          2          3          4          5          6
     1  C   11.807807  -5.345880   1.558019  -3.275684  -1.081401   0.271613
     2  C   -5.345880  17.707641  -4.052312   0.003595   1.153994  -0.025101
     3  C    1.558019  -4.052312  17.155422  -6.597650  -2.731687   0.005647
     4  C   -3.275684   0.003595  -6.597650  18.248667   2.886319   0.021484
     5  C   -1.081401   1.153994  -2.731687   2.886319   8.896694   0.084320
     6  H    0.271613  -0.025101   0.005647   0.021484   0.084320   0.453296
     7  H    0.118686   0.116169   0.190297  -0.061425  -0.043543  -0.003935
     8  H    0.000606   0.010624   0.034199   0.286584  -0.013345  -0.000005
     9  H    0.007278   0.004555  -0.000684   0.020934   0.280293  -0.002907
    10  N   -0.371436   0.572799  -1.122538   0.474398   0.050096  -0.000695
    11  O   -0.025254  -0.040418  -0.282967   0.102612  -0.046556  -0.000022
    12  O    0.457237  -0.159983  -0.283331  -0.133276  -0.056060   0.000022
    13  C    2.446347  -4.528917   2.776783  -6.224180  -3.412737  -0.027063
    14  H   -0.000623  -0.040137   0.039197  -0.182358  -0.042827  -0.000107
    15  Br   0.048414  -0.051528   0.177869   0.017781   0.185152  -0.000371
               7          8          9         10         11         12
     1  C    0.118686   0.000606   0.007278  -0.371436  -0.025254   0.457237
     2  C    0.116169   0.010624   0.004555   0.572799  -0.040418  -0.159983
     3  C    0.190297   0.034199  -0.000684  -1.122538  -0.282967  -0.283331
     4  C   -0.061425   0.286584   0.020934   0.474398   0.102612  -0.133276
     5  C   -0.043543  -0.013345   0.280293   0.050096  -0.046556  -0.056060
     6  H   -0.003935  -0.000005  -0.002907  -0.000695  -0.000022   0.000022
     7  H    0.394806   0.000019  -0.000022  -0.039444  -0.002364   0.030736
     8  H    0.000019   0.239024   0.000147  -0.017036   0.016003  -0.000205
     9  H   -0.000022   0.000147   0.346664   0.000479   0.000016   0.000003
    10  N   -0.039444  -0.017036   0.000479   7.410368   0.268379   0.045286
    11  O   -0.002364   0.016003   0.000016   0.268379   7.625504  -0.001441
    12  O    0.030736  -0.000205   0.000003   0.045286  -0.001441   8.127643
    13  C    0.030383  -0.003699   0.009435  -0.166038   0.230190   0.077729
    14  H   -0.000016  -0.002559  -0.006301  -0.000473  -0.000377  -0.000047
    15  Br  -0.000196   0.001398  -0.004887  -0.004304   0.000704   0.002008
              13         14         15
     1  C    2.446347  -0.000623   0.048414
     2  C   -4.528917  -0.040137  -0.051528
     3  C    2.776783   0.039197   0.177869
     4  C   -6.224180  -0.182358   0.017781
     5  C   -3.412737  -0.042827   0.185152
     6  H   -0.027063  -0.000107  -0.000371
     7  H    0.030383  -0.000016  -0.000196
     8  H   -0.003699  -0.002559   0.001398
     9  H    0.009435  -0.006301  -0.004887
    10  N   -0.166038  -0.000473  -0.004304
    11  O    0.230190  -0.000377   0.000704
    12  O    0.077729  -0.000047   0.002008
    13  C   15.009651   0.512149  -0.184499
    14  H    0.512149   0.286287  -0.025935
    15  Br  -0.184499  -0.025935  34.490123
 Mulliken charges:
               1
     1  C   -0.615727
     2  C    0.674900
     3  C   -0.866264
     4  C    0.412199
     5  C   -0.108712
     6  H    0.223825
     7  H    0.269847
     8  H    0.448245
     9  H    0.344998
    10  N   -0.099843
    11  O    0.155992
    12  O   -0.106321
    13  C   -0.545534
    14  H    0.464126
    15  Br   0.348271
 Sum of Mulliken charges =   1.00000
 Mulliken charges with hydrogens summed into heavy atoms:
               1
     1  C   -0.391902
     2  C    0.944747
     3  C   -0.866264
     4  C    0.860444
     5  C    0.236286
    10  N   -0.099843
    11  O    0.155992
    12  O   -0.106321
    13  C   -0.081408
    15  Br   0.348271
 Electronic spatial extent (au):  <R**2>=           2796.0735
 Charge=              1.0000 electrons
 Dipole moment (field-independent basis, Debye):
    X=             -1.5906    Y=             -7.6634    Z=             -0.9942  Tot=              7.8896
 Quadrupole moment (field-independent basis, Debye-Ang):
   XX=            -72.4487   YY=            -49.6121   ZZ=            -60.7004
   XY=             -6.4821   XZ=              1.9149   YZ=              4.9325
 Traceless Quadrupole moment (field-independent basis, Debye-Ang):
   XX=            -11.5283   YY=             11.3083   ZZ=              0.2200
   XY=             -6.4821   XZ=              1.9149   YZ=              4.9325
 Octapole moment (field-independent basis, Debye-Ang**2):
  XXX=           -306.2914  YYY=             45.5857  ZZZ=             71.3516  XYY=            -81.7697
  XXY=             -7.4380  XXZ=             31.3381  XZZ=            -80.4344  YZZ=              4.7130
  YYZ=             15.8233  XYZ=             -4.9606
 Hexadecapole moment (field-independent basis, Debye-Ang**3):
 XXXX=          -2305.7962 YYYY=           -650.4470 ZZZZ=           -332.8010 XXXY=           -198.6086
 XXXZ=            -18.6831 YYYX=            -84.5750 YYYZ=           -127.3328 ZZZX=            -13.8901
 ZZZY=           -116.9375 XXYY=           -461.6053 XXZZ=           -369.6224 YYZZ=           -143.4492
 XXYZ=            -48.7956 YYXZ=              4.0302 ZZXY=             -9.2598
 N-N= 7.364425458535D+02 E-N=-8.628175809055D+03  KE= 3.005792798580D+03
 No NMR shielding tensors so no spin-rotation constants.
 Leave Link  601 at Wed May  1 15:13:44 2024, MaxMem=  1207959552 cpu:               7.4 elap:               7.4
 (Enter /software/gaussian/g16-c01/sse4/g16/l9999.exe)
 Unable to Open any file for archive entry.
 1\1\GINC-BHX0009\SP\RwB97XD\6-311+G(d)\C6H5Br1N1O2(1+)\BWEIGHT\01-May-
 2024\0\\#P wB97XD/6-311+G* NoSymm #P Field=Y+243\\TitleMe\\1,1\C,0,0.0
 295,1.3397,0.0682\C,0,1.4348,1.2867,0.0064\C,0,2.1118,0.0511,-0.0054\C
 ,0,1.4451,-1.1372,0.0312\C,0,-0.6879,0.1682,0.11\H,0,-0.4713,2.2984,0.
 0781\H,0,2.0273,2.1965,-0.0322\H,0,1.9897,-2.0764,0.0232\H,0,-1.7716,0
 .1804,0.1582\N,0,3.5864,0.051,-0.0675\O,0,4.1471,-1.0597,-0.0881\O,0,4
 .145,1.1639,-0.0901\C,0,-0.0236,-1.1458,0.0835\H,0,-0.4367,-1.8725,0.7
 889\Br,0,-0.5359,-1.8697,-1.7408\\Version=ES64L-G16RevC.01\HF=-3010.57
 45836\RMSD=8.054e-09\Dipole=-2.5323377,-1.8669358,0.755047\Quadrupole=
 -8.5710305,8.4074413,0.1635892,-4.819272,1.4236809,3.6671739\PG=C01 [X
 (C6H5Br1N1O2)]\\@
 The archive entry for this job was punched.


 The chemist is a guest at the physicist's table and
 frequently dines well.
                   -- Richard Bersohn
 Job cpu time:       0 days  0 hours 22 minutes 52.1 seconds.
 Elapsed time:       0 days  0 hours 22 minutes 52.5 seconds.
 File lengths (MBytes):  RWF=     40 Int=      0 D2E=      0 Chk=     32 Scr=      1
 Normal termination of Gaussian 16 at Wed May  1 15:13:45 2024.
