 Entering Gaussian System, Link 0=g16
 Initial command:
 /software/gaussian/g16-c01/sse4/g16/l1.exe "/local_scratch/24665340/Gau-5149.inp" -scrdir="/local_scratch/24665340/"
 Entering Link 1 = /software/gaussian/g16-c01/sse4/g16/l1.exe PID=      5175.
  
 Copyright (c) 1988-2019, Gaussian, Inc.  All Rights Reserved.
  
 This is part of the Gaussian(R) 16 program.  It is based on
 the Gaussian(R) 09 system (copyright 2009, Gaussian, Inc.),
 the Gaussian(R) 03 system (copyright 2003, Gaussian, Inc.),
 the Gaussian(R) 98 system (copyright 1998, Gaussian, Inc.),
 the Gaussian(R) 94 system (copyright 1995, Gaussian, Inc.),
 the Gaussian 92(TM) system (copyright 1992, Gaussian, Inc.),
 the Gaussian 90(TM) system (copyright 1990, Gaussian, Inc.),
 the Gaussian 88(TM) system (copyright 1988, Gaussian, Inc.),
 the Gaussian 86(TM) system (copyright 1986, Carnegie Mellon
 University), and the Gaussian 82(TM) system (copyright 1983,
 Carnegie Mellon University). Gaussian is a federally registered
 trademark of Gaussian, Inc.
  
 This software contains proprietary and confidential information,
 including trade secrets, belonging to Gaussian, Inc.
  
 This software is provided under written license and may be
 used, copied, transmitted, or stored only in accord with that
 written license.
  
 The following legend is applicable only to US Government
 contracts under FAR:
  
                    RESTRICTED RIGHTS LEGEND
  
 Use, reproduction and disclosure by the US Government is
 subject to restrictions as set forth in subparagraphs (a)
 and (c) of the Commercial Computer Software - Restricted
 Rights clause in FAR 52.227-19.
  
 Gaussian, Inc.
 340 Quinnipiac St., Bldg. 40, Wallingford CT 06492
  
  
 ---------------------------------------------------------------
 Warning -- This program may not be used in any manner that
 competes with the business of Gaussian, Inc. or will provide
 assistance to any competitor of Gaussian, Inc.  The licensee
 of this program is prohibited from giving any competitor of
 Gaussian, Inc. access to this program.  By using this program,
 the user acknowledges that Gaussian, Inc. is engaged in the
 business of creating and licensing software in the field of
 computational chemistry and represents and warrants to the
 licensee that it is not a competitor of Gaussian, Inc. and that
 it will not use this program in any manner prohibited above.
 ---------------------------------------------------------------
  

 Cite this work as:
 Gaussian 16, Revision C.01,
 M. J. Frisch, G. W. Trucks, H. B. Schlegel, G. E. Scuseria, 
 M. A. Robb, J. R. Cheeseman, G. Scalmani, V. Barone, 
 G. A. Petersson, H. Nakatsuji, X. Li, M. Caricato, A. V. Marenich, 
 J. Bloino, B. G. Janesko, R. Gomperts, B. Mennucci, H. P. Hratchian, 
 J. V. Ortiz, A. F. Izmaylov, J. L. Sonnenberg, D. Williams-Young, 
 F. Ding, F. Lipparini, F. Egidi, J. Goings, B. Peng, A. Petrone, 
 T. Henderson, D. Ranasinghe, V. G. Zakrzewski, J. Gao, N. Rega, 
 G. Zheng, W. Liang, M. Hada, M. Ehara, K. Toyota, R. Fukuda, 
 J. Hasegawa, M. Ishida, T. Nakajima, Y. Honda, O. Kitao, H. Nakai, 
 T. Vreven, K. Throssell, J. A. Montgomery, Jr., J. E. Peralta, 
 F. Ogliaro, M. J. Bearpark, J. J. Heyd, E. N. Brothers, K. N. Kudin, 
 V. N. Staroverov, T. A. Keith, R. Kobayashi, J. Normand, 
 K. Raghavachari, A. P. Rendell, J. C. Burant, S. S. Iyengar, 
 J. Tomasi, M. Cossi, J. M. Millam, M. Klene, C. Adamo, R. Cammi, 
 J. W. Ochterski, R. L. Martin, K. Morokuma, O. Farkas, 
 J. B. Foresman, and D. J. Fox, Gaussian, Inc., Wallingford CT, 2019.
 
 ******************************************
 Gaussian 16:  ES64L-G16RevC.01  3-Jul-2019
                 2-May-2024 
 ******************************************
 %chk=geometry.chk
 %mem=1GB
 %nprocshared=12
 Will use up to   12 processors via shared memory.
 ----------------------------------------
 #P wB97XD/6-311+G* NoSymm #P Field=Y+165
 ----------------------------------------
 1/38=1,172=1/1;
 2/12=2,15=1,17=6,18=5,40=1/2;
 3/5=4,6=6,7=11,11=2,14=2,15=165,25=1,30=1,74=-58/1,2,3;
 4//1;
 5/5=2,38=5/2;
 6/7=2,8=2,9=2,10=2,28=1/1;
 99/5=1,9=1/99;
 Leave Link    1 at Thu May  2 13:57:43 2024, MaxMem=   134217728 cpu:               1.1 elap:               1.1
 (Enter /software/gaussian/g16-c01/sse4/g16/l101.exe)
 -------
 TitleMe
 -------
 Symbolic Z-matrix:
 Charge =  1 Multiplicity = 1
 C                     0.5193    1.233    -0.0319 
 C                     1.9445    1.2692   -0.0367 
 C                     2.6204    0.0928   -0.025 
 C                    -0.196     0.0301    0.001 
 H                    -0.0207    2.1742   -0.0434 
 H                     2.4828    2.2089   -0.0361 
 H                    -1.2777    0.0399    0.0117 
 N                     4.0921    0.0959    0.0366 
 O                     4.6393   -1.0217    0.1446 
 O                     4.6649    1.1984   -0.0233 
 C                     0.4943   -1.1671    0.021 
 H                    -0.0325   -2.1149    0.0545 
 C                     1.9629   -1.2165   -0.0211 
 H                     2.4436   -1.9631    0.6151 
 Br                    2.173    -1.9491   -1.9062 
 
 ITRead=  0  0  0  0  0  0  0  0  0  0  0  0  0  0  0
 MicOpt= -1 -1 -1 -1 -1 -1 -1 -1 -1 -1 -1 -1 -1 -1 -1
 NAtoms=     15 NQM=       15 NQMF=       0 NMMI=      0 NMMIF=      0
                NMic=       0 NMicF=      0.
                    Isotopes and Nuclear Properties:
 (Nuclear quadrupole moments (NQMom) in fm**2, nuclear magnetic moments (NMagM)
  in nuclear magnetons)

  Atom         1           2           3           4           5           6           7           8           9          10
 IAtWgt=          12          12          12          12           1           1           1          14          16          16
 AtmWgt=  12.0000000  12.0000000  12.0000000  12.0000000   1.0078250   1.0078250   1.0078250  14.0030740  15.9949146  15.9949146
 NucSpn=           0           0           0           0           1           1           1           2           0           0
 AtZEff=  -0.0000000  -0.0000000  -0.0000000  -0.0000000  -0.0000000  -0.0000000  -0.0000000  -0.0000000  -0.0000000  -0.0000000
 NQMom=    0.0000000   0.0000000   0.0000000   0.0000000   0.0000000   0.0000000   0.0000000   2.0440000   0.0000000   0.0000000
 NMagM=    0.0000000   0.0000000   0.0000000   0.0000000   2.7928460   2.7928460   2.7928460   0.4037610   0.0000000   0.0000000
 AtZNuc=   6.0000000   6.0000000   6.0000000   6.0000000   1.0000000   1.0000000   1.0000000   7.0000000   8.0000000   8.0000000

  Atom        11          12          13          14          15
 IAtWgt=          12           1          12           1          79
 AtmWgt=  12.0000000   1.0078250  12.0000000   1.0078250  78.9183361
 NucSpn=           0           1           0           1           3
 AtZEff=  -0.0000000  -0.0000000  -0.0000000  -0.0000000  -0.0000000
 NQMom=    0.0000000   0.0000000   0.0000000   0.0000000  31.3000000
 NMagM=    0.0000000   2.7928460   0.0000000   2.7928460   2.1063990
 AtZNuc=   6.0000000   1.0000000   6.0000000   1.0000000  35.0000000
 Leave Link  101 at Thu May  2 13:57:45 2024, MaxMem=   134217728 cpu:               1.6 elap:               1.6
 (Enter /software/gaussian/g16-c01/sse4/g16/l202.exe)
                          Input orientation:                          
 ---------------------------------------------------------------------
 Center     Atomic      Atomic             Coordinates (Angstroms)
 Number     Number       Type             X           Y           Z
 ---------------------------------------------------------------------
      1          6           0        0.519300    1.233000   -0.031900
      2          6           0        1.944500    1.269200   -0.036700
      3          6           0        2.620400    0.092800   -0.025000
      4          6           0       -0.196000    0.030100    0.001000
      5          1           0       -0.020700    2.174200   -0.043400
      6          1           0        2.482800    2.208900   -0.036100
      7          1           0       -1.277700    0.039900    0.011700
      8          7           0        4.092100    0.095900    0.036600
      9          8           0        4.639300   -1.021700    0.144600
     10          8           0        4.664900    1.198400   -0.023300
     11          6           0        0.494300   -1.167100    0.021000
     12          1           0       -0.032500   -2.114900    0.054500
     13          6           0        1.962900   -1.216500   -0.021100
     14          1           0        2.443600   -1.963100    0.615100
     15         35           0        2.173000   -1.949100   -1.906200
 ---------------------------------------------------------------------
                    Distance matrix (angstroms):
                    1          2          3          4          5
     1  C    0.000000
     2  C    1.425668   0.000000
     3  C    2.390549   1.356796   0.000000
     4  C    1.399895   2.473566   2.817218   0.000000
     5  H    1.085168   2.163581   3.362733   2.151712   0.000000
     6  H    2.192654   1.082960   2.120598   3.453189   2.503751
     7  H    2.157452   3.449071   3.898632   1.081797   2.477564
     8  N    3.750012   2.448304   1.472992   4.288753   4.608780
     9  O    4.699917   3.541615   2.312322   4.950458   5.653735
    10  O    4.145753   2.721354   2.324292   4.999386   4.786171
    11  C    2.400813   2.835836   2.471794   1.382101   3.381369
    12  H    3.394169   3.920329   3.452266   2.151887   4.290233
    13  C    2.843264   2.485817   1.465124   2.493060   3.928360
    14  H    3.786370   3.334922   2.160489   3.364142   4.860416
    15  Br   4.046416   3.728900   2.812194   3.628609   5.028314
                    6          7          8          9         10
     6  H    0.000000
     7  H    4.341452   0.000000
     8  N    2.657047   5.370150   0.000000
     9  O    3.888434   6.012948   1.249048   0.000000
    10  O    2.404752   6.054572   1.243863   2.226587   0.000000
    11  C    3.918516   2.144043   3.813080   4.149391   4.794941
    12  H    5.003018   2.489080   4.679774   4.798846   5.748876
    13  C    3.464662   3.475788   2.501842   2.688591   3.623886
    14  H    4.222698   4.268978   2.700314   2.434893   3.916224
    15  Br   4.569706   4.420610   3.411663   3.338935   4.434144
                   11         12         13         14         15
    11  C    0.000000
    12  H    1.084880   0.000000
    13  C    1.470034   2.189625   0.000000
    14  H    2.187771   2.543302   1.092353   0.000000
    15  Br   2.672762   2.955683   2.033334   2.535818   0.000000
 Symmetry turned off by external request.
 Stoichiometry    C6H5BrNO2(1+)
 Framework group  C1[X(C6H5BrNO2)]
 Deg. of freedom    39
 Full point group                 C1      NOp   1
 Rotational constants (GHZ):           1.1632986           0.9594224           0.5957624
 Leave Link  202 at Thu May  2 13:57:46 2024, MaxMem=   134217728 cpu:               1.2 elap:               1.2
 (Enter /software/gaussian/g16-c01/sse4/g16/l301.exe)
 Standard basis: 6-311+G(d) (5D, 7F)
 Ernie: Thresh=  0.10000D-02 Tol=  0.10000D-05 Strict=F.
 The following finite field(s) will be applied:
 An electric field of              0.0000  0.0165  0.0000
   261 basis functions,   443 primitive gaussians,   273 cartesian basis functions
    49 alpha electrons       49 beta electrons
       nuclear repulsion energy       772.8945969580 Hartrees.
 IExCor= 4639 DFT=T Ex+Corr=wB97XD ExCW=0 ScaHFX=  1.000000
 ScaDFX=  1.000000  1.000000  1.000000  1.000000 ScalE2=  1.000000  1.000000
 IRadAn=      5 IRanWt=     -1 IRanGd=            0 ICorTp=0 IEmpDi=121
 HFx  wShort=  0.000000 wLong=  0.200000 cFull=  0.222036 cShort=  0.000000 cLong=  0.777964
 DFx  wShort=  0.000000 wLong=  0.200000 cFull=  0.000000 cShort=  0.000000 cLong=  1.000000
 NAtoms=   15 NActive=   15 NUniq=   15 SFac= 1.00D+00 NAtFMM=   60 NAOKFM=F Big=F
 Integral buffers will be    131072 words long.
 Raffenetti 2 integral format.
 Two-electron integral symmetry is turned off.
 R6Disp:  Grimme-D2 Dispersion energy=       -0.0080346408 Hartrees.
 Nuclear repulsion after empirical dispersion term =      772.8865623173 Hartrees.
 Leave Link  301 at Thu May  2 13:57:47 2024, MaxMem=   134217728 cpu:               1.0 elap:               1.0
 (Enter /software/gaussian/g16-c01/sse4/g16/l302.exe)
 NPDir=0 NMtPBC=     1 NCelOv=     1 NCel=       1 NClECP=     1 NCelD=      1
         NCelK=      1 NCelE2=     1 NClLst=     1 CellRange=     0.0.
 One-electron integrals computed using PRISM.
 NBasis=   261 RedAO= T EigKep=  2.52D-06  NBF=   261
 NBsUse=   261 1.00D-06 EigRej= -1.00D+00 NBFU=   261
 Precomputing XC quadrature grid using
 IXCGrd= 4 IRadAn=           5 IRanWt=          -1 IRanGd=           0 AccXCQ= 0.00D+00.
 Generated NRdTot=       0 NPtTot=           0 NUsed=           0 NTot=          32
 NSgBfM=   273   273   273   273   273 MxSgAt=    15 MxSgA2=    15.
 Leave Link  302 at Thu May  2 13:58:09 2024, MaxMem=   134217728 cpu:              21.8 elap:              21.8
 (Enter /software/gaussian/g16-c01/sse4/g16/l303.exe)
 DipDrv:  MaxL=1.
 The nuclear repulsion energy is now       770.8804226384 hartrees.
 Leave Link  303 at Thu May  2 13:58:12 2024, MaxMem=   134217728 cpu:               3.4 elap:               3.4
 (Enter /software/gaussian/g16-c01/sse4/g16/l401.exe)
 ExpMin= 3.50D-02 ExpMax= 4.40D+05 ExpMxC= 1.51D+04 IAcc=3 IRadAn=         5 AccDes= 0.00D+00
 Harris functional with IExCor= 4639 and IRadAn=       5 diagonalized for initial guess.
 HarFok:  IExCor= 4639 AccDes= 0.00D+00 IRadAn=         5 IDoV= 1 UseB2=F ITyADJ=14
 ICtDFT=  3500011 ScaDFX=  1.000000  1.000000  1.000000  1.000000
 FoFCou: FMM=F IPFlag=           0 FMFlag=      100000 FMFlg1=           0
         NFxFlg=           0 DoJE=T BraDBF=F KetDBF=T FulRan=T
         wScrn=  0.000000 ICntrl=       500 IOpCl=  0 I1Cent=   200000004 NGrid=           0
         NMat0=    1 NMatS0=      1 NMatT0=    0 NMatD0=    1 NMtDS0=    0 NMtDT0=    0
 Symmetry not used in FoFCou.
 Harris En= -2970.65158393729    
 JPrj=0 DoOrth=F DoCkMO=F.
 Leave Link  401 at Thu May  2 13:58:43 2024, MaxMem=   134217728 cpu:              30.8 elap:              30.8
 (Enter /software/gaussian/g16-c01/sse4/g16/l502.exe)
 Two-electron integral symmetry not used.
 Closed shell SCF:
 Using DIIS extrapolation, IDIIS=  1040.
 NGot=   134217728 LenX=   134063053 LenY=   133988083
 Requested convergence on RMS density matrix=1.00D-08 within 128 cycles.
 Requested convergence on MAX density matrix=1.00D-06.
 Requested convergence on             energy=1.00D-06.
 No special actions if energy rises.
 Fock matrices will be formed incrementally for  20 cycles.

 Cycle   1  Pass 1  IDiag  1:
 FoFJK:  IHMeth= 1 ICntrl=       0 DoSepK=T KAlg= 0 I1Cent=           0 FoldK=F
 IRaf=         1 NMat=       1 IRICut=       1 DoRegI=T DoRafI=F ISym2E= 0 IDoP0=0 IntGTp=1.
 FoFCou: FMM=F IPFlag=           0 FMFlag=      100000 FMFlg1=           0
         NFxFlg=           0 DoJE=T BraDBF=F KetDBF=F FulRan=T
         wScrn=  0.000000 ICntrl=       500 IOpCl=  0 I1Cent=           0 NGrid=           0
         NMat0=    1 NMatS0=      1 NMatT0=    0 NMatD0=    1 NMtDS0=    0 NMtDT0=    0
 Symmetry not used in FoFCou.
 E= -3009.60425060162    
 DIIS: error= 2.91D-01 at cycle   1 NSaved=   1.
 NSaved= 1 IEnMin= 1 EnMin= -3009.60425060162     IErMin= 1 ErrMin= 2.91D-01
 ErrMax= 2.91D-01  0.00D+00 EMaxC= 1.00D-01 BMatC= 1.21D+01 BMatP= 1.21D+01
 IDIUse=3 WtCom= 0.00D+00 WtEn= 1.00D+00
 Coeff-Com:  0.100D+01
 Coeff-En:   0.100D+01
 Coeff:      0.100D+01
 Gap=     0.417 Goal=   None    Shift=    0.000
 GapD=    0.417 DampG=2.000 DampE=0.250 DampFc=0.5000 IDamp=-1.
 Damping current iteration by 5.00D-01
 RMSDP=1.41D-01 MaxDP=1.59D+01              OVMax= 3.70D-01

 Cycle   2  Pass 1  IDiag  1:
 RMSU=  2.33D-02    CP:  6.58D-01
 E= -3010.02557130429     Delta-E=       -0.421320702674 Rises=F Damp=T
 DIIS: error= 1.47D-01 at cycle   2 NSaved=   2.
 NSaved= 2 IEnMin= 2 EnMin= -3010.02557130429     IErMin= 2 ErrMin= 1.47D-01
 ErrMax= 1.47D-01  0.00D+00 EMaxC= 1.00D-01 BMatC= 1.78D+00 BMatP= 1.21D+01
 IDIUse=3 WtCom= 0.00D+00 WtEn= 1.00D+00
 Coeff-Com: -0.380D+00 0.138D+01
 Coeff-En:   0.561D-01 0.944D+00
 Coeff:      0.561D-01 0.944D+00
 Gap=     0.309 Goal=   None    Shift=    0.000
 RMSDP=7.32D-02 MaxDP=7.85D+00 DE=-4.21D-01 OVMax= 3.03D-01

 Cycle   3  Pass 1  IDiag  1:
 RMSU=  1.45D-02    CP:  2.92D-01  1.30D+00
 E= -3010.44985934670     Delta-E=       -0.424288042414 Rises=F Damp=F
 DIIS: error= 3.94D-02 at cycle   3 NSaved=   3.
 NSaved= 3 IEnMin= 3 EnMin= -3010.44985934670     IErMin= 3 ErrMin= 3.94D-02
 ErrMax= 3.94D-02  0.00D+00 EMaxC= 1.00D-01 BMatC= 1.74D-01 BMatP= 1.78D+00
 IDIUse=3 WtCom= 6.06D-01 WtEn= 3.94D-01
 Coeff-Com: -0.387D-01 0.236D+00 0.802D+00
 Coeff-En:   0.000D+00 0.000D+00 0.100D+01
 Coeff:     -0.235D-01 0.143D+00 0.880D+00
 Gap=     0.286 Goal=   None    Shift=    0.000
 RMSDP=2.12D-02 MaxDP=2.68D+00 DE=-4.24D-01 OVMax= 2.64D-01

 Cycle   4  Pass 1  IDiag  1:
 RMSU=  1.24D-02    CP:  3.05D-01  2.00D+00  6.41D-01
 E= -3010.28490155130     Delta-E=        0.164957795404 Rises=F Damp=F
 DIIS: error= 7.67D-02 at cycle   4 NSaved=   4.
 NSaved= 4 IEnMin= 3 EnMin= -3010.44985934670     IErMin= 3 ErrMin= 3.94D-02
 ErrMax= 7.67D-02  0.00D+00 EMaxC= 1.00D-01 BMatC= 3.85D-01 BMatP= 1.74D-01
 IDIUse=2 WtCom= 0.00D+00 WtEn= 1.00D+00
 Coeff-En:   0.000D+00 0.000D+00 0.679D+00 0.321D+00
 Coeff:      0.000D+00 0.000D+00 0.679D+00 0.321D+00
 Gap=     0.259 Goal=   None    Shift=    0.000
 RMSDP=1.04D-02 MaxDP=1.21D+00 DE= 1.65D-01 OVMax= 1.83D-01

 Cycle   5  Pass 1  IDiag  1:
 RMSU=  2.80D-03    CP:  2.88D-01  1.73D+00  8.94D-01  5.19D-01
 E= -3010.54518497507     Delta-E=       -0.260283423773 Rises=F Damp=F
 DIIS: error= 1.08D-02 at cycle   5 NSaved=   5.
 NSaved= 5 IEnMin= 5 EnMin= -3010.54518497507     IErMin= 5 ErrMin= 1.08D-02
 ErrMax= 1.08D-02  0.00D+00 EMaxC= 1.00D-01 BMatC= 1.32D-02 BMatP= 1.74D-01
 IDIUse=3 WtCom= 8.92D-01 WtEn= 1.08D-01
 Coeff-Com:  0.265D-03 0.577D-02 0.236D+00 0.222D-01 0.736D+00
 Coeff-En:   0.000D+00 0.000D+00 0.426D-01 0.000D+00 0.957D+00
 Coeff:      0.236D-03 0.514D-02 0.215D+00 0.198D-01 0.760D+00
 Gap=     0.233 Goal=   None    Shift=    0.000
 RMSDP=2.99D-03 MaxDP=3.35D-01 DE=-2.60D-01 OVMax= 3.12D-02

 Cycle   6  Pass 1  IDiag  1:
 RMSU=  9.72D-04    CP:  2.80D-01  1.65D+00  9.38D-01  4.16D-01  1.15D+00
 E= -3010.55292846311     Delta-E=       -0.007743488039 Rises=F Damp=F
 DIIS: error= 1.54D-03 at cycle   6 NSaved=   6.
 NSaved= 6 IEnMin= 6 EnMin= -3010.55292846311     IErMin= 6 ErrMin= 1.54D-03
 ErrMax= 1.54D-03  0.00D+00 EMaxC= 1.00D-01 BMatC= 5.38D-04 BMatP= 1.32D-02
 IDIUse=3 WtCom= 9.85D-01 WtEn= 1.54D-02
 Coeff-Com: -0.434D-02 0.907D-02 0.243D-01-0.306D-01 0.337D+00 0.665D+00
 Coeff-En:   0.000D+00 0.000D+00 0.000D+00 0.000D+00 0.000D+00 0.100D+01
 Coeff:     -0.427D-02 0.893D-02 0.240D-01-0.302D-01 0.332D+00 0.670D+00
 Gap=     0.234 Goal=   None    Shift=    0.000
 RMSDP=8.69D-04 MaxDP=1.08D-01 DE=-7.74D-03 OVMax= 6.63D-03

 Cycle   7  Pass 1  IDiag  1:
 RMSU=  2.14D-04    CP:  2.80D-01  1.68D+00  9.29D-01  4.36D-01  1.29D+00
                    CP:  1.10D+00
 E= -3010.55344220468     Delta-E=       -0.000513741573 Rises=F Damp=F
 DIIS: error= 3.21D-04 at cycle   7 NSaved=   7.
 NSaved= 7 IEnMin= 7 EnMin= -3010.55344220468     IErMin= 7 ErrMin= 3.21D-04
 ErrMax= 3.21D-04  0.00D+00 EMaxC= 1.00D-01 BMatC= 2.25D-05 BMatP= 5.38D-04
 IDIUse=3 WtCom= 9.97D-01 WtEn= 3.21D-03
 Coeff-Com: -0.147D-02 0.270D-02-0.442D-02-0.133D-01 0.758D-01 0.242D+00
 Coeff-Com:  0.699D+00
 Coeff-En:   0.000D+00 0.000D+00 0.000D+00 0.000D+00 0.000D+00 0.000D+00
 Coeff-En:   0.100D+01
 Coeff:     -0.147D-02 0.269D-02-0.440D-02-0.132D-01 0.755D-01 0.241D+00
 Coeff:      0.700D+00
 Gap=     0.235 Goal=   None    Shift=    0.000
 RMSDP=3.19D-04 MaxDP=3.43D-02 DE=-5.14D-04 OVMax= 4.01D-03

 Cycle   8  Pass 1  IDiag  1:
 RMSU=  1.33D-04    CP:  2.78D-01  1.68D+00  9.30D-01  4.34D-01  1.34D+00
                    CP:  1.18D+00  8.49D-01
 E= -3010.55348980500     Delta-E=       -0.000047600317 Rises=F Damp=F
 DIIS: error= 1.85D-04 at cycle   8 NSaved=   8.
 NSaved= 8 IEnMin= 8 EnMin= -3010.55348980500     IErMin= 8 ErrMin= 1.85D-04
 ErrMax= 1.85D-04  0.00D+00 EMaxC= 1.00D-01 BMatC= 6.84D-06 BMatP= 2.25D-05
 IDIUse=3 WtCom= 9.98D-01 WtEn= 1.85D-03
 Coeff-Com:  0.711D-03-0.170D-02-0.901D-02 0.104D-02-0.559D-01-0.822D-01
 Coeff-Com:  0.310D+00 0.837D+00
 Coeff-En:   0.000D+00 0.000D+00 0.000D+00 0.000D+00 0.000D+00 0.000D+00
 Coeff-En:   0.000D+00 0.100D+01
 Coeff:      0.710D-03-0.170D-02-0.899D-02 0.104D-02-0.558D-01-0.820D-01
 Coeff:      0.309D+00 0.838D+00
 Gap=     0.234 Goal=   None    Shift=    0.000
 RMSDP=1.70D-04 MaxDP=9.20D-03 DE=-4.76D-05 OVMax= 3.36D-03

 Cycle   9  Pass 1  IDiag  1:
 RMSU=  6.39D-05    CP:  2.78D-01  1.68D+00  9.32D-01  4.35D-01  1.38D+00
                    CP:  1.25D+00  1.03D+00  1.12D+00
 E= -3010.55351431216     Delta-E=       -0.000024507158 Rises=F Damp=F
 DIIS: error= 4.59D-05 at cycle   9 NSaved=   9.
 NSaved= 9 IEnMin= 9 EnMin= -3010.55351431216     IErMin= 9 ErrMin= 4.59D-05
 ErrMax= 4.59D-05  0.00D+00 EMaxC= 1.00D-01 BMatC= 1.15D-06 BMatP= 6.84D-06
 IDIUse=1 WtCom= 1.00D+00 WtEn= 0.00D+00
 Coeff-Com:  0.585D-03-0.122D-02-0.218D-02 0.352D-02-0.373D-01-0.766D-01
 Coeff-Com:  0.515D-02 0.307D+00 0.801D+00
 Coeff:      0.585D-03-0.122D-02-0.218D-02 0.352D-02-0.373D-01-0.766D-01
 Coeff:      0.515D-02 0.307D+00 0.801D+00
 Gap=     0.234 Goal=   None    Shift=    0.000
 RMSDP=6.07D-05 MaxDP=3.02D-03 DE=-2.45D-05 OVMax= 2.23D-03

 Cycle  10  Pass 1  IDiag  1:
 RMSU=  2.01D-05    CP:  2.78D-01  1.68D+00  9.33D-01  4.35D-01  1.39D+00
                    CP:  1.28D+00  1.07D+00  1.28D+00  1.47D+00
 E= -3010.55352122315     Delta-E=       -0.000006910992 Rises=F Damp=F
 DIIS: error= 3.64D-05 at cycle  10 NSaved=  10.
 NSaved=10 IEnMin=10 EnMin= -3010.55352122315     IErMin=10 ErrMin= 3.64D-05
 ErrMax= 3.64D-05  0.00D+00 EMaxC= 1.00D-01 BMatC= 3.38D-07 BMatP= 1.15D-06
 IDIUse=1 WtCom= 1.00D+00 WtEn= 0.00D+00
 Coeff-Com: -0.142D-03 0.367D-03 0.200D-02 0.428D-03 0.832D-02 0.852D-02
 Coeff-Com: -0.103D+00-0.206D+00 0.239D+00 0.105D+01
 Coeff:     -0.142D-03 0.367D-03 0.200D-02 0.428D-03 0.832D-02 0.852D-02
 Coeff:     -0.103D+00-0.206D+00 0.239D+00 0.105D+01
 Gap=     0.234 Goal=   None    Shift=    0.000
 RMSDP=4.95D-05 MaxDP=2.30D-03 DE=-6.91D-06 OVMax= 2.02D-03

 Cycle  11  Pass 1  IDiag  1:
 RMSU=  1.63D-05    CP:  2.78D-01  1.68D+00  9.34D-01  4.35D-01  1.39D+00
                    CP:  1.29D+00  1.09D+00  1.42D+00  1.93D+00  1.73D+00
 E= -3010.55352434566     Delta-E=       -0.000003122509 Rises=F Damp=F
 DIIS: error= 1.31D-05 at cycle  11 NSaved=  11.
 NSaved=11 IEnMin=11 EnMin= -3010.55352434566     IErMin=11 ErrMin= 1.31D-05
 ErrMax= 1.31D-05  0.00D+00 EMaxC= 1.00D-01 BMatC= 7.64D-08 BMatP= 3.38D-07
 IDIUse=1 WtCom= 1.00D+00 WtEn= 0.00D+00
 Coeff-Com: -0.157D-03 0.354D-03 0.133D-02-0.658D-03 0.116D-01 0.203D-01
 Coeff-Com: -0.267D-01-0.133D+00-0.138D+00 0.318D+00 0.947D+00
 Coeff:     -0.157D-03 0.354D-03 0.133D-02-0.658D-03 0.116D-01 0.203D-01
 Coeff:     -0.267D-01-0.133D+00-0.138D+00 0.318D+00 0.947D+00
 Gap=     0.234 Goal=   None    Shift=    0.000
 RMSDP=2.42D-05 MaxDP=1.87D-03 DE=-3.12D-06 OVMax= 9.98D-04

 Cycle  12  Pass 1  IDiag  1:
 RMSU=  7.61D-06    CP:  2.78D-01  1.68D+00  9.34D-01  4.35D-01  1.39D+00
                    CP:  1.29D+00  1.10D+00  1.45D+00  2.12D+00  2.19D+00
                    CP:  1.16D+00
 E= -3010.55352495724     Delta-E=       -0.000000611584 Rises=F Damp=F
 DIIS: error= 8.41D-06 at cycle  12 NSaved=  12.
 NSaved=12 IEnMin=12 EnMin= -3010.55352495724     IErMin=12 ErrMin= 8.41D-06
 ErrMax= 8.41D-06  0.00D+00 EMaxC= 1.00D-01 BMatC= 1.96D-08 BMatP= 7.64D-08
 IDIUse=1 WtCom= 1.00D+00 WtEn= 0.00D+00
 Coeff-Com:  0.610D-05-0.166D-04 0.635D-04-0.264D-03 0.144D-02 0.264D-02
 Coeff-Com:  0.176D-01 0.378D-02-0.104D+00-0.152D+00 0.343D+00 0.888D+00
 Coeff:      0.610D-05-0.166D-04 0.635D-04-0.264D-03 0.144D-02 0.264D-02
 Coeff:      0.176D-01 0.378D-02-0.104D+00-0.152D+00 0.343D+00 0.888D+00
 Gap=     0.234 Goal=   None    Shift=    0.000
 RMSDP=1.44D-05 MaxDP=1.24D-03 DE=-6.12D-07 OVMax= 4.42D-04

 Cycle  13  Pass 1  IDiag  1:
 RMSU=  4.38D-06    CP:  2.78D-01  1.68D+00  9.34D-01  4.35D-01  1.38D+00
                    CP:  1.29D+00  1.10D+00  1.45D+00  2.24D+00  2.42D+00
                    CP:  1.31D+00  1.25D+00
 E= -3010.55352506519     Delta-E=       -0.000000107945 Rises=F Damp=F
 DIIS: error= 2.48D-06 at cycle  13 NSaved=  13.
 NSaved=13 IEnMin=13 EnMin= -3010.55352506519     IErMin=13 ErrMin= 2.48D-06
 ErrMax= 2.48D-06  0.00D+00 EMaxC= 1.00D-01 BMatC= 1.78D-09 BMatP= 1.96D-08
 IDIUse=1 WtCom= 1.00D+00 WtEn= 0.00D+00
 Coeff-Com:  0.262D-04-0.603D-04-0.240D-03 0.106D-03-0.194D-02-0.302D-02
 Coeff-Com:  0.729D-02 0.207D-01 0.184D-01-0.685D-01-0.129D+00 0.469D-01
 Coeff-Com:  0.111D+01
 Coeff:      0.262D-04-0.603D-04-0.240D-03 0.106D-03-0.194D-02-0.302D-02
 Coeff:      0.729D-02 0.207D-01 0.184D-01-0.685D-01-0.129D+00 0.469D-01
 Coeff:      0.111D+01
 Gap=     0.234 Goal=   None    Shift=    0.000
 RMSDP=7.02D-06 MaxDP=6.99D-04 DE=-1.08D-07 OVMax= 1.50D-04

 Cycle  14  Pass 1  IDiag  1:
 RMSU=  1.44D-06    CP:  2.78D-01  1.68D+00  9.35D-01  4.35D-01  1.38D+00
                    CP:  1.28D+00  1.11D+00  1.44D+00  2.27D+00  2.51D+00
                    CP:  1.26D+00  1.53D+00  1.52D+00
 E= -3010.55352507901     Delta-E=       -0.000000013826 Rises=F Damp=F
 DIIS: error= 1.34D-06 at cycle  14 NSaved=  14.
 NSaved=14 IEnMin=14 EnMin= -3010.55352507901     IErMin=14 ErrMin= 1.34D-06
 ErrMax= 1.34D-06  0.00D+00 EMaxC= 1.00D-01 BMatC= 5.20D-10 BMatP= 1.78D-09
 IDIUse=1 WtCom= 1.00D+00 WtEn= 0.00D+00
 Coeff-Com: -0.178D-05 0.162D-05-0.923D-04 0.472D-04-0.504D-03-0.393D-03
 Coeff-Com: -0.671D-03 0.195D-02 0.191D-01 0.771D-02-0.733D-01-0.118D+00
 Coeff-Com:  0.289D+00 0.876D+00
 Coeff:     -0.178D-05 0.162D-05-0.923D-04 0.472D-04-0.504D-03-0.393D-03
 Coeff:     -0.671D-03 0.195D-02 0.191D-01 0.771D-02-0.733D-01-0.118D+00
 Coeff:      0.289D+00 0.876D+00
 Gap=     0.234 Goal=   None    Shift=    0.000
 RMSDP=1.83D-06 MaxDP=1.72D-04 DE=-1.38D-08 OVMax= 3.43D-05

 Cycle  15  Pass 1  IDiag  1:
 RMSU=  4.40D-07    CP:  2.78D-01  1.68D+00  9.35D-01  4.35D-01  1.38D+00
                    CP:  1.28D+00  1.11D+00  1.44D+00  2.28D+00  2.52D+00
                    CP:  1.24D+00  1.59D+00  1.70D+00  1.20D+00
 E= -3010.55352508085     Delta-E=       -0.000000001835 Rises=F Damp=F
 DIIS: error= 3.92D-07 at cycle  15 NSaved=  15.
 NSaved=15 IEnMin=15 EnMin= -3010.55352508085     IErMin=15 ErrMin= 3.92D-07
 ErrMax= 3.92D-07  0.00D+00 EMaxC= 1.00D-01 BMatC= 7.05D-11 BMatP= 5.20D-10
 IDIUse=1 WtCom= 1.00D+00 WtEn= 0.00D+00
 Coeff-Com: -0.365D-05 0.795D-05 0.767D-05 0.391D-05 0.111D-03 0.239D-03
 Coeff-Com: -0.121D-02-0.229D-02 0.194D-02 0.115D-01 0.492D-02-0.373D-01
 Coeff-Com: -0.129D+00 0.195D+00 0.956D+00
 Coeff:     -0.365D-05 0.795D-05 0.767D-05 0.391D-05 0.111D-03 0.239D-03
 Coeff:     -0.121D-02-0.229D-02 0.194D-02 0.115D-01 0.492D-02-0.373D-01
 Coeff:     -0.129D+00 0.195D+00 0.956D+00
 Gap=     0.234 Goal=   None    Shift=    0.000
 RMSDP=1.05D-06 MaxDP=8.64D-05 DE=-1.84D-09 OVMax= 1.90D-05

 Cycle  16  Pass 1  IDiag  1:
 RMSU=  1.80D-07    CP:  2.78D-01  1.68D+00  9.35D-01  4.36D-01  1.38D+00
                    CP:  1.28D+00  1.11D+00  1.44D+00  2.28D+00  2.52D+00
                    CP:  1.23D+00  1.62D+00  1.80D+00  1.31D+00  1.49D+00
 E= -3010.55352508128     Delta-E=       -0.000000000430 Rises=F Damp=F
 DIIS: error= 1.95D-07 at cycle  16 NSaved=  16.
 NSaved=16 IEnMin=16 EnMin= -3010.55352508128     IErMin=16 ErrMin= 1.95D-07
 ErrMax= 1.95D-07  0.00D+00 EMaxC= 1.00D-01 BMatC= 1.01D-11 BMatP= 7.05D-11
 IDIUse=1 WtCom= 1.00D+00 WtEn= 0.00D+00
 Coeff-Com:  0.521D-06-0.772D-06 0.143D-04-0.587D-05 0.637D-04 0.755D-05
 Coeff-Com:  0.139D-03-0.669D-04-0.286D-02-0.159D-02 0.959D-02 0.146D-01
 Coeff-Com: -0.301D-01-0.135D+00-0.624D-01 0.121D+01
 Coeff:      0.521D-06-0.772D-06 0.143D-04-0.587D-05 0.637D-04 0.755D-05
 Coeff:      0.139D-03-0.669D-04-0.286D-02-0.159D-02 0.959D-02 0.146D-01
 Coeff:     -0.301D-01-0.135D+00-0.624D-01 0.121D+01
 Gap=     0.234 Goal=   None    Shift=    0.000
 RMSDP=3.11D-07 MaxDP=2.27D-05 DE=-4.30D-10 OVMax= 1.24D-05

 Cycle  17  Pass 1  IDiag  1:
 RMSU=  8.89D-08    CP:  2.78D-01  1.68D+00  9.35D-01  4.36D-01  1.38D+00
                    CP:  1.28D+00  1.11D+00  1.44D+00  2.28D+00  2.52D+00
                    CP:  1.23D+00  1.63D+00  1.82D+00  1.35D+00  1.78D+00
                    CP:  1.59D+00
 E= -3010.55352508139     Delta-E=       -0.000000000111 Rises=F Damp=F
 DIIS: error= 1.08D-07 at cycle  17 NSaved=  17.
 NSaved=17 IEnMin=17 EnMin= -3010.55352508139     IErMin=17 ErrMin= 1.08D-07
 ErrMax= 1.08D-07  0.00D+00 EMaxC= 1.00D-01 BMatC= 3.07D-12 BMatP= 1.01D-11
 IDIUse=1 WtCom= 1.00D+00 WtEn= 0.00D+00
 Coeff-Com:  0.604D-06-0.123D-05 0.243D-05-0.283D-05-0.103D-05-0.393D-04
 Coeff-Com:  0.237D-03 0.344D-03-0.842D-03-0.202D-02 0.871D-03 0.876D-02
 Coeff-Com:  0.278D-01-0.644D-01-0.197D+00 0.225D+00 0.100D+01
 Coeff:      0.604D-06-0.123D-05 0.243D-05-0.283D-05-0.103D-05-0.393D-04
 Coeff:      0.237D-03 0.344D-03-0.842D-03-0.202D-02 0.871D-03 0.876D-02
 Coeff:      0.278D-01-0.644D-01-0.197D+00 0.225D+00 0.100D+01
 Gap=     0.234 Goal=   None    Shift=    0.000
 RMSDP=1.63D-07 MaxDP=1.99D-05 DE=-1.11D-10 OVMax= 5.83D-06

 Cycle  18  Pass 1  IDiag  1:
 RMSU=  3.32D-08    CP:  2.78D-01  1.68D+00  9.35D-01  4.35D-01  1.38D+00
                    CP:  1.28D+00  1.11D+00  1.44D+00  2.28D+00  2.52D+00
                    CP:  1.23D+00  1.63D+00  1.83D+00  1.33D+00  1.89D+00
                    CP:  1.85D+00  1.61D+00
 E= -3010.55352508142     Delta-E=       -0.000000000027 Rises=F Damp=F
 DIIS: error= 4.92D-08 at cycle  18 NSaved=  18.
 NSaved=18 IEnMin=18 EnMin= -3010.55352508142     IErMin=18 ErrMin= 4.92D-08
 ErrMax= 4.92D-08  0.00D+00 EMaxC= 1.00D-01 BMatC= 1.10D-12 BMatP= 3.07D-12
 IDIUse=1 WtCom= 1.00D+00 WtEn= 0.00D+00
 Coeff-Com:  0.179D-06-0.445D-06-0.380D-05 0.153D-05-0.283D-04-0.358D-04
 Coeff-Com:  0.517D-04 0.214D-03 0.817D-03-0.294D-03-0.377D-02-0.305D-02
 Coeff-Com:  0.229D-01 0.152D-01-0.575D-01-0.348D+00 0.367D+00 0.101D+01
 Coeff:      0.179D-06-0.445D-06-0.380D-05 0.153D-05-0.283D-04-0.358D-04
 Coeff:      0.517D-04 0.214D-03 0.817D-03-0.294D-03-0.377D-02-0.305D-02
 Coeff:      0.229D-01 0.152D-01-0.575D-01-0.348D+00 0.367D+00 0.101D+01
 Gap=     0.234 Goal=   None    Shift=    0.000
 RMSDP=1.13D-07 MaxDP=1.20D-05 DE=-2.73D-11 OVMax= 3.93D-06

 Cycle  19  Pass 1  IDiag  1:
 RMSU=  1.84D-08    CP:  2.78D-01  1.68D+00  9.35D-01  4.35D-01  1.38D+00
                    CP:  1.28D+00  1.11D+00  1.44D+00  2.28D+00  2.52D+00
                    CP:  1.23D+00  1.63D+00  1.83D+00  1.32D+00  1.96D+00
                    CP:  2.08D+00  2.12D+00  1.41D+00
 E= -3010.55352508145     Delta-E=       -0.000000000029 Rises=F Damp=F
 DIIS: error= 1.56D-08 at cycle  19 NSaved=  19.
 NSaved=19 IEnMin=19 EnMin= -3010.55352508145     IErMin=19 ErrMin= 1.56D-08
 ErrMax= 1.56D-08  0.00D+00 EMaxC= 1.00D-01 BMatC= 9.15D-14 BMatP= 1.10D-12
 IDIUse=1 WtCom= 1.00D+00 WtEn= 0.00D+00
 Coeff-Com: -0.102D-06 0.188D-06-0.110D-05 0.495D-06-0.297D-05 0.297D-05
 Coeff-Com: -0.355D-04-0.484D-04 0.317D-03 0.340D-03-0.920D-03-0.217D-02
 Coeff-Com:  0.102D-02 0.125D-01 0.220D-01-0.998D-01-0.801D-01 0.220D+00
 Coeff-Com:  0.927D+00
 Coeff:     -0.102D-06 0.188D-06-0.110D-05 0.495D-06-0.297D-05 0.297D-05
 Coeff:     -0.355D-04-0.484D-04 0.317D-03 0.340D-03-0.920D-03-0.217D-02
 Coeff:      0.102D-02 0.125D-01 0.220D-01-0.998D-01-0.801D-01 0.220D+00
 Coeff:      0.927D+00
 Gap=     0.234 Goal=   None    Shift=    0.000
 RMSDP=1.77D-08 MaxDP=1.07D-06 DE=-2.91D-11 OVMax= 8.25D-07

 Cycle  20  Pass 1  IDiag  1:
 RMSU=  6.00D-09    CP:  2.78D-01  1.68D+00  9.35D-01  4.35D-01  1.38D+00
                    CP:  1.28D+00  1.11D+00  1.44D+00  2.28D+00  2.52D+00
                    CP:  1.23D+00  1.63D+00  1.83D+00  1.32D+00  1.96D+00
                    CP:  2.11D+00  2.23D+00  1.61D+00  1.11D+00
 E= -3010.55352508144     Delta-E=        0.000000000006 Rises=F Damp=F
 DIIS: error= 6.89D-09 at cycle  20 NSaved=  20.
 NSaved=20 IEnMin=19 EnMin= -3010.55352508145     IErMin=20 ErrMin= 6.89D-09
 ErrMax= 6.89D-09  0.00D+00 EMaxC= 1.00D-01 BMatC= 1.90D-14 BMatP= 9.15D-14
 IDIUse=1 WtCom= 1.00D+00 WtEn= 0.00D+00
 Coeff-Com: -0.449D-07 0.972D-07 0.219D-06-0.472D-07 0.261D-05 0.409D-05
 Coeff-Com: -0.178D-04-0.411D-04 0.569D-05 0.116D-03 0.192D-03-0.266D-03
 Coeff-Com: -0.260D-02 0.138D-02 0.151D-01 0.147D-01-0.837D-01-0.676D-01
 Coeff-Com:  0.307D+00 0.816D+00
 Coeff:     -0.449D-07 0.972D-07 0.219D-06-0.472D-07 0.261D-05 0.409D-05
 Coeff:     -0.178D-04-0.411D-04 0.569D-05 0.116D-03 0.192D-03-0.266D-03
 Coeff:     -0.260D-02 0.138D-02 0.151D-01 0.147D-01-0.837D-01-0.676D-01
 Coeff:      0.307D+00 0.816D+00
 Gap=     0.234 Goal=   None    Shift=    0.000
 RMSDP=1.03D-08 MaxDP=1.00D-06 DE= 6.37D-12 OVMax= 2.62D-07

 Cycle  21  Pass 1  IDiag  1:
 Restarting incremental Fock formation.
 E= -3010.55352508141     Delta-E=        0.000000000032 Rises=F Damp=F
 DIIS: error= 3.74D-09 at cycle  21 NSaved=  20.
 NSaved=20 IEnMin=18 EnMin= -3010.55352508145     IErMin=20 ErrMin= 3.74D-09
 ErrMax= 3.74D-09  0.00D+00 EMaxC= 1.00D-01 BMatC= 2.91D-15 BMatP= 1.90D-14
 IDIUse=1 WtCom= 1.00D+00 WtEn= 0.00D+00
 Large coefficients: NSaved= 20 BigCof=    0.00 CofMax=   10.00 Det=-7.35D-15
 Inversion failed.  Reducing to 19 matrices.
 Coeff-Com:  0.168D-06-0.926D-07 0.102D-05 0.611D-06-0.166D-05-0.606D-05
 Coeff-Com: -0.231D-04-0.724D-05 0.138D-03 0.124D-03-0.791D-03-0.814D-03
 Coeff-Com:  0.242D-02 0.148D-01-0.193D-01-0.414D-01-0.594D-03 0.256D+00
 Coeff-Com:  0.790D+00
 Coeff:      0.168D-06-0.926D-07 0.102D-05 0.611D-06-0.166D-05-0.606D-05
 Coeff:     -0.231D-04-0.724D-05 0.138D-03 0.124D-03-0.791D-03-0.814D-03
 Coeff:      0.242D-02 0.148D-01-0.193D-01-0.414D-01-0.594D-03 0.256D+00
 Coeff:      0.790D+00
 Gap=     0.234 Goal=   None    Shift=    0.000
 RMSDP=3.47D-09 MaxDP=4.58D-07 DE= 3.18D-11 OVMax= 6.46D-08

 SCF Done:  E(RwB97XD) =  -3010.55352508     A.U. after   21 cycles
            NFock= 21  Conv=0.35D-08     -V/T= 2.0016
 KE= 3.005814787040D+03 PE=-8.696635067172D+03 EE= 1.909386332413D+03
 Leave Link  502 at Thu May  2 14:20:16 2024, MaxMem=   134217728 cpu:            1292.9 elap:            1293.2
 (Enter /software/gaussian/g16-c01/sse4/g16/l601.exe)
 Copying SCF densities to generalized density rwf, IOpCl= 0 IROHF=0.

 **********************************************************************

            Population analysis using the SCF Density.

 **********************************************************************

 Alpha  occ. eigenvalues -- -483.28748 -62.83728 -56.63459 -56.62845 -56.62825
 Alpha  occ. eigenvalues --  -19.46314 -19.45987 -14.85461 -10.58720 -10.56683
 Alpha  occ. eigenvalues --  -10.55917 -10.55708 -10.53612 -10.52097  -8.99502
 Alpha  occ. eigenvalues --   -6.82278  -6.80272  -6.80209  -2.92158  -2.91639
 Alpha  occ. eigenvalues --   -2.91589  -2.89985  -2.89984  -1.49785  -1.32757
 Alpha  occ. eigenvalues --   -1.21524  -1.12177  -1.11280  -1.03275  -0.99288
 Alpha  occ. eigenvalues --   -0.94446  -0.89949  -0.84631  -0.80510  -0.79838
 Alpha  occ. eigenvalues --   -0.79448  -0.77261  -0.75926  -0.74684  -0.70934
 Alpha  occ. eigenvalues --   -0.67642  -0.66816  -0.62354  -0.58564  -0.57287
 Alpha  occ. eigenvalues --   -0.56440  -0.55735  -0.53159  -0.52393
 Alpha virt. eigenvalues --   -0.28962  -0.20148  -0.14826  -0.13820  -0.12307
 Alpha virt. eigenvalues --   -0.10535  -0.06868  -0.06654  -0.05235  -0.03344
 Alpha virt. eigenvalues --   -0.02327  -0.01581  -0.00712  -0.00110   0.00533
 Alpha virt. eigenvalues --    0.01488   0.02316   0.03722   0.03986   0.04608
 Alpha virt. eigenvalues --    0.05195   0.05836   0.06625   0.06857   0.07442
 Alpha virt. eigenvalues --    0.08277   0.08690   0.08996   0.09821   0.09929
 Alpha virt. eigenvalues --    0.11246   0.11472   0.12299   0.12780   0.13159
 Alpha virt. eigenvalues --    0.13814   0.14914   0.15809   0.16031   0.16638
 Alpha virt. eigenvalues --    0.17605   0.18081   0.18611   0.20298   0.21053
 Alpha virt. eigenvalues --    0.21676   0.22626   0.23285   0.23758   0.25182
 Alpha virt. eigenvalues --    0.27269   0.27896   0.28565   0.31134   0.32624
 Alpha virt. eigenvalues --    0.33757   0.34748   0.36099   0.36686   0.37963
 Alpha virt. eigenvalues --    0.38413   0.39343   0.40560   0.42532   0.43355
 Alpha virt. eigenvalues --    0.44430   0.44847   0.45724   0.46800   0.48665
 Alpha virt. eigenvalues --    0.49633   0.51951   0.52184   0.53044   0.54379
 Alpha virt. eigenvalues --    0.55625   0.57226   0.57774   0.60231   0.60982
 Alpha virt. eigenvalues --    0.63159   0.63472   0.66579   0.68885   0.69899
 Alpha virt. eigenvalues --    0.70508   0.71348   0.73944   0.74809   0.75719
 Alpha virt. eigenvalues --    0.77252   0.77622   0.79795   0.85555   0.86659
 Alpha virt. eigenvalues --    0.87929   0.88586   0.91825   0.94923   0.98375
 Alpha virt. eigenvalues --    1.01360   1.03276   1.04092   1.06450   1.07465
 Alpha virt. eigenvalues --    1.10187   1.13002   1.13492   1.14111   1.18008
 Alpha virt. eigenvalues --    1.22130   1.23913   1.28488   1.34799   1.36862
 Alpha virt. eigenvalues --    1.37775   1.39835   1.44647   1.56179   1.57405
 Alpha virt. eigenvalues --    1.57746   1.60292   1.62189   1.64555   1.66925
 Alpha virt. eigenvalues --    1.68600   1.72283   1.74495   1.76206   1.80265
 Alpha virt. eigenvalues --    1.84733   1.85870   1.87795   1.97596   1.98089
 Alpha virt. eigenvalues --    1.98986   2.03523   2.04444   2.08260   2.10283
 Alpha virt. eigenvalues --    2.14295   2.15739   2.22991   2.24242   2.27201
 Alpha virt. eigenvalues --    2.33963   2.40896   2.42260   2.45398   2.53893
 Alpha virt. eigenvalues --    2.59432   2.63741   2.66507   2.69382   2.71827
 Alpha virt. eigenvalues --    2.73947   2.76582   2.78049   2.80938   2.83197
 Alpha virt. eigenvalues --    2.94455   2.98976   3.02026   3.07349   3.09620
 Alpha virt. eigenvalues --    3.15357   3.16442   3.18745   3.22878   3.26588
 Alpha virt. eigenvalues --    3.27752   3.38422   3.46947   3.50807   3.54870
 Alpha virt. eigenvalues --    3.58429   3.69085   3.74409   3.84576   3.88251
 Alpha virt. eigenvalues --    4.12777   4.13669   4.21964   4.26225   4.44747
 Alpha virt. eigenvalues --    4.46479   4.55634   4.60105   4.93433   4.96657
 Alpha virt. eigenvalues --    5.04982   5.10169   5.62147   6.15244   6.70822
 Alpha virt. eigenvalues --    7.51708   7.54007   7.64042  23.22997  23.62051
 Alpha virt. eigenvalues --   23.73985  23.78780  23.96495  24.02423  35.31702
 Alpha virt. eigenvalues --   47.96665  49.85304  49.93974 289.84254 289.86589
 Alpha virt. eigenvalues --  289.991851020.97775
          Condensed to atoms (all electrons):
               1          2          3          4          5          6
     1  C    9.115079  -4.199885   1.214881  -0.416624   0.284661   0.079889
     2  C   -4.199885  19.351091  -5.389642   0.716228  -0.029723   0.109377
     3  C    1.214881  -5.389642  18.328168  -1.621529   0.022759   0.202662
     4  C   -0.416624   0.716228  -1.621529   6.947972   0.057065  -0.029241
     5  H    0.284661  -0.029723   0.022759   0.057065   0.406003  -0.002944
     6  H    0.079889   0.109377   0.202662  -0.029241  -0.002944   0.375234
     7  H    0.010218  -0.026228   0.020580   0.293718  -0.003582  -0.000011
     8  N   -0.140376   0.182881  -1.530604  -0.021173  -0.000558  -0.039964
     9  O   -0.060082   0.289840  -0.186300   0.001280  -0.000049  -0.003172
    10  O    0.345353  -0.310251  -0.217836  -0.032430   0.000052   0.026783
    11  C    1.072873  -1.223632   2.280082  -0.610574  -0.034989   0.015639
    12  H    0.000133   0.014626   0.001659   0.000699   0.000022  -0.000020
    13  C   -1.163071  -3.594404  -6.850108   1.023446   0.028604  -0.016743
    14  H   -0.014525   0.028489   0.053486   0.015173  -0.000037   0.000029
    15  Br  -0.025690  -0.123414  -0.212461   0.055914  -0.000008  -0.000886
               7          8          9         10         11         12
     1  C    0.010218  -0.140376  -0.060082   0.345353   1.072873   0.000133
     2  C   -0.026228   0.182881   0.289840  -0.310251  -1.223632   0.014626
     3  C    0.020580  -1.530604  -0.186300  -0.217836   2.280082   0.001659
     4  C    0.293718  -0.021173   0.001280  -0.032430  -0.610574   0.000699
     5  H   -0.003582  -0.000558  -0.000049   0.000052  -0.034989   0.000022
     6  H   -0.000011  -0.039964  -0.003172   0.026783   0.015639  -0.000020
     7  H    0.342398   0.000109  -0.000006   0.000004   0.055256  -0.001796
     8  N    0.000109   7.642072   0.120531   0.127748  -0.146583   0.001101
     9  O   -0.000006   0.120531   7.756943  -0.008605   0.205221   0.000027
    10  O    0.000004   0.127748  -0.008605   7.996797   0.028506  -0.000016
    11  C    0.055256  -0.146583   0.205221   0.028506   8.546541   0.326197
    12  H   -0.001796   0.001101   0.000027  -0.000016   0.326197   0.274081
    13  C   -0.017222   0.935679  -0.254130   0.066801  -4.380153  -0.024037
    14  H   -0.000051  -0.040894   0.014117  -0.002310  -0.066784  -0.003709
    15  Br  -0.000424   0.156299  -0.056547   0.003466   0.108115  -0.002272
              13         14         15
     1  C   -1.163071  -0.014525  -0.025690
     2  C   -3.594404   0.028489  -0.123414
     3  C   -6.850108   0.053486  -0.212461
     4  C    1.023446   0.015173   0.055914
     5  H    0.028604  -0.000037  -0.000008
     6  H   -0.016743   0.000029  -0.000886
     7  H   -0.017222  -0.000051  -0.000424
     8  N    0.935679  -0.040894   0.156299
     9  O   -0.254130   0.014117  -0.056547
    10  O    0.066801  -0.002310   0.003466
    11  C   -4.380153  -0.066784   0.108115
    12  H   -0.024037  -0.003709  -0.002272
    13  C   20.066998   0.303115   0.272359
    14  H    0.303115   0.294357  -0.030546
    15  Br   0.272359  -0.030546  34.546474
 Mulliken charges:
               1
     1  C   -0.102834
     2  C    0.204647
     3  C   -0.115797
     4  C   -0.379923
     5  H    0.272726
     6  H    0.283370
     7  H    0.327039
     8  N   -0.246267
     9  O    0.180931
    10  O   -0.024061
    11  C   -0.175716
    12  H    0.413306
    13  C   -0.397132
    14  H    0.450091
    15  Br   0.309621
 Sum of Mulliken charges =   1.00000
 Mulliken charges with hydrogens summed into heavy atoms:
               1
     1  C    0.169891
     2  C    0.488017
     3  C   -0.115797
     4  C   -0.052884
     8  N   -0.246267
     9  O    0.180931
    10  O   -0.024061
    11  C    0.237590
    13  C    0.052959
    15  Br   0.309621
 Electronic spatial extent (au):  <R**2>=           3943.1006
 Charge=              1.0000 electrons
 Dipole moment (field-independent basis, Debye):
    X=              3.0307    Y=             -5.7643    Z=             -1.4314  Tot=              6.6679
 Quadrupole moment (field-independent basis, Debye-Ang):
   XX=            -67.6077   YY=            -49.0428   ZZ=            -60.4384
   XY=            -13.1254   XZ=             -4.0498   YZ=              5.0335
 Traceless Quadrupole moment (field-independent basis, Debye-Ang):
   XX=             -8.5781   YY=              9.9868   ZZ=             -1.4087
   XY=            -13.1254   XZ=             -4.0498   YZ=              5.0335
 Octapole moment (field-independent basis, Debye-Ang**2):
  XXX=           -514.2089  YYY=             63.0258  ZZZ=             77.6336  XYY=           -131.3493
  XXY=            -12.5789  XXZ=             22.1834  XZZ=           -128.2189  YZZ=              8.1619
  YYZ=             18.2579  XYZ=             13.6655
 Hexadecapole moment (field-independent basis, Debye-Ang**3):
 XXXX=          -3465.1613 YYYY=           -675.7810 ZZZZ=           -380.4071 XXXY=             30.8307
 XXXZ=            176.8597 YYYX=            128.2531 YYYZ=           -148.5508 ZZZX=            155.4583
 ZZZY=           -127.6257 XXYY=           -614.0392 XXZZ=           -515.0474 YYZZ=           -153.9422
 XXYZ=            -27.0314 YYXZ=             32.8704 ZZXY=              9.3416
 N-N= 7.708804226384D+02 E-N=-8.696635067188D+03  KE= 3.005814787040D+03
 No NMR shielding tensors so no spin-rotation constants.
 Leave Link  601 at Thu May  2 14:20:24 2024, MaxMem=   134217728 cpu:               7.6 elap:               7.6
 (Enter /software/gaussian/g16-c01/sse4/g16/l9999.exe)
 Unable to Open any file for archive entry.
 1\1\GINC-BHX0013\SP\RwB97XD\6-311+G(d)\C6H5Br1N1O2(1+)\BWEIGHT\02-May-
 2024\0\\#P wB97XD/6-311+G* NoSymm #P Field=Y+165\\TitleMe\\1,1\C,0,0.5
 193,1.233,-0.0319\C,0,1.9445,1.2692,-0.0367\C,0,2.6204,0.0928,-0.025\C
 ,0,-0.196,0.0301,0.001\H,0,-0.0207,2.1742,-0.0434\H,0,2.4828,2.2089,-0
 .0361\H,0,-1.2777,0.0399,0.0117\N,0,4.0921,0.0959,0.0366\O,0,4.6393,-1
 .0217,0.1446\O,0,4.6649,1.1984,-0.0233\C,0,0.4943,-1.1671,0.021\H,0,-0
 .0325,-2.1149,0.0545\C,0,1.9629,-1.2165,-0.0211\H,0,2.4436,-1.9631,0.6
 151\Br,0,2.173,-1.9491,-1.9062\\Version=ES64L-G16RevC.01\HF=-3010.5535
 251\RMSD=3.466e-09\Dipole=-3.1368289,-1.0397249,0.6860448\Quadrupole=-
 6.3775994,7.4249597,-1.0473603,-9.7584104,-3.0108972,3.7422835\PG=C01 
 [X(C6H5Br1N1O2)]\\@
 The archive entry for this job was punched.


 THE RARE EARTHS PERPLEX US IN OUR RESEARCHES,
 BAFFLE US IN OUR SPECULATIONS, AND HAUNT US IN OUR
 VERY DREAMS.  THEY STRETCH LIKE AN UNKNOWN BEFORE US,
 MOCKING, MYSTIFYING, AND MURMURING STRANGE REVELATIONS
 AND POSSIBILITIES.  -- SIR WILLIAM CROOKE, 1832-1919
 Job cpu time:       0 days  0 hours 22 minutes 42.2 seconds.
 Elapsed time:       0 days  0 hours 22 minutes 42.5 seconds.
 File lengths (MBytes):  RWF=     40 Int=      0 D2E=      0 Chk=     32 Scr=      1
 Normal termination of Gaussian 16 at Thu May  2 14:20:25 2024.
