 Entering Gaussian System, Link 0=g16
 Initial command:
 /software/gaussian/g16-c01/sse4/g16/l1.exe "/local_scratch/24657495/Gau-8291.inp" -scrdir="/local_scratch/24657495/"
 Entering Link 1 = /software/gaussian/g16-c01/sse4/g16/l1.exe PID=      8302.
  
 Copyright (c) 1988-2019, Gaussian, Inc.  All Rights Reserved.
  
 This is part of the Gaussian(R) 16 program.  It is based on
 the Gaussian(R) 09 system (copyright 2009, Gaussian, Inc.),
 the Gaussian(R) 03 system (copyright 2003, Gaussian, Inc.),
 the Gaussian(R) 98 system (copyright 1998, Gaussian, Inc.),
 the Gaussian(R) 94 system (copyright 1995, Gaussian, Inc.),
 the Gaussian 92(TM) system (copyright 1992, Gaussian, Inc.),
 the Gaussian 90(TM) system (copyright 1990, Gaussian, Inc.),
 the Gaussian 88(TM) system (copyright 1988, Gaussian, Inc.),
 the Gaussian 86(TM) system (copyright 1986, Carnegie Mellon
 University), and the Gaussian 82(TM) system (copyright 1983,
 Carnegie Mellon University). Gaussian is a federally registered
 trademark of Gaussian, Inc.
  
 This software contains proprietary and confidential information,
 including trade secrets, belonging to Gaussian, Inc.
  
 This software is provided under written license and may be
 used, copied, transmitted, or stored only in accord with that
 written license.
  
 The following legend is applicable only to US Government
 contracts under FAR:
  
                    RESTRICTED RIGHTS LEGEND
  
 Use, reproduction and disclosure by the US Government is
 subject to restrictions as set forth in subparagraphs (a)
 and (c) of the Commercial Computer Software - Restricted
 Rights clause in FAR 52.227-19.
  
 Gaussian, Inc.
 340 Quinnipiac St., Bldg. 40, Wallingford CT 06492
  
  
 ---------------------------------------------------------------
 Warning -- This program may not be used in any manner that
 competes with the business of Gaussian, Inc. or will provide
 assistance to any competitor of Gaussian, Inc.  The licensee
 of this program is prohibited from giving any competitor of
 Gaussian, Inc. access to this program.  By using this program,
 the user acknowledges that Gaussian, Inc. is engaged in the
 business of creating and licensing software in the field of
 computational chemistry and represents and warrants to the
 licensee that it is not a competitor of Gaussian, Inc. and that
 it will not use this program in any manner prohibited above.
 ---------------------------------------------------------------
  

 Cite this work as:
 Gaussian 16, Revision C.01,
 M. J. Frisch, G. W. Trucks, H. B. Schlegel, G. E. Scuseria, 
 M. A. Robb, J. R. Cheeseman, G. Scalmani, V. Barone, 
 G. A. Petersson, H. Nakatsuji, X. Li, M. Caricato, A. V. Marenich, 
 J. Bloino, B. G. Janesko, R. Gomperts, B. Mennucci, H. P. Hratchian, 
 J. V. Ortiz, A. F. Izmaylov, J. L. Sonnenberg, D. Williams-Young, 
 F. Ding, F. Lipparini, F. Egidi, J. Goings, B. Peng, A. Petrone, 
 T. Henderson, D. Ranasinghe, V. G. Zakrzewski, J. Gao, N. Rega, 
 G. Zheng, W. Liang, M. Hada, M. Ehara, K. Toyota, R. Fukuda, 
 J. Hasegawa, M. Ishida, T. Nakajima, Y. Honda, O. Kitao, H. Nakai, 
 T. Vreven, K. Throssell, J. A. Montgomery, Jr., J. E. Peralta, 
 F. Ogliaro, M. J. Bearpark, J. J. Heyd, E. N. Brothers, K. N. Kudin, 
 V. N. Staroverov, T. A. Keith, R. Kobayashi, J. Normand, 
 K. Raghavachari, A. P. Rendell, J. C. Burant, S. S. Iyengar, 
 J. Tomasi, M. Cossi, J. M. Millam, M. Klene, C. Adamo, R. Cammi, 
 J. W. Ochterski, R. L. Martin, K. Morokuma, O. Farkas, 
 J. B. Foresman, and D. J. Fox, Gaussian, Inc., Wallingford CT, 2019.
 
 ******************************************
 Gaussian 16:  ES64L-G16RevC.01  3-Jul-2019
                 1-May-2024 
 ******************************************
 %chk=geometry.chk
 %mem=9GB
 %nprocshared=12
 Will use up to   12 processors via shared memory.
 ---------------------------------------
 #P wB97XD/6-311+G* NoSymm #P Field=Y-58
 ---------------------------------------
 1/38=1,172=1/1;
 2/12=2,15=1,17=6,18=5,40=1/2;
 3/5=4,6=6,7=11,11=2,14=2,15=-58,25=1,30=1,74=-58/1,2,3;
 4//1;
 5/5=2,38=5/2;
 6/7=2,8=2,9=2,10=2,28=1/1;
 99/5=1,9=1/99;
 Leave Link    1 at Wed May  1 14:46:56 2024, MaxMem=  1207959552 cpu:               1.3 elap:               1.3
 (Enter /software/gaussian/g16-c01/sse4/g16/l101.exe)
 -------
 TitleMe
 -------
 Symbolic Z-matrix:
 Charge =  1 Multiplicity = 1
 C                     0.0295    1.3397    0.0682 
 C                     1.4348    1.2867    0.0064 
 C                     2.1118    0.0511   -0.0054 
 C                     1.4451   -1.1372    0.0312 
 C                    -0.6879    0.1682    0.11 
 H                    -0.4713    2.2984    0.0781 
 H                     2.0273    2.1965   -0.0322 
 H                     1.9897   -2.0764    0.0232 
 H                    -1.7716    0.1804    0.1582 
 N                     3.5864    0.051    -0.0675 
 O                     4.1471   -1.0597   -0.0881 
 O                     4.145     1.1639   -0.0901 
 C                    -0.0236   -1.1458    0.0835 
 H                    -0.4367   -1.8725    0.7889 
 Br                   -0.5359   -1.8697   -1.7408 
 
 ITRead=  0  0  0  0  0  0  0  0  0  0  0  0  0  0  0
 MicOpt= -1 -1 -1 -1 -1 -1 -1 -1 -1 -1 -1 -1 -1 -1 -1
 NAtoms=     15 NQM=       15 NQMF=       0 NMMI=      0 NMMIF=      0
                NMic=       0 NMicF=      0.
                    Isotopes and Nuclear Properties:
 (Nuclear quadrupole moments (NQMom) in fm**2, nuclear magnetic moments (NMagM)
  in nuclear magnetons)

  Atom         1           2           3           4           5           6           7           8           9          10
 IAtWgt=          12          12          12          12          12           1           1           1           1          14
 AtmWgt=  12.0000000  12.0000000  12.0000000  12.0000000  12.0000000   1.0078250   1.0078250   1.0078250   1.0078250  14.0030740
 NucSpn=           0           0           0           0           0           1           1           1           1           2
 AtZEff=  -0.0000000  -0.0000000  -0.0000000  -0.0000000  -0.0000000  -0.0000000  -0.0000000  -0.0000000  -0.0000000  -0.0000000
 NQMom=    0.0000000   0.0000000   0.0000000   0.0000000   0.0000000   0.0000000   0.0000000   0.0000000   0.0000000   2.0440000
 NMagM=    0.0000000   0.0000000   0.0000000   0.0000000   0.0000000   2.7928460   2.7928460   2.7928460   2.7928460   0.4037610
 AtZNuc=   6.0000000   6.0000000   6.0000000   6.0000000   6.0000000   1.0000000   1.0000000   1.0000000   1.0000000   7.0000000

  Atom        11          12          13          14          15
 IAtWgt=          16          16          12           1          79
 AtmWgt=  15.9949146  15.9949146  12.0000000   1.0078250  78.9183361
 NucSpn=           0           0           0           1           3
 AtZEff=  -0.0000000  -0.0000000  -0.0000000  -0.0000000  -0.0000000
 NQMom=    0.0000000   0.0000000   0.0000000   0.0000000  31.3000000
 NMagM=    0.0000000   0.0000000   0.0000000   2.7928460   2.1063990
 AtZNuc=   8.0000000   8.0000000   6.0000000   1.0000000  35.0000000
 Leave Link  101 at Wed May  1 14:46:57 2024, MaxMem=  1207959552 cpu:               1.3 elap:               1.3
 (Enter /software/gaussian/g16-c01/sse4/g16/l202.exe)
                          Input orientation:                          
 ---------------------------------------------------------------------
 Center     Atomic      Atomic             Coordinates (Angstroms)
 Number     Number       Type             X           Y           Z
 ---------------------------------------------------------------------
      1          6           0        0.029500    1.339700    0.068200
      2          6           0        1.434800    1.286700    0.006400
      3          6           0        2.111800    0.051100   -0.005400
      4          6           0        1.445100   -1.137200    0.031200
      5          6           0       -0.687900    0.168200    0.110000
      6          1           0       -0.471300    2.298400    0.078100
      7          1           0        2.027300    2.196500   -0.032200
      8          1           0        1.989700   -2.076400    0.023200
      9          1           0       -1.771600    0.180400    0.158200
     10          7           0        3.586400    0.051000   -0.067500
     11          8           0        4.147100   -1.059700   -0.088100
     12          8           0        4.145000    1.163900   -0.090100
     13          6           0       -0.023600   -1.145800    0.083500
     14          1           0       -0.436700   -1.872500    0.788900
     15         35           0       -0.535900   -1.869700   -1.740800
 ---------------------------------------------------------------------
                    Distance matrix (angstroms):
                    1          2          3          4          5
     1  C    0.000000
     2  C    1.407656   0.000000
     3  C    2.449874   1.408963   0.000000
     4  C    2.853126   2.424049   1.363043   0.000000
     5  C    1.374344   2.401589   2.804523   2.501993   0.000000
     6  H    1.081667   2.159142   3.424870   3.934226   2.141421
     7  H    2.176095   1.086408   2.147231   3.384750   3.392128
     8  H    3.938800   3.408612   2.131193   1.085702   3.495040
     9  H    2.143837   3.395283   3.888995   3.478413   1.084840
    10  N    3.785591   2.482297   1.475907   2.450862   4.279589
    11  O    4.768247   3.587631   2.320164   2.705743   4.992415
    12  O    4.122294   2.714696   2.319353   3.549540   4.938459
    13  C    2.486114   2.837240   2.449573   1.469656   1.472614
    14  H    3.324903   3.754379   3.290289   2.157764   2.165286
    15  Br   3.727252   4.110867   3.702891   2.756973   2.757100
                    6          7          8          9         10
     6  H    0.000000
     7  H    2.503108   0.000000
     8  H    5.019802   4.273425   0.000000
     9  H    2.486588   4.304945   4.388479   0.000000
    10  N    4.640790   2.652397   2.661486   5.364313   0.000000
    11  O    5.712624   3.885809   2.387560   6.052233   1.244373
    12  O    4.756638   2.356750   3.893289   6.002923   1.245428
    13  C    3.473180   3.923079   2.218790   2.195425   3.806210
    14  H    4.231175   4.827242   2.552506   2.528663   4.540772
    15  Br   4.548146   5.101303   3.087568   3.055498   4.845862
                   11         12         13         14         15
    11  O    0.000000
    12  O    2.223602   0.000000
    13  C    4.175117   4.768865   0.000000
    14  H    4.737193   5.566358   1.093770   0.000000
    15  Br   5.031700   5.817075   2.028436   2.531646   0.000000
 Symmetry turned off by external request.
 Stoichiometry    C6H5BrNO2(1+)
 Framework group  C1[X(C6H5BrNO2)]
 Deg. of freedom    39
 Full point group                 C1      NOp   1
 Rotational constants (GHZ):           1.8252210           0.5518633           0.4576002
 Leave Link  202 at Wed May  1 14:46:58 2024, MaxMem=  1207959552 cpu:               1.2 elap:               1.2
 (Enter /software/gaussian/g16-c01/sse4/g16/l301.exe)
 Standard basis: 6-311+G(d) (5D, 7F)
 Ernie: Thresh=  0.10000D-02 Tol=  0.10000D-05 Strict=F.
 The following finite field(s) will be applied:
 An electric field of              0.0000 -0.0058  0.0000
   261 basis functions,   443 primitive gaussians,   273 cartesian basis functions
    49 alpha electrons       49 beta electrons
       nuclear repulsion energy       739.2122215416 Hartrees.
 IExCor= 4639 DFT=T Ex+Corr=wB97XD ExCW=0 ScaHFX=  1.000000
 ScaDFX=  1.000000  1.000000  1.000000  1.000000 ScalE2=  1.000000  1.000000
 IRadAn=      5 IRanWt=     -1 IRanGd=            0 ICorTp=0 IEmpDi=121
 HFx  wShort=  0.000000 wLong=  0.200000 cFull=  0.222036 cShort=  0.000000 cLong=  0.777964
 DFx  wShort=  0.000000 wLong=  0.200000 cFull=  0.000000 cShort=  0.000000 cLong=  1.000000
 NAtoms=   15 NActive=   15 NUniq=   15 SFac= 1.00D+00 NAtFMM=   60 NAOKFM=F Big=F
 Integral buffers will be    131072 words long.
 Raffenetti 2 integral format.
 Two-electron integral symmetry is turned off.
 R6Disp:  Grimme-D2 Dispersion energy=       -0.0077368520 Hartrees.
 Nuclear repulsion after empirical dispersion term =      739.2044846896 Hartrees.
 Leave Link  301 at Wed May  1 14:46:59 2024, MaxMem=  1207959552 cpu:               1.0 elap:               1.0
 (Enter /software/gaussian/g16-c01/sse4/g16/l302.exe)
 NPDir=0 NMtPBC=     1 NCelOv=     1 NCel=       1 NClECP=     1 NCelD=      1
         NCelK=      1 NCelE2=     1 NClLst=     1 CellRange=     0.0.
 One-electron integrals computed using PRISM.
 NBasis=   261 RedAO= T EigKep=  2.35D-06  NBF=   261
 NBsUse=   261 1.00D-06 EigRej= -1.00D+00 NBFU=   261
 Precomputing XC quadrature grid using
 IXCGrd= 4 IRadAn=           5 IRanWt=          -1 IRanGd=           0 AccXCQ= 0.00D+00.
 Generated NRdTot=       0 NPtTot=           0 NUsed=           0 NTot=          32
 NSgBfM=   273   273   273   273   273 MxSgAt=    15 MxSgA2=    15.
 Leave Link  302 at Wed May  1 14:47:20 2024, MaxMem=  1207959552 cpu:              20.9 elap:              20.9
 (Enter /software/gaussian/g16-c01/sse4/g16/l303.exe)
 DipDrv:  MaxL=1.
 The nuclear repulsion energy is now       739.8637128891 hartrees.
 Leave Link  303 at Wed May  1 14:47:23 2024, MaxMem=  1207959552 cpu:               3.2 elap:               3.2
 (Enter /software/gaussian/g16-c01/sse4/g16/l401.exe)
 ExpMin= 3.50D-02 ExpMax= 4.40D+05 ExpMxC= 1.51D+04 IAcc=3 IRadAn=         5 AccDes= 0.00D+00
 Harris functional with IExCor= 4639 and IRadAn=       5 diagonalized for initial guess.
 HarFok:  IExCor= 4639 AccDes= 0.00D+00 IRadAn=         5 IDoV= 1 UseB2=F ITyADJ=14
 ICtDFT=  3500011 ScaDFX=  1.000000  1.000000  1.000000  1.000000
 FoFCou: FMM=F IPFlag=           0 FMFlag=      100000 FMFlg1=           0
         NFxFlg=           0 DoJE=T BraDBF=F KetDBF=T FulRan=T
         wScrn=  0.000000 ICntrl=       500 IOpCl=  0 I1Cent=   200000004 NGrid=           0
         NMat0=    1 NMatS0=      1 NMatT0=    0 NMatD0=    1 NMtDS0=    0 NMtDT0=    0
 Symmetry not used in FoFCou.
 Harris En= -2970.60073171644    
 JPrj=0 DoOrth=F DoCkMO=F.
 Leave Link  401 at Wed May  1 14:47:53 2024, MaxMem=  1207959552 cpu:              29.7 elap:              29.7
 (Enter /software/gaussian/g16-c01/sse4/g16/l502.exe)
 Two-electron integral symmetry not used.
 Closed shell SCF:
 Using DIIS extrapolation, IDIIS=  1040.
 NGot=  1207959552 LenX=  1207804877 LenY=  1207729907
 Requested convergence on RMS density matrix=1.00D-08 within 128 cycles.
 Requested convergence on MAX density matrix=1.00D-06.
 Requested convergence on             energy=1.00D-06.
 No special actions if energy rises.
 Fock matrices will be formed incrementally for  20 cycles.

 Cycle   1  Pass 1  IDiag  1:
 FoFJK:  IHMeth= 1 ICntrl=       0 DoSepK=T KAlg= 0 I1Cent=           0 FoldK=F
 IRaf=         1 NMat=       1 IRICut=       1 DoRegI=T DoRafI=F ISym2E= 0 IDoP0=0 IntGTp=1.
 FoFCou: FMM=F IPFlag=           0 FMFlag=      100000 FMFlg1=           0
         NFxFlg=           0 DoJE=T BraDBF=F KetDBF=F FulRan=T
         wScrn=  0.000000 ICntrl=       500 IOpCl=  0 I1Cent=           0 NGrid=           0
         NMat0=    1 NMatS0=      1 NMatT0=    0 NMatD0=    1 NMtDS0=    0 NMtDT0=    0
 Symmetry not used in FoFCou.
 E= -3009.71972297321    
 DIIS: error= 3.20D-01 at cycle   1 NSaved=   1.
 NSaved= 1 IEnMin= 1 EnMin= -3009.71972297321     IErMin= 1 ErrMin= 3.20D-01
 ErrMax= 3.20D-01  0.00D+00 EMaxC= 1.00D-01 BMatC= 1.19D+01 BMatP= 1.19D+01
 IDIUse=3 WtCom= 0.00D+00 WtEn= 1.00D+00
 Coeff-Com:  0.100D+01
 Coeff-En:   0.100D+01
 Coeff:      0.100D+01
 Gap=     0.353 Goal=   None    Shift=    0.000
 GapD=    0.353 DampG=1.000 DampE=0.250 DampFc=0.2500 IDamp=-1.
 Damping current iteration by 2.50D-01
 RMSDP=4.54D-02 MaxDP=5.31D+00              OVMax= 2.50D-01

 Cycle   2  Pass 1  IDiag  1:
 RMSU=  4.43D-03    CP:  8.88D-01
 E= -3010.00311690471     Delta-E=       -0.283393931501 Rises=F Damp=T
 DIIS: error= 2.25D-01 at cycle   2 NSaved=   2.
 NSaved= 2 IEnMin= 2 EnMin= -3010.00311690471     IErMin= 2 ErrMin= 2.25D-01
 ErrMax= 2.25D-01  0.00D+00 EMaxC= 1.00D-01 BMatC= 5.45D+00 BMatP= 1.19D+01
 IDIUse=3 WtCom= 0.00D+00 WtEn= 1.00D+00
 Coeff-Com: -0.184D+01 0.284D+01
 Coeff-En:   0.000D+00 0.100D+01
 Coeff:      0.000D+00 0.100D+01
 Gap=     0.290 Goal=   None    Shift=    0.000
 RMSDP=3.55D-02 MaxDP=3.98D+00 DE=-2.83D-01 OVMax= 7.68D-02

 Cycle   3  Pass 1  IDiag  1:
 RMSU=  4.78D-03    CP:  5.30D-01  3.00D+00
 E= -3010.38889974416     Delta-E=       -0.385782839445 Rises=F Damp=F
 DIIS: error= 6.53D-02 at cycle   3 NSaved=   3.
 NSaved= 3 IEnMin= 3 EnMin= -3010.38889974416     IErMin= 3 ErrMin= 6.53D-02
 ErrMax= 6.53D-02  0.00D+00 EMaxC= 1.00D-01 BMatC= 7.22D-01 BMatP= 5.45D+00
 IDIUse=3 WtCom= 3.47D-01 WtEn= 6.53D-01
 Coeff-Com:  0.255D+01-0.333D+01 0.179D+01
 Coeff-En:   0.162D-01 0.000D+00 0.984D+00
 Coeff:      0.896D+00-0.116D+01 0.126D+01
 Gap=     0.255 Goal=   None    Shift=    0.000
 RMSDP=8.42D-03 MaxDP=4.93D-01 DE=-3.86D-01 OVMax= 6.95D-02

 Cycle   4  Pass 1  IDiag  1:
 RMSU=  5.58D-03    CP:  5.42D-01  2.42D+00  1.98D+00
 E= -3010.48232046219     Delta-E=       -0.093420718035 Rises=F Damp=F
 DIIS: error= 3.95D-02 at cycle   4 NSaved=   4.
 NSaved= 4 IEnMin= 4 EnMin= -3010.48232046219     IErMin= 4 ErrMin= 3.95D-02
 ErrMax= 3.95D-02  0.00D+00 EMaxC= 1.00D-01 BMatC= 2.51D-01 BMatP= 7.22D-01
 IDIUse=3 WtCom= 6.05D-01 WtEn= 3.95D-01
 Coeff-Com:  0.344D+00-0.443D+00 0.557D+00 0.541D+00
 Coeff-En:   0.000D+00 0.000D+00 0.229D+00 0.771D+00
 Coeff:      0.208D+00-0.268D+00 0.428D+00 0.632D+00
 Gap=     0.279 Goal=   None    Shift=    0.000
 RMSDP=3.43D-03 MaxDP=2.48D-01 DE=-9.34D-02 OVMax= 6.29D-02

 Cycle   5  Pass 1  IDiag  1:
 RMSU=  1.85D-03    CP:  5.17D-01  2.70D+00  1.92D+00  7.85D-01
 E= -3010.52750498921     Delta-E=       -0.045184527014 Rises=F Damp=F
 DIIS: error= 1.20D-02 at cycle   5 NSaved=   5.
 NSaved= 5 IEnMin= 5 EnMin= -3010.52750498921     IErMin= 5 ErrMin= 1.20D-02
 ErrMax= 1.20D-02  0.00D+00 EMaxC= 1.00D-01 BMatC= 1.51D-02 BMatP= 2.51D-01
 IDIUse=3 WtCom= 8.80D-01 WtEn= 1.20D-01
 Coeff-Com: -0.527D-01 0.764D-01 0.166D+00 0.388D+00 0.422D+00
 Coeff-En:   0.000D+00 0.000D+00 0.000D+00 0.265D-01 0.973D+00
 Coeff:     -0.464D-01 0.673D-01 0.146D+00 0.345D+00 0.488D+00
 Gap=     0.268 Goal=   None    Shift=    0.000
 RMSDP=1.19D-03 MaxDP=1.04D-01 DE=-4.52D-02 OVMax= 4.49D-02

 Cycle   6  Pass 1  IDiag  1:
 RMSU=  5.32D-04    CP:  5.11D-01  2.73D+00  1.91D+00  8.49D-01  5.65D-01
 E= -3010.53495941784     Delta-E=       -0.007454428630 Rises=F Damp=F
 DIIS: error= 3.36D-03 at cycle   6 NSaved=   6.
 NSaved= 6 IEnMin= 6 EnMin= -3010.53495941784     IErMin= 6 ErrMin= 3.36D-03
 ErrMax= 3.36D-03  0.00D+00 EMaxC= 1.00D-01 BMatC= 1.32D-03 BMatP= 1.51D-02
 IDIUse=3 WtCom= 9.66D-01 WtEn= 3.36D-02
 Coeff-Com: -0.854D-01 0.115D+00 0.436D-02 0.137D+00 0.318D+00 0.511D+00
 Coeff-En:   0.000D+00 0.000D+00 0.000D+00 0.000D+00 0.936D-01 0.906D+00
 Coeff:     -0.825D-01 0.111D+00 0.421D-02 0.133D+00 0.310D+00 0.524D+00
 Gap=     0.259 Goal=   None    Shift=    0.000
 RMSDP=3.39D-04 MaxDP=1.46D-02 DE=-7.45D-03 OVMax= 1.14D-02

 Cycle   7  Pass 1  IDiag  1:
 RMSU=  1.99D-04    CP:  5.10D-01  2.73D+00  1.91D+00  8.28D-01  6.84D-01
                    CP:  8.17D-01
 E= -3010.53587486732     Delta-E=       -0.000915449486 Rises=F Damp=F
 DIIS: error= 2.99D-04 at cycle   7 NSaved=   7.
 NSaved= 7 IEnMin= 7 EnMin= -3010.53587486732     IErMin= 7 ErrMin= 2.99D-04
 ErrMax= 2.99D-04  0.00D+00 EMaxC= 1.00D-01 BMatC= 1.54D-05 BMatP= 1.32D-03
 IDIUse=3 WtCom= 9.97D-01 WtEn= 2.99D-03
 Coeff-Com: -0.313D-01 0.416D-01-0.118D-01 0.240D-01 0.723D-01 0.170D+00
 Coeff-Com:  0.735D+00
 Coeff-En:   0.000D+00 0.000D+00 0.000D+00 0.000D+00 0.000D+00 0.000D+00
 Coeff-En:   0.100D+01
 Coeff:     -0.312D-01 0.415D-01-0.117D-01 0.239D-01 0.721D-01 0.170D+00
 Coeff:      0.736D+00
 Gap=     0.258 Goal=   None    Shift=    0.000
 RMSDP=1.41D-04 MaxDP=9.51D-03 DE=-9.15D-04 OVMax= 2.99D-03

 Cycle   8  Pass 1  IDiag  1:
 RMSU=  6.77D-05    CP:  5.10D-01  2.72D+00  1.92D+00  8.38D-01  7.03D-01
                    CP:  9.00D-01  9.94D-01
 E= -3010.53589784513     Delta-E=       -0.000022977802 Rises=F Damp=F
 DIIS: error= 1.29D-04 at cycle   8 NSaved=   8.
 NSaved= 8 IEnMin= 8 EnMin= -3010.53589784513     IErMin= 8 ErrMin= 1.29D-04
 ErrMax= 1.29D-04  0.00D+00 EMaxC= 1.00D-01 BMatC= 2.55D-06 BMatP= 1.54D-05
 IDIUse=3 WtCom= 9.99D-01 WtEn= 1.29D-03
 Coeff-Com:  0.443D-02-0.613D-02-0.384D-02-0.128D-01-0.315D-01-0.491D-01
 Coeff-Com:  0.199D+00 0.900D+00
 Coeff-En:   0.000D+00 0.000D+00 0.000D+00 0.000D+00 0.000D+00 0.000D+00
 Coeff-En:   0.000D+00 0.100D+01
 Coeff:      0.442D-02-0.613D-02-0.384D-02-0.128D-01-0.315D-01-0.490D-01
 Coeff:      0.199D+00 0.900D+00
 Gap=     0.257 Goal=   None    Shift=    0.000
 RMSDP=5.98D-05 MaxDP=3.73D-03 DE=-2.30D-05 OVMax= 2.31D-03

 Cycle   9  Pass 1  IDiag  1:
 RMSU=  2.76D-05    CP:  5.09D-01  2.72D+00  1.92D+00  8.40D-01  7.08D-01
                    CP:  9.29D-01  1.19D+00  1.34D+00
 E= -3010.53590431227     Delta-E=       -0.000006467144 Rises=F Damp=F
 DIIS: error= 5.01D-05 at cycle   9 NSaved=   9.
 NSaved= 9 IEnMin= 9 EnMin= -3010.53590431227     IErMin= 9 ErrMin= 5.01D-05
 ErrMax= 5.01D-05  0.00D+00 EMaxC= 1.00D-01 BMatC= 2.80D-07 BMatP= 2.55D-06
 IDIUse=1 WtCom= 1.00D+00 WtEn= 0.00D+00
 Coeff-Com:  0.531D-02-0.713D-02 0.414D-03-0.679D-02-0.165D-01-0.346D-01
 Coeff-Com: -0.485D-01 0.245D+00 0.862D+00
 Coeff:      0.531D-02-0.713D-02 0.414D-03-0.679D-02-0.165D-01-0.346D-01
 Coeff:     -0.485D-01 0.245D+00 0.862D+00
 Gap=     0.258 Goal=   None    Shift=    0.000
 RMSDP=2.00D-05 MaxDP=1.06D-03 DE=-6.47D-06 OVMax= 1.19D-03

 Cycle  10  Pass 1  IDiag  1:
 RMSU=  8.29D-06    CP:  5.09D-01  2.72D+00  1.93D+00  8.40D-01  7.12D-01
                    CP:  9.39D-01  1.25D+00  1.48D+00  1.23D+00
 E= -3010.53590546195     Delta-E=       -0.000001149682 Rises=F Damp=F
 DIIS: error= 1.71D-05 at cycle  10 NSaved=  10.
 NSaved=10 IEnMin=10 EnMin= -3010.53590546195     IErMin=10 ErrMin= 1.71D-05
 ErrMax= 1.71D-05  0.00D+00 EMaxC= 1.00D-01 BMatC= 7.10D-08 BMatP= 2.80D-07
 IDIUse=1 WtCom= 1.00D+00 WtEn= 0.00D+00
 Coeff-Com:  0.223D-03-0.271D-03 0.459D-03 0.285D-03 0.300D-02 0.354D-02
 Coeff-Com: -0.496D-01-0.110D+00 0.242D+00 0.910D+00
 Coeff:      0.223D-03-0.271D-03 0.459D-03 0.285D-03 0.300D-02 0.354D-02
 Coeff:     -0.496D-01-0.110D+00 0.242D+00 0.910D+00
 Gap=     0.258 Goal=   None    Shift=    0.000
 RMSDP=9.41D-06 MaxDP=6.07D-04 DE=-1.15D-06 OVMax= 5.63D-04

 Cycle  11  Pass 1  IDiag  1:
 RMSU=  5.39D-06    CP:  5.10D-01  2.72D+00  1.92D+00  8.39D-01  7.13D-01
                    CP:  9.40D-01  1.26D+00  1.51D+00  1.37D+00  1.25D+00
 E= -3010.53590568258     Delta-E=       -0.000000220627 Rises=F Damp=F
 DIIS: error= 5.56D-06 at cycle  11 NSaved=  11.
 NSaved=11 IEnMin=11 EnMin= -3010.53590568258     IErMin=11 ErrMin= 5.56D-06
 ErrMax= 5.56D-06  0.00D+00 EMaxC= 1.00D-01 BMatC= 5.70D-09 BMatP= 7.10D-08
 IDIUse=1 WtCom= 1.00D+00 WtEn= 0.00D+00
 Coeff-Com: -0.418D-03 0.569D-03 0.119D-03 0.791D-03 0.251D-02 0.465D-02
 Coeff-Com: -0.597D-02-0.508D-01-0.250D-01 0.198D+00 0.875D+00
 Coeff:     -0.418D-03 0.569D-03 0.119D-03 0.791D-03 0.251D-02 0.465D-02
 Coeff:     -0.597D-02-0.508D-01-0.250D-01 0.198D+00 0.875D+00
 Gap=     0.258 Goal=   None    Shift=    0.000
 RMSDP=3.98D-06 MaxDP=2.80D-04 DE=-2.21D-07 OVMax= 1.69D-04

 Cycle  12  Pass 1  IDiag  1:
 RMSU=  1.58D-06    CP:  5.10D-01  2.72D+00  1.92D+00  8.39D-01  7.12D-01
                    CP:  9.40D-01  1.27D+00  1.52D+00  1.42D+00  1.43D+00
                    CP:  1.30D+00
 E= -3010.53590570588     Delta-E=       -0.000000023305 Rises=F Damp=F
 DIIS: error= 3.32D-06 at cycle  12 NSaved=  12.
 NSaved=12 IEnMin=12 EnMin= -3010.53590570588     IErMin=12 ErrMin= 3.32D-06
 ErrMax= 3.32D-06  0.00D+00 EMaxC= 1.00D-01 BMatC= 2.30D-09 BMatP= 5.70D-09
 IDIUse=1 WtCom= 1.00D+00 WtEn= 0.00D+00
 Coeff-Com: -0.118D-03 0.156D-03-0.641D-05 0.233D-03 0.877D-04 0.556D-03
 Coeff-Com:  0.982D-02 0.478D-02-0.711D-01-0.156D+00 0.416D+00 0.796D+00
 Coeff:     -0.118D-03 0.156D-03-0.641D-05 0.233D-03 0.877D-04 0.556D-03
 Coeff:      0.982D-02 0.478D-02-0.711D-01-0.156D+00 0.416D+00 0.796D+00
 Gap=     0.258 Goal=   None    Shift=    0.000
 RMSDP=1.83D-06 MaxDP=7.67D-05 DE=-2.33D-08 OVMax= 9.20D-05

 Cycle  13  Pass 1  IDiag  1:
 RMSU=  5.50D-07    CP:  5.10D-01  2.72D+00  1.92D+00  8.39D-01  7.12D-01
                    CP:  9.40D-01  1.27D+00  1.51D+00  1.43D+00  1.50D+00
                    CP:  1.54D+00  9.87D-01
 E= -3010.53590571230     Delta-E=       -0.000000006416 Rises=F Damp=F
 DIIS: error= 4.90D-07 at cycle  13 NSaved=  13.
 NSaved=13 IEnMin=13 EnMin= -3010.53590571230     IErMin=13 ErrMin= 4.90D-07
 ErrMax= 4.90D-07  0.00D+00 EMaxC= 1.00D-01 BMatC= 1.57D-10 BMatP= 2.30D-09
 IDIUse=1 WtCom= 1.00D+00 WtEn= 0.00D+00
 Coeff-Com: -0.304D-04 0.398D-04-0.157D-04 0.241D-04-0.122D-03-0.235D-03
 Coeff-Com:  0.233D-02 0.260D-02-0.964D-02-0.431D-01 0.126D-01 0.140D+00
 Coeff-Com:  0.895D+00
 Coeff:     -0.304D-04 0.398D-04-0.157D-04 0.241D-04-0.122D-03-0.235D-03
 Coeff:      0.233D-02 0.260D-02-0.964D-02-0.431D-01 0.126D-01 0.140D+00
 Coeff:      0.895D+00
 Gap=     0.258 Goal=   None    Shift=    0.000
 RMSDP=5.62D-07 MaxDP=4.13D-05 DE=-6.42D-09 OVMax= 1.59D-05

 Cycle  14  Pass 1  IDiag  1:
 RMSU=  2.05D-07    CP:  5.10D-01  2.72D+00  1.92D+00  8.39D-01  7.12D-01
                    CP:  9.40D-01  1.27D+00  1.51D+00  1.43D+00  1.51D+00
                    CP:  1.60D+00  1.07D+00  1.37D+00
 E= -3010.53590571284     Delta-E=       -0.000000000538 Rises=F Damp=F
 DIIS: error= 4.01D-07 at cycle  14 NSaved=  14.
 NSaved=14 IEnMin=14 EnMin= -3010.53590571284     IErMin=14 ErrMin= 4.01D-07
 ErrMax= 4.01D-07  0.00D+00 EMaxC= 1.00D-01 BMatC= 3.86D-11 BMatP= 1.57D-10
 IDIUse=1 WtCom= 1.00D+00 WtEn= 0.00D+00
 Coeff-Com:  0.293D-05-0.369D-05-0.816D-05-0.364D-04-0.505D-04-0.195D-03
 Coeff-Com: -0.130D-02-0.519D-03 0.141D-01 0.200D-01-0.863D-01-0.139D+00
 Coeff-Com:  0.302D+00 0.892D+00
 Coeff:      0.293D-05-0.369D-05-0.816D-05-0.364D-04-0.505D-04-0.195D-03
 Coeff:     -0.130D-02-0.519D-03 0.141D-01 0.200D-01-0.863D-01-0.139D+00
 Coeff:      0.302D+00 0.892D+00
 Gap=     0.258 Goal=   None    Shift=    0.000
 RMSDP=2.18D-07 MaxDP=1.00D-05 DE=-5.38D-10 OVMax= 1.51D-05

 Cycle  15  Pass 1  IDiag  1:
 RMSU=  7.68D-08    CP:  5.10D-01  2.72D+00  1.92D+00  8.39D-01  7.12D-01
                    CP:  9.40D-01  1.27D+00  1.51D+00  1.43D+00  1.51D+00
                    CP:  1.62D+00  1.09D+00  1.61D+00  1.22D+00
 E= -3010.53590571307     Delta-E=       -0.000000000232 Rises=F Damp=F
 DIIS: error= 1.23D-07 at cycle  15 NSaved=  15.
 NSaved=15 IEnMin=15 EnMin= -3010.53590571307     IErMin=15 ErrMin= 1.23D-07
 ErrMax= 1.23D-07  0.00D+00 EMaxC= 1.00D-01 BMatC= 9.01D-12 BMatP= 3.86D-11
 IDIUse=1 WtCom= 1.00D+00 WtEn= 0.00D+00
 Coeff-Com:  0.709D-05-0.935D-05 0.159D-05-0.111D-04 0.151D-04 0.342D-04
 Coeff-Com: -0.498D-03-0.556D-03 0.352D-02 0.845D-02-0.978D-02-0.507D-01
 Coeff-Com: -0.183D+00 0.183D+00 0.105D+01
 Coeff:      0.709D-05-0.935D-05 0.159D-05-0.111D-04 0.151D-04 0.342D-04
 Coeff:     -0.498D-03-0.556D-03 0.352D-02 0.845D-02-0.978D-02-0.507D-01
 Coeff:     -0.183D+00 0.183D+00 0.105D+01
 Gap=     0.258 Goal=   None    Shift=    0.000
 RMSDP=1.61D-07 MaxDP=1.02D-05 DE=-2.32D-10 OVMax= 8.69D-06

 Cycle  16  Pass 1  IDiag  1:
 RMSU=  6.97D-08    CP:  5.10D-01  2.72D+00  1.92D+00  8.39D-01  7.12D-01
                    CP:  9.39D-01  1.27D+00  1.51D+00  1.43D+00  1.51D+00
                    CP:  1.63D+00  1.10D+00  1.76D+00  1.57D+00  1.32D+00
 E= -3010.53590571317     Delta-E=       -0.000000000095 Rises=F Damp=F
 DIIS: error= 6.64D-08 at cycle  16 NSaved=  16.
 NSaved=16 IEnMin=16 EnMin= -3010.53590571317     IErMin=16 ErrMin= 6.64D-08
 ErrMax= 6.64D-08  0.00D+00 EMaxC= 1.00D-01 BMatC= 1.20D-12 BMatP= 9.01D-12
 IDIUse=1 WtCom= 1.00D+00 WtEn= 0.00D+00
 Coeff-Com:  0.293D-05-0.393D-05 0.250D-05 0.327D-05 0.144D-04 0.520D-04
 Coeff-Com:  0.112D-03-0.144D-03-0.156D-02-0.115D-02 0.164D-01 0.118D-01
 Coeff-Com: -0.110D+00-0.770D-01 0.237D+00 0.925D+00
 Coeff:      0.293D-05-0.393D-05 0.250D-05 0.327D-05 0.144D-04 0.520D-04
 Coeff:      0.112D-03-0.144D-03-0.156D-02-0.115D-02 0.164D-01 0.118D-01
 Coeff:     -0.110D+00-0.770D-01 0.237D+00 0.925D+00
 Gap=     0.258 Goal=   None    Shift=    0.000
 RMSDP=3.76D-08 MaxDP=1.98D-06 DE=-9.55D-11 OVMax= 3.31D-06

 Cycle  17  Pass 1  IDiag  1:
 RMSU=  1.34D-08    CP:  5.10D-01  2.72D+00  1.92D+00  8.39D-01  7.12D-01
                    CP:  9.39D-01  1.27D+00  1.51D+00  1.43D+00  1.51D+00
                    CP:  1.63D+00  1.10D+00  1.78D+00  1.65D+00  1.54D+00
                    CP:  1.24D+00
 E= -3010.53590571313     Delta-E=        0.000000000033 Rises=F Damp=F
 DIIS: error= 3.41D-08 at cycle  17 NSaved=  17.
 NSaved=17 IEnMin=16 EnMin= -3010.53590571317     IErMin=17 ErrMin= 3.41D-08
 ErrMax= 3.41D-08  0.00D+00 EMaxC= 1.00D-01 BMatC= 3.18D-13 BMatP= 1.20D-12
 IDIUse=1 WtCom= 1.00D+00 WtEn= 0.00D+00
 Coeff-Com: -0.850D-07 0.945D-07 0.572D-06 0.275D-05 0.448D-05 0.174D-04
 Coeff-Com:  0.107D-03 0.152D-05-0.107D-02-0.152D-02 0.666D-02 0.992D-02
 Coeff-Com: -0.137D-01-0.449D-01-0.124D+00 0.313D+00 0.855D+00
 Coeff:     -0.850D-07 0.945D-07 0.572D-06 0.275D-05 0.448D-05 0.174D-04
 Coeff:      0.107D-03 0.152D-05-0.107D-02-0.152D-02 0.666D-02 0.992D-02
 Coeff:     -0.137D-01-0.449D-01-0.124D+00 0.313D+00 0.855D+00
 Gap=     0.258 Goal=   None    Shift=    0.000
 RMSDP=2.45D-08 MaxDP=1.52D-06 DE= 3.27D-11 OVMax= 1.40D-06

 Cycle  18  Pass 1  IDiag  1:
 RMSU=  6.09D-09    CP:  5.10D-01  2.72D+00  1.92D+00  8.39D-01  7.12D-01
                    CP:  9.39D-01  1.27D+00  1.51D+00  1.43D+00  1.51D+00
                    CP:  1.63D+00  1.10D+00  1.80D+00  1.70D+00  1.62D+00
                    CP:  1.44D+00  1.21D+00
 E= -3010.53590571317     Delta-E=       -0.000000000039 Rises=F Damp=F
 DIIS: error= 9.32D-09 at cycle  18 NSaved=  18.
 NSaved=18 IEnMin=18 EnMin= -3010.53590571317     IErMin=18 ErrMin= 9.32D-09
 ErrMax= 9.32D-09  0.00D+00 EMaxC= 1.00D-01 BMatC= 2.60D-14 BMatP= 3.18D-13
 IDIUse=1 WtCom= 1.00D+00 WtEn= 0.00D+00
 Coeff-Com: -0.186D-06 0.247D-06-0.265D-06-0.487D-06-0.222D-05-0.610D-05
 Coeff-Com: -0.203D-05 0.389D-04 0.101D-03-0.618D-04-0.165D-02-0.551D-03
 Coeff-Com:  0.157D-01 0.142D-01-0.688D-01-0.952D-01 0.147D+00 0.989D+00
 Coeff:     -0.186D-06 0.247D-06-0.265D-06-0.487D-06-0.222D-05-0.610D-05
 Coeff:     -0.203D-05 0.389D-04 0.101D-03-0.618D-04-0.165D-02-0.551D-03
 Coeff:      0.157D-01 0.142D-01-0.688D-01-0.952D-01 0.147D+00 0.989D+00
 Gap=     0.258 Goal=   None    Shift=    0.000
 RMSDP=9.21D-09 MaxDP=8.55D-07 DE=-3.91D-11 OVMax= 3.25D-07

 SCF Done:  E(RwB97XD) =  -3010.53590571     A.U. after   18 cycles
            NFock= 18  Conv=0.92D-08     -V/T= 2.0016
 KE= 3.005862249505D+03 PE=-8.633011863698D+03 EE= 1.876749995591D+03
 Leave Link  502 at Wed May  1 15:04:29 2024, MaxMem=  1207959552 cpu:             996.1 elap:             996.2
 (Enter /software/gaussian/g16-c01/sse4/g16/l601.exe)
 Copying SCF densities to generalized density rwf, IOpCl= 0 IROHF=0.

 **********************************************************************

            Population analysis using the SCF Density.

 **********************************************************************

 Alpha  occ. eigenvalues -- -483.32010 -62.87047 -56.66724 -56.66174 -56.66172
 Alpha  occ. eigenvalues --  -19.45887 -19.45709 -14.85325 -10.58905 -10.57291
 Alpha  occ. eigenvalues --  -10.57240 -10.57162 -10.56578 -10.52503  -9.02863
 Alpha  occ. eigenvalues --   -6.85497  -6.83691  -6.83679  -2.95412  -2.94931
 Alpha  occ. eigenvalues --   -2.94920  -2.93475  -2.93475  -1.49590  -1.32562
 Alpha  occ. eigenvalues --   -1.22722  -1.14308  -1.11642  -1.04945  -1.00977
 Alpha  occ. eigenvalues --   -0.95532  -0.90925  -0.85202  -0.80721  -0.80585
 Alpha  occ. eigenvalues --   -0.79955  -0.78434  -0.76038  -0.75805  -0.72467
 Alpha  occ. eigenvalues --   -0.69262  -0.67390  -0.63711  -0.60437  -0.57505
 Alpha  occ. eigenvalues --   -0.56950  -0.56111  -0.55772  -0.55508
 Alpha virt. eigenvalues --   -0.29751  -0.21301  -0.15990  -0.13470  -0.09924
 Alpha virt. eigenvalues --   -0.06481  -0.05857  -0.05753  -0.04644  -0.03420
 Alpha virt. eigenvalues --   -0.02949  -0.02234  -0.02154  -0.01611  -0.01029
 Alpha virt. eigenvalues --    0.00717   0.01630   0.02085   0.02476   0.02886
 Alpha virt. eigenvalues --    0.03660   0.04432   0.05233   0.06023   0.06366
 Alpha virt. eigenvalues --    0.07084   0.08137   0.08311   0.08506   0.09978
 Alpha virt. eigenvalues --    0.10343   0.10671   0.11329   0.11758   0.12527
 Alpha virt. eigenvalues --    0.13059   0.13276   0.13898   0.14918   0.16104
 Alpha virt. eigenvalues --    0.16748   0.17932   0.17983   0.18889   0.19393
 Alpha virt. eigenvalues --    0.20111   0.20766   0.21330   0.21884   0.24530
 Alpha virt. eigenvalues --    0.25660   0.27783   0.27949   0.28585   0.30071
 Alpha virt. eigenvalues --    0.32100   0.33079   0.33681   0.35105   0.36195
 Alpha virt. eigenvalues --    0.37030   0.38328   0.39000   0.40561   0.41217
 Alpha virt. eigenvalues --    0.42681   0.43746   0.44393   0.46341   0.47371
 Alpha virt. eigenvalues --    0.48052   0.49669   0.50821   0.51883   0.53579
 Alpha virt. eigenvalues --    0.53848   0.54709   0.56249   0.56809   0.60321
 Alpha virt. eigenvalues --    0.61134   0.61998   0.63502   0.66358   0.68590
 Alpha virt. eigenvalues --    0.69875   0.72037   0.73023   0.73514   0.74123
 Alpha virt. eigenvalues --    0.75029   0.79543   0.79897   0.82469   0.85017
 Alpha virt. eigenvalues --    0.86195   0.88040   0.91690   0.92928   0.98385
 Alpha virt. eigenvalues --    0.99671   1.01198   1.04435   1.05408   1.06463
 Alpha virt. eigenvalues --    1.08894   1.11010   1.12102   1.12503   1.14260
 Alpha virt. eigenvalues --    1.22148   1.24485   1.26681   1.33049   1.36454
 Alpha virt. eigenvalues --    1.36848   1.37686   1.44936   1.54327   1.57088
 Alpha virt. eigenvalues --    1.58444   1.58641   1.60625   1.62233   1.66199
 Alpha virt. eigenvalues --    1.69074   1.69545   1.73624   1.75301   1.79046
 Alpha virt. eigenvalues --    1.80984   1.85508   1.87513   1.92585   1.94689
 Alpha virt. eigenvalues --    1.97580   2.02878   2.03716   2.06316   2.07818
 Alpha virt. eigenvalues --    2.09212   2.14708   2.20536   2.22772   2.29954
 Alpha virt. eigenvalues --    2.37538   2.41020   2.42209   2.43415   2.52493
 Alpha virt. eigenvalues --    2.56707   2.63081   2.66081   2.68182   2.71811
 Alpha virt. eigenvalues --    2.73266   2.76463   2.77387   2.81042   2.81627
 Alpha virt. eigenvalues --    2.93323   2.96106   3.00655   3.05159   3.08875
 Alpha virt. eigenvalues --    3.13010   3.15203   3.19273   3.23765   3.24247
 Alpha virt. eigenvalues --    3.27377   3.39128   3.47907   3.51253   3.54376
 Alpha virt. eigenvalues --    3.56788   3.69934   3.74133   3.82165   3.87084
 Alpha virt. eigenvalues --    4.08000   4.08241   4.15826   4.21008   4.41860
 Alpha virt. eigenvalues --    4.44381   4.57340   4.59900   4.93224   4.95898
 Alpha virt. eigenvalues --    5.04534   5.08721   5.62849   6.15796   6.63732
 Alpha virt. eigenvalues --    7.46678   7.48250   7.58078  23.21263  23.61262
 Alpha virt. eigenvalues --   23.69024  23.79573  23.96131  24.01389  35.32631
 Alpha virt. eigenvalues --   47.90375  49.85590  49.94403 289.79718 289.81386
 Alpha virt. eigenvalues --  289.938391020.90816
          Condensed to atoms (all electrons):
               1          2          3          4          5          6
     1  C    8.642937  -2.047537   0.162821  -1.476499  -0.684315   0.309168
     2  C   -2.047537  12.290592  -1.673198  -2.749981   0.810299  -0.012667
     3  C    0.162821  -1.673198  12.795434  -2.849503  -1.220294   0.023552
     4  C   -1.476499  -2.749981  -2.849503  14.681533   1.078314   0.007902
     5  C   -0.684315   0.810299  -1.220294   1.078314   7.350118   0.010827
     6  H    0.309168  -0.012667   0.023552   0.007902   0.010827   0.314207
     7  H    0.059634   0.242239   0.064730  -0.027693  -0.017381  -0.001480
     8  H    0.005509  -0.017491   0.087274   0.223665  -0.021490   0.000002
     9  H    0.041005  -0.018016   0.005484  -0.011954   0.306492  -0.002200
    10  N   -0.118888   0.313791  -0.904822   0.315018   0.019904  -0.000557
    11  O    0.022437  -0.081615  -0.256113  -0.034342  -0.059723  -0.000024
    12  O    0.305070  -0.006516  -0.284273  -0.086399  -0.040067   0.000007
    13  C    1.322038  -1.565846   0.728210  -3.346908  -1.568481  -0.005915
    14  H   -0.013234   0.007014  -0.003582  -0.023207  -0.015735  -0.000039
    15  Br   0.035659   0.019642   0.010982   0.028165   0.030419  -0.000372
               7          8          9         10         11         12
     1  C    0.059634   0.005509   0.041005  -0.118888   0.022437   0.305070
     2  C    0.242239  -0.017491  -0.018016   0.313791  -0.081615  -0.006516
     3  C    0.064730   0.087274   0.005484  -0.904822  -0.256113  -0.284273
     4  C   -0.027693   0.223665  -0.011954   0.315018  -0.034342  -0.086399
     5  C   -0.017381  -0.021490   0.306492   0.019904  -0.059723  -0.040067
     6  H   -0.001480   0.000002  -0.002200  -0.000557  -0.000024   0.000007
     7  H    0.284002   0.000002   0.000025  -0.023307  -0.001312   0.020455
     8  H    0.000002   0.311441   0.000097  -0.025659   0.024372  -0.001045
     9  H    0.000025   0.000097   0.322490   0.000355   0.000005   0.000006
    10  N   -0.023307  -0.025659   0.000355   7.352596   0.166206   0.177520
    11  O   -0.001312   0.024372   0.000005   0.166206   7.891124   0.000989
    12  O    0.020455  -0.001045   0.000006   0.177520   0.000989   7.815753
    13  C    0.013054   0.060440   0.006338  -0.171422   0.326613   0.035187
    14  H   -0.000020  -0.004664  -0.005338  -0.000160  -0.000221  -0.000077
    15  Br  -0.000039   0.003412   0.002699   0.007575  -0.000126   0.002055
              13         14         15
     1  C    1.322038  -0.013234   0.035659
     2  C   -1.565846   0.007014   0.019642
     3  C    0.728210  -0.003582   0.010982
     4  C   -3.346908  -0.023207   0.028165
     5  C   -1.568481  -0.015735   0.030419
     6  H   -0.005915  -0.000039  -0.000372
     7  H    0.013054  -0.000020  -0.000039
     8  H    0.060440  -0.004664   0.003412
     9  H    0.006338  -0.005338   0.002699
    10  N   -0.171422  -0.000160   0.007575
    11  O    0.326613  -0.000221  -0.000126
    12  O    0.035187  -0.000077   0.002055
    13  C   10.237572   0.357567   0.033130
    14  H    0.357567   0.359443  -0.046793
    15  Br   0.033130  -0.046793  34.737094
 Mulliken charges:
               1
     1  C   -0.565805
     2  C    0.489289
     3  C   -0.686703
     4  C    0.271888
     5  C    0.021113
     6  H    0.357591
     7  H    0.387091
     8  H    0.354134
     9  H    0.352513
    10  N   -0.108150
    11  O    0.001730
    12  O    0.061337
    13  C   -0.461574
    14  H    0.389047
    15  Br   0.136498
 Sum of Mulliken charges =   1.00000
 Mulliken charges with hydrogens summed into heavy atoms:
               1
     1  C   -0.208214
     2  C    0.876381
     3  C   -0.686703
     4  C    0.626023
     5  C    0.373626
    10  N   -0.108150
    11  O    0.001730
    12  O    0.061337
    13  C   -0.072527
    15  Br   0.136498
 Electronic spatial extent (au):  <R**2>=           2799.0834
 Charge=              1.0000 electrons
 Dipole moment (field-independent basis, Debye):
    X=             -0.6292    Y=              1.0794    Z=              0.1965  Tot=              1.2648
 Quadrupole moment (field-independent basis, Debye-Ang):
   XX=            -70.9241   YY=            -52.7759   ZZ=            -63.1097
   XY=              3.1626   XZ=              0.9244   YZ=              0.8994
 Traceless Quadrupole moment (field-independent basis, Debye-Ang):
   XX=             -8.6542   YY=              9.4940   ZZ=             -0.8398
   XY=              3.1626   XZ=              0.9244   YZ=              0.8994
 Octapole moment (field-independent basis, Debye-Ang**2):
  XXX=           -297.5871  YYY=             97.5936  ZZZ=             78.7275  XYY=            -74.9666
  XXY=             38.9592  XXZ=             32.4397  XZZ=            -77.6532  YZZ=             18.9082
  YYZ=             27.6511  XYZ=             -3.0177
 Hexadecapole moment (field-independent basis, Debye-Ang**3):
 XXXX=          -2272.0815 YYYY=           -686.1001 ZZZZ=           -351.3421 XXXY=            -37.4706
 XXXZ=            -22.2979 YYYX=            -53.8943 YYYZ=           -162.1884 ZZZX=            -19.2097
 ZZZY=           -139.8235 XXYY=           -455.8346 XXZZ=           -370.7177 YYZZ=           -168.2297
 XXYZ=            -55.9291 YYXZ=             -3.4752 ZZXY=             -8.3343
 N-N= 7.398637128891D+02 E-N=-8.633011865468D+03  KE= 3.005862249505D+03
 No NMR shielding tensors so no spin-rotation constants.
 Leave Link  601 at Wed May  1 15:04:37 2024, MaxMem=  1207959552 cpu:               7.5 elap:               7.5
 (Enter /software/gaussian/g16-c01/sse4/g16/l9999.exe)
 Unable to Open any file for archive entry.
 1\1\GINC-BHX0023\SP\RwB97XD\6-311+G(d)\C6H5Br1N1O2(1+)\BWEIGHT\01-May-
 2024\0\\#P wB97XD/6-311+G* NoSymm #P Field=Y-58\\TitleMe\\1,1\C,0,0.02
 95,1.3397,0.0682\C,0,1.4348,1.2867,0.0064\C,0,2.1118,0.0511,-0.0054\C,
 0,1.4451,-1.1372,0.0312\C,0,-0.6879,0.1682,0.11\H,0,-0.4713,2.2984,0.0
 781\H,0,2.0273,2.1965,-0.0322\H,0,1.9897,-2.0764,0.0232\H,0,-1.7716,0.
 1804,0.1582\N,0,3.5864,0.051,-0.0675\O,0,4.1471,-1.0597,-0.0881\O,0,4.
 145,1.1639,-0.0901\C,0,-0.0236,-1.1458,0.0835\H,0,-0.4367,-1.8725,0.78
 89\Br,0,-0.5359,-1.8697,-1.7408\\Version=ES64L-G16RevC.01\HF=-3010.535
 9057\RMSD=9.214e-09\Dipole=-2.1541008,1.5727667,1.2234761\Quadrupole=-
 6.4342066,7.0585811,-0.6243745,2.3512797,0.6873019,0.6686479\PG=C01 [X
 (C6H5Br1N1O2)]\\@
 The archive entry for this job was punched.


 BE LIKE A POSTAGE STAMP.  STICK TO ONE THING UNTIL
 YOU GET THERE -- JOSH BILLINGS
 Job cpu time:       0 days  0 hours 17 minutes 43.1 seconds.
 Elapsed time:       0 days  0 hours 17 minutes 43.2 seconds.
 File lengths (MBytes):  RWF=     40 Int=      0 D2E=      0 Chk=     32 Scr=      1
 Normal termination of Gaussian 16 at Wed May  1 15:04:37 2024.
