 Entering Gaussian System, Link 0=g16
 Initial command:
 /software/gaussian/g16-c01/sse4/g16/l1.exe "/local_scratch/24665407/Gau-9075.inp" -scrdir="/local_scratch/24665407/"
 Entering Link 1 = /software/gaussian/g16-c01/sse4/g16/l1.exe PID=      9080.
  
 Copyright (c) 1988-2019, Gaussian, Inc.  All Rights Reserved.
  
 This is part of the Gaussian(R) 16 program.  It is based on
 the Gaussian(R) 09 system (copyright 2009, Gaussian, Inc.),
 the Gaussian(R) 03 system (copyright 2003, Gaussian, Inc.),
 the Gaussian(R) 98 system (copyright 1998, Gaussian, Inc.),
 the Gaussian(R) 94 system (copyright 1995, Gaussian, Inc.),
 the Gaussian 92(TM) system (copyright 1992, Gaussian, Inc.),
 the Gaussian 90(TM) system (copyright 1990, Gaussian, Inc.),
 the Gaussian 88(TM) system (copyright 1988, Gaussian, Inc.),
 the Gaussian 86(TM) system (copyright 1986, Carnegie Mellon
 University), and the Gaussian 82(TM) system (copyright 1983,
 Carnegie Mellon University). Gaussian is a federally registered
 trademark of Gaussian, Inc.
  
 This software contains proprietary and confidential information,
 including trade secrets, belonging to Gaussian, Inc.
  
 This software is provided under written license and may be
 used, copied, transmitted, or stored only in accord with that
 written license.
  
 The following legend is applicable only to US Government
 contracts under FAR:
  
                    RESTRICTED RIGHTS LEGEND
  
 Use, reproduction and disclosure by the US Government is
 subject to restrictions as set forth in subparagraphs (a)
 and (c) of the Commercial Computer Software - Restricted
 Rights clause in FAR 52.227-19.
  
 Gaussian, Inc.
 340 Quinnipiac St., Bldg. 40, Wallingford CT 06492
  
  
 ---------------------------------------------------------------
 Warning -- This program may not be used in any manner that
 competes with the business of Gaussian, Inc. or will provide
 assistance to any competitor of Gaussian, Inc.  The licensee
 of this program is prohibited from giving any competitor of
 Gaussian, Inc. access to this program.  By using this program,
 the user acknowledges that Gaussian, Inc. is engaged in the
 business of creating and licensing software in the field of
 computational chemistry and represents and warrants to the
 licensee that it is not a competitor of Gaussian, Inc. and that
 it will not use this program in any manner prohibited above.
 ---------------------------------------------------------------
  

 Cite this work as:
 Gaussian 16, Revision C.01,
 M. J. Frisch, G. W. Trucks, H. B. Schlegel, G. E. Scuseria, 
 M. A. Robb, J. R. Cheeseman, G. Scalmani, V. Barone, 
 G. A. Petersson, H. Nakatsuji, X. Li, M. Caricato, A. V. Marenich, 
 J. Bloino, B. G. Janesko, R. Gomperts, B. Mennucci, H. P. Hratchian, 
 J. V. Ortiz, A. F. Izmaylov, J. L. Sonnenberg, D. Williams-Young, 
 F. Ding, F. Lipparini, F. Egidi, J. Goings, B. Peng, A. Petrone, 
 T. Henderson, D. Ranasinghe, V. G. Zakrzewski, J. Gao, N. Rega, 
 G. Zheng, W. Liang, M. Hada, M. Ehara, K. Toyota, R. Fukuda, 
 J. Hasegawa, M. Ishida, T. Nakajima, Y. Honda, O. Kitao, H. Nakai, 
 T. Vreven, K. Throssell, J. A. Montgomery, Jr., J. E. Peralta, 
 F. Ogliaro, M. J. Bearpark, J. J. Heyd, E. N. Brothers, K. N. Kudin, 
 V. N. Staroverov, T. A. Keith, R. Kobayashi, J. Normand, 
 K. Raghavachari, A. P. Rendell, J. C. Burant, S. S. Iyengar, 
 J. Tomasi, M. Cossi, J. M. Millam, M. Klene, C. Adamo, R. Cammi, 
 J. W. Ochterski, R. L. Martin, K. Morokuma, O. Farkas, 
 J. B. Foresman, and D. J. Fox, Gaussian, Inc., Wallingford CT, 2019.
 
 ******************************************
 Gaussian 16:  ES64L-G16RevC.01  3-Jul-2019
                 2-May-2024 
 ******************************************
 %chk=geometry.chk
 %mem=1GB
 %nprocshared=12
 Will use up to   12 processors via shared memory.
 ----------------------------------------
 #P wB97XD/6-311+G* NoSymm #P Field=Z+233
 ----------------------------------------
 1/38=1,172=1/1;
 2/12=2,15=1,17=6,18=5,40=1/2;
 3/5=4,6=6,7=11,11=2,14=3,15=233,25=1,30=1,74=-58/1,2,3;
 4//1;
 5/5=2,38=5/2;
 6/7=2,8=2,9=2,10=2,28=1/1;
 99/5=1,9=1/99;
 Leave Link    1 at Thu May  2 13:58:20 2024, MaxMem=   134217728 cpu:               1.6 elap:               1.7
 (Enter /software/gaussian/g16-c01/sse4/g16/l101.exe)
 -------
 TitleMe
 -------
 Symbolic Z-matrix:
 Charge =  1 Multiplicity = 1
 C                     0.5193    1.233    -0.0319 
 C                     1.9445    1.2692   -0.0367 
 C                     2.6204    0.0928   -0.025 
 C                    -0.196     0.0301    0.001 
 H                    -0.0207    2.1742   -0.0434 
 H                     2.4828    2.2089   -0.0361 
 H                    -1.2777    0.0399    0.0117 
 N                     4.0921    0.0959    0.0366 
 O                     4.6393   -1.0217    0.1446 
 O                     4.6649    1.1984   -0.0233 
 C                     0.4943   -1.1671    0.021 
 H                    -0.0325   -2.1149    0.0545 
 C                     1.9629   -1.2165   -0.0211 
 H                     2.4436   -1.9631    0.6151 
 Br                    2.173    -1.9491   -1.9062 
 
 ITRead=  0  0  0  0  0  0  0  0  0  0  0  0  0  0  0
 MicOpt= -1 -1 -1 -1 -1 -1 -1 -1 -1 -1 -1 -1 -1 -1 -1
 NAtoms=     15 NQM=       15 NQMF=       0 NMMI=      0 NMMIF=      0
                NMic=       0 NMicF=      0.
                    Isotopes and Nuclear Properties:
 (Nuclear quadrupole moments (NQMom) in fm**2, nuclear magnetic moments (NMagM)
  in nuclear magnetons)

  Atom         1           2           3           4           5           6           7           8           9          10
 IAtWgt=          12          12          12          12           1           1           1          14          16          16
 AtmWgt=  12.0000000  12.0000000  12.0000000  12.0000000   1.0078250   1.0078250   1.0078250  14.0030740  15.9949146  15.9949146
 NucSpn=           0           0           0           0           1           1           1           2           0           0
 AtZEff=  -0.0000000  -0.0000000  -0.0000000  -0.0000000  -0.0000000  -0.0000000  -0.0000000  -0.0000000  -0.0000000  -0.0000000
 NQMom=    0.0000000   0.0000000   0.0000000   0.0000000   0.0000000   0.0000000   0.0000000   2.0440000   0.0000000   0.0000000
 NMagM=    0.0000000   0.0000000   0.0000000   0.0000000   2.7928460   2.7928460   2.7928460   0.4037610   0.0000000   0.0000000
 AtZNuc=   6.0000000   6.0000000   6.0000000   6.0000000   1.0000000   1.0000000   1.0000000   7.0000000   8.0000000   8.0000000

  Atom        11          12          13          14          15
 IAtWgt=          12           1          12           1          79
 AtmWgt=  12.0000000   1.0078250  12.0000000   1.0078250  78.9183361
 NucSpn=           0           1           0           1           3
 AtZEff=  -0.0000000  -0.0000000  -0.0000000  -0.0000000  -0.0000000
 NQMom=    0.0000000   0.0000000   0.0000000   0.0000000  31.3000000
 NMagM=    0.0000000   2.7928460   0.0000000   2.7928460   2.1063990
 AtZNuc=   6.0000000   1.0000000   6.0000000   1.0000000  35.0000000
 Leave Link  101 at Thu May  2 13:58:22 2024, MaxMem=   134217728 cpu:               1.3 elap:               1.4
 (Enter /software/gaussian/g16-c01/sse4/g16/l202.exe)
                          Input orientation:                          
 ---------------------------------------------------------------------
 Center     Atomic      Atomic             Coordinates (Angstroms)
 Number     Number       Type             X           Y           Z
 ---------------------------------------------------------------------
      1          6           0        0.519300    1.233000   -0.031900
      2          6           0        1.944500    1.269200   -0.036700
      3          6           0        2.620400    0.092800   -0.025000
      4          6           0       -0.196000    0.030100    0.001000
      5          1           0       -0.020700    2.174200   -0.043400
      6          1           0        2.482800    2.208900   -0.036100
      7          1           0       -1.277700    0.039900    0.011700
      8          7           0        4.092100    0.095900    0.036600
      9          8           0        4.639300   -1.021700    0.144600
     10          8           0        4.664900    1.198400   -0.023300
     11          6           0        0.494300   -1.167100    0.021000
     12          1           0       -0.032500   -2.114900    0.054500
     13          6           0        1.962900   -1.216500   -0.021100
     14          1           0        2.443600   -1.963100    0.615100
     15         35           0        2.173000   -1.949100   -1.906200
 ---------------------------------------------------------------------
                    Distance matrix (angstroms):
                    1          2          3          4          5
     1  C    0.000000
     2  C    1.425668   0.000000
     3  C    2.390549   1.356796   0.000000
     4  C    1.399895   2.473566   2.817218   0.000000
     5  H    1.085168   2.163581   3.362733   2.151712   0.000000
     6  H    2.192654   1.082960   2.120598   3.453189   2.503751
     7  H    2.157452   3.449071   3.898632   1.081797   2.477564
     8  N    3.750012   2.448304   1.472992   4.288753   4.608780
     9  O    4.699917   3.541615   2.312322   4.950458   5.653735
    10  O    4.145753   2.721354   2.324292   4.999386   4.786171
    11  C    2.400813   2.835836   2.471794   1.382101   3.381369
    12  H    3.394169   3.920329   3.452266   2.151887   4.290233
    13  C    2.843264   2.485817   1.465124   2.493060   3.928360
    14  H    3.786370   3.334922   2.160489   3.364142   4.860416
    15  Br   4.046416   3.728900   2.812194   3.628609   5.028314
                    6          7          8          9         10
     6  H    0.000000
     7  H    4.341452   0.000000
     8  N    2.657047   5.370150   0.000000
     9  O    3.888434   6.012948   1.249048   0.000000
    10  O    2.404752   6.054572   1.243863   2.226587   0.000000
    11  C    3.918516   2.144043   3.813080   4.149391   4.794941
    12  H    5.003018   2.489080   4.679774   4.798846   5.748876
    13  C    3.464662   3.475788   2.501842   2.688591   3.623886
    14  H    4.222698   4.268978   2.700314   2.434893   3.916224
    15  Br   4.569706   4.420610   3.411663   3.338935   4.434144
                   11         12         13         14         15
    11  C    0.000000
    12  H    1.084880   0.000000
    13  C    1.470034   2.189625   0.000000
    14  H    2.187771   2.543302   1.092353   0.000000
    15  Br   2.672762   2.955683   2.033334   2.535818   0.000000
 Symmetry turned off by external request.
 Stoichiometry    C6H5BrNO2(1+)
 Framework group  C1[X(C6H5BrNO2)]
 Deg. of freedom    39
 Full point group                 C1      NOp   1
 Rotational constants (GHZ):           1.1632986           0.9594224           0.5957624
 Leave Link  202 at Thu May  2 13:58:23 2024, MaxMem=   134217728 cpu:               1.2 elap:               1.2
 (Enter /software/gaussian/g16-c01/sse4/g16/l301.exe)
 Standard basis: 6-311+G(d) (5D, 7F)
 Ernie: Thresh=  0.10000D-02 Tol=  0.10000D-05 Strict=F.
 The following finite field(s) will be applied:
 An electric field of              0.0000  0.0000  0.0233
   261 basis functions,   443 primitive gaussians,   273 cartesian basis functions
    49 alpha electrons       49 beta electrons
       nuclear repulsion energy       772.8945969580 Hartrees.
 IExCor= 4639 DFT=T Ex+Corr=wB97XD ExCW=0 ScaHFX=  1.000000
 ScaDFX=  1.000000  1.000000  1.000000  1.000000 ScalE2=  1.000000  1.000000
 IRadAn=      5 IRanWt=     -1 IRanGd=            0 ICorTp=0 IEmpDi=121
 HFx  wShort=  0.000000 wLong=  0.200000 cFull=  0.222036 cShort=  0.000000 cLong=  0.777964
 DFx  wShort=  0.000000 wLong=  0.200000 cFull=  0.000000 cShort=  0.000000 cLong=  1.000000
 NAtoms=   15 NActive=   15 NUniq=   15 SFac= 1.00D+00 NAtFMM=   60 NAOKFM=F Big=F
 Integral buffers will be    131072 words long.
 Raffenetti 2 integral format.
 Two-electron integral symmetry is turned off.
 R6Disp:  Grimme-D2 Dispersion energy=       -0.0080346408 Hartrees.
 Nuclear repulsion after empirical dispersion term =      772.8865623173 Hartrees.
 Leave Link  301 at Thu May  2 13:58:24 2024, MaxMem=   134217728 cpu:               1.0 elap:               1.0
 (Enter /software/gaussian/g16-c01/sse4/g16/l302.exe)
 NPDir=0 NMtPBC=     1 NCelOv=     1 NCel=       1 NClECP=     1 NCelD=      1
         NCelK=      1 NCelE2=     1 NClLst=     1 CellRange=     0.0.
 One-electron integrals computed using PRISM.
 NBasis=   261 RedAO= T EigKep=  2.52D-06  NBF=   261
 NBsUse=   261 1.00D-06 EigRej= -1.00D+00 NBFU=   261
 Precomputing XC quadrature grid using
 IXCGrd= 4 IRadAn=           5 IRanWt=          -1 IRanGd=           0 AccXCQ= 0.00D+00.
 Generated NRdTot=       0 NPtTot=           0 NUsed=           0 NTot=          32
 NSgBfM=   273   273   273   273   273 MxSgAt=    15 MxSgA2=    15.
 Leave Link  302 at Thu May  2 13:58:44 2024, MaxMem=   134217728 cpu:              20.1 elap:              20.2
 (Enter /software/gaussian/g16-c01/sse4/g16/l303.exe)
 DipDrv:  MaxL=1.
 The nuclear repulsion energy is now       770.0049872824 hartrees.
 Leave Link  303 at Thu May  2 13:58:47 2024, MaxMem=   134217728 cpu:               3.3 elap:               3.3
 (Enter /software/gaussian/g16-c01/sse4/g16/l401.exe)
 ExpMin= 3.50D-02 ExpMax= 4.40D+05 ExpMxC= 1.51D+04 IAcc=3 IRadAn=         5 AccDes= 0.00D+00
 Harris functional with IExCor= 4639 and IRadAn=       5 diagonalized for initial guess.
 HarFok:  IExCor= 4639 AccDes= 0.00D+00 IRadAn=         5 IDoV= 1 UseB2=F ITyADJ=14
 ICtDFT=  3500011 ScaDFX=  1.000000  1.000000  1.000000  1.000000
 FoFCou: FMM=F IPFlag=           0 FMFlag=      100000 FMFlg1=           0
         NFxFlg=           0 DoJE=T BraDBF=F KetDBF=T FulRan=T
         wScrn=  0.000000 ICntrl=       500 IOpCl=  0 I1Cent=   200000004 NGrid=           0
         NMat0=    1 NMatS0=      1 NMatT0=    0 NMatD0=    1 NMtDS0=    0 NMtDT0=    0
 Symmetry not used in FoFCou.
 Harris En= -2970.64962721976    
 JPrj=0 DoOrth=F DoCkMO=F.
 Leave Link  401 at Thu May  2 13:59:17 2024, MaxMem=   134217728 cpu:              29.5 elap:              29.6
 (Enter /software/gaussian/g16-c01/sse4/g16/l502.exe)
 Two-electron integral symmetry not used.
 Closed shell SCF:
 Using DIIS extrapolation, IDIIS=  1040.
 NGot=   134217728 LenX=   134063053 LenY=   133988083
 Requested convergence on RMS density matrix=1.00D-08 within 128 cycles.
 Requested convergence on MAX density matrix=1.00D-06.
 Requested convergence on             energy=1.00D-06.
 No special actions if energy rises.
 Fock matrices will be formed incrementally for  20 cycles.

 Cycle   1  Pass 1  IDiag  1:
 FoFJK:  IHMeth= 1 ICntrl=       0 DoSepK=T KAlg= 0 I1Cent=           0 FoldK=F
 IRaf=         1 NMat=       1 IRICut=       1 DoRegI=T DoRafI=F ISym2E= 0 IDoP0=0 IntGTp=1.
 FoFCou: FMM=F IPFlag=           0 FMFlag=      100000 FMFlg1=           0
         NFxFlg=           0 DoJE=T BraDBF=F KetDBF=F FulRan=T
         wScrn=  0.000000 ICntrl=       500 IOpCl=  0 I1Cent=           0 NGrid=           0
         NMat0=    1 NMatS0=      1 NMatT0=    0 NMatD0=    1 NMtDS0=    0 NMtDT0=    0
 Symmetry not used in FoFCou.
 E= -3009.61278824840    
 DIIS: error= 2.92D-01 at cycle   1 NSaved=   1.
 NSaved= 1 IEnMin= 1 EnMin= -3009.61278824840     IErMin= 1 ErrMin= 2.92D-01
 ErrMax= 2.92D-01  0.00D+00 EMaxC= 1.00D-01 BMatC= 1.22D+01 BMatP= 1.22D+01
 IDIUse=3 WtCom= 0.00D+00 WtEn= 1.00D+00
 Coeff-Com:  0.100D+01
 Coeff-En:   0.100D+01
 Coeff:      0.100D+01
 Gap=     0.326 Goal=   None    Shift=    0.000
 GapD=    0.326 DampG=1.000 DampE=0.250 DampFc=0.2500 IDamp=-1.
 Damping current iteration by 2.50D-01
 RMSDP=2.65D-01 MaxDP=3.06D+01              OVMax= 3.04D-01

 Cycle   2  Pass 1  IDiag  1:
 RMSU=  1.06D-02    CP:  8.13D-01
 E= -3009.94807123237     Delta-E=       -0.335282983966 Rises=F Damp=T
 DIIS: error= 2.19D-01 at cycle   2 NSaved=   2.
 NSaved= 2 IEnMin= 2 EnMin= -3009.94807123237     IErMin= 2 ErrMin= 2.19D-01
 ErrMax= 2.19D-01  0.00D+00 EMaxC= 1.00D-01 BMatC= 5.47D+00 BMatP= 1.22D+01
 IDIUse=3 WtCom= 0.00D+00 WtEn= 1.00D+00
 Coeff-Com: -0.176D+01 0.276D+01
 Coeff-En:   0.000D+00 0.100D+01
 Coeff:      0.000D+00 0.100D+01
 Gap=     0.257 Goal=   None    Shift=    0.000
 RMSDP=1.89D-01 MaxDP=2.22D+01 DE=-3.35D-01 OVMax= 1.20D-01

 Cycle   3  Pass 1  IDiag  1:
 RMSU=  7.34D-03    CP:  2.79D-01  3.00D+00
 E= -3010.36142314825     Delta-E=       -0.413351915880 Rises=F Damp=F
 DIIS: error= 6.76D-02 at cycle   3 NSaved=   3.
 NSaved= 3 IEnMin= 3 EnMin= -3010.36142314825     IErMin= 3 ErrMin= 6.76D-02
 ErrMax= 6.76D-02  0.00D+00 EMaxC= 1.00D-01 BMatC= 8.14D-01 BMatP= 5.47D+00
 IDIUse=3 WtCom= 3.24D-01 WtEn= 6.76D-01
 Coeff-Com:  0.242D+01-0.317D+01 0.174D+01
 Coeff-En:   0.829D-01 0.000D+00 0.917D+00
 Coeff:      0.839D+00-0.102D+01 0.118D+01
 Gap=     0.287 Goal=   None    Shift=    0.000
 RMSDP=3.24D-02 MaxDP=3.93D+00 DE=-4.13D-01 OVMax= 1.43D-01

 Cycle   4  Pass 1  IDiag  1:
 RMSU=  9.69D-03    CP:  3.66D-01  3.00D+00  1.51D+00
 E= -3010.50648541080     Delta-E=       -0.145062262549 Rises=F Damp=F
 DIIS: error= 3.53D-02 at cycle   4 NSaved=   4.
 NSaved= 4 IEnMin= 4 EnMin= -3010.50648541080     IErMin= 4 ErrMin= 3.53D-02
 ErrMax= 3.53D-02  0.00D+00 EMaxC= 1.00D-01 BMatC= 2.07D-01 BMatP= 8.14D-01
 IDIUse=3 WtCom= 6.47D-01 WtEn= 3.53D-01
 Coeff-Com: -0.209D+00 0.293D+00 0.229D+00 0.688D+00
 Coeff-En:   0.000D+00 0.000D+00 0.169D+00 0.831D+00
 Coeff:     -0.135D+00 0.189D+00 0.208D+00 0.738D+00
 Gap=     0.241 Goal=   None    Shift=    0.000
 RMSDP=2.15D-02 MaxDP=2.91D+00 DE=-1.45D-01 OVMax= 5.54D-02

 Cycle   5  Pass 1  IDiag  1:
 RMSU=  3.63D-03    CP:  3.07D-01  3.00D+00  1.32D+00  6.25D-01
 E= -3010.55378409090     Delta-E=       -0.047298680101 Rises=F Damp=F
 DIIS: error= 6.69D-03 at cycle   5 NSaved=   5.
 NSaved= 5 IEnMin= 5 EnMin= -3010.55378409090     IErMin= 5 ErrMin= 6.69D-03
 ErrMax= 6.69D-03  0.00D+00 EMaxC= 1.00D-01 BMatC= 1.04D-02 BMatP= 2.07D-01
 IDIUse=3 WtCom= 9.33D-01 WtEn= 6.69D-02
 Coeff-Com: -0.206D+00 0.280D+00 0.451D-01 0.428D+00 0.453D+00
 Coeff-En:   0.000D+00 0.000D+00 0.000D+00 0.000D+00 0.100D+01
 Coeff:     -0.193D+00 0.262D+00 0.420D-01 0.399D+00 0.490D+00
 Gap=     0.225 Goal=   None    Shift=    0.000
 RMSDP=4.38D-03 MaxDP=5.82D-01 DE=-4.73D-02 OVMax= 2.61D-02

 Cycle   6  Pass 1  IDiag  1:
 RMSU=  8.86D-04    CP:  3.18D-01  3.00D+00  1.41D+00  7.12D-01  7.89D-01
 E= -3010.55746815116     Delta-E=       -0.003684060266 Rises=F Damp=F
 DIIS: error= 2.67D-03 at cycle   6 NSaved=   6.
 NSaved= 6 IEnMin= 6 EnMin= -3010.55746815116     IErMin= 6 ErrMin= 2.67D-03
 ErrMax= 2.67D-03  0.00D+00 EMaxC= 1.00D-01 BMatC= 6.06D-04 BMatP= 1.04D-02
 IDIUse=3 WtCom= 9.73D-01 WtEn= 2.67D-02
 Coeff-Com: -0.134D+00 0.180D+00-0.105D-01 0.204D+00 0.320D+00 0.440D+00
 Coeff-En:   0.000D+00 0.000D+00 0.000D+00 0.000D+00 0.160D-01 0.984D+00
 Coeff:     -0.130D+00 0.175D+00-0.103D-01 0.198D+00 0.312D+00 0.455D+00
 Gap=     0.226 Goal=   None    Shift=    0.000
 RMSDP=1.27D-03 MaxDP=1.57D-01 DE=-3.68D-03 OVMax= 9.09D-03

 Cycle   7  Pass 1  IDiag  1:
 RMSU=  3.42D-04    CP:  3.15D-01  3.00D+00  1.41D+00  6.94D-01  9.25D-01
                    CP:  1.00D+00
 E= -3010.55797038745     Delta-E=       -0.000502236290 Rises=F Damp=F
 DIIS: error= 4.13D-04 at cycle   7 NSaved=   7.
 NSaved= 7 IEnMin= 7 EnMin= -3010.55797038745     IErMin= 7 ErrMin= 4.13D-04
 ErrMax= 4.13D-04  0.00D+00 EMaxC= 1.00D-01 BMatC= 3.31D-05 BMatP= 6.06D-04
 IDIUse=3 WtCom= 9.96D-01 WtEn= 4.13D-03
 Coeff-Com: -0.389D-01 0.518D-01-0.170D-01 0.291D-01 0.491D-01 0.161D+00
 Coeff-Com:  0.765D+00
 Coeff-En:   0.000D+00 0.000D+00 0.000D+00 0.000D+00 0.000D+00 0.000D+00
 Coeff-En:   0.100D+01
 Coeff:     -0.388D-01 0.516D-01-0.169D-01 0.290D-01 0.489D-01 0.160D+00
 Coeff:      0.766D+00
 Gap=     0.227 Goal=   None    Shift=    0.000
 RMSDP=5.99D-04 MaxDP=7.81D-02 DE=-5.02D-04 OVMax= 6.38D-03

 Cycle   8  Pass 1  IDiag  1:
 RMSU=  1.36D-04    CP:  3.14D-01  3.00D+00  1.41D+00  6.92D-01  9.88D-01
                    CP:  1.09D+00  1.24D+00
 E= -3010.55806542004     Delta-E=       -0.000095032587 Rises=F Damp=F
 DIIS: error= 2.41D-04 at cycle   8 NSaved=   8.
 NSaved= 8 IEnMin= 8 EnMin= -3010.55806542004     IErMin= 8 ErrMin= 2.41D-04
 ErrMax= 2.41D-04  0.00D+00 EMaxC= 1.00D-01 BMatC= 9.92D-06 BMatP= 3.31D-05
 IDIUse=3 WtCom= 9.98D-01 WtEn= 2.41D-03
 Coeff-Com:  0.801D-02-0.112D-01-0.666D-02-0.282D-01-0.549D-01-0.633D-01
 Coeff-Com:  0.284D+00 0.872D+00
 Coeff-En:   0.000D+00 0.000D+00 0.000D+00 0.000D+00 0.000D+00 0.000D+00
 Coeff-En:   0.000D+00 0.100D+01
 Coeff:      0.800D-02-0.111D-01-0.664D-02-0.282D-01-0.547D-01-0.631D-01
 Coeff:      0.284D+00 0.872D+00
 Gap=     0.227 Goal=   None    Shift=    0.000
 RMSDP=2.63D-04 MaxDP=2.67D-02 DE=-9.50D-05 OVMax= 5.20D-03

 Cycle   9  Pass 1  IDiag  1:
 RMSU=  5.89D-05    CP:  3.14D-01  3.00D+00  1.41D+00  6.91D-01  1.03D+00
                    CP:  1.21D+00  1.68D+00  1.53D+00
 E= -3010.55811695679     Delta-E=       -0.000051536749 Rises=F Damp=F
 DIIS: error= 7.11D-05 at cycle   9 NSaved=   9.
 NSaved= 9 IEnMin= 9 EnMin= -3010.55811695679     IErMin= 9 ErrMin= 7.11D-05
 ErrMax= 7.11D-05  0.00D+00 EMaxC= 1.00D-01 BMatC= 1.88D-06 BMatP= 9.92D-06
 IDIUse=1 WtCom= 1.00D+00 WtEn= 0.00D+00
 Coeff-Com:  0.750D-02-0.995D-02 0.296D-02-0.868D-02-0.187D-01-0.559D-01
 Coeff-Com: -0.220D+00 0.790D-01 0.122D+01
 Coeff:      0.750D-02-0.995D-02 0.296D-02-0.868D-02-0.187D-01-0.559D-01
 Coeff:     -0.220D+00 0.790D-01 0.122D+01
 Gap=     0.227 Goal=   None    Shift=    0.000
 RMSDP=2.48D-04 MaxDP=2.16D-02 DE=-5.15D-05 OVMax= 5.37D-03

 Cycle  10  Pass 1  IDiag  1:
 RMSU=  9.71D-05    CP:  3.14D-01  3.00D+00  1.41D+00  6.88D-01  1.07D+00
                    CP:  1.22D+00  1.88D+00  2.25D+00  2.20D+00
 E= -3010.55814015849     Delta-E=       -0.000023201702 Rises=F Damp=F
 DIIS: error= 3.07D-05 at cycle  10 NSaved=  10.
 NSaved=10 IEnMin=10 EnMin= -3010.55814015849     IErMin=10 ErrMin= 3.07D-05
 ErrMax= 3.07D-05  0.00D+00 EMaxC= 1.00D-01 BMatC= 4.29D-07 BMatP= 1.88D-06
 IDIUse=1 WtCom= 1.00D+00 WtEn= 0.00D+00
 Coeff-Com: -0.286D-02 0.393D-02 0.893D-03 0.555D-02 0.985D-02 0.114D-01
 Coeff-Com: -0.646D-01-0.143D+00 0.141D+00 0.104D+01
 Coeff:     -0.286D-02 0.393D-02 0.893D-03 0.555D-02 0.985D-02 0.114D-01
 Coeff:     -0.646D-01-0.143D+00 0.141D+00 0.104D+01
 Gap=     0.227 Goal=   None    Shift=    0.000
 RMSDP=1.07D-04 MaxDP=7.64D-03 DE=-2.32D-05 OVMax= 2.16D-03

 Cycle  11  Pass 1  IDiag  1:
 RMSU=  1.76D-05    CP:  3.14D-01  3.00D+00  1.40D+00  6.87D-01  1.07D+00
                    CP:  1.20D+00  1.89D+00  2.51D+00  2.91D+00  1.52D+00
 E= -3010.55814401637     Delta-E=       -0.000003857878 Rises=F Damp=F
 DIIS: error= 1.94D-05 at cycle  11 NSaved=  11.
 NSaved=11 IEnMin=11 EnMin= -3010.55814401637     IErMin=11 ErrMin= 1.94D-05
 ErrMax= 1.94D-05  0.00D+00 EMaxC= 1.00D-01 BMatC= 1.45D-07 BMatP= 4.29D-07
 IDIUse=1 WtCom= 1.00D+00 WtEn= 0.00D+00
 Coeff-Com: -0.145D-02 0.193D-02-0.206D-03 0.302D-02 0.620D-02 0.149D-01
 Coeff-Com:  0.587D-01-0.585D-01-0.387D+00 0.284D+00 0.108D+01
 Coeff:     -0.145D-02 0.193D-02-0.206D-03 0.302D-02 0.620D-02 0.149D-01
 Coeff:      0.587D-01-0.585D-01-0.387D+00 0.284D+00 0.108D+01
 Gap=     0.227 Goal=   None    Shift=    0.000
 RMSDP=8.48D-05 MaxDP=5.33D-03 DE=-3.86D-06 OVMax= 1.64D-03

 Cycle  12  Pass 1  IDiag  1:
 RMSU=  2.65D-05    CP:  3.14D-01  3.00D+00  1.40D+00  6.87D-01  1.08D+00
                    CP:  1.18D+00  1.91D+00  2.70D+00  3.00D+00  2.04D+00
                    CP:  1.35D+00
 E= -3010.55814523849     Delta-E=       -0.000001222117 Rises=F Damp=F
 DIIS: error= 5.47D-06 at cycle  12 NSaved=  12.
 NSaved=12 IEnMin=12 EnMin= -3010.55814523849     IErMin=12 ErrMin= 5.47D-06
 ErrMax= 5.47D-06  0.00D+00 EMaxC= 1.00D-01 BMatC= 1.86D-08 BMatP= 1.45D-07
 IDIUse=1 WtCom= 1.00D+00 WtEn= 0.00D+00
 Coeff-Com: -0.291D-03 0.374D-03-0.184D-03 0.531D-03 0.732D-03 0.278D-02
 Coeff-Com:  0.275D-01-0.108D-01-0.141D+00-0.239D-02 0.331D+00 0.792D+00
 Coeff:     -0.291D-03 0.374D-03-0.184D-03 0.531D-03 0.732D-03 0.278D-02
 Coeff:      0.275D-01-0.108D-01-0.141D+00-0.239D-02 0.331D+00 0.792D+00
 Gap=     0.227 Goal=   None    Shift=    0.000
 RMSDP=2.69D-05 MaxDP=2.23D-03 DE=-1.22D-06 OVMax= 3.78D-04

 Cycle  13  Pass 1  IDiag  1:
 RMSU=  3.53D-06    CP:  3.14D-01  3.00D+00  1.40D+00  6.87D-01  1.09D+00
                    CP:  1.18D+00  1.92D+00  2.72D+00  3.00D+00  2.16D+00
                    CP:  1.42D+00  1.28D+00
 E= -3010.55814531581     Delta-E=       -0.000000077324 Rises=F Damp=F
 DIIS: error= 3.82D-06 at cycle  13 NSaved=  13.
 NSaved=13 IEnMin=13 EnMin= -3010.55814531581     IErMin=13 ErrMin= 3.82D-06
 ErrMax= 3.82D-06  0.00D+00 EMaxC= 1.00D-01 BMatC= 4.13D-09 BMatP= 1.86D-08
 IDIUse=1 WtCom= 1.00D+00 WtEn= 0.00D+00
 Coeff-Com:  0.104D-03-0.139D-03-0.594D-04-0.495D-03-0.139D-02-0.311D-02
 Coeff-Com: -0.563D-02 0.832D-02 0.582D-01-0.687D-01-0.177D+00 0.284D+00
 Coeff-Com:  0.906D+00
 Coeff:      0.104D-03-0.139D-03-0.594D-04-0.495D-03-0.139D-02-0.311D-02
 Coeff:     -0.563D-02 0.832D-02 0.582D-01-0.687D-01-0.177D+00 0.284D+00
 Coeff:      0.906D+00
 Gap=     0.227 Goal=   None    Shift=    0.000
 RMSDP=1.22D-05 MaxDP=1.11D-03 DE=-7.73D-08 OVMax= 1.68D-04

 Cycle  14  Pass 1  IDiag  1:
 RMSU=  2.46D-06    CP:  3.14D-01  3.00D+00  1.40D+00  6.87D-01  1.09D+00
                    CP:  1.18D+00  1.92D+00  2.73D+00  3.00D+00  2.21D+00
                    CP:  1.45D+00  1.39D+00  1.66D+00
 E= -3010.55814533154     Delta-E=       -0.000000015732 Rises=F Damp=F
 DIIS: error= 1.25D-06 at cycle  14 NSaved=  14.
 NSaved=14 IEnMin=14 EnMin= -3010.55814533154     IErMin=14 ErrMin= 1.25D-06
 ErrMax= 1.25D-06  0.00D+00 EMaxC= 1.00D-01 BMatC= 5.43D-10 BMatP= 4.13D-09
 IDIUse=1 WtCom= 1.00D+00 WtEn= 0.00D+00
 Coeff-Com:  0.740D-04-0.977D-04 0.118D-04-0.186D-03-0.332D-03-0.853D-03
 Coeff-Com: -0.379D-02 0.273D-02 0.292D-01-0.148D-01-0.817D-01-0.373D-01
 Coeff-Com:  0.234D+00 0.873D+00
 Coeff:      0.740D-04-0.977D-04 0.118D-04-0.186D-03-0.332D-03-0.853D-03
 Coeff:     -0.379D-02 0.273D-02 0.292D-01-0.148D-01-0.817D-01-0.373D-01
 Coeff:      0.234D+00 0.873D+00
 Gap=     0.227 Goal=   None    Shift=    0.000
 RMSDP=3.51D-06 MaxDP=3.05D-04 DE=-1.57D-08 OVMax= 5.06D-05

 Cycle  15  Pass 1  IDiag  1:
 RMSU=  5.88D-07    CP:  3.14D-01  3.00D+00  1.40D+00  6.87D-01  1.09D+00
                    CP:  1.18D+00  1.92D+00  2.73D+00  3.00D+00  2.22D+00
                    CP:  1.45D+00  1.41D+00  1.96D+00  1.40D+00
 E= -3010.55814533443     Delta-E=       -0.000000002887 Rises=F Damp=F
 DIIS: error= 6.86D-07 at cycle  15 NSaved=  15.
 NSaved=15 IEnMin=15 EnMin= -3010.55814533443     IErMin=15 ErrMin= 6.86D-07
 ErrMax= 6.86D-07  0.00D+00 EMaxC= 1.00D-01 BMatC= 1.34D-10 BMatP= 5.43D-10
 IDIUse=1 WtCom= 1.00D+00 WtEn= 0.00D+00
 Coeff-Com:  0.341D-05-0.403D-05 0.151D-04 0.370D-04 0.163D-03 0.302D-03
 Coeff-Com:  0.399D-04-0.659D-03-0.190D-02 0.870D-02 0.495D-02-0.672D-01
 Coeff-Com: -0.868D-01 0.243D+00 0.899D+00
 Coeff:      0.341D-05-0.403D-05 0.151D-04 0.370D-04 0.163D-03 0.302D-03
 Coeff:      0.399D-04-0.659D-03-0.190D-02 0.870D-02 0.495D-02-0.672D-01
 Coeff:     -0.868D-01 0.243D+00 0.899D+00
 Gap=     0.227 Goal=   None    Shift=    0.000
 RMSDP=1.84D-06 MaxDP=1.62D-04 DE=-2.89D-09 OVMax= 2.82D-05

 Cycle  16  Pass 1  IDiag  1:
 RMSU=  3.10D-07    CP:  3.14D-01  3.00D+00  1.40D+00  6.87D-01  1.09D+00
                    CP:  1.18D+00  1.92D+00  2.73D+00  3.00D+00  2.22D+00
                    CP:  1.45D+00  1.43D+00  2.11D+00  1.55D+00  1.37D+00
 E= -3010.55814533551     Delta-E=       -0.000000001076 Rises=F Damp=F
 DIIS: error= 3.56D-07 at cycle  16 NSaved=  16.
 NSaved=16 IEnMin=16 EnMin= -3010.55814533551     IErMin=16 ErrMin= 3.56D-07
 ErrMax= 3.56D-07  0.00D+00 EMaxC= 1.00D-01 BMatC= 3.87D-11 BMatP= 1.34D-10
 IDIUse=1 WtCom= 1.00D+00 WtEn= 0.00D+00
 Coeff-Com: -0.373D-04 0.497D-04-0.497D-05 0.746D-04 0.128D-03 0.301D-03
 Coeff-Com:  0.121D-02-0.956D-03-0.960D-02 0.772D-02 0.245D-01-0.401D-02
 Coeff-Com: -0.780D-01-0.242D+00 0.152D+00 0.115D+01
 Coeff:     -0.373D-04 0.497D-04-0.497D-05 0.746D-04 0.128D-03 0.301D-03
 Coeff:      0.121D-02-0.956D-03-0.960D-02 0.772D-02 0.245D-01-0.401D-02
 Coeff:     -0.780D-01-0.242D+00 0.152D+00 0.115D+01
 Gap=     0.227 Goal=   None    Shift=    0.000
 RMSDP=1.11D-06 MaxDP=8.54D-05 DE=-1.08D-09 OVMax= 2.56D-05

 Cycle  17  Pass 1  IDiag  1:
 RMSU=  1.74D-07    CP:  3.14D-01  3.00D+00  1.40D+00  6.87D-01  1.09D+00
                    CP:  1.18D+00  1.92D+00  2.73D+00  3.00D+00  2.23D+00
                    CP:  1.44D+00  1.44D+00  2.20D+00  1.61D+00  1.77D+00
                    CP:  1.94D+00
 E= -3010.55814533593     Delta-E=       -0.000000000420 Rises=F Damp=F
 DIIS: error= 1.56D-07 at cycle  17 NSaved=  17.
 NSaved=17 IEnMin=17 EnMin= -3010.55814533593     IErMin=17 ErrMin= 1.56D-07
 ErrMax= 1.56D-07  0.00D+00 EMaxC= 1.00D-01 BMatC= 7.71D-12 BMatP= 3.87D-11
 IDIUse=1 WtCom= 1.00D+00 WtEn= 0.00D+00
 Coeff-Com: -0.100D-04 0.133D-04-0.447D-05 0.361D-05-0.313D-04-0.751D-04
 Coeff-Com:  0.563D-04 0.184D-03-0.363D-03-0.173D-02 0.738D-03 0.151D-01
 Coeff-Com:  0.172D-01-0.666D-01-0.205D+00-0.171D-01 0.126D+01
 Coeff:     -0.100D-04 0.133D-04-0.447D-05 0.361D-05-0.313D-04-0.751D-04
 Coeff:      0.563D-04 0.184D-03-0.363D-03-0.173D-02 0.738D-03 0.151D-01
 Coeff:      0.172D-01-0.666D-01-0.205D+00-0.171D-01 0.126D+01
 Gap=     0.227 Goal=   None    Shift=    0.000
 RMSDP=6.29D-07 MaxDP=7.00D-05 DE=-4.20D-10 OVMax= 1.40D-05

 Cycle  18  Pass 1  IDiag  1:
 RMSU=  7.48D-08    CP:  3.14D-01  3.00D+00  1.40D+00  6.87D-01  1.09D+00
                    CP:  1.18D+00  1.92D+00  2.73D+00  3.00D+00  2.23D+00
                    CP:  1.45D+00  1.45D+00  2.22D+00  1.60D+00  1.90D+00
                    CP:  2.71D+00  1.85D+00
 E= -3010.55814533608     Delta-E=       -0.000000000155 Rises=F Damp=F
 DIIS: error= 8.75D-08 at cycle  18 NSaved=  18.
 NSaved=18 IEnMin=18 EnMin= -3010.55814533608     IErMin=18 ErrMin= 8.75D-08
 ErrMax= 8.75D-08  0.00D+00 EMaxC= 1.00D-01 BMatC= 1.78D-12 BMatP= 7.71D-12
 IDIUse=1 WtCom= 1.00D+00 WtEn= 0.00D+00
 Coeff-Com:  0.139D-05-0.187D-05-0.952D-06-0.973D-05-0.333D-04-0.837D-04
 Coeff-Com: -0.195D-03 0.248D-03 0.145D-02-0.188D-02-0.350D-02 0.583D-02
 Coeff-Com:  0.200D-01 0.219D-01-0.888D-01-0.208D+00 0.418D+00 0.835D+00
 Coeff:      0.139D-05-0.187D-05-0.952D-06-0.973D-05-0.333D-04-0.837D-04
 Coeff:     -0.195D-03 0.248D-03 0.145D-02-0.188D-02-0.350D-02 0.583D-02
 Coeff:      0.200D-01 0.219D-01-0.888D-01-0.208D+00 0.418D+00 0.835D+00
 Gap=     0.227 Goal=   None    Shift=    0.000
 RMSDP=2.06D-07 MaxDP=2.40D-05 DE=-1.55D-10 OVMax= 3.85D-06

 Cycle  19  Pass 1  IDiag  1:
 RMSU=  2.24D-08    CP:  3.14D-01  3.00D+00  1.40D+00  6.87D-01  1.09D+00
                    CP:  1.18D+00  1.92D+00  2.73D+00  3.00D+00  2.23D+00
                    CP:  1.45D+00  1.45D+00  2.22D+00  1.58D+00  1.90D+00
                    CP:  2.90D+00  2.21D+00  1.41D+00
 E= -3010.55814533606     Delta-E=        0.000000000023 Rises=F Damp=F
 DIIS: error= 3.68D-08 at cycle  19 NSaved=  19.
 NSaved=19 IEnMin=18 EnMin= -3010.55814533608     IErMin=19 ErrMin= 3.68D-08
 ErrMax= 3.68D-08  0.00D+00 EMaxC= 1.00D-01 BMatC= 4.38D-13 BMatP= 1.78D-12
 IDIUse=1 WtCom= 1.00D+00 WtEn= 0.00D+00
 Coeff-Com: -0.161D-06 0.248D-06 0.190D-06 0.111D-06 0.354D-05 0.142D-05
 Coeff-Com: -0.608D-04 0.887D-05 0.357D-03-0.115D-03-0.887D-03-0.243D-02
 Coeff-Com: -0.275D-03 0.196D-01 0.264D-01-0.508D-01-0.210D+00 0.253D+00
 Coeff-Com:  0.966D+00
 Coeff:     -0.161D-06 0.248D-06 0.190D-06 0.111D-06 0.354D-05 0.142D-05
 Coeff:     -0.608D-04 0.887D-05 0.357D-03-0.115D-03-0.887D-03-0.243D-02
 Coeff:     -0.275D-03 0.196D-01 0.264D-01-0.508D-01-0.210D+00 0.253D+00
 Coeff:      0.966D+00
 Gap=     0.227 Goal=   None    Shift=    0.000
 RMSDP=1.14D-07 MaxDP=7.39D-06 DE= 2.27D-11 OVMax= 2.48D-06

 Cycle  20  Pass 1  IDiag  1:
 RMSU=  1.62D-08    CP:  3.14D-01  3.00D+00  1.40D+00  6.87D-01  1.09D+00
                    CP:  1.18D+00  1.92D+00  2.73D+00  3.00D+00  2.23D+00
                    CP:  1.45D+00  1.45D+00  2.23D+00  1.58D+00  1.89D+00
                    CP:  3.00D+00  2.39D+00  1.71D+00  1.23D+00
 E= -3010.55814533611     Delta-E=       -0.000000000055 Rises=F Damp=F
 DIIS: error= 1.32D-08 at cycle  20 NSaved=  20.
 NSaved=20 IEnMin=20 EnMin= -3010.55814533611     IErMin=20 ErrMin= 1.32D-08
 ErrMax= 1.32D-08  0.00D+00 EMaxC= 1.00D-01 BMatC= 3.61D-14 BMatP= 4.38D-13
 IDIUse=1 WtCom= 1.00D+00 WtEn= 0.00D+00
 Coeff-Com: -0.137D-06 0.186D-06 0.169D-06 0.139D-05 0.625D-05 0.136D-04
 Coeff-Com:  0.204D-04-0.357D-04-0.167D-03 0.284D-03 0.430D-03-0.133D-02
 Coeff-Com: -0.317D-02 0.162D-02 0.198D-01 0.193D-01-0.110D+00-0.574D-01
 Coeff-Com:  0.212D+00 0.919D+00
 Coeff:     -0.137D-06 0.186D-06 0.169D-06 0.139D-05 0.625D-05 0.136D-04
 Coeff:      0.204D-04-0.357D-04-0.167D-03 0.284D-03 0.430D-03-0.133D-02
 Coeff:     -0.317D-02 0.162D-02 0.198D-01 0.193D-01-0.110D+00-0.574D-01
 Coeff:      0.212D+00 0.919D+00
 Gap=     0.227 Goal=   None    Shift=    0.000
 RMSDP=3.41D-08 MaxDP=3.99D-06 DE=-5.46D-11 OVMax= 3.83D-07

 Cycle  21  Pass 1  IDiag  1:
 Restarting incremental Fock formation.
 E= -3010.55814533608     Delta-E=        0.000000000033 Rises=F Damp=F
 DIIS: error= 7.15D-09 at cycle  21 NSaved=  20.
 NSaved=20 IEnMin=19 EnMin= -3010.55814533611     IErMin=20 ErrMin= 7.15D-09
 ErrMax= 7.15D-09  0.00D+00 EMaxC= 1.00D-01 BMatC= 6.98D-15 BMatP= 3.61D-14
 IDIUse=1 WtCom= 1.00D+00 WtEn= 0.00D+00
 Coeff-Com: -0.320D-08 0.262D-07 0.379D-06 0.148D-05 0.425D-05 0.160D-04
 Coeff-Com: -0.106D-04-0.101D-03 0.102D-03 0.236D-03-0.146D-03-0.113D-02
 Coeff-Com: -0.171D-02 0.365D-02 0.132D-01-0.119D-01-0.502D-01-0.599D-01
 Coeff-Com:  0.295D+00 0.813D+00
 Coeff:     -0.320D-08 0.262D-07 0.379D-06 0.148D-05 0.425D-05 0.160D-04
 Coeff:     -0.106D-04-0.101D-03 0.102D-03 0.236D-03-0.146D-03-0.113D-02
 Coeff:     -0.171D-02 0.365D-02 0.132D-01-0.119D-01-0.502D-01-0.599D-01
 Coeff:      0.295D+00 0.813D+00
 Gap=     0.227 Goal=   None    Shift=    0.000
 RMSDP=4.99D-09 MaxDP=3.07D-07 DE= 3.27D-11 OVMax= 9.66D-08

 SCF Done:  E(RwB97XD) =  -3010.55814534     A.U. after   21 cycles
            NFock= 21  Conv=0.50D-08     -V/T= 2.0016
 KE= 3.005801042800D+03 PE=-8.695646560898D+03 EE= 1.909282385480D+03
 Leave Link  502 at Thu May  2 14:19:03 2024, MaxMem=   134217728 cpu:            1185.1 elap:            1185.4
 (Enter /software/gaussian/g16-c01/sse4/g16/l601.exe)
 Copying SCF densities to generalized density rwf, IOpCl= 0 IROHF=0.

 **********************************************************************

            Population analysis using the SCF Density.

 **********************************************************************

 Alpha  occ. eigenvalues -- -483.27664 -62.82612 -56.62376 -56.61720 -56.61694
 Alpha  occ. eigenvalues --  -19.45723 -19.45716 -14.85074 -10.57873 -10.55994
 Alpha  occ. eigenvalues --  -10.55862 -10.55268 -10.52106 -10.51540  -8.98364
 Alpha  occ. eigenvalues --   -6.81225  -6.79093  -6.79013  -2.91084  -2.90538
 Alpha  occ. eigenvalues --   -2.90475  -2.88771  -2.88770  -1.49376  -1.32357
 Alpha  occ. eigenvalues --   -1.20898  -1.11534  -1.10544  -1.02310  -0.98506
 Alpha  occ. eigenvalues --   -0.93810  -0.89281  -0.84101  -0.79997  -0.79298
 Alpha  occ. eigenvalues --   -0.78992  -0.76718  -0.75427  -0.74253  -0.70072
 Alpha  occ. eigenvalues --   -0.67160  -0.66232  -0.61074  -0.57963  -0.56841
 Alpha  occ. eigenvalues --   -0.56080  -0.55384  -0.51785  -0.50965
 Alpha virt. eigenvalues --   -0.28277  -0.19589  -0.14385  -0.12927  -0.11391
 Alpha virt. eigenvalues --   -0.09753  -0.09572  -0.06511  -0.05526  -0.04615
 Alpha virt. eigenvalues --   -0.02582  -0.01278   0.00200   0.00523   0.01342
 Alpha virt. eigenvalues --    0.02455   0.02847   0.03758   0.04759   0.06154
 Alpha virt. eigenvalues --    0.06483   0.06719   0.07586   0.07740   0.08262
 Alpha virt. eigenvalues --    0.08755   0.09451   0.09996   0.10436   0.11411
 Alpha virt. eigenvalues --    0.11979   0.12844   0.13449   0.13547   0.14440
 Alpha virt. eigenvalues --    0.15276   0.16161   0.16581   0.16820   0.18123
 Alpha virt. eigenvalues --    0.18806   0.19004   0.19468   0.19560   0.20809
 Alpha virt. eigenvalues --    0.21941   0.22688   0.23217   0.23555   0.25403
 Alpha virt. eigenvalues --    0.26367   0.26756   0.29864   0.31574   0.33407
 Alpha virt. eigenvalues --    0.34221   0.35323   0.36479   0.37523   0.39098
 Alpha virt. eigenvalues --    0.39986   0.40497   0.41725   0.42042   0.43801
 Alpha virt. eigenvalues --    0.45164   0.45687   0.47285   0.48305   0.49175
 Alpha virt. eigenvalues --    0.50252   0.51783   0.52893   0.54292   0.54989
 Alpha virt. eigenvalues --    0.56296   0.57711   0.59297   0.59680   0.61536
 Alpha virt. eigenvalues --    0.62817   0.63963   0.66848   0.69556   0.70678
 Alpha virt. eigenvalues --    0.72569   0.73004   0.74042   0.75344   0.76172
 Alpha virt. eigenvalues --    0.76798   0.78417   0.80777   0.86285   0.87130
 Alpha virt. eigenvalues --    0.88408   0.89771   0.92576   0.95958   0.99747
 Alpha virt. eigenvalues --    1.01304   1.04084   1.05143   1.07046   1.08073
 Alpha virt. eigenvalues --    1.09976   1.13181   1.14119   1.14986   1.19081
 Alpha virt. eigenvalues --    1.21670   1.23622   1.29369   1.34826   1.37584
 Alpha virt. eigenvalues --    1.38248   1.40331   1.45067   1.56444   1.57891
 Alpha virt. eigenvalues --    1.58367   1.60858   1.62539   1.65197   1.67397
 Alpha virt. eigenvalues --    1.69206   1.72983   1.74760   1.76600   1.80906
 Alpha virt. eigenvalues --    1.85259   1.86656   1.88587   1.98404   1.99395
 Alpha virt. eigenvalues --    1.99802   2.04202   2.05232   2.08798   2.11097
 Alpha virt. eigenvalues --    2.15003   2.16454   2.23546   2.24681   2.28617
 Alpha virt. eigenvalues --    2.34826   2.40870   2.42488   2.45444   2.54670
 Alpha virt. eigenvalues --    2.59268   2.64442   2.67362   2.70074   2.72267
 Alpha virt. eigenvalues --    2.74546   2.77051   2.78558   2.81310   2.83644
 Alpha virt. eigenvalues --    2.94836   2.99261   3.02501   3.07304   3.10435
 Alpha virt. eigenvalues --    3.16188   3.17674   3.18802   3.23224   3.27166
 Alpha virt. eigenvalues --    3.28996   3.38869   3.48033   3.51292   3.55439
 Alpha virt. eigenvalues --    3.58757   3.69472   3.74827   3.85129   3.88881
 Alpha virt. eigenvalues --    4.14026   4.14958   4.23089   4.27375   4.45262
 Alpha virt. eigenvalues --    4.47487   4.56157   4.60731   4.94064   4.96811
 Alpha virt. eigenvalues --    5.05767   5.10158   5.62562   6.15634   6.71974
 Alpha virt. eigenvalues --    7.53079   7.55305   7.65265  23.23740  23.62757
 Alpha virt. eigenvalues --   23.73922  23.79712  23.97114  24.03557  35.32092
 Alpha virt. eigenvalues --   47.97794  49.85735  49.94397 289.85361 289.87693
 Alpha virt. eigenvalues --  290.002691020.98868
          Condensed to atoms (all electrons):
               1          2          3          4          5          6
     1  C    7.916360  -1.307405   0.272985   0.110089   0.294190   0.055059
     2  C   -1.307405  21.397548  -2.519111   0.470779   0.004357   0.200831
     3  C    0.272985  -2.519111  24.553958  -1.529275  -0.004825   0.106517
     4  C    0.110089   0.470779  -1.529275   6.519624   0.030528  -0.012644
     5  H    0.294190   0.004357  -0.004825   0.030528   0.333511  -0.001722
     6  H    0.055059   0.200831   0.106517  -0.012644  -0.001722   0.314013
     7  H    0.016555  -0.026122   0.010160   0.319698  -0.002393   0.000005
     8  N   -0.126237  -0.791847  -2.991378   0.027644   0.000135  -0.033273
     9  O    0.047119   0.777429   0.596802  -0.018168  -0.000028  -0.002653
    10  O    0.225906  -0.262695  -0.349172  -0.008592  -0.000010   0.021481
    11  C    0.936075  -0.188197   2.970433  -0.426222  -0.033838   0.008666
    12  H   -0.021246   0.032039  -0.004589   0.030080   0.000092  -0.000027
    13  C   -2.253387 -11.731490 -14.901564   0.877820   0.034828  -0.005330
    14  H    0.017249   0.042776   0.146322  -0.016362  -0.000082   0.000163
    15  Br  -0.010912  -0.349633  -0.339627  -0.031201   0.000910  -0.000656
               7          8          9         10         11         12
     1  C    0.016555  -0.126237   0.047119   0.225906   0.936075  -0.021246
     2  C   -0.026122  -0.791847   0.777429  -0.262695  -0.188197   0.032039
     3  C    0.010160  -2.991378   0.596802  -0.349172   2.970433  -0.004589
     4  C    0.319698   0.027644  -0.018168  -0.008592  -0.426222   0.030080
     5  H   -0.002393   0.000135  -0.000028  -0.000010  -0.033838   0.000092
     6  H    0.000005  -0.033273  -0.002653   0.021481   0.008666  -0.000027
     7  H    0.342055   0.000242  -0.000032   0.000015   0.004011  -0.002131
     8  N    0.000242   8.107416  -0.202477   0.264144  -0.348419   0.000792
     9  O   -0.000032  -0.202477   8.082373  -0.030870   0.276525   0.000213
    10  O    0.000015   0.264144  -0.030870   7.811941  -0.030734  -0.000057
    11  C    0.004011  -0.348419   0.276525  -0.030734   8.759408   0.283603
    12  H   -0.002131   0.000792   0.000213  -0.000057   0.283603   0.335359
    13  C    0.010064   3.220355  -1.565062   0.275947  -6.009201  -0.002975
    14  H   -0.000038  -0.063473   0.027092  -0.001752   0.088703  -0.008504
    15  Br   0.000143   0.227735  -0.077437   0.013176  -0.034422   0.005708
              13         14         15
     1  C   -2.253387   0.017249  -0.010912
     2  C  -11.731490   0.042776  -0.349633
     3  C  -14.901564   0.146322  -0.339627
     4  C    0.877820  -0.016362  -0.031201
     5  H    0.034828  -0.000082   0.000910
     6  H   -0.005330   0.000163  -0.000656
     7  H    0.010064  -0.000038   0.000143
     8  N    3.220355  -0.063473   0.227735
     9  O   -1.565062   0.027092  -0.077437
    10  O    0.275947  -0.001752   0.013176
    11  C   -6.009201   0.088703  -0.034422
    12  H   -0.002975  -0.008504   0.005708
    13  C   37.668842   0.037251   0.794387
    14  H    0.037251   0.453063  -0.058427
    15  Br   0.794387  -0.058427  34.448722
 Mulliken charges:
               1
     1  C   -0.172401
     2  C    0.250742
     3  C   -0.017635
     4  C   -0.343800
     5  H    0.344346
     6  H    0.349570
     7  H    0.327768
     8  N   -0.291357
     9  O    0.089175
    10  O    0.071272
    11  C   -0.256390
    12  H    0.351643
    13  C   -0.450484
    14  H    0.336018
    15  Br   0.411533
 Sum of Mulliken charges =   1.00000
 Mulliken charges with hydrogens summed into heavy atoms:
               1
     1  C    0.171945
     2  C    0.600312
     3  C   -0.017635
     4  C   -0.016032
     8  N   -0.291357
     9  O    0.089175
    10  O    0.071272
    11  C    0.095253
    13  C   -0.114466
    15  Br   0.411533
 Electronic spatial extent (au):  <R**2>=           3941.3919
 Charge=              1.0000 electrons
 Dipole moment (field-independent basis, Debye):
    X=              3.1580    Y=             -1.8859    Z=             -5.0070  Tot=              6.2129
 Quadrupole moment (field-independent basis, Debye-Ang):
   XX=            -67.8926   YY=            -49.6636   ZZ=            -57.2345
   XY=             -4.9774   XZ=            -11.3218   YZ=              6.5871
 Traceless Quadrupole moment (field-independent basis, Debye-Ang):
   XX=             -9.6291   YY=              8.6000   ZZ=              1.0291
   XY=             -4.9774   XZ=            -11.3218   YZ=              6.5871
 Octapole moment (field-independent basis, Debye-Ang**2):
  XXX=           -516.8425  YYY=             84.8917  ZZZ=             61.5839  XYY=           -132.0890
  XXY=             19.9929  XXZ=             -1.8238  XZZ=           -121.1148  YZZ=              5.9361
  YYZ=             11.7850  XYZ=             17.3405
 Hexadecapole moment (field-independent basis, Debye-Ang**3):
 XXXX=          -3483.0854 YYYY=           -686.3985 ZZZZ=           -347.0915 XXXY=            170.3671
 XXXZ=             88.9799 YYYX=            169.0647 YYYZ=           -145.9653 ZZZX=            122.2881
 ZZZY=           -110.9388 XXYY=           -613.9979 XXZZ=           -498.7323 YYZZ=           -146.2572
 XXYZ=            -17.1669 YYXZ=             19.3771 ZZXY=              4.1581
 N-N= 7.700049872824D+02 E-N=-8.695646561024D+03  KE= 3.005801042800D+03
 No NMR shielding tensors so no spin-rotation constants.
 Leave Link  601 at Thu May  2 14:19:10 2024, MaxMem=   134217728 cpu:               7.7 elap:               7.7
 (Enter /software/gaussian/g16-c01/sse4/g16/l9999.exe)
 Unable to Open any file for archive entry.
 1\1\GINC-BHX0019\SP\RwB97XD\6-311+G(d)\C6H5Br1N1O2(1+)\BWEIGHT\02-May-
 2024\0\\#P wB97XD/6-311+G* NoSymm #P Field=Z+233\\TitleMe\\1,1\C,0,0.5
 193,1.233,-0.0319\C,0,1.9445,1.2692,-0.0367\C,0,2.6204,0.0928,-0.025\C
 ,0,-0.196,0.0301,0.001\H,0,-0.0207,2.1742,-0.0434\H,0,2.4828,2.2089,-0
 .0361\H,0,-1.2777,0.0399,0.0117\N,0,4.0921,0.0959,0.0366\O,0,4.6393,-1
 .0217,0.1446\O,0,4.6649,1.1984,-0.0233\C,0,0.4943,-1.1671,0.021\H,0,-0
 .0325,-2.1149,0.0545\C,0,1.9629,-1.2165,-0.0211\H,0,2.4436,-1.9631,0.6
 151\Br,0,2.173,-1.9491,-1.9062\\Version=ES64L-G16RevC.01\HF=-3010.5581
 453\RMSD=4.991e-09\Dipole=-3.086753,0.4861391,-0.7206962\Quadrupole=-7
 .1589662,6.3938646,0.7651016,-3.7005871,-8.4175023,4.897384\PG=C01 [X(
 C6H5Br1N1O2)]\\@
 The archive entry for this job was punched.


 ONE BIG VICE IN A MAN IS APT TO KEEP OUT MANY SMALLER ONES.

                           -- BRET HARTE
 Job cpu time:       0 days  0 hours 20 minutes 51.8 seconds.
 Elapsed time:       0 days  0 hours 20 minutes 52.1 seconds.
 File lengths (MBytes):  RWF=     40 Int=      0 D2E=      0 Chk=     32 Scr=      1
 Normal termination of Gaussian 16 at Thu May  2 14:19:11 2024.
