 Entering Gaussian System, Link 0=g16
 Initial command:
 /software/gaussian/g16-c01/sse4/g16/l1.exe "/local_scratch/24657508/Gau-26163.inp" -scrdir="/local_scratch/24657508/"
 Entering Link 1 = /software/gaussian/g16-c01/sse4/g16/l1.exe PID=     26176.
  
 Copyright (c) 1988-2019, Gaussian, Inc.  All Rights Reserved.
  
 This is part of the Gaussian(R) 16 program.  It is based on
 the Gaussian(R) 09 system (copyright 2009, Gaussian, Inc.),
 the Gaussian(R) 03 system (copyright 2003, Gaussian, Inc.),
 the Gaussian(R) 98 system (copyright 1998, Gaussian, Inc.),
 the Gaussian(R) 94 system (copyright 1995, Gaussian, Inc.),
 the Gaussian 92(TM) system (copyright 1992, Gaussian, Inc.),
 the Gaussian 90(TM) system (copyright 1990, Gaussian, Inc.),
 the Gaussian 88(TM) system (copyright 1988, Gaussian, Inc.),
 the Gaussian 86(TM) system (copyright 1986, Carnegie Mellon
 University), and the Gaussian 82(TM) system (copyright 1983,
 Carnegie Mellon University). Gaussian is a federally registered
 trademark of Gaussian, Inc.
  
 This software contains proprietary and confidential information,
 including trade secrets, belonging to Gaussian, Inc.
  
 This software is provided under written license and may be
 used, copied, transmitted, or stored only in accord with that
 written license.
  
 The following legend is applicable only to US Government
 contracts under FAR:
  
                    RESTRICTED RIGHTS LEGEND
  
 Use, reproduction and disclosure by the US Government is
 subject to restrictions as set forth in subparagraphs (a)
 and (c) of the Commercial Computer Software - Restricted
 Rights clause in FAR 52.227-19.
  
 Gaussian, Inc.
 340 Quinnipiac St., Bldg. 40, Wallingford CT 06492
  
  
 ---------------------------------------------------------------
 Warning -- This program may not be used in any manner that
 competes with the business of Gaussian, Inc. or will provide
 assistance to any competitor of Gaussian, Inc.  The licensee
 of this program is prohibited from giving any competitor of
 Gaussian, Inc. access to this program.  By using this program,
 the user acknowledges that Gaussian, Inc. is engaged in the
 business of creating and licensing software in the field of
 computational chemistry and represents and warrants to the
 licensee that it is not a competitor of Gaussian, Inc. and that
 it will not use this program in any manner prohibited above.
 ---------------------------------------------------------------
  

 Cite this work as:
 Gaussian 16, Revision C.01,
 M. J. Frisch, G. W. Trucks, H. B. Schlegel, G. E. Scuseria, 
 M. A. Robb, J. R. Cheeseman, G. Scalmani, V. Barone, 
 G. A. Petersson, H. Nakatsuji, X. Li, M. Caricato, A. V. Marenich, 
 J. Bloino, B. G. Janesko, R. Gomperts, B. Mennucci, H. P. Hratchian, 
 J. V. Ortiz, A. F. Izmaylov, J. L. Sonnenberg, D. Williams-Young, 
 F. Ding, F. Lipparini, F. Egidi, J. Goings, B. Peng, A. Petrone, 
 T. Henderson, D. Ranasinghe, V. G. Zakrzewski, J. Gao, N. Rega, 
 G. Zheng, W. Liang, M. Hada, M. Ehara, K. Toyota, R. Fukuda, 
 J. Hasegawa, M. Ishida, T. Nakajima, Y. Honda, O. Kitao, H. Nakai, 
 T. Vreven, K. Throssell, J. A. Montgomery, Jr., J. E. Peralta, 
 F. Ogliaro, M. J. Bearpark, J. J. Heyd, E. N. Brothers, K. N. Kudin, 
 V. N. Staroverov, T. A. Keith, R. Kobayashi, J. Normand, 
 K. Raghavachari, A. P. Rendell, J. C. Burant, S. S. Iyengar, 
 J. Tomasi, M. Cossi, J. M. Millam, M. Klene, C. Adamo, R. Cammi, 
 J. W. Ochterski, R. L. Martin, K. Morokuma, O. Farkas, 
 J. B. Foresman, and D. J. Fox, Gaussian, Inc., Wallingford CT, 2019.
 
 ******************************************
 Gaussian 16:  ES64L-G16RevC.01  3-Jul-2019
                 1-May-2024 
 ******************************************
 %chk=geometry.chk
 %mem=9GB
 %nprocshared=12
 Will use up to   12 processors via shared memory.
 ---------------------------------------
 #P wB97XD/6-311+G* NoSymm #P Field=Y+68
 ---------------------------------------
 1/38=1,172=1/1;
 2/12=2,15=1,17=6,18=5,40=1/2;
 3/5=4,6=6,7=11,11=2,14=2,15=68,25=1,30=1,74=-58/1,2,3;
 4//1;
 5/5=2,38=5/2;
 6/7=2,8=2,9=2,10=2,28=1/1;
 99/5=1,9=1/99;
 Leave Link    1 at Wed May  1 14:48:54 2024, MaxMem=  1207959552 cpu:               1.3 elap:               1.3
 (Enter /software/gaussian/g16-c01/sse4/g16/l101.exe)
 -------
 TitleMe
 -------
 Symbolic Z-matrix:
 Charge =  1 Multiplicity = 1
 C                     0.0295    1.3397    0.0682 
 C                     1.4348    1.2867    0.0064 
 C                     2.1118    0.0511   -0.0054 
 C                     1.4451   -1.1372    0.0312 
 C                    -0.6879    0.1682    0.11 
 H                    -0.4713    2.2984    0.0781 
 H                     2.0273    2.1965   -0.0322 
 H                     1.9897   -2.0764    0.0232 
 H                    -1.7716    0.1804    0.1582 
 N                     3.5864    0.051    -0.0675 
 O                     4.1471   -1.0597   -0.0881 
 O                     4.145     1.1639   -0.0901 
 C                    -0.0236   -1.1458    0.0835 
 H                    -0.4367   -1.8725    0.7889 
 Br                   -0.5359   -1.8697   -1.7408 
 
 ITRead=  0  0  0  0  0  0  0  0  0  0  0  0  0  0  0
 MicOpt= -1 -1 -1 -1 -1 -1 -1 -1 -1 -1 -1 -1 -1 -1 -1
 NAtoms=     15 NQM=       15 NQMF=       0 NMMI=      0 NMMIF=      0
                NMic=       0 NMicF=      0.
                    Isotopes and Nuclear Properties:
 (Nuclear quadrupole moments (NQMom) in fm**2, nuclear magnetic moments (NMagM)
  in nuclear magnetons)

  Atom         1           2           3           4           5           6           7           8           9          10
 IAtWgt=          12          12          12          12          12           1           1           1           1          14
 AtmWgt=  12.0000000  12.0000000  12.0000000  12.0000000  12.0000000   1.0078250   1.0078250   1.0078250   1.0078250  14.0030740
 NucSpn=           0           0           0           0           0           1           1           1           1           2
 AtZEff=  -0.0000000  -0.0000000  -0.0000000  -0.0000000  -0.0000000  -0.0000000  -0.0000000  -0.0000000  -0.0000000  -0.0000000
 NQMom=    0.0000000   0.0000000   0.0000000   0.0000000   0.0000000   0.0000000   0.0000000   0.0000000   0.0000000   2.0440000
 NMagM=    0.0000000   0.0000000   0.0000000   0.0000000   0.0000000   2.7928460   2.7928460   2.7928460   2.7928460   0.4037610
 AtZNuc=   6.0000000   6.0000000   6.0000000   6.0000000   6.0000000   1.0000000   1.0000000   1.0000000   1.0000000   7.0000000

  Atom        11          12          13          14          15
 IAtWgt=          16          16          12           1          79
 AtmWgt=  15.9949146  15.9949146  12.0000000   1.0078250  78.9183361
 NucSpn=           0           0           0           1           3
 AtZEff=  -0.0000000  -0.0000000  -0.0000000  -0.0000000  -0.0000000
 NQMom=    0.0000000   0.0000000   0.0000000   0.0000000  31.3000000
 NMagM=    0.0000000   0.0000000   0.0000000   2.7928460   2.1063990
 AtZNuc=   8.0000000   8.0000000   6.0000000   1.0000000  35.0000000
 Leave Link  101 at Wed May  1 14:48:56 2024, MaxMem=  1207959552 cpu:               1.4 elap:               1.4
 (Enter /software/gaussian/g16-c01/sse4/g16/l202.exe)
                          Input orientation:                          
 ---------------------------------------------------------------------
 Center     Atomic      Atomic             Coordinates (Angstroms)
 Number     Number       Type             X           Y           Z
 ---------------------------------------------------------------------
      1          6           0        0.029500    1.339700    0.068200
      2          6           0        1.434800    1.286700    0.006400
      3          6           0        2.111800    0.051100   -0.005400
      4          6           0        1.445100   -1.137200    0.031200
      5          6           0       -0.687900    0.168200    0.110000
      6          1           0       -0.471300    2.298400    0.078100
      7          1           0        2.027300    2.196500   -0.032200
      8          1           0        1.989700   -2.076400    0.023200
      9          1           0       -1.771600    0.180400    0.158200
     10          7           0        3.586400    0.051000   -0.067500
     11          8           0        4.147100   -1.059700   -0.088100
     12          8           0        4.145000    1.163900   -0.090100
     13          6           0       -0.023600   -1.145800    0.083500
     14          1           0       -0.436700   -1.872500    0.788900
     15         35           0       -0.535900   -1.869700   -1.740800
 ---------------------------------------------------------------------
                    Distance matrix (angstroms):
                    1          2          3          4          5
     1  C    0.000000
     2  C    1.407656   0.000000
     3  C    2.449874   1.408963   0.000000
     4  C    2.853126   2.424049   1.363043   0.000000
     5  C    1.374344   2.401589   2.804523   2.501993   0.000000
     6  H    1.081667   2.159142   3.424870   3.934226   2.141421
     7  H    2.176095   1.086408   2.147231   3.384750   3.392128
     8  H    3.938800   3.408612   2.131193   1.085702   3.495040
     9  H    2.143837   3.395283   3.888995   3.478413   1.084840
    10  N    3.785591   2.482297   1.475907   2.450862   4.279589
    11  O    4.768247   3.587631   2.320164   2.705743   4.992415
    12  O    4.122294   2.714696   2.319353   3.549540   4.938459
    13  C    2.486114   2.837240   2.449573   1.469656   1.472614
    14  H    3.324903   3.754379   3.290289   2.157764   2.165286
    15  Br   3.727252   4.110867   3.702891   2.756973   2.757100
                    6          7          8          9         10
     6  H    0.000000
     7  H    2.503108   0.000000
     8  H    5.019802   4.273425   0.000000
     9  H    2.486588   4.304945   4.388479   0.000000
    10  N    4.640790   2.652397   2.661486   5.364313   0.000000
    11  O    5.712624   3.885809   2.387560   6.052233   1.244373
    12  O    4.756638   2.356750   3.893289   6.002923   1.245428
    13  C    3.473180   3.923079   2.218790   2.195425   3.806210
    14  H    4.231175   4.827242   2.552506   2.528663   4.540772
    15  Br   4.548146   5.101303   3.087568   3.055498   4.845862
                   11         12         13         14         15
    11  O    0.000000
    12  O    2.223602   0.000000
    13  C    4.175117   4.768865   0.000000
    14  H    4.737193   5.566358   1.093770   0.000000
    15  Br   5.031700   5.817075   2.028436   2.531646   0.000000
 Symmetry turned off by external request.
 Stoichiometry    C6H5BrNO2(1+)
 Framework group  C1[X(C6H5BrNO2)]
 Deg. of freedom    39
 Full point group                 C1      NOp   1
 Rotational constants (GHZ):           1.8252210           0.5518633           0.4576002
 Leave Link  202 at Wed May  1 14:48:57 2024, MaxMem=  1207959552 cpu:               1.2 elap:               1.2
 (Enter /software/gaussian/g16-c01/sse4/g16/l301.exe)
 Standard basis: 6-311+G(d) (5D, 7F)
 Ernie: Thresh=  0.10000D-02 Tol=  0.10000D-05 Strict=F.
 The following finite field(s) will be applied:
 An electric field of              0.0000  0.0068  0.0000
   261 basis functions,   443 primitive gaussians,   273 cartesian basis functions
    49 alpha electrons       49 beta electrons
       nuclear repulsion energy       739.2122215416 Hartrees.
 IExCor= 4639 DFT=T Ex+Corr=wB97XD ExCW=0 ScaHFX=  1.000000
 ScaDFX=  1.000000  1.000000  1.000000  1.000000 ScalE2=  1.000000  1.000000
 IRadAn=      5 IRanWt=     -1 IRanGd=            0 ICorTp=0 IEmpDi=121
 HFx  wShort=  0.000000 wLong=  0.200000 cFull=  0.222036 cShort=  0.000000 cLong=  0.777964
 DFx  wShort=  0.000000 wLong=  0.200000 cFull=  0.000000 cShort=  0.000000 cLong=  1.000000
 NAtoms=   15 NActive=   15 NUniq=   15 SFac= 1.00D+00 NAtFMM=   60 NAOKFM=F Big=F
 Integral buffers will be    131072 words long.
 Raffenetti 2 integral format.
 Two-electron integral symmetry is turned off.
 R6Disp:  Grimme-D2 Dispersion energy=       -0.0077368520 Hartrees.
 Nuclear repulsion after empirical dispersion term =      739.2044846896 Hartrees.
 Leave Link  301 at Wed May  1 14:48:58 2024, MaxMem=  1207959552 cpu:               1.1 elap:               1.1
 (Enter /software/gaussian/g16-c01/sse4/g16/l302.exe)
 NPDir=0 NMtPBC=     1 NCelOv=     1 NCel=       1 NClECP=     1 NCelD=      1
         NCelK=      1 NCelE2=     1 NClLst=     1 CellRange=     0.0.
 One-electron integrals computed using PRISM.
 NBasis=   261 RedAO= T EigKep=  2.35D-06  NBF=   261
 NBsUse=   261 1.00D-06 EigRej= -1.00D+00 NBFU=   261
 Precomputing XC quadrature grid using
 IXCGrd= 4 IRadAn=           5 IRanWt=          -1 IRanGd=           0 AccXCQ= 0.00D+00.
 Generated NRdTot=       0 NPtTot=           0 NUsed=           0 NTot=          32
 NSgBfM=   273   273   273   273   273 MxSgAt=    15 MxSgA2=    15.
 Leave Link  302 at Wed May  1 14:49:19 2024, MaxMem=  1207959552 cpu:              21.1 elap:              21.1
 (Enter /software/gaussian/g16-c01/sse4/g16/l303.exe)
 DipDrv:  MaxL=1.
 The nuclear repulsion energy is now       738.4315964556 hartrees.
 Leave Link  303 at Wed May  1 14:49:22 2024, MaxMem=  1207959552 cpu:               3.2 elap:               3.2
 (Enter /software/gaussian/g16-c01/sse4/g16/l401.exe)
 ExpMin= 3.50D-02 ExpMax= 4.40D+05 ExpMxC= 1.51D+04 IAcc=3 IRadAn=         5 AccDes= 0.00D+00
 Harris functional with IExCor= 4639 and IRadAn=       5 diagonalized for initial guess.
 HarFok:  IExCor= 4639 AccDes= 0.00D+00 IRadAn=         5 IDoV= 1 UseB2=F ITyADJ=14
 ICtDFT=  3500011 ScaDFX=  1.000000  1.000000  1.000000  1.000000
 FoFCou: FMM=F IPFlag=           0 FMFlag=      100000 FMFlg1=           0
         NFxFlg=           0 DoJE=T BraDBF=F KetDBF=T FulRan=T
         wScrn=  0.000000 ICntrl=       500 IOpCl=  0 I1Cent=   200000004 NGrid=           0
         NMat0=    1 NMatS0=      1 NMatT0=    0 NMatD0=    1 NMtDS0=    0 NMtDT0=    0
 Symmetry not used in FoFCou.
 Harris En= -2970.60448455018    
 JPrj=0 DoOrth=F DoCkMO=F.
 Leave Link  401 at Wed May  1 14:49:52 2024, MaxMem=  1207959552 cpu:              29.9 elap:              29.9
 (Enter /software/gaussian/g16-c01/sse4/g16/l502.exe)
 Two-electron integral symmetry not used.
 Closed shell SCF:
 Using DIIS extrapolation, IDIIS=  1040.
 NGot=  1207959552 LenX=  1207804877 LenY=  1207729907
 Requested convergence on RMS density matrix=1.00D-08 within 128 cycles.
 Requested convergence on MAX density matrix=1.00D-06.
 Requested convergence on             energy=1.00D-06.
 No special actions if energy rises.
 Fock matrices will be formed incrementally for  20 cycles.

 Cycle   1  Pass 1  IDiag  1:
 FoFJK:  IHMeth= 1 ICntrl=       0 DoSepK=T KAlg= 0 I1Cent=           0 FoldK=F
 IRaf=         1 NMat=       1 IRICut=       1 DoRegI=T DoRafI=F ISym2E= 0 IDoP0=0 IntGTp=1.
 FoFCou: FMM=F IPFlag=           0 FMFlag=      100000 FMFlg1=           0
         NFxFlg=           0 DoJE=T BraDBF=F KetDBF=F FulRan=T
         wScrn=  0.000000 ICntrl=       500 IOpCl=  0 I1Cent=           0 NGrid=           0
         NMat0=    1 NMatS0=      1 NMatT0=    0 NMatD0=    1 NMtDS0=    0 NMtDT0=    0
 Symmetry not used in FoFCou.
 E= -3009.70881126740    
 DIIS: error= 3.20D-01 at cycle   1 NSaved=   1.
 NSaved= 1 IEnMin= 1 EnMin= -3009.70881126740     IErMin= 1 ErrMin= 3.20D-01
 ErrMax= 3.20D-01  0.00D+00 EMaxC= 1.00D-01 BMatC= 1.20D+01 BMatP= 1.20D+01
 IDIUse=3 WtCom= 0.00D+00 WtEn= 1.00D+00
 Coeff-Com:  0.100D+01
 Coeff-En:   0.100D+01
 Coeff:      0.100D+01
 Gap=     0.352 Goal=   None    Shift=    0.000
 GapD=    0.352 DampG=1.000 DampE=0.250 DampFc=0.2500 IDamp=-1.
 Damping current iteration by 2.50D-01
 RMSDP=4.85D-02 MaxDP=5.07D+00              OVMax= 2.48D-01

 Cycle   2  Pass 1  IDiag  1:
 RMSU=  4.31D-03    CP:  8.86D-01
 E= -3009.99912636215     Delta-E=       -0.290315094757 Rises=F Damp=T
 DIIS: error= 2.25D-01 at cycle   2 NSaved=   2.
 NSaved= 2 IEnMin= 2 EnMin= -3009.99912636215     IErMin= 2 ErrMin= 2.25D-01
 ErrMax= 2.25D-01  0.00D+00 EMaxC= 1.00D-01 BMatC= 5.46D+00 BMatP= 1.20D+01
 IDIUse=3 WtCom= 0.00D+00 WtEn= 1.00D+00
 Coeff-Com: -0.183D+01 0.283D+01
 Coeff-En:   0.000D+00 0.100D+01
 Coeff:      0.000D+00 0.100D+01
 Gap=     0.288 Goal=   None    Shift=    0.000
 RMSDP=3.74D-02 MaxDP=3.82D+00 DE=-2.90D-01 OVMax= 7.55D-02

 Cycle   3  Pass 1  IDiag  1:
 RMSU=  4.56D-03    CP:  5.28D-01  3.00D+00
 E= -3010.38480699137     Delta-E=       -0.385680629214 Rises=F Damp=F
 DIIS: error= 6.59D-02 at cycle   3 NSaved=   3.
 NSaved= 3 IEnMin= 3 EnMin= -3010.38480699137     IErMin= 3 ErrMin= 6.59D-02
 ErrMax= 6.59D-02  0.00D+00 EMaxC= 1.00D-01 BMatC= 7.42D-01 BMatP= 5.46D+00
 IDIUse=3 WtCom= 3.41D-01 WtEn= 6.59D-01
 Coeff-Com:  0.254D+01-0.333D+01 0.179D+01
 Coeff-En:   0.325D-01 0.000D+00 0.967D+00
 Coeff:      0.889D+00-0.114D+01 0.125D+01
 Gap=     0.275 Goal=   None    Shift=    0.000
 RMSDP=8.12D-03 MaxDP=4.43D-01 DE=-3.86D-01 OVMax= 7.58D-02

 Cycle   4  Pass 1  IDiag  1:
 RMSU=  5.95D-03    CP:  5.53D-01  2.62D+00  1.84D+00
 E= -3010.48613506282     Delta-E=       -0.101328071455 Rises=F Damp=F
 DIIS: error= 3.85D-02 at cycle   4 NSaved=   4.
 NSaved= 4 IEnMin= 4 EnMin= -3010.48613506282     IErMin= 4 ErrMin= 3.85D-02
 ErrMax= 3.85D-02  0.00D+00 EMaxC= 1.00D-01 BMatC= 2.42D-01 BMatP= 7.42D-01
 IDIUse=3 WtCom= 6.15D-01 WtEn= 3.85D-01
 Coeff-Com:  0.312D+00-0.400D+00 0.535D+00 0.553D+00
 Coeff-En:   0.000D+00 0.000D+00 0.218D+00 0.782D+00
 Coeff:      0.192D+00-0.246D+00 0.413D+00 0.641D+00
 Gap=     0.268 Goal=   None    Shift=    0.000
 RMSDP=3.92D-03 MaxDP=3.05D-01 DE=-1.01D-01 OVMax= 5.41D-02

 Cycle   5  Pass 1  IDiag  1:
 RMSU=  1.98D-03    CP:  5.25D-01  2.95D+00  1.72D+00  7.80D-01
 E= -3010.53130987547     Delta-E=       -0.045174812645 Rises=F Damp=F
 DIIS: error= 1.14D-02 at cycle   5 NSaved=   5.
 NSaved= 5 IEnMin= 5 EnMin= -3010.53130987547     IErMin= 5 ErrMin= 1.14D-02
 ErrMax= 1.14D-02  0.00D+00 EMaxC= 1.00D-01 BMatC= 1.50D-02 BMatP= 2.42D-01
 IDIUse=3 WtCom= 8.86D-01 WtEn= 1.14D-01
 Coeff-Com: -0.823D-01 0.116D+00 0.141D+00 0.392D+00 0.433D+00
 Coeff-En:   0.000D+00 0.000D+00 0.000D+00 0.243D-01 0.976D+00
 Coeff:     -0.730D-01 0.103D+00 0.125D+00 0.351D+00 0.495D+00
 Gap=     0.271 Goal=   None    Shift=    0.000
 RMSDP=1.26D-03 MaxDP=6.70D-02 DE=-4.52D-02 OVMax= 4.52D-02

 Cycle   6  Pass 1  IDiag  1:
 RMSU=  6.22D-04    CP:  5.20D-01  2.92D+00  1.76D+00  8.52D-01  5.70D-01
 E= -3010.53865112507     Delta-E=       -0.007341249599 Rises=F Damp=F
 DIIS: error= 3.02D-03 at cycle   6 NSaved=   6.
 NSaved= 6 IEnMin= 6 EnMin= -3010.53865112507     IErMin= 6 ErrMin= 3.02D-03
 ErrMax= 3.02D-03  0.00D+00 EMaxC= 1.00D-01 BMatC= 1.23D-03 BMatP= 1.50D-02
 IDIUse=3 WtCom= 9.70D-01 WtEn= 3.02D-02
 Coeff-Com: -0.960D-01 0.129D+00 0.202D-02 0.150D+00 0.320D+00 0.495D+00
 Coeff-En:   0.000D+00 0.000D+00 0.000D+00 0.000D+00 0.802D-01 0.920D+00
 Coeff:     -0.931D-01 0.125D+00 0.196D-02 0.146D+00 0.313D+00 0.507D+00
 Gap=     0.250 Goal=   None    Shift=    0.000
 RMSDP=3.59D-04 MaxDP=1.72D-02 DE=-7.34D-03 OVMax= 1.06D-02

 Cycle   7  Pass 1  IDiag  1:
 RMSU=  2.70D-04    CP:  5.21D-01  2.93D+00  1.75D+00  8.33D-01  6.56D-01
                    CP:  8.42D-01
 E= -3010.53949931164     Delta-E=       -0.000848186575 Rises=F Damp=F
 DIIS: error= 2.78D-04 at cycle   7 NSaved=   7.
 NSaved= 7 IEnMin= 7 EnMin= -3010.53949931164     IErMin= 7 ErrMin= 2.78D-04
 ErrMax= 2.78D-04  0.00D+00 EMaxC= 1.00D-01 BMatC= 1.69D-05 BMatP= 1.23D-03
 IDIUse=3 WtCom= 9.97D-01 WtEn= 2.78D-03
 Coeff-Com: -0.340D-01 0.453D-01-0.116D-01 0.285D-01 0.709D-01 0.162D+00
 Coeff-Com:  0.739D+00
 Coeff-En:   0.000D+00 0.000D+00 0.000D+00 0.000D+00 0.000D+00 0.000D+00
 Coeff-En:   0.100D+01
 Coeff:     -0.339D-01 0.452D-01-0.116D-01 0.285D-01 0.707D-01 0.162D+00
 Coeff:      0.740D+00
 Gap=     0.251 Goal=   None    Shift=    0.000
 RMSDP=1.61D-04 MaxDP=1.14D-02 DE=-8.48D-04 OVMax= 2.65D-03

 Cycle   8  Pass 1  IDiag  1:
 RMSU=  1.01D-04    CP:  5.20D-01  2.93D+00  1.76D+00  8.46D-01  6.80D-01
                    CP:  9.15D-01  9.04D-01
 E= -3010.53952211462     Delta-E=       -0.000022802978 Rises=F Damp=F
 DIIS: error= 1.50D-04 at cycle   8 NSaved=   8.
 NSaved= 8 IEnMin= 8 EnMin= -3010.53952211462     IErMin= 8 ErrMin= 1.50D-04
 ErrMax= 1.50D-04  0.00D+00 EMaxC= 1.00D-01 BMatC= 2.96D-06 BMatP= 1.69D-05
 IDIUse=3 WtCom= 9.98D-01 WtEn= 1.50D-03
 Coeff-Com:  0.503D-02-0.696D-02-0.379D-02-0.136D-01-0.327D-01-0.489D-01
 Coeff-Com:  0.217D+00 0.884D+00
 Coeff-En:   0.000D+00 0.000D+00 0.000D+00 0.000D+00 0.000D+00 0.000D+00
 Coeff-En:   0.000D+00 0.100D+01
 Coeff:      0.502D-02-0.695D-02-0.378D-02-0.136D-01-0.327D-01-0.488D-01
 Coeff:      0.217D+00 0.884D+00
 Gap=     0.251 Goal=   None    Shift=    0.000
 RMSDP=7.39D-05 MaxDP=4.06D-03 DE=-2.28D-05 OVMax= 1.91D-03

 Cycle   9  Pass 1  IDiag  1:
 RMSU=  2.48D-05    CP:  5.20D-01  2.93D+00  1.76D+00  8.48D-01  6.84D-01
                    CP:  9.50D-01  1.11D+00  1.22D+00
 E= -3010.53952860364     Delta-E=       -0.000006489021 Rises=F Damp=F
 DIIS: error= 4.91D-05 at cycle   9 NSaved=   9.
 NSaved= 9 IEnMin= 9 EnMin= -3010.53952860364     IErMin= 9 ErrMin= 4.91D-05
 ErrMax= 4.91D-05  0.00D+00 EMaxC= 1.00D-01 BMatC= 2.45D-07 BMatP= 2.96D-06
 IDIUse=1 WtCom= 1.00D+00 WtEn= 0.00D+00
 Coeff-Com:  0.541D-02-0.727D-02 0.516D-03-0.697D-02-0.152D-01-0.303D-01
 Coeff-Com: -0.521D-01 0.183D+00 0.923D+00
 Coeff:      0.541D-02-0.727D-02 0.516D-03-0.697D-02-0.152D-01-0.303D-01
 Coeff:     -0.521D-01 0.183D+00 0.923D+00
 Gap=     0.251 Goal=   None    Shift=    0.000
 RMSDP=2.55D-05 MaxDP=1.99D-03 DE=-6.49D-06 OVMax= 9.94D-04

 Cycle  10  Pass 1  IDiag  1:
 RMSU=  1.11D-05    CP:  5.20D-01  2.93D+00  1.76D+00  8.48D-01  6.84D-01
                    CP:  9.60D-01  1.16D+00  1.33D+00  1.18D+00
 E= -3010.53952974381     Delta-E=       -0.000001140171 Rises=F Damp=F
 DIIS: error= 1.65D-05 at cycle  10 NSaved=  10.
 NSaved=10 IEnMin=10 EnMin= -3010.53952974381     IErMin=10 ErrMin= 1.65D-05
 ErrMax= 1.65D-05  0.00D+00 EMaxC= 1.00D-01 BMatC= 6.99D-08 BMatP= 2.45D-07
 IDIUse=1 WtCom= 1.00D+00 WtEn= 0.00D+00
 Coeff-Com:  0.652D-04-0.575D-04 0.426D-03 0.346D-03 0.302D-02 0.419D-02
 Coeff-Com: -0.484D-01-0.104D+00 0.263D+00 0.882D+00
 Coeff:      0.652D-04-0.575D-04 0.426D-03 0.346D-03 0.302D-02 0.419D-02
 Coeff:     -0.484D-01-0.104D+00 0.263D+00 0.882D+00
 Gap=     0.251 Goal=   None    Shift=    0.000
 RMSDP=1.17D-05 MaxDP=8.12D-04 DE=-1.14D-06 OVMax= 3.92D-04

 Cycle  11  Pass 1  IDiag  1:
 RMSU=  5.04D-06    CP:  5.20D-01  2.93D+00  1.76D+00  8.48D-01  6.84D-01
                    CP:  9.62D-01  1.18D+00  1.33D+00  1.28D+00  1.25D+00
 E= -3010.53952997802     Delta-E=       -0.000000234210 Rises=F Damp=F
 DIIS: error= 5.84D-06 at cycle  11 NSaved=  11.
 NSaved=11 IEnMin=11 EnMin= -3010.53952997802     IErMin=11 ErrMin= 5.84D-06
 ErrMax= 5.84D-06  0.00D+00 EMaxC= 1.00D-01 BMatC= 8.18D-09 BMatP= 6.99D-08
 IDIUse=1 WtCom= 1.00D+00 WtEn= 0.00D+00
 Coeff-Com: -0.405D-03 0.549D-03 0.874D-04 0.789D-03 0.188D-02 0.384D-02
 Coeff-Com:  0.169D-02-0.292D-01-0.114D+00 0.888D-01 0.105D+01
 Coeff:     -0.405D-03 0.549D-03 0.874D-04 0.789D-03 0.188D-02 0.384D-02
 Coeff:      0.169D-02-0.292D-01-0.114D+00 0.888D-01 0.105D+01
 Gap=     0.251 Goal=   None    Shift=    0.000
 RMSDP=7.69D-06 MaxDP=5.12D-04 DE=-2.34D-07 OVMax= 2.08D-04

 Cycle  12  Pass 1  IDiag  1:
 RMSU=  2.01D-06    CP:  5.21D-01  2.93D+00  1.76D+00  8.47D-01  6.83D-01
                    CP:  9.61D-01  1.18D+00  1.31D+00  1.29D+00  1.64D+00
                    CP:  1.44D+00
 E= -3010.53953002925     Delta-E=       -0.000000051226 Rises=F Damp=F
 DIIS: error= 2.88D-06 at cycle  12 NSaved=  12.
 NSaved=12 IEnMin=12 EnMin= -3010.53953002925     IErMin=12 ErrMin= 2.88D-06
 ErrMax= 2.88D-06  0.00D+00 EMaxC= 1.00D-01 BMatC= 2.70D-09 BMatP= 8.18D-09
 IDIUse=1 WtCom= 1.00D+00 WtEn= 0.00D+00
 Coeff-Com: -0.178D-03 0.235D-03-0.331D-04 0.314D-03 0.779D-04 0.502D-03
 Coeff-Com:  0.125D-01 0.124D-01-0.118D+00-0.159D+00 0.475D+00 0.776D+00
 Coeff:     -0.178D-03 0.235D-03-0.331D-04 0.314D-03 0.779D-04 0.502D-03
 Coeff:      0.125D-01 0.124D-01-0.118D+00-0.159D+00 0.475D+00 0.776D+00
 Gap=     0.251 Goal=   None    Shift=    0.000
 RMSDP=2.93D-06 MaxDP=1.59D-04 DE=-5.12D-08 OVMax= 1.21D-04

 Cycle  13  Pass 1  IDiag  1:
 RMSU=  7.56D-07    CP:  5.21D-01  2.93D+00  1.76D+00  8.47D-01  6.82D-01
                    CP:  9.61D-01  1.18D+00  1.30D+00  1.29D+00  1.76D+00
                    CP:  1.66D+00  1.16D+00
 E= -3010.53953004177     Delta-E=       -0.000000012519 Rises=F Damp=F
 DIIS: error= 8.28D-07 at cycle  13 NSaved=  13.
 NSaved=13 IEnMin=13 EnMin= -3010.53953004177     IErMin=13 ErrMin= 8.28D-07
 ErrMax= 8.28D-07  0.00D+00 EMaxC= 1.00D-01 BMatC= 4.19D-10 BMatP= 2.70D-09
 IDIUse=1 WtCom= 1.00D+00 WtEn= 0.00D+00
 Coeff-Com:  0.428D-05-0.627D-05-0.272D-04-0.775D-04-0.261D-03-0.698D-03
 Coeff-Com: -0.856D-03 0.287D-02 0.189D-01 0.298D-02-0.215D+00 0.501D-01
 Coeff-Com:  0.114D+01
 Coeff:      0.428D-05-0.627D-05-0.272D-04-0.775D-04-0.261D-03-0.698D-03
 Coeff:     -0.856D-03 0.287D-02 0.189D-01 0.298D-02-0.215D+00 0.501D-01
 Coeff:      0.114D+01
 Gap=     0.251 Goal=   None    Shift=    0.000
 RMSDP=1.43D-06 MaxDP=1.05D-04 DE=-1.25D-08 OVMax= 6.71D-05

 Cycle  14  Pass 1  IDiag  1:
 RMSU=  3.87D-07    CP:  5.21D-01  2.93D+00  1.76D+00  8.47D-01  6.82D-01
                    CP:  9.61D-01  1.18D+00  1.30D+00  1.28D+00  1.83D+00
                    CP:  1.75D+00  1.53D+00  1.48D+00
 E= -3010.53953004469     Delta-E=       -0.000000002919 Rises=F Damp=F
 DIIS: error= 4.70D-07 at cycle  14 NSaved=  14.
 NSaved=14 IEnMin=14 EnMin= -3010.53953004469     IErMin=14 ErrMin= 4.70D-07
 ErrMax= 4.70D-07  0.00D+00 EMaxC= 1.00D-01 BMatC= 9.70D-11 BMatP= 4.19D-10
 IDIUse=1 WtCom= 1.00D+00 WtEn= 0.00D+00
 Coeff-Com:  0.237D-04-0.313D-04-0.991D-05-0.880D-04-0.101D-03-0.328D-03
 Coeff-Com: -0.267D-02-0.126D-02 0.303D-01 0.336D-01-0.193D+00-0.126D+00
 Coeff-Com:  0.436D+00 0.824D+00
 Coeff:      0.237D-04-0.313D-04-0.991D-05-0.880D-04-0.101D-03-0.328D-03
 Coeff:     -0.267D-02-0.126D-02 0.303D-01 0.336D-01-0.193D+00-0.126D+00
 Coeff:      0.436D+00 0.824D+00
 Gap=     0.251 Goal=   None    Shift=    0.000
 RMSDP=6.99D-07 MaxDP=5.81D-05 DE=-2.92D-09 OVMax= 2.86D-05

 Cycle  15  Pass 1  IDiag  1:
 RMSU=  1.39D-07    CP:  5.21D-01  2.93D+00  1.76D+00  8.47D-01  6.82D-01
                    CP:  9.61D-01  1.18D+00  1.30D+00  1.28D+00  1.87D+00
                    CP:  1.78D+00  1.69D+00  1.77D+00  1.17D+00
 E= -3010.53953004524     Delta-E=       -0.000000000557 Rises=F Damp=F
 DIIS: error= 2.65D-07 at cycle  15 NSaved=  15.
 NSaved=15 IEnMin=15 EnMin= -3010.53953004524     IErMin=15 ErrMin= 2.65D-07
 ErrMax= 2.65D-07  0.00D+00 EMaxC= 1.00D-01 BMatC= 1.45D-11 BMatP= 9.70D-11
 IDIUse=1 WtCom= 1.00D+00 WtEn= 0.00D+00
 Coeff-Com:  0.115D-04-0.152D-04 0.451D-05-0.905D-05 0.272D-04 0.962D-04
 Coeff-Com: -0.237D-03-0.473D-03 0.165D-02 0.648D-02 0.105D-01-0.317D-01
 Coeff-Com: -0.177D+00 0.191D+00 0.100D+01
 Coeff:      0.115D-04-0.152D-04 0.451D-05-0.905D-05 0.272D-04 0.962D-04
 Coeff:     -0.237D-03-0.473D-03 0.165D-02 0.648D-02 0.105D-01-0.317D-01
 Coeff:     -0.177D+00 0.191D+00 0.100D+01
 Gap=     0.251 Goal=   None    Shift=    0.000
 RMSDP=2.69D-07 MaxDP=2.13D-05 DE=-5.57D-10 OVMax= 1.17D-05

 Cycle  16  Pass 1  IDiag  1:
 RMSU=  7.08D-08    CP:  5.21D-01  2.93D+00  1.76D+00  8.47D-01  6.82D-01
                    CP:  9.60D-01  1.18D+00  1.30D+00  1.28D+00  1.88D+00
                    CP:  1.78D+00  1.75D+00  1.92D+00  1.33D+00  1.48D+00
 E= -3010.53953004533     Delta-E=       -0.000000000084 Rises=F Damp=F
 DIIS: error= 5.84D-08 at cycle  16 NSaved=  16.
 NSaved=16 IEnMin=16 EnMin= -3010.53953004533     IErMin=16 ErrMin= 5.84D-08
 ErrMax= 5.84D-08  0.00D+00 EMaxC= 1.00D-01 BMatC= 2.27D-12 BMatP= 1.45D-11
 IDIUse=1 WtCom= 1.00D+00 WtEn= 0.00D+00
 Coeff-Com:  0.375D-05-0.504D-05 0.322D-05 0.527D-05 0.199D-04 0.707D-04
 Coeff-Com:  0.215D-03-0.134D-03-0.329D-02-0.186D-02 0.248D-01 0.216D-02
 Coeff-Com: -0.103D+00-0.436D-01 0.255D+00 0.870D+00
 Coeff:      0.375D-05-0.504D-05 0.322D-05 0.527D-05 0.199D-04 0.707D-04
 Coeff:      0.215D-03-0.134D-03-0.329D-02-0.186D-02 0.248D-01 0.216D-02
 Coeff:     -0.103D+00-0.436D-01 0.255D+00 0.870D+00
 Gap=     0.251 Goal=   None    Shift=    0.000
 RMSDP=1.07D-07 MaxDP=9.59D-06 DE=-8.37D-11 OVMax= 4.37D-06

 Cycle  17  Pass 1  IDiag  1:
 RMSU=  2.04D-08    CP:  5.21D-01  2.93D+00  1.76D+00  8.47D-01  6.82D-01
                    CP:  9.60D-01  1.18D+00  1.30D+00  1.28D+00  1.88D+00
                    CP:  1.78D+00  1.77D+00  1.95D+00  1.39D+00  1.70D+00
                    CP:  9.95D-01
 E= -3010.53953004534     Delta-E=       -0.000000000010 Rises=F Damp=F
 DIIS: error= 5.04D-08 at cycle  17 NSaved=  17.
 NSaved=17 IEnMin=17 EnMin= -3010.53953004534     IErMin=17 ErrMin= 5.04D-08
 ErrMax= 5.04D-08  0.00D+00 EMaxC= 1.00D-01 BMatC= 4.24D-13 BMatP= 2.27D-12
 IDIUse=1 WtCom= 1.00D+00 WtEn= 0.00D+00
 Coeff-Com: -0.102D-05 0.134D-05 0.828D-07 0.322D-05 0.416D-05 0.112D-04
 Coeff-Com:  0.105D-03 0.381D-04-0.116D-02-0.131D-02 0.603D-02 0.488D-02
 Coeff-Com:  0.154D-02-0.438D-01-0.101D+00 0.285D+00 0.850D+00
 Coeff:     -0.102D-05 0.134D-05 0.828D-07 0.322D-05 0.416D-05 0.112D-04
 Coeff:      0.105D-03 0.381D-04-0.116D-02-0.131D-02 0.603D-02 0.488D-02
 Coeff:      0.154D-02-0.438D-01-0.101D+00 0.285D+00 0.850D+00
 Gap=     0.251 Goal=   None    Shift=    0.000
 RMSDP=2.45D-08 MaxDP=1.82D-06 DE=-1.00D-11 OVMax= 1.03D-06

 Cycle  18  Pass 1  IDiag  1:
 RMSU=  8.93D-09    CP:  5.21D-01  2.93D+00  1.76D+00  8.47D-01  6.82D-01
                    CP:  9.60D-01  1.18D+00  1.30D+00  1.28D+00  1.88D+00
                    CP:  1.78D+00  1.77D+00  1.96D+00  1.40D+00  1.76D+00
                    CP:  1.14D+00  1.21D+00
 E= -3010.53953004540     Delta-E=       -0.000000000062 Rises=F Damp=F
 DIIS: error= 9.60D-09 at cycle  18 NSaved=  18.
 NSaved=18 IEnMin=18 EnMin= -3010.53953004540     IErMin=18 ErrMin= 9.60D-09
 ErrMax= 9.60D-09  0.00D+00 EMaxC= 1.00D-01 BMatC= 5.79D-14 BMatP= 4.24D-13
 IDIUse=1 WtCom= 1.00D+00 WtEn= 0.00D+00
 Coeff-Com: -0.186D-06 0.248D-06-0.393D-06-0.961D-06-0.383D-05-0.120D-04
 Coeff-Com: -0.191D-04 0.442D-04 0.342D-03-0.561D-04-0.327D-02 0.168D-03
 Coeff-Com:  0.201D-01-0.188D-02-0.696D-01-0.869D-01 0.188D+00 0.953D+00
 Coeff:     -0.186D-06 0.248D-06-0.393D-06-0.961D-06-0.383D-05-0.120D-04
 Coeff:     -0.191D-04 0.442D-04 0.342D-03-0.561D-04-0.327D-02 0.168D-03
 Coeff:      0.201D-01-0.188D-02-0.696D-01-0.869D-01 0.188D+00 0.953D+00
 Gap=     0.251 Goal=   None    Shift=    0.000
 RMSDP=1.19D-08 MaxDP=4.68D-07 DE=-6.18D-11 OVMax= 4.78D-07

 Cycle  19  Pass 1  IDiag  1:
 RMSU=  3.04D-09    CP:  5.21D-01  2.93D+00  1.76D+00  8.47D-01  6.82D-01
                    CP:  9.60D-01  1.18D+00  1.30D+00  1.28D+00  1.88D+00
                    CP:  1.78D+00  1.78D+00  1.96D+00  1.40D+00  1.78D+00
                    CP:  1.15D+00  1.43D+00  1.33D+00
 E= -3010.53953004533     Delta-E=        0.000000000065 Rises=F Damp=F
 DIIS: error= 3.56D-09 at cycle  19 NSaved=  19.
 NSaved=19 IEnMin=18 EnMin= -3010.53953004540     IErMin=19 ErrMin= 3.56D-09
 ErrMax= 3.56D-09  0.00D+00 EMaxC= 1.00D-01 BMatC= 4.97D-15 BMatP= 5.79D-14
 IDIUse=1 WtCom= 1.00D+00 WtEn= 0.00D+00
 Large coefficients: NSaved= 19 BigCof=    0.00 CofMax=   10.00 Det=-1.18D-14
 Inversion failed.  Reducing to 18 matrices.
 Coeff-Com:  0.232D-08-0.501D-08-0.112D-06 0.114D-06-0.291D-06-0.106D-04
 Coeff-Com: -0.134D-04 0.105D-03 0.130D-03-0.458D-03-0.344D-03-0.256D-03
 Coeff-Com:  0.298D-02 0.837D-02-0.183D-01-0.756D-01-0.532D-01 0.114D+01
 Coeff:      0.232D-08-0.501D-08-0.112D-06 0.114D-06-0.291D-06-0.106D-04
 Coeff:     -0.134D-04 0.105D-03 0.130D-03-0.458D-03-0.344D-03-0.256D-03
 Coeff:      0.298D-02 0.837D-02-0.183D-01-0.756D-01-0.532D-01 0.114D+01
 Gap=     0.251 Goal=   None    Shift=    0.000
 RMSDP=4.09D-09 MaxDP=1.94D-07 DE= 6.55D-11 OVMax= 2.13D-07

 SCF Done:  E(RwB97XD) =  -3010.53953005     A.U. after   19 cycles
            NFock= 19  Conv=0.41D-08     -V/T= 2.0016
 KE= 3.005841428260D+03 PE=-8.631080681529D+03 EE= 1.876268126768D+03
 Leave Link  502 at Wed May  1 15:07:38 2024, MaxMem=  1207959552 cpu:            1065.6 elap:            1065.9
 (Enter /software/gaussian/g16-c01/sse4/g16/l601.exe)
 Copying SCF densities to generalized density rwf, IOpCl= 0 IROHF=0.

 **********************************************************************

            Population analysis using the SCF Density.

 **********************************************************************

 Alpha  occ. eigenvalues -- -483.30053 -62.85066 -56.64770 -56.64182 -56.64179
 Alpha  occ. eigenvalues --  -19.45502 -19.45458 -14.85006 -10.57357 -10.57184
 Alpha  occ. eigenvalues --  -10.56663 -10.56453 -10.56325 -10.53012  -9.00862
 Alpha  occ. eigenvalues --   -6.83571  -6.81649  -6.81633  -2.93468  -2.92959
 Alpha  occ. eigenvalues --   -2.92944  -2.91407  -2.91406  -1.49276  -1.32257
 Alpha  occ. eigenvalues --   -1.22114  -1.13368  -1.11401  -1.03395  -1.00654
 Alpha  occ. eigenvalues --   -0.94914  -0.90514  -0.84953  -0.80402  -0.80202
 Alpha  occ. eigenvalues --   -0.79589  -0.77766  -0.75709  -0.75488  -0.71703
 Alpha  occ. eigenvalues --   -0.68900  -0.67181  -0.63158  -0.59443  -0.56768
 Alpha  occ. eigenvalues --   -0.55815  -0.55259  -0.54947  -0.54139
 Alpha virt. eigenvalues --   -0.29028  -0.20849  -0.15022  -0.12719  -0.09908
 Alpha virt. eigenvalues --   -0.06732  -0.06203  -0.04708  -0.04447  -0.02991
 Alpha virt. eigenvalues --   -0.01876  -0.01640  -0.00748  -0.00211   0.00733
 Alpha virt. eigenvalues --    0.01630   0.02710   0.02906   0.03638   0.03812
 Alpha virt. eigenvalues --    0.04651   0.05025   0.05599   0.06096   0.06788
 Alpha virt. eigenvalues --    0.07257   0.07689   0.07876   0.09031   0.09679
 Alpha virt. eigenvalues --    0.10320   0.11148   0.11377   0.12357   0.12879
 Alpha virt. eigenvalues --    0.13288   0.13517   0.14203   0.15693   0.16002
 Alpha virt. eigenvalues --    0.16786   0.17076   0.18188   0.18518   0.19605
 Alpha virt. eigenvalues --    0.20488   0.21431   0.21789   0.22575   0.24809
 Alpha virt. eigenvalues --    0.25674   0.28101   0.28453   0.30805   0.32880
 Alpha virt. eigenvalues --    0.33340   0.33918   0.35146   0.35567   0.36631
 Alpha virt. eigenvalues --    0.37490   0.37832   0.39724   0.41381   0.42262
 Alpha virt. eigenvalues --    0.43221   0.43789   0.44682   0.46662   0.47556
 Alpha virt. eigenvalues --    0.48093   0.50863   0.51349   0.52701   0.53648
 Alpha virt. eigenvalues --    0.55004   0.55734   0.57341   0.57866   0.58985
 Alpha virt. eigenvalues --    0.61520   0.63028   0.65091   0.67441   0.69218
 Alpha virt. eigenvalues --    0.70591   0.71994   0.72379   0.73727   0.74043
 Alpha virt. eigenvalues --    0.75188   0.79385   0.80472   0.84010   0.85587
 Alpha virt. eigenvalues --    0.86873   0.88221   0.92263   0.93514   0.98874
 Alpha virt. eigenvalues --    0.99977   1.01221   1.05149   1.05641   1.06978
 Alpha virt. eigenvalues --    1.09677   1.11113   1.12226   1.12778   1.14668
 Alpha virt. eigenvalues --    1.22337   1.24865   1.27089   1.33205   1.36830
 Alpha virt. eigenvalues --    1.37183   1.38679   1.45685   1.54735   1.57431
 Alpha virt. eigenvalues --    1.58809   1.59230   1.60906   1.62856   1.66738
 Alpha virt. eigenvalues --    1.69487   1.70202   1.73779   1.75609   1.79323
 Alpha virt. eigenvalues --    1.81545   1.85575   1.87667   1.94557   1.96663
 Alpha virt. eigenvalues --    1.98496   2.03258   2.04211   2.07616   2.08628
 Alpha virt. eigenvalues --    2.10396   2.15070   2.20521   2.22848   2.28929
 Alpha virt. eigenvalues --    2.37909   2.41622   2.43066   2.44116   2.52736
 Alpha virt. eigenvalues --    2.56964   2.63282   2.66388   2.68535   2.71928
 Alpha virt. eigenvalues --    2.73867   2.76863   2.77615   2.81333   2.82213
 Alpha virt. eigenvalues --    2.94022   2.96874   3.00993   3.06312   3.09308
 Alpha virt. eigenvalues --    3.13255   3.14902   3.19103   3.23854   3.24732
 Alpha virt. eigenvalues --    3.27677   3.39433   3.47616   3.51513   3.54910
 Alpha virt. eigenvalues --    3.57254   3.70288   3.74445   3.82466   3.87550
 Alpha virt. eigenvalues --    4.10180   4.10402   4.17803   4.23059   4.43849
 Alpha virt. eigenvalues --    4.44674   4.57839   4.60217   4.93499   4.96199
 Alpha virt. eigenvalues --    5.04822   5.09007   5.63159   6.16092   6.65871
 Alpha virt. eigenvalues --    7.48854   7.50432   7.60160  23.21634  23.61613
 Alpha virt. eigenvalues --   23.70499  23.79638  23.96200  24.01719  35.32952
 Alpha virt. eigenvalues --   47.92380  49.85908  49.94717 289.81694 289.83361
 Alpha virt. eigenvalues --  289.957921020.92780
          Condensed to atoms (all electrons):
               1          2          3          4          5          6
     1  C    9.229106  -2.767245   0.382750  -1.796971  -0.601332   0.305979
     2  C   -2.767245  13.575592  -2.061976  -2.180244   0.702163  -0.015785
     3  C    0.382750  -2.061976  13.633977  -3.686977  -1.426128   0.021924
     4  C   -1.796971  -2.180244  -3.686977  15.113725   1.535412   0.012971
     5  C   -0.601332   0.702163  -1.426128   1.535412   7.509626   0.023233
     6  H    0.305979  -0.015785   0.021924   0.012971   0.023233   0.364186
     7  H    0.079768   0.211795   0.097195  -0.039650  -0.023636  -0.002272
     8  H    0.002293  -0.003359   0.058622   0.266782  -0.016406  -0.000000
     9  H    0.021715  -0.008680   0.001795   0.000505   0.308369  -0.002483
    10  N   -0.186736   0.388636  -0.950832   0.340400   0.019250  -0.000675
    11  O    0.003748  -0.058610  -0.267619   0.014820  -0.052827  -0.000022
    12  O    0.352722  -0.072306  -0.278180  -0.092406  -0.046127   0.000022
    13  C    1.523183  -2.240270   1.132561  -3.748117  -1.971658  -0.011463
    14  H   -0.007696  -0.013453   0.013436  -0.105805  -0.027560  -0.000068
    15  Br   0.047963  -0.010244   0.084541   0.052430   0.087764  -0.000399
               7          8          9         10         11         12
     1  C    0.079768   0.002293   0.021715  -0.186736   0.003748   0.352722
     2  C    0.211795  -0.003359  -0.008680   0.388636  -0.058610  -0.072306
     3  C    0.097195   0.058622   0.001795  -0.950832  -0.267619  -0.278180
     4  C   -0.039650   0.266782   0.000505   0.340400   0.014820  -0.092406
     5  C   -0.023636  -0.016406   0.308369   0.019250  -0.052827  -0.046127
     6  H   -0.002272  -0.000000  -0.002483  -0.000675  -0.000022   0.000022
     7  H    0.324012  -0.000003   0.000001  -0.028965  -0.001713   0.024615
     8  H   -0.000003   0.276878   0.000112  -0.021557   0.020749  -0.000695
     9  H    0.000001   0.000112   0.331324   0.000423   0.000007   0.000006
    10  N   -0.028965  -0.021557   0.000423   7.356010   0.215182   0.126016
    11  O   -0.001713   0.020749   0.000007   0.215182   7.775802   0.000370
    12  O    0.024615  -0.000695   0.000006   0.126016   0.000370   7.944167
    13  C    0.018198   0.022475   0.004625  -0.152783   0.284050   0.050625
    14  H   -0.000016  -0.003560  -0.005711  -0.000215  -0.000313  -0.000064
    15  Br  -0.000123   0.001864  -0.000948   0.001212   0.000563   0.001997
              13         14         15
     1  C    1.523183  -0.007696   0.047963
     2  C   -2.240270  -0.013453  -0.010244
     3  C    1.132561   0.013436   0.084541
     4  C   -3.748117  -0.105805   0.052430
     5  C   -1.971658  -0.027560   0.087764
     6  H   -0.011463  -0.000068  -0.000399
     7  H    0.018198  -0.000016  -0.000123
     8  H    0.022475  -0.003560   0.001864
     9  H    0.004625  -0.005711  -0.000948
    10  N   -0.152783  -0.000215   0.001212
    11  O    0.284050  -0.000313   0.000563
    12  O    0.050625  -0.000064   0.001997
    13  C   11.216438   0.440890  -0.083365
    14  H    0.440890   0.324473  -0.035560
    15  Br  -0.083365  -0.035560  34.630843
 Mulliken charges:
               1
     1  C   -0.589247
     2  C    0.553985
     3  C   -0.755088
     4  C    0.313125
     5  C   -0.020144
     6  H    0.304853
     7  H    0.340793
     8  H    0.395805
     9  H    0.348939
    10  N   -0.105366
    11  O    0.065811
    12  O   -0.010761
    13  C   -0.485390
    14  H    0.421223
    15  Br   0.221462
 Sum of Mulliken charges =   1.00000
 Mulliken charges with hydrogens summed into heavy atoms:
               1
     1  C   -0.284394
     2  C    0.894778
     3  C   -0.755088
     4  C    0.708930
     5  C    0.328795
    10  N   -0.105366
    11  O    0.065811
    12  O   -0.010761
    13  C   -0.064167
    15  Br   0.221462
 Electronic spatial extent (au):  <R**2>=           2797.6268
 Charge=              1.0000 electrons
 Dipole moment (field-independent basis, Debye):
    X=             -1.0528    Y=             -2.5450    Z=             -0.2802  Tot=              2.7683
 Quadrupole moment (field-independent basis, Debye-Ang):
   XX=            -71.6080   YY=            -51.1808   ZZ=            -62.0616
   XY=             -0.8810   XZ=              1.3320   YZ=              2.5588
 Traceless Quadrupole moment (field-independent basis, Debye-Ang):
   XX=             -9.9912   YY=             10.4360   ZZ=             -0.4448
   XY=             -0.8810   XZ=              1.3320   YZ=              2.5588
 Octapole moment (field-independent basis, Debye-Ang**2):
  XXX=           -301.6152  YYY=             75.9353  ZZZ=             75.6293  XYY=            -77.5544
  XXY=             19.5802  XXZ=             31.9703  XZZ=            -78.7594  YZZ=             13.0270
  YYZ=             22.6830  XYZ=             -3.8201
 Hexadecapole moment (field-independent basis, Debye-Ang**3):
 XXXX=          -2287.1642 YYYY=           -667.0197 ZZZZ=           -343.0610 XXXY=           -104.6767
 XXXZ=            -20.7199 YYYX=            -66.3958 YYYZ=           -147.2979 ZZZX=            -16.9549
 ZZZY=           -130.1116 XXYY=           -456.9423 XXZZ=           -369.9123 YYZZ=           -157.2961
 XXYZ=            -52.9086 YYXZ=             -0.3340 ZZXY=             -8.6768
 N-N= 7.384315964556D+02 E-N=-8.631080680943D+03  KE= 3.005841428260D+03
 No NMR shielding tensors so no spin-rotation constants.
 Leave Link  601 at Wed May  1 15:07:46 2024, MaxMem=  1207959552 cpu:               7.5 elap:               7.5
 (Enter /software/gaussian/g16-c01/sse4/g16/l9999.exe)
 Unable to Open any file for archive entry.
 1\1\GINC-BHX0011\SP\RwB97XD\6-311+G(d)\C6H5Br1N1O2(1+)\BWEIGHT\01-May-
 2024\0\\#P wB97XD/6-311+G* NoSymm #P Field=Y+68\\TitleMe\\1,1\C,0,0.02
 95,1.3397,0.0682\C,0,1.4348,1.2867,0.0064\C,0,2.1118,0.0511,-0.0054\C,
 0,1.4451,-1.1372,0.0312\C,0,-0.6879,0.1682,0.11\H,0,-0.4713,2.2984,0.0
 781\H,0,2.0273,2.1965,-0.0322\H,0,1.9897,-2.0764,0.0232\H,0,-1.7716,0.
 1804,0.1582\N,0,3.5864,0.051,-0.0675\O,0,4.1471,-1.0597,-0.0881\O,0,4.
 145,1.1639,-0.0901\C,0,-0.0236,-1.1458,0.0835\H,0,-0.4367,-1.8725,0.78
 89\Br,0,-0.5359,-1.8697,-1.7408\\Version=ES64L-G16RevC.01\HF=-3010.539
 53\RMSD=4.088e-09\Dipole=-2.3207287,0.1468124,1.0359507\Quadrupole=-7.
 4282178,7.7589359,-0.3307181,-0.6550329,0.990287,1.9024182\PG=C01 [X(C
 6H5Br1N1O2)]\\@
 The archive entry for this job was punched.


 TO DETECT ERRORS, THE PROGRAMMER MUST HAVE A CONNIVING MIND,
 ONE THAT DELIGHTS IN UNCOVERING FLAWS WHERE BEAUTY AND
 PERFECTION WERE ONCE THOUGHT TO LIE.

             -- THE PSYCHOLOGY OF COMPUTER PROGRAMMING
                GERALD M. WEINBERG
 Job cpu time:       0 days  0 hours 18 minutes 53.2 seconds.
 Elapsed time:       0 days  0 hours 18 minutes 53.4 seconds.
 File lengths (MBytes):  RWF=     40 Int=      0 D2E=      0 Chk=     32 Scr=      1
 Normal termination of Gaussian 16 at Wed May  1 15:07:47 2024.
