 Entering Gaussian System, Link 0=g16
 Initial command:
 /software/gaussian/g16-a03/l1.exe "/local_scratch/6484821/Gau-29888.inp" -scrdir="/local_scratch/6484821/"
 Entering Link 1 = /software/gaussian/g16-a03/l1.exe PID=     29927.
  
 Copyright (c) 1988,1990,1992,1993,1995,1998,2003,2009,2016,
            Gaussian, Inc.  All Rights Reserved.
  
 This is part of the Gaussian(R) 16 program.  It is based on
 the Gaussian(R) 09 system (copyright 2009, Gaussian, Inc.),
 the Gaussian(R) 03 system (copyright 2003, Gaussian, Inc.),
 the Gaussian(R) 98 system (copyright 1998, Gaussian, Inc.),
 the Gaussian(R) 94 system (copyright 1995, Gaussian, Inc.),
 the Gaussian 92(TM) system (copyright 1992, Gaussian, Inc.),
 the Gaussian 90(TM) system (copyright 1990, Gaussian, Inc.),
 the Gaussian 88(TM) system (copyright 1988, Gaussian, Inc.),
 the Gaussian 86(TM) system (copyright 1986, Carnegie Mellon
 University), and the Gaussian 82(TM) system (copyright 1983,
 Carnegie Mellon University). Gaussian is a federally registered
 trademark of Gaussian, Inc.
  
 This software contains proprietary and confidential information,
 including trade secrets, belonging to Gaussian, Inc.
  
 This software is provided under written license and may be
 used, copied, transmitted, or stored only in accord with that
 written license.
  
 The following legend is applicable only to US Government
 contracts under FAR:
  
                    RESTRICTED RIGHTS LEGEND
  
 Use, reproduction and disclosure by the US Government is
 subject to restrictions as set forth in subparagraphs (a)
 and (c) of the Commercial Computer Software - Restricted
 Rights clause in FAR 52.227-19.
  
 Gaussian, Inc.
 340 Quinnipiac St., Bldg. 40, Wallingford CT 06492
  
  
 ---------------------------------------------------------------
 Warning -- This program may not be used in any manner that
 competes with the business of Gaussian, Inc. or will provide
 assistance to any competitor of Gaussian, Inc.  The licensee
 of this program is prohibited from giving any competitor of
 Gaussian, Inc. access to this program.  By using this program,
 the user acknowledges that Gaussian, Inc. is engaged in the
 business of creating and licensing software in the field of
 computational chemistry and represents and warrants to the
 licensee that it is not a competitor of Gaussian, Inc. and that
 it will not use this program in any manner prohibited above.
 ---------------------------------------------------------------
  

 Cite this work as:
 Gaussian 16, Revision A.03,
 M. J. Frisch, G. W. Trucks, H. B. Schlegel, G. E. Scuseria, 
 M. A. Robb, J. R. Cheeseman, G. Scalmani, V. Barone, 
 G. A. Petersson, H. Nakatsuji, X. Li, M. Caricato, A. V. Marenich, 
 J. Bloino, B. G. Janesko, R. Gomperts, B. Mennucci, H. P. Hratchian, 
 J. V. Ortiz, A. F. Izmaylov, J. L. Sonnenberg, D. Williams-Young, 
 F. Ding, F. Lipparini, F. Egidi, J. Goings, B. Peng, A. Petrone, 
 T. Henderson, D. Ranasinghe, V. G. Zakrzewski, J. Gao, N. Rega, 
 G. Zheng, W. Liang, M. Hada, M. Ehara, K. Toyota, R. Fukuda, 
 J. Hasegawa, M. Ishida, T. Nakajima, Y. Honda, O. Kitao, H. Nakai, 
 T. Vreven, K. Throssell, J. A. Montgomery, Jr., J. E. Peralta, 
 F. Ogliaro, M. J. Bearpark, J. J. Heyd, E. N. Brothers, K. N. Kudin, 
 V. N. Staroverov, T. A. Keith, R. Kobayashi, J. Normand, 
 K. Raghavachari, A. P. Rendell, J. C. Burant, S. S. Iyengar, 
 J. Tomasi, M. Cossi, J. M. Millam, M. Klene, C. Adamo, R. Cammi, 
 J. W. Ochterski, R. L. Martin, K. Morokuma, O. Farkas, 
 J. B. Foresman, and D. J. Fox, Gaussian, Inc., Wallingford CT, 2016.
 
 ******************************************
 Gaussian 16:  ES64L-G16RevA.03 25-Dec-2016
                17-Sep-2021 
 ******************************************
 %chk=geometry.chk
 %mem=2GB
 %nprocshared=1
 Will use up to    1 processors via shared memory.
 --------------------------------------------------------------------
 #p B3LYP/6-311+G** #p TD=(singlets,nstates=30)IOp(6/8=3) IOp(9/40=4)
 --------------------------------------------------------------------
 1/38=1,172=1/1;
 2/12=2,17=6,18=5,40=1/2;
 3/5=4,6=6,7=111,11=9,25=1,30=1,74=-5/1,2,3,8;
 4//1;
 5/5=2,38=5/2;
 8/6=1,10=2,108=30/1;
 9/40=4,41=30,42=1,48=1,70=2/14;
 6/7=2,8=3,9=2,10=2/1;
 99/5=1,9=1/99;
 Leave Link    1 at Fri Sep 17 10:52:05 2021, MaxMem=   268435456 cpu:               0.0 elap:               0.5
 (Enter /software/gaussian/g16-a03/l101.exe)
 ------------------------------
 Scan Step 90, Bond Length 0.95
 ------------------------------
 Symbolic Z-matrix:
 Charge =  0 Multiplicity = 1
 C                     0.        0.       -0.52736 
 H                     0.        0.93726  -1.11871 
 H                     0.       -0.93726  -1.11871 
 O                     0.        0.        0.42264 
 
 ITRead=  0  0  0  0
 MicOpt= -1 -1 -1 -1
 NAtoms=      4 NQM=        4 NQMF=       0 NMMI=      0 NMMIF=      0
                NMic=       0 NMicF=      0.
                    Isotopes and Nuclear Properties:
 (Nuclear quadrupole moments (NQMom) in fm**2, nuclear magnetic moments (NMagM)
  in nuclear magnetons)

  Atom         1           2           3           4
 IAtWgt=          12           1           1          16
 AtmWgt=  12.0000000   1.0078250   1.0078250  15.9949146
 NucSpn=           0           1           1           0
 AtZEff=  -0.0000000  -0.0000000  -0.0000000  -0.0000000
 NQMom=    0.0000000   0.0000000   0.0000000   0.0000000
 NMagM=    0.0000000   2.7928460   2.7928460   0.0000000
 AtZNuc=   6.0000000   1.0000000   1.0000000   8.0000000
 Leave Link  101 at Fri Sep 17 10:52:06 2021, MaxMem=   268435456 cpu:               0.1 elap:               0.1
 (Enter /software/gaussian/g16-a03/l202.exe)
                          Input orientation:                          
 ---------------------------------------------------------------------
 Center     Atomic      Atomic             Coordinates (Angstroms)
 Number     Number       Type             X           Y           Z
 ---------------------------------------------------------------------
      1          6           0        0.000000    0.000000   -0.527360
      2          1           0        0.000000    0.937260   -1.118710
      3          1           0        0.000000   -0.937260   -1.118710
      4          8           0        0.000000    0.000000    0.422640
 ---------------------------------------------------------------------
                    Distance matrix (angstroms):
                    1          2          3          4
     1  C    0.000000
     2  H    1.108220   0.000000
     3  H    1.108220   1.874520   0.000000
     4  O    0.950000   1.803945   1.803945   0.000000
 Stoichiometry    CH2O
 Framework group  C2V[C2(CO),SGV(H2)]
 Deg. of freedom     3
 Full point group                 C2V     NOp   4
 Largest Abelian subgroup         C2V     NOp   4
 Largest concise Abelian subgroup C2      NOp   2
                         Standard orientation:                         
 ---------------------------------------------------------------------
 Center     Atomic      Atomic             Coordinates (Angstroms)
 Number     Number       Type             X           Y           Z
 ---------------------------------------------------------------------
      1          6           0        0.000000    0.000000   -0.401081
      2          1           0        0.000000    0.937260   -0.992431
      3          1           0       -0.000000   -0.937260   -0.992431
      4          8           0        0.000000    0.000000    0.548919
 ---------------------------------------------------------------------
 Rotational constants (GHZ):         285.4183527          58.7223916          48.7023073
 Leave Link  202 at Fri Sep 17 10:52:06 2021, MaxMem=   268435456 cpu:               0.0 elap:               0.0
 (Enter /software/gaussian/g16-a03/l301.exe)
 Standard basis: 6-311+G(d,p) (5D, 7F)
 Ernie: Thresh=  0.10000D-02 Tol=  0.10000D-05 Strict=F.
 There are    29 symmetry adapted cartesian basis functions of A1  symmetry.
 There are     3 symmetry adapted cartesian basis functions of A2  symmetry.
 There are    11 symmetry adapted cartesian basis functions of B1  symmetry.
 There are    15 symmetry adapted cartesian basis functions of B2  symmetry.
 There are    27 symmetry adapted basis functions of A1  symmetry.
 There are     3 symmetry adapted basis functions of A2  symmetry.
 There are    11 symmetry adapted basis functions of B1  symmetry.
 There are    15 symmetry adapted basis functions of B2  symmetry.
    56 basis functions,    88 primitive gaussians,    58 cartesian basis functions
     8 alpha electrons        8 beta electrons
       nuclear repulsion energy        37.4432112560 Hartrees.
 IExCor=  402 DFT=T Ex+Corr=B3LYP ExCW=0 ScaHFX=  0.200000
 ScaDFX=  0.800000  0.720000  1.000000  0.810000 ScalE2=  1.000000  1.000000
 IRadAn=      5 IRanWt=     -1 IRanGd=            0 ICorTp=0 IEmpDi=  4
 NAtoms=    4 NActive=    4 NUniq=    3 SFac= 1.78D+00 NAtFMM=   60 NAOKFM=F Big=F
 Integral buffers will be    131072 words long.
 Regular integral format.
 Two-electron integral symmetry is turned on.
 Leave Link  301 at Fri Sep 17 10:52:06 2021, MaxMem=   268435456 cpu:               0.1 elap:               0.1
 (Enter /software/gaussian/g16-a03/l302.exe)
 NPDir=0 NMtPBC=     1 NCelOv=     1 NCel=       1 NClECP=     1 NCelD=      1
         NCelK=      1 NCelE2=     1 NClLst=     1 CellRange=     0.0.
 One-electron integrals computed using PRISM.
 One-electron integral symmetry used in STVInt
 NBasis=    56 RedAO= T EigKep=  1.64D-03  NBF=    27     3    11    15
 NBsUse=    56 1.00D-06 EigRej= -1.00D+00 NBFU=    27     3    11    15
 Precomputing XC quadrature grid using
 IXCGrd= 4 IRadAn=           5 IRanWt=          -1 IRanGd=           0 AccXCQ= 0.00D+00.
 Generated NRdTot=       0 NPtTot=           0 NUsed=           0 NTot=          32
 NSgBfM=    58    58    58    58    58 MxSgAt=     4 MxSgA2=     4.
 Leave Link  302 at Fri Sep 17 10:52:06 2021, MaxMem=   268435456 cpu:               0.1 elap:               0.1
 (Enter /software/gaussian/g16-a03/l303.exe)
 DipDrv:  MaxL=1.
 Leave Link  303 at Fri Sep 17 10:52:06 2021, MaxMem=   268435456 cpu:               0.0 elap:               0.0
 (Enter /software/gaussian/g16-a03/l308.exe)
 Leave Link  308 at Fri Sep 17 10:52:06 2021, MaxMem=   268435456 cpu:               0.0 elap:               0.0
 (Enter /software/gaussian/g16-a03/l401.exe)
 ExpMin= 4.38D-02 ExpMax= 8.59D+03 ExpMxC= 1.30D+03 IAcc=3 IRadAn=         5 AccDes= 0.00D+00
 Harris functional with IExCor=  402 and IRadAn=       5 diagonalized for initial guess.
 HarFok:  IExCor=  402 AccDes= 0.00D+00 IRadAn=         5 IDoV= 1 UseB2=F ITyADJ=14
 ICtDFT=  3500011 ScaDFX=  1.000000  1.000000  1.000000  1.000000
 FoFCou: FMM=F IPFlag=           0 FMFlag=      100000 FMFlg1=           0
         NFxFlg=           0 DoJE=T BraDBF=F KetDBF=T FulRan=T
         wScrn=  0.000000 ICntrl=       500 IOpCl=  0 I1Cent=   200000004 NGrid=           0
         NMat0=    1 NMatS0=      1 NMatT0=    0 NMatD0=    1 NMtDS0=    0 NMtDT0=    0
 Petite list used in FoFCou.
 Harris En= -114.422569680997    
 JPrj=0 DoOrth=F DoCkMO=F.
 Initial guess orbital symmetries:
       Occupied  (A1) (A1) (A1) (B2) (A1) (B1) (A1) (B2)
       Virtual   (B1) (A1) (A1) (B2) (B1) (A1) (A1) (B2) (B2) (B1)
                 (A1) (A1) (A1) (B1) (B2) (B2) (A1) (A1) (A2) (B1)
                 (B2) (A1) (B1) (A1) (B2) (A1) (B2) (A2) (B1) (A1)
                 (A1) (A1) (B2) (B2) (B1) (A1) (A1) (A2) (A1) (B2)
                 (B1) (B2) (A1) (B1) (B2) (A1) (A1) (A1)
 The electronic state of the initial guess is 1-A1.
 Leave Link  401 at Fri Sep 17 10:52:06 2021, MaxMem=   268435456 cpu:               0.3 elap:               0.3
 (Enter /software/gaussian/g16-a03/l502.exe)
 Keep R1 ints in memory in symmetry-blocked form, NReq=2159909.
 FoFCou: FMM=F IPFlag=           0 FMFlag=           0 FMFlg1=           0
         NFxFlg=           0 DoJE=F BraDBF=F KetDBF=F FulRan=T
         wScrn=  0.000000 ICntrl=       600 IOpCl=  0 I1Cent=           0 NGrid=           0
         NMat0=    1 NMatS0=   1596 NMatT0=    0 NMatD0=    1 NMtDS0=    0 NMtDT0=    0
 Petite list used in FoFCou.
 Closed shell SCF:
 Using DIIS extrapolation, IDIIS=  1040.
 NGot=   268435456 LenX=   268074384 LenY=   268070579
 Requested convergence on RMS density matrix=1.00D-08 within 128 cycles.
 Requested convergence on MAX density matrix=1.00D-06.
 Requested convergence on             energy=1.00D-06.
 No special actions if energy rises.

 Cycle   1  Pass 1  IDiag  1:
 E= -114.249707707460    
 DIIS: error= 6.47D-02 at cycle   1 NSaved=   1.
 NSaved= 1 IEnMin= 1 EnMin= -114.249707707460     IErMin= 1 ErrMin= 6.47D-02
 ErrMax= 6.47D-02  0.00D+00 EMaxC= 1.00D-01 BMatC= 1.73D-01 BMatP= 1.73D-01
 IDIUse=3 WtCom= 3.53D-01 WtEn= 6.47D-01
 Coeff-Com:  0.100D+01
 Coeff-En:   0.100D+01
 Coeff:      0.100D+01
 Gap=     0.166 Goal=   None    Shift=    0.000
 GapD=    0.166 DampG=1.000 DampE=0.500 DampFc=0.5000 IDamp=-1.
 Damping current iteration by 5.00D-01
 RMSDP=1.20D-02 MaxDP=1.49D-01              OVMax= 2.51D-01

 Cycle   2  Pass 1  IDiag  1:
 E= -114.286788147906     Delta-E=       -0.037080440446 Rises=F Damp=T
 DIIS: error= 1.75D-02 at cycle   2 NSaved=   2.
 NSaved= 2 IEnMin= 2 EnMin= -114.286788147906     IErMin= 2 ErrMin= 1.75D-02
 ErrMax= 1.75D-02  0.00D+00 EMaxC= 1.00D-01 BMatC= 1.09D-02 BMatP= 1.73D-01
 IDIUse=3 WtCom= 8.25D-01 WtEn= 1.75D-01
 Coeff-Com:  0.129D+00 0.871D+00
 Coeff-En:   0.282D+00 0.718D+00
 Coeff:      0.156D+00 0.844D+00
 Gap=     0.278 Goal=   None    Shift=    0.000
 RMSDP=2.89D-03 MaxDP=3.66D-02 DE=-3.71D-02 OVMax= 1.49D-01

 Cycle   3  Pass 1  IDiag  1:
 E= -114.355791233130     Delta-E=       -0.069003085224 Rises=F Damp=F
 DIIS: error= 1.32D-02 at cycle   3 NSaved=   3.
 NSaved= 3 IEnMin= 3 EnMin= -114.355791233130     IErMin= 3 ErrMin= 1.32D-02
 ErrMax= 1.32D-02  0.00D+00 EMaxC= 1.00D-01 BMatC= 5.81D-03 BMatP= 1.09D-02
 IDIUse=3 WtCom= 8.68D-01 WtEn= 1.32D-01
 Coeff-Com:  0.516D-02 0.417D+00 0.578D+00
 Coeff-En:   0.000D+00 0.000D+00 0.100D+01
 Coeff:      0.448D-02 0.362D+00 0.634D+00
 Gap=     0.255 Goal=   None    Shift=    0.000
 RMSDP=1.03D-03 MaxDP=1.75D-02 DE=-6.90D-02 OVMax= 3.16D-02

 Cycle   4  Pass 1  IDiag  1:
 E= -114.359514557997     Delta-E=       -0.003723324867 Rises=F Damp=F
 DIIS: error= 4.15D-03 at cycle   4 NSaved=   4.
 NSaved= 4 IEnMin= 4 EnMin= -114.359514557997     IErMin= 4 ErrMin= 4.15D-03
 ErrMax= 4.15D-03  0.00D+00 EMaxC= 1.00D-01 BMatC= 5.74D-04 BMatP= 5.81D-03
 IDIUse=3 WtCom= 9.58D-01 WtEn= 4.15D-02
 Coeff-Com: -0.148D-01 0.572D-01 0.282D+00 0.676D+00
 Coeff-En:   0.000D+00 0.000D+00 0.269D-01 0.973D+00
 Coeff:     -0.142D-01 0.548D-01 0.271D+00 0.688D+00
 Gap=     0.256 Goal=   None    Shift=    0.000
 RMSDP=2.82D-04 MaxDP=6.32D-03 DE=-3.72D-03 OVMax= 6.28D-03

 Cycle   5  Pass 1  IDiag  1:
 E= -114.359963547411     Delta-E=       -0.000448989415 Rises=F Damp=F
 DIIS: error= 2.00D-04 at cycle   5 NSaved=   5.
 NSaved= 5 IEnMin= 5 EnMin= -114.359963547411     IErMin= 5 ErrMin= 2.00D-04
 ErrMax= 2.00D-04  0.00D+00 EMaxC= 1.00D-01 BMatC= 2.28D-06 BMatP= 5.74D-04
 IDIUse=3 WtCom= 9.98D-01 WtEn= 2.00D-03
 Coeff-Com: -0.538D-03-0.207D-02 0.233D-01 0.108D+00 0.871D+00
 Coeff-En:   0.000D+00 0.000D+00 0.000D+00 0.000D+00 0.100D+01
 Coeff:     -0.536D-03-0.206D-02 0.233D-01 0.108D+00 0.871D+00
 Gap=     0.256 Goal=   None    Shift=    0.000
 RMSDP=3.46D-05 MaxDP=4.33D-04 DE=-4.49D-04 OVMax= 5.79D-04

 Cycle   6  Pass 1  IDiag  1:
 E= -114.359965844255     Delta-E=       -0.000002296844 Rises=F Damp=F
 DIIS: error= 1.61D-05 at cycle   6 NSaved=   6.
 NSaved= 6 IEnMin= 6 EnMin= -114.359965844255     IErMin= 6 ErrMin= 1.61D-05
 ErrMax= 1.61D-05  0.00D+00 EMaxC= 1.00D-01 BMatC= 8.78D-09 BMatP= 2.28D-06
 IDIUse=1 WtCom= 1.00D+00 WtEn= 0.00D+00
 Coeff-Com:  0.221D-03-0.642D-03-0.966D-03 0.231D-02 0.508D-01 0.948D+00
 Coeff:      0.221D-03-0.642D-03-0.966D-03 0.231D-02 0.508D-01 0.948D+00
 Gap=     0.256 Goal=   None    Shift=    0.000
 RMSDP=1.76D-06 MaxDP=1.64D-05 DE=-2.30D-06 OVMax= 3.37D-05

 Cycle   7  Pass 1  IDiag  1:
 E= -114.359965852191     Delta-E=       -0.000000007936 Rises=F Damp=F
 DIIS: error= 1.25D-06 at cycle   7 NSaved=   7.
 NSaved= 7 IEnMin= 7 EnMin= -114.359965852191     IErMin= 7 ErrMin= 1.25D-06
 ErrMax= 1.25D-06  0.00D+00 EMaxC= 1.00D-01 BMatC= 4.16D-11 BMatP= 8.78D-09
 IDIUse=1 WtCom= 1.00D+00 WtEn= 0.00D+00
 Coeff-Com:  0.510D-07-0.365D-05-0.116D-03-0.668D-03-0.606D-02 0.103D-01
 Coeff-Com:  0.997D+00
 Coeff:      0.510D-07-0.365D-05-0.116D-03-0.668D-03-0.606D-02 0.103D-01
 Coeff:      0.997D+00
 Gap=     0.256 Goal=   None    Shift=    0.000
 RMSDP=2.31D-07 MaxDP=2.42D-06 DE=-7.94D-09 OVMax= 3.74D-06

 Cycle   8  Pass 1  IDiag  1:
 E= -114.359965852239     Delta-E=       -0.000000000048 Rises=F Damp=F
 DIIS: error= 2.02D-07 at cycle   8 NSaved=   8.
 NSaved= 8 IEnMin= 8 EnMin= -114.359965852239     IErMin= 8 ErrMin= 2.02D-07
 ErrMax= 2.02D-07  0.00D+00 EMaxC= 1.00D-01 BMatC= 1.29D-12 BMatP= 4.16D-11
 IDIUse=1 WtCom= 1.00D+00 WtEn= 0.00D+00
 Coeff-Com: -0.277D-05 0.474D-05 0.927D-05-0.660D-04-0.837D-03-0.716D-02
 Coeff-Com:  0.840D-01 0.924D+00
 Coeff:     -0.277D-05 0.474D-05 0.927D-05-0.660D-04-0.837D-03-0.716D-02
 Coeff:      0.840D-01 0.924D+00
 Gap=     0.256 Goal=   None    Shift=    0.000
 RMSDP=2.53D-08 MaxDP=2.76D-07 DE=-4.77D-11 OVMax= 6.17D-07

 Cycle   9  Pass 1  IDiag  1:
 E= -114.359965852240     Delta-E=       -0.000000000001 Rises=F Damp=F
 DIIS: error= 1.90D-08 at cycle   9 NSaved=   9.
 NSaved= 9 IEnMin= 9 EnMin= -114.359965852240     IErMin= 9 ErrMin= 1.90D-08
 ErrMax= 1.90D-08  0.00D+00 EMaxC= 1.00D-01 BMatC= 2.34D-14 BMatP= 1.29D-12
 IDIUse=1 WtCom= 1.00D+00 WtEn= 0.00D+00
 Coeff-Com: -0.155D-06 0.532D-06 0.774D-06-0.194D-05-0.239D-04-0.703D-03
 Coeff-Com: -0.905D-02 0.123D+00 0.887D+00
 Coeff:     -0.155D-06 0.532D-06 0.774D-06-0.194D-05-0.239D-04-0.703D-03
 Coeff:     -0.905D-02 0.123D+00 0.887D+00
 Gap=     0.256 Goal=   None    Shift=    0.000
 RMSDP=3.85D-09 MaxDP=4.41D-08 DE=-1.14D-12 OVMax= 6.03D-08

 SCF Done:  E(RB3LYP) =  -114.359965852     A.U. after    9 cycles
            NFock=  9  Conv=0.39D-08     -V/T= 1.9872
 KE= 1.158430537533D+02 PE=-3.445677268208D+02 EE= 7.692149595929D+01
 Leave Link  502 at Fri Sep 17 10:52:08 2021, MaxMem=   268435456 cpu:               1.6 elap:               2.1
 (Enter /software/gaussian/g16-a03/l801.exe)
 DoSCS=F DFT=T ScalE2(SS,OS)=  1.000000  1.000000
 ExpMin= 4.38D-02 ExpMax= 8.59D+03 ExpMxC= 1.30D+03 IAcc=3 IRadAn=         5 AccDes= 0.00D+00
 HarFok:  IExCor=  205 AccDes= 0.00D+00 IRadAn=         5 IDoV=-2 UseB2=F ITyADJ=14
 ICtDFT= 12500011 ScaDFX=  1.000000  1.000000  1.000000  1.000000
 Largest valence mixing into a core orbital is  4.49D-05
 Largest core mixing into a valence orbital is  7.85D-06
 Range of M.O.s used for correlation:     3    56
 NBasis=    56 NAE=     8 NBE=     8 NFC=     2 NFV=     0
 NROrb=     54 NOA=     6 NOB=     6 NVA=    48 NVB=    48
 Leave Link  801 at Fri Sep 17 10:52:08 2021, MaxMem=   268435456 cpu:               0.2 elap:               0.2
 (Enter /software/gaussian/g16-a03/l914.exe)
 RHF ground state
 Keep R1, R2, and R3 ints in memory in symmetry-blocked form, NReq=6042848.
 FoFCou: FMM=F IPFlag=           0 FMFlag=           0 FMFlg1=           0
         NFxFlg=           0 DoJE=F BraDBF=F KetDBF=F FulRan=T
         wScrn=  0.000000 ICntrl=       600 IOpCl=  0 I1Cent=           0 NGrid=           0
         NMat0=    1 NMatS0=   1596 NMatT0=    0 NMatD0=    1 NMtDS0=    0 NMtDT0=    0
 Petite list used in FoFCou.
 MDV=   268435456 DFT=T DoStab=F Mixed=T DoRPA=T DoScal=F NonHer=T
 Making orbital integer symmetry assigments:
 Orbital symmetries:
       Occupied  (A1) (A1) (A1) (A1) (B2) (B1) (A1) (B2)
       Virtual   (B1) (A1) (A1) (B2) (B1) (A1) (A1) (B2) (B1) (B2)
                 (A1) (A1) (A1) (B1) (B2) (B2) (A1) (A1) (A2) (B1)
                 (B2) (A1) (B1) (A1) (B2) (A1) (B2) (A2) (B1) (A1)
                 (A1) (B2) (A1) (B2) (B1) (A1) (A1) (A2) (B2) (A1)
                 (B1) (B2) (A1) (B1) (B2) (A1) (A1) (A1)
   120 initial guesses have been made.
 Convergence on wavefunction:    0.001000000000000
 Davidson Disk Diagonalization:  ConvIn= 1.00D-03 SkipCon=T Conv= 1.00D-03.
 Max sub-space:  1728 roots to seek:   120 dimension of matrix:          576
 Iteration     1 Dimension   120 NMult     0 NNew    120
 CISAX will form   120 AO SS matrices at one time.
 NMat=   120 NSing=   120 JSym2X=-1.
 New state     14 was old state     15
 New state     15 was old state     16
 New state     16 was old state     17
 New state     17 was old state     20
 New state     18 was old state     14
 New state     20 was old state     18
 New state     23 was old state     25
 New state     24 was old state     23
 New state     25 was old state     24
 New state     28 was old state     29
 New state     29 was old state     32
 Excitation Energies [eV] at current iteration:
 Root      1 :     5.341420272211402
 Root      2 :     6.169089130337082
 Root      3 :     6.957724481980809
 Root      4 :     7.094581165151640
 Root      5 :     7.708100846871237
 Root      6 :    10.093210052477450
 Root      7 :    10.470291346146030
 Root      8 :    11.484294440735750
 Root      9 :    11.548784598000860
 Root     10 :    12.107402295870360
 Root     11 :    12.484827055280740
 Root     12 :    12.892397413648140
 Root     13 :    13.285540628772260
 Root     14 :    13.528998942228330
 Root     15 :    13.919580221608070
 Root     16 :    14.036565266402770
 Root     17 :    14.049596403256220
 Root     18 :    14.353692881890160
 Root     19 :    14.404220230387620
 Root     20 :    14.411533317778390
 Root     21 :    14.779646075113820
 Root     22 :    15.068651203891060
 Root     23 :    15.265432584402670
 Root     24 :    15.466968796877520
 Root     25 :    15.742847774288530
 Root     26 :    15.889745839827290
 Root     27 :    15.947240452502560
 Root     28 :    16.397343963221230
 Root     29 :    16.588551752347590
 Root     30 :    16.690602920043450
 Root     31 :    16.748683733970870
 Root     32 :    16.803757584030800
 Root     33 :    16.878319545752200
 Root     34 :    17.391682658258380
 Root     35 :    17.698465887524340
 Root     36 :    17.988216017898870
 Root     37 :    18.125537372576570
 Root     38 :    18.358411153918430
 Root     39 :    18.375292225849210
 Root     40 :    18.433440944219070
 Root     41 :    18.865015007964280
 Root     42 :    19.082307318627020
 Root     43 :    19.186590570750190
 Root     44 :    19.255415570330050
 Root     45 :    19.407376185030640
 Root     46 :    19.448311008253550
 Root     47 :    19.986582567554160
 Root     48 :    19.992273959796440
 Root     49 :    20.072511841092610
 Root     50 :    20.242436241680710
 Root     51 :    20.407614787841490
 Root     52 :    20.455793432049430
 Root     53 :    20.935004562286000
 Root     54 :    21.124659917091720
 Root     55 :    21.344089640980240
 Root     56 :    21.549128680759870
 Root     57 :    21.730906217007660
 Root     58 :    21.808565654890180
 Root     59 :    22.486270028014050
 Root     60 :    22.696351060036240
 Root     61 :    22.802627948907690
 Root     62 :    24.062644316763840
 Root     63 :    24.134672025444330
 Root     64 :    24.762921279174410
 Root     65 :    25.298221085035480
 Root     66 :    26.230370891974150
 Root     67 :    26.280146388606770
 Root     68 :    26.603549854680580
 Root     69 :    26.673520647562060
 Root     70 :    26.733791756652720
 Root     71 :    27.562264197694870
 Root     72 :    27.964018817401870
 Root     73 :    28.024135225391130
 Root     74 :    28.737827119252920
 Root     75 :    28.928817276871060
 Root     76 :    29.350486463236350
 Root     77 :    29.624454781816070
 Root     78 :    29.810383692428940
 Root     79 :    29.919777158846630
 Root     80 :    30.661512278058250
 Root     81 :    31.419626716858240
 Root     82 :    31.460357983708210
 Root     83 :    32.052800287192090
 Root     84 :    32.507200112391570
 Root     85 :    32.800018471836820
 Root     86 :    32.875284704138320
 Root     87 :    32.956625909604700
 Root     88 :    32.985135174750660
 Root     89 :    33.041324546543040
 Root     90 :    33.616774108221120
 Root     91 :    33.719974443628660
 Root     92 :    34.296430722208460
 Root     93 :    34.431279779051170
 Root     94 :    35.889514275377540
 Root     95 :    36.159659931818110
 Root     96 :    36.753979259590140
 Root     97 :    37.153886476160470
 Root     98 :    37.687967577136380
 Root     99 :    37.910333831825710
 Root    100 :    38.446253404604750
 Root    101 :    38.460838525473590
 Root    102 :    38.566847504053430
 Root    103 :    39.288078916861190
 Root    104 :    39.366522972823230
 Root    105 :    39.422493535248900
 Root    106 :    39.469854198603060
 Root    107 :    39.648068982440500
 Root    108 :    40.124674945994190
 Root    109 :    40.457618962216070
 Root    110 :    40.731419560622880
 Root    111 :    41.094482845552080
 Root    112 :    41.660497636364570
 Root    113 :    41.904200487435460
 Root    114 :    42.011943825462010
 Root    115 :    42.364670243210440
 Root    116 :    42.544223925985040
 Root    117 :    42.630668516260890
 Root    118 :    42.889715010790000
 Root    119 :    43.147090357916870
 Root    120 :    46.453412411149620
 Iteration     2 Dimension   180 NMult   120 NNew     60
 CISAX will form    60 AO SS matrices at one time.
 NMat=    60 NSing=    60 JSym2X=-1.
 Root      1 not converged, maximum delta is    0.005575808577226
 Root      2 not converged, maximum delta is    0.003346673270988
 Root      3 not converged, maximum delta is    0.002548304729696
 Root      4 not converged, maximum delta is    0.004003724239444
 Root      5 not converged, maximum delta is    0.002586229464138
 Root      6 not converged, maximum delta is    0.007881149672674
 Root      7 not converged, maximum delta is    0.002089643420285
 Root      8 not converged, maximum delta is    0.007979659279697
 Root      9 not converged, maximum delta is    0.001579035492161
 Root     10 not converged, maximum delta is    0.004509295952359
 Root     11 not converged, maximum delta is    0.013552275023138
 Root     12 not converged, maximum delta is    0.004106890314795
 Root     13 not converged, maximum delta is    0.007639724100208
 Root     14 not converged, maximum delta is    0.001311854493806
 Root     15 not converged, maximum delta is    0.038818735843132
 Root     16 not converged, maximum delta is    0.003852663139605
 Root     17 not converged, maximum delta is    0.006392035149096
 Root     18 not converged, maximum delta is    0.051789390233620
 Root     19 not converged, maximum delta is    0.002103323673285
 Root     20 not converged, maximum delta is    0.013191048937958
 Root     21 not converged, maximum delta is    0.016051785166537
 Root     22 not converged, maximum delta is    0.013176061131348
 Root     23 not converged, maximum delta is    0.012588247314359
 Root     24 not converged, maximum delta is    0.028844765711286
 Root     25 not converged, maximum delta is    0.022749263029893
 Root     26 not converged, maximum delta is    0.005677527267042
 Root     27 not converged, maximum delta is    0.005441591663720
 Root     28 not converged, maximum delta is    0.044309294932208
 Root     29 not converged, maximum delta is    0.002902744448710
 Root     30 not converged, maximum delta is    0.134220169494256
 Excitation Energies [eV] at current iteration:
 Root      1 :     5.330231478304377   Change is   -0.011188793907025
 Root      2 :     6.165808410189004   Change is   -0.003280720148078
 Root      3 :     6.952696217306705   Change is   -0.005028264674104
 Root      4 :     7.091004861552467   Change is   -0.003576303599172
 Root      5 :     7.705748696195579   Change is   -0.002352150675657
 Root      6 :    10.077590699723070   Change is   -0.015619352754383
 Root      7 :    10.468522823757520   Change is   -0.001768522388518
 Root      8 :    11.469261962504530   Change is   -0.015032478231218
 Root      9 :    11.547536207218450   Change is   -0.001248390782409
 Root     10 :    12.098584323179620   Change is   -0.008817972690747
 Root     11 :    12.417851796716080   Change is   -0.066975258564658
 Root     12 :    12.884136597906450   Change is   -0.008260815741689
 Root     13 :    13.273105463287600   Change is   -0.012435165484666
 Root     14 :    13.528028365022910   Change is   -0.000970577205421
 Root     15 :    13.902597507784470   Change is   -0.016982713823599
 Root     16 :    14.028741333515870   Change is   -0.007823932886907
 Root     17 :    14.043714517160880   Change is   -0.005881886095343
 Root     18 :    14.251036681475660   Change is   -0.102656200414498
 Root     19 :    14.403758667389090   Change is   -0.000461562998524
 Root     20 :    14.408077569881280   Change is   -0.003455747897116
 Root     21 :    14.755137990331080   Change is   -0.024508084782748
 Root     22 :    15.066170956379570   Change is   -0.002480247511489
 Root     23 :    15.246136929398450   Change is   -0.019295655004222
 Root     24 :    15.420177310153690   Change is   -0.046791486723828
 Root     25 :    15.664745428583360   Change is   -0.078102345705173
 Root     26 :    15.884725649480180   Change is   -0.005020190347107
 Root     27 :    15.941920223609990   Change is   -0.005320228892564
 Root     28 :    16.374355872123010   Change is   -0.022988091098222
 Root     29 :    16.587182108093620   Change is   -0.001369644253968
 Root     30 :    16.642340742156860   Change is   -0.048262177886591
 Iteration     3 Dimension   238 NMult   180 NNew     58
 CISAX will form    58 AO SS matrices at one time.
 NMat=    58 NSing=    58 JSym2X=-1.
 Root      1 has converged.
 Root      2 has converged.
 Root      3 has converged.
 Root      4 has converged.
 Root      5 has converged.
 Root      6 has converged.
 Root      7 has converged.
 Root      8 has converged.
 Root      9 has converged.
 Root     10 has converged.
 Root     11 has converged.
 Root     12 has converged.
 Root     13 has converged.
 Root     14 has converged.
 Root     15 has converged.
 Root     16 has converged.
 Root     17 has converged.
 Root     18 has converged.
 Root     19 has converged.
 Root     20 has converged.
 Root     21 has converged.
 Root     22 has converged.
 Root     23 has converged.
 Root     24 has converged.
 Root     25 has converged.
 Root     26 has converged.
 Root     27 has converged.
 Root     28 has converged.
 Root     29 has converged.
 Root     30 has converged.
 Excitation Energies [eV] at current iteration:
 Root      1 :     5.330229034720013   Change is   -0.000002443584364
 Root      2 :     6.165806256201243   Change is   -0.000002153987760
 Root      3 :     6.952693874681180   Change is   -0.000002342625525
 Root      4 :     7.091002996985416   Change is   -0.000001864567052
 Root      5 :     7.705748197727776   Change is   -0.000000498467803
 Root      6 :    10.077583795014720   Change is   -0.000006904708353
 Root      7 :    10.468520598656410   Change is   -0.000002225101109
 Root      8 :    11.469243165011590   Change is   -0.000018797492937
 Root      9 :    11.547535270364010   Change is   -0.000000936854432
 Root     10 :    12.098568319788990   Change is   -0.000016003390627
 Root     11 :    12.417698117914790   Change is   -0.000153678801291
 Root     12 :    12.884125267955630   Change is   -0.000011329950828
 Root     13 :    13.273082381730930   Change is   -0.000023081556672
 Root     14 :    13.528025324407930   Change is   -0.000003040614980
 Root     15 :    13.902561090827960   Change is   -0.000036416956503
 Root     16 :    14.028725737359780   Change is   -0.000015596156085
 Root     17 :    14.043710984671690   Change is   -0.000003532489188
 Root     18 :    14.250775937446200   Change is   -0.000260744029460
 Root     19 :    14.403758306759210   Change is   -0.000000360629883
 Root     20 :    14.408065700001620   Change is   -0.000011869879655
 Root     21 :    14.755061359344670   Change is   -0.000076630986408
 Root     22 :    15.066165079299630   Change is   -0.000005877079940
 Root     23 :    15.246107437967590   Change is   -0.000029491430859
 Root     24 :    15.420037963603580   Change is   -0.000139346550109
 Root     25 :    15.664596005180550   Change is   -0.000149423402811
 Root     26 :    15.884715509140570   Change is   -0.000010140339610
 Root     27 :    15.941905276271120   Change is   -0.000014947338872
 Root     28 :    16.374286279877910   Change is   -0.000069592245098
 Root     29 :    16.587181303206910   Change is   -0.000000804886716
 Root     30 :    16.642140491612410   Change is   -0.000200250544452
 Convergence achieved on expansion vectors.
 ***********************************************************************
 Excited states from <AA,BB:AA,BB> singles matrix:
 ***********************************************************************
 
 1PDM for each excited state written to RWF  633
 Ground to excited state transition densities written to RWF  633
 Ground to excited state transition electric dipole moments (Au):
       state          X           Y           Z        Dip. S.      Osc.
         1        -0.0000      0.0000      0.0000      0.0000      0.0000
         2         0.0000      0.7063     -0.0000      0.4988      0.0753
         3        -0.0000      0.3494      0.0000      0.1221      0.0208
         4        -0.0000      0.0000     -0.5274      0.2782      0.0483
         5        -0.0000     -0.0000     -0.0000      0.0000      0.0000
         6         0.0000      1.0429      0.0000      1.0875      0.2685
         7        -0.0000      0.2319      0.0000      0.0538      0.0138
         8         0.0000      0.0000      0.0574      0.0033      0.0009
         9         0.0000     -0.0000     -0.0000      0.0000      0.0000
        10         0.0000      0.0000     -0.7063      0.4989      0.1479
        11        -0.0486      0.0000      0.0000      0.0024      0.0007
        12         0.0000     -0.3594      0.0000      0.1292      0.0408
        13        -0.0000     -0.0000     -0.1202      0.0145      0.0047
        14        -0.3470     -0.0000      0.0000      0.1204      0.0399
        15         0.0000     -0.0000      0.8882      0.7889      0.2687
        16        -0.0000     -0.3584      0.0000      0.1285      0.0442
        17        -0.0000     -0.0000     -0.0000      0.0000      0.0000
        18        -0.0000      0.0000      0.3824      0.1462      0.0510
        19         0.0000     -0.0000     -0.0000      0.0000      0.0000
        20         0.2133     -0.0000      0.0000      0.0455      0.0161
        21        -0.2517     -0.0000     -0.0000      0.0634      0.0229
        22         0.0000     -0.4732     -0.0000      0.2239      0.0827
        23         0.0000     -0.2072     -0.0000      0.0429      0.0160
        24         0.0000      0.0000     -0.6010      0.3612      0.1364
        25        -0.6306     -0.0000     -0.0000      0.3976      0.1526
        26        -0.0000      0.0000      0.2374      0.0564      0.0219
        27        -0.0000      0.1777      0.0000      0.0316      0.0123
        28        -0.0000      0.0000      0.2124      0.0451      0.0181
        29        -0.0000      0.0000      0.0000      0.0000      0.0000
        30         0.0000     -0.0000      0.3320      0.1102      0.0449
 Ground to excited state transition velocity dipole moments (Au):
       state          X           Y           Z        Dip. S.      Osc.
         1        -0.0000     -0.0000     -0.0000      0.0000      0.0000
         2        -0.0000     -0.1567      0.0000      0.0246      0.0723
         3         0.0000     -0.0919     -0.0000      0.0085      0.0221
         4         0.0000      0.0000      0.1314      0.0173      0.0442
         5         0.0000      0.0000      0.0000      0.0000      0.0000
         6        -0.0000     -0.3884     -0.0000      0.1508      0.2715
         7         0.0000     -0.0569     -0.0000      0.0032      0.0056
         8        -0.0000     -0.0000     -0.0288      0.0008      0.0013
         9        -0.0000      0.0000      0.0000      0.0000      0.0000
        10        -0.0000      0.0000      0.3153      0.0994      0.1491
        11         0.0125     -0.0000     -0.0000      0.0002      0.0002
        12        -0.0000      0.1769     -0.0000      0.0313      0.0441
        13         0.0000      0.0000      0.0574      0.0033      0.0045
        14         0.1761     -0.0000     -0.0000      0.0310      0.0416
        15        -0.0000      0.0000     -0.4528      0.2051      0.2676
        16         0.0000      0.1846      0.0000      0.0341      0.0441
        17         0.0000      0.0000      0.0000      0.0000      0.0000
        18         0.0000      0.0000     -0.1934      0.0374      0.0476
        19        -0.0000      0.0000      0.0000      0.0000      0.0000
        20        -0.1202      0.0000     -0.0000      0.0144      0.0182
        21         0.1293      0.0000      0.0000      0.0167      0.0206
        22        -0.0000      0.2601      0.0000      0.0676      0.0814
        23         0.0000      0.1060      0.0000      0.0112      0.0134
        24        -0.0000     -0.0000      0.3436      0.1180      0.1389
        25         0.3731      0.0000      0.0000      0.1392      0.1612
        26         0.0000     -0.0000     -0.1374      0.0189      0.0216
        27         0.0000     -0.1081     -0.0000      0.0117      0.0133
        28        -0.0000     -0.0000     -0.1363      0.0186      0.0206
        29         0.0000     -0.0000     -0.0000      0.0000      0.0000
        30         0.0000     -0.0000     -0.2053      0.0421      0.0459
 Ground to excited state transition magnetic dipole moments (Au):
       state          X           Y           Z
         1        -0.0000      0.0000      1.2847
         2        -0.4370      0.0000     -0.0000
         3         0.7948     -0.0000      0.0000
         4        -0.0000      0.0000      0.0000
         5        -0.0000      0.0000     -0.3170
         6        -0.8454      0.0000     -0.0000
         7        -0.9183     -0.0000      0.0000
         8         0.0000      0.0000      0.0000
         9        -0.0000     -0.0000      0.0854
        10        -0.0000     -0.0000      0.0000
        11         0.0000     -1.2014     -0.0000
        12        -0.4698     -0.0000     -0.0000
        13        -0.0000     -0.0000      0.0000
        14         0.0000     -0.0481      0.0000
        15         0.0000      0.0000     -0.0000
        16        -0.3046      0.0000      0.0000
        17        -0.0000      0.0000     -0.3755
        18         0.0000     -0.0000      0.0000
        19         0.0000     -0.0000      0.0662
        20         0.0000     -0.1803     -0.0000
        21         0.0000      0.7771      0.0000
        22         0.3170      0.0000      0.0000
        23         1.1783     -0.0000      0.0000
        24        -0.0000     -0.0000     -0.0000
        25         0.0000     -0.4916      0.0000
        26        -0.0000     -0.0000     -0.0000
        27        -0.1334     -0.0000     -0.0000
        28        -0.0000     -0.0000     -0.0000
        29        -0.0000      0.0000      0.1037
        30         0.0000      0.0000      0.0000
 Ground to excited state transition velocity quadrupole moments (Au):
       state          XX          YY          ZZ          XY          XZ          YZ
         1        -0.0000     -0.0000      0.0000     -0.2096      0.0000      0.0000
         2         0.0000      0.0000     -0.0000     -0.0000     -0.0000      0.5265
         3         0.0000     -0.0000     -0.0000     -0.0000      0.0000      0.2258
         4        -0.1655     -0.6079     -0.2081      0.0000      0.0000      0.0000
         5         0.0000     -0.0000      0.0000     -0.1270      0.0000     -0.0000
         6        -0.0000     -0.0000      0.0000      0.0000     -0.0000      0.8967
         7         0.0000     -0.0000      0.0000     -0.0000     -0.0000     -0.1818
         8         0.1090      0.7490      0.7530     -0.0000      0.0000     -0.0000
         9         0.0000      0.0000      0.0000      0.2637      0.0000      0.0000
        10         0.1927     -0.4378     -0.5403     -0.0000     -0.0000      0.0000
        11        -0.0000     -0.0000     -0.0000      0.0000     -0.4612     -0.0000
        12        -0.0000      0.0000     -0.0000      0.0000     -0.0000      0.0840
        13         0.1052      0.3348      0.4801     -0.0000     -0.0000      0.0000
        14         0.0000     -0.0000      0.0000     -0.0000     -0.0173     -0.0000
        15         0.2034      0.2551      0.2296      0.0000      0.0000      0.0000
        16         0.0000      0.0000      0.0000     -0.0000      0.0000      0.0731
        17         0.0000     -0.0000      0.0000      0.2737      0.0000      0.0000
        18         0.6906      0.6534      0.2286      0.0000     -0.0000      0.0000
        19         0.0000     -0.0000      0.0000      0.2303     -0.0000     -0.0000
        20        -0.0000      0.0000     -0.0000     -0.0000     -0.3196     -0.0000
        21         0.0000     -0.0000      0.0000     -0.0000      0.3460     -0.0000
        22         0.0000     -0.0000      0.0000     -0.0000      0.0000     -0.2985
        23         0.0000     -0.0000      0.0000     -0.0000     -0.0000     -0.1390
        24         0.2151     -0.5964     -0.0980     -0.0000      0.0000      0.0000
        25        -0.0000      0.0000     -0.0000      0.0000     -0.4972     -0.0000
        26         0.1830     -0.0924      0.4139      0.0000     -0.0000     -0.0000
        27         0.0000     -0.0000      0.0000     -0.0000     -0.0000     -0.3303
        28        -0.5006     -0.1798     -0.1732     -0.0000     -0.0000      0.0000
        29        -0.0000      0.0000     -0.0000      0.2369     -0.0000      0.0000
        30        -0.1638     -0.5810      0.4252     -0.0000      0.0000     -0.0000
 <0|del|b> * <b|rxdel|0> + <0|del|b> * <b|delr+rdel|0>
 Rotatory Strengths (R) in cgs (10**-40 erg-esu-cm/Gauss)
       state          XX          YY          ZZ    R(velocity)    E-M Angle
         1        -0.0000     -0.0000     -0.0000     -0.0000       90.00
         2        -0.0000     -0.0000      0.0000      0.0000       90.00
         3         0.0000      0.0000      0.0000      0.0000       90.00
         4         0.0000     -0.0000     -0.0000      0.0000       90.00
         5        -0.0000     -0.0000      0.0000     -0.0000       90.00
         6        -0.0000     -0.0000      0.0000      0.0000       90.00
         7        -0.0000     -0.0000     -0.0000     -0.0000       90.00
         8        -0.0000     -0.0000     -0.0000     -0.0000       90.00
         9         0.0000     -0.0000      0.0000      0.0000       90.00
        10         0.0000      0.0000      0.0000      0.0000       90.00
        11         0.0000      0.0000      0.0000      0.0000       90.00
        12        -0.0000      0.0000     -0.0000     -0.0000       90.00
        13        -0.0000      0.0000     -0.0000      0.0000       90.00
        14         0.0000      0.0000      0.0000      0.0000       90.00
        15         0.0000      0.0000      0.0000      0.0000       90.00
        16         0.0000     -0.0000     -0.0000     -0.0000       90.00
        17        -0.0000     -0.0000     -0.0000     -0.0000       90.00
        18        -0.0000      0.0000     -0.0000     -0.0000       90.00
        19         0.0000     -0.0000     -0.0000      0.0000       90.00
        20         0.0000     -0.0000     -0.0000     -0.0000       90.00
        21         0.0000      0.0000      0.0000      0.0000       90.00
        22        -0.0000     -0.0000     -0.0000     -0.0000       90.00
        23        -0.0000      0.0000     -0.0000     -0.0000       90.00
        24        -0.0000      0.0000      0.0000     -0.0000       90.00
        25         0.0000      0.0000     -0.0000     -0.0000       90.00
        26         0.0000      0.0000      0.0000      0.0000       90.00
        27         0.0000     -0.0000      0.0000      0.0000       90.00
        28         0.0000      0.0000      0.0000      0.0000       90.00
        29        -0.0000      0.0000     -0.0000     -0.0000       90.00
        30         0.0000     -0.0000     -0.0000     -0.0000       90.00
 1/2[<0|r|b>*<b|rxdel|0> + (<0|rxdel|b>*<b|r|0>)*]
 Rotatory Strengths (R) in cgs (10**-40 erg-esu-cm/Gauss)
       state          XX          YY          ZZ     R(length)
         1        -0.0000     -0.0000     -0.0000     -0.0000
         2         0.0000     -0.0000     -0.0000     -0.0000
         3         0.0000      0.0000     -0.0000      0.0000
         4        -0.0000     -0.0000      0.0000      0.0000
         5        -0.0000      0.0000     -0.0000     -0.0000
         6         0.0000     -0.0000      0.0000     -0.0000
         7        -0.0000      0.0000     -0.0000      0.0000
         8        -0.0000     -0.0000     -0.0000     -0.0000
         9         0.0000     -0.0000      0.0000      0.0000
        10         0.0000      0.0000      0.0000      0.0000
        11         0.0000      0.0000      0.0000      0.0000
        12         0.0000     -0.0000      0.0000     -0.0000
        13        -0.0000     -0.0000      0.0000      0.0000
        14         0.0000     -0.0000     -0.0000      0.0000
        15        -0.0000      0.0000      0.0000      0.0000
        16        -0.0000      0.0000     -0.0000     -0.0000
        17        -0.0000      0.0000     -0.0000     -0.0000
        18         0.0000      0.0000     -0.0000     -0.0000
        19        -0.0000     -0.0000      0.0000      0.0000
        20        -0.0000     -0.0000      0.0000     -0.0000
        21         0.0000      0.0000      0.0000      0.0000
        22        -0.0000      0.0000      0.0000     -0.0000
        23        -0.0000     -0.0000      0.0000     -0.0000
        24         0.0000      0.0000     -0.0000     -0.0000
        25         0.0000     -0.0000      0.0000     -0.0000
        26        -0.0000      0.0000      0.0000      0.0000
        27        -0.0000      0.0000      0.0000      0.0000
        28        -0.0000      0.0000      0.0000      0.0000
        29        -0.0000     -0.0000     -0.0000     -0.0000
        30        -0.0000      0.0000     -0.0000     -0.0000
  1/2[<0|del|b>*<b|r|0> + (<0|r|b>*<b|del|0>)*] (Au)
       state          X           Y           Z        Dip. S.   Osc.(frdel)
         1         0.0000     -0.0000     -0.0000      0.0000      0.0000
         2        -0.0000     -0.1107     -0.0000      0.1107      0.0738
         3        -0.0000     -0.0321     -0.0000      0.0321      0.0214
         4        -0.0000      0.0000     -0.0693      0.0693      0.0462
         5        -0.0000     -0.0000     -0.0000      0.0000      0.0000
         6        -0.0000     -0.4050     -0.0000      0.4050      0.2700
         7        -0.0000     -0.0132     -0.0000      0.0132      0.0088
         8        -0.0000     -0.0000     -0.0017      0.0017      0.0011
         9        -0.0000     -0.0000     -0.0000      0.0000      0.0000
        10        -0.0000      0.0000     -0.2227      0.2227      0.1485
        11        -0.0006     -0.0000     -0.0000      0.0006      0.0004
        12        -0.0000     -0.0636     -0.0000      0.0636      0.0424
        13        -0.0000     -0.0000     -0.0069      0.0069      0.0046
        14        -0.0611      0.0000     -0.0000      0.0611      0.0407
        15        -0.0000     -0.0000     -0.4022      0.4022      0.2681
        16        -0.0000     -0.0662      0.0000      0.0662      0.0441
        17        -0.0000     -0.0000     -0.0000      0.0000      0.0000
        18        -0.0000      0.0000     -0.0739      0.0739      0.0493
        19        -0.0000     -0.0000     -0.0000      0.0000      0.0000
        20        -0.0256     -0.0000     -0.0000      0.0256      0.0171
        21        -0.0326     -0.0000     -0.0000      0.0326      0.0217
        22        -0.0000     -0.1231     -0.0000      0.1231      0.0820
        23         0.0000     -0.0220     -0.0000      0.0220      0.0146
        24        -0.0000     -0.0000     -0.2065      0.2065      0.1377
        25        -0.2353     -0.0000     -0.0000      0.2353      0.1568
        26        -0.0000     -0.0000     -0.0326      0.0326      0.0217
        27        -0.0000     -0.0192     -0.0000      0.0192      0.0128
        28         0.0000     -0.0000     -0.0290      0.0290      0.0193
        29        -0.0000     -0.0000     -0.0000      0.0000      0.0000
        30         0.0000      0.0000     -0.0681      0.0681      0.0454

 Excitation energies and oscillator strengths:
 
 Excited State   1:      Singlet-A2     5.3302 eV  232.61 nm  f=0.0000  <S**2>=0.000
       3 -> 27         0.00298
       3 -> 36         0.00241
       3 -> 46         0.00148
       4 -> 27         0.00326
       4 -> 36        -0.00075
       4 -> 46        -0.00082
       5 ->  9         0.01269
       5 -> 13        -0.00943
       5 -> 17         0.00619
       5 -> 22        -0.00328
       5 -> 28         0.00332
       5 -> 31         0.00244
       5 -> 37         0.00388
       5 -> 43         0.00061
       5 -> 52         0.00080
       6 -> 12        -0.00060
       6 -> 16        -0.00145
       6 -> 18        -0.00087
       6 -> 23         0.00175
       6 -> 24         0.00080
       6 -> 29        -0.00054
       6 -> 33         0.00030
       6 -> 35         0.00055
       6 -> 40        -0.00017
       6 -> 42         0.00047
       6 -> 47         0.00066
       6 -> 50        -0.00017
       6 -> 53         0.00033
       7 -> 27         0.00085
       7 -> 36        -0.00042
       7 -> 46         0.00138
       8 ->  9         0.69674
       8 -> 13        -0.11639
       8 -> 17         0.02842
       8 -> 22        -0.01023
       8 -> 28         0.00591
       8 -> 31         0.00350
       8 -> 37        -0.00205
       8 -> 43        -0.00025
       8 -> 52         0.00110
       3 <- 27         0.00216
       3 <- 36         0.00206
       3 <- 46         0.00154
       4 <- 27         0.00388
       4 <- 36        -0.00036
       4 <- 46        -0.00078
       5 <-  9         0.00025
       5 <- 13        -0.00109
       5 <- 17        -0.00024
       5 <- 22         0.00036
       5 <- 28        -0.00021
       5 <- 31        -0.00111
       5 <- 37         0.00174
       5 <- 43         0.00044
       5 <- 49         0.00013
       5 <- 52         0.00020
       6 <- 12        -0.00096
       6 <- 16         0.00314
       6 <- 18        -0.00292
       6 <- 23         0.00543
       6 <- 24        -0.00137
       6 <- 29         0.00189
       6 <- 33        -0.00107
       6 <- 35         0.00224
       6 <- 40        -0.00025
       6 <- 42         0.00096
       6 <- 47         0.00050
       6 <- 53         0.00087
       7 <- 27         0.00109
       7 <- 36        -0.00045
       7 <- 46         0.00108
       8 <-  9        -0.01201
       8 <- 13         0.00763
       8 <- 17        -0.00398
       8 <- 22         0.00058
       8 <- 28        -0.00042
       8 <- 31         0.00248
       8 <- 37        -0.00226
       8 <- 52         0.00034
 This state for optimization and/or second-order correction.
 Total Energy, E(TD-HF/TD-DFT) =  -114.164083539    
 Copying the excited state density for this state as the 1-particle RhoCI density.
 
 Excited State   2:      Singlet-B2     6.1658 eV  201.08 nm  f=0.0753  <S**2>=0.000
       3 -> 12         0.00099
       3 -> 18         0.00112
       3 -> 23        -0.00011
       3 -> 24         0.00121
       3 -> 29        -0.00016
       3 -> 35        -0.00015
       3 -> 42         0.00011
       3 -> 50        -0.00014
       4 -> 12        -0.00562
       4 -> 16         0.00052
       4 -> 18         0.00203
       4 -> 23        -0.00289
       4 -> 24         0.00402
       4 -> 29        -0.00036
       4 -> 33        -0.00095
       4 -> 35         0.00089
       4 -> 40        -0.00023
       4 -> 42         0.00044
       5 -> 10         0.00030
       5 -> 11        -0.00782
       5 -> 14         0.00589
       5 -> 15         0.00152
       5 -> 19         0.00363
       5 -> 20        -0.00083
       5 -> 21         0.00343
       5 -> 25         0.00093
       5 -> 26        -0.00149
       5 -> 30         0.00247
       5 -> 32        -0.00012
       5 -> 38        -0.00069
       5 -> 39         0.00020
       5 -> 41         0.00025
       5 -> 44         0.00046
       5 -> 45        -0.00058
       5 -> 48         0.00033
       6 -> 27         0.00081
       6 -> 46         0.00083
       7 -> 12         0.00198
       7 -> 16         0.00146
       7 -> 18         0.00427
       7 -> 23        -0.00249
       7 -> 24         0.00219
       7 -> 35        -0.00010
       7 -> 42        -0.00038
       7 -> 47         0.00037
       7 -> 50         0.00051
       8 -> 10         0.70607
       8 -> 11        -0.02623
       8 -> 14        -0.01173
       8 -> 15         0.01127
       8 -> 19         0.01946
       8 -> 20         0.00890
       8 -> 21        -0.00687
       8 -> 25         0.00080
       8 -> 26        -0.00077
       8 -> 30         0.00020
       8 -> 32         0.00240
       8 -> 34         0.00174
       8 -> 38         0.00071
       8 -> 39        -0.00058
       8 -> 41        -0.00025
       8 -> 44        -0.00060
       8 -> 45        -0.00100
       8 -> 48         0.00025
       8 -> 54        -0.00016
       3 <- 12         0.00031
       3 <- 16        -0.00024
       3 <- 18         0.00060
       3 <- 23        -0.00019
       3 <- 24         0.00085
       3 <- 29        -0.00015
       3 <- 35        -0.00015
       4 <- 12         0.00019
       4 <- 18         0.00276
       4 <- 23        -0.00175
       4 <- 24         0.00300
       4 <- 29        -0.00028
       4 <- 33        -0.00069
       4 <- 35         0.00065
       4 <- 40        -0.00024
       4 <- 42         0.00015
       5 <- 10         0.00226
       5 <- 14         0.00452
       5 <- 15         0.00155
       5 <- 19         0.00091
       5 <- 20        -0.00014
       5 <- 21         0.00198
       5 <- 25         0.00167
       5 <- 26        -0.00130
       5 <- 30         0.00088
       5 <- 32        -0.00045
       5 <- 38        -0.00049
       5 <- 39         0.00016
       5 <- 41         0.00032
       5 <- 44         0.00031
       5 <- 45        -0.00050
       5 <- 48         0.00029
       6 <- 27         0.00063
       6 <- 46         0.00070
       7 <- 12         0.00056
       7 <- 16         0.00129
       7 <- 18         0.00172
       7 <- 23        -0.00097
       7 <- 24         0.00096
       7 <- 29         0.00058
       7 <- 33        -0.00013
       7 <- 35         0.00013
       7 <- 42        -0.00034
       7 <- 47         0.00033
       7 <- 50         0.00055
       8 <- 10        -0.00376
       8 <- 11        -0.00149
       8 <- 14        -0.01125
       8 <- 15        -0.00122
       8 <- 19        -0.00083
       8 <- 20        -0.00033
       8 <- 21        -0.00386
       8 <- 25        -0.00305
       8 <- 26        -0.00054
       8 <- 30        -0.00057
       8 <- 32         0.00109
       8 <- 34         0.00160
       8 <- 38         0.00073
       8 <- 39        -0.00047
       8 <- 41        -0.00011
       8 <- 44        -0.00051
       8 <- 45        -0.00069
       8 <- 48         0.00025
 
 Excited State   3:      Singlet-B2     6.9527 eV  178.33 nm  f=0.0208  <S**2>=0.000
       3 -> 12        -0.00014
       3 -> 16         0.00070
       3 -> 18         0.00017
       3 -> 23         0.00019
       3 -> 24         0.00040
       3 -> 29         0.00114
       3 -> 33         0.00014
       3 -> 35        -0.00031
       3 -> 42        -0.00032
       3 -> 47         0.00021
       3 -> 50         0.00024
       4 -> 12         0.00302
       4 -> 16         0.00322
       4 -> 18         0.00278
       4 -> 23        -0.00153
       4 -> 24         0.00356
       4 -> 29        -0.00110
       4 -> 33         0.00056
       4 -> 35        -0.00024
       4 -> 40        -0.00022
       4 -> 47         0.00015
       4 -> 50         0.00015
       5 -> 10        -0.00606
       5 -> 11         0.00020
       5 -> 14         0.00380
       5 -> 15         0.00534
       5 -> 19        -0.00369
       5 -> 20        -0.00137
       5 -> 21         0.00124
       5 -> 25         0.00112
       5 -> 26         0.00124
       5 -> 30         0.00083
       5 -> 32        -0.00198
       5 -> 34        -0.00067
       5 -> 39        -0.00065
       5 -> 41        -0.00081
       5 -> 44         0.00010
       5 -> 45         0.00063
       5 -> 48        -0.00045
       5 -> 51        -0.00025
       6 -> 27        -0.00075
       6 -> 36        -0.00130
       6 -> 46        -0.00119
       7 -> 12        -0.00305
       7 -> 16         0.00083
       7 -> 18        -0.00231
       7 -> 23         0.00140
       7 -> 24        -0.00017
       7 -> 29         0.00013
       7 -> 33        -0.00031
       7 -> 35         0.00131
       7 -> 40        -0.00036
       7 -> 42         0.00072
       7 -> 47        -0.00068
       7 -> 50        -0.00064
       7 -> 53         0.00015
       8 -> 10         0.02678
       8 -> 11         0.70560
       8 -> 14        -0.01539
       8 -> 15        -0.02153
       8 -> 19        -0.01987
       8 -> 20         0.01425
       8 -> 21        -0.00237
       8 -> 25         0.00032
       8 -> 26         0.00029
       8 -> 30        -0.00164
       8 -> 32         0.00014
       8 -> 34         0.00042
       8 -> 38        -0.00012
       8 -> 39        -0.00043
       8 -> 41        -0.00140
       8 -> 45         0.00078
       8 -> 48        -0.00073
       8 -> 51        -0.00022
       8 -> 54         0.00017
       3 <- 12         0.00027
       3 <- 16         0.00053
       3 <- 18         0.00047
       3 <- 24         0.00047
       3 <- 29         0.00074
       3 <- 33         0.00019
       3 <- 35        -0.00034
       3 <- 42        -0.00028
       3 <- 47         0.00016
       3 <- 50         0.00014
       3 <- 53        -0.00022
       4 <- 12         0.00032
       4 <- 16         0.00025
       4 <- 18         0.00122
       4 <- 23        -0.00127
       4 <- 24         0.00161
       4 <- 29        -0.00046
       4 <- 33         0.00055
       4 <- 35         0.00010
       4 <- 40        -0.00021
       4 <- 42        -0.00012
       4 <- 50         0.00022
       5 <- 10         0.00135
       5 <- 11        -0.00045
       5 <- 14         0.00194
       5 <- 15         0.00051
       5 <- 19         0.00065
       5 <- 20         0.00016
       5 <- 21         0.00100
       5 <- 25         0.00096
       5 <- 26         0.00089
       5 <- 30         0.00080
       5 <- 32        -0.00055
       5 <- 34        -0.00116
       5 <- 38         0.00012
       5 <- 39        -0.00043
       5 <- 41        -0.00082
       5 <- 44         0.00014
       5 <- 45         0.00063
       5 <- 48        -0.00031
       5 <- 51        -0.00024
       6 <- 27        -0.00030
       6 <- 36        -0.00106
       6 <- 46        -0.00102
       7 <- 12        -0.00036
       7 <- 16        -0.00019
       7 <- 18        -0.00029
       7 <- 23         0.00030
       7 <- 29        -0.00020
       7 <- 33        -0.00010
       7 <- 35         0.00093
       7 <- 40        -0.00028
       7 <- 42         0.00051
       7 <- 47        -0.00059
       7 <- 50        -0.00058
       8 <- 10        -0.00142
       8 <- 11         0.00105
       8 <- 14        -0.00568
       8 <- 15        -0.00109
       8 <- 19         0.00224
       8 <- 20        -0.00176
       8 <- 21        -0.00246
       8 <- 25        -0.00027
       8 <- 26         0.00107
       8 <- 30        -0.00100
       8 <- 32         0.00113
       8 <- 34        -0.00012
       8 <- 38        -0.00028
       8 <- 39        -0.00019
       8 <- 41        -0.00117
       8 <- 45         0.00067
       8 <- 48        -0.00047
       8 <- 51        -0.00022
 
 Excited State   4:      Singlet-A1     7.0910 eV  174.85 nm  f=0.0483  <S**2>=0.000
       3 -> 10         0.00141
       3 -> 11        -0.00091
       3 -> 14         0.00024
       3 -> 15         0.00053
       3 -> 19         0.00124
       3 -> 20         0.00055
       3 -> 21        -0.00011
       3 -> 25         0.00013
       3 -> 26        -0.00021
       3 -> 30         0.00113
       3 -> 32        -0.00029
       3 -> 34        -0.00021
       3 -> 38        -0.00035
       3 -> 39        -0.00021
       3 -> 41        -0.00016
       3 -> 48        -0.00015
       3 -> 51        -0.00032
       3 -> 54         0.00021
       4 -> 10         0.00555
       4 -> 11         0.00974
       4 -> 14         0.00622
       4 -> 15         0.00122
       4 -> 19         0.00079
       4 -> 20         0.00638
       4 -> 21         0.00245
       4 -> 25         0.00697
       4 -> 26        -0.00080
       4 -> 30        -0.00067
       4 -> 32        -0.00047
       4 -> 34        -0.00094
       4 -> 38        -0.00016
       4 -> 39         0.00066
       4 -> 41         0.00020
       4 -> 45        -0.00032
       4 -> 48        -0.00025
       5 -> 12         0.00772
       5 -> 16         0.00574
       5 -> 18         0.00965
       5 -> 23         0.00011
       5 -> 24         0.00451
       5 -> 29         0.00050
       5 -> 33        -0.00016
       5 -> 35         0.00091
       5 -> 42        -0.00020
       5 -> 50        -0.00036
       5 -> 53        -0.00015
       6 ->  9         0.00883
       6 -> 13         0.00467
       6 -> 17         0.00514
       6 -> 22         0.00449
       6 -> 28         0.00046
       6 -> 31         0.00087
       6 -> 37         0.00053
       6 -> 43         0.00056
       6 -> 49        -0.00037
       7 -> 10         0.01332
       7 -> 11        -0.00489
       7 -> 14         0.00343
       7 -> 15        -0.00130
       7 -> 19         0.00698
       7 -> 20         0.00369
       7 -> 21         0.00145
       7 -> 25         0.00213
       7 -> 26        -0.00039
       7 -> 30        -0.00011
       7 -> 32         0.00058
       7 -> 34        -0.00088
       7 -> 39         0.00019
       7 -> 44        -0.00010
       7 -> 48        -0.00019
       7 -> 51         0.00050
       8 -> 12         0.70556
       8 -> 16         0.03764
       8 -> 18         0.01204
       8 -> 23         0.00448
       8 -> 24         0.00147
       8 -> 29         0.00272
       8 -> 33         0.00152
       8 -> 35        -0.00240
       8 -> 42         0.00127
       8 -> 47        -0.00040
       8 -> 50        -0.00017
       8 -> 53        -0.00015
       3 <- 10         0.00057
       3 <- 11        -0.00030
       3 <- 14         0.00017
       3 <- 15         0.00023
       3 <- 19         0.00065
       3 <- 20         0.00024
       3 <- 25         0.00026
       3 <- 30         0.00067
       3 <- 32        -0.00023
       3 <- 34        -0.00013
       3 <- 38        -0.00027
       3 <- 39        -0.00018
       3 <- 41        -0.00016
       3 <- 48        -0.00017
       3 <- 51        -0.00027
       3 <- 54         0.00019
       4 <- 10         0.00552
       4 <- 11         0.00320
       4 <- 14         0.00460
       4 <- 15         0.00139
       4 <- 19         0.00061
       4 <- 20         0.00360
       4 <- 21         0.00091
       4 <- 25         0.00413
       4 <- 26        -0.00037
       4 <- 32        -0.00075
       4 <- 34        -0.00092
       4 <- 38        -0.00025
       4 <- 39         0.00058
       4 <- 45        -0.00030
       4 <- 48        -0.00021
       5 <- 12         0.00270
       5 <- 16         0.00106
       5 <- 18         0.00420
       5 <- 23         0.00043
       5 <- 24         0.00244
       5 <- 29         0.00012
       5 <- 33        -0.00031
       5 <- 35         0.00080
       5 <- 42        -0.00018
       5 <- 50        -0.00028
       5 <- 53        -0.00013
       6 <-  9         0.00259
       6 <- 13         0.00169
       6 <- 17         0.00216
       6 <- 22         0.00257
       6 <- 28         0.00025
       6 <- 31         0.00065
       6 <- 37         0.00043
       6 <- 43         0.00047
       6 <- 49        -0.00032
       7 <- 10         0.00432
       7 <- 11        -0.00099
       7 <- 14         0.00160
       7 <- 15        -0.00044
       7 <- 19         0.00284
       7 <- 20         0.00204
       7 <- 21         0.00054
       7 <- 25         0.00123
       7 <- 26        -0.00042
       7 <- 32         0.00031
       7 <- 34        -0.00064
       7 <- 39         0.00026
       7 <- 41         0.00012
       7 <- 51         0.00046
       8 <- 12        -0.00296
       8 <- 16         0.00745
       8 <- 18        -0.00789
       8 <- 24        -0.00234
       8 <- 29         0.00116
       8 <- 33         0.00105
       8 <- 35        -0.00160
       8 <- 42         0.00104
       8 <- 47        -0.00047
       8 <- 50        -0.00015
       8 <- 53        -0.00016
 
 Excited State   5:      Singlet-A2     7.7057 eV  160.90 nm  f=0.0000  <S**2>=0.000
       3 -> 27        -0.00129
       3 -> 36        -0.00111
       3 -> 46        -0.00059
       4 -> 27        -0.00040
       4 -> 36         0.00067
       4 -> 46         0.00020
       5 ->  9        -0.00960
       5 -> 13         0.00495
       5 -> 17         0.00370
       5 -> 22         0.00028
       5 -> 28        -0.00011
       5 -> 31        -0.00213
       5 -> 37        -0.00201
       5 -> 43        -0.00030
       5 -> 52        -0.00031
       6 -> 12        -0.00035
       6 -> 16         0.00206
       6 -> 18         0.00092
       6 -> 23        -0.00104
       6 -> 24        -0.00026
       6 -> 29         0.00031
       6 -> 35        -0.00029
       6 -> 42        -0.00026
       6 -> 47        -0.00026
       6 -> 53        -0.00015
       7 -> 36         0.00026
       7 -> 46        -0.00062
       8 ->  9         0.11678
       8 -> 13         0.69697
       8 -> 17         0.00248
       8 -> 22         0.02182
       8 -> 28        -0.00116
       8 -> 31        -0.00134
       8 -> 37         0.00055
       8 -> 43         0.00012
       8 -> 49         0.00018
       8 -> 52        -0.00036
       3 <- 27        -0.00072
       3 <- 36        -0.00088
       3 <- 46        -0.00069
       4 <- 27        -0.00093
       4 <- 46         0.00022
       5 <-  9        -0.00028
       5 <- 17         0.00061
       5 <- 22        -0.00011
       5 <- 31         0.00014
       5 <- 37        -0.00059
       5 <- 43        -0.00016
       5 <- 52        -0.00010
       6 <- 12        -0.00055
       6 <- 16         0.00051
       6 <- 18         0.00062
       6 <- 23        -0.00211
       6 <- 33         0.00063
       6 <- 35        -0.00112
       6 <- 40         0.00012
       6 <- 42        -0.00061
       6 <- 53        -0.00030
       7 <- 27        -0.00029
       7 <- 36         0.00025
       7 <- 46        -0.00029
       8 <-  9         0.00563
       8 <- 13         0.00023
       8 <- 17         0.00051
       8 <- 22        -0.00045
       8 <- 28         0.00019
       8 <- 31        -0.00065
       8 <- 37         0.00067
       8 <- 52        -0.00015
 
 Excited State   6:      Singlet-B2    10.0776 eV  123.03 nm  f=0.2685  <S**2>=0.000
       3 -> 12        -0.00041
       3 -> 16         0.00181
       3 -> 18        -0.00041
       3 -> 23         0.00139
       3 -> 24         0.00072
       3 -> 29         0.00131
       3 -> 33        -0.00089
       3 -> 35         0.00010
       3 -> 40         0.00032
       3 -> 42         0.00065
       3 -> 47         0.00032
       3 -> 50         0.00016
       4 -> 12        -0.01225
       4 -> 16         0.00551
       4 -> 18         0.00169
       4 -> 23        -0.01476
       4 -> 24         0.01116
       4 -> 33         0.00255
       4 -> 35        -0.00327
       4 -> 40        -0.00041
       4 -> 42         0.00242
       4 -> 47         0.00016
       5 -> 10         0.01177
       5 -> 11        -0.00712
       5 -> 14         0.02793
       5 -> 15         0.00775
       5 -> 19         0.00508
       5 -> 20        -0.01492
       5 -> 21         0.01492
       5 -> 25         0.00739
       5 -> 26        -0.00205
       5 -> 30        -0.00115
       5 -> 32         0.00286
       5 -> 34         0.00273
       5 -> 38         0.00019
       5 -> 39        -0.00223
       5 -> 41        -0.00026
       5 -> 44         0.00051
       5 -> 51        -0.00020
       6 -> 27         0.00756
       6 -> 36         0.00037
       6 -> 46        -0.00051
       7 -> 12         0.00248
       7 -> 16         0.00462
       7 -> 18         0.00869
       7 -> 23        -0.00751
       7 -> 24         0.00648
       7 -> 29         0.00134
       7 -> 33         0.00169
       7 -> 35        -0.00092
       7 -> 40        -0.00050
       7 -> 42         0.00084
       7 -> 47        -0.00042
       7 -> 50        -0.00020
       8 -> 10         0.01171
       8 -> 11         0.01433
       8 -> 14         0.70412
       8 -> 15        -0.03410
       8 -> 19         0.02097
       8 -> 20         0.01188
       8 -> 21        -0.03619
       8 -> 25        -0.00963
       8 -> 26        -0.00105
       8 -> 30        -0.00066
       8 -> 32         0.00378
       8 -> 34         0.00271
       8 -> 38         0.00056
       8 -> 39         0.00486
       8 -> 41        -0.00160
       8 -> 44        -0.00143
       8 -> 45        -0.00096
       8 -> 48        -0.00090
       3 <- 12        -0.00028
       3 <- 16         0.00085
       3 <- 18        -0.00029
       3 <- 23         0.00064
       3 <- 24         0.00046
       3 <- 29         0.00076
       3 <- 33        -0.00052
       3 <- 40         0.00023
       3 <- 42         0.00051
       3 <- 47         0.00032
       3 <- 50         0.00011
       3 <- 53        -0.00011
       4 <- 12        -0.00221
       4 <- 16         0.00167
       4 <- 18         0.00297
       4 <- 23        -0.00771
       4 <- 24         0.00651
       4 <- 29         0.00017
       4 <- 33         0.00088
       4 <- 35        -0.00230
       4 <- 40        -0.00049
       4 <- 42         0.00169
       4 <- 50         0.00020
       5 <- 10         0.00362
       5 <- 11        -0.00156
       5 <- 14         0.01071
       5 <- 15         0.00313
       5 <- 19         0.00230
       5 <- 20        -0.00602
       5 <- 21         0.00756
       5 <- 25         0.00440
       5 <- 26        -0.00143
       5 <- 30        -0.00115
       5 <- 32         0.00194
       5 <- 34         0.00087
       5 <- 38         0.00018
       5 <- 39        -0.00165
       5 <- 44         0.00031
       5 <- 45         0.00012
       5 <- 51        -0.00013
       6 <- 27         0.00493
       6 <- 46        -0.00060
       7 <- 12         0.00036
       7 <- 16         0.00142
       7 <- 18         0.00294
       7 <- 23        -0.00354
       7 <- 24         0.00310
       7 <- 29         0.00096
       7 <- 33         0.00094
       7 <- 35        -0.00057
       7 <- 40        -0.00048
       7 <- 42         0.00057
       7 <- 47        -0.00035
       8 <- 10        -0.01181
       8 <- 11        -0.00564
       8 <- 14        -0.02628
       8 <- 15        -0.00202
       8 <- 19         0.00223
       8 <- 20         0.00441
       8 <- 21        -0.01795
       8 <- 25        -0.00659
       8 <- 26         0.00019
       8 <- 30        -0.00058
       8 <- 32         0.00171
       8 <- 34         0.00089
       8 <- 38         0.00042
       8 <- 39         0.00304
       8 <- 41        -0.00112
       8 <- 44        -0.00110
       8 <- 45        -0.00036
       8 <- 48        -0.00067
 
 Excited State   7:      Singlet-B2    10.4685 eV  118.44 nm  f=0.0138  <S**2>=0.000
       3 -> 16         0.00059
       3 -> 18        -0.00036
       3 -> 23         0.00134
       3 -> 24         0.00014
       3 -> 29         0.00049
       3 -> 33        -0.00025
       3 -> 35         0.00044
       3 -> 42         0.00026
       4 -> 12        -0.00218
       4 -> 16        -0.00228
       4 -> 18         0.00074
       4 -> 23        -0.00432
       4 -> 24        -0.00110
       4 -> 33        -0.00084
       4 -> 35        -0.00011
       4 -> 40         0.00020
       4 -> 42         0.00017
       4 -> 47         0.00020
       4 -> 50         0.00013
       5 -> 10         0.00011
       5 -> 11         0.00787
       5 -> 14         0.00212
       5 -> 15         0.01317
       5 -> 19         0.00025
       5 -> 20        -0.00168
       5 -> 25        -0.00026
       5 -> 26        -0.00343
       5 -> 30        -0.00128
       5 -> 32         0.00119
       5 -> 34        -0.00061
       5 -> 38         0.00054
       5 -> 39         0.00033
       5 -> 41        -0.00066
       5 -> 44         0.00059
       5 -> 45         0.00030
       5 -> 48        -0.00029
       5 -> 51         0.00014
       5 -> 54         0.00020
       6 -> 27         0.00089
       6 -> 36         0.00015
       6 -> 46        -0.00044
       7 -> 12        -0.00015
       7 -> 16        -0.00025
       7 -> 23         0.00168
       7 -> 24         0.00094
       7 -> 29         0.00090
       7 -> 33        -0.00013
       7 -> 35         0.00032
       7 -> 40        -0.00024
       7 -> 42         0.00032
       7 -> 47        -0.00022
       7 -> 50        -0.00030
       8 -> 10        -0.01015
       8 -> 11         0.02333
       8 -> 14         0.03303
       8 -> 15         0.70515
       8 -> 19         0.01750
       8 -> 20        -0.01544
       8 -> 21        -0.01128
       8 -> 25         0.00561
       8 -> 26        -0.00760
       8 -> 30        -0.00080
       8 -> 32         0.00012
       8 -> 34        -0.00045
       8 -> 38         0.00105
       8 -> 41        -0.00033
       8 -> 44        -0.00040
       8 -> 45         0.00040
       8 -> 54         0.00019
       3 <- 12        -0.00024
       3 <- 16         0.00074
       3 <- 18        -0.00045
       3 <- 23         0.00065
       3 <- 24        -0.00041
       3 <- 29         0.00061
       3 <- 33        -0.00025
       3 <- 35         0.00038
       3 <- 42         0.00015
       4 <- 18         0.00077
       4 <- 23        -0.00075
       4 <- 24         0.00060
       4 <- 29         0.00022
       4 <- 33        -0.00069
       4 <- 35        -0.00032
       4 <- 40         0.00012
       4 <- 47         0.00019
       4 <- 50         0.00019
       5 <- 10         0.00072
       5 <- 11        -0.00060
       5 <- 14         0.00099
       5 <- 15         0.00068
       5 <- 19         0.00125
       5 <- 20        -0.00095
       5 <- 21         0.00021
       5 <- 25         0.00055
       5 <- 26        -0.00032
       5 <- 30        -0.00036
       5 <- 32         0.00070
       5 <- 38        -0.00015
       5 <- 39         0.00015
       5 <- 41        -0.00014
       5 <- 44         0.00023
       5 <- 45         0.00013
       5 <- 48        -0.00023
       5 <- 51        -0.00010
       6 <- 27         0.00036
       6 <- 36         0.00023
       6 <- 46        -0.00021
       7 <- 12         0.00036
       7 <- 16        -0.00107
       7 <- 18         0.00062
       7 <- 24         0.00094
       7 <- 29        -0.00055
       7 <- 40        -0.00014
       7 <- 42         0.00030
       7 <- 47        -0.00028
       7 <- 50        -0.00045
       7 <- 53        -0.00019
       8 <- 10        -0.00184
       8 <- 11        -0.00115
       8 <- 14        -0.00309
       8 <- 15         0.00095
       8 <- 19         0.00052
       8 <- 20         0.00114
       8 <- 21        -0.00096
       8 <- 25        -0.00099
       8 <- 26         0.00029
       8 <- 30         0.00058
       8 <- 32         0.00031
       8 <- 34        -0.00018
       8 <- 38         0.00080
       8 <- 41        -0.00020
       8 <- 44        -0.00029
       8 <- 45         0.00022
       8 <- 48        -0.00016
       8 <- 51        -0.00016
 
 Excited State   8:      Singlet-A1    11.4692 eV  108.10 nm  f=0.0009  <S**2>=0.000
       3 -> 10        -0.00068
       3 -> 11         0.00148
       3 -> 14         0.00132
       3 -> 15        -0.00206
       3 -> 19        -0.00226
       3 -> 20         0.00142
       3 -> 21         0.00208
       3 -> 25        -0.00186
       3 -> 26        -0.00015
       3 -> 30         0.00057
       3 -> 32        -0.00119
       3 -> 34         0.00271
       3 -> 38        -0.00027
       3 -> 39        -0.00017
       3 -> 41         0.00124
       3 -> 44        -0.00024
       3 -> 45        -0.00088
       3 -> 48        -0.00031
       3 -> 51        -0.00035
       3 -> 54         0.00026
       4 -> 10        -0.02382
       4 -> 11        -0.00824
       4 -> 14        -0.00993
       4 -> 15        -0.00986
       4 -> 19        -0.00117
       4 -> 20        -0.01153
       4 -> 21        -0.00104
       4 -> 25        -0.00374
       4 -> 26         0.00406
       4 -> 30        -0.00102
       4 -> 32         0.00320
       4 -> 34        -0.00098
       4 -> 38         0.00015
       4 -> 39        -0.00083
       4 -> 45         0.00060
       4 -> 48        -0.00011
       4 -> 51        -0.00037
       4 -> 54        -0.00029
       5 -> 12        -0.01272
       5 -> 16        -0.00089
       5 -> 18        -0.01105
       5 -> 23        -0.00267
       5 -> 24        -0.00811
       5 -> 29        -0.00226
       5 -> 33        -0.00100
       5 -> 35         0.00021
       5 -> 42         0.00135
       5 -> 47        -0.00050
       5 -> 50        -0.00059
       5 -> 53        -0.00024
       6 ->  9        -0.11135
       6 -> 13        -0.00058
       6 -> 17        -0.02878
       6 -> 22        -0.00492
       6 -> 28        -0.00984
       6 -> 31         0.00021
       6 -> 37         0.00043
       6 -> 43         0.00038
       6 -> 49        -0.00118
       6 -> 52        -0.00117
       7 -> 10        -0.05872
       7 -> 11         0.02235
       7 -> 14        -0.00511
       7 -> 15         0.01800
       7 -> 19        -0.01809
       7 -> 20        -0.00741
       7 -> 21        -0.00338
       7 -> 25        -0.00279
       7 -> 26        -0.00999
       7 -> 30        -0.00472
       7 -> 32        -0.00323
       7 -> 34         0.00078
       7 -> 38         0.00071
       7 -> 39        -0.00039
       7 -> 41         0.00073
       7 -> 44        -0.00026
       7 -> 45        -0.00040
       7 -> 48         0.00086
       7 -> 51         0.00161
       7 -> 54         0.00074
       8 -> 12        -0.03515
       8 -> 16         0.66169
       8 -> 18         0.20402
       8 -> 23         0.00814
       8 -> 24         0.00995
       8 -> 29        -0.00380
       8 -> 33         0.00031
       8 -> 35         0.00143
       8 -> 40         0.00020
       8 -> 42        -0.00043
       8 -> 47        -0.00045
       8 -> 50        -0.00088
       8 -> 53        -0.00031
       3 <- 10        -0.00052
       3 <- 11         0.00099
       3 <- 14         0.00043
       3 <- 15        -0.00103
       3 <- 19        -0.00169
       3 <- 20         0.00075
       3 <- 21         0.00106
       3 <- 25        -0.00094
       3 <- 30         0.00024
       3 <- 32        -0.00098
       3 <- 34         0.00191
[...]
  54        6D-1        0.00000   0.00000  -0.00333  -0.00324   0.00305
  55        6D+2        0.00000   0.00000  -0.00010  -0.00016  -0.00002
  56        6D-2        0.00000   0.00000   0.00000   0.00000   0.00000
                          26        27        28        29        30
  26        4PX         0.00015
  27        4PY         0.00000   0.00134
  28        4PZ         0.00000  -0.00053   0.00034
  29 3   H  1S          0.00000  -0.00359  -0.00108   0.08389
  30        2S          0.00000  -0.00509  -0.00172   0.12549   0.19293
  31        3S          0.00000  -0.00136  -0.00123   0.07445   0.12728
  32        4PX         0.00015   0.00000   0.00000   0.00000   0.00000
  33        4PY         0.00000  -0.00072   0.00000   0.00717   0.00926
  34        4PZ         0.00000  -0.00000  -0.00017   0.00425   0.00576
  35 4   O  1S          0.00000  -0.00095  -0.00069   0.00344   0.00487
  36        2S          0.00000  -0.00199  -0.00048   0.00596   0.00913
  37        2PX         0.00423   0.00000   0.00000   0.00000   0.00000
  38        2PY         0.00000  -0.00549   0.00310   0.02703   0.06434
  39        2PZ         0.00000  -0.00459  -0.00020   0.00901   0.02043
  40        3S          0.00000   0.00731  -0.00075  -0.02005  -0.03206
  41        3PX         0.00613   0.00000   0.00000   0.00000   0.00000
  42        3PY         0.00000  -0.00787   0.00441   0.04011   0.09461
  43        3PZ         0.00000  -0.00652  -0.00027   0.01287   0.02903
  44        4S          0.00000   0.00341  -0.00116  -0.01692  -0.01927
  45        4PX         0.00420   0.00000   0.00000   0.00000   0.00000
  46        4PY         0.00000  -0.00528   0.00215   0.05720   0.11565
  47        4PZ         0.00000  -0.00298  -0.00008   0.00702   0.01454
  48        5S          0.00000   0.00014  -0.00049  -0.00521  -0.00414
  49        5PX         0.00011   0.00000   0.00000   0.00000   0.00000
  50        5PY         0.00000  -0.00020  -0.00081   0.03536   0.06155
  51        5PZ         0.00000  -0.00088   0.00018   0.00406   0.00569
  52        6D 0        0.00000   0.00092  -0.00000  -0.00207  -0.00415
  53        6D+1       -0.00061   0.00000   0.00000   0.00000   0.00000
  54        6D-1        0.00000   0.00077  -0.00062   0.00333   0.00324
  55        6D+2        0.00000   0.00004  -0.00000  -0.00010  -0.00016
  56        6D-2       -0.00000   0.00000   0.00000   0.00000   0.00000
                          31        32        33        34        35
  31        3S          0.12212
  32        4PX         0.00000   0.00015
  33        4PY         0.00042   0.00000   0.00134
  34        4PZ         0.00180   0.00000   0.00053   0.00034
  35 4   O  1S          0.00205   0.00000   0.00095  -0.00069   0.63935
  36        2S          0.00241   0.00000   0.00199  -0.00048   0.56897
  37        2PX         0.00000   0.00423   0.00000   0.00000   0.00000
  38        2PY         0.10697   0.00000  -0.00549  -0.00310   0.00000
  39        2PZ        -0.00152   0.00000   0.00459  -0.00020  -0.00539
  40        3S         -0.00438   0.00000  -0.00731  -0.00075  -0.12592
  41        3PX         0.00000   0.00613   0.00000   0.00000   0.00000
  42        3PY         0.15570   0.00000  -0.00787  -0.00441   0.00000
  43        3PZ        -0.00208   0.00000   0.00652  -0.00027  -0.00931
  44        4S         -0.00636   0.00000  -0.00341  -0.00116  -0.12544
  45        4PX         0.00000   0.00420   0.00000   0.00000   0.00000
  46        4PY         0.15527   0.00000  -0.00528  -0.00215   0.00000
  47        4PZ        -0.00091   0.00000   0.00298  -0.00008  -0.01377
  48        5S         -0.00203   0.00000  -0.00014  -0.00049  -0.01101
  49        5PX         0.00000   0.00011   0.00000   0.00000   0.00000
  50        5PY         0.06153   0.00000  -0.00020   0.00081   0.00000
  51        5PZ         0.00059   0.00000   0.00088   0.00018   0.00272
  52        6D 0        0.00006   0.00000  -0.00092  -0.00000  -0.00242
  53        6D+1        0.00000  -0.00061   0.00000   0.00000   0.00000
  54        6D-1       -0.00305   0.00000   0.00077   0.00062   0.00000
  55        6D+2       -0.00002   0.00000  -0.00004  -0.00000  -0.00052
  56        6D-2        0.00000   0.00000   0.00000   0.00000   0.00000
                          36        37        38        39        40
  36        2S          0.52376
  37        2PX         0.00000   0.11789
  38        2PY         0.00000   0.00000   0.17817
  39        2PZ        -0.00817   0.00000   0.00000   0.17531
  40        3S         -0.21773   0.00000   0.00000   0.02643   0.66639
  41        3PX         0.00000   0.17106   0.00000   0.00000   0.00000
  42        3PY         0.00000   0.00000   0.25743   0.00000   0.00000
  43        3PZ        -0.01177   0.00000   0.00000   0.24630   0.02982
  44        4S         -0.19919   0.00000   0.00000   0.16667   0.56094
  45        4PX         0.00000   0.11699   0.00000   0.00000   0.00000
  46        4PY         0.00000   0.00000   0.21433   0.00000   0.00000
  47        4PZ        -0.02194   0.00000   0.00000   0.12155   0.06465
  48        5S         -0.01865   0.00000   0.00000   0.06039   0.05802
  49        5PX         0.00000   0.00308   0.00000   0.00000   0.00000
  50        5PY         0.00000   0.00000   0.05365   0.00000   0.00000
  51        5PZ         0.00365   0.00000   0.00000   0.00786  -0.00801
  52        6D 0       -0.00511   0.00000   0.00000  -0.02461   0.01777
  53        6D+1        0.00000  -0.01688   0.00000   0.00000   0.00000
  54        6D-1        0.00000   0.00000  -0.01518   0.00000   0.00000
  55        6D+2       -0.00094   0.00000   0.00000  -0.00011   0.00300
  56        6D-2        0.00000   0.00000   0.00000   0.00000   0.00000
                          41        42        43        44        45
  41        3PX         0.24823
  42        3PY         0.00000   0.37197
  43        3PZ         0.00000   0.00000   0.34615
  44        4S          0.00000   0.00000   0.22830   0.59490
  45        4PX         0.16977   0.00000   0.00000   0.00000   0.11611
  46        4PY         0.00000   0.31022   0.00000   0.00000   0.00000
  47        4PZ         0.00000   0.00000   0.17031   0.15235   0.00000
  48        5S          0.00000   0.00000   0.08434   0.09876   0.00000
  49        5PX         0.00447   0.00000   0.00000   0.00000   0.00306
  50        5PY         0.00000   0.07811   0.00000   0.00000   0.00000
  51        5PZ         0.00000   0.00000   0.01112  -0.00090   0.00000
  52        6D 0        0.00000   0.00000  -0.03481  -0.00602   0.00000
  53        6D+1       -0.02449   0.00000   0.00000   0.00000  -0.01675
  54        6D-1        0.00000  -0.02181   0.00000   0.00000   0.00000
  55        6D+2        0.00000   0.00000  -0.00018   0.00233   0.00000
  56        6D-2        0.00000   0.00000   0.00000   0.00000   0.00000
                          46        47        48        49        50
  46        4PY         0.27028
  47        4PZ         0.00000   0.08776
  48        5S          0.00000   0.04482   0.02598
  49        5PX         0.00000   0.00000   0.00000   0.00008
  50        5PY         0.07825   0.00000   0.00000   0.00000   0.03127
  51        5PZ         0.00000   0.00504   0.00125   0.00000   0.00000
  52        6D 0        0.00000  -0.01557  -0.00686   0.00000   0.00000
  53        6D+1        0.00000   0.00000   0.00000  -0.00044   0.00000
  54        6D-1       -0.01543   0.00000   0.00000   0.00000  -0.00145
  55        6D+2        0.00000   0.00014   0.00019   0.00000   0.00000
  56        6D-2        0.00000   0.00000   0.00000   0.00000   0.00000
                          51        52        53        54        55
  51        5PZ         0.00087
  52        6D 0       -0.00141   0.00415
  53        6D+1        0.00000   0.00000   0.00242
  54        6D-1        0.00000   0.00000   0.00000   0.00194
  55        6D+2       -0.00005   0.00011   0.00000   0.00000   0.00001
  56        6D-2        0.00000   0.00000   0.00000   0.00000   0.00000
                          56
  56        6D-2        0.00000
          Condensed to atoms (all electrons):
               1          2          3          4
     1  C    4.596938   0.432053   0.432053   0.383941
     2  H    0.432053   0.834521  -0.157399  -0.135758
     3  H    0.432053  -0.157399   0.834521  -0.135758
     4  O    0.383941  -0.135758  -0.135758   8.095758
 Mulliken charges:
               1
     1  C    0.155015
     2  H    0.026583
     3  H    0.026583
     4  O   -0.208182
 Sum of Mulliken charges =   0.00000
 Mulliken charges with hydrogens summed into heavy atoms:
               1
     1  C    0.208182
     4  O   -0.208182
 Electronic spatial extent (au):  <R**2>=             52.2588
 Charge=              0.0000 electrons
 Dipole moment (field-independent basis, Debye):
    X=              0.0000    Y=              0.0000    Z=             -0.9771  Tot=              0.9771
 Quadrupole moment (field-independent basis, Debye-Ang):
   XX=            -10.9668   YY=            -12.1349   ZZ=            -13.0736
   XY=             -0.0000   XZ=             -0.0000   YZ=             -0.0000
 Traceless Quadrupole moment (field-independent basis, Debye-Ang):
   XX=              1.0916   YY=             -0.0764   ZZ=             -1.0152
   XY=             -0.0000   XZ=             -0.0000   YZ=             -0.0000
 Octapole moment (field-independent basis, Debye-Ang**2):
  XXX=              0.0000  YYY=              0.0000  ZZZ=              2.9526  XYY=              0.0000
  XXY=              0.0000  XXZ=              1.0877  XZZ=              0.0000  YZZ=              0.0000
  YYZ=              1.6738  XYZ=              0.0000
 Hexadecapole moment (field-independent basis, Debye-Ang**3):
 XXXX=             -9.1641 YYYY=            -22.5512 ZZZZ=            -39.0797 XXXY=             -0.0000
 XXXZ=             -0.0000 YYYX=             -0.0000 YYYZ=              0.0000 ZZZX=             -0.0000
 ZZZY=             -0.0000 XXYY=             -5.3781 XXZZ=             -7.8135 YYZZ=            -11.2213
 XXYZ=              0.0000 YYXZ=             -0.0000 ZZXY=             -0.0000
 N-N= 3.744321125600D+01 E-N=-3.445677272142D+02  KE= 1.158430537533D+02
 Symmetry A1   KE= 1.049817366998D+02
 Symmetry A2   KE= 6.041224548757D-36
 Symmetry B1   KE= 4.042615357393D+00
 Symmetry B2   KE= 6.818701696078D+00
 Leave Link  601 at Fri Sep 17 10:52:33 2021, MaxMem=   268435456 cpu:               0.0 elap:               0.1
 (Enter /software/gaussian/g16-a03/l9999.exe)
 Electronic transition elements 
                 1             2             3             4             5 
      1  -0.114164D+03 -0.114133D+03 -0.114104D+03 -0.114099D+03 -0.114077D+03
      2   0.000000D+00  0.000000D+00  0.000000D+00  0.000000D+00  0.000000D+00
      3   0.000000D+00  0.706259D+00  0.349438D+00  0.000000D+00  0.000000D+00
      4   0.000000D+00  0.000000D+00  0.000000D+00 -0.527430D+00  0.000000D+00
      5   0.000000D+00  0.000000D+00  0.000000D+00  0.000000D+00  0.000000D+00
      6   0.000000D+00 -0.156736D+00 -0.919300D-01  0.000000D+00  0.000000D+00
      7   0.000000D+00  0.000000D+00  0.000000D+00  0.131372D+00  0.000000D+00
      8   0.000000D+00 -0.436955D+00  0.794751D+00  0.000000D+00  0.000000D+00
      9   0.000000D+00  0.000000D+00  0.000000D+00  0.000000D+00  0.000000D+00
     10   0.128468D+01  0.000000D+00  0.000000D+00  0.000000D+00 -0.317004D+00
     11   0.000000D+00  0.000000D+00  0.000000D+00 -0.165530D+00  0.000000D+00
     12   0.000000D+00  0.000000D+00  0.000000D+00 -0.607907D+00  0.000000D+00
     13   0.000000D+00  0.000000D+00  0.000000D+00 -0.208053D+00  0.000000D+00
     14  -0.209647D+00  0.000000D+00  0.000000D+00  0.000000D+00 -0.127020D+00
     15   0.000000D+00  0.000000D+00  0.000000D+00  0.000000D+00  0.000000D+00
     16   0.000000D+00  0.526478D+00  0.225814D+00  0.000000D+00  0.000000D+00
                 6             7             8             9            10 
      1  -0.113990D+03 -0.113975D+03 -0.113938D+03 -0.113936D+03 -0.113915D+03
      2   0.000000D+00  0.000000D+00  0.000000D+00  0.000000D+00  0.000000D+00
      3   0.104286D+01  0.231854D+00  0.000000D+00  0.000000D+00  0.000000D+00
      4   0.000000D+00  0.000000D+00  0.573969D-01  0.000000D+00 -0.706305D+00
      5   0.000000D+00  0.000000D+00  0.000000D+00  0.000000D+00  0.000000D+00
      6  -0.388384D+00 -0.569415D-01  0.000000D+00  0.000000D+00  0.000000D+00
      7   0.000000D+00  0.000000D+00 -0.287932D-01  0.000000D+00  0.315305D+00
      8  -0.845406D+00 -0.918261D+00  0.000000D+00  0.000000D+00  0.000000D+00
      9   0.000000D+00  0.000000D+00  0.000000D+00  0.000000D+00  0.000000D+00
     10   0.000000D+00  0.000000D+00  0.000000D+00  0.853613D-01  0.000000D+00
     11   0.000000D+00  0.000000D+00  0.109007D+00  0.000000D+00  0.192656D+00
     12   0.000000D+00  0.000000D+00  0.748965D+00  0.000000D+00 -0.437814D+00
     13   0.000000D+00  0.000000D+00  0.753037D+00  0.000000D+00 -0.540304D+00
     14   0.000000D+00  0.000000D+00  0.000000D+00  0.263704D+00  0.000000D+00
     15   0.000000D+00  0.000000D+00  0.000000D+00  0.000000D+00  0.000000D+00
     16   0.896707D+00 -0.181815D+00  0.000000D+00  0.000000D+00  0.000000D+00
                11            12            13            14            15 
      1  -0.113904D+03 -0.113886D+03 -0.113872D+03 -0.113863D+03 -0.113849D+03
      2  -0.486480D-01  0.000000D+00  0.000000D+00 -0.346992D+00  0.000000D+00
      3   0.000000D+00 -0.359448D+00  0.000000D+00  0.000000D+00  0.000000D+00
      4   0.000000D+00  0.000000D+00 -0.120212D+00  0.000000D+00  0.888181D+00
      5   0.125184D-01  0.000000D+00  0.000000D+00  0.176079D+00  0.000000D+00
      6   0.000000D+00  0.176891D+00  0.000000D+00  0.000000D+00  0.000000D+00
      7   0.000000D+00  0.000000D+00  0.573863D-01  0.000000D+00 -0.452839D+00
      8   0.000000D+00 -0.469830D+00  0.000000D+00  0.000000D+00  0.000000D+00
      9  -0.120144D+01  0.000000D+00  0.000000D+00 -0.481406D-01  0.000000D+00
     10   0.000000D+00  0.000000D+00  0.000000D+00  0.000000D+00  0.000000D+00
     11   0.000000D+00  0.000000D+00  0.105178D+00  0.000000D+00  0.203432D+00
     12   0.000000D+00  0.000000D+00  0.334837D+00  0.000000D+00  0.255114D+00
     13   0.000000D+00  0.000000D+00  0.480140D+00  0.000000D+00  0.229564D+00
     14   0.000000D+00  0.000000D+00  0.000000D+00  0.000000D+00  0.000000D+00
     15  -0.461249D+00  0.000000D+00  0.000000D+00 -0.173450D-01  0.000000D+00
     16   0.000000D+00  0.840116D-01  0.000000D+00  0.000000D+00  0.000000D+00
                16            17            18            19            20 
      1  -0.113844D+03 -0.113844D+03 -0.113836D+03 -0.113831D+03 -0.113830D+03
      2   0.000000D+00  0.000000D+00  0.000000D+00  0.000000D+00  0.213290D+00
      3  -0.358410D+00  0.000000D+00  0.000000D+00  0.000000D+00  0.000000D+00
      4   0.000000D+00  0.000000D+00  0.382356D+00  0.000000D+00  0.000000D+00
      5   0.000000D+00  0.000000D+00  0.000000D+00  0.000000D+00 -0.120181D+00
      6   0.184575D+00  0.000000D+00  0.000000D+00  0.000000D+00  0.000000D+00
      7   0.000000D+00  0.000000D+00 -0.193356D+00  0.000000D+00  0.000000D+00
      8  -0.304603D+00  0.000000D+00  0.000000D+00  0.000000D+00  0.000000D+00
      9   0.000000D+00  0.000000D+00  0.000000D+00  0.000000D+00 -0.180260D+00
     10   0.000000D+00 -0.375499D+00  0.000000D+00  0.661536D-01  0.000000D+00
     11   0.000000D+00  0.000000D+00  0.690616D+00  0.000000D+00  0.000000D+00
     12   0.000000D+00  0.000000D+00  0.653437D+00  0.000000D+00  0.000000D+00
     13   0.000000D+00  0.000000D+00  0.228635D+00  0.000000D+00  0.000000D+00
     14   0.000000D+00  0.273737D+00  0.000000D+00  0.230328D+00  0.000000D+00
     15   0.000000D+00  0.000000D+00  0.000000D+00  0.000000D+00 -0.319603D+00
     16   0.731098D-01  0.000000D+00  0.000000D+00  0.000000D+00  0.000000D+00
                21            22            23            24            25 
      1  -0.113818D+03 -0.113806D+03 -0.113800D+03 -0.113793D+03 -0.113784D+03
      2  -0.251736D+00  0.000000D+00  0.000000D+00  0.000000D+00 -0.630566D+00
      3   0.000000D+00 -0.473228D+00 -0.207229D+00  0.000000D+00  0.000000D+00
      4   0.000000D+00  0.000000D+00  0.000000D+00 -0.600966D+00  0.000000D+00
      5   0.129329D+00  0.000000D+00  0.000000D+00  0.000000D+00  0.373081D+00
      6   0.000000D+00  0.260050D+00  0.106023D+00  0.000000D+00  0.000000D+00
      7   0.000000D+00  0.000000D+00  0.000000D+00  0.343579D+00  0.000000D+00
      8   0.000000D+00  0.317038D+00  0.117825D+01  0.000000D+00  0.000000D+00
      9   0.777120D+00  0.000000D+00  0.000000D+00  0.000000D+00 -0.491616D+00
     10   0.000000D+00  0.000000D+00  0.000000D+00  0.000000D+00  0.000000D+00
     11   0.000000D+00  0.000000D+00  0.000000D+00  0.215067D+00  0.000000D+00
     12   0.000000D+00  0.000000D+00  0.000000D+00 -0.596408D+00  0.000000D+00
     13   0.000000D+00  0.000000D+00  0.000000D+00 -0.979674D-01  0.000000D+00
     14   0.000000D+00  0.000000D+00  0.000000D+00  0.000000D+00  0.000000D+00
     15   0.346010D+00  0.000000D+00  0.000000D+00  0.000000D+00 -0.497225D+00
     16   0.000000D+00 -0.298534D+00 -0.138957D+00  0.000000D+00  0.000000D+00
                26            27            28            29            30 
      1  -0.113776D+03 -0.113774D+03 -0.113758D+03 -0.113750D+03 -0.113748D+03
      2   0.000000D+00  0.000000D+00  0.000000D+00  0.000000D+00  0.000000D+00
      3   0.000000D+00  0.177698D+00  0.000000D+00  0.000000D+00  0.000000D+00
      4   0.237388D+00  0.000000D+00  0.212406D+00  0.000000D+00  0.331961D+00
      5   0.000000D+00  0.000000D+00  0.000000D+00  0.000000D+00  0.000000D+00
      6   0.000000D+00 -0.108070D+00  0.000000D+00  0.000000D+00  0.000000D+00
      7  -0.137370D+00  0.000000D+00 -0.136326D+00  0.000000D+00 -0.205286D+00
      8   0.000000D+00 -0.133445D+00  0.000000D+00  0.000000D+00  0.000000D+00
      9   0.000000D+00  0.000000D+00  0.000000D+00  0.000000D+00  0.000000D+00
     10   0.000000D+00  0.000000D+00  0.000000D+00  0.103683D+00  0.000000D+00
     11   0.182956D+00  0.000000D+00 -0.500613D+00  0.000000D+00 -0.163784D+00
     12  -0.924300D-01  0.000000D+00 -0.179762D+00  0.000000D+00 -0.581015D+00
     13   0.413928D+00  0.000000D+00 -0.173231D+00  0.000000D+00  0.425185D+00
     14   0.000000D+00  0.000000D+00  0.000000D+00  0.236914D+00  0.000000D+00
     15   0.000000D+00  0.000000D+00  0.000000D+00  0.000000D+00  0.000000D+00
     16   0.000000D+00 -0.330274D+00  0.000000D+00  0.000000D+00  0.000000D+00

 Test job not archived.
 1\1\GINC-BHD0008\SP\RB3LYP TD-FC\6-311+G(d,p)\C1H2O1\BWEIGHT\17-Sep-20
 21\0\\#p B3LYP/6-311+G** #p TD=(singlets,nstates=30)IOp(6/8=3) IOp(9/4
 0=4)\\Scan Step 90, Bond Length 0.95\\0,1\C,0,0.,0.,-0.52736\H,0,0.,0.
 93726,-1.11871\H,0,0.,-0.93726,-1.11871\O,0,0.,0.,0.42264\\Version=ES6
 4L-G16RevA.03\State=1-A1\HF=-114.3599659\RMSD=3.851e-09\PG=C02V [C2(C1
 O1),SGV(H2)]\\@


 THE ENLIGHTENED ONE, BECAUSE HE SAW MANKIND DROWNING  
 IN THE GREAT SEA OF BIRTH, DEATH, AND SORROW, LONGED TO SAVE 
 THEM, FOR THIS HE WAS MOVED TO PITY.                         
 BECAUSE HE SAW MEN OF THE WORLD STRAYING IN FALSE PATHS, AND 
 NONE TO GUIDE THEM, FOR THIS HE WAS MOVED TO PITY.           
                     ..................                       
 BECAUSE HE SAW THE MEN OF THE WORLD PLOUGHING THEIR FIELDS,  
 SOWING THE SEED, TRAFFICKING, HUCKSTERING, BUYING, SELLING,  
 AND AT THE END WINNOWING NOTHING BUT BITTERNESS,             
 FOR THIS HE WAS MOVED TO PITY......                   
                   BUDAH'S PITY - UPSAKA SILA SUTRA           
 Job cpu time:       0 days  0 hours  0 minutes 26.6 seconds.
 Elapsed time:       0 days  0 hours  0 minutes 27.4 seconds.
 File lengths (MBytes):  RWF=     79 Int=      0 D2E=      0 Chk=     32 Scr=      1
 Normal termination of Gaussian 16 at Fri Sep 17 10:52:33 2021.
