 Entering Gaussian System, Link 0=g16
 Initial command:
 /software/gaussian/g16-c01/sse4/g16/l1.exe "/local_scratch/24657443/Gau-29295.inp" -scrdir="/local_scratch/24657443/"
 Entering Link 1 = /software/gaussian/g16-c01/sse4/g16/l1.exe PID=     29302.
  
 Copyright (c) 1988-2019, Gaussian, Inc.  All Rights Reserved.
  
 This is part of the Gaussian(R) 16 program.  It is based on
 the Gaussian(R) 09 system (copyright 2009, Gaussian, Inc.),
 the Gaussian(R) 03 system (copyright 2003, Gaussian, Inc.),
 the Gaussian(R) 98 system (copyright 1998, Gaussian, Inc.),
 the Gaussian(R) 94 system (copyright 1995, Gaussian, Inc.),
 the Gaussian 92(TM) system (copyright 1992, Gaussian, Inc.),
 the Gaussian 90(TM) system (copyright 1990, Gaussian, Inc.),
 the Gaussian 88(TM) system (copyright 1988, Gaussian, Inc.),
 the Gaussian 86(TM) system (copyright 1986, Carnegie Mellon
 University), and the Gaussian 82(TM) system (copyright 1983,
 Carnegie Mellon University). Gaussian is a federally registered
 trademark of Gaussian, Inc.
  
 This software contains proprietary and confidential information,
 including trade secrets, belonging to Gaussian, Inc.
  
 This software is provided under written license and may be
 used, copied, transmitted, or stored only in accord with that
 written license.
  
 The following legend is applicable only to US Government
 contracts under FAR:
  
                    RESTRICTED RIGHTS LEGEND
  
 Use, reproduction and disclosure by the US Government is
 subject to restrictions as set forth in subparagraphs (a)
 and (c) of the Commercial Computer Software - Restricted
 Rights clause in FAR 52.227-19.
  
 Gaussian, Inc.
 340 Quinnipiac St., Bldg. 40, Wallingford CT 06492
  
  
 ---------------------------------------------------------------
 Warning -- This program may not be used in any manner that
 competes with the business of Gaussian, Inc. or will provide
 assistance to any competitor of Gaussian, Inc.  The licensee
 of this program is prohibited from giving any competitor of
 Gaussian, Inc. access to this program.  By using this program,
 the user acknowledges that Gaussian, Inc. is engaged in the
 business of creating and licensing software in the field of
 computational chemistry and represents and warrants to the
 licensee that it is not a competitor of Gaussian, Inc. and that
 it will not use this program in any manner prohibited above.
 ---------------------------------------------------------------
  

 Cite this work as:
 Gaussian 16, Revision C.01,
 M. J. Frisch, G. W. Trucks, H. B. Schlegel, G. E. Scuseria, 
 M. A. Robb, J. R. Cheeseman, G. Scalmani, V. Barone, 
 G. A. Petersson, H. Nakatsuji, X. Li, M. Caricato, A. V. Marenich, 
 J. Bloino, B. G. Janesko, R. Gomperts, B. Mennucci, H. P. Hratchian, 
 J. V. Ortiz, A. F. Izmaylov, J. L. Sonnenberg, D. Williams-Young, 
 F. Ding, F. Lipparini, F. Egidi, J. Goings, B. Peng, A. Petrone, 
 T. Henderson, D. Ranasinghe, V. G. Zakrzewski, J. Gao, N. Rega, 
 G. Zheng, W. Liang, M. Hada, M. Ehara, K. Toyota, R. Fukuda, 
 J. Hasegawa, M. Ishida, T. Nakajima, Y. Honda, O. Kitao, H. Nakai, 
 T. Vreven, K. Throssell, J. A. Montgomery, Jr., J. E. Peralta, 
 F. Ogliaro, M. J. Bearpark, J. J. Heyd, E. N. Brothers, K. N. Kudin, 
 V. N. Staroverov, T. A. Keith, R. Kobayashi, J. Normand, 
 K. Raghavachari, A. P. Rendell, J. C. Burant, S. S. Iyengar, 
 J. Tomasi, M. Cossi, J. M. Millam, M. Klene, C. Adamo, R. Cammi, 
 J. W. Ochterski, R. L. Martin, K. Morokuma, O. Farkas, 
 J. B. Foresman, and D. J. Fox, Gaussian, Inc., Wallingford CT, 2019.
 
 ******************************************
 Gaussian 16:  ES64L-G16RevC.01  3-Jul-2019
                 1-May-2024 
 ******************************************
 %chk=geometry.chk
 %mem=9GB
 %nprocshared=12
 Will use up to   12 processors via shared memory.
 ---------------------------------------
 #P wB97XD/6-311+G* NoSymm #P Field=X+19
 ---------------------------------------
 1/38=1,172=1/1;
 2/12=2,15=1,17=6,18=5,40=1/2;
 3/5=4,6=6,7=11,11=2,14=1,15=19,25=1,30=1,74=-58/1,2,3;
 4//1;
 5/5=2,38=5/2;
 6/7=2,8=2,9=2,10=2,28=1/1;
 99/5=1,9=1/99;
 Leave Link    1 at Wed May  1 14:27:44 2024, MaxMem=  1207959552 cpu:               1.7 elap:               1.7
 (Enter /software/gaussian/g16-c01/sse4/g16/l101.exe)
 -------
 TitleMe
 -------
 Symbolic Z-matrix:
 Charge =  1 Multiplicity = 1
 C                     0.0295    1.3397    0.0682 
 C                     1.4348    1.2867    0.0064 
 C                     2.1118    0.0511   -0.0054 
 C                     1.4451   -1.1372    0.0312 
 C                    -0.6879    0.1682    0.11 
 H                    -0.4713    2.2984    0.0781 
 H                     2.0273    2.1965   -0.0322 
 H                     1.9897   -2.0764    0.0232 
 H                    -1.7716    0.1804    0.1582 
 N                     3.5864    0.051    -0.0675 
 O                     4.1471   -1.0597   -0.0881 
 O                     4.145     1.1639   -0.0901 
 C                    -0.0236   -1.1458    0.0835 
 H                    -0.4367   -1.8725    0.7889 
 Br                   -0.5359   -1.8697   -1.7408 
 
 ITRead=  0  0  0  0  0  0  0  0  0  0  0  0  0  0  0
 MicOpt= -1 -1 -1 -1 -1 -1 -1 -1 -1 -1 -1 -1 -1 -1 -1
 NAtoms=     15 NQM=       15 NQMF=       0 NMMI=      0 NMMIF=      0
                NMic=       0 NMicF=      0.
                    Isotopes and Nuclear Properties:
 (Nuclear quadrupole moments (NQMom) in fm**2, nuclear magnetic moments (NMagM)
  in nuclear magnetons)

  Atom         1           2           3           4           5           6           7           8           9          10
 IAtWgt=          12          12          12          12          12           1           1           1           1          14
 AtmWgt=  12.0000000  12.0000000  12.0000000  12.0000000  12.0000000   1.0078250   1.0078250   1.0078250   1.0078250  14.0030740
 NucSpn=           0           0           0           0           0           1           1           1           1           2
 AtZEff=  -0.0000000  -0.0000000  -0.0000000  -0.0000000  -0.0000000  -0.0000000  -0.0000000  -0.0000000  -0.0000000  -0.0000000
 NQMom=    0.0000000   0.0000000   0.0000000   0.0000000   0.0000000   0.0000000   0.0000000   0.0000000   0.0000000   2.0440000
 NMagM=    0.0000000   0.0000000   0.0000000   0.0000000   0.0000000   2.7928460   2.7928460   2.7928460   2.7928460   0.4037610
 AtZNuc=   6.0000000   6.0000000   6.0000000   6.0000000   6.0000000   1.0000000   1.0000000   1.0000000   1.0000000   7.0000000

  Atom        11          12          13          14          15
 IAtWgt=          16          16          12           1          79
 AtmWgt=  15.9949146  15.9949146  12.0000000   1.0078250  78.9183361
 NucSpn=           0           0           0           1           3
 AtZEff=  -0.0000000  -0.0000000  -0.0000000  -0.0000000  -0.0000000
 NQMom=    0.0000000   0.0000000   0.0000000   0.0000000  31.3000000
 NMagM=    0.0000000   0.0000000   0.0000000   2.7928460   2.1063990
 AtZNuc=   8.0000000   8.0000000   6.0000000   1.0000000  35.0000000
 Leave Link  101 at Wed May  1 14:27:45 2024, MaxMem=  1207959552 cpu:               1.3 elap:               1.3
 (Enter /software/gaussian/g16-c01/sse4/g16/l202.exe)
                          Input orientation:                          
 ---------------------------------------------------------------------
 Center     Atomic      Atomic             Coordinates (Angstroms)
 Number     Number       Type             X           Y           Z
 ---------------------------------------------------------------------
      1          6           0        0.029500    1.339700    0.068200
      2          6           0        1.434800    1.286700    0.006400
      3          6           0        2.111800    0.051100   -0.005400
      4          6           0        1.445100   -1.137200    0.031200
      5          6           0       -0.687900    0.168200    0.110000
      6          1           0       -0.471300    2.298400    0.078100
      7          1           0        2.027300    2.196500   -0.032200
      8          1           0        1.989700   -2.076400    0.023200
      9          1           0       -1.771600    0.180400    0.158200
     10          7           0        3.586400    0.051000   -0.067500
     11          8           0        4.147100   -1.059700   -0.088100
     12          8           0        4.145000    1.163900   -0.090100
     13          6           0       -0.023600   -1.145800    0.083500
     14          1           0       -0.436700   -1.872500    0.788900
     15         35           0       -0.535900   -1.869700   -1.740800
 ---------------------------------------------------------------------
                    Distance matrix (angstroms):
                    1          2          3          4          5
     1  C    0.000000
     2  C    1.407656   0.000000
     3  C    2.449874   1.408963   0.000000
     4  C    2.853126   2.424049   1.363043   0.000000
     5  C    1.374344   2.401589   2.804523   2.501993   0.000000
     6  H    1.081667   2.159142   3.424870   3.934226   2.141421
     7  H    2.176095   1.086408   2.147231   3.384750   3.392128
     8  H    3.938800   3.408612   2.131193   1.085702   3.495040
     9  H    2.143837   3.395283   3.888995   3.478413   1.084840
    10  N    3.785591   2.482297   1.475907   2.450862   4.279589
    11  O    4.768247   3.587631   2.320164   2.705743   4.992415
    12  O    4.122294   2.714696   2.319353   3.549540   4.938459
    13  C    2.486114   2.837240   2.449573   1.469656   1.472614
    14  H    3.324903   3.754379   3.290289   2.157764   2.165286
    15  Br   3.727252   4.110867   3.702891   2.756973   2.757100
                    6          7          8          9         10
     6  H    0.000000
     7  H    2.503108   0.000000
     8  H    5.019802   4.273425   0.000000
     9  H    2.486588   4.304945   4.388479   0.000000
    10  N    4.640790   2.652397   2.661486   5.364313   0.000000
    11  O    5.712624   3.885809   2.387560   6.052233   1.244373
    12  O    4.756638   2.356750   3.893289   6.002923   1.245428
    13  C    3.473180   3.923079   2.218790   2.195425   3.806210
    14  H    4.231175   4.827242   2.552506   2.528663   4.540772
    15  Br   4.548146   5.101303   3.087568   3.055498   4.845862
                   11         12         13         14         15
    11  O    0.000000
    12  O    2.223602   0.000000
    13  C    4.175117   4.768865   0.000000
    14  H    4.737193   5.566358   1.093770   0.000000
    15  Br   5.031700   5.817075   2.028436   2.531646   0.000000
 Symmetry turned off by external request.
 Stoichiometry    C6H5BrNO2(1+)
 Framework group  C1[X(C6H5BrNO2)]
 Deg. of freedom    39
 Full point group                 C1      NOp   1
 Rotational constants (GHZ):           1.8252210           0.5518633           0.4576002
 Leave Link  202 at Wed May  1 14:27:47 2024, MaxMem=  1207959552 cpu:               1.1 elap:               1.1
 (Enter /software/gaussian/g16-c01/sse4/g16/l301.exe)
 Standard basis: 6-311+G(d) (5D, 7F)
 Ernie: Thresh=  0.10000D-02 Tol=  0.10000D-05 Strict=F.
 The following finite field(s) will be applied:
 An electric field of              0.0019  0.0000  0.0000
   261 basis functions,   443 primitive gaussians,   273 cartesian basis functions
    49 alpha electrons       49 beta electrons
       nuclear repulsion energy       739.2122215416 Hartrees.
 IExCor= 4639 DFT=T Ex+Corr=wB97XD ExCW=0 ScaHFX=  1.000000
 ScaDFX=  1.000000  1.000000  1.000000  1.000000 ScalE2=  1.000000  1.000000
 IRadAn=      5 IRanWt=     -1 IRanGd=            0 ICorTp=0 IEmpDi=121
 HFx  wShort=  0.000000 wLong=  0.200000 cFull=  0.222036 cShort=  0.000000 cLong=  0.777964
 DFx  wShort=  0.000000 wLong=  0.200000 cFull=  0.000000 cShort=  0.000000 cLong=  1.000000
 NAtoms=   15 NActive=   15 NUniq=   15 SFac= 1.00D+00 NAtFMM=   60 NAOKFM=F Big=F
 Integral buffers will be    131072 words long.
 Raffenetti 2 integral format.
 Two-electron integral symmetry is turned off.
 R6Disp:  Grimme-D2 Dispersion energy=       -0.0077368520 Hartrees.
 Nuclear repulsion after empirical dispersion term =      739.2044846896 Hartrees.
 Leave Link  301 at Wed May  1 14:27:48 2024, MaxMem=  1207959552 cpu:               1.1 elap:               1.1
 (Enter /software/gaussian/g16-c01/sse4/g16/l302.exe)
 NPDir=0 NMtPBC=     1 NCelOv=     1 NCel=       1 NClECP=     1 NCelD=      1
         NCelK=      1 NCelE2=     1 NClLst=     1 CellRange=     0.0.
 One-electron integrals computed using PRISM.
 NBasis=   261 RedAO= T EigKep=  2.35D-06  NBF=   261
 NBsUse=   261 1.00D-06 EigRej= -1.00D+00 NBFU=   261
 Precomputing XC quadrature grid using
 IXCGrd= 4 IRadAn=           5 IRanWt=          -1 IRanGd=           0 AccXCQ= 0.00D+00.
 Generated NRdTot=       0 NPtTot=           0 NUsed=           0 NTot=          32
 NSgBfM=   273   273   273   273   273 MxSgAt=    15 MxSgA2=    15.
 Leave Link  302 at Wed May  1 14:28:09 2024, MaxMem=  1207959552 cpu:              21.3 elap:              21.4
 (Enter /software/gaussian/g16-c01/sse4/g16/l303.exe)
 DipDrv:  MaxL=1.
 The nuclear repulsion energy is now       739.5631043090 hartrees.
 Leave Link  303 at Wed May  1 14:28:13 2024, MaxMem=  1207959552 cpu:               3.4 elap:               3.4
 (Enter /software/gaussian/g16-c01/sse4/g16/l401.exe)
 ExpMin= 3.50D-02 ExpMax= 4.40D+05 ExpMxC= 1.51D+04 IAcc=3 IRadAn=         5 AccDes= 0.00D+00
 Harris functional with IExCor= 4639 and IRadAn=       5 diagonalized for initial guess.
 HarFok:  IExCor= 4639 AccDes= 0.00D+00 IRadAn=         5 IDoV= 1 UseB2=F ITyADJ=14
 ICtDFT=  3500011 ScaDFX=  1.000000  1.000000  1.000000  1.000000
 FoFCou: FMM=F IPFlag=           0 FMFlag=      100000 FMFlg1=           0
         NFxFlg=           0 DoJE=T BraDBF=F KetDBF=T FulRan=T
         wScrn=  0.000000 ICntrl=       500 IOpCl=  0 I1Cent=   200000004 NGrid=           0
         NMat0=    1 NMatS0=      1 NMatT0=    0 NMatD0=    1 NMtDS0=    0 NMtDT0=    0
 Symmetry not used in FoFCou.
 Harris En= -2970.59630054009    
 JPrj=0 DoOrth=F DoCkMO=F.
 Leave Link  401 at Wed May  1 14:28:42 2024, MaxMem=  1207959552 cpu:              29.4 elap:              29.4
 (Enter /software/gaussian/g16-c01/sse4/g16/l502.exe)
 Two-electron integral symmetry not used.
 Closed shell SCF:
 Using DIIS extrapolation, IDIIS=  1040.
 NGot=  1207959552 LenX=  1207804877 LenY=  1207729907
 Requested convergence on RMS density matrix=1.00D-08 within 128 cycles.
 Requested convergence on MAX density matrix=1.00D-06.
 Requested convergence on             energy=1.00D-06.
 No special actions if energy rises.
 Fock matrices will be formed incrementally for  20 cycles.

 Cycle   1  Pass 1  IDiag  1:
 FoFJK:  IHMeth= 1 ICntrl=       0 DoSepK=T KAlg= 0 I1Cent=           0 FoldK=F
 IRaf=         1 NMat=       1 IRICut=       1 DoRegI=T DoRafI=F ISym2E= 0 IDoP0=0 IntGTp=1.
 FoFCou: FMM=F IPFlag=           0 FMFlag=      100000 FMFlg1=           0
         NFxFlg=           0 DoJE=T BraDBF=F KetDBF=F FulRan=T
         wScrn=  0.000000 ICntrl=       500 IOpCl=  0 I1Cent=           0 NGrid=           0
         NMat0=    1 NMatS0=      1 NMatT0=    0 NMatD0=    1 NMtDS0=    0 NMtDT0=    0
 Symmetry not used in FoFCou.
 E= -3009.73080893610    
 DIIS: error= 3.20D-01 at cycle   1 NSaved=   1.
 NSaved= 1 IEnMin= 1 EnMin= -3009.73080893610     IErMin= 1 ErrMin= 3.20D-01
 ErrMax= 3.20D-01  0.00D+00 EMaxC= 1.00D-01 BMatC= 1.19D+01 BMatP= 1.19D+01
 IDIUse=3 WtCom= 0.00D+00 WtEn= 1.00D+00
 Coeff-Com:  0.100D+01
 Coeff-En:   0.100D+01
 Coeff:      0.100D+01
 Gap=     0.320 Goal=   None    Shift=    0.000
 GapD=    0.320 DampG=1.000 DampE=0.250 DampFc=0.2500 IDamp=-1.
 Damping current iteration by 2.50D-01
 RMSDP=4.04D-02 MaxDP=4.10D+00              OVMax= 2.57D-01

 Cycle   2  Pass 1  IDiag  1:
 RMSU=  4.00D-03    CP:  8.96D-01
 E= -3010.01191261763     Delta-E=       -0.281103681528 Rises=F Damp=T
 DIIS: error= 2.25D-01 at cycle   2 NSaved=   2.
 NSaved= 2 IEnMin= 2 EnMin= -3010.01191261763     IErMin= 2 ErrMin= 2.25D-01
 ErrMax= 2.25D-01  0.00D+00 EMaxC= 1.00D-01 BMatC= 5.45D+00 BMatP= 1.19D+01
 IDIUse=3 WtCom= 0.00D+00 WtEn= 1.00D+00
 Coeff-Com: -0.184D+01 0.284D+01
 Coeff-En:   0.000D+00 0.100D+01
 Coeff:      0.000D+00 0.100D+01
 Gap=     0.295 Goal=   None    Shift=    0.000
 RMSDP=3.17D-02 MaxDP=3.21D+00 DE=-2.81D-01 OVMax= 7.54D-02

 Cycle   3  Pass 1  IDiag  1:
 RMSU=  4.19D-03    CP:  5.62D-01  3.00D+00
 E= -3010.38787750475     Delta-E=       -0.375964887120 Rises=F Damp=F
 DIIS: error= 6.56D-02 at cycle   3 NSaved=   3.
 NSaved= 3 IEnMin= 3 EnMin= -3010.38787750475     IErMin= 3 ErrMin= 6.56D-02
 ErrMax= 6.56D-02  0.00D+00 EMaxC= 1.00D-01 BMatC= 7.31D-01 BMatP= 5.45D+00
 IDIUse=3 WtCom= 3.44D-01 WtEn= 6.56D-01
 Coeff-Com:  0.277D+01-0.364D+01 0.187D+01
 Coeff-En:   0.257D-01 0.000D+00 0.974D+00
 Coeff:      0.968D+00-0.125D+01 0.128D+01
 Gap=     0.260 Goal=   None    Shift=    0.000
 RMSDP=8.16D-03 MaxDP=4.41D-01 DE=-3.76D-01 OVMax= 6.13D-02

 Cycle   4  Pass 1  IDiag  1:
 RMSU=  4.46D-03    CP:  5.75D-01  2.13D+00  2.11D+00
 E= -3010.49043765236     Delta-E=       -0.102560147604 Rises=F Damp=F
 DIIS: error= 3.82D-02 at cycle   4 NSaved=   4.
 NSaved= 4 IEnMin= 4 EnMin= -3010.49043765236     IErMin= 4 ErrMin= 3.82D-02
 ErrMax= 3.82D-02  0.00D+00 EMaxC= 1.00D-01 BMatC= 2.29D-01 BMatP= 7.31D-01
 IDIUse=3 WtCom= 6.18D-01 WtEn= 3.82D-01
 Coeff-Com: -0.190D+00 0.266D+00 0.267D+00 0.656D+00
 Coeff-En:   0.000D+00 0.000D+00 0.196D+00 0.804D+00
 Coeff:     -0.117D+00 0.164D+00 0.240D+00 0.713D+00
 Gap=     0.265 Goal=   None    Shift=    0.000
 RMSDP=3.22D-03 MaxDP=2.44D-01 DE=-1.03D-01 OVMax= 2.78D-02

 Cycle   5  Pass 1  IDiag  1:
 RMSU=  1.19D-03    CP:  5.48D-01  2.52D+00  1.96D+00  8.96D-01
 E= -3010.53460094138     Delta-E=       -0.044163289022 Rises=F Damp=F
 DIIS: error= 6.80D-03 at cycle   5 NSaved=   5.
 NSaved= 5 IEnMin= 5 EnMin= -3010.53460094138     IErMin= 5 ErrMin= 6.80D-03
 ErrMax= 6.80D-03  0.00D+00 EMaxC= 1.00D-01 BMatC= 7.21D-03 BMatP= 2.29D-01
 IDIUse=3 WtCom= 9.32D-01 WtEn= 6.80D-02
 Coeff-Com: -0.135D+00 0.183D+00 0.395D-01 0.316D+00 0.596D+00
 Coeff-En:   0.000D+00 0.000D+00 0.000D+00 0.000D+00 0.100D+01
 Coeff:     -0.126D+00 0.171D+00 0.368D-01 0.294D+00 0.624D+00
 Gap=     0.255 Goal=   None    Shift=    0.000
 RMSDP=5.39D-04 MaxDP=3.83D-02 DE=-4.42D-02 OVMax= 1.03D-02

 Cycle   6  Pass 1  IDiag  1:
 RMSU=  4.09D-04    CP:  5.47D-01  2.50D+00  1.97D+00  8.89D-01  7.26D-01
 E= -3010.53604269829     Delta-E=       -0.001441756909 Rises=F Damp=F
 DIIS: error= 1.22D-03 at cycle   6 NSaved=   6.
 NSaved= 6 IEnMin= 6 EnMin= -3010.53604269829     IErMin= 6 ErrMin= 1.22D-03
 ErrMax= 1.22D-03  0.00D+00 EMaxC= 1.00D-01 BMatC= 1.58D-04 BMatP= 7.21D-03
 IDIUse=3 WtCom= 9.88D-01 WtEn= 1.22D-02
 Coeff-Com: -0.860D-01 0.116D+00-0.444D-02 0.144D+00 0.361D+00 0.470D+00
 Coeff-En:   0.000D+00 0.000D+00 0.000D+00 0.000D+00 0.000D+00 0.100D+01
 Coeff:     -0.850D-01 0.114D+00-0.439D-02 0.143D+00 0.356D+00 0.476D+00
 Gap=     0.255 Goal=   None    Shift=    0.000
 RMSDP=1.76D-04 MaxDP=1.11D-02 DE=-1.44D-03 OVMax= 5.46D-03

 Cycle   7  Pass 1  IDiag  1:
 RMSU=  1.02D-04    CP:  5.47D-01  2.49D+00  1.98D+00  8.96D-01  8.13D-01
                    CP:  8.58D-01
 E= -3010.53615192598     Delta-E=       -0.000109227690 Rises=F Damp=F
 DIIS: error= 5.04D-04 at cycle   7 NSaved=   7.
 NSaved= 7 IEnMin= 7 EnMin= -3010.53615192598     IErMin= 7 ErrMin= 5.04D-04
 ErrMax= 5.04D-04  0.00D+00 EMaxC= 1.00D-01 BMatC= 2.25D-05 BMatP= 1.58D-04
 IDIUse=3 WtCom= 9.95D-01 WtEn= 5.04D-03
 Coeff-Com: -0.356D-01 0.474D-01-0.125D-01 0.364D-01 0.110D+00 0.287D+00
 Coeff-Com:  0.567D+00
 Coeff-En:   0.000D+00 0.000D+00 0.000D+00 0.000D+00 0.000D+00 0.288D-01
 Coeff-En:   0.971D+00
 Coeff:     -0.354D-01 0.472D-01-0.124D-01 0.362D-01 0.110D+00 0.286D+00
 Coeff:      0.569D+00
 Gap=     0.256 Goal=   None    Shift=    0.000
 RMSDP=8.46D-05 MaxDP=5.81D-03 DE=-1.09D-04 OVMax= 2.23D-03

 Cycle   8  Pass 1  IDiag  1:
 RMSU=  4.64D-05    CP:  5.47D-01  2.48D+00  1.99D+00  9.02D-01  8.39D-01
                    CP:  9.02D-01  8.46D-01
 E= -3010.53617053093     Delta-E=       -0.000018604956 Rises=F Damp=F
 DIIS: error= 1.12D-04 at cycle   8 NSaved=   8.
 NSaved= 8 IEnMin= 8 EnMin= -3010.53617053093     IErMin= 8 ErrMin= 1.12D-04
 ErrMax= 1.12D-04  0.00D+00 EMaxC= 1.00D-01 BMatC= 2.11D-06 BMatP= 2.25D-05
 IDIUse=3 WtCom= 9.99D-01 WtEn= 1.12D-03
 Coeff-Com:  0.476D-02-0.656D-02-0.293D-02-0.136D-01-0.351D-01-0.163D-01
 Coeff-Com:  0.172D+00 0.898D+00
 Coeff-En:   0.000D+00 0.000D+00 0.000D+00 0.000D+00 0.000D+00 0.000D+00
 Coeff-En:   0.000D+00 0.100D+01
 Coeff:      0.476D-02-0.656D-02-0.292D-02-0.136D-01-0.350D-01-0.162D-01
 Coeff:      0.172D+00 0.898D+00
 Gap=     0.256 Goal=   None    Shift=    0.000
 RMSDP=5.05D-05 MaxDP=3.97D-03 DE=-1.86D-05 OVMax= 1.39D-03

 Cycle   9  Pass 1  IDiag  1:
 RMSU=  2.02D-05    CP:  5.47D-01  2.48D+00  1.99D+00  9.03D-01  8.42D-01
                    CP:  9.78D-01  1.02D+00  1.24D+00
 E= -3010.53617398374     Delta-E=       -0.000003452804 Rises=F Damp=F
 DIIS: error= 3.29D-05 at cycle   9 NSaved=   9.
 NSaved= 9 IEnMin= 9 EnMin= -3010.53617398374     IErMin= 9 ErrMin= 3.29D-05
 ErrMax= 3.29D-05  0.00D+00 EMaxC= 1.00D-01 BMatC= 1.85D-07 BMatP= 2.11D-06
 IDIUse=1 WtCom= 1.00D+00 WtEn= 0.00D+00
 Coeff-Com:  0.608D-02-0.817D-02 0.588D-03-0.910D-02-0.234D-01-0.424D-01
 Coeff-Com: -0.228D-01 0.280D+00 0.819D+00
 Coeff:      0.608D-02-0.817D-02 0.588D-03-0.910D-02-0.234D-01-0.424D-01
 Coeff:     -0.228D-01 0.280D+00 0.819D+00
 Gap=     0.256 Goal=   None    Shift=    0.000
 RMSDP=1.47D-05 MaxDP=7.75D-04 DE=-3.45D-06 OVMax= 6.45D-04

 Cycle  10  Pass 1  IDiag  1:
 RMSU=  6.23D-06    CP:  5.47D-01  2.47D+00  1.99D+00  9.03D-01  8.46D-01
                    CP:  9.93D-01  1.06D+00  1.35D+00  1.08D+00
 E= -3010.53617447416     Delta-E=       -0.000000490418 Rises=F Damp=F
 DIIS: error= 1.25D-05 at cycle  10 NSaved=  10.
 NSaved=10 IEnMin=10 EnMin= -3010.53617447416     IErMin=10 ErrMin= 1.25D-05
 ErrMax= 1.25D-05  0.00D+00 EMaxC= 1.00D-01 BMatC= 4.17D-08 BMatP= 1.85D-07
 IDIUse=1 WtCom= 1.00D+00 WtEn= 0.00D+00
 Coeff-Com:  0.606D-03-0.794D-03 0.280D-03-0.596D-03 0.314D-03-0.623D-02
 Coeff-Com: -0.272D-01-0.442D-01 0.240D+00 0.838D+00
 Coeff:      0.606D-03-0.794D-03 0.280D-03-0.596D-03 0.314D-03-0.623D-02
 Coeff:     -0.272D-01-0.442D-01 0.240D+00 0.838D+00
 Gap=     0.256 Goal=   None    Shift=    0.000
 RMSDP=6.61D-06 MaxDP=4.96D-04 DE=-4.90D-07 OVMax= 2.53D-04

 Cycle  11  Pass 1  IDiag  1:
 RMSU=  3.00D-06    CP:  5.47D-01  2.48D+00  1.99D+00  9.03D-01  8.46D-01
                    CP:  1.00D+00  1.07D+00  1.36D+00  1.21D+00  1.01D+00
 E= -3010.53617454614     Delta-E=       -0.000000071980 Rises=F Damp=F
 DIIS: error= 5.24D-06 at cycle  11 NSaved=  11.
 NSaved=11 IEnMin=11 EnMin= -3010.53617454614     IErMin=11 ErrMin= 5.24D-06
 ErrMax= 5.24D-06  0.00D+00 EMaxC= 1.00D-01 BMatC= 2.23D-09 BMatP= 4.17D-08
 IDIUse=1 WtCom= 1.00D+00 WtEn= 0.00D+00
 Coeff-Com: -0.176D-03 0.238D-03 0.374D-04 0.556D-03 0.212D-02 0.390D-02
 Coeff-Com:  0.265D-02-0.247D-01-0.764D-01 0.120D-01 0.108D+01
 Coeff:     -0.176D-03 0.238D-03 0.374D-04 0.556D-03 0.212D-02 0.390D-02
 Coeff:      0.265D-02-0.247D-01-0.764D-01 0.120D-01 0.108D+01
 Gap=     0.256 Goal=   None    Shift=    0.000
 RMSDP=2.32D-06 MaxDP=1.18D-04 DE=-7.20D-08 OVMax= 1.25D-04

 Cycle  12  Pass 1  IDiag  1:
 RMSU=  8.01D-07    CP:  5.47D-01  2.48D+00  1.99D+00  9.03D-01  8.45D-01
                    CP:  1.00D+00  1.07D+00  1.36D+00  1.25D+00  1.15D+00
                    CP:  1.24D+00
 E= -3010.53617455726     Delta-E=       -0.000000011129 Rises=F Damp=F
 DIIS: error= 1.78D-06 at cycle  12 NSaved=  12.
 NSaved=12 IEnMin=12 EnMin= -3010.53617455726     IErMin=12 ErrMin= 1.78D-06
 ErrMax= 1.78D-06  0.00D+00 EMaxC= 1.00D-01 BMatC= 7.84D-10 BMatP= 2.23D-09
 IDIUse=1 WtCom= 1.00D+00 WtEn= 0.00D+00
 Coeff-Com: -0.149D-03 0.198D-03-0.120D-04 0.330D-03 0.775D-03 0.248D-02
 Coeff-Com:  0.544D-02-0.452D-02-0.734D-01-0.135D+00 0.512D+00 0.692D+00
 Coeff:     -0.149D-03 0.198D-03-0.120D-04 0.330D-03 0.775D-03 0.248D-02
 Coeff:      0.544D-02-0.452D-02-0.734D-01-0.135D+00 0.512D+00 0.692D+00
 Gap=     0.256 Goal=   None    Shift=    0.000
 RMSDP=1.05D-06 MaxDP=7.26D-05 DE=-1.11D-08 OVMax= 4.41D-05

 Cycle  13  Pass 1  IDiag  1:
 RMSU=  3.50D-07    CP:  5.47D-01  2.48D+00  1.99D+00  9.03D-01  8.45D-01
                    CP:  1.00D+00  1.07D+00  1.36D+00  1.26D+00  1.17D+00
                    CP:  1.43D+00  8.38D-01
 E= -3010.53617455908     Delta-E=       -0.000000001816 Rises=F Damp=F
 DIIS: error= 5.20D-07 at cycle  13 NSaved=  13.
 NSaved=13 IEnMin=13 EnMin= -3010.53617455908     IErMin=13 ErrMin= 5.20D-07
 ErrMax= 5.20D-07  0.00D+00 EMaxC= 1.00D-01 BMatC= 6.04D-11 BMatP= 7.84D-10
 IDIUse=1 WtCom= 1.00D+00 WtEn= 0.00D+00
 Coeff-Com: -0.249D-04 0.332D-04-0.652D-05-0.587D-05-0.246D-03-0.394D-03
 Coeff-Com:  0.154D-03 0.217D-02 0.114D-02-0.200D-01-0.405D-01 0.109D+00
 Coeff-Com:  0.949D+00
 Coeff:     -0.249D-04 0.332D-04-0.652D-05-0.587D-05-0.246D-03-0.394D-03
 Coeff:      0.154D-03 0.217D-02 0.114D-02-0.200D-01-0.405D-01 0.109D+00
 Coeff:      0.949D+00
 Gap=     0.256 Goal=   None    Shift=    0.000
 RMSDP=2.02D-07 MaxDP=1.05D-05 DE=-1.82D-09 OVMax= 1.14D-05

 Cycle  14  Pass 1  IDiag  1:
 RMSU=  1.26D-07    CP:  5.47D-01  2.48D+00  1.99D+00  9.03D-01  8.45D-01
                    CP:  1.00D+00  1.07D+00  1.36D+00  1.26D+00  1.16D+00
                    CP:  1.45D+00  9.23D-01  1.10D+00
 E= -3010.53617455922     Delta-E=       -0.000000000138 Rises=F Damp=F
 DIIS: error= 1.36D-07 at cycle  14 NSaved=  14.
 NSaved=14 IEnMin=14 EnMin= -3010.53617455922     IErMin=14 ErrMin= 1.36D-07
 ErrMax= 1.36D-07  0.00D+00 EMaxC= 1.00D-01 BMatC= 9.75D-12 BMatP= 6.04D-11
 IDIUse=1 WtCom= 1.00D+00 WtEn= 0.00D+00
 Coeff-Com: -0.116D-05 0.172D-05-0.326D-05-0.323D-04-0.172D-03-0.427D-03
 Coeff-Com: -0.518D-03 0.144D-02 0.910D-02 0.660D-02-0.773D-01-0.470D-01
 Coeff-Com:  0.354D+00 0.754D+00
 Coeff:     -0.116D-05 0.172D-05-0.326D-05-0.323D-04-0.172D-03-0.427D-03
 Coeff:     -0.518D-03 0.144D-02 0.910D-02 0.660D-02-0.773D-01-0.470D-01
 Coeff:      0.354D+00 0.754D+00
 Gap=     0.256 Goal=   None    Shift=    0.000
 RMSDP=7.75D-08 MaxDP=7.57D-06 DE=-1.38D-10 OVMax= 3.31D-06

 Cycle  15  Pass 1  IDiag  1:
 RMSU=  3.22D-08    CP:  5.47D-01  2.48D+00  1.99D+00  9.03D-01  8.45D-01
                    CP:  1.00D+00  1.07D+00  1.36D+00  1.26D+00  1.16D+00
                    CP:  1.47D+00  9.42D-01  1.22D+00  1.05D+00
 E= -3010.53617455924     Delta-E=       -0.000000000021 Rises=F Damp=F
 DIIS: error= 8.01D-08 at cycle  15 NSaved=  15.
 NSaved=15 IEnMin=15 EnMin= -3010.53617455924     IErMin=15 ErrMin= 8.01D-08
 ErrMax= 8.01D-08  0.00D+00 EMaxC= 1.00D-01 BMatC= 1.54D-12 BMatP= 9.75D-12
 IDIUse=1 WtCom= 1.00D+00 WtEn= 0.00D+00
 Coeff-Com:  0.421D-05-0.562D-05 0.759D-07-0.558D-05 0.114D-04-0.185D-04
 Coeff-Com: -0.113D-03-0.847D-04 0.180D-02 0.451D-02-0.827D-02-0.351D-01
 Coeff-Com: -0.924D-01 0.217D+00 0.913D+00
 Coeff:      0.421D-05-0.562D-05 0.759D-07-0.558D-05 0.114D-04-0.185D-04
 Coeff:     -0.113D-03-0.847D-04 0.180D-02 0.451D-02-0.827D-02-0.351D-01
 Coeff:     -0.924D-01 0.217D+00 0.913D+00
 Gap=     0.256 Goal=   None    Shift=    0.000
 RMSDP=3.88D-08 MaxDP=1.18D-06 DE=-2.09D-11 OVMax= 1.92D-06

 Cycle  16  Pass 1  IDiag  1:
 RMSU=  2.10D-08    CP:  5.47D-01  2.48D+00  1.99D+00  9.03D-01  8.45D-01
                    CP:  1.00D+00  1.07D+00  1.36D+00  1.26D+00  1.16D+00
                    CP:  1.47D+00  9.32D-01  1.27D+00  1.15D+00  1.24D+00
 E= -3010.53617455924     Delta-E=       -0.000000000003 Rises=F Damp=F
 DIIS: error= 2.89D-08 at cycle  16 NSaved=  16.
 NSaved=16 IEnMin=16 EnMin= -3010.53617455924     IErMin=16 ErrMin= 2.89D-08
 ErrMax= 2.89D-08  0.00D+00 EMaxC= 1.00D-01 BMatC= 2.75D-13 BMatP= 1.54D-12
 IDIUse=1 WtCom= 1.00D+00 WtEn= 0.00D+00
 Coeff-Com:  0.101D-05-0.137D-05 0.471D-06 0.381D-05 0.307D-04 0.640D-04
 Coeff-Com:  0.475D-04-0.296D-03-0.888D-03 0.347D-03 0.104D-01-0.561D-02
 Coeff-Com: -0.778D-01-0.392D-01 0.261D+00 0.852D+00
 Coeff:      0.101D-05-0.137D-05 0.471D-06 0.381D-05 0.307D-04 0.640D-04
 Coeff:      0.475D-04-0.296D-03-0.888D-03 0.347D-03 0.104D-01-0.561D-02
 Coeff:     -0.778D-01-0.392D-01 0.261D+00 0.852D+00
 Gap=     0.256 Goal=   None    Shift=    0.000
 RMSDP=1.73D-08 MaxDP=1.04D-06 DE=-2.73D-12 OVMax= 8.76D-07

 Cycle  17  Pass 1  IDiag  1:
 RMSU=  6.30D-09    CP:  5.47D-01  2.48D+00  1.99D+00  9.03D-01  8.45D-01
                    CP:  1.00D+00  1.07D+00  1.36D+00  1.26D+00  1.16D+00
                    CP:  1.47D+00  9.32D-01  1.28D+00  1.16D+00  1.51D+00
                    CP:  1.24D+00
 E= -3010.53617455923     Delta-E=        0.000000000013 Rises=F Damp=F
 DIIS: error= 1.04D-08 at cycle  17 NSaved=  17.
 NSaved=17 IEnMin=16 EnMin= -3010.53617455924     IErMin=17 ErrMin= 1.04D-08
 ErrMax= 1.04D-08  0.00D+00 EMaxC= 1.00D-01 BMatC= 7.35D-14 BMatP= 2.75D-13
 IDIUse=1 WtCom= 1.00D+00 WtEn= 0.00D+00
 Coeff-Com: -0.222D-06 0.293D-06 0.151D-06 0.139D-05 0.379D-05 0.175D-04
 Coeff-Com:  0.332D-04-0.464D-04-0.497D-03-0.665D-03 0.428D-02 0.316D-02
 Coeff-Com: -0.878D-05-0.547D-01-0.161D+00 0.193D+00 0.102D+01
 Coeff:     -0.222D-06 0.293D-06 0.151D-06 0.139D-05 0.379D-05 0.175D-04
 Coeff:      0.332D-04-0.464D-04-0.497D-03-0.665D-03 0.428D-02 0.316D-02
 Coeff:     -0.878D-05-0.547D-01-0.161D+00 0.193D+00 0.102D+01
 Gap=     0.256 Goal=   None    Shift=    0.000
 RMSDP=1.19D-08 MaxDP=4.52D-07 DE= 1.32D-11 OVMax= 6.57D-07

 Cycle  18  Pass 1  IDiag  1:
 RMSU=  3.44D-09    CP:  5.47D-01  2.48D+00  1.99D+00  9.03D-01  8.45D-01
                    CP:  1.00D+00  1.07D+00  1.36D+00  1.26D+00  1.16D+00
                    CP:  1.47D+00  9.27D-01  1.29D+00  1.16D+00  1.60D+00
                    CP:  1.58D+00  1.37D+00
 E= -3010.53617455925     Delta-E=       -0.000000000020 Rises=F Damp=F
 DIIS: error= 4.50D-09 at cycle  18 NSaved=  18.
 NSaved=18 IEnMin=18 EnMin= -3010.53617455925     IErMin=18 ErrMin= 4.50D-09
 ErrMax= 4.50D-09  0.00D+00 EMaxC= 1.00D-01 BMatC= 1.43D-14 BMatP= 7.35D-14
 IDIUse=1 WtCom= 1.00D+00 WtEn= 0.00D+00
 Coeff-Com: -0.408D-07 0.560D-07-0.768D-07-0.114D-05-0.830D-05-0.137D-04
 Coeff-Com: -0.404D-05 0.817D-04 0.142D-03-0.329D-03-0.189D-02 0.988D-03
 Coeff-Com:  0.247D-01 0.778D-02-0.102D+00-0.196D+00 0.222D+00 0.104D+01
 Coeff:     -0.408D-07 0.560D-07-0.768D-07-0.114D-05-0.830D-05-0.137D-04
 Coeff:     -0.404D-05 0.817D-04 0.142D-03-0.329D-03-0.189D-02 0.988D-03
 Coeff:      0.247D-01 0.778D-02-0.102D+00-0.196D+00 0.222D+00 0.104D+01
 Gap=     0.256 Goal=   None    Shift=    0.000
 RMSDP=6.86D-09 MaxDP=4.67D-07 DE=-1.96D-11 OVMax= 3.09D-07

 SCF Done:  E(RwB97XD) =  -3010.53617456     A.U. after   18 cycles
            NFock= 18  Conv=0.69D-08     -V/T= 2.0016
 KE= 3.005852686901D+03 PE=-8.632475599757D+03 EE= 1.876523633988D+03
 Leave Link  502 at Wed May  1 14:45:41 2024, MaxMem=  1207959552 cpu:            1018.4 elap:            1018.6
 (Enter /software/gaussian/g16-c01/sse4/g16/l601.exe)
 Copying SCF densities to generalized density rwf, IOpCl= 0 IROHF=0.

 **********************************************************************

            Population analysis using the SCF Density.

 **********************************************************************

 Alpha  occ. eigenvalues -- -483.31200 -62.86224 -56.65917 -56.65345 -56.65342
 Alpha  occ. eigenvalues --  -19.46640 -19.46566 -14.86117 -10.58248 -10.57614
 Alpha  occ. eigenvalues --  -10.57429 -10.57160 -10.56717 -10.52904  -9.02029
 Alpha  occ. eigenvalues --   -6.84707  -6.82834  -6.82819  -2.94612  -2.94115
 Alpha  occ. eigenvalues --   -2.94101  -2.92602  -2.92602  -1.50400  -1.33387
 Alpha  occ. eigenvalues --   -1.22731  -1.14189  -1.11811  -1.04410  -1.01334
 Alpha  occ. eigenvalues --   -0.95508  -0.91091  -0.85615  -0.81125  -0.80873
 Alpha  occ. eigenvalues --   -0.80627  -0.78338  -0.76761  -0.75961  -0.72342
 Alpha  occ. eigenvalues --   -0.69336  -0.67591  -0.63748  -0.60157  -0.57879
 Alpha  occ. eigenvalues --   -0.56998  -0.56479  -0.56246  -0.55216
 Alpha virt. eigenvalues --   -0.29639  -0.21802  -0.15628  -0.13581  -0.08590
 Alpha virt. eigenvalues --   -0.06036  -0.05558  -0.04886  -0.04587  -0.03249
 Alpha virt. eigenvalues --   -0.02558  -0.02302  -0.01304  -0.00848   0.00479
 Alpha virt. eigenvalues --    0.00924   0.01534   0.01819   0.02484   0.02833
 Alpha virt. eigenvalues --    0.04284   0.04694   0.04835   0.05853   0.06281
 Alpha virt. eigenvalues --    0.06964   0.07179   0.07680   0.08468   0.09296
 Alpha virt. eigenvalues --    0.10485   0.10710   0.10850   0.11638   0.11952
 Alpha virt. eigenvalues --    0.12513   0.12775   0.13046   0.14775   0.15834
 Alpha virt. eigenvalues --    0.16328   0.17064   0.17370   0.18139   0.18807
 Alpha virt. eigenvalues --    0.19214   0.20231   0.20726   0.21423   0.23789
 Alpha virt. eigenvalues --    0.24266   0.26738   0.27723   0.29355   0.31496
 Alpha virt. eigenvalues --    0.32663   0.32767   0.33831   0.34180   0.35549
 Alpha virt. eigenvalues --    0.37158   0.37505   0.38909   0.40579   0.41647
 Alpha virt. eigenvalues --    0.42439   0.43521   0.43837   0.46231   0.46967
 Alpha virt. eigenvalues --    0.47433   0.50063   0.50643   0.52228   0.53019
 Alpha virt. eigenvalues --    0.53923   0.54989   0.56562   0.56755   0.59230
 Alpha virt. eigenvalues --    0.61276   0.62089   0.64077   0.66808   0.68473
 Alpha virt. eigenvalues --    0.70149   0.71552   0.72683   0.73153   0.74110
 Alpha virt. eigenvalues --    0.74371   0.78814   0.79587   0.82898   0.84810
 Alpha virt. eigenvalues --    0.86192   0.87408   0.91521   0.92779   0.98004
 Alpha virt. eigenvalues --    0.98714   1.00730   1.04352   1.05014   1.06317
 Alpha virt. eigenvalues --    1.08687   1.10418   1.11299   1.11742   1.13393
 Alpha virt. eigenvalues --    1.21205   1.24065   1.26310   1.32822   1.36311
 Alpha virt. eigenvalues --    1.36708   1.37851   1.45010   1.54110   1.56828
 Alpha virt. eigenvalues --    1.57961   1.58330   1.60347   1.61991   1.66178
 Alpha virt. eigenvalues --    1.68755   1.69559   1.73428   1.74602   1.78841
 Alpha virt. eigenvalues --    1.81063   1.85235   1.87059   1.93378   1.95449
 Alpha virt. eigenvalues --    1.97543   2.02490   2.03472   2.06751   2.07898
 Alpha virt. eigenvalues --    2.09421   2.14580   2.20174   2.22247   2.29258
 Alpha virt. eigenvalues --    2.37191   2.40728   2.42320   2.43244   2.52302
 Alpha virt. eigenvalues --    2.56542   2.62821   2.65863   2.67936   2.71016
 Alpha virt. eigenvalues --    2.72755   2.75798   2.76967   2.80311   2.81540
 Alpha virt. eigenvalues --    2.93378   2.96155   2.99895   3.05446   3.08636
 Alpha virt. eigenvalues --    3.12728   3.14710   3.18887   3.23017   3.24077
 Alpha virt. eigenvalues --    3.26525   3.38651   3.47517   3.50814   3.53954
 Alpha virt. eigenvalues --    3.56358   3.69187   3.73325   3.81994   3.86977
 Alpha virt. eigenvalues --    4.08933   4.09165   4.16640   4.21866   4.42680
 Alpha virt. eigenvalues --    4.43520   4.57241   4.59254   4.92353   4.95010
 Alpha virt. eigenvalues --    5.03664   5.07831   5.62037   6.14934   6.64642
 Alpha virt. eigenvalues --    7.47611   7.49184   7.58954  23.21162  23.61131
 Alpha virt. eigenvalues --   23.69535  23.79303  23.95904  24.01198  35.31842
 Alpha virt. eigenvalues --   47.91211  49.84780  49.93590 289.80538 289.82206
 Alpha virt. eigenvalues --  289.946461020.91630
          Condensed to atoms (all electrons):
               1          2          3          4          5          6
     1  C    8.729354  -2.258916   0.251771  -1.526664  -0.627980   0.308407
     2  C   -2.258916  12.729501  -1.801833  -2.630363   0.782816  -0.015144
     3  C    0.251771  -1.801833  12.965985  -3.021478  -1.268269   0.022586
     4  C   -1.526664  -2.630363  -3.021478  14.438904   1.252865   0.010036
     5  C   -0.627980   0.782816  -1.268269   1.252865   7.320185   0.017326
     6  H    0.308407  -0.015144   0.022586   0.010036   0.017326   0.332190
     7  H    0.065291   0.235330   0.077997  -0.032794  -0.020066  -0.001817
     8  H    0.003114  -0.010030   0.070009   0.253302  -0.016640   0.000002
     9  H    0.029006  -0.011206   0.002632  -0.005935   0.312879  -0.002223
    10  N   -0.134791   0.336146  -0.917663   0.310185   0.021588  -0.000603
    11  O    0.015428  -0.061200  -0.260916  -0.018272  -0.054971  -0.000022
    12  O    0.312270  -0.038068  -0.281159  -0.076745  -0.042842   0.000006
    13  C    1.377835  -1.780409   0.827625  -3.223959  -1.715387  -0.008158
    14  H   -0.008181  -0.005016   0.005575  -0.061532  -0.030905  -0.000054
    15  Br   0.046469   0.004020   0.049459   0.053986   0.059631  -0.000395
               7          8          9         10         11         12
     1  C    0.065291   0.003114   0.029006  -0.134791   0.015428   0.312270
     2  C    0.235330  -0.010030  -0.011206   0.336146  -0.061200  -0.038068
     3  C    0.077997   0.070009   0.002632  -0.917663  -0.260916  -0.281159
     4  C   -0.032794   0.253302  -0.005935   0.310185  -0.018272  -0.076745
     5  C   -0.020066  -0.016640   0.312879   0.021588  -0.054971  -0.042842
     6  H   -0.001817   0.000002  -0.002223  -0.000603  -0.000022   0.000006
     7  H    0.304605  -0.000001   0.000013  -0.025813  -0.001491   0.021274
     8  H   -0.000001   0.297975   0.000105  -0.023587   0.021749  -0.000894
     9  H    0.000013   0.000105   0.318343   0.000401   0.000005   0.000006
    10  N   -0.025813  -0.023587   0.000401   7.316988   0.203378   0.168474
    11  O   -0.001491   0.021749   0.000005   0.203378   7.838977  -0.001825
    12  O    0.021274  -0.000894   0.000006   0.168474  -0.001825   7.875523
    13  C    0.014733   0.036299   0.001087  -0.151918   0.296494   0.042705
    14  H   -0.000017  -0.004265  -0.005301  -0.000348  -0.000248  -0.000070
    15  Br  -0.000106   0.001921   0.000913   0.003777   0.000374   0.002003
              13         14         15
     1  C    1.377835  -0.008181   0.046469
     2  C   -1.780409  -0.005016   0.004020
     3  C    0.827625   0.005575   0.049459
     4  C   -3.223959  -0.061532   0.053986
     5  C   -1.715387  -0.030905   0.059631
     6  H   -0.008158  -0.000054  -0.000395
     7  H    0.014733  -0.000017  -0.000106
     8  H    0.036299  -0.004265   0.001921
     9  H    0.001087  -0.005301   0.000913
    10  N   -0.151918  -0.000348   0.003777
    11  O    0.296494  -0.000248   0.000374
    12  O    0.042705  -0.000070   0.002003
    13  C   10.387268   0.403988  -0.041188
    14  H    0.403988   0.339540  -0.040250
    15  Br  -0.041188  -0.040250  34.673933
 Mulliken charges:
               1
     1  C   -0.582413
     2  C    0.524372
     3  C   -0.722321
     4  C    0.278463
     5  C    0.009771
     6  H    0.337862
     7  H    0.362861
     8  H    0.370940
     9  H    0.359274
    10  N   -0.106216
    11  O    0.022540
    12  O    0.019343
    13  C   -0.467014
    14  H    0.407084
    15  Br   0.185453
 Sum of Mulliken charges =   1.00000
 Mulliken charges with hydrogens summed into heavy atoms:
               1
     1  C   -0.244551
     2  C    0.887234
     3  C   -0.722321
     4  C    0.649403
     5  C    0.369045
    10  N   -0.106216
    11  O    0.022540
    12  O    0.019343
    13  C   -0.059930
    15  Br   0.185453
 Electronic spatial extent (au):  <R**2>=           2799.2164
 Charge=              1.0000 electrons
 Dipole moment (field-independent basis, Debye):
    X=             -1.3960    Y=             -0.6509    Z=             -0.0664  Tot=              1.5417
 Quadrupole moment (field-independent basis, Debye-Ang):
   XX=            -72.5776   YY=            -51.9297   ZZ=            -62.4812
   XY=              1.3900   XZ=              1.2564   YZ=              1.7929
 Traceless Quadrupole moment (field-independent basis, Debye-Ang):
   XX=            -10.2481   YY=             10.3998   ZZ=             -0.1517
   XY=              1.3900   XZ=              1.2564   YZ=              1.7929
 Octapole moment (field-independent basis, Debye-Ang**2):
  XXX=           -307.2973  YYY=             87.1173  ZZZ=             76.9377  XYY=            -77.4529
  XXY=             29.7736  XXZ=             32.1741  XZZ=            -78.7819  YZZ=             15.8698
  YYZ=             25.0532  XYZ=             -3.6552
 Hexadecapole moment (field-independent basis, Debye-Ang**3):
 XXXX=          -2312.5065 YYYY=           -675.4427 ZZZZ=           -346.3539 XXXY=            -68.3102
 XXXZ=            -20.6081 YYYX=            -58.9716 YYYZ=           -154.3636 ZZZX=            -17.4103
 ZZZY=           -134.5003 XXYY=           -458.6232 XXZZ=           -370.7410 YYZZ=           -162.3303
 XXYZ=            -54.1734 YYXZ=             -1.3777 ZZXY=             -7.9315
 N-N= 7.395631043090D+02 E-N=-8.632475601249D+03  KE= 3.005852686901D+03
 No NMR shielding tensors so no spin-rotation constants.
 Leave Link  601 at Wed May  1 14:45:48 2024, MaxMem=  1207959552 cpu:               7.1 elap:               7.1
 (Enter /software/gaussian/g16-c01/sse4/g16/l9999.exe)
 Unable to Open any file for archive entry.
 1\1\GINC-BHX0017\SP\RwB97XD\6-311+G(d)\C6H5Br1N1O2(1+)\BWEIGHT\01-May-
 2024\0\\#P wB97XD/6-311+G* NoSymm #P Field=X+19\\TitleMe\\1,1\C,0,0.02
 95,1.3397,0.0682\C,0,1.4348,1.2867,0.0064\C,0,2.1118,0.0511,-0.0054\C,
 0,1.4451,-1.1372,0.0312\C,0,-0.6879,0.1682,0.11\H,0,-0.4713,2.2984,0.0
 781\H,0,2.0273,2.1965,-0.0322\H,0,1.9897,-2.0764,0.0232\H,0,-1.7716,0.
 1804,0.1582\N,0,3.5864,0.051,-0.0675\O,0,4.1471,-1.0597,-0.0881\O,0,4.
 145,1.1639,-0.0901\C,0,-0.0236,-1.1458,0.0835\H,0,-0.4367,-1.8725,0.78
 89\Br,0,-0.5359,-1.8697,-1.7408\\Version=ES64L-G16RevC.01\HF=-3010.536
 1746\RMSD=6.862e-09\Dipole=-2.4557671,0.8920145,1.1200582\Quadrupole=-
 7.6192166,7.7319739,-0.1127573,1.0334569,0.9341358,1.3329847\PG=C01 [X
 (C6H5Br1N1O2)]\\@
 The archive entry for this job was punched.


 THERE IS AN OLD, OLD RECIPE IN MAINE FOR STEWING COOT. PLACE THE
 BIRD IN A KETTLE OF WATER WITH A RED BUILDING BRICK FREE OF MORTAR AND
 BLEMISHES. PARBOIL THE COOT AND BRICK TOGETHER FOR THREE HOURS.
 POUR OFF THE WATER, REFILL THE KETTLE, AND AGAIN PARBOIL FOR THREE HOURS.
 ONCE AGAIN POUR OFF THE WATER, FOR THE LAST TIME ADD FRESH WATER,
 AND LET THE COOT AND BRICK SIMMER TOGETHER OVERNIGHT. IN THE MORNING,
 THROW AWAY THE COOT AND EAT THE BRICK.
 Job cpu time:       0 days  0 hours 18 minutes  5.8 seconds.
 Elapsed time:       0 days  0 hours 18 minutes  6.0 seconds.
 File lengths (MBytes):  RWF=     40 Int=      0 D2E=      0 Chk=     32 Scr=      1
 Normal termination of Gaussian 16 at Wed May  1 14:45:49 2024.
