 Entering Gaussian System, Link 0=g16
 Initial command:
 /software/gaussian/g16-c01/sse4/g16/l1.exe "/local_scratch/24657548/Gau-19990.inp" -scrdir="/local_scratch/24657548/"
 Entering Link 1 = /software/gaussian/g16-c01/sse4/g16/l1.exe PID=     19991.
  
 Copyright (c) 1988-2019, Gaussian, Inc.  All Rights Reserved.
  
 This is part of the Gaussian(R) 16 program.  It is based on
 the Gaussian(R) 09 system (copyright 2009, Gaussian, Inc.),
 the Gaussian(R) 03 system (copyright 2003, Gaussian, Inc.),
 the Gaussian(R) 98 system (copyright 1998, Gaussian, Inc.),
 the Gaussian(R) 94 system (copyright 1995, Gaussian, Inc.),
 the Gaussian 92(TM) system (copyright 1992, Gaussian, Inc.),
 the Gaussian 90(TM) system (copyright 1990, Gaussian, Inc.),
 the Gaussian 88(TM) system (copyright 1988, Gaussian, Inc.),
 the Gaussian 86(TM) system (copyright 1986, Carnegie Mellon
 University), and the Gaussian 82(TM) system (copyright 1983,
 Carnegie Mellon University). Gaussian is a federally registered
 trademark of Gaussian, Inc.
  
 This software contains proprietary and confidential information,
 including trade secrets, belonging to Gaussian, Inc.
  
 This software is provided under written license and may be
 used, copied, transmitted, or stored only in accord with that
 written license.
  
 The following legend is applicable only to US Government
 contracts under FAR:
  
                    RESTRICTED RIGHTS LEGEND
  
 Use, reproduction and disclosure by the US Government is
 subject to restrictions as set forth in subparagraphs (a)
 and (c) of the Commercial Computer Software - Restricted
 Rights clause in FAR 52.227-19.
  
 Gaussian, Inc.
 340 Quinnipiac St., Bldg. 40, Wallingford CT 06492
  
  
 ---------------------------------------------------------------
 Warning -- This program may not be used in any manner that
 competes with the business of Gaussian, Inc. or will provide
 assistance to any competitor of Gaussian, Inc.  The licensee
 of this program is prohibited from giving any competitor of
 Gaussian, Inc. access to this program.  By using this program,
 the user acknowledges that Gaussian, Inc. is engaged in the
 business of creating and licensing software in the field of
 computational chemistry and represents and warrants to the
 licensee that it is not a competitor of Gaussian, Inc. and that
 it will not use this program in any manner prohibited above.
 ---------------------------------------------------------------
  

 Cite this work as:
 Gaussian 16, Revision C.01,
 M. J. Frisch, G. W. Trucks, H. B. Schlegel, G. E. Scuseria, 
 M. A. Robb, J. R. Cheeseman, G. Scalmani, V. Barone, 
 G. A. Petersson, H. Nakatsuji, X. Li, M. Caricato, A. V. Marenich, 
 J. Bloino, B. G. Janesko, R. Gomperts, B. Mennucci, H. P. Hratchian, 
 J. V. Ortiz, A. F. Izmaylov, J. L. Sonnenberg, D. Williams-Young, 
 F. Ding, F. Lipparini, F. Egidi, J. Goings, B. Peng, A. Petrone, 
 T. Henderson, D. Ranasinghe, V. G. Zakrzewski, J. Gao, N. Rega, 
 G. Zheng, W. Liang, M. Hada, M. Ehara, K. Toyota, R. Fukuda, 
 J. Hasegawa, M. Ishida, T. Nakajima, Y. Honda, O. Kitao, H. Nakai, 
 T. Vreven, K. Throssell, J. A. Montgomery, Jr., J. E. Peralta, 
 F. Ogliaro, M. J. Bearpark, J. J. Heyd, E. N. Brothers, K. N. Kudin, 
 V. N. Staroverov, T. A. Keith, R. Kobayashi, J. Normand, 
 K. Raghavachari, A. P. Rendell, J. C. Burant, S. S. Iyengar, 
 J. Tomasi, M. Cossi, J. M. Millam, M. Klene, C. Adamo, R. Cammi, 
 J. W. Ochterski, R. L. Martin, K. Morokuma, O. Farkas, 
 J. B. Foresman, and D. J. Fox, Gaussian, Inc., Wallingford CT, 2019.
 
 ******************************************
 Gaussian 16:  ES64L-G16RevC.01  3-Jul-2019
                 1-May-2024 
 ******************************************
 %chk=geometry.chk
 %mem=9GB
 %nprocshared=12
 Will use up to   12 processors via shared memory.
 ----------------------------------------
 #P wB97XD/6-311+G* NoSymm #P Field=Z-126
 ----------------------------------------
 1/38=1,172=1/1;
 2/12=2,15=1,17=6,18=5,40=1/2;
 3/5=4,6=6,7=11,11=2,14=3,15=-126,25=1,30=1,74=-58/1,2,3;
 4//1;
 5/5=2,38=5/2;
 6/7=2,8=2,9=2,10=2,28=1/1;
 99/5=1,9=1/99;
 Leave Link    1 at Wed May  1 15:05:01 2024, MaxMem=  1207959552 cpu:               1.3 elap:               1.3
 (Enter /software/gaussian/g16-c01/sse4/g16/l101.exe)
 -------
 TitleMe
 -------
 Symbolic Z-matrix:
 Charge =  1 Multiplicity = 1
 C                     0.0295    1.3397    0.0682 
 C                     1.4348    1.2867    0.0064 
 C                     2.1118    0.0511   -0.0054 
 C                     1.4451   -1.1372    0.0312 
 C                    -0.6879    0.1682    0.11 
 H                    -0.4713    2.2984    0.0781 
 H                     2.0273    2.1965   -0.0322 
 H                     1.9897   -2.0764    0.0232 
 H                    -1.7716    0.1804    0.1582 
 N                     3.5864    0.051    -0.0675 
 O                     4.1471   -1.0597   -0.0881 
 O                     4.145     1.1639   -0.0901 
 C                    -0.0236   -1.1458    0.0835 
 H                    -0.4367   -1.8725    0.7889 
 Br                   -0.5359   -1.8697   -1.7408 
 
 ITRead=  0  0  0  0  0  0  0  0  0  0  0  0  0  0  0
 MicOpt= -1 -1 -1 -1 -1 -1 -1 -1 -1 -1 -1 -1 -1 -1 -1
 NAtoms=     15 NQM=       15 NQMF=       0 NMMI=      0 NMMIF=      0
                NMic=       0 NMicF=      0.
                    Isotopes and Nuclear Properties:
 (Nuclear quadrupole moments (NQMom) in fm**2, nuclear magnetic moments (NMagM)
  in nuclear magnetons)

  Atom         1           2           3           4           5           6           7           8           9          10
 IAtWgt=          12          12          12          12          12           1           1           1           1          14
 AtmWgt=  12.0000000  12.0000000  12.0000000  12.0000000  12.0000000   1.0078250   1.0078250   1.0078250   1.0078250  14.0030740
 NucSpn=           0           0           0           0           0           1           1           1           1           2
 AtZEff=  -0.0000000  -0.0000000  -0.0000000  -0.0000000  -0.0000000  -0.0000000  -0.0000000  -0.0000000  -0.0000000  -0.0000000
 NQMom=    0.0000000   0.0000000   0.0000000   0.0000000   0.0000000   0.0000000   0.0000000   0.0000000   0.0000000   2.0440000
 NMagM=    0.0000000   0.0000000   0.0000000   0.0000000   0.0000000   2.7928460   2.7928460   2.7928460   2.7928460   0.4037610
 AtZNuc=   6.0000000   6.0000000   6.0000000   6.0000000   6.0000000   1.0000000   1.0000000   1.0000000   1.0000000   7.0000000

  Atom        11          12          13          14          15
 IAtWgt=          16          16          12           1          79
 AtmWgt=  15.9949146  15.9949146  12.0000000   1.0078250  78.9183361
 NucSpn=           0           0           0           1           3
 AtZEff=  -0.0000000  -0.0000000  -0.0000000  -0.0000000  -0.0000000
 NQMom=    0.0000000   0.0000000   0.0000000   0.0000000  31.3000000
 NMagM=    0.0000000   0.0000000   0.0000000   2.7928460   2.1063990
 AtZNuc=   8.0000000   8.0000000   6.0000000   1.0000000  35.0000000
 Leave Link  101 at Wed May  1 15:05:02 2024, MaxMem=  1207959552 cpu:               1.3 elap:               1.3
 (Enter /software/gaussian/g16-c01/sse4/g16/l202.exe)
                          Input orientation:                          
 ---------------------------------------------------------------------
 Center     Atomic      Atomic             Coordinates (Angstroms)
 Number     Number       Type             X           Y           Z
 ---------------------------------------------------------------------
      1          6           0        0.029500    1.339700    0.068200
      2          6           0        1.434800    1.286700    0.006400
      3          6           0        2.111800    0.051100   -0.005400
      4          6           0        1.445100   -1.137200    0.031200
      5          6           0       -0.687900    0.168200    0.110000
      6          1           0       -0.471300    2.298400    0.078100
      7          1           0        2.027300    2.196500   -0.032200
      8          1           0        1.989700   -2.076400    0.023200
      9          1           0       -1.771600    0.180400    0.158200
     10          7           0        3.586400    0.051000   -0.067500
     11          8           0        4.147100   -1.059700   -0.088100
     12          8           0        4.145000    1.163900   -0.090100
     13          6           0       -0.023600   -1.145800    0.083500
     14          1           0       -0.436700   -1.872500    0.788900
     15         35           0       -0.535900   -1.869700   -1.740800
 ---------------------------------------------------------------------
                    Distance matrix (angstroms):
                    1          2          3          4          5
     1  C    0.000000
     2  C    1.407656   0.000000
     3  C    2.449874   1.408963   0.000000
     4  C    2.853126   2.424049   1.363043   0.000000
     5  C    1.374344   2.401589   2.804523   2.501993   0.000000
     6  H    1.081667   2.159142   3.424870   3.934226   2.141421
     7  H    2.176095   1.086408   2.147231   3.384750   3.392128
     8  H    3.938800   3.408612   2.131193   1.085702   3.495040
     9  H    2.143837   3.395283   3.888995   3.478413   1.084840
    10  N    3.785591   2.482297   1.475907   2.450862   4.279589
    11  O    4.768247   3.587631   2.320164   2.705743   4.992415
    12  O    4.122294   2.714696   2.319353   3.549540   4.938459
    13  C    2.486114   2.837240   2.449573   1.469656   1.472614
    14  H    3.324903   3.754379   3.290289   2.157764   2.165286
    15  Br   3.727252   4.110867   3.702891   2.756973   2.757100
                    6          7          8          9         10
     6  H    0.000000
     7  H    2.503108   0.000000
     8  H    5.019802   4.273425   0.000000
     9  H    2.486588   4.304945   4.388479   0.000000
    10  N    4.640790   2.652397   2.661486   5.364313   0.000000
    11  O    5.712624   3.885809   2.387560   6.052233   1.244373
    12  O    4.756638   2.356750   3.893289   6.002923   1.245428
    13  C    3.473180   3.923079   2.218790   2.195425   3.806210
    14  H    4.231175   4.827242   2.552506   2.528663   4.540772
    15  Br   4.548146   5.101303   3.087568   3.055498   4.845862
                   11         12         13         14         15
    11  O    0.000000
    12  O    2.223602   0.000000
    13  C    4.175117   4.768865   0.000000
    14  H    4.737193   5.566358   1.093770   0.000000
    15  Br   5.031700   5.817075   2.028436   2.531646   0.000000
 Symmetry turned off by external request.
 Stoichiometry    C6H5BrNO2(1+)
 Framework group  C1[X(C6H5BrNO2)]
 Deg. of freedom    39
 Full point group                 C1      NOp   1
 Rotational constants (GHZ):           1.8252210           0.5518633           0.4576002
 Leave Link  202 at Wed May  1 15:05:03 2024, MaxMem=  1207959552 cpu:               1.2 elap:               1.2
 (Enter /software/gaussian/g16-c01/sse4/g16/l301.exe)
 Standard basis: 6-311+G(d) (5D, 7F)
 Ernie: Thresh=  0.10000D-02 Tol=  0.10000D-05 Strict=F.
 The following finite field(s) will be applied:
 An electric field of              0.0000  0.0000 -0.0126
   261 basis functions,   443 primitive gaussians,   273 cartesian basis functions
    49 alpha electrons       49 beta electrons
       nuclear repulsion energy       739.2122215416 Hartrees.
 IExCor= 4639 DFT=T Ex+Corr=wB97XD ExCW=0 ScaHFX=  1.000000
 ScaDFX=  1.000000  1.000000  1.000000  1.000000 ScalE2=  1.000000  1.000000
 IRadAn=      5 IRanWt=     -1 IRanGd=            0 ICorTp=0 IEmpDi=121
 HFx  wShort=  0.000000 wLong=  0.200000 cFull=  0.222036 cShort=  0.000000 cLong=  0.777964
 DFx  wShort=  0.000000 wLong=  0.200000 cFull=  0.000000 cShort=  0.000000 cLong=  1.000000
 NAtoms=   15 NActive=   15 NUniq=   15 SFac= 1.00D+00 NAtFMM=   60 NAOKFM=F Big=F
 Integral buffers will be    131072 words long.
 Raffenetti 2 integral format.
 Two-electron integral symmetry is turned off.
 R6Disp:  Grimme-D2 Dispersion energy=       -0.0077368520 Hartrees.
 Nuclear repulsion after empirical dispersion term =      739.2044846896 Hartrees.
 Leave Link  301 at Wed May  1 15:05:04 2024, MaxMem=  1207959552 cpu:               0.9 elap:               0.9
 (Enter /software/gaussian/g16-c01/sse4/g16/l302.exe)
 NPDir=0 NMtPBC=     1 NCelOv=     1 NCel=       1 NClECP=     1 NCelD=      1
         NCelK=      1 NCelE2=     1 NClLst=     1 CellRange=     0.0.
 One-electron integrals computed using PRISM.
 NBasis=   261 RedAO= T EigKep=  2.35D-06  NBF=   261
 NBsUse=   261 1.00D-06 EigRej= -1.00D+00 NBFU=   261
 Precomputing XC quadrature grid using
 IXCGrd= 4 IRadAn=           5 IRanWt=          -1 IRanGd=           0 AccXCQ= 0.00D+00.
 Generated NRdTot=       0 NPtTot=           0 NUsed=           0 NTot=          32
 NSgBfM=   273   273   273   273   273 MxSgAt=    15 MxSgA2=    15.
 Leave Link  302 at Wed May  1 15:05:26 2024, MaxMem=  1207959552 cpu:              21.3 elap:              21.3
 (Enter /software/gaussian/g16-c01/sse4/g16/l303.exe)
 DipDrv:  MaxL=1.
 The nuclear repulsion energy is now       740.6342248303 hartrees.
 Leave Link  303 at Wed May  1 15:05:29 2024, MaxMem=  1207959552 cpu:               3.2 elap:               3.2
 (Enter /software/gaussian/g16-c01/sse4/g16/l401.exe)
 ExpMin= 3.50D-02 ExpMax= 4.40D+05 ExpMxC= 1.51D+04 IAcc=3 IRadAn=         5 AccDes= 0.00D+00
 Harris functional with IExCor= 4639 and IRadAn=       5 diagonalized for initial guess.
 HarFok:  IExCor= 4639 AccDes= 0.00D+00 IRadAn=         5 IDoV= 1 UseB2=F ITyADJ=14
 ICtDFT=  3500011 ScaDFX=  1.000000  1.000000  1.000000  1.000000
 FoFCou: FMM=F IPFlag=           0 FMFlag=      100000 FMFlg1=           0
         NFxFlg=           0 DoJE=T BraDBF=F KetDBF=T FulRan=T
         wScrn=  0.000000 ICntrl=       500 IOpCl=  0 I1Cent=   200000004 NGrid=           0
         NMat0=    1 NMatS0=      1 NMatT0=    0 NMatD0=    1 NMtDS0=    0 NMtDT0=    0
 Symmetry not used in FoFCou.
 Harris En= -2970.61440206191    
 JPrj=0 DoOrth=F DoCkMO=F.
 Leave Link  401 at Wed May  1 15:05:59 2024, MaxMem=  1207959552 cpu:              29.8 elap:              29.8
 (Enter /software/gaussian/g16-c01/sse4/g16/l502.exe)
 Two-electron integral symmetry not used.
 Closed shell SCF:
 Using DIIS extrapolation, IDIIS=  1040.
 NGot=  1207959552 LenX=  1207804877 LenY=  1207729907
 Requested convergence on RMS density matrix=1.00D-08 within 128 cycles.
 Requested convergence on MAX density matrix=1.00D-06.
 Requested convergence on             energy=1.00D-06.
 No special actions if energy rises.
 Fock matrices will be formed incrementally for  20 cycles.

 Cycle   1  Pass 1  IDiag  1:
 FoFJK:  IHMeth= 1 ICntrl=       0 DoSepK=T KAlg= 0 I1Cent=           0 FoldK=F
 IRaf=         1 NMat=       1 IRICut=       1 DoRegI=T DoRafI=F ISym2E= 0 IDoP0=0 IntGTp=1.
 FoFCou: FMM=F IPFlag=           0 FMFlag=      100000 FMFlg1=           0
         NFxFlg=           0 DoJE=T BraDBF=F KetDBF=F FulRan=T
         wScrn=  0.000000 ICntrl=       500 IOpCl=  0 I1Cent=           0 NGrid=           0
         NMat0=    1 NMatS0=      1 NMatT0=    0 NMatD0=    1 NMtDS0=    0 NMtDT0=    0
 Symmetry not used in FoFCou.
 E= -3009.71788215975    
 DIIS: error= 3.20D-01 at cycle   1 NSaved=   1.
 NSaved= 1 IEnMin= 1 EnMin= -3009.71788215975     IErMin= 1 ErrMin= 3.20D-01
 ErrMax= 3.20D-01  0.00D+00 EMaxC= 1.00D-01 BMatC= 1.19D+01 BMatP= 1.19D+01
 IDIUse=3 WtCom= 0.00D+00 WtEn= 1.00D+00
 Coeff-Com:  0.100D+01
 Coeff-En:   0.100D+01
 Coeff:      0.100D+01
 Gap=     0.333 Goal=   None    Shift=    0.000
 GapD=    0.333 DampG=1.000 DampE=0.250 DampFc=0.2500 IDamp=-1.
 Damping current iteration by 2.50D-01
 RMSDP=4.61D-02 MaxDP=4.51D+00              OVMax= 2.58D-01

 Cycle   2  Pass 1  IDiag  1:
 RMSU=  4.62D-03    CP:  8.89D-01
 E= -3010.00324577381     Delta-E=       -0.285363614056 Rises=F Damp=T
 DIIS: error= 2.25D-01 at cycle   2 NSaved=   2.
 NSaved= 2 IEnMin= 2 EnMin= -3010.00324577381     IErMin= 2 ErrMin= 2.25D-01
 ErrMax= 2.25D-01  0.00D+00 EMaxC= 1.00D-01 BMatC= 5.46D+00 BMatP= 1.19D+01
 IDIUse=3 WtCom= 0.00D+00 WtEn= 1.00D+00
 Coeff-Com: -0.185D+01 0.285D+01
 Coeff-En:   0.000D+00 0.100D+01
 Coeff:      0.000D+00 0.100D+01
 Gap=     0.293 Goal=   None    Shift=    0.000
 RMSDP=3.53D-02 MaxDP=3.49D+00 DE=-2.85D-01 OVMax= 7.64D-02

 Cycle   3  Pass 1  IDiag  1:
 RMSU=  4.23D-03    CP:  5.41D-01  3.00D+00
 E= -3010.39378471321     Delta-E=       -0.390538939403 Rises=F Damp=F
 DIIS: error= 6.50D-02 at cycle   3 NSaved=   3.
 NSaved= 3 IEnMin= 3 EnMin= -3010.39378471321     IErMin= 3 ErrMin= 6.50D-02
 ErrMax= 6.50D-02  0.00D+00 EMaxC= 1.00D-01 BMatC= 7.17D-01 BMatP= 5.46D+00
 IDIUse=3 WtCom= 3.50D-01 WtEn= 6.50D-01
 Coeff-Com:  0.279D+01-0.367D+01 0.188D+01
 Coeff-En:   0.864D-02 0.000D+00 0.991D+00
 Coeff:      0.982D+00-0.128D+01 0.130D+01
 Gap=     0.264 Goal=   None    Shift=    0.000
 RMSDP=8.39D-03 MaxDP=4.32D-01 DE=-3.91D-01 OVMax= 6.50D-02

 Cycle   4  Pass 1  IDiag  1:
 RMSU=  5.29D-03    CP:  5.71D-01  2.36D+00  1.84D+00
 E= -3010.49285097497     Delta-E=       -0.099066261758 Rises=F Damp=F
 DIIS: error= 3.93D-02 at cycle   4 NSaved=   4.
 NSaved= 4 IEnMin= 4 EnMin= -3010.49285097497     IErMin= 4 ErrMin= 3.93D-02
 ErrMax= 3.93D-02  0.00D+00 EMaxC= 1.00D-01 BMatC= 2.41D-01 BMatP= 7.17D-01
 IDIUse=3 WtCom= 6.07D-01 WtEn= 3.93D-01
 Coeff-Com: -0.153D+00 0.217D+00 0.295D+00 0.641D+00
 Coeff-En:   0.000D+00 0.000D+00 0.204D+00 0.796D+00
 Coeff:     -0.929D-01 0.132D+00 0.260D+00 0.702D+00
 Gap=     0.260 Goal=   None    Shift=    0.000
 RMSDP=3.65D-03 MaxDP=2.79D-01 DE=-9.91D-02 OVMax= 2.70D-02

 Cycle   5  Pass 1  IDiag  1:
 RMSU=  1.56D-03    CP:  5.41D-01  2.65D+00  1.70D+00  8.69D-01
 E= -3010.53880163860     Delta-E=       -0.045950663627 Rises=F Damp=F
 DIIS: error= 6.89D-03 at cycle   5 NSaved=   5.
 NSaved= 5 IEnMin= 5 EnMin= -3010.53880163860     IErMin= 5 ErrMin= 6.89D-03
 ErrMax= 6.89D-03  0.00D+00 EMaxC= 1.00D-01 BMatC= 7.69D-03 BMatP= 2.41D-01
 IDIUse=3 WtCom= 9.31D-01 WtEn= 6.89D-02
 Coeff-Com: -0.135D+00 0.184D+00 0.625D-01 0.337D+00 0.552D+00
 Coeff-En:   0.000D+00 0.000D+00 0.000D+00 0.000D+00 0.100D+01
 Coeff:     -0.126D+00 0.171D+00 0.582D-01 0.313D+00 0.583D+00
 Gap=     0.259 Goal=   None    Shift=    0.000
 RMSDP=6.63D-04 MaxDP=3.77D-02 DE=-4.60D-02 OVMax= 1.17D-02

 Cycle   6  Pass 1  IDiag  1:
 RMSU=  4.63D-04    CP:  5.41D-01  2.65D+00  1.71D+00  8.80D-01  6.99D-01
 E= -3010.54037443189     Delta-E=       -0.001572793294 Rises=F Damp=F
 DIIS: error= 1.92D-03 at cycle   6 NSaved=   6.
 NSaved= 6 IEnMin= 6 EnMin= -3010.54037443189     IErMin= 6 ErrMin= 1.92D-03
 ErrMax= 1.92D-03  0.00D+00 EMaxC= 1.00D-01 BMatC= 3.35D-04 BMatP= 7.69D-03
 IDIUse=3 WtCom= 9.81D-01 WtEn= 1.92D-02
 Coeff-Com: -0.948D-01 0.128D+00 0.578D-03 0.161D+00 0.379D+00 0.426D+00
 Coeff-En:   0.000D+00 0.000D+00 0.000D+00 0.000D+00 0.000D+00 0.100D+01
 Coeff:     -0.930D-01 0.125D+00 0.567D-03 0.158D+00 0.372D+00 0.437D+00
 Gap=     0.257 Goal=   None    Shift=    0.000
 RMSDP=2.12D-04 MaxDP=1.42D-02 DE=-1.57D-03 OVMax= 6.11D-03

 Cycle   7  Pass 1  IDiag  1:
 RMSU=  1.47D-04    CP:  5.41D-01  2.65D+00  1.71D+00  8.83D-01  7.78D-01
                    CP:  8.33D-01
 E= -3010.54061316834     Delta-E=       -0.000238736446 Rises=F Damp=F
 DIIS: error= 4.42D-04 at cycle   7 NSaved=   7.
 NSaved= 7 IEnMin= 7 EnMin= -3010.54061316834     IErMin= 7 ErrMin= 4.42D-04
 ErrMax= 4.42D-04  0.00D+00 EMaxC= 1.00D-01 BMatC= 2.07D-05 BMatP= 3.35D-04
 IDIUse=3 WtCom= 9.96D-01 WtEn= 4.42D-03
 Coeff-Com: -0.339D-01 0.451D-01-0.139D-01 0.287D-01 0.895D-01 0.213D+00
 Coeff-Com:  0.672D+00
 Coeff-En:   0.000D+00 0.000D+00 0.000D+00 0.000D+00 0.000D+00 0.000D+00
 Coeff-En:   0.100D+01
 Coeff:     -0.338D-01 0.449D-01-0.138D-01 0.286D-01 0.891D-01 0.212D+00
 Coeff:      0.673D+00
 Gap=     0.256 Goal=   None    Shift=    0.000
 RMSDP=1.23D-04 MaxDP=9.85D-03 DE=-2.39D-04 OVMax= 2.90D-03

 Cycle   8  Pass 1  IDiag  1:
 RMSU=  6.36D-05    CP:  5.41D-01  2.63D+00  1.72D+00  8.89D-01  8.20D-01
                    CP:  8.63D-01  9.87D-01
 E= -3010.54063817972     Delta-E=       -0.000025011384 Rises=F Damp=F
 DIIS: error= 1.08D-04 at cycle   8 NSaved=   8.
 NSaved= 8 IEnMin= 8 EnMin= -3010.54063817972     IErMin= 8 ErrMin= 1.08D-04
 ErrMax= 1.08D-04  0.00D+00 EMaxC= 1.00D-01 BMatC= 2.30D-06 BMatP= 2.07D-05
 IDIUse=3 WtCom= 9.99D-01 WtEn= 1.08D-03
 Coeff-Com:  0.796D-02-0.109D-01-0.306D-02-0.179D-01-0.424D-01-0.378D-01
 Coeff-Com:  0.156D+00 0.949D+00
 Coeff-En:   0.000D+00 0.000D+00 0.000D+00 0.000D+00 0.000D+00 0.000D+00
 Coeff-En:   0.000D+00 0.100D+01
 Coeff:      0.796D-02-0.109D-01-0.306D-02-0.179D-01-0.424D-01-0.378D-01
 Coeff:      0.155D+00 0.949D+00
 Gap=     0.256 Goal=   None    Shift=    0.000
 RMSDP=5.93D-05 MaxDP=3.96D-03 DE=-2.50D-05 OVMax= 2.23D-03

 Cycle   9  Pass 1  IDiag  1:
 RMSU=  2.57D-05    CP:  5.41D-01  2.63D+00  1.72D+00  8.90D-01  8.20D-01
                    CP:  9.23D-01  1.18D+00  1.21D+00
 E= -3010.54064472989     Delta-E=       -0.000006550170 Rises=F Damp=F
 DIIS: error= 4.88D-05 at cycle   9 NSaved=   9.
 NSaved= 9 IEnMin= 9 EnMin= -3010.54064472989     IErMin= 9 ErrMin= 4.88D-05
 ErrMax= 4.88D-05  0.00D+00 EMaxC= 1.00D-01 BMatC= 3.07D-07 BMatP= 2.30D-06
 IDIUse=1 WtCom= 1.00D+00 WtEn= 0.00D+00
 Coeff-Com:  0.687D-02-0.922D-02 0.864D-03-0.940D-02-0.228D-01-0.417D-01
 Coeff-Com: -0.574D-01 0.288D+00 0.845D+00
 Coeff:      0.687D-02-0.922D-02 0.864D-03-0.940D-02-0.228D-01-0.417D-01
 Coeff:     -0.574D-01 0.288D+00 0.845D+00
 Gap=     0.256 Goal=   None    Shift=    0.000
 RMSDP=1.86D-05 MaxDP=1.09D-03 DE=-6.55D-06 OVMax= 9.94D-04

 Cycle  10  Pass 1  IDiag  1:
 RMSU=  9.18D-06    CP:  5.41D-01  2.63D+00  1.72D+00  8.90D-01  8.24D-01
                    CP:  9.31D-01  1.22D+00  1.32D+00  1.20D+00
 E= -3010.54064584029     Delta-E=       -0.000001110398 Rises=F Damp=F
 DIIS: error= 1.72D-05 at cycle  10 NSaved=  10.
 NSaved=10 IEnMin=10 EnMin= -3010.54064584029     IErMin=10 ErrMin= 1.72D-05
 ErrMax= 1.72D-05  0.00D+00 EMaxC= 1.00D-01 BMatC= 7.03D-08 BMatP= 3.07D-07
 IDIUse=1 WtCom= 1.00D+00 WtEn= 0.00D+00
 Coeff-Com:  0.364D-03-0.459D-03 0.434D-03-0.373D-04 0.159D-02-0.401D-02
 Coeff-Com: -0.416D-01-0.593D-01 0.262D+00 0.841D+00
 Coeff:      0.364D-03-0.459D-03 0.434D-03-0.373D-04 0.159D-02-0.401D-02
 Coeff:     -0.416D-01-0.593D-01 0.262D+00 0.841D+00
 Gap=     0.256 Goal=   None    Shift=    0.000
 RMSDP=1.10D-05 MaxDP=6.85D-04 DE=-1.11D-06 OVMax= 4.12D-04

 Cycle  11  Pass 1  IDiag  1:
 RMSU=  5.62D-06    CP:  5.41D-01  2.63D+00  1.72D+00  8.90D-01  8.23D-01
                    CP:  9.38D-01  1.22D+00  1.32D+00  1.45D+00  1.24D+00
 E= -3010.54064601951     Delta-E=       -0.000000179221 Rises=F Damp=F
 DIIS: error= 6.89D-06 at cycle  11 NSaved=  11.
 NSaved=11 IEnMin=11 EnMin= -3010.54064601951     IErMin=11 ErrMin= 6.89D-06
 ErrMax= 6.89D-06  0.00D+00 EMaxC= 1.00D-01 BMatC= 5.85D-09 BMatP= 7.03D-08
 IDIUse=1 WtCom= 1.00D+00 WtEn= 0.00D+00
 Coeff-Com: -0.366D-03 0.496D-03 0.889D-04 0.906D-03 0.288D-02 0.418D-02
 Coeff-Com:  0.117D-02-0.430D-01-0.742D-01 0.123D+00 0.985D+00
 Coeff:     -0.366D-03 0.496D-03 0.889D-04 0.906D-03 0.288D-02 0.418D-02
 Coeff:      0.117D-02-0.430D-01-0.742D-01 0.123D+00 0.985D+00
 Gap=     0.256 Goal=   None    Shift=    0.000
 RMSDP=4.49D-06 MaxDP=3.17D-04 DE=-1.79D-07 OVMax= 1.73D-04

 Cycle  12  Pass 1  IDiag  1:
 RMSU=  1.34D-06    CP:  5.41D-01  2.63D+00  1.72D+00  8.89D-01  8.22D-01
                    CP:  9.39D-01  1.21D+00  1.31D+00  1.55D+00  1.45D+00
                    CP:  1.30D+00
 E= -3010.54064604790     Delta-E=       -0.000000028389 Rises=F Damp=F
 DIIS: error= 2.83D-06 at cycle  12 NSaved=  12.
 NSaved=12 IEnMin=12 EnMin= -3010.54064604790     IErMin=12 ErrMin= 2.83D-06
 ErrMax= 2.83D-06  0.00D+00 EMaxC= 1.00D-01 BMatC= 2.09D-09 BMatP= 5.85D-09
 IDIUse=1 WtCom= 1.00D+00 WtEn= 0.00D+00
 Coeff-Com: -0.199D-03 0.264D-03-0.110D-04 0.433D-03 0.912D-03 0.247D-02
 Coeff-Com:  0.871D-02-0.883D-02-0.871D-01-0.111D+00 0.482D+00 0.712D+00
 Coeff:     -0.199D-03 0.264D-03-0.110D-04 0.433D-03 0.912D-03 0.247D-02
 Coeff:      0.871D-02-0.883D-02-0.871D-01-0.111D+00 0.482D+00 0.712D+00
 Gap=     0.256 Goal=   None    Shift=    0.000
 RMSDP=2.01D-06 MaxDP=1.82D-04 DE=-2.84D-08 OVMax= 6.62D-05

 Cycle  13  Pass 1  IDiag  1:
 RMSU=  5.17D-07    CP:  5.41D-01  2.63D+00  1.72D+00  8.89D-01  8.22D-01
                    CP:  9.40D-01  1.21D+00  1.31D+00  1.58D+00  1.52D+00
                    CP:  1.49D+00  1.01D+00
 E= -3010.54064605268     Delta-E=       -0.000000004775 Rises=F Damp=F
 DIIS: error= 7.54D-07 at cycle  13 NSaved=  13.
 NSaved=13 IEnMin=13 EnMin= -3010.54064605268     IErMin=13 ErrMin= 7.54D-07
 ErrMax= 7.54D-07  0.00D+00 EMaxC= 1.00D-01 BMatC= 1.39D-10 BMatP= 2.09D-09
 IDIUse=1 WtCom= 1.00D+00 WtEn= 0.00D+00
 Coeff-Com: -0.366D-04 0.489D-04-0.113D-04 0.292D-05-0.251D-03-0.377D-03
 Coeff-Com:  0.446D-03 0.244D-02-0.156D-02-0.215D-01-0.281D-01 0.125D+00
 Coeff-Com:  0.924D+00
 Coeff:     -0.366D-04 0.489D-04-0.113D-04 0.292D-05-0.251D-03-0.377D-03
 Coeff:      0.446D-03 0.244D-02-0.156D-02-0.215D-01-0.281D-01 0.125D+00
 Coeff:      0.924D+00
 Gap=     0.256 Goal=   None    Shift=    0.000
 RMSDP=5.70D-07 MaxDP=3.82D-05 DE=-4.78D-09 OVMax= 1.19D-05

 Cycle  14  Pass 1  IDiag  1:
 RMSU=  2.53D-07    CP:  5.41D-01  2.63D+00  1.72D+00  8.89D-01  8.22D-01
                    CP:  9.40D-01  1.21D+00  1.31D+00  1.59D+00  1.52D+00
                    CP:  1.53D+00  1.17D+00  1.18D+00
 E= -3010.54064605297     Delta-E=       -0.000000000291 Rises=F Damp=F
 DIIS: error= 2.84D-07 at cycle  14 NSaved=  14.
 NSaved=14 IEnMin=14 EnMin= -3010.54064605297     IErMin=14 ErrMin= 2.84D-07
 ErrMax= 2.84D-07  0.00D+00 EMaxC= 1.00D-01 BMatC= 2.15D-11 BMatP= 1.39D-10
 IDIUse=1 WtCom= 1.00D+00 WtEn= 0.00D+00
 Coeff-Com:  0.114D-06 0.129D-06-0.577D-05-0.468D-04-0.206D-03-0.477D-03
 Coeff-Com: -0.975D-03 0.231D-02 0.113D-01 0.619D-02-0.823D-01-0.463D-01
 Coeff-Com:  0.337D+00 0.774D+00
 Coeff:      0.114D-06 0.129D-06-0.577D-05-0.468D-04-0.206D-03-0.477D-03
 Coeff:     -0.975D-03 0.231D-02 0.113D-01 0.619D-02-0.823D-01-0.463D-01
 Coeff:      0.337D+00 0.774D+00
 Gap=     0.256 Goal=   None    Shift=    0.000
 RMSDP=2.11D-07 MaxDP=1.36D-05 DE=-2.91D-10 OVMax= 5.81D-06

 Cycle  15  Pass 1  IDiag  1:
 RMSU=  6.11D-08    CP:  5.41D-01  2.63D+00  1.72D+00  8.89D-01  8.22D-01
                    CP:  9.40D-01  1.21D+00  1.31D+00  1.59D+00  1.52D+00
                    CP:  1.54D+00  1.24D+00  1.31D+00  1.13D+00
 E= -3010.54064605306     Delta-E=       -0.000000000089 Rises=F Damp=F
 DIIS: error= 8.47D-08 at cycle  15 NSaved=  15.
 NSaved=15 IEnMin=15 EnMin= -3010.54064605306     IErMin=15 ErrMin= 8.47D-08
 ErrMax= 8.47D-08  0.00D+00 EMaxC= 1.00D-01 BMatC= 2.45D-12 BMatP= 2.15D-11
 IDIUse=1 WtCom= 1.00D+00 WtEn= 0.00D+00
 Coeff-Com:  0.479D-05-0.637D-05 0.154D-06-0.682D-05 0.153D-04-0.196D-04
 Coeff-Com: -0.242D-03 0.210D-04 0.217D-02 0.482D-02-0.126D-01-0.254D-01
 Coeff-Com: -0.799D-01 0.139D+00 0.972D+00
 Coeff:      0.479D-05-0.637D-05 0.154D-06-0.682D-05 0.153D-04-0.196D-04
 Coeff:     -0.242D-03 0.210D-04 0.217D-02 0.482D-02-0.126D-01-0.254D-01
 Coeff:     -0.799D-01 0.139D+00 0.972D+00
 Gap=     0.256 Goal=   None    Shift=    0.000
 RMSDP=8.78D-08 MaxDP=5.32D-06 DE=-8.91D-11 OVMax= 3.57D-06

 Cycle  16  Pass 1  IDiag  1:
 RMSU=  3.52D-08    CP:  5.41D-01  2.63D+00  1.72D+00  8.89D-01  8.22D-01
                    CP:  9.40D-01  1.21D+00  1.31D+00  1.59D+00  1.52D+00
                    CP:  1.54D+00  1.26D+00  1.38D+00  1.27D+00  1.22D+00
 E= -3010.54064605306     Delta-E=       -0.000000000004 Rises=F Damp=F
 DIIS: error= 3.14D-08 at cycle  16 NSaved=  16.
 NSaved=16 IEnMin=16 EnMin= -3010.54064605306     IErMin=16 ErrMin= 3.14D-08
 ErrMax= 3.14D-08  0.00D+00 EMaxC= 1.00D-01 BMatC= 5.52D-13 BMatP= 2.45D-12
 IDIUse=1 WtCom= 1.00D+00 WtEn= 0.00D+00
 Coeff-Com:  0.137D-05-0.185D-05 0.105D-05 0.536D-05 0.359D-04 0.652D-04
 Coeff-Com:  0.564D-04-0.375D-03-0.104D-02 0.941D-03 0.811D-02 0.951D-03
 Coeff-Com: -0.683D-01-0.935D-01 0.260D+00 0.893D+00
 Coeff:      0.137D-05-0.185D-05 0.105D-05 0.536D-05 0.359D-04 0.652D-04
 Coeff:      0.564D-04-0.375D-03-0.104D-02 0.941D-03 0.811D-02 0.951D-03
 Coeff:     -0.683D-01-0.935D-01 0.260D+00 0.893D+00
 Gap=     0.256 Goal=   None    Shift=    0.000
 RMSDP=3.83D-08 MaxDP=2.36D-06 DE=-3.64D-12 OVMax= 1.74D-06

 Cycle  17  Pass 1  IDiag  1:
 RMSU=  9.59D-09    CP:  5.41D-01  2.63D+00  1.72D+00  8.89D-01  8.22D-01
                    CP:  9.40D-01  1.21D+00  1.31D+00  1.59D+00  1.52D+00
                    CP:  1.54D+00  1.27D+00  1.39D+00  1.31D+00  1.49D+00
                    CP:  1.20D+00
 E= -3010.54064605303     Delta-E=        0.000000000033 Rises=F Damp=F
 DIIS: error= 1.64D-08 at cycle  17 NSaved=  17.
 NSaved=17 IEnMin=16 EnMin= -3010.54064605306     IErMin=17 ErrMin= 1.64D-08
 ErrMax= 1.64D-08  0.00D+00 EMaxC= 1.00D-01 BMatC= 9.71D-14 BMatP= 5.52D-13
 IDIUse=1 WtCom= 1.00D+00 WtEn= 0.00D+00
 Coeff-Com:  0.322D-07-0.487D-07 0.290D-06 0.144D-05 0.352D-05 0.132D-04
 Coeff-Com:  0.379D-04-0.545D-04-0.491D-03-0.369D-03 0.297D-02 0.382D-02
 Coeff-Com: -0.313D-03-0.500D-01-0.119D+00 0.222D+00 0.941D+00
 Coeff:      0.322D-07-0.487D-07 0.290D-06 0.144D-05 0.352D-05 0.132D-04
 Coeff:      0.379D-04-0.545D-04-0.491D-03-0.369D-03 0.297D-02 0.382D-02
 Coeff:     -0.313D-03-0.500D-01-0.119D+00 0.222D+00 0.941D+00
 Gap=     0.256 Goal=   None    Shift=    0.000
 RMSDP=1.55D-08 MaxDP=6.96D-07 DE= 3.27D-11 OVMax= 8.56D-07

 Cycle  18  Pass 1  IDiag  1:
 RMSU=  4.53D-09    CP:  5.41D-01  2.63D+00  1.72D+00  8.89D-01  8.22D-01
                    CP:  9.40D-01  1.21D+00  1.31D+00  1.59D+00  1.52D+00
                    CP:  1.54D+00  1.28D+00  1.40D+00  1.33D+00  1.56D+00
                    CP:  1.44D+00  1.27D+00
 E= -3010.54064605308     Delta-E=       -0.000000000047 Rises=F Damp=F
 DIIS: error= 5.96D-09 at cycle  18 NSaved=  18.
 NSaved=18 IEnMin=18 EnMin= -3010.54064605308     IErMin=18 ErrMin= 5.96D-09
 ErrMax= 5.96D-09  0.00D+00 EMaxC= 1.00D-01 BMatC= 2.00D-14 BMatP= 9.71D-14
 IDIUse=1 WtCom= 1.00D+00 WtEn= 0.00D+00
 Coeff-Com:  0.752D-08-0.875D-08-0.114D-06-0.115D-05-0.741D-05-0.111D-04
 Coeff-Com: -0.387D-05 0.816D-04 0.894D-04-0.332D-03-0.115D-02 0.824D-03
 Coeff-Com:  0.171D-01 0.768D-02-0.909D-01-0.138D+00 0.248D+00 0.956D+00
 Coeff:      0.752D-08-0.875D-08-0.114D-06-0.115D-05-0.741D-05-0.111D-04
 Coeff:     -0.387D-05 0.816D-04 0.894D-04-0.332D-03-0.115D-02 0.824D-03
 Coeff:      0.171D-01 0.768D-02-0.909D-01-0.138D+00 0.248D+00 0.956D+00
 Gap=     0.256 Goal=   None    Shift=    0.000
 RMSDP=7.03D-09 MaxDP=4.87D-07 DE=-4.73D-11 OVMax= 3.36D-07

 SCF Done:  E(RwB97XD) =  -3010.54064605     A.U. after   18 cycles
            NFock= 18  Conv=0.70D-08     -V/T= 2.0016
 KE= 3.005860179113D+03 PE=-8.633878167602D+03 EE= 1.876843117606D+03
 Leave Link  502 at Wed May  1 15:22:39 2024, MaxMem=  1207959552 cpu:            1000.3 elap:            1000.6
 (Enter /software/gaussian/g16-c01/sse4/g16/l601.exe)
 Copying SCF densities to generalized density rwf, IOpCl= 0 IROHF=0.

 **********************************************************************

            Population analysis using the SCF Density.

 **********************************************************************

 Alpha  occ. eigenvalues -- -483.33129 -62.88183 -56.67836 -56.67319 -56.67318
 Alpha  occ. eigenvalues --  -19.46213 -19.46128 -14.85710 -10.59155 -10.58041
 Alpha  occ. eigenvalues --  -10.57616 -10.57434 -10.57141 -10.53299  -9.04010
 Alpha  occ. eigenvalues --   -6.86579  -6.84876  -6.84863  -2.96510  -2.96054
 Alpha  occ. eigenvalues --   -2.96043  -2.94679  -2.94679  -1.49963  -1.32935
 Alpha  occ. eigenvalues --   -1.23170  -1.14873  -1.12227  -1.05836  -1.01410
 Alpha  occ. eigenvalues --   -0.95981  -0.91360  -0.85600  -0.81131  -0.80999
 Alpha  occ. eigenvalues --   -0.80329  -0.78629  -0.76441  -0.76303  -0.73169
 Alpha  occ. eigenvalues --   -0.69773  -0.67970  -0.64516  -0.61286  -0.58717
 Alpha  occ. eigenvalues --   -0.57387  -0.56773  -0.56365  -0.55918
 Alpha virt. eigenvalues --   -0.30355  -0.21652  -0.16977  -0.13997  -0.12060
 Alpha virt. eigenvalues --   -0.08671  -0.07955  -0.07181  -0.05609  -0.04551
 Alpha virt. eigenvalues --   -0.03768  -0.03092  -0.02614  -0.02352  -0.01718
 Alpha virt. eigenvalues --   -0.00036   0.00220   0.01241   0.02022   0.03159
 Alpha virt. eigenvalues --    0.04536   0.04814   0.05457   0.05835   0.06374
 Alpha virt. eigenvalues --    0.06750   0.07786   0.08208   0.08654   0.08838
 Alpha virt. eigenvalues --    0.10468   0.11008   0.11620   0.11795   0.12436
 Alpha virt. eigenvalues --    0.12675   0.13256   0.13927   0.14933   0.15983
 Alpha virt. eigenvalues --    0.16491   0.17245   0.17938   0.18843   0.19145
 Alpha virt. eigenvalues --    0.19492   0.20657   0.21323   0.21692   0.24416
 Alpha virt. eigenvalues --    0.25284   0.26887   0.27517   0.28045   0.28392
 Alpha virt. eigenvalues --    0.30863   0.32601   0.33634   0.34489   0.35967
 Alpha virt. eigenvalues --    0.37089   0.37709   0.38279   0.40111   0.40698
 Alpha virt. eigenvalues --    0.42387   0.43437   0.44257   0.46379   0.46993
 Alpha virt. eigenvalues --    0.47748   0.49045   0.49856   0.51638   0.53255
 Alpha virt. eigenvalues --    0.53717   0.54670   0.56054   0.56835   0.59092
 Alpha virt. eigenvalues --    0.60713   0.61814   0.63356   0.65854   0.68184
 Alpha virt. eigenvalues --    0.69928   0.71368   0.72464   0.72757   0.73772
 Alpha virt. eigenvalues --    0.74063   0.79077   0.79391   0.81760   0.84496
 Alpha virt. eigenvalues --    0.85622   0.87549   0.91501   0.92408   0.98042
 Alpha virt. eigenvalues --    0.99259   1.00598   1.04085   1.05009   1.06095
 Alpha virt. eigenvalues --    1.08442   1.10753   1.11570   1.12081   1.13899
 Alpha virt. eigenvalues --    1.21714   1.24179   1.26402   1.32502   1.36065
 Alpha virt. eigenvalues --    1.36462   1.37466   1.44470   1.53936   1.56688
 Alpha virt. eigenvalues --    1.58060   1.58309   1.60205   1.61953   1.65777
 Alpha virt. eigenvalues --    1.68716   1.69129   1.73091   1.74924   1.78580
 Alpha virt. eigenvalues --    1.80670   1.85066   1.86800   1.91346   1.93535
 Alpha virt. eigenvalues --    1.97048   2.02473   2.03224   2.05654   2.07389
 Alpha virt. eigenvalues --    2.08968   2.14204   2.19994   2.22292   2.29044
 Alpha virt. eigenvalues --    2.37281   2.40762   2.42314   2.43133   2.52043
 Alpha virt. eigenvalues --    2.56325   2.62625   2.65647   2.67783   2.71351
 Alpha virt. eigenvalues --    2.73001   2.76120   2.76956   2.80599   2.81216
 Alpha virt. eigenvalues --    2.92882   2.95796   3.00303   3.05031   3.08432
 Alpha virt. eigenvalues --    3.12599   3.14492   3.18666   3.23290   3.23903
 Alpha virt. eigenvalues --    3.27006   3.38731   3.47228   3.50810   3.54048
 Alpha virt. eigenvalues --    3.56435   3.69572   3.73763   3.81680   3.86636
 Alpha virt. eigenvalues --    4.06750   4.06996   4.14693   4.19873   4.40756
 Alpha virt. eigenvalues --    4.44008   4.56885   4.59496   4.92857   4.95526
 Alpha virt. eigenvalues --    5.04170   5.08337   5.62476   6.15425   6.62569
 Alpha virt. eigenvalues --    7.45398   7.46992   7.56898  23.20749  23.60800
 Alpha virt. eigenvalues --   23.68739  23.78904  23.95570  24.00904  35.32248
 Alpha virt. eigenvalues --   47.89231  49.85219  49.94030 289.78584 289.80253
 Alpha virt. eigenvalues --  289.927241020.89692
          Condensed to atoms (all electrons):
               1          2          3          4          5          6
     1  C    8.954420  -2.672563   0.511709  -1.801459  -0.731642   0.319845
     2  C   -2.672563  13.636381  -2.374916  -2.252480   1.101868  -0.020319
     3  C    0.511709  -2.374916  13.192959  -2.952504  -1.530802   0.023957
     4  C   -1.801459  -2.252480  -2.952504  14.474399   1.451567   0.015322
     5  C   -0.731642   1.101868  -1.530802   1.451567   7.632499   0.007922
     6  H    0.319845  -0.020319   0.023957   0.015322   0.007922   0.331183
     7  H    0.066923   0.225755   0.081904  -0.030074  -0.018664  -0.001741
     8  H    0.004403  -0.012638   0.073690   0.250603  -0.019335  -0.000001
     9  H    0.027151  -0.014327   0.006495  -0.008672   0.313280  -0.002157
    10  N   -0.165101   0.360257  -1.005561   0.403161   0.036039  -0.000644
    11  O    0.011836  -0.035785  -0.239226  -0.043380  -0.051420  -0.000034
    12  O    0.330488  -0.051929  -0.250837  -0.103064  -0.045022   0.000014
    13  C    1.688309  -2.386323   1.129811  -3.723294  -2.212463  -0.011882
    14  H   -0.007118   0.001083   0.001165  -0.077228  -0.029341  -0.000034
    15  Br   0.065470  -0.060786   0.060085   0.095107   0.053062  -0.000549
               7          8          9         10         11         12
     1  C    0.066923   0.004403   0.027151  -0.165101   0.011836   0.330488
     2  C    0.225755  -0.012638  -0.014327   0.360257  -0.035785  -0.051929
     3  C    0.081904   0.073690   0.006495  -1.005561  -0.239226  -0.250837
     4  C   -0.030074   0.250603  -0.008672   0.403161  -0.043380  -0.103064
     5  C   -0.018664  -0.019335   0.313280   0.036039  -0.051420  -0.045022
     6  H   -0.001741  -0.000001  -0.002157  -0.000644  -0.000034   0.000014
     7  H    0.300189  -0.000012   0.000008  -0.027040  -0.001496   0.022674
     8  H   -0.000012   0.288958   0.000068  -0.024671   0.021603  -0.000645
     9  H    0.000008   0.000068   0.317149   0.000282   0.000015   0.000007
    10  N   -0.027040  -0.024671   0.000282   7.412168   0.161300   0.140721
    11  O   -0.001496   0.021603   0.000015   0.161300   7.854950   0.000322
    12  O    0.022674  -0.000645   0.000007   0.140721   0.000322   7.881496
    13  C    0.013609   0.043029   0.010047  -0.189275   0.290393   0.044861
    14  H   -0.000009  -0.002535  -0.003968   0.000609  -0.000389  -0.000114
    15  Br  -0.000156  -0.000549  -0.001885   0.004445  -0.001315   0.002221
              13         14         15
     1  C    1.688309  -0.007118   0.065470
     2  C   -2.386323   0.001083  -0.060786
     3  C    1.129811   0.001165   0.060085
     4  C   -3.723294  -0.077228   0.095107
     5  C   -2.212463  -0.029341   0.053062
     6  H   -0.011882  -0.000034  -0.000549
     7  H    0.013609  -0.000009  -0.000156
     8  H    0.043029  -0.002535  -0.000549
     9  H    0.010047  -0.003968  -0.001885
    10  N   -0.189275   0.000609   0.004445
    11  O    0.290393  -0.000389  -0.001315
    12  O    0.044861  -0.000114   0.002221
    13  C   11.451677   0.413135  -0.089033
    14  H    0.413135   0.285662  -0.028425
    15  Br  -0.089033  -0.028425  34.844315
 Mulliken charges:
               1
     1  C   -0.602670
     2  C    0.556719
     3  C   -0.727928
     4  C    0.301996
     5  C    0.042453
     6  H    0.339119
     7  H    0.368129
     8  H    0.378033
     9  H    0.356506
    10  N   -0.106690
    11  O    0.032627
    12  O    0.028808
    13  C   -0.472601
    14  H    0.447506
    15  Br   0.057992
 Sum of Mulliken charges =   1.00000
 Mulliken charges with hydrogens summed into heavy atoms:
               1
     1  C   -0.263550
     2  C    0.924848
     3  C   -0.727928
     4  C    0.680029
     5  C    0.398959
    10  N   -0.106690
    11  O    0.032627
    12  O    0.028808
    13  C   -0.025095
    15  Br   0.057992
 Electronic spatial extent (au):  <R**2>=           2800.4066
 Charge=              1.0000 electrons
 Dipole moment (field-independent basis, Debye):
    X=             -0.5228    Y=             -0.1190    Z=              2.1601  Tot=              2.2257
 Quadrupole moment (field-independent basis, Debye-Ang):
   XX=            -70.8308   YY=            -52.6523   ZZ=            -65.1061
   XY=              0.9608   XZ=              2.1122   YZ=             -0.2032
 Traceless Quadrupole moment (field-independent basis, Debye-Ang):
   XX=             -7.9677   YY=             10.2108   ZZ=             -2.2430
   XY=              0.9608   XZ=              2.1122   YZ=             -0.2032
 Octapole moment (field-independent basis, Debye-Ang**2):
  XXX=           -297.0827  YYY=             90.9713  ZZZ=             87.5702  XYY=            -74.9099
  XXY=             30.6577  XXZ=             39.5529  XZZ=            -76.7733  YZZ=             21.2568
  YYZ=             32.0192  XYZ=             -2.1198
 Hexadecapole moment (field-independent basis, Debye-Ang**3):
 XXXX=          -2271.2147 YYYY=           -683.8741 ZZZZ=           -370.9895 XXXY=            -69.7561
 XXXZ=             -1.5649 YYYX=            -61.8300 YYYZ=           -166.7647 ZZZX=            -19.8408
 ZZZY=           -150.1804 XXYY=           -456.1974 XXZZ=           -373.6687 YYZZ=           -174.5305
 XXYZ=            -56.3162 YYXZ=             -2.2161 ZZXY=            -11.4182
 N-N= 7.406342248303D+02 E-N=-8.633878169213D+03  KE= 3.005860179113D+03
 No NMR shielding tensors so no spin-rotation constants.
 Leave Link  601 at Wed May  1 15:22:46 2024, MaxMem=  1207959552 cpu:               7.2 elap:               7.2
 (Enter /software/gaussian/g16-c01/sse4/g16/l9999.exe)
 Unable to Open any file for archive entry.
 1\1\GINC-BHX0015\SP\RwB97XD\6-311+G(d)\C6H5Br1N1O2(1+)\BWEIGHT\01-May-
 2024\0\\#P wB97XD/6-311+G* NoSymm #P Field=Z-126\\TitleMe\\1,1\C,0,0.0
 295,1.3397,0.0682\C,0,1.4348,1.2867,0.0064\C,0,2.1118,0.0511,-0.0054\C
 ,0,1.4451,-1.1372,0.0312\C,0,-0.6879,0.1682,0.11\H,0,-0.4713,2.2984,0.
 0781\H,0,2.0273,2.1965,-0.0322\H,0,1.9897,-2.0764,0.0232\H,0,-1.7716,0
 .1804,0.1582\N,0,3.5864,0.051,-0.0675\O,0,4.1471,-1.0597,-0.0881\O,0,4
 .145,1.1639,-0.0901\C,0,-0.0236,-1.1458,0.0835\H,0,-0.4367,-1.8725,0.7
 889\Br,0,-0.5359,-1.8697,-1.7408\\Version=ES64L-G16RevC.01\HF=-3010.54
 06461\RMSD=7.032e-09\Dipole=-2.1122301,1.101268,1.996038\Quadrupole=-5
 .923804,7.5914533,-1.6676493,0.7143565,1.5704027,-0.1510692\PG=C01 [X(
 C6H5Br1N1O2)]\\@
 The archive entry for this job was punched.


 When I told the people of Northern Ireland that I was
 an atheist, a woman in the audience stood up and said,
 "Yes, but is it the God of the Catholics or the God
 of the Protestants in whom you don't believe?"
                               -- Quentin Crisp
 Job cpu time:       0 days  0 hours 17 minutes 47.4 seconds.
 Elapsed time:       0 days  0 hours 17 minutes 47.7 seconds.
 File lengths (MBytes):  RWF=     40 Int=      0 D2E=      0 Chk=     32 Scr=      1
 Normal termination of Gaussian 16 at Wed May  1 15:22:47 2024.
