 Entering Gaussian System, Link 0=g16
 Initial command:
 /software/gaussian/g16-c01/sse4/g16/l1.exe "/local_scratch/24657512/Gau-25243.inp" -scrdir="/local_scratch/24657512/"
 Entering Link 1 = /software/gaussian/g16-c01/sse4/g16/l1.exe PID=     25246.
  
 Copyright (c) 1988-2019, Gaussian, Inc.  All Rights Reserved.
  
 This is part of the Gaussian(R) 16 program.  It is based on
 the Gaussian(R) 09 system (copyright 2009, Gaussian, Inc.),
 the Gaussian(R) 03 system (copyright 2003, Gaussian, Inc.),
 the Gaussian(R) 98 system (copyright 1998, Gaussian, Inc.),
 the Gaussian(R) 94 system (copyright 1995, Gaussian, Inc.),
 the Gaussian 92(TM) system (copyright 1992, Gaussian, Inc.),
 the Gaussian 90(TM) system (copyright 1990, Gaussian, Inc.),
 the Gaussian 88(TM) system (copyright 1988, Gaussian, Inc.),
 the Gaussian 86(TM) system (copyright 1986, Carnegie Mellon
 University), and the Gaussian 82(TM) system (copyright 1983,
 Carnegie Mellon University). Gaussian is a federally registered
 trademark of Gaussian, Inc.
  
 This software contains proprietary and confidential information,
 including trade secrets, belonging to Gaussian, Inc.
  
 This software is provided under written license and may be
 used, copied, transmitted, or stored only in accord with that
 written license.
  
 The following legend is applicable only to US Government
 contracts under FAR:
  
                    RESTRICTED RIGHTS LEGEND
  
 Use, reproduction and disclosure by the US Government is
 subject to restrictions as set forth in subparagraphs (a)
 and (c) of the Commercial Computer Software - Restricted
 Rights clause in FAR 52.227-19.
  
 Gaussian, Inc.
 340 Quinnipiac St., Bldg. 40, Wallingford CT 06492
  
  
 ---------------------------------------------------------------
 Warning -- This program may not be used in any manner that
 competes with the business of Gaussian, Inc. or will provide
 assistance to any competitor of Gaussian, Inc.  The licensee
 of this program is prohibited from giving any competitor of
 Gaussian, Inc. access to this program.  By using this program,
 the user acknowledges that Gaussian, Inc. is engaged in the
 business of creating and licensing software in the field of
 computational chemistry and represents and warrants to the
 licensee that it is not a competitor of Gaussian, Inc. and that
 it will not use this program in any manner prohibited above.
 ---------------------------------------------------------------
  

 Cite this work as:
 Gaussian 16, Revision C.01,
 M. J. Frisch, G. W. Trucks, H. B. Schlegel, G. E. Scuseria, 
 M. A. Robb, J. R. Cheeseman, G. Scalmani, V. Barone, 
 G. A. Petersson, H. Nakatsuji, X. Li, M. Caricato, A. V. Marenich, 
 J. Bloino, B. G. Janesko, R. Gomperts, B. Mennucci, H. P. Hratchian, 
 J. V. Ortiz, A. F. Izmaylov, J. L. Sonnenberg, D. Williams-Young, 
 F. Ding, F. Lipparini, F. Egidi, J. Goings, B. Peng, A. Petrone, 
 T. Henderson, D. Ranasinghe, V. G. Zakrzewski, J. Gao, N. Rega, 
 G. Zheng, W. Liang, M. Hada, M. Ehara, K. Toyota, R. Fukuda, 
 J. Hasegawa, M. Ishida, T. Nakajima, Y. Honda, O. Kitao, H. Nakai, 
 T. Vreven, K. Throssell, J. A. Montgomery, Jr., J. E. Peralta, 
 F. Ogliaro, M. J. Bearpark, J. J. Heyd, E. N. Brothers, K. N. Kudin, 
 V. N. Staroverov, T. A. Keith, R. Kobayashi, J. Normand, 
 K. Raghavachari, A. P. Rendell, J. C. Burant, S. S. Iyengar, 
 J. Tomasi, M. Cossi, J. M. Millam, M. Klene, C. Adamo, R. Cammi, 
 J. W. Ochterski, R. L. Martin, K. Morokuma, O. Farkas, 
 J. B. Foresman, and D. J. Fox, Gaussian, Inc., Wallingford CT, 2019.
 
 ******************************************
 Gaussian 16:  ES64L-G16RevC.01  3-Jul-2019
                 1-May-2024 
 ******************************************
 %chk=geometry.chk
 %mem=9GB
 %nprocshared=12
 Will use up to   12 processors via shared memory.
 ----------------------------------------
 #P wB97XD/6-311+G* NoSymm #P Field=Y+107
 ----------------------------------------
 1/38=1,172=1/1;
 2/12=2,15=1,17=6,18=5,40=1/2;
 3/5=4,6=6,7=11,11=2,14=2,15=107,25=1,30=1,74=-58/1,2,3;
 4//1;
 5/5=2,38=5/2;
 6/7=2,8=2,9=2,10=2,28=1/1;
 99/5=1,9=1/99;
 Leave Link    1 at Wed May  1 14:48:54 2024, MaxMem=  1207959552 cpu:               0.7 elap:               0.7
 (Enter /software/gaussian/g16-c01/sse4/g16/l101.exe)
 -------
 TitleMe
 -------
 Symbolic Z-matrix:
 Charge =  1 Multiplicity = 1
 C                     0.0295    1.3397    0.0682 
 C                     1.4348    1.2867    0.0064 
 C                     2.1118    0.0511   -0.0054 
 C                     1.4451   -1.1372    0.0312 
 C                    -0.6879    0.1682    0.11 
 H                    -0.4713    2.2984    0.0781 
 H                     2.0273    2.1965   -0.0322 
 H                     1.9897   -2.0764    0.0232 
 H                    -1.7716    0.1804    0.1582 
 N                     3.5864    0.051    -0.0675 
 O                     4.1471   -1.0597   -0.0881 
 O                     4.145     1.1639   -0.0901 
 C                    -0.0236   -1.1458    0.0835 
 H                    -0.4367   -1.8725    0.7889 
 Br                   -0.5359   -1.8697   -1.7408 
 
 ITRead=  0  0  0  0  0  0  0  0  0  0  0  0  0  0  0
 MicOpt= -1 -1 -1 -1 -1 -1 -1 -1 -1 -1 -1 -1 -1 -1 -1
 NAtoms=     15 NQM=       15 NQMF=       0 NMMI=      0 NMMIF=      0
                NMic=       0 NMicF=      0.
                    Isotopes and Nuclear Properties:
 (Nuclear quadrupole moments (NQMom) in fm**2, nuclear magnetic moments (NMagM)
  in nuclear magnetons)

  Atom         1           2           3           4           5           6           7           8           9          10
 IAtWgt=          12          12          12          12          12           1           1           1           1          14
 AtmWgt=  12.0000000  12.0000000  12.0000000  12.0000000  12.0000000   1.0078250   1.0078250   1.0078250   1.0078250  14.0030740
 NucSpn=           0           0           0           0           0           1           1           1           1           2
 AtZEff=  -0.0000000  -0.0000000  -0.0000000  -0.0000000  -0.0000000  -0.0000000  -0.0000000  -0.0000000  -0.0000000  -0.0000000
 NQMom=    0.0000000   0.0000000   0.0000000   0.0000000   0.0000000   0.0000000   0.0000000   0.0000000   0.0000000   2.0440000
 NMagM=    0.0000000   0.0000000   0.0000000   0.0000000   0.0000000   2.7928460   2.7928460   2.7928460   2.7928460   0.4037610
 AtZNuc=   6.0000000   6.0000000   6.0000000   6.0000000   6.0000000   1.0000000   1.0000000   1.0000000   1.0000000   7.0000000

  Atom        11          12          13          14          15
 IAtWgt=          16          16          12           1          79
 AtmWgt=  15.9949146  15.9949146  12.0000000   1.0078250  78.9183361
 NucSpn=           0           0           0           1           3
 AtZEff=  -0.0000000  -0.0000000  -0.0000000  -0.0000000  -0.0000000
 NQMom=    0.0000000   0.0000000   0.0000000   0.0000000  31.3000000
 NMagM=    0.0000000   0.0000000   0.0000000   2.7928460   2.1063990
 AtZNuc=   8.0000000   8.0000000   6.0000000   1.0000000  35.0000000
 Leave Link  101 at Wed May  1 14:48:55 2024, MaxMem=  1207959552 cpu:               1.4 elap:               1.4
 (Enter /software/gaussian/g16-c01/sse4/g16/l202.exe)
                          Input orientation:                          
 ---------------------------------------------------------------------
 Center     Atomic      Atomic             Coordinates (Angstroms)
 Number     Number       Type             X           Y           Z
 ---------------------------------------------------------------------
      1          6           0        0.029500    1.339700    0.068200
      2          6           0        1.434800    1.286700    0.006400
      3          6           0        2.111800    0.051100   -0.005400
      4          6           0        1.445100   -1.137200    0.031200
      5          6           0       -0.687900    0.168200    0.110000
      6          1           0       -0.471300    2.298400    0.078100
      7          1           0        2.027300    2.196500   -0.032200
      8          1           0        1.989700   -2.076400    0.023200
      9          1           0       -1.771600    0.180400    0.158200
     10          7           0        3.586400    0.051000   -0.067500
     11          8           0        4.147100   -1.059700   -0.088100
     12          8           0        4.145000    1.163900   -0.090100
     13          6           0       -0.023600   -1.145800    0.083500
     14          1           0       -0.436700   -1.872500    0.788900
     15         35           0       -0.535900   -1.869700   -1.740800
 ---------------------------------------------------------------------
                    Distance matrix (angstroms):
                    1          2          3          4          5
     1  C    0.000000
     2  C    1.407656   0.000000
     3  C    2.449874   1.408963   0.000000
     4  C    2.853126   2.424049   1.363043   0.000000
     5  C    1.374344   2.401589   2.804523   2.501993   0.000000
     6  H    1.081667   2.159142   3.424870   3.934226   2.141421
     7  H    2.176095   1.086408   2.147231   3.384750   3.392128
     8  H    3.938800   3.408612   2.131193   1.085702   3.495040
     9  H    2.143837   3.395283   3.888995   3.478413   1.084840
    10  N    3.785591   2.482297   1.475907   2.450862   4.279589
    11  O    4.768247   3.587631   2.320164   2.705743   4.992415
    12  O    4.122294   2.714696   2.319353   3.549540   4.938459
    13  C    2.486114   2.837240   2.449573   1.469656   1.472614
    14  H    3.324903   3.754379   3.290289   2.157764   2.165286
    15  Br   3.727252   4.110867   3.702891   2.756973   2.757100
                    6          7          8          9         10
     6  H    0.000000
     7  H    2.503108   0.000000
     8  H    5.019802   4.273425   0.000000
     9  H    2.486588   4.304945   4.388479   0.000000
    10  N    4.640790   2.652397   2.661486   5.364313   0.000000
    11  O    5.712624   3.885809   2.387560   6.052233   1.244373
    12  O    4.756638   2.356750   3.893289   6.002923   1.245428
    13  C    3.473180   3.923079   2.218790   2.195425   3.806210
    14  H    4.231175   4.827242   2.552506   2.528663   4.540772
    15  Br   4.548146   5.101303   3.087568   3.055498   4.845862
                   11         12         13         14         15
    11  O    0.000000
    12  O    2.223602   0.000000
    13  C    4.175117   4.768865   0.000000
    14  H    4.737193   5.566358   1.093770   0.000000
    15  Br   5.031700   5.817075   2.028436   2.531646   0.000000
 Symmetry turned off by external request.
 Stoichiometry    C6H5BrNO2(1+)
 Framework group  C1[X(C6H5BrNO2)]
 Deg. of freedom    39
 Full point group                 C1      NOp   1
 Rotational constants (GHZ):           1.8252210           0.5518633           0.4576002
 Leave Link  202 at Wed May  1 14:48:56 2024, MaxMem=  1207959552 cpu:               1.3 elap:               1.3
 (Enter /software/gaussian/g16-c01/sse4/g16/l301.exe)
 Standard basis: 6-311+G(d) (5D, 7F)
 Ernie: Thresh=  0.10000D-02 Tol=  0.10000D-05 Strict=F.
 The following finite field(s) will be applied:
 An electric field of              0.0000  0.0107  0.0000
   261 basis functions,   443 primitive gaussians,   273 cartesian basis functions
    49 alpha electrons       49 beta electrons
       nuclear repulsion energy       739.2122215416 Hartrees.
 IExCor= 4639 DFT=T Ex+Corr=wB97XD ExCW=0 ScaHFX=  1.000000
 ScaDFX=  1.000000  1.000000  1.000000  1.000000 ScalE2=  1.000000  1.000000
 IRadAn=      5 IRanWt=     -1 IRanGd=            0 ICorTp=0 IEmpDi=121
 HFx  wShort=  0.000000 wLong=  0.200000 cFull=  0.222036 cShort=  0.000000 cLong=  0.777964
 DFx  wShort=  0.000000 wLong=  0.200000 cFull=  0.000000 cShort=  0.000000 cLong=  1.000000
 NAtoms=   15 NActive=   15 NUniq=   15 SFac= 1.00D+00 NAtFMM=   60 NAOKFM=F Big=F
 Integral buffers will be    131072 words long.
 Raffenetti 2 integral format.
 Two-electron integral symmetry is turned off.
 R6Disp:  Grimme-D2 Dispersion energy=       -0.0077368520 Hartrees.
 Nuclear repulsion after empirical dispersion term =      739.2044846896 Hartrees.
 Leave Link  301 at Wed May  1 14:48:57 2024, MaxMem=  1207959552 cpu:               1.0 elap:               1.0
 (Enter /software/gaussian/g16-c01/sse4/g16/l302.exe)
 NPDir=0 NMtPBC=     1 NCelOv=     1 NCel=       1 NClECP=     1 NCelD=      1
         NCelK=      1 NCelE2=     1 NClLst=     1 CellRange=     0.0.
 One-electron integrals computed using PRISM.
 NBasis=   261 RedAO= T EigKep=  2.35D-06  NBF=   261
 NBsUse=   261 1.00D-06 EigRej= -1.00D+00 NBFU=   261
 Precomputing XC quadrature grid using
 IXCGrd= 4 IRadAn=           5 IRanWt=          -1 IRanGd=           0 AccXCQ= 0.00D+00.
 Generated NRdTot=       0 NPtTot=           0 NUsed=           0 NTot=          32
 NSgBfM=   273   273   273   273   273 MxSgAt=    15 MxSgA2=    15.
 Leave Link  302 at Wed May  1 14:49:19 2024, MaxMem=  1207959552 cpu:              21.2 elap:              21.2
 (Enter /software/gaussian/g16-c01/sse4/g16/l303.exe)
 DipDrv:  MaxL=1.
 The nuclear repulsion energy is now       737.9883223214 hartrees.
 Leave Link  303 at Wed May  1 14:49:22 2024, MaxMem=  1207959552 cpu:               3.3 elap:               3.3
 (Enter /software/gaussian/g16-c01/sse4/g16/l401.exe)
 ExpMin= 3.50D-02 ExpMax= 4.40D+05 ExpMxC= 1.51D+04 IAcc=3 IRadAn=         5 AccDes= 0.00D+00
 Harris functional with IExCor= 4639 and IRadAn=       5 diagonalized for initial guess.
 HarFok:  IExCor= 4639 AccDes= 0.00D+00 IRadAn=         5 IDoV= 1 UseB2=F ITyADJ=14
 ICtDFT=  3500011 ScaDFX=  1.000000  1.000000  1.000000  1.000000
 FoFCou: FMM=F IPFlag=           0 FMFlag=      100000 FMFlg1=           0
         NFxFlg=           0 DoJE=T BraDBF=F KetDBF=T FulRan=T
         wScrn=  0.000000 ICntrl=       500 IOpCl=  0 I1Cent=   200000004 NGrid=           0
         NMat0=    1 NMatS0=      1 NMatT0=    0 NMatD0=    1 NMtDS0=    0 NMtDT0=    0
 Symmetry not used in FoFCou.
 Harris En= -2970.61638655723    
 JPrj=0 DoOrth=F DoCkMO=F.
 Leave Link  401 at Wed May  1 14:49:52 2024, MaxMem=  1207959552 cpu:              29.8 elap:              29.8
 (Enter /software/gaussian/g16-c01/sse4/g16/l502.exe)
 Two-electron integral symmetry not used.
 Closed shell SCF:
 Using DIIS extrapolation, IDIIS=  1040.
 NGot=  1207959552 LenX=  1207804877 LenY=  1207729907
 Requested convergence on RMS density matrix=1.00D-08 within 128 cycles.
 Requested convergence on MAX density matrix=1.00D-06.
 Requested convergence on             energy=1.00D-06.
 No special actions if energy rises.
 Fock matrices will be formed incrementally for  20 cycles.

 Cycle   1  Pass 1  IDiag  1:
 FoFJK:  IHMeth= 1 ICntrl=       0 DoSepK=T KAlg= 0 I1Cent=           0 FoldK=F
 IRaf=         1 NMat=       1 IRICut=       1 DoRegI=T DoRafI=F ISym2E= 0 IDoP0=0 IntGTp=1.
 FoFCou: FMM=F IPFlag=           0 FMFlag=      100000 FMFlg1=           0
         NFxFlg=           0 DoJE=T BraDBF=F KetDBF=F FulRan=T
         wScrn=  0.000000 ICntrl=       500 IOpCl=  0 I1Cent=           0 NGrid=           0
         NMat0=    1 NMatS0=      1 NMatT0=    0 NMatD0=    1 NMtDS0=    0 NMtDT0=    0
 Symmetry not used in FoFCou.
 E= -3009.68540211811    
 DIIS: error= 3.20D-01 at cycle   1 NSaved=   1.
 NSaved= 1 IEnMin= 1 EnMin= -3009.68540211811     IErMin= 1 ErrMin= 3.20D-01
 ErrMax= 3.20D-01  0.00D+00 EMaxC= 1.00D-01 BMatC= 1.20D+01 BMatP= 1.20D+01
 IDIUse=3 WtCom= 0.00D+00 WtEn= 1.00D+00
 Coeff-Com:  0.100D+01
 Coeff-En:   0.100D+01
 Coeff:      0.100D+01
 Gap=     0.375 Goal=   None    Shift=    0.000
 GapD=    0.375 DampG=1.000 DampE=0.250 DampFc=0.2500 IDamp=-1.
 Damping current iteration by 2.50D-01
 RMSDP=6.61D-02 MaxDP=7.13D+00              OVMax= 2.46D-01

 Cycle   2  Pass 1  IDiag  1:
 RMSU=  5.30D-03    CP:  8.66D-01
 E= -3009.98546222291     Delta-E=       -0.300060104793 Rises=F Damp=T
 DIIS: error= 2.25D-01 at cycle   2 NSaved=   2.
 NSaved= 2 IEnMin= 2 EnMin= -3009.98546222291     IErMin= 2 ErrMin= 2.25D-01
 ErrMax= 2.25D-01  0.00D+00 EMaxC= 1.00D-01 BMatC= 5.46D+00 BMatP= 1.20D+01
 IDIUse=3 WtCom= 0.00D+00 WtEn= 1.00D+00
 Coeff-Com: -0.181D+01 0.281D+01
 Coeff-En:   0.000D+00 0.100D+01
 Coeff:      0.000D+00 0.100D+01
 Gap=     0.278 Goal=   None    Shift=    0.000
 RMSDP=5.01D-02 MaxDP=5.28D+00 DE=-3.00D-01 OVMax= 1.06D-01

 Cycle   3  Pass 1  IDiag  1:
 RMSU=  5.40D-03    CP:  4.56D-01  3.00D+00
 E= -3010.38353621674     Delta-E=       -0.398073993831 Rises=F Damp=F
 DIIS: error= 6.61D-02 at cycle   3 NSaved=   3.
 NSaved= 3 IEnMin= 3 EnMin= -3010.38353621674     IErMin= 3 ErrMin= 6.61D-02
 ErrMax= 6.61D-02  0.00D+00 EMaxC= 1.00D-01 BMatC= 7.52D-01 BMatP= 5.46D+00
 IDIUse=3 WtCom= 3.39D-01 WtEn= 6.61D-01
 Coeff-Com:  0.226D+01-0.294D+01 0.168D+01
 Coeff-En:   0.373D-01 0.000D+00 0.963D+00
 Coeff:      0.791D+00-0.995D+00 0.120D+01
 Gap=     0.288 Goal=   None    Shift=    0.000
 RMSDP=8.80D-03 MaxDP=4.82D-01 DE=-3.98D-01 OVMax= 8.77D-02

 Cycle   4  Pass 1  IDiag  1:
 RMSU=  7.22D-03    CP:  4.90D-01  3.00D+00  1.58D+00
 E= -3010.48263621452     Delta-E=       -0.099099997784 Rises=F Damp=F
 DIIS: error= 3.91D-02 at cycle   4 NSaved=   4.
 NSaved= 4 IEnMin= 4 EnMin= -3010.48263621452     IErMin= 4 ErrMin= 3.91D-02
 ErrMax= 3.91D-02  0.00D+00 EMaxC= 1.00D-01 BMatC= 2.59D-01 BMatP= 7.52D-01
 IDIUse=3 WtCom= 6.09D-01 WtEn= 3.91D-01
 Coeff-Com:  0.437D+00-0.566D+00 0.605D+00 0.524D+00
 Coeff-En:   0.000D+00 0.000D+00 0.241D+00 0.759D+00
 Coeff:      0.266D+00-0.345D+00 0.462D+00 0.616D+00
 Gap=     0.264 Goal=   None    Shift=    0.000
 RMSDP=5.13D-03 MaxDP=3.59D-01 DE=-9.91D-02 OVMax= 7.79D-02

 Cycle   5  Pass 1  IDiag  1:
 RMSU=  2.09D-03    CP:  4.57D-01  3.00D+00  1.67D+00  6.30D-01
 E= -3010.53388868867     Delta-E=       -0.051252474150 Rises=F Damp=F
 DIIS: error= 1.29D-02 at cycle   5 NSaved=   5.
 NSaved= 5 IEnMin= 5 EnMin= -3010.53388868867     IErMin= 5 ErrMin= 1.29D-02
 ErrMax= 1.29D-02  0.00D+00 EMaxC= 1.00D-01 BMatC= 1.72D-02 BMatP= 2.59D-01
 IDIUse=3 WtCom= 8.71D-01 WtEn= 1.29D-01
 Coeff-Com: -0.418D-01 0.614D-01 0.156D+00 0.365D+00 0.459D+00
 Coeff-En:   0.000D+00 0.000D+00 0.000D+00 0.627D-01 0.937D+00
 Coeff:     -0.363D-01 0.535D-01 0.136D+00 0.326D+00 0.521D+00
 Gap=     0.273 Goal=   None    Shift=    0.000
 RMSDP=1.48D-03 MaxDP=8.15D-02 DE=-5.13D-02 OVMax= 5.12D-02

 Cycle   6  Pass 1  IDiag  1:
 RMSU=  7.29D-04    CP:  4.53D-01  3.00D+00  1.66D+00  7.24D-01  5.40D-01
 E= -3010.54322992405     Delta-E=       -0.009341235375 Rises=F Damp=F
 DIIS: error= 3.27D-03 at cycle   6 NSaved=   6.
 NSaved= 6 IEnMin= 6 EnMin= -3010.54322992405     IErMin= 6 ErrMin= 3.27D-03
 ErrMax= 3.27D-03  0.00D+00 EMaxC= 1.00D-01 BMatC= 1.51D-03 BMatP= 1.72D-02
 IDIUse=3 WtCom= 9.67D-01 WtEn= 3.27D-02
 Coeff-Com: -0.770D-01 0.104D+00 0.348D-02 0.129D+00 0.331D+00 0.510D+00
 Coeff-En:   0.000D+00 0.000D+00 0.000D+00 0.000D+00 0.786D-01 0.921D+00
 Coeff:     -0.745D-01 0.100D+00 0.337D-02 0.125D+00 0.323D+00 0.523D+00
 Gap=     0.246 Goal=   None    Shift=    0.000
 RMSDP=4.35D-04 MaxDP=1.95D-02 DE=-9.34D-03 OVMax= 1.16D-02

 Cycle   7  Pass 1  IDiag  1:
 RMSU=  3.57D-04    CP:  4.53D-01  3.00D+00  1.67D+00  7.07D-01  6.30D-01
                    CP:  8.90D-01
 E= -3010.54425760603     Delta-E=       -0.001027681982 Rises=F Damp=F
 DIIS: error= 3.46D-04 at cycle   7 NSaved=   7.
 NSaved= 7 IEnMin= 7 EnMin= -3010.54425760603     IErMin= 7 ErrMin= 3.46D-04
 ErrMax= 3.46D-04  0.00D+00 EMaxC= 1.00D-01 BMatC= 2.26D-05 BMatP= 1.51D-03
 IDIUse=3 WtCom= 9.97D-01 WtEn= 3.46D-03
 Coeff-Com: -0.325D-01 0.433D-01-0.121D-01 0.260D-01 0.821D-01 0.182D+00
 Coeff-Com:  0.711D+00
 Coeff-En:   0.000D+00 0.000D+00 0.000D+00 0.000D+00 0.000D+00 0.000D+00
 Coeff-En:   0.100D+01
 Coeff:     -0.324D-01 0.431D-01-0.120D-01 0.260D-01 0.818D-01 0.181D+00
 Coeff:      0.712D+00
 Gap=     0.248 Goal=   None    Shift=    0.000
 RMSDP=2.10D-04 MaxDP=1.35D-02 DE=-1.03D-03 OVMax= 2.73D-03

 Cycle   8  Pass 1  IDiag  1:
 RMSU=  1.10D-04    CP:  4.52D-01  3.00D+00  1.69D+00  7.13D-01  6.65D-01
                    CP:  9.93D-01  9.00D-01
 E= -3010.54428884192     Delta-E=       -0.000031235891 Rises=F Damp=F
 DIIS: error= 1.61D-04 at cycle   8 NSaved=   8.
 NSaved= 8 IEnMin= 8 EnMin= -3010.54428884192     IErMin= 8 ErrMin= 1.61D-04
 ErrMax= 1.61D-04  0.00D+00 EMaxC= 1.00D-01 BMatC= 3.48D-06 BMatP= 2.26D-05
 IDIUse=3 WtCom= 9.98D-01 WtEn= 1.61D-03
 Coeff-Com:  0.395D-02-0.550D-02-0.395D-02-0.131D-01-0.380D-01-0.584D-01
 Coeff-Com:  0.190D+00 0.925D+00
 Coeff-En:   0.000D+00 0.000D+00 0.000D+00 0.000D+00 0.000D+00 0.000D+00
 Coeff-En:   0.000D+00 0.100D+01
 Coeff:      0.394D-02-0.549D-02-0.394D-02-0.131D-01-0.380D-01-0.583D-01
 Coeff:      0.190D+00 0.925D+00
 Gap=     0.248 Goal=   None    Shift=    0.000
 RMSDP=1.02D-04 MaxDP=5.63D-03 DE=-3.12D-05 OVMax= 2.08D-03

 Cycle   9  Pass 1  IDiag  1:
 RMSU=  2.77D-05    CP:  4.52D-01  3.00D+00  1.69D+00  7.17D-01  6.72D-01
                    CP:  1.05D+00  1.11D+00  1.27D+00
 E= -3010.54429782601     Delta-E=       -0.000008984093 Rises=F Damp=F
 DIIS: error= 5.03D-05 at cycle   9 NSaved=   9.
 NSaved= 9 IEnMin= 9 EnMin= -3010.54429782601     IErMin= 9 ErrMin= 5.03D-05
 ErrMax= 5.03D-05  0.00D+00 EMaxC= 1.00D-01 BMatC= 3.37D-07 BMatP= 3.48D-06
 IDIUse=1 WtCom= 1.00D+00 WtEn= 0.00D+00
 Coeff-Com:  0.526D-02-0.707D-02 0.477D-03-0.692D-02-0.187D-01-0.358D-01
 Coeff-Com: -0.432D-01 0.199D+00 0.907D+00
 Coeff:      0.526D-02-0.707D-02 0.477D-03-0.692D-02-0.187D-01-0.358D-01
 Coeff:     -0.432D-01 0.199D+00 0.907D+00
 Gap=     0.248 Goal=   None    Shift=    0.000
 RMSDP=3.50D-05 MaxDP=2.91D-03 DE=-8.98D-06 OVMax= 9.80D-04

 Cycle  10  Pass 1  IDiag  1:
 RMSU=  1.49D-05    CP:  4.52D-01  3.00D+00  1.69D+00  7.17D-01  6.73D-01
                    CP:  1.06D+00  1.16D+00  1.42D+00  1.25D+00
 E= -3010.54429952050     Delta-E=       -0.000001694490 Rises=F Damp=F
 DIIS: error= 1.69D-05 at cycle  10 NSaved=  10.
 NSaved=10 IEnMin=10 EnMin= -3010.54429952050     IErMin=10 ErrMin= 1.69D-05
 ErrMax= 1.69D-05  0.00D+00 EMaxC= 1.00D-01 BMatC= 9.64D-08 BMatP= 3.37D-07
 IDIUse=1 WtCom= 1.00D+00 WtEn= 0.00D+00
 Coeff-Com: -0.122D-03 0.197D-03 0.521D-03 0.957D-03 0.571D-02 0.913D-02
 Coeff-Com: -0.448D-01-0.160D+00 0.222D+00 0.967D+00
 Coeff:     -0.122D-03 0.197D-03 0.521D-03 0.957D-03 0.571D-02 0.913D-02
 Coeff:     -0.448D-01-0.160D+00 0.222D+00 0.967D+00
 Gap=     0.248 Goal=   None    Shift=    0.000
 RMSDP=2.08D-05 MaxDP=1.20D-03 DE=-1.69D-06 OVMax= 5.69D-04

 Cycle  11  Pass 1  IDiag  1:
 RMSU=  7.11D-06    CP:  4.53D-01  3.00D+00  1.69D+00  7.17D-01  6.72D-01
                    CP:  1.06D+00  1.18D+00  1.42D+00  1.43D+00  1.45D+00
 E= -3010.54429997925     Delta-E=       -0.000000458749 Rises=F Damp=F
 DIIS: error= 5.38D-06 at cycle  11 NSaved=  11.
 NSaved=11 IEnMin=11 EnMin= -3010.54429997925     IErMin=11 ErrMin= 5.38D-06
 ErrMax= 5.38D-06  0.00D+00 EMaxC= 1.00D-01 BMatC= 1.43D-08 BMatP= 9.64D-08
 IDIUse=1 WtCom= 1.00D+00 WtEn= 0.00D+00
 Coeff-Com: -0.475D-03 0.645D-03 0.122D-03 0.953D-03 0.274D-02 0.521D-02
 Coeff-Com: -0.191D-02-0.448D-01-0.103D+00 0.145D+00 0.995D+00
 Coeff:     -0.475D-03 0.645D-03 0.122D-03 0.953D-03 0.274D-02 0.521D-02
 Coeff:     -0.191D-02-0.448D-01-0.103D+00 0.145D+00 0.995D+00
 Gap=     0.248 Goal=   None    Shift=    0.000
 RMSDP=1.34D-05 MaxDP=1.01D-03 DE=-4.59D-07 OVMax= 2.85D-04

 Cycle  12  Pass 1  IDiag  1:
 RMSU=  2.68D-06    CP:  4.53D-01  3.00D+00  1.69D+00  7.17D-01  6.69D-01
                    CP:  1.06D+00  1.19D+00  1.42D+00  1.47D+00  1.92D+00
                    CP:  1.40D+00
 E= -3010.54430007572     Delta-E=       -0.000000096466 Rises=F Damp=F
 DIIS: error= 3.53D-06 at cycle  12 NSaved=  12.
 NSaved=12 IEnMin=12 EnMin= -3010.54430007572     IErMin=12 ErrMin= 3.53D-06
 ErrMax= 3.53D-06  0.00D+00 EMaxC= 1.00D-01 BMatC= 4.98D-09 BMatP= 1.43D-08
 IDIUse=1 WtCom= 1.00D+00 WtEn= 0.00D+00
 Coeff-Com: -0.156D-03 0.204D-03-0.611D-04 0.205D-03-0.593D-03-0.710D-03
 Coeff-Com:  0.135D-01 0.307D-01-0.123D+00-0.226D+00 0.468D+00 0.838D+00
 Coeff:     -0.156D-03 0.204D-03-0.611D-04 0.205D-03-0.593D-03-0.710D-03
 Coeff:      0.135D-01 0.307D-01-0.123D+00-0.226D+00 0.468D+00 0.838D+00
 Gap=     0.248 Goal=   None    Shift=    0.000
 RMSDP=6.46D-06 MaxDP=3.25D-04 DE=-9.65D-08 OVMax= 1.94D-04

 Cycle  13  Pass 1  IDiag  1:
 RMSU=  1.24D-06    CP:  4.53D-01  3.00D+00  1.69D+00  7.17D-01  6.68D-01
                    CP:  1.05D+00  1.19D+00  1.42D+00  1.47D+00  2.12D+00
                    CP:  1.67D+00  1.24D+00
 E= -3010.54430010459     Delta-E=       -0.000000028874 Rises=F Damp=F
 DIIS: error= 1.13D-06 at cycle  13 NSaved=  13.
 NSaved=13 IEnMin=13 EnMin= -3010.54430010459     IErMin=13 ErrMin= 1.13D-06
 ErrMax= 1.13D-06  0.00D+00 EMaxC= 1.00D-01 BMatC= 5.61D-10 BMatP= 4.98D-09
 IDIUse=1 WtCom= 1.00D+00 WtEn= 0.00D+00
 Coeff-Com:  0.216D-04-0.302D-04-0.340D-04-0.108D-03-0.363D-03-0.779D-03
 Coeff-Com:  0.335D-03 0.536D-02 0.121D-01-0.126D-01-0.169D+00 0.212D-01
 Coeff-Com:  0.114D+01
 Coeff:      0.216D-04-0.302D-04-0.340D-04-0.108D-03-0.363D-03-0.779D-03
 Coeff:      0.335D-03 0.536D-02 0.121D-01-0.126D-01-0.169D+00 0.212D-01
 Coeff:      0.114D+01
 Gap=     0.248 Goal=   None    Shift=    0.000
 RMSDP=2.10D-06 MaxDP=1.48D-04 DE=-2.89D-08 OVMax= 8.80D-05

 Cycle  14  Pass 1  IDiag  1:
 RMSU=  6.03D-07    CP:  4.53D-01  3.00D+00  1.69D+00  7.17D-01  6.68D-01
                    CP:  1.05D+00  1.19D+00  1.43D+00  1.48D+00  2.20D+00
                    CP:  1.77D+00  1.55D+00  1.41D+00
 E= -3010.54430010966     Delta-E=       -0.000000005067 Rises=F Damp=F
 DIIS: error= 6.37D-07 at cycle  14 NSaved=  14.
 NSaved=14 IEnMin=14 EnMin= -3010.54430010966     IErMin=14 ErrMin= 6.37D-07
 ErrMax= 6.37D-07  0.00D+00 EMaxC= 1.00D-01 BMatC= 1.54D-10 BMatP= 5.61D-10
 IDIUse=1 WtCom= 1.00D+00 WtEn= 0.00D+00
 Coeff-Com:  0.277D-04-0.367D-04-0.904D-05-0.845D-04-0.188D-04-0.134D-03
 Coeff-Com: -0.236D-02-0.397D-02 0.284D-01 0.399D-01-0.166D+00-0.157D+00
 Coeff-Com:  0.455D+00 0.805D+00
 Coeff:      0.277D-04-0.367D-04-0.904D-05-0.845D-04-0.188D-04-0.134D-03
 Coeff:     -0.236D-02-0.397D-02 0.284D-01 0.399D-01-0.166D+00-0.157D+00
 Coeff:      0.455D+00 0.805D+00
 Gap=     0.248 Goal=   None    Shift=    0.000
 RMSDP=9.67D-07 MaxDP=8.48D-05 DE=-5.07D-09 OVMax= 3.35D-05

 Cycle  15  Pass 1  IDiag  1:
 RMSU=  1.76D-07    CP:  4.53D-01  3.00D+00  1.69D+00  7.17D-01  6.67D-01
                    CP:  1.05D+00  1.19D+00  1.43D+00  1.48D+00  2.24D+00
                    CP:  1.79D+00  1.68D+00  1.66D+00  1.16D+00
 E= -3010.54430011044     Delta-E=       -0.000000000786 Rises=F Damp=F
 DIIS: error= 3.03D-07 at cycle  15 NSaved=  15.
 NSaved=15 IEnMin=15 EnMin= -3010.54430011044     IErMin=15 ErrMin= 3.03D-07
 ErrMax= 3.03D-07  0.00D+00 EMaxC= 1.00D-01 BMatC= 1.87D-11 BMatP= 1.54D-10
 IDIUse=1 WtCom= 1.00D+00 WtEn= 0.00D+00
 Coeff-Com:  0.724D-05-0.944D-05 0.429D-05-0.480D-05 0.434D-04 0.104D-03
 Coeff-Com: -0.437D-03-0.126D-02 0.347D-02 0.976D-02 0.272D-02-0.340D-01
 Coeff-Com: -0.135D+00 0.168D+00 0.987D+00
 Coeff:      0.724D-05-0.944D-05 0.429D-05-0.480D-05 0.434D-04 0.104D-03
 Coeff:     -0.437D-03-0.126D-02 0.347D-02 0.976D-02 0.272D-02-0.340D-01
 Coeff:     -0.135D+00 0.168D+00 0.987D+00
 Gap=     0.248 Goal=   None    Shift=    0.000
 RMSDP=3.18D-07 MaxDP=1.97D-05 DE=-7.86D-10 OVMax= 1.15D-05

 Cycle  16  Pass 1  IDiag  1:
 RMSU=  8.74D-08    CP:  4.53D-01  3.00D+00  1.69D+00  7.17D-01  6.67D-01
                    CP:  1.05D+00  1.19D+00  1.43D+00  1.48D+00  2.24D+00
                    CP:  1.79D+00  1.72D+00  1.77D+00  1.26D+00  1.44D+00
 E= -3010.54430011056     Delta-E=       -0.000000000116 Rises=F Damp=F
 DIIS: error= 6.23D-08 at cycle  16 NSaved=  16.
 NSaved=16 IEnMin=16 EnMin= -3010.54430011056     IErMin=16 ErrMin= 6.23D-08
 ErrMax= 6.23D-08  0.00D+00 EMaxC= 1.00D-01 BMatC= 3.12D-12 BMatP= 1.87D-11
 IDIUse=1 WtCom= 1.00D+00 WtEn= 0.00D+00
 Coeff-Com:  0.330D-05-0.442D-05 0.348D-05 0.509D-05 0.779D-05 0.389D-04
 Coeff-Com:  0.142D-03 0.917D-04-0.274D-02-0.266D-02 0.197D-01 0.687D-02
 Coeff-Com: -0.866D-01-0.476D-01 0.238D+00 0.875D+00
 Coeff:      0.330D-05-0.442D-05 0.348D-05 0.509D-05 0.779D-05 0.389D-04
 Coeff:      0.142D-03 0.917D-04-0.274D-02-0.266D-02 0.197D-01 0.687D-02
 Coeff:     -0.866D-01-0.476D-01 0.238D+00 0.875D+00
 Gap=     0.248 Goal=   None    Shift=    0.000
 RMSDP=1.21D-07 MaxDP=1.04D-05 DE=-1.16D-10 OVMax= 5.09D-06

 Cycle  17  Pass 1  IDiag  1:
 RMSU=  2.88D-08    CP:  4.53D-01  3.00D+00  1.69D+00  7.17D-01  6.67D-01
                    CP:  1.05D+00  1.19D+00  1.43D+00  1.48D+00  2.25D+00
                    CP:  1.79D+00  1.73D+00  1.78D+00  1.32D+00  1.62D+00
                    CP:  9.86D-01
 E= -3010.54430011057     Delta-E=       -0.000000000007 Rises=F Damp=F
 DIIS: error= 5.34D-08 at cycle  17 NSaved=  17.
 NSaved=17 IEnMin=17 EnMin= -3010.54430011057     IErMin=17 ErrMin= 5.34D-08
 ErrMax= 5.34D-08  0.00D+00 EMaxC= 1.00D-01 BMatC= 7.27D-13 BMatP= 3.12D-12
 IDIUse=1 WtCom= 1.00D+00 WtEn= 0.00D+00
 Coeff-Com: -0.583D-06 0.738D-06 0.154D-06 0.283D-05-0.118D-05 0.241D-05
 Coeff-Com:  0.132D-03 0.265D-03-0.138D-02-0.229D-02 0.601D-02 0.731D-02
 Coeff-Com: -0.306D-03-0.456D-01-0.119D+00 0.295D+00 0.860D+00
 Coeff:     -0.583D-06 0.738D-06 0.154D-06 0.283D-05-0.118D-05 0.241D-05
 Coeff:      0.132D-03 0.265D-03-0.138D-02-0.229D-02 0.601D-02 0.731D-02
 Coeff:     -0.306D-03-0.456D-01-0.119D+00 0.295D+00 0.860D+00
 Gap=     0.248 Goal=   None    Shift=    0.000
 RMSDP=3.10D-08 MaxDP=1.50D-06 DE=-7.28D-12 OVMax= 1.44D-06

 Cycle  18  Pass 1  IDiag  1:
 RMSU=  1.31D-08    CP:  4.53D-01  3.00D+00  1.69D+00  7.17D-01  6.67D-01
                    CP:  1.05D+00  1.19D+00  1.43D+00  1.48D+00  2.25D+00
                    CP:  1.79D+00  1.74D+00  1.79D+00  1.33D+00  1.67D+00
                    CP:  1.11D+00  1.37D+00
 E= -3010.54430011061     Delta-E=       -0.000000000042 Rises=F Damp=F
 DIIS: error= 1.43D-08 at cycle  18 NSaved=  18.
 NSaved=18 IEnMin=18 EnMin= -3010.54430011061     IErMin=18 ErrMin= 1.43D-08
 ErrMax= 1.43D-08  0.00D+00 EMaxC= 1.00D-01 BMatC= 1.04D-13 BMatP= 7.27D-13
 IDIUse=1 WtCom= 1.00D+00 WtEn= 0.00D+00
 Coeff-Com: -0.228D-06 0.304D-06-0.510D-06-0.112D-05-0.198D-05-0.866D-05
 Coeff-Com: -0.248D-04-0.450D-06 0.417D-03 0.278D-03-0.358D-02-0.817D-03
 Coeff-Com:  0.200D-01 0.276D-02-0.696D-01-0.131D+00 0.136D+00 0.105D+01
 Coeff:     -0.228D-06 0.304D-06-0.510D-06-0.112D-05-0.198D-05-0.866D-05
 Coeff:     -0.248D-04-0.450D-06 0.417D-03 0.278D-03-0.358D-02-0.817D-03
 Coeff:      0.200D-01 0.276D-02-0.696D-01-0.131D+00 0.136D+00 0.105D+01
 Gap=     0.248 Goal=   None    Shift=    0.000
 RMSDP=2.22D-08 MaxDP=1.28D-06 DE=-4.18D-11 OVMax= 8.58D-07

 Cycle  19  Pass 1  IDiag  1:
 RMSU=  5.67D-09    CP:  4.53D-01  3.00D+00  1.69D+00  7.17D-01  6.67D-01
                    CP:  1.05D+00  1.19D+00  1.43D+00  1.48D+00  2.25D+00
                    CP:  1.79D+00  1.74D+00  1.79D+00  1.33D+00  1.69D+00
                    CP:  1.12D+00  1.70D+00  1.45D+00
 E= -3010.54430011062     Delta-E=       -0.000000000011 Rises=F Damp=F
 DIIS: error= 6.00D-09 at cycle  19 NSaved=  19.
 NSaved=19 IEnMin=19 EnMin= -3010.54430011062     IErMin=19 ErrMin= 6.00D-09
 ErrMax= 6.00D-09  0.00D+00 EMaxC= 1.00D-01 BMatC= 1.42D-14 BMatP= 1.04D-13
 IDIUse=1 WtCom= 1.00D+00 WtEn= 0.00D+00
 Coeff-Com:  0.625D-07-0.777D-07 0.420D-07-0.176D-06 0.352D-06-0.299D-06
 Coeff-Com: -0.190D-04-0.359D-04 0.175D-03 0.279D-03-0.703D-03-0.439D-03
 Coeff-Com: -0.124D-02 0.352D-02 0.202D-01-0.230D-01-0.112D+00-0.127D+00
 Coeff-Com:  0.124D+01
 Coeff:      0.625D-07-0.777D-07 0.420D-07-0.176D-06 0.352D-06-0.299D-06
 Coeff:     -0.190D-04-0.359D-04 0.175D-03 0.279D-03-0.703D-03-0.439D-03
 Coeff:     -0.124D-02 0.352D-02 0.202D-01-0.230D-01-0.112D+00-0.127D+00
 Coeff:      0.124D+01
 Gap=     0.248 Goal=   None    Shift=    0.000
 RMSDP=9.10D-09 MaxDP=5.37D-07 DE=-1.09D-11 OVMax= 4.49D-07

 SCF Done:  E(RwB97XD) =  -3010.54430011     A.U. after   19 cycles
            NFock= 19  Conv=0.91D-08     -V/T= 2.0016
 KE= 3.005832634082D+03 PE=-8.630456490729D+03 EE= 1.876091234215D+03
 Leave Link  502 at Wed May  1 15:07:48 2024, MaxMem=  1207959552 cpu:            1076.2 elap:            1076.5
 (Enter /software/gaussian/g16-c01/sse4/g16/l601.exe)
 Copying SCF densities to generalized density rwf, IOpCl= 0 IROHF=0.

 **********************************************************************

            Population analysis using the SCF Density.

 **********************************************************************

 Alpha  occ. eigenvalues -- -483.29502 -62.84505 -56.64218 -56.63619 -56.63616
 Alpha  occ. eigenvalues --  -19.45476 -19.45370 -14.84926 -10.57405 -10.56681
 Alpha  occ. eigenvalues --  -10.56513 -10.56415 -10.56073 -10.53188  -9.00295
 Alpha  occ. eigenvalues --   -6.83026  -6.81069  -6.81052  -2.92917  -2.92399
 Alpha  occ. eigenvalues --   -2.92384  -2.90819  -2.90819  -1.49209  -1.32193
 Alpha  occ. eigenvalues --   -1.21967  -1.13127  -1.11332  -1.02954  -1.00575
 Alpha  occ. eigenvalues --   -0.94751  -0.90409  -0.84931  -0.80364  -0.80082
 Alpha  occ. eigenvalues --   -0.79507  -0.77663  -0.75622  -0.75339  -0.71536
 Alpha  occ. eigenvalues --   -0.68760  -0.67077  -0.62982  -0.59221  -0.56726
 Alpha  occ. eigenvalues --   -0.55755  -0.55150  -0.54267  -0.53598
 Alpha virt. eigenvalues --   -0.28833  -0.20719  -0.14906  -0.12564  -0.11523
 Alpha virt. eigenvalues --   -0.08103  -0.06506  -0.05380  -0.04712  -0.03327
 Alpha virt. eigenvalues --   -0.01708  -0.01358  -0.00915  -0.00109   0.00532
 Alpha virt. eigenvalues --    0.01791   0.02631   0.03323   0.03697   0.04182
 Alpha virt. eigenvalues --    0.04901   0.05518   0.05813   0.06202   0.06738
 Alpha virt. eigenvalues --    0.07604   0.07845   0.08027   0.08799   0.09560
 Alpha virt. eigenvalues --    0.10550   0.11339   0.11427   0.12658   0.12906
 Alpha virt. eigenvalues --    0.13562   0.13987   0.14582   0.15737   0.16253
 Alpha virt. eigenvalues --    0.16681   0.17281   0.18540   0.18873   0.20481
 Alpha virt. eigenvalues --    0.21060   0.21676   0.22121   0.23167   0.25105
 Alpha virt. eigenvalues --    0.26060   0.28320   0.28545   0.31470   0.32535
 Alpha virt. eigenvalues --    0.34025   0.34116   0.35767   0.35889   0.37159
 Alpha virt. eigenvalues --    0.37525   0.37925   0.39992   0.41777   0.42494
 Alpha virt. eigenvalues --    0.43643   0.43745   0.44903   0.46679   0.47603
 Alpha virt. eigenvalues --    0.48299   0.51101   0.51634   0.52772   0.53701
 Alpha virt. eigenvalues --    0.55387   0.55913   0.57475   0.58188   0.59186
 Alpha virt. eigenvalues --    0.61537   0.63375   0.65570   0.67661   0.69578
 Alpha virt. eigenvalues --    0.70555   0.71548   0.72407   0.73907   0.74145
 Alpha virt. eigenvalues --    0.75505   0.79381   0.80754   0.84466   0.85787
 Alpha virt. eigenvalues --    0.87082   0.88275   0.92429   0.93686   0.98852
 Alpha virt. eigenvalues --    1.00165   1.01228   1.05262   1.05778   1.07131
 Alpha virt. eigenvalues --    1.09892   1.11038   1.12269   1.12878   1.14866
 Alpha virt. eigenvalues --    1.22453   1.24986   1.27186   1.33264   1.36922
 Alpha virt. eigenvalues --    1.37263   1.38968   1.45908   1.54845   1.57517
 Alpha virt. eigenvalues --    1.58893   1.59391   1.60983   1.63027   1.66891
 Alpha virt. eigenvalues --    1.69580   1.70389   1.73838   1.75702   1.79396
 Alpha virt. eigenvalues --    1.81687   1.85498   1.87816   1.95087   1.97199
 Alpha virt. eigenvalues --    1.98849   2.03355   2.04339   2.07917   2.08893
 Alpha virt. eigenvalues --    2.10798   2.15175   2.20509   2.22861   2.28591
 Alpha virt. eigenvalues --    2.37976   2.41790   2.43185   2.44486   2.52784
 Alpha virt. eigenvalues --    2.57057   2.63327   2.66469   2.68644   2.71928
 Alpha virt. eigenvalues --    2.74039   2.76949   2.77664   2.81393   2.82377
 Alpha virt. eigenvalues --    2.94238   2.97091   3.01069   3.06625   3.09446
 Alpha virt. eigenvalues --    3.13307   3.14784   3.19035   3.23837   3.24910
 Alpha virt. eigenvalues --    3.27741   3.39506   3.47519   3.51575   3.55049
 Alpha virt. eigenvalues --    3.57388   3.70374   3.74520   3.82549   3.87681
 Alpha virt. eigenvalues --    4.10807   4.11022   4.18368   4.23649   4.44415
 Alpha virt. eigenvalues --    4.44742   4.57978   4.60293   4.93536   4.96275
 Alpha virt. eigenvalues --    5.04864   5.09079   5.63225   6.16155   6.66487
 Alpha virt. eigenvalues --    7.49481   7.51061   7.60759  23.21727  23.61708
 Alpha virt. eigenvalues --   23.70928  23.79647  23.96190  24.01816  35.33031
 Alpha virt. eigenvalues --   47.92949  49.85965  49.94773 289.82252 289.83919
 Alpha virt. eigenvalues --  289.963421020.93333
          Condensed to atoms (all electrons):
               1          2          3          4          5          6
     1  C    9.574735  -3.146285   0.537939  -1.995189  -0.631672   0.302089
     2  C   -3.146285  14.224654  -2.336388  -1.850661   0.733145  -0.017014
     3  C    0.537939  -2.336388  14.141582  -4.124091  -1.597646   0.020133
     4  C   -1.995189  -1.850661  -4.124091  15.546422   1.748556   0.014710
     5  C   -0.631672   0.733145  -1.597646   1.748556   7.683805   0.030893
     6  H    0.302089  -0.017014   0.020133   0.014710   0.030893   0.381929
     7  H    0.087295   0.196794   0.111893  -0.043856  -0.026620  -0.002578
     8  H    0.001644   0.000233   0.051810   0.274705  -0.015329  -0.000001
     9  H    0.016947  -0.005817   0.000922   0.004894   0.305578  -0.002574
    10  N   -0.217351   0.421141  -0.977804   0.358371   0.022700  -0.000694
    11  O   -0.002072  -0.053273  -0.270681   0.031854  -0.051214  -0.000022
    12  O    0.371344  -0.092224  -0.277827  -0.097455  -0.048051   0.000025
    13  C    1.652644  -2.612487   1.373594  -4.122973  -2.195003  -0.013987
    14  H   -0.006201  -0.019559   0.018923  -0.126297  -0.030984  -0.000077
    15  Br   0.049534  -0.019612   0.106206   0.049394   0.108156  -0.000397
               7          8          9         10         11         12
     1  C    0.087295   0.001644   0.016947  -0.217351  -0.002072   0.371344
     2  C    0.196794   0.000233  -0.005817   0.421141  -0.053273  -0.092224
     3  C    0.111893   0.051810   0.000922  -0.977804  -0.270681  -0.277827
     4  C   -0.043856   0.274705   0.004894   0.358371   0.031854  -0.097455
     5  C   -0.026620  -0.015329   0.305578   0.022700  -0.051214  -0.048051
     6  H   -0.002578  -0.000001  -0.002574  -0.000694  -0.000022   0.000025
     7  H    0.338161  -0.000001  -0.000005  -0.031041  -0.001846   0.025980
     8  H   -0.000001   0.267510   0.000119  -0.020438   0.019660  -0.000588
     9  H   -0.000005   0.000119   0.334432   0.000439   0.000008   0.000005
    10  N   -0.031041  -0.020438   0.000439   7.363303   0.228576   0.108796
    11  O   -0.001846   0.019660   0.000008   0.228576   7.741215   0.000047
    12  O    0.025980  -0.000588   0.000005   0.108796   0.000047   7.984741
    13  C    0.020347   0.014310   0.004882  -0.151198   0.271573   0.055894
    14  H   -0.000015  -0.003292  -0.005838  -0.000257  -0.000334  -0.000060
    15  Br  -0.000144   0.001628  -0.001946  -0.000287   0.000657   0.001992
              13         14         15
     1  C    1.652644  -0.006201   0.049534
     2  C   -2.612487  -0.019559  -0.019612
     3  C    1.373594   0.018923   0.106206
     4  C   -4.122973  -0.126297   0.049394
     5  C   -2.195003  -0.030984   0.108156
     6  H   -0.013987  -0.000077  -0.000397
     7  H    0.020347  -0.000015  -0.000144
     8  H    0.014310  -0.003292   0.001628
     9  H    0.004882  -0.005838  -0.001946
    10  N   -0.151198  -0.000257  -0.000287
    11  O    0.271573  -0.000334   0.000657
    12  O    0.055894  -0.000060   0.001992
    13  C   11.848271   0.460944  -0.110295
    14  H    0.460944   0.314962  -0.032909
    15  Br  -0.110295  -0.032909  34.599352
 Mulliken charges:
               1
     1  C   -0.595401
     2  C    0.577353
     3  C   -0.778565
     4  C    0.331617
     5  C   -0.036314
     6  H    0.287566
     7  H    0.325635
     8  H    0.408030
     9  H    0.347953
    10  N   -0.104256
    11  O    0.085853
    12  O   -0.032619
    13  C   -0.496516
    14  H    0.430993
    15  Br   0.248672
 Sum of Mulliken charges =   1.00000
 Mulliken charges with hydrogens summed into heavy atoms:
               1
     1  C   -0.307835
     2  C    0.902988
     3  C   -0.778565
     4  C    0.739647
     5  C    0.311639
    10  N   -0.104256
    11  O    0.085853
    12  O   -0.032619
    13  C   -0.065523
    15  Br   0.248672
 Electronic spatial extent (au):  <R**2>=           2797.2339
 Charge=              1.0000 electrons
 Dipole moment (field-independent basis, Debye):
    X=             -1.1770    Y=             -3.6734    Z=             -0.4332  Tot=              3.8816
 Quadrupole moment (field-independent basis, Debye-Ang):
   XX=            -71.8045   YY=            -50.7680   ZZ=            -61.7494
   XY=             -2.1303   XZ=              1.4599   YZ=              3.0777
 Traceless Quadrupole moment (field-independent basis, Debye-Ang):
   XX=            -10.3639   YY=             10.6726   ZZ=             -0.3088
   XY=             -2.1303   XZ=              1.4599   YZ=              3.0777
 Octapole moment (field-independent basis, Debye-Ang**2):
  XXX=           -302.7431  YYY=             69.2542  ZZZ=             74.6779  XYY=            -78.4239
  XXY=             13.5803  XXZ=             31.8279  XZZ=            -79.1175  YZZ=             11.2003
  YYZ=             21.1611  XYZ=             -4.0703
 Hexadecapole moment (field-independent basis, Debye-Ang**3):
 XXXX=          -2291.5257 YYYY=           -662.3727 ZZZZ=           -340.6557 XXXY=           -125.5317
 XXXZ=            -20.2521 YYYX=            -70.3497 YYYZ=           -142.8193 ZZZX=            -16.2653
 ZZZY=           -127.1606 XXYY=           -457.6564 XXZZ=           -369.7613 YYZZ=           -154.0905
 XXYZ=            -51.9876 YYXZ=              0.6337 ZZXY=             -8.7935
 N-N= 7.379883223214D+02 E-N=-8.630456489867D+03  KE= 3.005832634082D+03
 No NMR shielding tensors so no spin-rotation constants.
 Leave Link  601 at Wed May  1 15:07:55 2024, MaxMem=  1207959552 cpu:               7.1 elap:               7.1
 (Enter /software/gaussian/g16-c01/sse4/g16/l9999.exe)
 Unable to Open any file for archive entry.
 1\1\GINC-BHX0013\SP\RwB97XD\6-311+G(d)\C6H5Br1N1O2(1+)\BWEIGHT\01-May-
 2024\0\\#P wB97XD/6-311+G* NoSymm #P Field=Y+107\\TitleMe\\1,1\C,0,0.0
 295,1.3397,0.0682\C,0,1.4348,1.2867,0.0064\C,0,2.1118,0.0511,-0.0054\C
 ,0,1.4451,-1.1372,0.0312\C,0,-0.6879,0.1682,0.11\H,0,-0.4713,2.2984,0.
 0781\H,0,2.0273,2.1965,-0.0322\H,0,1.9897,-2.0764,0.0232\H,0,-1.7716,0
 .1804,0.1582\N,0,3.5864,0.051,-0.0675\O,0,4.1471,-1.0597,-0.0881\O,0,4
 .145,1.1639,-0.0901\C,0,-0.0236,-1.1458,0.0835\H,0,-0.4367,-1.8725,0.7
 889\Br,0,-0.5359,-1.8697,-1.7408\\Version=ES64L-G16RevC.01\HF=-3010.54
 43001\RMSD=9.100e-09\Dipole=-2.3695936,-0.2971587,0.9757598\Quadrupole
 =-7.7052701,7.934825,-0.2295549,-1.5838188,1.0854059,2.2881606\PG=C01 
 [X(C6H5Br1N1O2)]\\@
 The archive entry for this job was punched.


0EVERYBODY IS IGNORANT, ONLY ON DIFFERENT SUBJECTS.
0          WILL ROGERS
 Job cpu time:       0 days  0 hours 19 minutes  2.8 seconds.
 Elapsed time:       0 days  0 hours 19 minutes  3.1 seconds.
 File lengths (MBytes):  RWF=     40 Int=      0 D2E=      0 Chk=     32 Scr=      1
 Normal termination of Gaussian 16 at Wed May  1 15:07:56 2024.
