 Entering Gaussian System, Link 0=g16
 Initial command:
 /software/gaussian/g16-c01/sse4/g16/l1.exe "/local_scratch/24665255/Gau-12910.inp" -scrdir="/local_scratch/24665255/"
 Entering Link 1 = /software/gaussian/g16-c01/sse4/g16/l1.exe PID=     13077.
  
 Copyright (c) 1988-2019, Gaussian, Inc.  All Rights Reserved.
  
 This is part of the Gaussian(R) 16 program.  It is based on
 the Gaussian(R) 09 system (copyright 2009, Gaussian, Inc.),
 the Gaussian(R) 03 system (copyright 2003, Gaussian, Inc.),
 the Gaussian(R) 98 system (copyright 1998, Gaussian, Inc.),
 the Gaussian(R) 94 system (copyright 1995, Gaussian, Inc.),
 the Gaussian 92(TM) system (copyright 1992, Gaussian, Inc.),
 the Gaussian 90(TM) system (copyright 1990, Gaussian, Inc.),
 the Gaussian 88(TM) system (copyright 1988, Gaussian, Inc.),
 the Gaussian 86(TM) system (copyright 1986, Carnegie Mellon
 University), and the Gaussian 82(TM) system (copyright 1983,
 Carnegie Mellon University). Gaussian is a federally registered
 trademark of Gaussian, Inc.
  
 This software contains proprietary and confidential information,
 including trade secrets, belonging to Gaussian, Inc.
  
 This software is provided under written license and may be
 used, copied, transmitted, or stored only in accord with that
 written license.
  
 The following legend is applicable only to US Government
 contracts under FAR:
  
                    RESTRICTED RIGHTS LEGEND
  
 Use, reproduction and disclosure by the US Government is
 subject to restrictions as set forth in subparagraphs (a)
 and (c) of the Commercial Computer Software - Restricted
 Rights clause in FAR 52.227-19.
  
 Gaussian, Inc.
 340 Quinnipiac St., Bldg. 40, Wallingford CT 06492
  
  
 ---------------------------------------------------------------
 Warning -- This program may not be used in any manner that
 competes with the business of Gaussian, Inc. or will provide
 assistance to any competitor of Gaussian, Inc.  The licensee
 of this program is prohibited from giving any competitor of
 Gaussian, Inc. access to this program.  By using this program,
 the user acknowledges that Gaussian, Inc. is engaged in the
 business of creating and licensing software in the field of
 computational chemistry and represents and warrants to the
 licensee that it is not a competitor of Gaussian, Inc. and that
 it will not use this program in any manner prohibited above.
 ---------------------------------------------------------------
  

 Cite this work as:
 Gaussian 16, Revision C.01,
 M. J. Frisch, G. W. Trucks, H. B. Schlegel, G. E. Scuseria, 
 M. A. Robb, J. R. Cheeseman, G. Scalmani, V. Barone, 
 G. A. Petersson, H. Nakatsuji, X. Li, M. Caricato, A. V. Marenich, 
 J. Bloino, B. G. Janesko, R. Gomperts, B. Mennucci, H. P. Hratchian, 
 J. V. Ortiz, A. F. Izmaylov, J. L. Sonnenberg, D. Williams-Young, 
 F. Ding, F. Lipparini, F. Egidi, J. Goings, B. Peng, A. Petrone, 
 T. Henderson, D. Ranasinghe, V. G. Zakrzewski, J. Gao, N. Rega, 
 G. Zheng, W. Liang, M. Hada, M. Ehara, K. Toyota, R. Fukuda, 
 J. Hasegawa, M. Ishida, T. Nakajima, Y. Honda, O. Kitao, H. Nakai, 
 T. Vreven, K. Throssell, J. A. Montgomery, Jr., J. E. Peralta, 
 F. Ogliaro, M. J. Bearpark, J. J. Heyd, E. N. Brothers, K. N. Kudin, 
 V. N. Staroverov, T. A. Keith, R. Kobayashi, J. Normand, 
 K. Raghavachari, A. P. Rendell, J. C. Burant, S. S. Iyengar, 
 J. Tomasi, M. Cossi, J. M. Millam, M. Klene, C. Adamo, R. Cammi, 
 J. W. Ochterski, R. L. Martin, K. Morokuma, O. Farkas, 
 J. B. Foresman, and D. J. Fox, Gaussian, Inc., Wallingford CT, 2019.
 
 ******************************************
 Gaussian 16:  ES64L-G16RevC.01  3-Jul-2019
                 2-May-2024 
 ******************************************
 %chk=geometry.chk
 %mem=1GB
 %nprocshared=12
 Will use up to   12 processors via shared memory.
 ---------------------------------------
 #P wB97XD/6-311+G* NoSymm #P Field=X-77
 ---------------------------------------
 1/38=1,172=1/1;
 2/12=2,15=1,17=6,18=5,40=1/2;
 3/5=4,6=6,7=11,11=2,14=1,15=-77,25=1,30=1,74=-58/1,2,3;
 4//1;
 5/5=2,38=5/2;
 6/7=2,8=2,9=2,10=2,28=1/1;
 99/5=1,9=1/99;
 Leave Link    1 at Thu May  2 13:57:32 2024, MaxMem=   134217728 cpu:               2.9 elap:               3.0
 (Enter /software/gaussian/g16-c01/sse4/g16/l101.exe)
 -------
 TitleMe
 -------
 Symbolic Z-matrix:
 Charge =  1 Multiplicity = 1
 C                     0.5193    1.233    -0.0319 
 C                     1.9445    1.2692   -0.0367 
 C                     2.6204    0.0928   -0.025 
 C                    -0.196     0.0301    0.001 
 H                    -0.0207    2.1742   -0.0434 
 H                     2.4828    2.2089   -0.0361 
 H                    -1.2777    0.0399    0.0117 
 N                     4.0921    0.0959    0.0366 
 O                     4.6393   -1.0217    0.1446 
 O                     4.6649    1.1984   -0.0233 
 C                     0.4943   -1.1671    0.021 
 H                    -0.0325   -2.1149    0.0545 
 C                     1.9629   -1.2165   -0.0211 
 H                     2.4436   -1.9631    0.6151 
 Br                    2.173    -1.9491   -1.9062 
 
 ITRead=  0  0  0  0  0  0  0  0  0  0  0  0  0  0  0
 MicOpt= -1 -1 -1 -1 -1 -1 -1 -1 -1 -1 -1 -1 -1 -1 -1
 NAtoms=     15 NQM=       15 NQMF=       0 NMMI=      0 NMMIF=      0
                NMic=       0 NMicF=      0.
                    Isotopes and Nuclear Properties:
 (Nuclear quadrupole moments (NQMom) in fm**2, nuclear magnetic moments (NMagM)
  in nuclear magnetons)

  Atom         1           2           3           4           5           6           7           8           9          10
 IAtWgt=          12          12          12          12           1           1           1          14          16          16
 AtmWgt=  12.0000000  12.0000000  12.0000000  12.0000000   1.0078250   1.0078250   1.0078250  14.0030740  15.9949146  15.9949146
 NucSpn=           0           0           0           0           1           1           1           2           0           0
 AtZEff=  -0.0000000  -0.0000000  -0.0000000  -0.0000000  -0.0000000  -0.0000000  -0.0000000  -0.0000000  -0.0000000  -0.0000000
 NQMom=    0.0000000   0.0000000   0.0000000   0.0000000   0.0000000   0.0000000   0.0000000   2.0440000   0.0000000   0.0000000
 NMagM=    0.0000000   0.0000000   0.0000000   0.0000000   2.7928460   2.7928460   2.7928460   0.4037610   0.0000000   0.0000000
 AtZNuc=   6.0000000   6.0000000   6.0000000   6.0000000   1.0000000   1.0000000   1.0000000   7.0000000   8.0000000   8.0000000

  Atom        11          12          13          14          15
 IAtWgt=          12           1          12           1          79
 AtmWgt=  12.0000000   1.0078250  12.0000000   1.0078250  78.9183361
 NucSpn=           0           1           0           1           3
 AtZEff=  -0.0000000  -0.0000000  -0.0000000  -0.0000000  -0.0000000
 NQMom=    0.0000000   0.0000000   0.0000000   0.0000000  31.3000000
 NMagM=    0.0000000   2.7928460   0.0000000   2.7928460   2.1063990
 AtZNuc=   6.0000000   1.0000000   6.0000000   1.0000000  35.0000000
 Leave Link  101 at Thu May  2 13:57:35 2024, MaxMem=   134217728 cpu:               1.8 elap:               1.8
 (Enter /software/gaussian/g16-c01/sse4/g16/l202.exe)
                          Input orientation:                          
 ---------------------------------------------------------------------
 Center     Atomic      Atomic             Coordinates (Angstroms)
 Number     Number       Type             X           Y           Z
 ---------------------------------------------------------------------
      1          6           0        0.519300    1.233000   -0.031900
      2          6           0        1.944500    1.269200   -0.036700
      3          6           0        2.620400    0.092800   -0.025000
      4          6           0       -0.196000    0.030100    0.001000
      5          1           0       -0.020700    2.174200   -0.043400
      6          1           0        2.482800    2.208900   -0.036100
      7          1           0       -1.277700    0.039900    0.011700
      8          7           0        4.092100    0.095900    0.036600
      9          8           0        4.639300   -1.021700    0.144600
     10          8           0        4.664900    1.198400   -0.023300
     11          6           0        0.494300   -1.167100    0.021000
     12          1           0       -0.032500   -2.114900    0.054500
     13          6           0        1.962900   -1.216500   -0.021100
     14          1           0        2.443600   -1.963100    0.615100
     15         35           0        2.173000   -1.949100   -1.906200
 ---------------------------------------------------------------------
                    Distance matrix (angstroms):
                    1          2          3          4          5
     1  C    0.000000
     2  C    1.425668   0.000000
     3  C    2.390549   1.356796   0.000000
     4  C    1.399895   2.473566   2.817218   0.000000
     5  H    1.085168   2.163581   3.362733   2.151712   0.000000
     6  H    2.192654   1.082960   2.120598   3.453189   2.503751
     7  H    2.157452   3.449071   3.898632   1.081797   2.477564
     8  N    3.750012   2.448304   1.472992   4.288753   4.608780
     9  O    4.699917   3.541615   2.312322   4.950458   5.653735
    10  O    4.145753   2.721354   2.324292   4.999386   4.786171
    11  C    2.400813   2.835836   2.471794   1.382101   3.381369
    12  H    3.394169   3.920329   3.452266   2.151887   4.290233
    13  C    2.843264   2.485817   1.465124   2.493060   3.928360
    14  H    3.786370   3.334922   2.160489   3.364142   4.860416
    15  Br   4.046416   3.728900   2.812194   3.628609   5.028314
                    6          7          8          9         10
     6  H    0.000000
     7  H    4.341452   0.000000
     8  N    2.657047   5.370150   0.000000
     9  O    3.888434   6.012948   1.249048   0.000000
    10  O    2.404752   6.054572   1.243863   2.226587   0.000000
    11  C    3.918516   2.144043   3.813080   4.149391   4.794941
    12  H    5.003018   2.489080   4.679774   4.798846   5.748876
    13  C    3.464662   3.475788   2.501842   2.688591   3.623886
    14  H    4.222698   4.268978   2.700314   2.434893   3.916224
    15  Br   4.569706   4.420610   3.411663   3.338935   4.434144
                   11         12         13         14         15
    11  C    0.000000
    12  H    1.084880   0.000000
    13  C    1.470034   2.189625   0.000000
    14  H    2.187771   2.543302   1.092353   0.000000
    15  Br   2.672762   2.955683   2.033334   2.535818   0.000000
 Symmetry turned off by external request.
 Stoichiometry    C6H5BrNO2(1+)
 Framework group  C1[X(C6H5BrNO2)]
 Deg. of freedom    39
 Full point group                 C1      NOp   1
 Rotational constants (GHZ):           1.1632986           0.9594224           0.5957624
 Leave Link  202 at Thu May  2 13:57:36 2024, MaxMem=   134217728 cpu:               1.3 elap:               1.3
 (Enter /software/gaussian/g16-c01/sse4/g16/l301.exe)
 Standard basis: 6-311+G(d) (5D, 7F)
 Ernie: Thresh=  0.10000D-02 Tol=  0.10000D-05 Strict=F.
 The following finite field(s) will be applied:
 An electric field of             -0.0077  0.0000  0.0000
   261 basis functions,   443 primitive gaussians,   273 cartesian basis functions
    49 alpha electrons       49 beta electrons
       nuclear repulsion energy       772.8945969580 Hartrees.
 IExCor= 4639 DFT=T Ex+Corr=wB97XD ExCW=0 ScaHFX=  1.000000
 ScaDFX=  1.000000  1.000000  1.000000  1.000000 ScalE2=  1.000000  1.000000
 IRadAn=      5 IRanWt=     -1 IRanGd=            0 ICorTp=0 IEmpDi=121
 HFx  wShort=  0.000000 wLong=  0.200000 cFull=  0.222036 cShort=  0.000000 cLong=  0.777964
 DFx  wShort=  0.000000 wLong=  0.200000 cFull=  0.000000 cShort=  0.000000 cLong=  1.000000
 NAtoms=   15 NActive=   15 NUniq=   15 SFac= 1.00D+00 NAtFMM=   60 NAOKFM=F Big=F
 Integral buffers will be    131072 words long.
 Raffenetti 2 integral format.
 Two-electron integral symmetry is turned off.
 R6Disp:  Grimme-D2 Dispersion energy=       -0.0080346408 Hartrees.
 Nuclear repulsion after empirical dispersion term =      772.8865623173 Hartrees.
 Leave Link  301 at Thu May  2 13:57:38 2024, MaxMem=   134217728 cpu:               1.2 elap:               1.1
 (Enter /software/gaussian/g16-c01/sse4/g16/l302.exe)
 NPDir=0 NMtPBC=     1 NCelOv=     1 NCel=       1 NClECP=     1 NCelD=      1
         NCelK=      1 NCelE2=     1 NClLst=     1 CellRange=     0.0.
 One-electron integrals computed using PRISM.
 NBasis=   261 RedAO= T EigKep=  2.52D-06  NBF=   261
 NBsUse=   261 1.00D-06 EigRej= -1.00D+00 NBFU=   261
 Precomputing XC quadrature grid using
 IXCGrd= 4 IRadAn=           5 IRanWt=          -1 IRanGd=           0 AccXCQ= 0.00D+00.
 Generated NRdTot=       0 NPtTot=           0 NUsed=           0 NTot=          32
 NSgBfM=   273   273   273   273   273 MxSgAt=    15 MxSgA2=    15.
 Leave Link  302 at Thu May  2 13:58:00 2024, MaxMem=   134217728 cpu:              22.0 elap:              22.1
 (Enter /software/gaussian/g16-c01/sse4/g16/l303.exe)
 DipDrv:  MaxL=1.
 The nuclear repulsion energy is now       769.5864027413 hartrees.
 Leave Link  303 at Thu May  2 13:58:03 2024, MaxMem=   134217728 cpu:               3.4 elap:               3.4
 (Enter /software/gaussian/g16-c01/sse4/g16/l401.exe)
 ExpMin= 3.50D-02 ExpMax= 4.40D+05 ExpMxC= 1.51D+04 IAcc=3 IRadAn=         5 AccDes= 0.00D+00
 Harris functional with IExCor= 4639 and IRadAn=       5 diagonalized for initial guess.
 HarFok:  IExCor= 4639 AccDes= 0.00D+00 IRadAn=         5 IDoV= 1 UseB2=F ITyADJ=14
 ICtDFT=  3500011 ScaDFX=  1.000000  1.000000  1.000000  1.000000
 FoFCou: FMM=F IPFlag=           0 FMFlag=      100000 FMFlg1=           0
         NFxFlg=           0 DoJE=T BraDBF=F KetDBF=T FulRan=T
         wScrn=  0.000000 ICntrl=       500 IOpCl=  0 I1Cent=   200000004 NGrid=           0
         NMat0=    1 NMatS0=      1 NMatT0=    0 NMatD0=    1 NMtDS0=    0 NMtDT0=    0
 Symmetry not used in FoFCou.
 Harris En= -2970.64307936692    
 JPrj=0 DoOrth=F DoCkMO=F.
 Leave Link  401 at Thu May  2 13:58:35 2024, MaxMem=   134217728 cpu:              31.6 elap:              31.7
 (Enter /software/gaussian/g16-c01/sse4/g16/l502.exe)
 Two-electron integral symmetry not used.
 Closed shell SCF:
 Using DIIS extrapolation, IDIIS=  1040.
 NGot=   134217728 LenX=   134063053 LenY=   133988083
 Requested convergence on RMS density matrix=1.00D-08 within 128 cycles.
 Requested convergence on MAX density matrix=1.00D-06.
 Requested convergence on             energy=1.00D-06.
 No special actions if energy rises.
 Fock matrices will be formed incrementally for  20 cycles.

 Cycle   1  Pass 1  IDiag  1:
 FoFJK:  IHMeth= 1 ICntrl=       0 DoSepK=T KAlg= 0 I1Cent=           0 FoldK=F
 IRaf=         1 NMat=       1 IRICut=       1 DoRegI=T DoRafI=F ISym2E= 0 IDoP0=0 IntGTp=1.
 FoFCou: FMM=F IPFlag=           0 FMFlag=      100000 FMFlg1=           0
         NFxFlg=           0 DoJE=T BraDBF=F KetDBF=F FulRan=T
         wScrn=  0.000000 ICntrl=       500 IOpCl=  0 I1Cent=           0 NGrid=           0
         NMat0=    1 NMatS0=      1 NMatT0=    0 NMatD0=    1 NMtDS0=    0 NMtDT0=    0
 Symmetry not used in FoFCou.
 E= -3008.74051528999    
 DIIS: error= 2.90D-01 at cycle   1 NSaved=   1.
 NSaved= 1 IEnMin= 1 EnMin= -3008.74051528999     IErMin= 1 ErrMin= 2.90D-01
 ErrMax= 2.90D-01  0.00D+00 EMaxC= 1.00D-01 BMatC= 1.24D+01 BMatP= 1.24D+01
 IDIUse=3 WtCom= 0.00D+00 WtEn= 1.00D+00
 Coeff-Com:  0.100D+01
 Coeff-En:   0.100D+01
 Coeff:      0.100D+01
 Gap=    -0.431 Goal=   None    Shift=    0.000
 GapD=   -0.431 DampG=0.250 DampE=0.250 DampFc=0.2500 IDamp=-1.
 Damping current iteration by 2.50D-01
 RMSDP=7.96D-02 MaxDP=6.46D+00              OVMax= 9.25D-01

 Cycle   2  Pass 1  IDiag  1:
 RMSU=  1.99D-02    CP:  1.00D+00
 E= -3008.49351862455     Delta-E=        0.246996665434 Rises=F Damp=T
 DIIS: error= 2.19D-01 at cycle   2 NSaved=   2.
 NSaved= 2 IEnMin= 1 EnMin= -3008.74051528999     IErMin= 2 ErrMin= 2.19D-01
 ErrMax= 2.19D-01  0.00D+00 EMaxC= 1.00D-01 BMatC= 5.44D+00 BMatP= 1.24D+01
 IDIUse=3 WtCom= 0.00D+00 WtEn= 1.00D+00
 Coeff-Com: -0.930D+00 0.193D+01
 Coeff-En:   0.578D+00 0.422D+00
 Coeff:      0.578D+00 0.422D+00
 Gap=    -0.427 Goal=   None    Shift=    0.000
 RMSDP=5.84D-02 MaxDP=5.33D+00 DE= 2.47D-01 OVMax= 9.34D-01

 Cycle   3  Pass 1  IDiag  1:
 RMSU=  2.42D-02    CP:  6.33D-01  2.05D+00
 E= -3008.98851175861     Delta-E=       -0.494993134052 Rises=F Damp=F
 DIIS: error= 1.39D-01 at cycle   3 NSaved=   3.
 NSaved= 3 IEnMin= 3 EnMin= -3008.98851175861     IErMin= 3 ErrMin= 1.39D-01
 ErrMax= 1.39D-01  0.00D+00 EMaxC= 1.00D-01 BMatC= 2.51D+00 BMatP= 5.44D+00
 IDIUse=3 WtCom= 0.00D+00 WtEn= 1.00D+00
 EnCoef did   100 forward-backward iterations
 Coeff-Com:  0.574D+00-0.436D+00 0.862D+00
 Coeff-En:   0.468D+00 0.300D-02 0.529D+00
 Coeff:      0.468D+00 0.300D-02 0.529D+00
 Gap=     0.139 Goal=   None    Shift=    0.000
 RMSDP=2.57D-02 MaxDP=1.92D+00 DE=-4.95D-01 OVMax= 5.51D-01

 Cycle   4  Pass 1  IDiag  1:
 RMSU=  1.31D-02    CP:  6.30D-01  9.47D-01  8.79D-01
 E= -3010.33864396601     Delta-E=       -1.350132207408 Rises=F Damp=F
 DIIS: error= 2.55D-02 at cycle   4 NSaved=   4.
 NSaved= 4 IEnMin= 4 EnMin= -3010.33864396601     IErMin= 4 ErrMin= 2.55D-02
 ErrMax= 2.55D-02  0.00D+00 EMaxC= 1.00D-01 BMatC= 1.77D-01 BMatP= 2.51D+00
 IDIUse=3 WtCom= 7.45D-01 WtEn= 2.55D-01
 Coeff-Com: -0.592D-01 0.173D+00 0.693D-01 0.816D+00
 Coeff-En:   0.000D+00 0.000D+00 0.343D-01 0.966D+00
 Coeff:     -0.441D-01 0.129D+00 0.604D-01 0.855D+00
 Gap=     0.168 Goal=   None    Shift=    0.000
 RMSDP=1.77D-02 MaxDP=1.55D+00 DE=-1.35D+00 OVMax= 3.79D-01

 Cycle   5  Pass 1  IDiag  1:
 RMSU=  7.76D-03    CP:  5.23D-01  1.21D+00  9.36D-01  6.17D-01
 E= -3010.39046004025     Delta-E=       -0.051816074238 Rises=F Damp=F
 DIIS: error= 4.36D-02 at cycle   5 NSaved=   5.
 NSaved= 5 IEnMin= 5 EnMin= -3010.39046004025     IErMin= 4 ErrMin= 2.55D-02
 ErrMax= 4.36D-02  0.00D+00 EMaxC= 1.00D-01 BMatC= 2.04D-01 BMatP= 1.77D-01
 IDIUse=2 WtCom= 0.00D+00 WtEn= 1.00D+00
 Coeff-En:   0.000D+00 0.000D+00 0.000D+00 0.415D+00 0.585D+00
 Coeff:      0.000D+00 0.000D+00 0.000D+00 0.415D+00 0.585D+00
 Gap=     0.231 Goal=   None    Shift=    0.000
 RMSDP=1.21D-02 MaxDP=1.02D+00 DE=-5.18D-02 OVMax= 1.13D-01

 Cycle   6  Pass 1  IDiag  1:
 RMSU=  6.34D-03    CP:  5.84D-01  1.06D+00  9.48D-01  9.63D-01  5.54D-01
 E= -3010.50152877949     Delta-E=       -0.111068739237 Rises=F Damp=F
 DIIS: error= 1.60D-02 at cycle   6 NSaved=   6.
 NSaved= 6 IEnMin= 6 EnMin= -3010.50152877949     IErMin= 6 ErrMin= 1.60D-02
 ErrMax= 1.60D-02  0.00D+00 EMaxC= 1.00D-01 BMatC= 3.92D-02 BMatP= 1.77D-01
 IDIUse=3 WtCom= 8.40D-01 WtEn= 1.60D-01
 Coeff-Com:  0.458D-02-0.562D-02-0.921D-02 0.233D+00 0.329D+00 0.449D+00
 Coeff-En:   0.000D+00 0.000D+00 0.000D+00 0.000D+00 0.107D+00 0.893D+00
 Coeff:      0.384D-02-0.472D-02-0.773D-02 0.196D+00 0.293D+00 0.520D+00
 Gap=     0.222 Goal=   None    Shift=    0.000
 RMSDP=5.52D-03 MaxDP=5.54D-01 DE=-1.11D-01 OVMax= 5.32D-02

 Cycle   7  Pass 1  IDiag  1:
 RMSU=  2.20D-03    CP:  5.59D-01  9.24D-01  8.85D-01  8.81D-01  7.18D-01
                    CP:  7.91D-01
 E= -3010.53215588001     Delta-E=       -0.030627100522 Rises=F Damp=F
 DIIS: error= 7.49D-03 at cycle   7 NSaved=   7.
 NSaved= 7 IEnMin= 7 EnMin= -3010.53215588001     IErMin= 7 ErrMin= 7.49D-03
 ErrMax= 7.49D-03  0.00D+00 EMaxC= 1.00D-01 BMatC= 5.72D-03 BMatP= 3.92D-02
 IDIUse=3 WtCom= 9.25D-01 WtEn= 7.49D-02
 Coeff-Com:  0.201D-01-0.291D-01-0.723D-02-0.206D-01-0.198D-01 0.265D+00
 Coeff-Com:  0.792D+00
 Coeff-En:   0.000D+00 0.000D+00 0.000D+00 0.000D+00 0.000D+00 0.000D+00
 Coeff-En:   0.100D+01
 Coeff:      0.186D-01-0.269D-01-0.669D-02-0.190D-01-0.183D-01 0.245D+00
 Coeff:      0.808D+00
 Gap=     0.234 Goal=   None    Shift=    0.000
 RMSDP=3.86D-03 MaxDP=3.33D-01 DE=-3.06D-02 OVMax= 5.87D-02

 Cycle   8  Pass 1  IDiag  1:
 RMSU=  1.32D-03    CP:  5.57D-01  7.96D-01  8.35D-01  8.96D-01  6.84D-01
                    CP:  1.12D+00  1.35D+00
 E= -3010.53934482514     Delta-E=       -0.007188945128 Rises=F Damp=F
 DIIS: error= 4.12D-03 at cycle   8 NSaved=   8.
 NSaved= 8 IEnMin= 8 EnMin= -3010.53934482514     IErMin= 8 ErrMin= 4.12D-03
 ErrMax= 4.12D-03  0.00D+00 EMaxC= 1.00D-01 BMatC= 1.73D-03 BMatP= 5.72D-03
 IDIUse=3 WtCom= 9.59D-01 WtEn= 4.12D-02
 Coeff-Com:  0.911D-02-0.135D-01-0.735D-02-0.556D-01-0.933D-01 0.181D-01
 Coeff-Com:  0.573D+00 0.570D+00
 Coeff-En:   0.000D+00 0.000D+00 0.000D+00 0.000D+00 0.000D+00 0.000D+00
 Coeff-En:   0.000D+00 0.100D+01
 Coeff:      0.874D-02-0.130D-01-0.704D-02-0.533D-01-0.895D-01 0.173D-01
 Coeff:      0.549D+00 0.588D+00
 Gap=     0.234 Goal=   None    Shift=    0.000
 RMSDP=1.57D-03 MaxDP=1.35D-01 DE=-7.19D-03 OVMax= 4.00D-02

 Cycle   9  Pass 1  IDiag  1:
 RMSU=  5.47D-04    CP:  5.64D-01  7.62D-01  8.15D-01  9.04D-01  6.88D-01
                    CP:  1.21D+00  1.65D+00  8.32D-01
 E= -3010.54215330323     Delta-E=       -0.002808478092 Rises=F Damp=F
 DIIS: error= 1.96D-03 at cycle   9 NSaved=   9.
 NSaved= 9 IEnMin= 9 EnMin= -3010.54215330323     IErMin= 9 ErrMin= 1.96D-03
 ErrMax= 1.96D-03  0.00D+00 EMaxC= 1.00D-01 BMatC= 2.85D-04 BMatP= 1.73D-03
 IDIUse=3 WtCom= 9.80D-01 WtEn= 1.96D-02
 Coeff-Com:  0.555D-03-0.881D-03 0.983D-03-0.209D-01-0.346D-01-0.981D-01
 Coeff-Com: -0.133D-01 0.340D+00 0.826D+00
 Coeff-En:   0.000D+00 0.000D+00 0.000D+00 0.000D+00 0.000D+00 0.000D+00
 Coeff-En:   0.000D+00 0.000D+00 0.100D+01
 Coeff:      0.544D-03-0.864D-03 0.964D-03-0.205D-01-0.339D-01-0.962D-01
 Coeff:     -0.131D-01 0.334D+00 0.830D+00
 Gap=     0.231 Goal=   None    Shift=    0.000
 RMSDP=1.29D-03 MaxDP=1.40D-01 DE=-2.81D-03 OVMax= 2.99D-02

 Cycle  10  Pass 1  IDiag  1:
 RMSU=  4.05D-04    CP:  5.60D-01  7.34D-01  8.02D-01  8.74D-01  6.92D-01
                    CP:  1.29D+00  1.77D+00  1.31D+00  1.04D+00
 E= -3010.54323313372     Delta-E=       -0.001079830489 Rises=F Damp=F
 DIIS: error= 5.34D-04 at cycle  10 NSaved=  10.
 NSaved=10 IEnMin=10 EnMin= -3010.54323313372     IErMin=10 ErrMin= 5.34D-04
 ErrMax= 5.34D-04  0.00D+00 EMaxC= 1.00D-01 BMatC= 5.55D-05 BMatP= 2.85D-04
 IDIUse=3 WtCom= 9.95D-01 WtEn= 5.34D-03
 Coeff-Com: -0.121D-02 0.159D-02 0.247D-02-0.595D-02 0.462D-02-0.168D-01
 Coeff-Com: -0.664D-01-0.380D-02 0.185D+00 0.900D+00
 Coeff-En:   0.000D+00 0.000D+00 0.000D+00 0.000D+00 0.000D+00 0.000D+00
 Coeff-En:   0.000D+00 0.000D+00 0.000D+00 0.100D+01
 Coeff:     -0.120D-02 0.158D-02 0.246D-02-0.592D-02 0.460D-02-0.167D-01
 Coeff:     -0.661D-01-0.378D-02 0.184D+00 0.901D+00
 Gap=     0.232 Goal=   None    Shift=    0.000
 RMSDP=5.49D-04 MaxDP=6.49D-02 DE=-1.08D-03 OVMax= 1.55D-02

 Cycle  11  Pass 1  IDiag  1:
 RMSU=  1.14D-04    CP:  5.58D-01  7.36D-01  8.02D-01  8.54D-01  6.98D-01
                    CP:  1.31D+00  1.77D+00  1.47D+00  1.09D+00  1.54D+00
 E= -3010.54351066287     Delta-E=       -0.000277529148 Rises=F Damp=F
 DIIS: error= 2.74D-04 at cycle  11 NSaved=  11.
 NSaved=11 IEnMin=11 EnMin= -3010.54351066287     IErMin=11 ErrMin= 2.74D-04
 ErrMax= 2.74D-04  0.00D+00 EMaxC= 1.00D-01 BMatC= 2.06D-05 BMatP= 5.55D-05
 IDIUse=3 WtCom= 9.97D-01 WtEn= 2.74D-03
 Coeff-Com: -0.103D-02 0.126D-02-0.506D-04-0.288D-02 0.935D-02 0.414D-01
 Coeff-Com:  0.233D-01-0.985D-01-0.257D+00 0.162D+00 0.112D+01
 Coeff-En:   0.000D+00 0.000D+00 0.000D+00 0.000D+00 0.000D+00 0.000D+00
 Coeff-En:   0.000D+00 0.000D+00 0.000D+00 0.000D+00 0.100D+01
 Coeff:     -0.103D-02 0.126D-02-0.505D-04-0.287D-02 0.932D-02 0.413D-01
 Coeff:      0.232D-01-0.982D-01-0.257D+00 0.162D+00 0.112D+01
 Gap=     0.232 Goal=   None    Shift=    0.000
 RMSDP=5.14D-04 MaxDP=4.75D-02 DE=-2.78D-04 OVMax= 1.18D-02

 Cycle  12  Pass 1  IDiag  1:
 RMSU=  6.85D-05    CP:  5.56D-01  7.46D-01  8.05D-01  8.35D-01  7.04D-01
                    CP:  1.31D+00  1.74D+00  1.61D+00  1.10D+00  2.09D+00
                    CP:  1.60D+00
 E= -3010.54362818651     Delta-E=       -0.000117523646 Rises=F Damp=F
 DIIS: error= 1.42D-04 at cycle  12 NSaved=  12.
 NSaved=12 IEnMin=12 EnMin= -3010.54362818651     IErMin=12 ErrMin= 1.42D-04
 ErrMax= 1.42D-04  0.00D+00 EMaxC= 1.00D-01 BMatC= 3.04D-06 BMatP= 2.06D-05
 IDIUse=3 WtCom= 9.99D-01 WtEn= 1.42D-03
 Coeff-Com: -0.187D-03 0.226D-03-0.401D-03-0.309D-03 0.695D-03 0.106D-01
 Coeff-Com:  0.937D-02-0.171D-01-0.721D-01-0.219D+00 0.195D+00 0.109D+01
 Coeff-En:   0.000D+00 0.000D+00 0.000D+00 0.000D+00 0.000D+00 0.000D+00
 Coeff-En:   0.000D+00 0.000D+00 0.000D+00 0.000D+00 0.000D+00 0.100D+01
 Coeff:     -0.187D-03 0.225D-03-0.401D-03-0.309D-03 0.694D-03 0.106D-01
 Coeff:      0.936D-02-0.171D-01-0.720D-01-0.219D+00 0.195D+00 0.109D+01
 Gap=     0.232 Goal=   None    Shift=    0.000
 RMSDP=2.94D-04 MaxDP=3.58D-02 DE=-1.18D-04 OVMax= 7.38D-03

 Cycle  13  Pass 1  IDiag  1:
 RMSU=  3.21D-05    CP:  5.54D-01  7.46D-01  8.05D-01  8.25D-01  7.06D-01
                    CP:  1.32D+00  1.73D+00  1.71D+00  1.10D+00  2.38D+00
                    CP:  2.06D+00  1.20D+00
 E= -3010.54365471462     Delta-E=       -0.000026528104 Rises=F Damp=F
 DIIS: error= 4.83D-05 at cycle  13 NSaved=  13.
 NSaved=13 IEnMin=13 EnMin= -3010.54365471462     IErMin=13 ErrMin= 4.83D-05
 ErrMax= 4.83D-05  0.00D+00 EMaxC= 1.00D-01 BMatC= 5.94D-07 BMatP= 3.04D-06
 IDIUse=1 WtCom= 1.00D+00 WtEn= 0.00D+00
 Coeff-Com:  0.166D-03-0.212D-03-0.522D-04 0.270D-03-0.143D-02-0.391D-02
 Coeff-Com: -0.303D-02 0.101D-01 0.220D-01-0.123D+00-0.121D+00 0.486D+00
 Coeff-Com:  0.734D+00
 Coeff:      0.166D-03-0.212D-03-0.522D-04 0.270D-03-0.143D-02-0.391D-02
 Coeff:     -0.303D-02 0.101D-01 0.220D-01-0.123D+00-0.121D+00 0.486D+00
 Coeff:      0.734D+00
 Gap=     0.232 Goal=   None    Shift=    0.000
 RMSDP=4.93D-05 MaxDP=3.27D-03 DE=-2.65D-05 OVMax= 1.98D-03

 Cycle  14  Pass 1  IDiag  1:
 RMSU=  1.37D-05    CP:  5.54D-01  7.47D-01  8.05D-01  8.23D-01  7.07D-01
                    CP:  1.32D+00  1.73D+00  1.72D+00  1.11D+00  2.44D+00
                    CP:  2.14D+00  1.44D+00  1.04D+00
 E= -3010.54365696719     Delta-E=       -0.000002252570 Rises=F Damp=F
 DIIS: error= 2.18D-05 at cycle  14 NSaved=  14.
 NSaved=14 IEnMin=14 EnMin= -3010.54365696719     IErMin=14 ErrMin= 2.18D-05
 ErrMax= 2.18D-05  0.00D+00 EMaxC= 1.00D-01 BMatC= 8.03D-08 BMatP= 5.94D-07
 IDIUse=1 WtCom= 1.00D+00 WtEn= 0.00D+00
 Coeff-Com:  0.987D-04-0.132D-03 0.317D-04 0.141D-03-0.382D-03-0.217D-02
 Coeff-Com: -0.711D-04 0.406D-02 0.109D-01 0.198D-01-0.387D-01-0.105D+00
 Coeff-Com:  0.726D-01 0.104D+01
 Coeff:      0.987D-04-0.132D-03 0.317D-04 0.141D-03-0.382D-03-0.217D-02
 Coeff:     -0.711D-04 0.406D-02 0.109D-01 0.198D-01-0.387D-01-0.105D+00
 Coeff:      0.726D-01 0.104D+01
 Gap=     0.232 Goal=   None    Shift=    0.000
 RMSDP=1.38D-05 MaxDP=9.31D-04 DE=-2.25D-06 OVMax= 3.85D-04

 Cycle  15  Pass 1  IDiag  1:
 RMSU=  7.09D-06    CP:  5.54D-01  7.47D-01  8.05D-01  8.23D-01  7.07D-01
                    CP:  1.32D+00  1.73D+00  1.72D+00  1.11D+00  2.45D+00
                    CP:  2.15D+00  1.49D+00  1.20D+00  1.54D+00
 E= -3010.54365730327     Delta-E=       -0.000000336082 Rises=F Damp=F
 DIIS: error= 8.45D-06 at cycle  15 NSaved=  15.
 NSaved=15 IEnMin=15 EnMin= -3010.54365730327     IErMin=15 ErrMin= 8.45D-06
 ErrMax= 8.45D-06  0.00D+00 EMaxC= 1.00D-01 BMatC= 2.45D-08 BMatP= 8.03D-08
 IDIUse=1 WtCom= 1.00D+00 WtEn= 0.00D+00
 Coeff-Com: -0.468D-05 0.104D-04-0.428D-05 0.250D-03 0.294D-03 0.237D-04
 Coeff-Com:  0.882D-04-0.138D-02-0.255D-02 0.280D-01 0.822D-02-0.109D+00
 Coeff-Com: -0.113D+00 0.331D+00 0.858D+00
 Coeff:     -0.468D-05 0.104D-04-0.428D-05 0.250D-03 0.294D-03 0.237D-04
 Coeff:      0.882D-04-0.138D-02-0.255D-02 0.280D-01 0.822D-02-0.109D+00
 Coeff:     -0.113D+00 0.331D+00 0.858D+00
 Gap=     0.232 Goal=   None    Shift=    0.000
 RMSDP=6.92D-06 MaxDP=6.31D-04 DE=-3.36D-07 OVMax= 1.84D-04

 Cycle  16  Pass 1  IDiag  1:
 RMSU=  2.39D-06    CP:  5.54D-01  7.47D-01  8.05D-01  8.23D-01  7.07D-01
                    CP:  1.33D+00  1.73D+00  1.72D+00  1.11D+00  2.46D+00
                    CP:  2.16D+00  1.50D+00  1.26D+00  1.79D+00  1.23D+00
 E= -3010.54365736756     Delta-E=       -0.000000064292 Rises=F Damp=F
 DIIS: error= 4.76D-06 at cycle  16 NSaved=  16.
 NSaved=16 IEnMin=16 EnMin= -3010.54365736756     IErMin=16 ErrMin= 4.76D-06
 ErrMax= 4.76D-06  0.00D+00 EMaxC= 1.00D-01 BMatC= 7.96D-09 BMatP= 2.45D-08
 IDIUse=1 WtCom= 1.00D+00 WtEn= 0.00D+00
 Coeff-Com:  0.394D-05-0.446D-05 0.776D-06 0.494D-04 0.131D-03 0.339D-03
 Coeff-Com: -0.320D-03-0.114D-02-0.230D-02 0.995D-02 0.904D-02-0.188D-01
 Coeff-Com: -0.631D-01-0.877D-01 0.312D+00 0.842D+00
 Coeff:      0.394D-05-0.446D-05 0.776D-06 0.494D-04 0.131D-03 0.339D-03
 Coeff:     -0.320D-03-0.114D-02-0.230D-02 0.995D-02 0.904D-02-0.188D-01
 Coeff:     -0.631D-01-0.877D-01 0.312D+00 0.842D+00
 Gap=     0.232 Goal=   None    Shift=    0.000
 RMSDP=5.74D-06 MaxDP=4.81D-04 DE=-6.43D-08 OVMax= 9.66D-05

 Cycle  17  Pass 1  IDiag  1:
 RMSU=  1.40D-06    CP:  5.54D-01  7.46D-01  8.05D-01  8.24D-01  7.07D-01
                    CP:  1.33D+00  1.73D+00  1.72D+00  1.11D+00  2.45D+00
                    CP:  2.15D+00  1.50D+00  1.27D+00  1.89D+00  1.29D+00
                    CP:  1.33D+00
 E= -3010.54365738369     Delta-E=       -0.000000016129 Rises=F Damp=F
 DIIS: error= 8.07D-07 at cycle  17 NSaved=  17.
 NSaved=17 IEnMin=17 EnMin= -3010.54365738369     IErMin=17 ErrMin= 8.07D-07
 ErrMax= 8.07D-07  0.00D+00 EMaxC= 1.00D-01 BMatC= 3.76D-10 BMatP= 7.96D-09
 IDIUse=1 WtCom= 1.00D+00 WtEn= 0.00D+00
 Coeff-Com:  0.154D-05-0.142D-05 0.228D-05 0.194D-04 0.244D-04 0.446D-04
 Coeff-Com: -0.220D-03-0.190D-03-0.251D-03-0.272D-03-0.212D-03 0.940D-02
 Coeff-Com: -0.361D-02-0.442D-01-0.303D-01 0.152D+00 0.918D+00
 Coeff:      0.154D-05-0.142D-05 0.228D-05 0.194D-04 0.244D-04 0.446D-04
 Coeff:     -0.220D-03-0.190D-03-0.251D-03-0.272D-03-0.212D-03 0.940D-02
 Coeff:     -0.361D-02-0.442D-01-0.303D-01 0.152D+00 0.918D+00
 Gap=     0.232 Goal=   None    Shift=    0.000
 RMSDP=1.66D-06 MaxDP=2.14D-04 DE=-1.61D-08 OVMax= 2.59D-05

 Cycle  18  Pass 1  IDiag  1:
 RMSU=  3.41D-07    CP:  5.54D-01  7.46D-01  8.05D-01  8.24D-01  7.07D-01
                    CP:  1.33D+00  1.73D+00  1.72D+00  1.11D+00  2.45D+00
                    CP:  2.15D+00  1.50D+00  1.27D+00  1.91D+00  1.29D+00
                    CP:  1.46D+00  1.27D+00
 E= -3010.54365738488     Delta-E=       -0.000000001185 Rises=F Damp=F
 DIIS: error= 3.83D-07 at cycle  18 NSaved=  18.
 NSaved=18 IEnMin=18 EnMin= -3010.54365738488     IErMin=18 ErrMin= 3.83D-07
 ErrMax= 3.83D-07  0.00D+00 EMaxC= 1.00D-01 BMatC= 5.35D-11 BMatP= 3.76D-10
 IDIUse=1 WtCom= 1.00D+00 WtEn= 0.00D+00
 Coeff-Com: -0.950D-06 0.155D-05 0.762D-06 0.492D-05-0.841D-05-0.405D-04
 Coeff-Com:  0.364D-05 0.129D-03 0.249D-03-0.119D-02-0.169D-02 0.540D-02
 Coeff-Com:  0.675D-02 0.391D-02-0.550D-01-0.829D-01 0.234D+00 0.891D+00
 Coeff:     -0.950D-06 0.155D-05 0.762D-06 0.492D-05-0.841D-05-0.405D-04
 Coeff:      0.364D-05 0.129D-03 0.249D-03-0.119D-02-0.169D-02 0.540D-02
 Coeff:      0.675D-02 0.391D-02-0.550D-01-0.829D-01 0.234D+00 0.891D+00
 Gap=     0.232 Goal=   None    Shift=    0.000
 RMSDP=4.03D-07 MaxDP=2.22D-05 DE=-1.19D-09 OVMax= 1.66D-05

 Cycle  19  Pass 1  IDiag  1:
 RMSU=  1.04D-07    CP:  5.54D-01  7.46D-01  8.05D-01  8.24D-01  7.07D-01
                    CP:  1.33D+00  1.73D+00  1.72D+00  1.11D+00  2.45D+00
                    CP:  2.15D+00  1.50D+00  1.26D+00  1.91D+00  1.29D+00
                    CP:  1.52D+00  1.39D+00  1.09D+00
 E= -3010.54365738508     Delta-E=       -0.000000000199 Rises=F Damp=F
 DIIS: error= 1.32D-07 at cycle  19 NSaved=  19.
 NSaved=19 IEnMin=19 EnMin= -3010.54365738508     IErMin=19 ErrMin= 1.32D-07
 ErrMax= 1.32D-07  0.00D+00 EMaxC= 1.00D-01 BMatC= 8.82D-12 BMatP= 5.35D-11
 IDIUse=1 WtCom= 1.00D+00 WtEn= 0.00D+00
 Coeff-Com: -0.698D-06 0.101D-05-0.270D-06 0.157D-05-0.584D-05-0.233D-04
 Coeff-Com:  0.147D-04 0.828D-04 0.162D-03-0.379D-03-0.891D-03 0.107D-02
 Coeff-Com:  0.307D-02 0.684D-02-0.175D-01-0.398D-01-0.208D-01 0.301D+00
 Coeff-Com:  0.767D+00
 Coeff:     -0.698D-06 0.101D-05-0.270D-06 0.157D-05-0.584D-05-0.233D-04
 Coeff:      0.147D-04 0.828D-04 0.162D-03-0.379D-03-0.891D-03 0.107D-02
 Coeff:      0.307D-02 0.684D-02-0.175D-01-0.398D-01-0.208D-01 0.301D+00
 Coeff:      0.767D+00
 Gap=     0.232 Goal=   None    Shift=    0.000
 RMSDP=1.73D-07 MaxDP=1.34D-05 DE=-1.99D-10 OVMax= 3.59D-06

 Cycle  20  Pass 1  IDiag  1:
 RMSU=  4.64D-08    CP:  5.54D-01  7.46D-01  8.05D-01  8.24D-01  7.07D-01
                    CP:  1.33D+00  1.73D+00  1.72D+00  1.11D+00  2.45D+00
                    CP:  2.15D+00  1.50D+00  1.26D+00  1.91D+00  1.29D+00
                    CP:  1.53D+00  1.40D+00  1.19D+00  1.11D+00
 E= -3010.54365738509     Delta-E=       -0.000000000018 Rises=F Damp=F
 DIIS: error= 9.92D-08 at cycle  20 NSaved=  20.
 NSaved=20 IEnMin=20 EnMin= -3010.54365738509     IErMin=20 ErrMin= 9.92D-08
 ErrMax= 9.92D-08  0.00D+00 EMaxC= 1.00D-01 BMatC= 1.47D-12 BMatP= 8.82D-12
 IDIUse=1 WtCom= 1.00D+00 WtEn= 0.00D+00
 Coeff-Com: -0.952D-07 0.945D-07-0.200D-06-0.521D-06-0.784D-06-0.383D-06
 Coeff-Com: -0.156D-05 0.949D-05 0.189D-04 0.125D-03-0.289D-04-0.626D-03
 Coeff-Com: -0.185D-03 0.134D-02 0.311D-02 0.383D-02-0.477D-01-0.691D-01
 Coeff-Com:  0.176D+00 0.933D+00
 Coeff:     -0.952D-07 0.945D-07-0.200D-06-0.521D-06-0.784D-06-0.383D-06
 Coeff:     -0.156D-05 0.949D-05 0.189D-04 0.125D-03-0.289D-04-0.626D-03
 Coeff:     -0.185D-03 0.134D-02 0.311D-02 0.383D-02-0.477D-01-0.691D-01
 Coeff:      0.176D+00 0.933D+00
 Gap=     0.232 Goal=   None    Shift=    0.000
 RMSDP=7.56D-08 MaxDP=8.68D-06 DE=-1.82D-11 OVMax= 2.46D-06

 Cycle  21  Pass 1  IDiag  1:
 Restarting incremental Fock formation.
 E= -3010.54365738515     Delta-E=       -0.000000000055 Rises=F Damp=F
 DIIS: error= 4.05D-08 at cycle  21 NSaved=  20.
 NSaved=20 IEnMin=20 EnMin= -3010.54365738515     IErMin=20 ErrMin= 4.05D-08
 ErrMax= 4.05D-08  0.00D+00 EMaxC= 1.00D-01 BMatC= 1.87D-13 BMatP= 1.47D-12
 IDIUse=1 WtCom= 1.00D+00 WtEn= 0.00D+00
 Coeff-Com: -0.105D-08-0.167D-07 0.491D-07 0.689D-06 0.129D-05-0.470D-05
 Coeff-Com: -0.515D-05-0.170D-04 0.306D-04 0.108D-03-0.125D-03-0.294D-03
 Coeff-Com: -0.627D-03 0.165D-02 0.393D-02 0.384D-02-0.266D-01-0.111D+00
 Coeff-Com: -0.286D-01 0.116D+01
 Coeff:     -0.105D-08-0.167D-07 0.491D-07 0.689D-06 0.129D-05-0.470D-05
 Coeff:     -0.515D-05-0.170D-04 0.306D-04 0.108D-03-0.125D-03-0.294D-03
 Coeff:     -0.627D-03 0.165D-02 0.393D-02 0.384D-02-0.266D-01-0.111D+00
 Coeff:     -0.286D-01 0.116D+01
 Gap=     0.232 Goal=   None    Shift=    0.000
 RMSDP=4.53D-08 MaxDP=5.48D-06 DE=-5.55D-11 OVMax= 9.45D-07

 Cycle  22  Pass 1  IDiag  1:
 RMSU=  3.64D-08    CP:  1.00D+00
 E= -3010.54365738514     Delta-E=        0.000000000005 Rises=F Damp=F
 DIIS: error= 1.76D-08 at cycle  22 NSaved=  20.
 NSaved=20 IEnMin=19 EnMin= -3010.54365738515     IErMin=20 ErrMin= 1.76D-08
 ErrMax= 1.76D-08  0.00D+00 EMaxC= 1.00D-01 BMatC= 3.78D-14 BMatP= 1.87D-13
 IDIUse=1 WtCom= 1.00D+00 WtEn= 0.00D+00
 Coeff-Com:  0.480D-07 0.303D-07 0.156D-06 0.399D-06 0.144D-05-0.968D-06
 Coeff-Com: -0.670D-05-0.210D-04 0.297D-04 0.696D-04 0.167D-04-0.275D-03
 Coeff-Com: -0.388D-03-0.416D-03 0.814D-02 0.133D-01-0.402D-01-0.179D+00
 Coeff-Com:  0.709D-01 0.113D+01
 Coeff:      0.480D-07 0.303D-07 0.156D-06 0.399D-06 0.144D-05-0.968D-06
 Coeff:     -0.670D-05-0.210D-04 0.297D-04 0.696D-04 0.167D-04-0.275D-03
 Coeff:     -0.388D-03-0.416D-03 0.814D-02 0.133D-01-0.402D-01-0.179D+00
 Coeff:      0.709D-01 0.113D+01
 Gap=     0.232 Goal=   None    Shift=    0.000
 RMSDP=1.67D-08 MaxDP=1.47D-06 DE= 4.55D-12 OVMax= 5.53D-07

 Cycle  23  Pass 1  IDiag  1:
 RMSU=  8.57D-09    CP:  1.00D+00  1.38D+00
 E= -3010.54365738510     Delta-E=        0.000000000044 Rises=F Damp=F
 DIIS: error= 5.89D-09 at cycle  23 NSaved=  20.
 NSaved=20 IEnMin=18 EnMin= -3010.54365738515     IErMin=20 ErrMin= 5.89D-09
 ErrMax= 5.89D-09  0.00D+00 EMaxC= 1.00D-01 BMatC= 8.46D-15 BMatP= 3.78D-14
 IDIUse=1 WtCom= 1.00D+00 WtEn= 0.00D+00
 Coeff-Com:  0.436D-08-0.816D-07-0.135D-06 0.108D-05 0.919D-06 0.272D-05
 Coeff-Com: -0.133D-04-0.153D-04 0.306D-04 0.839D-04 0.701D-04-0.343D-03
 Coeff-Com: -0.769D-03 0.449D-03 0.737D-02 0.102D-01-0.200D-01-0.240D+00
 Coeff-Com:  0.205D+00 0.104D+01
 Coeff:      0.436D-08-0.816D-07-0.135D-06 0.108D-05 0.919D-06 0.272D-05
 Coeff:     -0.133D-04-0.153D-04 0.306D-04 0.839D-04 0.701D-04-0.343D-03
 Coeff:     -0.769D-03 0.449D-03 0.737D-02 0.102D-01-0.200D-01-0.240D+00
 Coeff:      0.205D+00 0.104D+01
 Gap=     0.232 Goal=   None    Shift=    0.000
 RMSDP=1.09D-08 MaxDP=7.84D-07 DE= 4.37D-11 OVMax= 2.75D-07

 Cycle  24  Pass 1  IDiag  1:
 RMSU=  5.22D-09    CP:  1.00D+00  1.62D+00  1.49D+00
 E= -3010.54365738507     Delta-E=        0.000000000026 Rises=F Damp=F
 DIIS: error= 1.66D-09 at cycle  24 NSaved=  20.
 NSaved=20 IEnMin=17 EnMin= -3010.54365738515     IErMin=20 ErrMin= 1.66D-09
 ErrMax= 1.66D-09  0.00D+00 EMaxC= 1.00D-01 BMatC= 1.09D-15 BMatP= 8.46D-15
 IDIUse=1 WtCom= 1.00D+00 WtEn= 0.00D+00
 Large coefficients: NSaved= 20 BigCof=    0.00 CofMax=   10.00 Det=-2.84D-15
 Inversion failed.  Reducing to 19 matrices.
 Large coefficients: NSaved= 19 BigCof=    0.00 CofMax=   10.00 Det=-2.93D-15
 Inversion failed.  Reducing to 18 matrices.
 Large coefficients: NSaved= 18 BigCof=    0.00 CofMax=   10.00 Det=-2.97D-15
 Inversion failed.  Reducing to 17 matrices.
 Large coefficients: NSaved= 17 BigCof=    0.00 CofMax=   10.00 Det=-3.22D-15
 Inversion failed.  Reducing to 16 matrices.
 Large coefficients: NSaved= 16 BigCof=    0.00 CofMax=   10.00 Det=-3.23D-15
 Inversion failed.  Reducing to 15 matrices.
 Coeff-Com: -0.515D-06-0.662D-06-0.379D-05 0.127D-04 0.430D-04-0.620D-04
 Coeff-Com: -0.220D-03-0.162D-03 0.160D-02 0.203D-02 0.659D-02-0.235D-01
 Coeff-Com: -0.792D-01 0.114D+00 0.979D+00
 Coeff:     -0.515D-06-0.662D-06-0.379D-05 0.127D-04 0.430D-04-0.620D-04
 Coeff:     -0.220D-03-0.162D-03 0.160D-02 0.203D-02 0.659D-02-0.235D-01
 Coeff:     -0.792D-01 0.114D+00 0.979D+00
 Gap=     0.232 Goal=   None    Shift=    0.000
 RMSDP=3.47D-09 MaxDP=3.99D-07 DE= 2.64D-11 OVMax= 7.96D-08

 SCF Done:  E(RwB97XD) =  -3010.54365739     A.U. after   24 cycles
            NFock= 24  Conv=0.35D-08     -V/T= 2.0016
 KE= 3.005840253137D+03 PE=-8.695896801813D+03 EE= 1.909926488550D+03
 Leave Link  502 at Thu May  2 14:23:28 2024, MaxMem=   134217728 cpu:            1491.2 elap:            1493.2
 (Enter /software/gaussian/g16-c01/sse4/g16/l601.exe)
 Copying SCF densities to generalized density rwf, IOpCl= 0 IROHF=0.

 **********************************************************************

            Population analysis using the SCF Density.

 **********************************************************************

 Alpha  occ. eigenvalues -- -483.28416 -62.83428 -56.63130 -56.62552 -56.62538
 Alpha  occ. eigenvalues --  -19.41408 -19.41373 -14.80928 -10.56408 -10.55206
 Alpha  occ. eigenvalues --  -10.55085 -10.54804 -10.50981 -10.50382  -8.99226
 Alpha  occ. eigenvalues --   -6.81926  -6.80031  -6.79989  -2.91825  -2.91329
 Alpha  occ. eigenvalues --   -2.91295  -2.89779  -2.89778  -1.45114  -1.28018
 Alpha  occ. eigenvalues --   -1.19797  -1.10332  -1.09607  -1.01998  -0.97195
 Alpha  occ. eigenvalues --   -0.92865  -0.87880  -0.81764  -0.77648  -0.76813
 Alpha  occ. eigenvalues --   -0.76214  -0.75094  -0.72960  -0.71516  -0.69355
 Alpha  occ. eigenvalues --   -0.66383  -0.65055  -0.60973  -0.57057  -0.53413
 Alpha  occ. eigenvalues --   -0.52865  -0.52228  -0.51009  -0.50660
 Alpha virt. eigenvalues --   -0.27466  -0.16951  -0.12800  -0.09882  -0.08803
 Alpha virt. eigenvalues --   -0.05912  -0.04641  -0.03283  -0.02722  -0.01538
 Alpha virt. eigenvalues --   -0.00497   0.00279   0.00983   0.01864   0.03103
 Alpha virt. eigenvalues --    0.03717   0.03765   0.04819   0.04973   0.05977
 Alpha virt. eigenvalues --    0.06480   0.07004   0.08018   0.08326   0.08786
 Alpha virt. eigenvalues --    0.09345   0.10011   0.11069   0.11215   0.12425
 Alpha virt. eigenvalues --    0.12583   0.13197   0.14117   0.14656   0.15175
 Alpha virt. eigenvalues --    0.15478   0.16922   0.17592   0.18293   0.18821
 Alpha virt. eigenvalues --    0.19602   0.19821   0.21089   0.21517   0.22004
 Alpha virt. eigenvalues --    0.23105   0.24893   0.25472   0.27669   0.27991
 Alpha virt. eigenvalues --    0.29547   0.31606   0.32418   0.33277   0.34941
 Alpha virt. eigenvalues --    0.35526   0.36629   0.38334   0.38980   0.40243
 Alpha virt. eigenvalues --    0.40678   0.41036   0.41949   0.43639   0.44461
 Alpha virt. eigenvalues --    0.45366   0.47348   0.48161   0.49011   0.50317
 Alpha virt. eigenvalues --    0.51788   0.53331   0.54665   0.55280   0.56868
 Alpha virt. eigenvalues --    0.58003   0.59069   0.60128   0.61308   0.62039
 Alpha virt. eigenvalues --    0.63768   0.65171   0.67617   0.69887   0.70475
 Alpha virt. eigenvalues --    0.72852   0.73979   0.74239   0.76696   0.77333
 Alpha virt. eigenvalues --    0.78758   0.80252   0.83323   0.86322   0.88254
 Alpha virt. eigenvalues --    0.90061   0.91876   0.95269   0.96917   1.02663
 Alpha virt. eigenvalues --    1.04506   1.06440   1.06860   1.08492   1.10195
 Alpha virt. eigenvalues --    1.13147   1.17227   1.17590   1.18622   1.22376
 Alpha virt. eigenvalues --    1.25435   1.27647   1.31102   1.36227   1.38958
 Alpha virt. eigenvalues --    1.39492   1.41912   1.45908   1.57953   1.59386
 Alpha virt. eigenvalues --    1.61087   1.63068   1.64887   1.67014   1.68451
 Alpha virt. eigenvalues --    1.71824   1.74235   1.77239   1.78713   1.82272
 Alpha virt. eigenvalues --    1.85659   1.88455   1.90555   1.97970   1.99265
 Alpha virt. eigenvalues --    2.01466   2.05866   2.05951   2.10455   2.11718
 Alpha virt. eigenvalues --    2.15659   2.17320   2.24849   2.27245   2.29422
 Alpha virt. eigenvalues --    2.36046   2.43179   2.45285   2.47541   2.55707
 Alpha virt. eigenvalues --    2.60667   2.66029   2.68498   2.71369   2.76518
 Alpha virt. eigenvalues --    2.77414   2.80948   2.81192   2.84291   2.86007
 Alpha virt. eigenvalues --    2.95998   3.01590   3.05617   3.08939   3.11773
 Alpha virt. eigenvalues --    3.17189   3.18665   3.20336   3.26936   3.30353
 Alpha virt. eigenvalues --    3.31894   3.41668   3.48728   3.53345   3.59169
 Alpha virt. eigenvalues --    3.61177   3.73674   3.78969   3.86305   3.90110
 Alpha virt. eigenvalues --    4.12900   4.13756   4.22317   4.26432   4.46269
 Alpha virt. eigenvalues --    4.50045   4.57462   4.64066   4.98593   5.01453
 Alpha virt. eigenvalues --    5.10311   5.14778   5.66845   6.20143   6.70906
 Alpha virt. eigenvalues --    7.51778   7.54096   7.64174  23.24683  23.63922
 Alpha virt. eigenvalues --   23.74753  23.80390  23.97849  24.05025  35.36228
 Alpha virt. eigenvalues --   47.96934  49.90090  49.98752 289.84563 289.86900
 Alpha virt. eigenvalues --  289.995161020.98098
          Condensed to atoms (all electrons):
               1          2          3          4          5          6
     1  C    8.487340  -2.932363   1.021777  -0.192194   0.297161   0.062619
     2  C   -2.932363  18.353205  -4.695417   0.363005  -0.002933   0.169086
     3  C    1.021777  -4.695417  20.550854  -1.553722   0.026283   0.122553
     4  C   -0.192194   0.363005  -1.553722   6.662236   0.010891  -0.013126
     5  H    0.297161  -0.002933   0.026283   0.010891   0.351058  -0.001683
     6  H    0.062619   0.169086   0.122553  -0.013126  -0.001683   0.302963
     7  H    0.034435  -0.035052   0.027837   0.301042  -0.003356  -0.000008
     8  N   -0.149572   0.048759  -1.799040   0.035092  -0.000431  -0.029972
     9  O   -0.021451   0.254014  -0.073208  -0.024196  -0.000039  -0.002642
    10  O    0.318588  -0.203734  -0.238662  -0.023761   0.000043   0.024626
    11  C    0.985604  -0.523854   2.859569  -0.514732  -0.027459   0.008156
    12  H   -0.011783   0.012789   0.019644   0.008126   0.000007  -0.000017
    13  C   -1.792619  -4.780001 -10.034419   1.261763   0.025250  -0.002110
    14  H   -0.004692  -0.000362  -0.021628   0.004778  -0.000031   0.000026
    15  Br  -0.000360  -0.201259  -0.181749   0.003063  -0.000052  -0.000430
               7          8          9         10         11         12
     1  C    0.034435  -0.149572  -0.021451   0.318588   0.985604  -0.011783
     2  C   -0.035052   0.048759   0.254014  -0.203734  -0.523854   0.012789
     3  C    0.027837  -1.799040  -0.073208  -0.238662   2.859569   0.019644
     4  C    0.301042   0.035092  -0.024196  -0.023761  -0.514732   0.008126
     5  H   -0.003356  -0.000431  -0.000039   0.000043  -0.027459   0.000007
     6  H   -0.000008  -0.029972  -0.002642   0.024626   0.008156  -0.000017
     7  H    0.375946  -0.000059   0.000010  -0.000000   0.038600  -0.002763
     8  N   -0.000059   7.830907  -0.024147   0.137687  -0.459631   0.000864
     9  O    0.000010  -0.024147   7.898024   0.015891   0.333631   0.000085
    10  O   -0.000000   0.137687   0.015891   7.812661   0.000583  -0.000024
    11  C    0.038600  -0.459631   0.333631   0.000583   8.840610   0.300527
    12  H   -0.002763   0.000864   0.000085  -0.000024   0.300527   0.344831
    13  C   -0.028796   1.514112  -0.431105   0.047984  -5.722816  -0.001271
    14  H   -0.000038  -0.026089   0.013718  -0.001814   0.050616  -0.005144
    15  Br  -0.000346   0.163597  -0.056779   0.003134   0.070205  -0.003245
              13         14         15
     1  C   -1.792619  -0.004692  -0.000360
     2  C   -4.780001  -0.000362  -0.201259
     3  C  -10.034419  -0.021628  -0.181749
     4  C    1.261763   0.004778   0.003063
     5  H    0.025250  -0.000031  -0.000052
     6  H   -0.002110   0.000026  -0.000430
     7  H   -0.028796  -0.000038  -0.000346
     8  N    1.514112  -0.026089   0.163597
     9  O   -0.431105   0.013718  -0.056779
    10  O    0.047984  -0.001814   0.003134
    11  C   -5.722816   0.050616   0.070205
    12  H   -0.001271  -0.005144  -0.003245
    13  C   25.683536   0.295671   0.357877
    14  H    0.295671   0.310583  -0.036468
    15  Br   0.357877  -0.036468  34.681792
 Mulliken charges:
               1
     1  C   -0.102491
     2  C    0.174117
     3  C   -0.030671
     4  C   -0.328265
     5  H    0.325291
     6  H    0.359957
     7  H    0.292549
     8  N   -0.242079
     9  O    0.118196
    10  O    0.106799
    11  C   -0.239610
    12  H    0.337372
    13  C   -0.393057
    14  H    0.420875
    15  Br   0.201018
 Sum of Mulliken charges =   1.00000
 Mulliken charges with hydrogens summed into heavy atoms:
               1
     1  C    0.222800
     2  C    0.534074
     3  C   -0.030671
     4  C   -0.035716
     8  N   -0.242079
     9  O    0.118196
    10  O    0.106799
    11  C    0.097762
    13  C    0.027818
    15  Br   0.201018
 Electronic spatial extent (au):  <R**2>=           3939.5497
 Charge=              1.0000 electrons
 Dipole moment (field-independent basis, Debye):
    X=              4.9810    Y=             -1.0201    Z=             -0.8630  Tot=              5.1571
 Quadrupole moment (field-independent basis, Debye-Ang):
   XX=            -59.3626   YY=            -51.0114   ZZ=            -61.9389
   XY=             -3.4987   XZ=             -3.1745   YZ=              2.7251
 Traceless Quadrupole moment (field-independent basis, Debye-Ang):
   XX=             -1.9249   YY=              6.4262   ZZ=             -4.5013
   XY=             -3.4987   XZ=             -3.1745   YZ=              2.7251
 Octapole moment (field-independent basis, Debye-Ang**2):
  XXX=           -469.8563  YYY=             91.2028  ZZZ=             82.0877  XYY=           -131.3787
  XXY=             22.9702  XXZ=             23.3562  XZZ=           -129.6438  YZZ=             16.3696
  YYZ=             25.0021  XYZ=              9.3038
 Hexadecapole moment (field-independent basis, Debye-Ang**3):
 XXXX=          -3236.3542 YYYY=           -701.2887 ZZZZ=           -393.2645 XXXY=            176.4317
 XXXZ=            176.9876 YYYX=            181.3147 YYYZ=           -170.1142 ZZZX=            163.2644
 ZZZY=           -142.4966 XXYY=           -603.7246 XXZZ=           -515.6547 YYZZ=           -169.8094
 XXYZ=            -36.6362 YYXZ=             46.0786 ZZXY=             25.3412
 N-N= 7.695864027413D+02 E-N=-8.695896801716D+03  KE= 3.005840253137D+03
 No NMR shielding tensors so no spin-rotation constants.
 Leave Link  601 at Thu May  2 14:23:36 2024, MaxMem=   134217728 cpu:               7.5 elap:               7.5
 (Enter /software/gaussian/g16-c01/sse4/g16/l9999.exe)
 Unable to Open any file for archive entry.
 1\1\GINC-BHX0004\SP\RwB97XD\6-311+G(d)\C6H5Br1N1O2(1+)\BWEIGHT\02-May-
 2024\0\\#P wB97XD/6-311+G* NoSymm #P Field=X-77\\TitleMe\\1,1\C,0,0.51
 93,1.233,-0.0319\C,0,1.9445,1.2692,-0.0367\C,0,2.6204,0.0928,-0.025\C,
 0,-0.196,0.0301,0.001\H,0,-0.0207,2.1742,-0.0434\H,0,2.4828,2.2089,-0.
 0361\H,0,-1.2777,0.0399,0.0117\N,0,4.0921,0.0959,0.0366\O,0,4.6393,-1.
 0217,0.1446\O,0,4.6649,1.1984,-0.0233\C,0,0.4943,-1.1671,0.021\H,0,-0.
 0325,-2.1149,0.0545\C,0,1.9629,-1.2165,-0.0211\H,0,2.4436,-1.9631,0.61
 51\Br,0,2.173,-1.9491,-1.9062\\Version=ES64L-G16RevC.01\HF=-3010.54365
 74\RMSD=3.473e-09\Dipole=-2.3695546,0.8267735,0.9096789\Quadrupole=-1.
 4311458,4.777741,-3.3465952,-2.6012113,-2.3601971,2.0260778\PG=C01 [X(
 C6H5Br1N1O2)]\\@
 The archive entry for this job was punched.


 Standing in the middle of the road is very dangerous;
 you get knocked down by the traffic from both sides.
                                -- Margaret Thatcher
 Job cpu time:       0 days  0 hours 26 minutes  3.9 seconds.
 Elapsed time:       0 days  0 hours 26 minutes  6.0 seconds.
 File lengths (MBytes):  RWF=     40 Int=      0 D2E=      0 Chk=     32 Scr=      1
 Normal termination of Gaussian 16 at Thu May  2 14:23:37 2024.
