 Entering Gaussian System, Link 0=g16
 Initial command:
 /software/gaussian/g16-a03/l1.exe "/local_scratch/6484819/Gau-29887.inp" -scrdir="/local_scratch/6484819/"
 Entering Link 1 = /software/gaussian/g16-a03/l1.exe PID=     29930.
  
 Copyright (c) 1988,1990,1992,1993,1995,1998,2003,2009,2016,
            Gaussian, Inc.  All Rights Reserved.
  
 This is part of the Gaussian(R) 16 program.  It is based on
 the Gaussian(R) 09 system (copyright 2009, Gaussian, Inc.),
 the Gaussian(R) 03 system (copyright 2003, Gaussian, Inc.),
 the Gaussian(R) 98 system (copyright 1998, Gaussian, Inc.),
 the Gaussian(R) 94 system (copyright 1995, Gaussian, Inc.),
 the Gaussian 92(TM) system (copyright 1992, Gaussian, Inc.),
 the Gaussian 90(TM) system (copyright 1990, Gaussian, Inc.),
 the Gaussian 88(TM) system (copyright 1988, Gaussian, Inc.),
 the Gaussian 86(TM) system (copyright 1986, Carnegie Mellon
 University), and the Gaussian 82(TM) system (copyright 1983,
 Carnegie Mellon University). Gaussian is a federally registered
 trademark of Gaussian, Inc.
  
 This software contains proprietary and confidential information,
 including trade secrets, belonging to Gaussian, Inc.
  
 This software is provided under written license and may be
 used, copied, transmitted, or stored only in accord with that
 written license.
  
 The following legend is applicable only to US Government
 contracts under FAR:
  
                    RESTRICTED RIGHTS LEGEND
  
 Use, reproduction and disclosure by the US Government is
 subject to restrictions as set forth in subparagraphs (a)
 and (c) of the Commercial Computer Software - Restricted
 Rights clause in FAR 52.227-19.
  
 Gaussian, Inc.
 340 Quinnipiac St., Bldg. 40, Wallingford CT 06492
  
  
 ---------------------------------------------------------------
 Warning -- This program may not be used in any manner that
 competes with the business of Gaussian, Inc. or will provide
 assistance to any competitor of Gaussian, Inc.  The licensee
 of this program is prohibited from giving any competitor of
 Gaussian, Inc. access to this program.  By using this program,
 the user acknowledges that Gaussian, Inc. is engaged in the
 business of creating and licensing software in the field of
 computational chemistry and represents and warrants to the
 licensee that it is not a competitor of Gaussian, Inc. and that
 it will not use this program in any manner prohibited above.
 ---------------------------------------------------------------
  

 Cite this work as:
 Gaussian 16, Revision A.03,
 M. J. Frisch, G. W. Trucks, H. B. Schlegel, G. E. Scuseria, 
 M. A. Robb, J. R. Cheeseman, G. Scalmani, V. Barone, 
 G. A. Petersson, H. Nakatsuji, X. Li, M. Caricato, A. V. Marenich, 
 J. Bloino, B. G. Janesko, R. Gomperts, B. Mennucci, H. P. Hratchian, 
 J. V. Ortiz, A. F. Izmaylov, J. L. Sonnenberg, D. Williams-Young, 
 F. Ding, F. Lipparini, F. Egidi, J. Goings, B. Peng, A. Petrone, 
 T. Henderson, D. Ranasinghe, V. G. Zakrzewski, J. Gao, N. Rega, 
 G. Zheng, W. Liang, M. Hada, M. Ehara, K. Toyota, R. Fukuda, 
 J. Hasegawa, M. Ishida, T. Nakajima, Y. Honda, O. Kitao, H. Nakai, 
 T. Vreven, K. Throssell, J. A. Montgomery, Jr., J. E. Peralta, 
 F. Ogliaro, M. J. Bearpark, J. J. Heyd, E. N. Brothers, K. N. Kudin, 
 V. N. Staroverov, T. A. Keith, R. Kobayashi, J. Normand, 
 K. Raghavachari, A. P. Rendell, J. C. Burant, S. S. Iyengar, 
 J. Tomasi, M. Cossi, J. M. Millam, M. Klene, C. Adamo, R. Cammi, 
 J. W. Ochterski, R. L. Martin, K. Morokuma, O. Farkas, 
 J. B. Foresman, and D. J. Fox, Gaussian, Inc., Wallingford CT, 2016.
 
 ******************************************
 Gaussian 16:  ES64L-G16RevA.03 25-Dec-2016
                17-Sep-2021 
 ******************************************
 %chk=geometry.chk
 %mem=2GB
 %nprocshared=1
 Will use up to    1 processors via shared memory.
 --------------------------------------------------------------------
 #p B3LYP/6-311+G** #p TD=(singlets,nstates=30)IOp(6/8=3) IOp(9/40=4)
 --------------------------------------------------------------------
 1/38=1,172=1/1;
 2/12=2,17=6,18=5,40=1/2;
 3/5=4,6=6,7=111,11=9,25=1,30=1,74=-5/1,2,3,8;
 4//1;
 5/5=2,38=5/2;
 8/6=1,10=2,108=30/1;
 9/40=4,41=30,42=1,48=1,70=2/14;
 6/7=2,8=3,9=2,10=2/1;
 99/5=1,9=1/99;
 Leave Link    1 at Fri Sep 17 10:52:05 2021, MaxMem=   268435456 cpu:               0.0 elap:               0.3
 (Enter /software/gaussian/g16-a03/l101.exe)
 ------------------------------
 Scan Step 88, Bond Length 0.94
 ------------------------------
 Symbolic Z-matrix:
 Charge =  0 Multiplicity = 1
 C                     0.        0.       -0.52736 
 H                     0.        0.93726  -1.11871 
 H                     0.       -0.93726  -1.11871 
 O                     0.        0.        0.41264 
 
 ITRead=  0  0  0  0
 MicOpt= -1 -1 -1 -1
 NAtoms=      4 NQM=        4 NQMF=       0 NMMI=      0 NMMIF=      0
                NMic=       0 NMicF=      0.
                    Isotopes and Nuclear Properties:
 (Nuclear quadrupole moments (NQMom) in fm**2, nuclear magnetic moments (NMagM)
  in nuclear magnetons)

  Atom         1           2           3           4
 IAtWgt=          12           1           1          16
 AtmWgt=  12.0000000   1.0078250   1.0078250  15.9949146
 NucSpn=           0           1           1           0
 AtZEff=  -0.0000000  -0.0000000  -0.0000000  -0.0000000
 NQMom=    0.0000000   0.0000000   0.0000000   0.0000000
 NMagM=    0.0000000   2.7928460   2.7928460   0.0000000
 AtZNuc=   6.0000000   1.0000000   1.0000000   8.0000000
 Leave Link  101 at Fri Sep 17 10:52:06 2021, MaxMem=   268435456 cpu:               0.1 elap:               0.1
 (Enter /software/gaussian/g16-a03/l202.exe)
                          Input orientation:                          
 ---------------------------------------------------------------------
 Center     Atomic      Atomic             Coordinates (Angstroms)
 Number     Number       Type             X           Y           Z
 ---------------------------------------------------------------------
      1          6           0        0.000000    0.000000   -0.527360
      2          1           0        0.000000    0.937260   -1.118710
      3          1           0        0.000000   -0.937260   -1.118710
      4          8           0        0.000000    0.000000    0.412640
 ---------------------------------------------------------------------
                    Distance matrix (angstroms):
                    1          2          3          4
     1  C    0.000000
     2  H    1.108220   0.000000
     3  H    1.108220   1.874520   0.000000
     4  O    0.940000   1.795408   1.795408   0.000000
 Stoichiometry    CH2O
 Framework group  C2V[C2(CO),SGV(H2)]
 Deg. of freedom     3
 Full point group                 C2V     NOp   4
 Largest Abelian subgroup         C2V     NOp   4
 Largest concise Abelian subgroup C2      NOp   2
                         Standard orientation:                         
 ---------------------------------------------------------------------
 Center     Atomic      Atomic             Coordinates (Angstroms)
 Number     Number       Type             X           Y           Z
 ---------------------------------------------------------------------
      1          6           0        0.000000    0.000000   -0.396081
      2          1           0        0.000000    0.937260   -0.987431
      3          1           0       -0.000000   -0.937260   -0.987431
      4          8           0        0.000000    0.000000    0.543919
 ---------------------------------------------------------------------
 Rotational constants (GHZ):         285.4183527          59.7915282          49.4354317
 Leave Link  202 at Fri Sep 17 10:52:06 2021, MaxMem=   268435456 cpu:               0.0 elap:               0.0
 (Enter /software/gaussian/g16-a03/l301.exe)
 Standard basis: 6-311+G(d,p) (5D, 7F)
 Ernie: Thresh=  0.10000D-02 Tol=  0.10000D-05 Strict=F.
 There are    29 symmetry adapted cartesian basis functions of A1  symmetry.
 There are     3 symmetry adapted cartesian basis functions of A2  symmetry.
 There are    11 symmetry adapted cartesian basis functions of B1  symmetry.
 There are    15 symmetry adapted cartesian basis functions of B2  symmetry.
 There are    27 symmetry adapted basis functions of A1  symmetry.
 There are     3 symmetry adapted basis functions of A2  symmetry.
 There are    11 symmetry adapted basis functions of B1  symmetry.
 There are    15 symmetry adapted basis functions of B2  symmetry.
    56 basis functions,    88 primitive gaussians,    58 cartesian basis functions
     8 alpha electrons        8 beta electrons
       nuclear repulsion energy        37.7499681466 Hartrees.
 IExCor=  402 DFT=T Ex+Corr=B3LYP ExCW=0 ScaHFX=  0.200000
 ScaDFX=  0.800000  0.720000  1.000000  0.810000 ScalE2=  1.000000  1.000000
 IRadAn=      5 IRanWt=     -1 IRanGd=            0 ICorTp=0 IEmpDi=  4
 NAtoms=    4 NActive=    4 NUniq=    3 SFac= 1.78D+00 NAtFMM=   60 NAOKFM=F Big=F
 Integral buffers will be    131072 words long.
 Regular integral format.
 Two-electron integral symmetry is turned on.
 Leave Link  301 at Fri Sep 17 10:52:06 2021, MaxMem=   268435456 cpu:               0.1 elap:               0.1
 (Enter /software/gaussian/g16-a03/l302.exe)
 NPDir=0 NMtPBC=     1 NCelOv=     1 NCel=       1 NClECP=     1 NCelD=      1
         NCelK=      1 NCelE2=     1 NClLst=     1 CellRange=     0.0.
 One-electron integrals computed using PRISM.
 One-electron integral symmetry used in STVInt
 NBasis=    56 RedAO= T EigKep=  1.57D-03  NBF=    27     3    11    15
 NBsUse=    56 1.00D-06 EigRej= -1.00D+00 NBFU=    27     3    11    15
 Precomputing XC quadrature grid using
 IXCGrd= 4 IRadAn=           5 IRanWt=          -1 IRanGd=           0 AccXCQ= 0.00D+00.
 Generated NRdTot=       0 NPtTot=           0 NUsed=           0 NTot=          32
 NSgBfM=    58    58    58    58    58 MxSgAt=     4 MxSgA2=     4.
 Leave Link  302 at Fri Sep 17 10:52:06 2021, MaxMem=   268435456 cpu:               0.1 elap:               0.1
 (Enter /software/gaussian/g16-a03/l303.exe)
 DipDrv:  MaxL=1.
 Leave Link  303 at Fri Sep 17 10:52:06 2021, MaxMem=   268435456 cpu:               0.0 elap:               0.0
 (Enter /software/gaussian/g16-a03/l308.exe)
 Leave Link  308 at Fri Sep 17 10:52:06 2021, MaxMem=   268435456 cpu:               0.0 elap:               0.0
 (Enter /software/gaussian/g16-a03/l401.exe)
 ExpMin= 4.38D-02 ExpMax= 8.59D+03 ExpMxC= 1.30D+03 IAcc=3 IRadAn=         5 AccDes= 0.00D+00
 Harris functional with IExCor=  402 and IRadAn=       5 diagonalized for initial guess.
 HarFok:  IExCor=  402 AccDes= 0.00D+00 IRadAn=         5 IDoV= 1 UseB2=F ITyADJ=14
 ICtDFT=  3500011 ScaDFX=  1.000000  1.000000  1.000000  1.000000
 FoFCou: FMM=F IPFlag=           0 FMFlag=      100000 FMFlg1=           0
         NFxFlg=           0 DoJE=T BraDBF=F KetDBF=T FulRan=T
         wScrn=  0.000000 ICntrl=       500 IOpCl=  0 I1Cent=   200000004 NGrid=           0
         NMat0=    1 NMatS0=      1 NMatT0=    0 NMatD0=    1 NMtDS0=    0 NMtDT0=    0
 Petite list used in FoFCou.
 Harris En= -114.407295562625    
 JPrj=0 DoOrth=F DoCkMO=F.
 Initial guess orbital symmetries:
       Occupied  (A1) (A1) (A1) (B2) (A1) (B1) (A1) (B2)
       Virtual   (B1) (A1) (B2) (A1) (B1) (A1) (A1) (B2) (B2) (B1)
                 (A1) (A1) (A1) (B1) (B2) (B2) (A1) (A1) (A2) (B1)
                 (B2) (A1) (B1) (A1) (B2) (A1) (B2) (A2) (B1) (A1)
                 (A1) (B2) (A1) (B2) (B1) (A1) (A1) (A2) (A1) (B2)
                 (B1) (B2) (A1) (B1) (B2) (A1) (A1) (A1)
 The electronic state of the initial guess is 1-A1.
 Leave Link  401 at Fri Sep 17 10:52:06 2021, MaxMem=   268435456 cpu:               0.3 elap:               0.3
 (Enter /software/gaussian/g16-a03/l502.exe)
 Keep R1 ints in memory in symmetry-blocked form, NReq=2159909.
 FoFCou: FMM=F IPFlag=           0 FMFlag=           0 FMFlg1=           0
         NFxFlg=           0 DoJE=F BraDBF=F KetDBF=F FulRan=T
         wScrn=  0.000000 ICntrl=       600 IOpCl=  0 I1Cent=           0 NGrid=           0
         NMat0=    1 NMatS0=   1596 NMatT0=    0 NMatD0=    1 NMtDS0=    0 NMtDT0=    0
 Petite list used in FoFCou.
 Closed shell SCF:
 Using DIIS extrapolation, IDIIS=  1040.
 NGot=   268435456 LenX=   268074384 LenY=   268070579
 Requested convergence on RMS density matrix=1.00D-08 within 128 cycles.
 Requested convergence on MAX density matrix=1.00D-06.
 Requested convergence on             energy=1.00D-06.
 No special actions if energy rises.

 Cycle   1  Pass 1  IDiag  1:
 E= -114.225162801974    
 DIIS: error= 6.64D-02 at cycle   1 NSaved=   1.
 NSaved= 1 IEnMin= 1 EnMin= -114.225162801974     IErMin= 1 ErrMin= 6.64D-02
 ErrMax= 6.64D-02  0.00D+00 EMaxC= 1.00D-01 BMatC= 1.81D-01 BMatP= 1.81D-01
 IDIUse=3 WtCom= 3.36D-01 WtEn= 6.64D-01
 Coeff-Com:  0.100D+01
 Coeff-En:   0.100D+01
 Coeff:      0.100D+01
 Gap=     0.164 Goal=   None    Shift=    0.000
 GapD=    0.164 DampG=1.000 DampE=0.500 DampFc=0.5000 IDamp=-1.
 Damping current iteration by 5.00D-01
 RMSDP=1.21D-02 MaxDP=1.53D-01              OVMax= 2.55D-01

 Cycle   2  Pass 1  IDiag  1:
 E= -114.264525886908     Delta-E=       -0.039363084933 Rises=F Damp=T
 DIIS: error= 1.73D-02 at cycle   2 NSaved=   2.
 NSaved= 2 IEnMin= 2 EnMin= -114.264525886908     IErMin= 2 ErrMin= 1.73D-02
 ErrMax= 1.73D-02  0.00D+00 EMaxC= 1.00D-01 BMatC= 1.08D-02 BMatP= 1.81D-01
 IDIUse=3 WtCom= 8.27D-01 WtEn= 1.73D-01
 Coeff-Com:  0.123D+00 0.877D+00
 Coeff-En:   0.274D+00 0.726D+00
 Coeff:      0.149D+00 0.851D+00
 Gap=     0.277 Goal=   None    Shift=    0.000
 RMSDP=2.95D-03 MaxDP=3.80D-02 DE=-3.94D-02 OVMax= 1.51D-01

 Cycle   3  Pass 1  IDiag  1:
 E= -114.335768456058     Delta-E=       -0.071242569150 Rises=F Damp=F
 DIIS: error= 1.35D-02 at cycle   3 NSaved=   3.
 NSaved= 3 IEnMin= 3 EnMin= -114.335768456058     IErMin= 3 ErrMin= 1.35D-02
 ErrMax= 1.35D-02  0.00D+00 EMaxC= 1.00D-01 BMatC= 5.92D-03 BMatP= 1.08D-02
 IDIUse=3 WtCom= 8.65D-01 WtEn= 1.35D-01
 Coeff-Com:  0.179D-02 0.419D+00 0.579D+00
 Coeff-En:   0.000D+00 0.000D+00 0.100D+01
 Coeff:      0.155D-02 0.362D+00 0.636D+00
 Gap=     0.256 Goal=   None    Shift=    0.000
 RMSDP=1.04D-03 MaxDP=1.73D-02 DE=-7.12D-02 OVMax= 3.15D-02

 Cycle   4  Pass 1  IDiag  1:
 E= -114.339517365431     Delta-E=       -0.003748909373 Rises=F Damp=F
 DIIS: error= 4.18D-03 at cycle   4 NSaved=   4.
 NSaved= 4 IEnMin= 4 EnMin= -114.339517365431     IErMin= 4 ErrMin= 4.18D-03
 ErrMax= 4.18D-03  0.00D+00 EMaxC= 1.00D-01 BMatC= 5.87D-04 BMatP= 5.92D-03
 IDIUse=3 WtCom= 9.58D-01 WtEn= 4.18D-02
 Coeff-Com: -0.153D-01 0.586D-01 0.283D+00 0.673D+00
 Coeff-En:   0.000D+00 0.000D+00 0.256D-01 0.974D+00
 Coeff:     -0.147D-01 0.561D-01 0.273D+00 0.686D+00
 Gap=     0.256 Goal=   None    Shift=    0.000
 RMSDP=2.85D-04 MaxDP=6.36D-03 DE=-3.75D-03 OVMax= 6.33D-03

 Cycle   5  Pass 1  IDiag  1:
 E= -114.339972458847     Delta-E=       -0.000455093416 Rises=F Damp=F
 DIIS: error= 2.09D-04 at cycle   5 NSaved=   5.
 NSaved= 5 IEnMin= 5 EnMin= -114.339972458847     IErMin= 5 ErrMin= 2.09D-04
 ErrMax= 2.09D-04  0.00D+00 EMaxC= 1.00D-01 BMatC= 2.40D-06 BMatP= 5.87D-04
 IDIUse=3 WtCom= 9.98D-01 WtEn= 2.09D-03
 Coeff-Com: -0.586D-03-0.201D-02 0.229D-01 0.109D+00 0.871D+00
 Coeff-En:   0.000D+00 0.000D+00 0.000D+00 0.000D+00 0.100D+01
 Coeff:     -0.585D-03-0.200D-02 0.228D-01 0.108D+00 0.871D+00
 Gap=     0.256 Goal=   None    Shift=    0.000
 RMSDP=3.48D-05 MaxDP=4.53D-04 DE=-4.55D-04 OVMax= 5.72D-04

 Cycle   6  Pass 1  IDiag  1:
 E= -114.339974842519     Delta-E=       -0.000002383672 Rises=F Damp=F
 DIIS: error= 1.66D-05 at cycle   6 NSaved=   6.
 NSaved= 6 IEnMin= 6 EnMin= -114.339974842519     IErMin= 6 ErrMin= 1.66D-05
 ErrMax= 1.66D-05  0.00D+00 EMaxC= 1.00D-01 BMatC= 9.39D-09 BMatP= 2.40D-06
 IDIUse=1 WtCom= 1.00D+00 WtEn= 0.00D+00
 Coeff-Com:  0.219D-03-0.656D-03-0.849D-03 0.294D-02 0.555D-01 0.943D+00
 Coeff:      0.219D-03-0.656D-03-0.849D-03 0.294D-02 0.555D-01 0.943D+00
 Gap=     0.256 Goal=   None    Shift=    0.000
 RMSDP=1.80D-06 MaxDP=1.81D-05 DE=-2.38D-06 OVMax= 3.45D-05

 Cycle   7  Pass 1  IDiag  1:
 E= -114.339974850708     Delta-E=       -0.000000008188 Rises=F Damp=F
 DIIS: error= 1.11D-06 at cycle   7 NSaved=   7.
 NSaved= 7 IEnMin= 7 EnMin= -114.339974850708     IErMin= 7 ErrMin= 1.11D-06
 ErrMax= 1.11D-06  0.00D+00 EMaxC= 1.00D-01 BMatC= 4.10D-11 BMatP= 9.39D-09
 IDIUse=1 WtCom= 1.00D+00 WtEn= 0.00D+00
 Coeff-Com:  0.120D-05-0.567D-05-0.125D-03-0.665D-03-0.603D-02 0.109D-01
 Coeff-Com:  0.996D+00
 Coeff:      0.120D-05-0.567D-05-0.125D-03-0.665D-03-0.603D-02 0.109D-01
 Coeff:      0.996D+00
 Gap=     0.256 Goal=   None    Shift=    0.000
 RMSDP=2.33D-07 MaxDP=2.47D-06 DE=-8.19D-09 OVMax= 3.88D-06

 Cycle   8  Pass 1  IDiag  1:
 E= -114.339974850757     Delta-E=       -0.000000000050 Rises=F Damp=F
 DIIS: error= 2.17D-07 at cycle   8 NSaved=   8.
 NSaved= 8 IEnMin= 8 EnMin= -114.339974850757     IErMin= 8 ErrMin= 2.17D-07
 ErrMax= 2.17D-07  0.00D+00 EMaxC= 1.00D-01 BMatC= 1.53D-12 BMatP= 4.10D-11
 IDIUse=1 WtCom= 1.00D+00 WtEn= 0.00D+00
 Coeff-Com: -0.286D-05 0.471D-05 0.858D-05-0.716D-04-0.902D-03-0.747D-02
 Coeff-Com:  0.958D-01 0.913D+00
 Coeff:     -0.286D-05 0.471D-05 0.858D-05-0.716D-04-0.902D-03-0.747D-02
 Coeff:      0.958D-01 0.913D+00
 Gap=     0.256 Goal=   None    Shift=    0.000
 RMSDP=2.82D-08 MaxDP=3.25D-07 DE=-4.95D-11 OVMax= 6.81D-07

 Cycle   9  Pass 1  IDiag  1:
 E= -114.339974850759     Delta-E=       -0.000000000002 Rises=F Damp=F
 DIIS: error= 2.08D-08 at cycle   9 NSaved=   9.
 NSaved= 9 IEnMin= 9 EnMin= -114.339974850759     IErMin= 9 ErrMin= 2.08D-08
 ErrMax= 2.08D-08  0.00D+00 EMaxC= 1.00D-01 BMatC= 2.42D-14 BMatP= 1.53D-12
 IDIUse=1 WtCom= 1.00D+00 WtEn= 0.00D+00
 Coeff-Com: -0.163D-06 0.554D-06 0.762D-06-0.156D-05-0.237D-04-0.686D-03
 Coeff-Com: -0.903D-02 0.107D+00 0.903D+00
 Coeff:     -0.163D-06 0.554D-06 0.762D-06-0.156D-05-0.237D-04-0.686D-03
 Coeff:     -0.903D-02 0.107D+00 0.903D+00
 Gap=     0.256 Goal=   None    Shift=    0.000
 RMSDP=4.08D-09 MaxDP=4.47D-08 DE=-1.93D-12 OVMax= 7.01D-08

 SCF Done:  E(RB3LYP) =  -114.339974851     A.U. after    9 cycles
            NFock=  9  Conv=0.41D-08     -V/T= 1.9861
 KE= 1.159520263887D+02 PE=-3.452118888340D+02 EE= 7.716991944794D+01
 Leave Link  502 at Fri Sep 17 10:52:08 2021, MaxMem=   268435456 cpu:               1.6 elap:               2.0
 (Enter /software/gaussian/g16-a03/l801.exe)
 DoSCS=F DFT=T ScalE2(SS,OS)=  1.000000  1.000000
 ExpMin= 4.38D-02 ExpMax= 8.59D+03 ExpMxC= 1.30D+03 IAcc=3 IRadAn=         5 AccDes= 0.00D+00
 HarFok:  IExCor=  205 AccDes= 0.00D+00 IRadAn=         5 IDoV=-2 UseB2=F ITyADJ=14
 ICtDFT= 12500011 ScaDFX=  1.000000  1.000000  1.000000  1.000000
 Largest valence mixing into a core orbital is  4.62D-05
 Largest core mixing into a valence orbital is  7.83D-06
 Range of M.O.s used for correlation:     3    56
 NBasis=    56 NAE=     8 NBE=     8 NFC=     2 NFV=     0
 NROrb=     54 NOA=     6 NOB=     6 NVA=    48 NVB=    48
 Leave Link  801 at Fri Sep 17 10:52:08 2021, MaxMem=   268435456 cpu:               0.2 elap:               0.2
 (Enter /software/gaussian/g16-a03/l914.exe)
 RHF ground state
 Keep R1, R2, and R3 ints in memory in symmetry-blocked form, NReq=6042848.
 FoFCou: FMM=F IPFlag=           0 FMFlag=           0 FMFlg1=           0
         NFxFlg=           0 DoJE=F BraDBF=F KetDBF=F FulRan=T
         wScrn=  0.000000 ICntrl=       600 IOpCl=  0 I1Cent=           0 NGrid=           0
         NMat0=    1 NMatS0=   1596 NMatT0=    0 NMatD0=    1 NMtDS0=    0 NMtDT0=    0
 Petite list used in FoFCou.
 MDV=   268435456 DFT=T DoStab=F Mixed=T DoRPA=T DoScal=F NonHer=T
 Making orbital integer symmetry assigments:
 Orbital symmetries:
       Occupied  (A1) (A1) (A1) (A1) (B2) (B1) (A1) (B2)
       Virtual   (B1) (A1) (A1) (B2) (B1) (A1) (A1) (B2) (B1) (B2)
                 (A1) (A1) (A1) (B1) (B2) (B2) (A1) (A1) (A2) (B1)
                 (B2) (A1) (B1) (A1) (B2) (A1) (B2) (A2) (B1) (A1)
                 (A1) (B2) (A1) (B2) (B1) (A1) (A1) (A2) (B2) (A1)
                 (B1) (B2) (A1) (B1) (B2) (A1) (A1) (A1)
   120 initial guesses have been made.
 Convergence on wavefunction:    0.001000000000000
 Davidson Disk Diagonalization:  ConvIn= 1.00D-03 SkipCon=T Conv= 1.00D-03.
 Max sub-space:  1728 roots to seek:   120 dimension of matrix:          576
 Iteration     1 Dimension   120 NMult     0 NNew    120
 CISAX will form   120 AO SS matrices at one time.
 NMat=   120 NSing=   120 JSym2X=-1.
 New state     11 was old state     12
 New state     12 was old state     11
 New state     14 was old state     15
 New state     15 was old state     16
 New state     16 was old state     17
 New state     17 was old state     20
 New state     18 was old state     14
 New state     20 was old state     18
 New state     23 was old state     24
 New state     24 was old state     25
 New state     25 was old state     23
 New state     28 was old state     31
 Excitation Energies [eV] at current iteration:
 Root      1 :     5.379877300722594
 Root      2 :     6.127487982249137
 Root      3 :     6.916099445357878
 Root      4 :     7.052830595332457
 Root      5 :     7.686071719128044
 Root      6 :    10.069952375565650
 Root      7 :    10.422044422259940
 Root      8 :    11.435360888731250
 Root      9 :    11.503628889538320
 Root     10 :    12.112029564882680
 Root     11 :    12.619287577288770
 Root     12 :    12.832168978105960
 Root     13 :    13.352753788450150
 Root     14 :    13.689680539437840
 Root     15 :    13.995903915904020
 Root     16 :    14.093484313617740
 Root     17 :    14.256299250032140
 Root     18 :    14.483454995754090
 Root     19 :    14.565440630059360
 Root     20 :    14.570379058810220
 Root     21 :    14.865754647340160
 Root     22 :    15.191653473593720
 Root     23 :    15.235201926635830
 Root     24 :    15.601216137191470
 Root     25 :    15.763688311165720
 Root     26 :    15.930344115389670
 Root     27 :    16.077333612495040
 Root     28 :    16.475053765357360
 Root     29 :    16.676297121706660
 Root     30 :    16.710315701388400
 Root     31 :    16.732617999864580
 Root     32 :    16.870126460502460
 Root     33 :    17.001920456816400
 Root     34 :    17.440686555963480
 Root     35 :    17.792731734486180
 Root     36 :    18.048281769211660
 Root     37 :    18.217234738682770
 Root     38 :    18.429655800559460
 Root     39 :    18.475525165581000
 Root     40 :    18.606855498399910
 Root     41 :    18.943002346234500
 Root     42 :    19.227422030635270
 Root     43 :    19.259620745168690
 Root     44 :    19.287443669279380
 Root     45 :    19.422696477392950
 Root     46 :    19.558477062676440
 Root     47 :    19.997393793332600
 Root     48 :    20.039312167729300
 Root     49 :    20.122403870842910
 Root     50 :    20.381684266560460
 Root     51 :    20.390162752545430
 Root     52 :    20.577021633048910
 Root     53 :    20.903720884678410
 Root     54 :    21.197318765482250
 Root     55 :    21.299655884420680
 Root     56 :    21.526362170273820
 Root     57 :    21.828908307308110
 Root     58 :    21.913876736631430
 Root     59 :    22.540426885091960
 Root     60 :    22.775314189818250
 Root     61 :    22.868877051698680
 Root     62 :    24.093273542196960
 Root     63 :    24.179696371810190
 Root     64 :    24.870194004391610
 Root     65 :    25.287223367415900
 Root     66 :    26.286685502785780
 Root     67 :    26.374523448327150
 Root     68 :    26.765279617373280
 Root     69 :    26.786715633383840
 Root     70 :    26.957557548507720
 Root     71 :    27.749799341887290
 Root     72 :    28.113271722896450
 Root     73 :    28.153800570039420
 Root     74 :    28.875177940284680
 Root     75 :    28.916392825496540
 Root     76 :    29.385416334718940
 Root     77 :    29.648227745718550
 Root     78 :    29.896826058787970
 Root     79 :    30.107444826441600
 Root     80 :    30.678120069817740
 Root     81 :    31.531573911132400
 Root     82 :    31.675531998015810
 Root     83 :    32.250726374402650
 Root     84 :    32.505415083382180
 Root     85 :    32.792721030298010
 Root     86 :    32.969974374777780
 Root     87 :    32.973320368800270
 Root     88 :    33.099928185073470
 Root     89 :    33.225840082430000
 Root     90 :    33.708390314641680
 Root     91 :    33.894243218927220
 Root     92 :    34.285682465797980
 Root     93 :    34.620096541066050
 Root     94 :    36.009505595105940
 Root     95 :    36.311020167464100
 Root     96 :    36.967515366138140
 Root     97 :    37.315501241911690
 Root     98 :    37.893341691516620
 Root     99 :    38.097165462437800
 Root    100 :    38.618509908504210
 Root    101 :    38.643095754951470
 Root    102 :    38.650468030062810
 Root    103 :    39.334955731728310
 Root    104 :    39.431341814029170
 Root    105 :    39.525076056145830
 Root    106 :    39.621969675059250
 Root    107 :    39.682236922063510
 Root    108 :    40.230142324439220
 Root    109 :    40.479190085661960
 Root    110 :    40.874849088268570
 Root    111 :    41.170277990108290
 Root    112 :    41.723858529780910
 Root    113 :    41.927193455223030
 Root    114 :    42.181875320843870
 Root    115 :    42.453828800097180
 Root    116 :    42.550342342631860
 Root    117 :    42.583054272791020
 Root    118 :    42.823120526515850
 Root    119 :    43.056415766915310
 Root    120 :    46.589708998667430
 Iteration     2 Dimension   180 NMult   120 NNew     60
 CISAX will form    60 AO SS matrices at one time.
 NMat=    60 NSing=    60 JSym2X=-1.
 Root      1 not converged, maximum delta is    0.005547295857391
 Root      2 not converged, maximum delta is    0.003306882990255
 Root      3 not converged, maximum delta is    0.002597176395139
 Root      4 not converged, maximum delta is    0.004059139044766
 Root      5 not converged, maximum delta is    0.002712764033624
 Root      6 not converged, maximum delta is    0.007947540919629
 Root      7 not converged, maximum delta is    0.002877401681274
 Root      8 not converged, maximum delta is    0.007481894366032
 Root      9 not converged, maximum delta is    0.001619864210603
 Root     10 not converged, maximum delta is    0.004201147074864
 Root     11 not converged, maximum delta is    0.014213447717373
 Root     12 not converged, maximum delta is    0.003780966574995
 Root     13 not converged, maximum delta is    0.006711942199585
 Root     14 not converged, maximum delta is    0.001288546038975
 Root     15 not converged, maximum delta is    0.024999709279299
 Root     16 not converged, maximum delta is    0.003514382116516
 Root     17 not converged, maximum delta is    0.006321594543205
 Root     18 not converged, maximum delta is    0.046155693652507
 Root     19 not converged, maximum delta is    0.002508106371072
 Root     20 not converged, maximum delta is    0.013979480433706
 Root     21 not converged, maximum delta is    0.017485410189998
 Root     22 not converged, maximum delta is    0.065858248874794
 Root     23 not converged, maximum delta is    0.066436226667354
 Root     24 not converged, maximum delta is    0.030422583520369
 Root     25 not converged, maximum delta is    0.023786525770900
 Root     26 not converged, maximum delta is    0.021083924785219
 Root     27 not converged, maximum delta is    0.006204435618794
 Root     28 not converged, maximum delta is    0.046645369223665
 Root     29 not converged, maximum delta is    0.112505907779953
 Root     30 not converged, maximum delta is    0.007743678568030
 Excitation Energies [eV] at current iteration:
 Root      1 :     5.368933192336473   Change is   -0.010944108386121
 Root      2 :     6.124194422360095   Change is   -0.003293559889042
 Root      3 :     6.911125951613857   Change is   -0.004973493744020
 Root      4 :     7.049178660490014   Change is   -0.003651934842444
 Root      5 :     7.683525947952623   Change is   -0.002545771175422
 Root      6 :    10.054162498790150   Change is   -0.015789876775506
 Root      7 :    10.420259059111140   Change is   -0.001785363148803
 Root      8 :    11.419919425244450   Change is   -0.015441463486807
 Root      9 :    11.502355902773130   Change is   -0.001272986765187
 Root     10 :    12.103826906770810   Change is   -0.008202658111868
 Root     11 :    12.554023623534300   Change is   -0.065263953754468
 Root     12 :    12.824006324098490   Change is   -0.008162654007472
 Root     13 :    13.341134409754020   Change is   -0.011619378696133
 Root     14 :    13.688714574988040   Change is   -0.000965964449804
 Root     15 :    13.983774816855890   Change is   -0.012129099048133
 Root     16 :    14.085494547084320   Change is   -0.007989766533418
 Root     17 :    14.250586365557850   Change is   -0.005712884474288
 Root     18 :    14.381404650550530   Change is   -0.102050345203561
 Root     19 :    14.564953300255470   Change is   -0.000487329803887
 Root     20 :    14.567735507419750   Change is   -0.002643551390465
 Root     21 :    14.838471253855240   Change is   -0.027283393484921
 Root     22 :    15.189113870569060   Change is   -0.002539603024665
 Root     23 :    15.216105370410640   Change is   -0.019096556225188
 Root     24 :    15.563581891059690   Change is   -0.037634246131775
 Root     25 :    15.686718968765100   Change is   -0.076969342400621
 Root     26 :    15.921076034463820   Change is   -0.009268080925848
 Root     27 :    16.072303489949280   Change is   -0.005030122545761
 Root     28 :    16.455039493381590   Change is   -0.020014271975763
 Root     29 :    16.649706806150450   Change is   -0.026590315556207
 Root     30 :    16.692700109526680   Change is   -0.017615591861718
 Iteration     3 Dimension   240 NMult   180 NNew     60
 CISAX will form    60 AO SS matrices at one time.
 NMat=    60 NSing=    60 JSym2X=-1.
 Root      1 has converged.
 Root      2 has converged.
 Root      3 has converged.
 Root      4 has converged.
 Root      5 has converged.
 Root      6 has converged.
 Root      7 has converged.
 Root      8 has converged.
 Root      9 has converged.
 Root     10 has converged.
 Root     11 has converged.
 Root     12 has converged.
 Root     13 has converged.
 Root     14 has converged.
 Root     15 has converged.
 Root     16 has converged.
 Root     17 has converged.
 Root     18 has converged.
 Root     19 has converged.
 Root     20 has converged.
 Root     21 has converged.
 Root     22 has converged.
 Root     23 has converged.
 Root     24 has converged.
 Root     25 has converged.
 Root     26 has converged.
 Root     27 has converged.
 Root     28 has converged.
 Root     29 has converged.
 Root     30 has converged.
 Excitation Energies [eV] at current iteration:
 Root      1 :     5.368930268445494   Change is   -0.000002923890979
 Root      2 :     6.124192455923308   Change is   -0.000001966436786
 Root      3 :     6.911123933956167   Change is   -0.000002017657691
 Root      4 :     7.049176689802747   Change is   -0.000001970687267
 Root      5 :     7.683525246740246   Change is   -0.000000701212377
 Root      6 :    10.054157907177440   Change is   -0.000004591612703
 Root      7 :    10.420257046633390   Change is   -0.000002012477745
 Root      8 :    11.419900742429360   Change is   -0.000018682815089
 Root      9 :    11.502354678315870   Change is   -0.000001224457255
 Root     10 :    12.103812338029170   Change is   -0.000014568741637
 Root     11 :    12.553872489567840   Change is   -0.000151133966461
 Root     12 :    12.823995307265290   Change is   -0.000011016833195
 Root     13 :    13.341110461462360   Change is   -0.000023948291662
 Root     14 :    13.688711473376150   Change is   -0.000003101611894
 Root     15 :    13.983750186777730   Change is   -0.000024630078160
 Root     16 :    14.085479796645100   Change is   -0.000014750439219
 Root     17 :    14.250581005507930   Change is   -0.000005360049920
 Root     18 :    14.381145559754210   Change is   -0.000259090796318
 Root     19 :    14.564952845418300   Change is   -0.000000454837169
 Root     20 :    14.567726105197580   Change is   -0.000009402222174
 Root     21 :    14.838385504674650   Change is   -0.000085749180589
 Root     22 :    15.189108532862920   Change is   -0.000005337706146
 Root     23 :    15.216078473789150   Change is   -0.000026896621492
 Root     24 :    15.563460664510090   Change is   -0.000121226549608
 Root     25 :    15.686574080104060   Change is   -0.000144888661040
 Root     26 :    15.921057922412970   Change is   -0.000018112050850
 Root     27 :    16.072288945600710   Change is   -0.000014544348567
 Root     28 :    16.454971549337400   Change is   -0.000067944044192
 Root     29 :    16.649582831738780   Change is   -0.000123974411676
 Root     30 :    16.692672996049160   Change is   -0.000027113477521
 Convergence achieved on expansion vectors.
 ***********************************************************************
 Excited states from <AA,BB:AA,BB> singles matrix:
 ***********************************************************************
 
 1PDM for each excited state written to RWF  633
 Ground to excited state transition densities written to RWF  633
 Ground to excited state transition electric dipole moments (Au):
       state          X           Y           Z        Dip. S.      Osc.
         1         0.0000      0.0000      0.0000      0.0000      0.0000
         2        -0.0000      0.7171     -0.0000      0.5143      0.0772
         3         0.0000      0.3518     -0.0000      0.1238      0.0210
         4        -0.0000     -0.0000     -0.5240      0.2746      0.0474
         5         0.0000     -0.0000     -0.0000      0.0000      0.0000
         6         0.0000      1.0515     -0.0000      1.1057      0.2724
         7        -0.0000      0.2613     -0.0000      0.0683      0.0174
         8        -0.0000     -0.0000      0.0400      0.0016      0.0004
         9        -0.0000      0.0000     -0.0000      0.0000      0.0000
        10        -0.0000     -0.0000     -0.7368      0.5429      0.1610
        11        -0.0566      0.0000      0.0000      0.0032      0.0010
        12        -0.0000     -0.3592      0.0000      0.1291      0.0405
        13         0.0000     -0.0000     -0.0845      0.0071      0.0023
        14        -0.3454     -0.0000      0.0000      0.1193      0.0400
        15         0.0000     -0.0000      0.8240      0.6790      0.2326
        16        -0.0000     -0.3577      0.0000      0.1280      0.0442
        17         0.0000      0.0000      0.0000      0.0000      0.0000
        18        -0.0000     -0.0000      0.4400      0.1936      0.0682
        19        -0.0000     -0.0000     -0.0000      0.0000      0.0000
        20         0.2136      0.0000      0.0000      0.0456      0.0163
        21        -0.2385      0.0000     -0.0000      0.0569      0.0207
        22        -0.0000     -0.5098     -0.0000      0.2599      0.0967
        23         0.0000      0.0267      0.0000      0.0007      0.0003
        24        -0.0000     -0.0000     -0.6052      0.3663      0.1397
        25        -0.6441     -0.0000      0.0000      0.4149      0.1595
        26         0.0000     -0.0000      0.1297      0.0168      0.0066
        27         0.0000      0.1729      0.0000      0.0299      0.0118
        28         0.0000      0.0000      0.2389      0.0571      0.0230
        29         0.0000      0.0000      0.4545      0.2066      0.0843
        30        -0.0000     -0.1196      0.0000      0.0143      0.0059
 Ground to excited state transition velocity dipole moments (Au):
       state          X           Y           Z        Dip. S.      Osc.
         1        -0.0000     -0.0000      0.0000      0.0000      0.0000
         2         0.0000     -0.1579     -0.0000      0.0249      0.0739
         3        -0.0000     -0.0918     -0.0000      0.0084      0.0221
         4         0.0000     -0.0000      0.1296      0.0168      0.0433
         5        -0.0000      0.0000      0.0000      0.0000      0.0000
         6         0.0000     -0.3913     -0.0000      0.1531      0.2763
         7        -0.0000     -0.0678     -0.0000      0.0046      0.0080
         8        -0.0000     -0.0000     -0.0209      0.0004      0.0007
         9         0.0000     -0.0000      0.0000      0.0000      0.0000
        10         0.0000      0.0000      0.3290      0.1083      0.1623
        11         0.0164     -0.0000     -0.0000      0.0003      0.0004
        12        -0.0000      0.1755     -0.0000      0.0308      0.0436
        13        -0.0000      0.0000      0.0403      0.0016      0.0022
        14         0.1774      0.0000     -0.0000      0.0315      0.0417
        15        -0.0000      0.0000     -0.4230      0.1790      0.2322
        16        -0.0000      0.1851     -0.0000      0.0343      0.0441
        17        -0.0000     -0.0000     -0.0000      0.0000      0.0000
        18         0.0000      0.0000     -0.2256      0.0509      0.0642
        19         0.0000      0.0000      0.0000      0.0000      0.0000
        20        -0.1211     -0.0000     -0.0000      0.0147      0.0182
        21         0.1226     -0.0000      0.0000      0.0150      0.0184
        22         0.0000      0.2779      0.0000      0.0772      0.0922
        23        -0.0000     -0.0237     -0.0000      0.0006      0.0007
        24         0.0000      0.0000      0.3486      0.1215      0.1416
        25         0.3806      0.0000     -0.0000      0.1448      0.1675
        26        -0.0000      0.0000     -0.0733      0.0054      0.0061
        27         0.0000     -0.1061     -0.0000      0.0113      0.0127
        28        -0.0000     -0.0000     -0.1526      0.0233      0.0257
        29        -0.0000     -0.0000     -0.2765      0.0764      0.0833
        30         0.0000      0.0775     -0.0000      0.0060      0.0065
 Ground to excited state transition magnetic dipole moments (Au):
       state          X           Y           Z
         1        -0.0000      0.0000      1.2805
         2        -0.4368      0.0000      0.0000
         3         0.7953     -0.0000      0.0000
         4         0.0000      0.0000      0.0000
         5        -0.0000      0.0000     -0.3418
         6        -0.8245      0.0000     -0.0000
         7        -0.9444     -0.0000      0.0000
         8         0.0000     -0.0000      0.0000
         9        -0.0000     -0.0000      0.0952
        10         0.0000     -0.0000     -0.0000
        11         0.0000     -1.1739     -0.0000
        12        -0.4571     -0.0000      0.0000
        13         0.0000     -0.0000     -0.0000
        14         0.0000     -0.0484      0.0000
        15         0.0000     -0.0000      0.0000
        16        -0.3102      0.0000      0.0000
        17         0.0000     -0.0000     -0.3633
        18         0.0000      0.0000      0.0000
        19        -0.0000      0.0000      0.0703
        20        -0.0000     -0.2396      0.0000
        21        -0.0000      0.7910     -0.0000
        22         0.8229     -0.0000     -0.0000
        23         0.9217     -0.0000      0.0000
        24         0.0000     -0.0000     -0.0000
        25         0.0000     -0.4795     -0.0000
        26         0.0000      0.0000      0.0000
        27        -0.1200      0.0000     -0.0000
        28        -0.0000      0.0000     -0.0000
        29        -0.0000      0.0000     -0.0000
        30         0.0692      0.0000      0.0000
 Ground to excited state transition velocity quadrupole moments (Au):
       state          XX          YY          ZZ          XY          XZ          YZ
         1         0.0000      0.0000     -0.0000     -0.2163     -0.0000     -0.0000
         2        -0.0000      0.0000      0.0000      0.0000      0.0000      0.5240
         3         0.0000      0.0000     -0.0000      0.0000     -0.0000      0.2345
         4        -0.1696     -0.6162     -0.2049      0.0000     -0.0000     -0.0000
         5        -0.0000     -0.0000     -0.0000     -0.1242      0.0000      0.0000
         6        -0.0000      0.0000     -0.0000      0.0000      0.0000      0.9082
         7         0.0000      0.0000      0.0000      0.0000     -0.0000     -0.1588
         8         0.1267      0.7315      0.7293      0.0000      0.0000      0.0000
         9        -0.0000     -0.0000     -0.0000      0.2592     -0.0000      0.0000
        10         0.1754     -0.4994     -0.5904     -0.0000     -0.0000     -0.0000
        11        -0.0000      0.0000      0.0000     -0.0000     -0.4578     -0.0000
        12         0.0000      0.0000     -0.0000      0.0000     -0.0000      0.0774
        13         0.1284      0.3670      0.4979      0.0000     -0.0000     -0.0000
        14         0.0000      0.0000      0.0000     -0.0000     -0.0144      0.0000
        15         0.1406      0.1746      0.1778     -0.0000      0.0000     -0.0000
        16        -0.0000     -0.0000     -0.0000     -0.0000      0.0000      0.0833
        17         0.0000      0.0000      0.0000      0.2813     -0.0000      0.0000
        18         0.7112      0.6486      0.2105      0.0000      0.0000     -0.0000
        19        -0.0000     -0.0000      0.0000      0.2248      0.0000     -0.0000
        20         0.0000      0.0000      0.0000      0.0000     -0.3468     -0.0000
        21        -0.0000     -0.0000     -0.0000     -0.0000      0.3509      0.0000
        22        -0.0000     -0.0000     -0.0000      0.0000      0.0000     -0.3213
        23         0.0000     -0.0000     -0.0000     -0.0000     -0.0000      0.0023
        24         0.1440     -0.6289     -0.1599     -0.0000     -0.0000     -0.0000
        25        -0.0000      0.0000      0.0000      0.0000     -0.5038     -0.0000
        26         0.2570     -0.1164      0.4332      0.0000      0.0000     -0.0000
        27         0.0000     -0.0000     -0.0000     -0.0000      0.0000     -0.3235
        28        -0.4715     -0.1110     -0.1051      0.0000      0.0000      0.0000
        29        -0.0570     -0.2499      0.8522     -0.0000      0.0000      0.0000
        30        -0.0000     -0.0000      0.0000      0.0000      0.0000     -0.4227
 <0|del|b> * <b|rxdel|0> + <0|del|b> * <b|delr+rdel|0>
 Rotatory Strengths (R) in cgs (10**-40 erg-esu-cm/Gauss)
       state          XX          YY          ZZ    R(velocity)    E-M Angle
         1         0.0000      0.0000     -0.0000      0.0000       90.00
         2         0.0000      0.0000     -0.0000     -0.0000       90.00
         3        -0.0000     -0.0000     -0.0000     -0.0000       90.00
         4         0.0000      0.0000      0.0000      0.0000       90.00
         5        -0.0000     -0.0000      0.0000     -0.0000       90.00
         6         0.0000      0.0000     -0.0000     -0.0000       90.00
         7        -0.0000      0.0000      0.0000      0.0000       90.00
         8        -0.0000      0.0000      0.0000     -0.0000       90.00
         9         0.0000     -0.0000      0.0000      0.0000       90.00
        10        -0.0000     -0.0000     -0.0000     -0.0000       90.00
        11         0.0000      0.0000      0.0000      0.0000       90.00
        12        -0.0000      0.0000      0.0000      0.0000       90.00
        13         0.0000     -0.0000     -0.0000     -0.0000       90.00
        14        -0.0000      0.0000      0.0000      0.0000       90.00
        15        -0.0000     -0.0000     -0.0000     -0.0000       90.00
        16        -0.0000      0.0000      0.0000      0.0000       90.00
        17         0.0000      0.0000     -0.0000      0.0000       90.00
        18        -0.0000     -0.0000      0.0000     -0.0000       90.00
        19         0.0000     -0.0000      0.0000      0.0000       90.00
        20        -0.0000      0.0000     -0.0000      0.0000       90.00
        21        -0.0000     -0.0000     -0.0000     -0.0000       90.00
        22        -0.0000      0.0000      0.0000      0.0000       90.00
        23        -0.0000     -0.0000     -0.0000     -0.0000       90.00
        24        -0.0000      0.0000      0.0000     -0.0000       90.00
        25         0.0000     -0.0000      0.0000      0.0000       90.00
        26        -0.0000     -0.0000     -0.0000     -0.0000       90.00
        27         0.0000     -0.0000     -0.0000     -0.0000       90.00
        28        -0.0000      0.0000     -0.0000      0.0000       90.00
        29         0.0000      0.0000      0.0000      0.0000       90.00
        30        -0.0000     -0.0000      0.0000      0.0000       90.00
 1/2[<0|r|b>*<b|rxdel|0> + (<0|rxdel|b>*<b|r|0>)*]
 Rotatory Strengths (R) in cgs (10**-40 erg-esu-cm/Gauss)
       state          XX          YY          ZZ     R(length)
         1         0.0000     -0.0000     -0.0000     -0.0000
         2        -0.0000     -0.0000      0.0000     -0.0000
         3        -0.0000      0.0000      0.0000      0.0000
         4         0.0000      0.0000      0.0000      0.0000
         5         0.0000      0.0000     -0.0000     -0.0000
         6         0.0000     -0.0000     -0.0000     -0.0000
         7        -0.0000      0.0000      0.0000      0.0000
         8         0.0000     -0.0000     -0.0000     -0.0000
         9        -0.0000      0.0000      0.0000      0.0000
        10         0.0000     -0.0000     -0.0000     -0.0000
        11         0.0000      0.0000      0.0000      0.0000
        12        -0.0000     -0.0000     -0.0000     -0.0000
        13        -0.0000     -0.0000     -0.0000     -0.0000
        14         0.0000     -0.0000     -0.0000      0.0000
        15        -0.0000     -0.0000     -0.0000     -0.0000
        16        -0.0000      0.0000     -0.0000      0.0000
        17        -0.0000      0.0000      0.0000      0.0000
        18         0.0000      0.0000     -0.0000     -0.0000
        19        -0.0000      0.0000      0.0000      0.0000
        20         0.0000      0.0000     -0.0000      0.0000
        21        -0.0000     -0.0000     -0.0000     -0.0000
        22         0.0000     -0.0000     -0.0000      0.0000
        23        -0.0000      0.0000     -0.0000     -0.0000
        24         0.0000     -0.0000     -0.0000     -0.0000
        25         0.0000     -0.0000      0.0000      0.0000
        26        -0.0000      0.0000     -0.0000     -0.0000
        27         0.0000     -0.0000      0.0000     -0.0000
        28         0.0000     -0.0000      0.0000      0.0000
        29         0.0000     -0.0000      0.0000      0.0000
        30         0.0000      0.0000     -0.0000      0.0000
  1/2[<0|del|b>*<b|r|0> + (<0|r|b>*<b|del|0>)*] (Au)
       state          X           Y           Z        Dip. S.   Osc.(frdel)
         1        -0.0000     -0.0000      0.0000     -0.0000     -0.0000
         2        -0.0000     -0.1132      0.0000      0.1132      0.0755
         3        -0.0000     -0.0323      0.0000      0.0323      0.0215
         4        -0.0000      0.0000     -0.0679      0.0679      0.0453
         5        -0.0000     -0.0000     -0.0000      0.0000      0.0000
         6         0.0000     -0.4115      0.0000      0.4115      0.2743
         7         0.0000     -0.0177      0.0000      0.0177      0.0118
         8         0.0000      0.0000     -0.0008      0.0008      0.0006
         9        -0.0000     -0.0000     -0.0000      0.0000      0.0000
        10        -0.0000     -0.0000     -0.2424      0.2424      0.1616
        11        -0.0009     -0.0000     -0.0000      0.0009      0.0006
        12         0.0000     -0.0631     -0.0000      0.0631      0.0420
        13        -0.0000     -0.0000     -0.0034      0.0034      0.0023
        14        -0.0613     -0.0000     -0.0000      0.0613      0.0409
        15        -0.0000     -0.0000     -0.3486      0.3486      0.2324
        16         0.0000     -0.0662     -0.0000      0.0662      0.0441
        17        -0.0000     -0.0000     -0.0000      0.0000      0.0000
        18        -0.0000     -0.0000     -0.0992      0.0992      0.0662
        19        -0.0000     -0.0000     -0.0000      0.0000      0.0000
        20        -0.0259     -0.0000     -0.0000      0.0259      0.0172
        21        -0.0292     -0.0000     -0.0000      0.0292      0.0195
        22        -0.0000     -0.1417     -0.0000      0.1417      0.0945
        23        -0.0000     -0.0006     -0.0000      0.0006      0.0004
        24        -0.0000     -0.0000     -0.2110      0.2110      0.1406
        25        -0.2451     -0.0000     -0.0000      0.2451      0.1634
        26        -0.0000     -0.0000     -0.0095      0.0095      0.0063
        27         0.0000     -0.0183     -0.0000      0.0183      0.0122
        28        -0.0000     -0.0000     -0.0364      0.0364      0.0243
        29        -0.0000     -0.0000     -0.1257      0.1257      0.0838
        30        -0.0000     -0.0093     -0.0000      0.0093      0.0062

 Excitation energies and oscillator strengths:
 
 Excited State   1:      Singlet-A2     5.3689 eV  230.93 nm  f=0.0000  <S**2>=0.000
       3 -> 27         0.00297
       3 -> 36         0.00239
       3 -> 46         0.00144
       4 -> 27         0.00331
       4 -> 36        -0.00075
       4 -> 46        -0.00080
       5 ->  9         0.01193
       5 -> 13        -0.00947
       5 -> 17         0.00618
       5 -> 22        -0.00335
       5 -> 28         0.00328
       5 -> 31         0.00236
       5 -> 37         0.00383
       5 -> 43         0.00060
       5 -> 52         0.00079
       6 -> 12        -0.00060
       6 -> 16        -0.00139
       6 -> 18        -0.00078
       6 -> 23         0.00176
       6 -> 24         0.00075
       6 -> 29        -0.00052
       6 -> 33         0.00029
       6 -> 35         0.00055
       6 -> 40        -0.00016
       6 -> 42         0.00048
       6 -> 47         0.00066
       6 -> 50        -0.00017
       6 -> 53         0.00032
       7 -> 27         0.00089
       7 -> 36        -0.00039
       7 -> 46         0.00135
       8 ->  9         0.69631
       8 -> 13        -0.11889
       8 -> 17         0.02874
       8 -> 22        -0.00988
       8 -> 28         0.00579
       8 -> 31         0.00349
       8 -> 37        -0.00211
       8 -> 43        -0.00024
       8 -> 52         0.00107
       3 <- 27         0.00215
       3 <- 36         0.00205
       3 <- 46         0.00149
       4 <- 27         0.00390
       4 <- 36        -0.00038
       4 <- 46        -0.00076
       5 <-  9         0.00025
       5 <- 13        -0.00110
       5 <- 17        -0.00019
       5 <- 22         0.00034
       5 <- 28        -0.00019
       5 <- 31        -0.00111
       5 <- 37         0.00172
       5 <- 43         0.00044
       5 <- 49         0.00013
       5 <- 52         0.00020
       6 <- 12        -0.00095
       6 <- 16         0.00289
       6 <- 18        -0.00301
       6 <- 23         0.00529
       6 <- 24        -0.00142
       6 <- 29         0.00185
       6 <- 33        -0.00105
       6 <- 35         0.00220
       6 <- 40        -0.00023
       6 <- 42         0.00095
       6 <- 47         0.00050
       6 <- 53         0.00085
       7 <- 27         0.00110
       7 <- 36        -0.00043
       7 <- 46         0.00106
       8 <-  9        -0.01145
       8 <- 13         0.00783
       8 <- 17        -0.00401
       8 <- 22         0.00057
       8 <- 28        -0.00042
       8 <- 31         0.00254
       8 <- 37        -0.00227
       8 <- 52         0.00033
 This state for optimization and/or second-order correction.
 Total Energy, E(TD-HF/TD-DFT) =  -114.142670294    
 Copying the excited state density for this state as the 1-particle RhoCI density.
 
 Excited State   2:      Singlet-B2     6.1242 eV  202.45 nm  f=0.0772  <S**2>=0.000
       3 -> 12         0.00098
       3 -> 18         0.00111
       3 -> 24         0.00120
       3 -> 29        -0.00017
       3 -> 35        -0.00014
       3 -> 42         0.00012
       3 -> 50        -0.00014
       4 -> 12        -0.00572
       4 -> 16         0.00065
       4 -> 18         0.00194
       4 -> 23        -0.00283
       4 -> 24         0.00403
       4 -> 29        -0.00039
       4 -> 33        -0.00096
       4 -> 35         0.00089
       4 -> 40        -0.00022
       4 -> 42         0.00044
       5 -> 10         0.00052
       5 -> 11        -0.00766
       5 -> 14         0.00581
       5 -> 15         0.00153
       5 -> 19         0.00366
       5 -> 20        -0.00089
       5 -> 21         0.00334
       5 -> 25         0.00098
       5 -> 26        -0.00144
       5 -> 30         0.00244
       5 -> 38        -0.00071
       5 -> 39         0.00019
       5 -> 41         0.00028
       5 -> 44         0.00045
       5 -> 45        -0.00058
       5 -> 48         0.00034
       6 -> 27         0.00085
       6 -> 46         0.00083
       7 -> 12         0.00204
       7 -> 16         0.00175
       7 -> 18         0.00422
       7 -> 23        -0.00245
       7 -> 24         0.00223
       7 -> 35        -0.00011
       7 -> 42        -0.00038
       7 -> 47         0.00037
       7 -> 50         0.00051
       8 -> 10         0.70612
       8 -> 11        -0.02432
       8 -> 14        -0.01294
       8 -> 15         0.01135
       8 -> 19         0.01960
       8 -> 20         0.00876
       8 -> 21        -0.00702
       8 -> 25         0.00079
       8 -> 26        -0.00074
       8 -> 30         0.00017
       8 -> 32         0.00248
       8 -> 34         0.00171
       8 -> 38         0.00073
       8 -> 39        -0.00058
       8 -> 41        -0.00027
       8 -> 44        -0.00058
       8 -> 45        -0.00101
       8 -> 48         0.00027
       8 -> 54        -0.00015
       3 <- 12         0.00031
       3 <- 16        -0.00020
       3 <- 18         0.00061
       3 <- 23        -0.00017
       3 <- 24         0.00085
       3 <- 29        -0.00015
       3 <- 35        -0.00015
       4 <- 12         0.00015
       4 <- 16         0.00024
       4 <- 18         0.00273
       4 <- 23        -0.00171
       4 <- 24         0.00302
       4 <- 29        -0.00031
       4 <- 33        -0.00070
       4 <- 35         0.00065
       4 <- 40        -0.00024
       4 <- 42         0.00016
       5 <- 10         0.00223
       5 <- 14         0.00447
       5 <- 15         0.00158
       5 <- 19         0.00092
       5 <- 20        -0.00018
       5 <- 21         0.00195
       5 <- 25         0.00167
       5 <- 26        -0.00129
       5 <- 30         0.00088
       5 <- 32        -0.00042
       5 <- 38        -0.00050
       5 <- 39         0.00016
       5 <- 41         0.00034
       5 <- 44         0.00030
       5 <- 45        -0.00050
       5 <- 48         0.00030
       6 <- 27         0.00065
       6 <- 46         0.00071
       7 <- 12         0.00057
       7 <- 16         0.00141
       7 <- 18         0.00167
       7 <- 23        -0.00096
       7 <- 24         0.00098
       7 <- 29         0.00060
       7 <- 33        -0.00013
       7 <- 35         0.00012
       7 <- 42        -0.00034
       7 <- 47         0.00033
       7 <- 50         0.00055
       8 <- 10        -0.00386
       8 <- 11        -0.00157
       8 <- 14        -0.01152
       8 <- 15        -0.00134
       8 <- 19        -0.00086
       8 <- 20        -0.00032
       8 <- 21        -0.00392
       8 <- 25        -0.00306
       8 <- 26        -0.00057
       8 <- 30        -0.00056
       8 <- 32         0.00116
       8 <- 34         0.00159
       8 <- 38         0.00075
       8 <- 39        -0.00047
       8 <- 41        -0.00013
       8 <- 44        -0.00049
       8 <- 45        -0.00070
       8 <- 48         0.00027
 
 Excited State   3:      Singlet-B2     6.9111 eV  179.40 nm  f=0.0210  <S**2>=0.000
       3 -> 12        -0.00013
       3 -> 16         0.00070
       3 -> 18         0.00013
       3 -> 23         0.00018
       3 -> 24         0.00041
       3 -> 29         0.00111
       3 -> 33         0.00014
       3 -> 35        -0.00031
       3 -> 42        -0.00032
       3 -> 47         0.00020
       3 -> 50         0.00023
       4 -> 12         0.00298
       4 -> 16         0.00343
       4 -> 18         0.00262
       4 -> 23        -0.00152
       4 -> 24         0.00359
       4 -> 29        -0.00112
       4 -> 33         0.00056
       4 -> 35        -0.00023
       4 -> 40        -0.00023
       4 -> 47         0.00015
       4 -> 50         0.00014
       5 -> 10        -0.00590
       5 -> 11         0.00017
       5 -> 14         0.00366
       5 -> 15         0.00523
       5 -> 19        -0.00363
       5 -> 20        -0.00126
       5 -> 21         0.00126
       5 -> 25         0.00109
       5 -> 26         0.00125
       5 -> 30         0.00081
       5 -> 32        -0.00202
       5 -> 34        -0.00064
       5 -> 39        -0.00067
       5 -> 41        -0.00080
       5 -> 44         0.00011
       5 -> 45         0.00062
       5 -> 48        -0.00045
       5 -> 51        -0.00024
       6 -> 27        -0.00077
       6 -> 36        -0.00131
       6 -> 46        -0.00117
       7 -> 12        -0.00303
       7 -> 16         0.00068
       7 -> 18        -0.00235
       7 -> 23         0.00139
       7 -> 24        -0.00019
       7 -> 33        -0.00030
       7 -> 35         0.00129
       7 -> 40        -0.00035
       7 -> 42         0.00071
       7 -> 47        -0.00068
       7 -> 50        -0.00063
       7 -> 53         0.00015
       8 -> 10         0.02485
       8 -> 11         0.70567
       8 -> 14        -0.01571
       8 -> 15        -0.02187
       8 -> 19        -0.01947
       8 -> 20         0.01439
       8 -> 21        -0.00245
       8 -> 25         0.00032
       8 -> 26         0.00019
       8 -> 30        -0.00166
       8 -> 32         0.00019
       8 -> 34         0.00042
       8 -> 38        -0.00013
       8 -> 39        -0.00047
       8 -> 41        -0.00138
       8 -> 45         0.00076
       8 -> 48        -0.00071
       8 -> 51        -0.00020
       8 -> 54         0.00017
       3 <- 12         0.00026
       3 <- 16         0.00055
       3 <- 18         0.00043
       3 <- 24         0.00047
       3 <- 29         0.00072
       3 <- 33         0.00018
       3 <- 35        -0.00034
       3 <- 42        -0.00028
       3 <- 47         0.00016
       3 <- 50         0.00013
       3 <- 53        -0.00022
       4 <- 12         0.00031
       4 <- 16         0.00034
       4 <- 18         0.00121
       4 <- 23        -0.00127
       4 <- 24         0.00164
       4 <- 29        -0.00046
       4 <- 33         0.00055
       4 <- 35         0.00011
       4 <- 40        -0.00022
       4 <- 42        -0.00011
       4 <- 50         0.00022
       5 <- 10         0.00136
       5 <- 11        -0.00042
       5 <- 14         0.00192
       5 <- 15         0.00052
       5 <- 19         0.00065
       5 <- 20         0.00018
       5 <- 21         0.00100
       5 <- 25         0.00095
       5 <- 26         0.00090
       5 <- 30         0.00081
       5 <- 32        -0.00060
       5 <- 34        -0.00114
       5 <- 38         0.00011
       5 <- 39        -0.00045
       5 <- 41        -0.00081
       5 <- 44         0.00014
       5 <- 45         0.00063
       5 <- 48        -0.00031
       5 <- 51        -0.00023
       6 <- 27        -0.00032
       6 <- 36        -0.00107
       6 <- 46        -0.00101
       7 <- 12        -0.00036
       7 <- 16        -0.00022
       7 <- 18        -0.00028
       7 <- 23         0.00029
       7 <- 29        -0.00023
       7 <- 35         0.00092
       7 <- 40        -0.00027
       7 <- 42         0.00050
       7 <- 47        -0.00058
       7 <- 50        -0.00057
       8 <- 10        -0.00150
       8 <- 11         0.00110
       8 <- 14        -0.00582
       8 <- 15        -0.00115
       8 <- 19         0.00220
       8 <- 20        -0.00180
       8 <- 21        -0.00249
       8 <- 25        -0.00029
       8 <- 26         0.00104
       8 <- 30        -0.00103
       8 <- 32         0.00112
       8 <- 34        -0.00011
       8 <- 38        -0.00029
       8 <- 39        -0.00023
       8 <- 41        -0.00116
       8 <- 45         0.00065
       8 <- 48        -0.00046
       8 <- 51        -0.00021
 
 Excited State   4:      Singlet-A1     7.0492 eV  175.88 nm  f=0.0474  <S**2>=0.000
       3 -> 10         0.00139
       3 -> 11        -0.00090
       3 -> 14         0.00022
       3 -> 15         0.00054
       3 -> 19         0.00126
       3 -> 20         0.00052
       3 -> 21        -0.00014
       3 -> 25         0.00015
       3 -> 26        -0.00018
       3 -> 30         0.00111
       3 -> 32        -0.00028
       3 -> 34        -0.00020
       3 -> 38        -0.00035
       3 -> 39        -0.00022
       3 -> 41        -0.00016
       3 -> 48        -0.00015
       3 -> 51        -0.00031
       3 -> 54         0.00021
       4 -> 10         0.00556
       4 -> 11         0.00987
       4 -> 14         0.00624
       4 -> 15         0.00134
       4 -> 19         0.00083
       4 -> 20         0.00644
       4 -> 21         0.00241
       4 -> 25         0.00695
       4 -> 26        -0.00080
       4 -> 30        -0.00069
       4 -> 32        -0.00051
       4 -> 34        -0.00095
       4 -> 38        -0.00018
       4 -> 39         0.00069
       4 -> 41         0.00019
       4 -> 45        -0.00032
       4 -> 48        -0.00025
       5 -> 12         0.00769
       5 -> 16         0.00622
       5 -> 18         0.00925
       5 -> 23         0.00021
       5 -> 24         0.00445
       5 -> 29         0.00053
       5 -> 33        -0.00016
       5 -> 35         0.00091
       5 -> 42        -0.00021
       5 -> 50        -0.00036
       5 -> 53        -0.00015
       6 ->  9         0.00861
       6 -> 13         0.00444
       6 -> 17         0.00516
       6 -> 22         0.00442
       6 -> 28         0.00050
       6 -> 31         0.00087
       6 -> 37         0.00053
       6 -> 43         0.00055
       6 -> 49        -0.00037
       7 -> 10         0.01329
       7 -> 11        -0.00494
       7 -> 14         0.00334
       7 -> 15        -0.00127
       7 -> 19         0.00714
       7 -> 20         0.00358
       7 -> 21         0.00138
       7 -> 25         0.00211
       7 -> 26        -0.00034
       7 -> 32         0.00058
       7 -> 34        -0.00090
       7 -> 39         0.00020
       7 -> 48        -0.00019
       7 -> 51         0.00049
       8 -> 12         0.70555
       8 -> 16         0.03873
       8 -> 18         0.00980
       8 -> 23         0.00434
       8 -> 24         0.00145
       8 -> 29         0.00282
       8 -> 33         0.00152
       8 -> 35        -0.00242
       8 -> 42         0.00129
       8 -> 47        -0.00041
       8 -> 50        -0.00016
       8 -> 53        -0.00014
       3 <- 10         0.00057
       3 <- 11        -0.00031
       3 <- 14         0.00015
       3 <- 15         0.00024
       3 <- 19         0.00066
       3 <- 20         0.00022
       3 <- 25         0.00027
       3 <- 30         0.00066
       3 <- 32        -0.00022
       3 <- 34        -0.00013
       3 <- 38        -0.00027
       3 <- 39        -0.00019
       3 <- 41        -0.00016
       3 <- 48        -0.00017
       3 <- 51        -0.00027
       3 <- 54         0.00019
       4 <- 10         0.00556
       4 <- 11         0.00329
       4 <- 14         0.00462
       4 <- 15         0.00147
       4 <- 19         0.00063
       4 <- 20         0.00364
       4 <- 21         0.00088
       4 <- 25         0.00414
       4 <- 26        -0.00036
       4 <- 32        -0.00078
       4 <- 34        -0.00091
       4 <- 38        -0.00027
       4 <- 39         0.00060
       4 <- 45        -0.00030
       4 <- 48        -0.00021
       5 <- 12         0.00269
       5 <- 16         0.00132
       5 <- 18         0.00411
       5 <- 23         0.00049
       5 <- 24         0.00241
       5 <- 29         0.00014
       5 <- 33        -0.00030
       5 <- 35         0.00080
       5 <- 42        -0.00018
       5 <- 50        -0.00028
       5 <- 53        -0.00013
       6 <-  9         0.00262
       6 <- 13         0.00163
       6 <- 17         0.00220
       6 <- 22         0.00255
       6 <- 28         0.00028
       6 <- 31         0.00065
       6 <- 37         0.00043
       6 <- 43         0.00047
       6 <- 49        -0.00032
       7 <- 10         0.00436
       7 <- 11        -0.00103
       7 <- 14         0.00157
       7 <- 15        -0.00043
       7 <- 19         0.00293
       7 <- 20         0.00200
       7 <- 21         0.00051
       7 <- 25         0.00123
       7 <- 26        -0.00038
       7 <- 30         0.00013
       7 <- 32         0.00032
       7 <- 34        -0.00065
       7 <- 39         0.00027
       7 <- 41         0.00012
       7 <- 51         0.00045
       8 <- 12        -0.00307
       8 <- 16         0.00718
       8 <- 18        -0.00840
       8 <- 23        -0.00018
       8 <- 24        -0.00231
       8 <- 29         0.00124
       8 <- 33         0.00107
       8 <- 35        -0.00163
       8 <- 42         0.00106
       8 <- 47        -0.00048
       8 <- 50        -0.00014
       8 <- 53        -0.00016
 
 Excited State   5:      Singlet-A2     7.6835 eV  161.36 nm  f=0.0000  <S**2>=0.000
       3 -> 27        -0.00136
       3 -> 36        -0.00116
       3 -> 46        -0.00061
       4 -> 27        -0.00047
       4 -> 36         0.00068
       4 -> 46         0.00021
       5 ->  9        -0.00947
       5 -> 13         0.00547
       5 -> 17         0.00348
       5 -> 22         0.00044
       5 -> 28        -0.00014
       5 -> 31        -0.00215
       5 -> 37        -0.00209
       5 -> 43        -0.00030
       5 -> 52        -0.00033
       6 -> 12        -0.00033
       6 -> 16         0.00207
       6 -> 18         0.00083
       6 -> 23        -0.00109
       6 -> 24        -0.00025
       6 -> 29         0.00032
       6 -> 35        -0.00031
       6 -> 42        -0.00028
       6 -> 47        -0.00027
       6 -> 53        -0.00015
       7 -> 36         0.00025
       7 -> 46        -0.00064
       8 ->  9         0.11932
       8 -> 13         0.69654
       8 -> 17         0.00127
       8 -> 22         0.02207
       8 -> 28        -0.00128
       8 -> 31        -0.00138
       8 -> 37         0.00063
       8 -> 43         0.00013
       8 -> 49         0.00017
       8 -> 52        -0.00038
       3 <- 27        -0.00077
       3 <- 36        -0.00092
       3 <- 46        -0.00071
       4 <- 27        -0.00101
       4 <- 46         0.00023
       5 <-  9        -0.00029
       5 <- 17         0.00060
       5 <- 22        -0.00011
       5 <- 31         0.00016
       5 <- 37        -0.00063
       5 <- 43        -0.00017
       5 <- 52        -0.00011
       6 <- 12        -0.00053
       6 <- 16         0.00050
       6 <- 18         0.00063
       6 <- 23        -0.00219
       6 <- 24         0.00014
       6 <- 33         0.00065
       6 <- 35        -0.00116
       6 <- 40         0.00011
       6 <- 42        -0.00063
       6 <- 47        -0.00011
       6 <- 53        -0.00031
       7 <- 27        -0.00032
       7 <- 36         0.00026
       7 <- 46        -0.00030
       8 <-  9         0.00585
       8 <- 17         0.00057
       8 <- 22        -0.00047
       8 <- 28         0.00020
       8 <- 31        -0.00071
       8 <- 37         0.00072
       8 <- 52        -0.00015
 
 Excited State   6:      Singlet-B2    10.0542 eV  123.32 nm  f=0.2724  <S**2>=0.000
       3 -> 12        -0.00041
       3 -> 16         0.00176
       3 -> 18        -0.00050
       3 -> 23         0.00137
       3 -> 24         0.00070
       3 -> 29         0.00129
       3 -> 33        -0.00090
       3 -> 35         0.00011
       3 -> 40         0.00034
       3 -> 42         0.00065
       3 -> 47         0.00032
       3 -> 50         0.00016
       4 -> 12        -0.01268
       4 -> 16         0.00600
       4 -> 18         0.00107
       4 -> 23        -0.01455
       4 -> 24         0.01138
       4 -> 33         0.00257
       4 -> 35        -0.00331
       4 -> 40        -0.00037
       4 -> 42         0.00242
       4 -> 47         0.00015
       5 -> 10         0.01138
       5 -> 11        -0.00715
       5 -> 14         0.02728
       5 -> 15         0.00756
       5 -> 19         0.00502
       5 -> 20        -0.01481
       5 -> 21         0.01475
       5 -> 25         0.00731
       5 -> 26        -0.00198
       5 -> 30        -0.00122
       5 -> 32         0.00295
       5 -> 34         0.00265
       5 -> 38         0.00021
       5 -> 39        -0.00221
       5 -> 41        -0.00019
       5 -> 44         0.00047
       5 -> 51        -0.00020
       6 -> 27         0.00756
       6 -> 36         0.00039
       6 -> 46        -0.00050
       7 -> 12         0.00235
       7 -> 16         0.00535
       7 -> 18         0.00822
       7 -> 23        -0.00731
       7 -> 24         0.00652
       7 -> 29         0.00135
       7 -> 33         0.00168
       7 -> 35        -0.00094
       7 -> 40        -0.00047
       7 -> 42         0.00083
       7 -> 47        -0.00041
       7 -> 50        -0.00019
       8 -> 10         0.01306
       8 -> 11         0.01419
       8 -> 14         0.70339
       8 -> 15        -0.04668
       8 -> 19         0.02082
       8 -> 20         0.01246
       8 -> 21        -0.03706
       8 -> 25        -0.00990
       8 -> 26        -0.00093
       8 -> 30        -0.00064
       8 -> 32         0.00394
       8 -> 34         0.00273
       8 -> 38         0.00042
       8 -> 39         0.00490
       8 -> 41        -0.00175
       8 -> 44        -0.00130
       8 -> 45        -0.00103
       8 -> 48        -0.00089
       3 <- 12        -0.00028
       3 <- 16         0.00082
       3 <- 18        -0.00033
       3 <- 23         0.00064
       3 <- 24         0.00046
       3 <- 29         0.00074
       3 <- 33        -0.00053
       3 <- 40         0.00024
       3 <- 42         0.00051
       3 <- 47         0.00032
       3 <- 50         0.00010
       3 <- 53        -0.00011
       4 <- 12        -0.00233
       4 <- 16         0.00196
       4 <- 18         0.00277
       4 <- 23        -0.00766
       4 <- 24         0.00661
       4 <- 29         0.00014
       4 <- 33         0.00089
       4 <- 35        -0.00233
       4 <- 40        -0.00046
       4 <- 42         0.00170
       4 <- 50         0.00019
       5 <- 10         0.00357
       5 <- 11        -0.00153
       5 <- 14         0.01058
       5 <- 15         0.00318
       5 <- 19         0.00226
       5 <- 20        -0.00601
       5 <- 21         0.00750
       5 <- 25         0.00434
       5 <- 26        -0.00144
       5 <- 30        -0.00117
       5 <- 32         0.00199
       5 <- 34         0.00081
       5 <- 38         0.00021
       5 <- 39        -0.00163
       5 <- 44         0.00028
       5 <- 45         0.00012
       5 <- 51        -0.00013
       6 <- 27         0.00495
       6 <- 46        -0.00059
       7 <- 12         0.00033
       7 <- 16         0.00167
       7 <- 18         0.00281
       7 <- 23        -0.00346
       7 <- 24         0.00312
       7 <- 29         0.00098
       7 <- 33         0.00094
       7 <- 35        -0.00058
       7 <- 40        -0.00046
       7 <- 42         0.00056
       7 <- 47        -0.00034
       8 <- 10        -0.01209
       8 <- 11        -0.00582
       8 <- 14        -0.02684
       8 <- 15        -0.00228
       8 <- 19         0.00219
       8 <- 20         0.00442
       8 <- 21        -0.01832
       8 <- 25        -0.00663
       8 <- 26         0.00015
       8 <- 30        -0.00056
       8 <- 32         0.00178
       8 <- 34         0.00094
       8 <- 38         0.00034
       8 <- 39         0.00307
       8 <- 41        -0.00123
       8 <- 44        -0.00102
       8 <- 45        -0.00042
       8 <- 48        -0.00067
 
 Excited State   7:      Singlet-B2    10.4203 eV  118.98 nm  f=0.0174  <S**2>=0.000
       3 -> 16         0.00059
       3 -> 18        -0.00038
       3 -> 23         0.00135
       3 -> 24         0.00015
       3 -> 29         0.00052
       3 -> 33        -0.00028
       3 -> 35         0.00044
       3 -> 42         0.00028
       4 -> 12        -0.00255
       4 -> 16        -0.00208
       4 -> 18         0.00081
       4 -> 23        -0.00466
       4 -> 24        -0.00076
       4 -> 33        -0.00080
       4 -> 35        -0.00018
       4 -> 40         0.00020
       4 -> 42         0.00023
       4 -> 47         0.00020
       4 -> 50         0.00012
       5 -> 10         0.00036
       5 -> 11         0.00730
       5 -> 14         0.00276
       5 -> 15         0.01305
       5 -> 19         0.00041
       5 -> 20        -0.00211
       5 -> 21         0.00027
       5 -> 26        -0.00351
       5 -> 30        -0.00114
       5 -> 32         0.00129
       5 -> 34        -0.00054
       5 -> 38         0.00052
       5 -> 39         0.00027
       5 -> 41        -0.00064
       5 -> 44         0.00061
       5 -> 45         0.00031
       5 -> 48        -0.00028
       5 -> 51         0.00014
       5 -> 54         0.00020
       6 -> 27         0.00110
       6 -> 36         0.00018
       6 -> 46        -0.00043
       7 -> 18         0.00027
       7 -> 23         0.00146
       7 -> 24         0.00111
       7 -> 29         0.00096
       7 -> 35         0.00028
       7 -> 40        -0.00024
       7 -> 42         0.00033
       7 -> 47        -0.00021
       7 -> 50        -0.00029
       8 -> 10        -0.01002
       8 -> 11         0.02391
       8 -> 14         0.04557
       8 -> 15         0.70442
       8 -> 19         0.01803
       8 -> 20        -0.01504
       8 -> 21        -0.01220
       8 -> 25         0.00549
       8 -> 26        -0.00750
       8 -> 30        -0.00062
       8 -> 32         0.00024
       8 -> 34        -0.00035
       8 -> 38         0.00106
       8 -> 39         0.00017
       8 -> 41        -0.00035
       8 -> 44        -0.00045
       8 -> 45         0.00034
       8 -> 54         0.00018
       3 <- 12        -0.00024
       3 <- 16         0.00072
       3 <- 18        -0.00049
       3 <- 23         0.00065
       3 <- 24        -0.00039
       3 <- 29         0.00062
       3 <- 33        -0.00027
       3 <- 35         0.00038
       3 <- 42         0.00016
       4 <- 16         0.00016
       4 <- 18         0.00084
       4 <- 23        -0.00092
       4 <- 24         0.00079
       4 <- 29         0.00022
       4 <- 33        -0.00069
       4 <- 35        -0.00036
       4 <- 40         0.00012
       4 <- 47         0.00019
       4 <- 50         0.00019
       5 <- 10         0.00081
       5 <- 11        -0.00063
       5 <- 14         0.00125
       5 <- 15         0.00078
       5 <- 19         0.00130
       5 <- 20        -0.00112
       5 <- 21         0.00038
       5 <- 25         0.00066
       5 <- 26        -0.00038
       5 <- 30        -0.00038
       5 <- 32         0.00077
       5 <- 38        -0.00015
       5 <- 39         0.00011
       5 <- 41        -0.00014
       5 <- 44         0.00025
       5 <- 45         0.00013
       5 <- 48        -0.00022
       6 <- 27         0.00049
       6 <- 36         0.00024
       6 <- 46        -0.00021
       7 <- 12         0.00038
       7 <- 16        -0.00096
       7 <- 18         0.00077
       7 <- 24         0.00102
       7 <- 29        -0.00049
       7 <- 40        -0.00014
       7 <- 42         0.00030
       7 <- 47        -0.00028
       7 <- 50        -0.00044
       7 <- 53        -0.00018
       8 <- 10        -0.00219
       8 <- 11        -0.00133
       8 <- 14        -0.00383
       8 <- 15         0.00087
       8 <- 19         0.00055
       8 <- 20         0.00127
       8 <- 21        -0.00142
       8 <- 25        -0.00118
       8 <- 26         0.00029
       8 <- 30         0.00060
       8 <- 32         0.00036
       8 <- 34        -0.00013
       8 <- 38         0.00082
       8 <- 41        -0.00023
       8 <- 44        -0.00032
       8 <- 45         0.00018
       8 <- 48        -0.00017
       8 <- 51        -0.00015
 
 Excited State   8:      Singlet-A1    11.4199 eV  108.57 nm  f=0.0004  <S**2>=0.000
       3 -> 10        -0.00058
       3 -> 11         0.00147
       3 -> 14         0.00135
       3 -> 15        -0.00199
       3 -> 19        -0.00219
       3 -> 20         0.00152
       3 -> 21         0.00210
       3 -> 25        -0.00184
       3 -> 26        -0.00019
       3 -> 30         0.00071
       3 -> 32        -0.00120
       3 -> 34         0.00276
       3 -> 38        -0.00038
       3 -> 39        -0.00024
       3 -> 41         0.00123
       3 -> 44        -0.00029
       3 -> 45        -0.00088
       3 -> 48        -0.00037
       3 -> 51        -0.00040
       3 -> 54         0.00028
       4 -> 10        -0.02153
       4 -> 11        -0.00740
       4 -> 14        -0.00846
       4 -> 15        -0.00979
       4 -> 19        -0.00127
       4 -> 20        -0.01092
       4 -> 21        -0.00026
       4 -> 25        -0.00309
       4 -> 26         0.00390
       4 -> 30        -0.00100
       4 -> 32         0.00323
       4 -> 34        -0.00105
       4 -> 38         0.00031
       4 -> 39        -0.00088
       4 -> 45         0.00056
       4 -> 51        -0.00036
       4 -> 54        -0.00030
       5 -> 12        -0.01062
       5 -> 16        -0.00180
       5 -> 18        -0.00940
       5 -> 23        -0.00320
       5 -> 24        -0.00712
       5 -> 29        -0.00234
       5 -> 33        -0.00097
       5 -> 42         0.00139
       5 -> 47        -0.00052
       5 -> 50        -0.00063
       5 -> 53        -0.00027
       6 ->  9        -0.09308
       6 -> 13         0.00027
       6 -> 17        -0.02741
       6 -> 22        -0.00431
       6 -> 28        -0.00977
       6 -> 31         0.00012
       6 -> 37         0.00046
       6 -> 43         0.00041
       6 -> 49        -0.00122
       6 -> 52        -0.00114
       7 -> 10        -0.05294
       7 -> 11         0.02169
       7 -> 14        -0.00406
       7 -> 15         0.01756
       7 -> 19        -0.01776
       7 -> 20        -0.00695
       7 -> 21        -0.00304
       7 -> 25        -0.00233
       7 -> 26        -0.01009
       7 -> 30        -0.00463
       7 -> 32        -0.00319
       7 -> 34         0.00072
       7 -> 38         0.00085
       7 -> 39        -0.00037
       7 -> 41         0.00066
       7 -> 44        -0.00027
       7 -> 45        -0.00035
       7 -> 48         0.00084
       7 -> 51         0.00169
       7 -> 54         0.00074
       8 -> 12        -0.03621
       8 -> 16         0.66559
       8 -> 18         0.20280
       8 -> 23         0.00825
       8 -> 24         0.01033
       8 -> 29        -0.00385
       8 -> 33         0.00046
       8 -> 35         0.00125
       8 -> 40         0.00029
       8 -> 42        -0.00052
       8 -> 47        -0.00044
       8 -> 50        -0.00093
       8 -> 53        -0.00034
       3 <- 10        -0.00048
       3 <- 11         0.00099
       3 <- 14         0.00048
       3 <- 15        -0.00102
       3 <- 19        -0.00167
       3 <- 20         0.00081
       3 <- 21         0.00112
       3 <- 25        -0.00094
       3 <- 30         0.00032
       3 <- 32        -0.00097
       3 <- 34         0.00197
       3 <- 38        -0.00030
       3 <- 39        -0.00017
       3 <- 41         0.00103
       3 <- 44        -0.00025
[...]
  54        6D-1       -0.00000   0.00000  -0.00332  -0.00320   0.00316
  55        6D+2        0.00000   0.00000  -0.00010  -0.00017  -0.00002
  56        6D-2        0.00000   0.00000   0.00000   0.00000   0.00000
                          26        27        28        29        30
  26        4PX         0.00015
  27        4PY         0.00000   0.00135
  28        4PZ         0.00000  -0.00054   0.00035
  29 3   H  1S          0.00000  -0.00365  -0.00104   0.08403
  30        2S          0.00000  -0.00520  -0.00166   0.12582   0.19358
  31        3S          0.00000  -0.00139  -0.00121   0.07562   0.12917
  32        4PX         0.00015   0.00000   0.00000   0.00000   0.00000
  33        4PY         0.00000  -0.00073   0.00001   0.00714   0.00922
  34        4PZ         0.00000  -0.00001  -0.00017   0.00425   0.00575
  35 4   O  1S          0.00000  -0.00098  -0.00067   0.00349   0.00499
  36        2S          0.00000  -0.00205  -0.00047   0.00604   0.00933
  37        2PX         0.00420   0.00000   0.00000   0.00000   0.00000
  38        2PY         0.00000  -0.00555   0.00319   0.02715   0.06444
  39        2PZ         0.00000  -0.00475  -0.00011   0.00893   0.02049
  40        3S          0.00000   0.00751  -0.00080  -0.02037  -0.03275
  41        3PX         0.00608   0.00000   0.00000   0.00000   0.00000
  42        3PY         0.00000  -0.00795   0.00452   0.04041   0.09491
  43        3PZ         0.00000  -0.00675  -0.00015   0.01279   0.02918
  44        4S          0.00000   0.00351  -0.00115  -0.01757  -0.02024
  45        4PX         0.00412   0.00000   0.00000   0.00000   0.00000
  46        4PY         0.00000  -0.00531   0.00220   0.05793   0.11660
  47        4PZ         0.00000  -0.00305  -0.00002   0.00687   0.01444
  48        5S          0.00000   0.00021  -0.00048  -0.00573  -0.00485
  49        5PX         0.00010   0.00000   0.00000   0.00000   0.00000
  50        5PY         0.00000  -0.00021  -0.00081   0.03607   0.06270
  51        5PZ         0.00000  -0.00090   0.00019   0.00412   0.00578
  52        6D 0        0.00000   0.00097  -0.00002  -0.00213  -0.00427
  53        6D+1       -0.00061   0.00000   0.00000   0.00000   0.00000
  54        6D-1        0.00000   0.00079  -0.00064   0.00332   0.00320
  55        6D+2        0.00000   0.00004  -0.00000  -0.00010  -0.00017
  56        6D-2       -0.00000   0.00000   0.00000   0.00000   0.00000
                          31        32        33        34        35
  31        3S          0.12483
  32        4PX         0.00000   0.00015
  33        4PY         0.00037   0.00000   0.00135
  34        4PZ         0.00179   0.00000   0.00054   0.00035
  35 4   O  1S          0.00210   0.00000   0.00098  -0.00067   0.63937
  36        2S          0.00248   0.00000   0.00205  -0.00047   0.56905
  37        2PX         0.00000   0.00420   0.00000   0.00000   0.00000
  38        2PY         0.10752   0.00000  -0.00555  -0.00319   0.00000
  39        2PZ        -0.00212   0.00000   0.00475  -0.00011  -0.00500
  40        3S         -0.00456   0.00000  -0.00751  -0.00080  -0.12567
  41        3PX         0.00000   0.00608   0.00000   0.00000   0.00000
  42        3PY         0.15656   0.00000  -0.00795  -0.00452   0.00000
  43        3PZ        -0.00293   0.00000   0.00675  -0.00015  -0.00895
  44        4S         -0.00708   0.00000  -0.00351  -0.00115  -0.12522
  45        4PX         0.00000   0.00412   0.00000   0.00000   0.00000
  46        4PY         0.15661   0.00000  -0.00531  -0.00220   0.00000
  47        4PZ        -0.00135   0.00000   0.00305  -0.00002  -0.01371
  48        5S         -0.00232   0.00000  -0.00021  -0.00048  -0.01146
  49        5PX         0.00000   0.00010   0.00000   0.00000   0.00000
  50        5PY         0.06301   0.00000  -0.00021   0.00081  -0.00000
  51        5PZ         0.00058   0.00000   0.00090   0.00019   0.00286
  52        6D 0        0.00014   0.00000  -0.00097  -0.00002  -0.00249
  53        6D+1        0.00000  -0.00061   0.00000   0.00000   0.00000
  54        6D-1       -0.00316   0.00000   0.00079   0.00064   0.00000
  55        6D+2       -0.00002   0.00000  -0.00004  -0.00000  -0.00051
  56        6D-2        0.00000   0.00000   0.00000   0.00000   0.00000
                          36        37        38        39        40
  36        2S          0.52393
  37        2PX         0.00000   0.11839
  38        2PY         0.00000   0.00000   0.17810
  39        2PZ        -0.00752   0.00000   0.00000   0.17722
  40        3S         -0.21770   0.00000   0.00000   0.02418   0.66666
  41        3PX         0.00000   0.17156   0.00000   0.00000   0.00000
  42        3PY         0.00000   0.00000   0.25716  -0.00000  -0.00000
  43        3PZ        -0.01098   0.00000   0.00000   0.24921   0.02644
  44        4S         -0.19920   0.00000   0.00000   0.16620   0.56122
  45        4PX         0.00000   0.11632   0.00000   0.00000   0.00000
  46        4PY         0.00000   0.00000   0.21338  -0.00000  -0.00000
  47        4PZ        -0.02173   0.00000   0.00000   0.12278   0.06342
  48        5S         -0.01933   0.00000   0.00000   0.05979   0.05963
  49        5PX         0.00000   0.00278   0.00000   0.00000   0.00000
  50        5PY        -0.00000   0.00000   0.05385  -0.00000   0.00000
  51        5PZ         0.00388   0.00000   0.00000   0.00807  -0.00866
  52        6D 0       -0.00528  -0.00000  -0.00000  -0.02512   0.01844
  53        6D+1        0.00000  -0.01722   0.00000   0.00000   0.00000
  54        6D-1        0.00000   0.00000  -0.01555   0.00000  -0.00000
  55        6D+2       -0.00094  -0.00000  -0.00000  -0.00013   0.00300
  56        6D-2        0.00000   0.00000   0.00000   0.00000   0.00000
                          41        42        43        44        45
  41        3PX         0.24861
  42        3PY         0.00000   0.37135
  43        3PZ         0.00000   0.00000   0.35058
  44        4S          0.00000   0.00000   0.22761   0.59622
  45        4PX         0.16856   0.00000   0.00000   0.00000   0.11428
  46        4PY         0.00000   0.30872  -0.00000  -0.00000   0.00000
  47        4PZ         0.00000   0.00000   0.17217   0.15234   0.00000
  48        5S          0.00000   0.00000   0.08351   0.09980   0.00000
  49        5PX         0.00403   0.00000   0.00000   0.00000   0.00273
  50        5PY         0.00000   0.07844  -0.00000   0.00000   0.00000
  51        5PZ         0.00000   0.00000   0.01143  -0.00133   0.00000
  52        6D 0       -0.00000  -0.00000  -0.03558  -0.00580  -0.00000
  53        6D+1       -0.02495   0.00000   0.00000   0.00000  -0.01692
  54        6D-1        0.00000  -0.02231   0.00000   0.00000   0.00000
  55        6D+2       -0.00000  -0.00000  -0.00022   0.00232  -0.00000
  56        6D-2        0.00000   0.00000   0.00000   0.00000   0.00000
                          46        47        48        49        50
  46        4PY         0.26876
  47        4PZ         0.00000   0.08858
  48        5S          0.00000   0.04456   0.02588
  49        5PX         0.00000   0.00000   0.00000   0.00007
  50        5PY         0.07892  -0.00000  -0.00000   0.00000   0.03208
  51        5PZ         0.00000   0.00513   0.00114   0.00000   0.00000
  52        6D 0       -0.00000  -0.01587  -0.00674   0.00000  -0.00000
  53        6D+1        0.00000   0.00000   0.00000  -0.00040   0.00000
  54        6D-1       -0.01569   0.00000   0.00000   0.00000  -0.00147
  55        6D+2       -0.00000   0.00013   0.00019   0.00000  -0.00000
  56        6D-2        0.00000   0.00000   0.00000   0.00000  -0.00000
                          51        52        53        54        55
  51        5PZ         0.00091
  52        6D 0       -0.00148   0.00429
  53        6D+1        0.00000   0.00000   0.00250
  54        6D-1        0.00000   0.00000   0.00000   0.00202
  55        6D+2       -0.00005   0.00012   0.00000   0.00000   0.00001
  56        6D-2        0.00000   0.00000  -0.00000  -0.00000   0.00000
                          56
  56        6D-2        0.00000
          Condensed to atoms (all electrons):
               1          2          3          4
     1  C    4.586963   0.434939   0.434939   0.378827
     2  H    0.434939   0.842368  -0.160219  -0.139565
     3  H    0.434939  -0.160219   0.842368  -0.139565
     4  O    0.378827  -0.139565  -0.139565   8.109587
 Mulliken charges:
               1
     1  C    0.164332
     2  H    0.022476
     3  H    0.022476
     4  O   -0.209284
 Sum of Mulliken charges =   0.00000
 Mulliken charges with hydrogens summed into heavy atoms:
               1
     1  C    0.209284
     4  O   -0.209284
 Electronic spatial extent (au):  <R**2>=             51.9654
 Charge=              0.0000 electrons
 Dipole moment (field-independent basis, Debye):
    X=              0.0000    Y=             -0.0000    Z=             -0.9049  Tot=              0.9049
 Quadrupole moment (field-independent basis, Debye-Ang):
   XX=            -10.9364   YY=            -12.1668   ZZ=            -13.0974
   XY=             -0.0000   XZ=             -0.0000   YZ=             -0.0000
 Traceless Quadrupole moment (field-independent basis, Debye-Ang):
   XX=              1.1305   YY=             -0.0999   ZZ=             -1.0305
   XY=             -0.0000   XZ=             -0.0000   YZ=             -0.0000
 Octapole moment (field-independent basis, Debye-Ang**2):
  XXX=              0.0000  YYY=              0.0000  ZZZ=              3.0766  XYY=              0.0000
  XXY=              0.0000  XXZ=              1.1127  XZZ=              0.0000  YZZ=              0.0000
  YYZ=              1.7850  XYZ=              0.0000
 Hexadecapole moment (field-independent basis, Debye-Ang**3):
 XXXX=             -9.1193 YYYY=            -22.7974 ZZZZ=            -38.8212 XXXY=             -0.0000
 XXXZ=             -0.0000 YYYX=             -0.0000 YYYZ=              0.0000 ZZZX=             -0.0000
 ZZZY=             -0.0000 XXYY=             -5.4002 XXZZ=             -7.7573 YYZZ=            -11.2696
 XXYZ=              0.0000 YYXZ=             -0.0000 ZZXY=             -0.0000
 N-N= 3.774996814659D+01 E-N=-3.452118892066D+02  KE= 1.159520263887D+02
 Symmetry A1   KE= 1.050639663055D+02
 Symmetry A2   KE= 6.347178494130D-36
 Symmetry B1   KE= 4.064233570753D+00
 Symmetry B2   KE= 6.823826512483D+00
 Leave Link  601 at Fri Sep 17 10:52:33 2021, MaxMem=   268435456 cpu:               0.0 elap:               0.0
 (Enter /software/gaussian/g16-a03/l9999.exe)
 Electronic transition elements 
                 1             2             3             4             5 
      1  -0.114143D+03 -0.114115D+03 -0.114086D+03 -0.114081D+03 -0.114058D+03
      2   0.000000D+00  0.000000D+00  0.000000D+00  0.000000D+00  0.000000D+00
      3   0.000000D+00  0.717134D+00  0.351800D+00  0.000000D+00  0.000000D+00
      4   0.000000D+00  0.000000D+00  0.000000D+00 -0.523978D+00  0.000000D+00
      5   0.000000D+00  0.000000D+00  0.000000D+00  0.000000D+00  0.000000D+00
      6   0.000000D+00 -0.157898D+00 -0.918265D-01  0.000000D+00  0.000000D+00
      7   0.000000D+00  0.000000D+00  0.000000D+00  0.129649D+00  0.000000D+00
      8   0.000000D+00 -0.436822D+00  0.795324D+00  0.000000D+00  0.000000D+00
      9   0.000000D+00  0.000000D+00  0.000000D+00  0.000000D+00  0.000000D+00
     10   0.128053D+01  0.000000D+00  0.000000D+00  0.000000D+00 -0.341766D+00
     11   0.000000D+00  0.000000D+00  0.000000D+00 -0.169630D+00  0.000000D+00
     12   0.000000D+00  0.000000D+00  0.000000D+00 -0.616231D+00  0.000000D+00
     13   0.000000D+00  0.000000D+00  0.000000D+00 -0.204866D+00  0.000000D+00
     14  -0.216277D+00  0.000000D+00  0.000000D+00  0.000000D+00 -0.124199D+00
     15   0.000000D+00  0.000000D+00  0.000000D+00  0.000000D+00  0.000000D+00
     16   0.000000D+00  0.524048D+00  0.234491D+00  0.000000D+00  0.000000D+00
                 6             7             8             9            10 
      1  -0.113970D+03 -0.113957D+03 -0.113920D+03 -0.113917D+03 -0.113895D+03
      2   0.000000D+00  0.000000D+00  0.000000D+00  0.000000D+00  0.000000D+00
      3   0.105152D+01  0.261337D+00  0.000000D+00  0.000000D+00  0.000000D+00
      4   0.000000D+00  0.000000D+00  0.399635D-01  0.000000D+00 -0.736800D+00
      5   0.000000D+00  0.000000D+00  0.000000D+00  0.000000D+00  0.000000D+00
      6  -0.391307D+00 -0.677986D-01  0.000000D+00  0.000000D+00  0.000000D+00
      7   0.000000D+00  0.000000D+00 -0.208710D-01  0.000000D+00  0.329043D+00
      8  -0.824461D+00 -0.944358D+00  0.000000D+00  0.000000D+00  0.000000D+00
      9   0.000000D+00  0.000000D+00  0.000000D+00  0.000000D+00  0.000000D+00
     10   0.000000D+00  0.000000D+00  0.000000D+00  0.951608D-01  0.000000D+00
     11   0.000000D+00  0.000000D+00  0.126750D+00  0.000000D+00  0.175388D+00
     12   0.000000D+00  0.000000D+00  0.731532D+00  0.000000D+00 -0.499440D+00
     13   0.000000D+00  0.000000D+00  0.729338D+00  0.000000D+00 -0.590367D+00
     14   0.000000D+00  0.000000D+00  0.000000D+00  0.259236D+00  0.000000D+00
     15   0.000000D+00  0.000000D+00  0.000000D+00  0.000000D+00  0.000000D+00
     16   0.908176D+00 -0.158750D+00  0.000000D+00  0.000000D+00  0.000000D+00
                11            12            13            14            15 
      1  -0.113879D+03 -0.113869D+03 -0.113850D+03 -0.113837D+03 -0.113826D+03
      2  -0.565907D-01  0.000000D+00  0.000000D+00 -0.345428D+00  0.000000D+00
      3   0.000000D+00 -0.359236D+00  0.000000D+00  0.000000D+00  0.000000D+00
      4   0.000000D+00  0.000000D+00 -0.844526D-01  0.000000D+00  0.824011D+00
      5   0.163572D-01  0.000000D+00  0.000000D+00  0.177397D+00  0.000000D+00
      6   0.000000D+00  0.175539D+00  0.000000D+00  0.000000D+00  0.000000D+00
      7   0.000000D+00  0.000000D+00  0.403384D-01  0.000000D+00 -0.423033D+00
      8   0.000000D+00 -0.457122D+00  0.000000D+00  0.000000D+00  0.000000D+00
      9  -0.117393D+01  0.000000D+00  0.000000D+00 -0.484162D-01  0.000000D+00
     10   0.000000D+00  0.000000D+00  0.000000D+00  0.000000D+00  0.000000D+00
     11   0.000000D+00  0.000000D+00  0.128419D+00  0.000000D+00  0.140557D+00
     12   0.000000D+00  0.000000D+00  0.366957D+00  0.000000D+00  0.174611D+00
     13   0.000000D+00  0.000000D+00  0.497888D+00  0.000000D+00  0.177782D+00
     14   0.000000D+00  0.000000D+00  0.000000D+00  0.000000D+00  0.000000D+00
     15  -0.457833D+00  0.000000D+00  0.000000D+00 -0.144141D-01  0.000000D+00
     16   0.000000D+00  0.774353D-01  0.000000D+00  0.000000D+00  0.000000D+00
                16            17            18            19            20 
      1  -0.113822D+03 -0.113816D+03 -0.113811D+03 -0.113805D+03 -0.113805D+03
      2   0.000000D+00  0.000000D+00  0.000000D+00  0.000000D+00  0.213564D+00
      3  -0.357706D+00  0.000000D+00  0.000000D+00  0.000000D+00  0.000000D+00
      4   0.000000D+00  0.000000D+00  0.439962D+00  0.000000D+00  0.000000D+00
      5   0.000000D+00  0.000000D+00  0.000000D+00  0.000000D+00 -0.121053D+00
      6   0.185115D+00  0.000000D+00  0.000000D+00  0.000000D+00  0.000000D+00
      7   0.000000D+00  0.000000D+00 -0.225568D+00  0.000000D+00  0.000000D+00
      8  -0.310178D+00  0.000000D+00  0.000000D+00  0.000000D+00  0.000000D+00
      9   0.000000D+00  0.000000D+00  0.000000D+00  0.000000D+00 -0.239588D+00
     10   0.000000D+00 -0.363350D+00  0.000000D+00  0.702946D-01  0.000000D+00
     11   0.000000D+00  0.000000D+00  0.711219D+00  0.000000D+00  0.000000D+00
     12   0.000000D+00  0.000000D+00  0.648623D+00  0.000000D+00  0.000000D+00
     13   0.000000D+00  0.000000D+00  0.210489D+00  0.000000D+00  0.000000D+00
     14   0.000000D+00  0.281307D+00  0.000000D+00  0.224799D+00  0.000000D+00
     15   0.000000D+00  0.000000D+00  0.000000D+00  0.000000D+00 -0.346768D+00
     16   0.832880D-01  0.000000D+00  0.000000D+00  0.000000D+00  0.000000D+00
                21            22            23            24            25 
      1  -0.113795D+03 -0.113782D+03 -0.113781D+03 -0.113768D+03 -0.113764D+03
      2  -0.238506D+00  0.000000D+00  0.000000D+00  0.000000D+00 -0.644144D+00
      3   0.000000D+00 -0.509784D+00  0.266565D-01  0.000000D+00  0.000000D+00
      4   0.000000D+00  0.000000D+00  0.000000D+00 -0.605225D+00  0.000000D+00
      5   0.122570D+00  0.000000D+00  0.000000D+00  0.000000D+00  0.380581D+00
      6   0.000000D+00  0.277918D+00 -0.237291D-01  0.000000D+00  0.000000D+00
      7   0.000000D+00  0.000000D+00  0.000000D+00  0.348558D+00  0.000000D+00
      8   0.000000D+00  0.822859D+00  0.921706D+00  0.000000D+00  0.000000D+00
      9   0.791013D+00  0.000000D+00  0.000000D+00  0.000000D+00 -0.479505D+00
     10   0.000000D+00  0.000000D+00  0.000000D+00  0.000000D+00  0.000000D+00
     11   0.000000D+00  0.000000D+00  0.000000D+00  0.144047D+00  0.000000D+00
     12   0.000000D+00  0.000000D+00  0.000000D+00 -0.628915D+00  0.000000D+00
     13   0.000000D+00  0.000000D+00  0.000000D+00 -0.159883D+00  0.000000D+00
     14   0.000000D+00  0.000000D+00  0.000000D+00  0.000000D+00  0.000000D+00
     15   0.350851D+00  0.000000D+00  0.000000D+00  0.000000D+00 -0.503764D+00
     16   0.000000D+00 -0.321321D+00  0.227835D-02  0.000000D+00  0.000000D+00
                26            27            28            29            30 
      1  -0.113755D+03 -0.113749D+03 -0.113735D+03 -0.113728D+03 -0.113727D+03
      2   0.000000D+00  0.000000D+00  0.000000D+00  0.000000D+00  0.000000D+00
      3   0.000000D+00  0.172892D+00  0.000000D+00  0.000000D+00 -0.119630D+00
      4   0.129668D+00  0.000000D+00  0.238866D+00  0.454543D+00  0.000000D+00
      5   0.000000D+00  0.000000D+00  0.000000D+00  0.000000D+00  0.000000D+00
      6   0.000000D+00 -0.106106D+00  0.000000D+00  0.000000D+00  0.774740D-01
      7  -0.732513D-01  0.000000D+00 -0.152563D+00 -0.276464D+00  0.000000D+00
      8   0.000000D+00 -0.119969D+00  0.000000D+00  0.000000D+00  0.691959D-01
      9   0.000000D+00  0.000000D+00  0.000000D+00  0.000000D+00  0.000000D+00
     10   0.000000D+00  0.000000D+00  0.000000D+00  0.000000D+00  0.000000D+00
     11   0.257019D+00  0.000000D+00 -0.471470D+00 -0.569580D-01  0.000000D+00
     12  -0.116351D+00  0.000000D+00 -0.110978D+00 -0.249895D+00  0.000000D+00
     13   0.433157D+00  0.000000D+00 -0.105083D+00  0.852246D+00  0.000000D+00
     14   0.000000D+00  0.000000D+00  0.000000D+00  0.000000D+00  0.000000D+00
     15   0.000000D+00  0.000000D+00  0.000000D+00  0.000000D+00  0.000000D+00
     16   0.000000D+00 -0.323458D+00  0.000000D+00  0.000000D+00 -0.422717D+00

 Test job not archived.
 1\1\GINC-BHD0008\SP\RB3LYP TD-FC\6-311+G(d,p)\C1H2O1\BWEIGHT\17-Sep-20
 21\0\\#p B3LYP/6-311+G** #p TD=(singlets,nstates=30)IOp(6/8=3) IOp(9/4
 0=4)\\Scan Step 88, Bond Length 0.94\\0,1\C,0,0.,0.,-0.52736\H,0,0.,0.
 93726,-1.11871\H,0,0.,-0.93726,-1.11871\O,0,0.,0.,0.41264\\Version=ES6
 4L-G16RevA.03\State=1-A1\HF=-114.3399749\RMSD=4.077e-09\PG=C02V [C2(C1
 O1),SGV(H2)]\\@


 THE ENLIGHTENED ONE, BECAUSE HE SAW MANKIND DROWNING  
 IN THE GREAT SEA OF BIRTH, DEATH, AND SORROW, LONGED TO SAVE 
 THEM, FOR THIS HE WAS MOVED TO PITY.                         
 BECAUSE HE SAW MEN OF THE WORLD STRAYING IN FALSE PATHS, AND 
 NONE TO GUIDE THEM, FOR THIS HE WAS MOVED TO PITY.           
                     ..................                       
 BECAUSE HE SAW THE MEN OF THE WORLD PLOUGHING THEIR FIELDS,  
 SOWING THE SEED, TRAFFICKING, HUCKSTERING, BUYING, SELLING,  
 AND AT THE END WINNOWING NOTHING BUT BITTERNESS,             
 FOR THIS HE WAS MOVED TO PITY......                   
                   BUDAH'S PITY - UPSAKA SILA SUTRA           
 Job cpu time:       0 days  0 hours  0 minutes 26.9 seconds.
 Elapsed time:       0 days  0 hours  0 minutes 27.5 seconds.
 File lengths (MBytes):  RWF=     79 Int=      0 D2E=      0 Chk=     32 Scr=      1
 Normal termination of Gaussian 16 at Fri Sep 17 10:52:33 2021.
