 Entering Gaussian System, Link 0=g16
 Initial command:
 /software/gaussian/g16-c01/sse4/g16/l1.exe "/local_scratch/24665381/Gau-11227.inp" -scrdir="/local_scratch/24665381/"
 Entering Link 1 = /software/gaussian/g16-c01/sse4/g16/l1.exe PID=     11229.
  
 Copyright (c) 1988-2019, Gaussian, Inc.  All Rights Reserved.
  
 This is part of the Gaussian(R) 16 program.  It is based on
 the Gaussian(R) 09 system (copyright 2009, Gaussian, Inc.),
 the Gaussian(R) 03 system (copyright 2003, Gaussian, Inc.),
 the Gaussian(R) 98 system (copyright 1998, Gaussian, Inc.),
 the Gaussian(R) 94 system (copyright 1995, Gaussian, Inc.),
 the Gaussian 92(TM) system (copyright 1992, Gaussian, Inc.),
 the Gaussian 90(TM) system (copyright 1990, Gaussian, Inc.),
 the Gaussian 88(TM) system (copyright 1988, Gaussian, Inc.),
 the Gaussian 86(TM) system (copyright 1986, Carnegie Mellon
 University), and the Gaussian 82(TM) system (copyright 1983,
 Carnegie Mellon University). Gaussian is a federally registered
 trademark of Gaussian, Inc.
  
 This software contains proprietary and confidential information,
 including trade secrets, belonging to Gaussian, Inc.
  
 This software is provided under written license and may be
 used, copied, transmitted, or stored only in accord with that
 written license.
  
 The following legend is applicable only to US Government
 contracts under FAR:
  
                    RESTRICTED RIGHTS LEGEND
  
 Use, reproduction and disclosure by the US Government is
 subject to restrictions as set forth in subparagraphs (a)
 and (c) of the Commercial Computer Software - Restricted
 Rights clause in FAR 52.227-19.
  
 Gaussian, Inc.
 340 Quinnipiac St., Bldg. 40, Wallingford CT 06492
  
  
 ---------------------------------------------------------------
 Warning -- This program may not be used in any manner that
 competes with the business of Gaussian, Inc. or will provide
 assistance to any competitor of Gaussian, Inc.  The licensee
 of this program is prohibited from giving any competitor of
 Gaussian, Inc. access to this program.  By using this program,
 the user acknowledges that Gaussian, Inc. is engaged in the
 business of creating and licensing software in the field of
 computational chemistry and represents and warrants to the
 licensee that it is not a competitor of Gaussian, Inc. and that
 it will not use this program in any manner prohibited above.
 ---------------------------------------------------------------
  

 Cite this work as:
 Gaussian 16, Revision C.01,
 M. J. Frisch, G. W. Trucks, H. B. Schlegel, G. E. Scuseria, 
 M. A. Robb, J. R. Cheeseman, G. Scalmani, V. Barone, 
 G. A. Petersson, H. Nakatsuji, X. Li, M. Caricato, A. V. Marenich, 
 J. Bloino, B. G. Janesko, R. Gomperts, B. Mennucci, H. P. Hratchian, 
 J. V. Ortiz, A. F. Izmaylov, J. L. Sonnenberg, D. Williams-Young, 
 F. Ding, F. Lipparini, F. Egidi, J. Goings, B. Peng, A. Petrone, 
 T. Henderson, D. Ranasinghe, V. G. Zakrzewski, J. Gao, N. Rega, 
 G. Zheng, W. Liang, M. Hada, M. Ehara, K. Toyota, R. Fukuda, 
 J. Hasegawa, M. Ishida, T. Nakajima, Y. Honda, O. Kitao, H. Nakai, 
 T. Vreven, K. Throssell, J. A. Montgomery, Jr., J. E. Peralta, 
 F. Ogliaro, M. J. Bearpark, J. J. Heyd, E. N. Brothers, K. N. Kudin, 
 V. N. Staroverov, T. A. Keith, R. Kobayashi, J. Normand, 
 K. Raghavachari, A. P. Rendell, J. C. Burant, S. S. Iyengar, 
 J. Tomasi, M. Cossi, J. M. Millam, M. Klene, C. Adamo, R. Cammi, 
 J. W. Ochterski, R. L. Martin, K. Morokuma, O. Farkas, 
 J. B. Foresman, and D. J. Fox, Gaussian, Inc., Wallingford CT, 2019.
 
 ******************************************
 Gaussian 16:  ES64L-G16RevC.01  3-Jul-2019
                 2-May-2024 
 ******************************************
 %chk=geometry.chk
 %mem=1GB
 %nprocshared=12
 Will use up to   12 processors via shared memory.
 ---------------------------------------
 #P wB97XD/6-311+G* NoSymm #P Field=Z-19
 ---------------------------------------
 1/38=1,172=1/1;
 2/12=2,15=1,17=6,18=5,40=1/2;
 3/5=4,6=6,7=11,11=2,14=3,15=-19,25=1,30=1,74=-58/1,2,3;
 4//1;
 5/5=2,38=5/2;
 6/7=2,8=2,9=2,10=2,28=1/1;
 99/5=1,9=1/99;
 Leave Link    1 at Thu May  2 13:58:21 2024, MaxMem=   134217728 cpu:               1.6 elap:               1.7
 (Enter /software/gaussian/g16-c01/sse4/g16/l101.exe)
 -------
 TitleMe
 -------
 Symbolic Z-matrix:
 Charge =  1 Multiplicity = 1
 C                     0.5193    1.233    -0.0319 
 C                     1.9445    1.2692   -0.0367 
 C                     2.6204    0.0928   -0.025 
 C                    -0.196     0.0301    0.001 
 H                    -0.0207    2.1742   -0.0434 
 H                     2.4828    2.2089   -0.0361 
 H                    -1.2777    0.0399    0.0117 
 N                     4.0921    0.0959    0.0366 
 O                     4.6393   -1.0217    0.1446 
 O                     4.6649    1.1984   -0.0233 
 C                     0.4943   -1.1671    0.021 
 H                    -0.0325   -2.1149    0.0545 
 C                     1.9629   -1.2165   -0.0211 
 H                     2.4436   -1.9631    0.6151 
 Br                    2.173    -1.9491   -1.9062 
 
 ITRead=  0  0  0  0  0  0  0  0  0  0  0  0  0  0  0
 MicOpt= -1 -1 -1 -1 -1 -1 -1 -1 -1 -1 -1 -1 -1 -1 -1
 NAtoms=     15 NQM=       15 NQMF=       0 NMMI=      0 NMMIF=      0
                NMic=       0 NMicF=      0.
                    Isotopes and Nuclear Properties:
 (Nuclear quadrupole moments (NQMom) in fm**2, nuclear magnetic moments (NMagM)
  in nuclear magnetons)

  Atom         1           2           3           4           5           6           7           8           9          10
 IAtWgt=          12          12          12          12           1           1           1          14          16          16
 AtmWgt=  12.0000000  12.0000000  12.0000000  12.0000000   1.0078250   1.0078250   1.0078250  14.0030740  15.9949146  15.9949146
 NucSpn=           0           0           0           0           1           1           1           2           0           0
 AtZEff=  -0.0000000  -0.0000000  -0.0000000  -0.0000000  -0.0000000  -0.0000000  -0.0000000  -0.0000000  -0.0000000  -0.0000000
 NQMom=    0.0000000   0.0000000   0.0000000   0.0000000   0.0000000   0.0000000   0.0000000   2.0440000   0.0000000   0.0000000
 NMagM=    0.0000000   0.0000000   0.0000000   0.0000000   2.7928460   2.7928460   2.7928460   0.4037610   0.0000000   0.0000000
 AtZNuc=   6.0000000   6.0000000   6.0000000   6.0000000   1.0000000   1.0000000   1.0000000   7.0000000   8.0000000   8.0000000

  Atom        11          12          13          14          15
 IAtWgt=          12           1          12           1          79
 AtmWgt=  12.0000000   1.0078250  12.0000000   1.0078250  78.9183361
 NucSpn=           0           1           0           1           3
 AtZEff=  -0.0000000  -0.0000000  -0.0000000  -0.0000000  -0.0000000
 NQMom=    0.0000000   0.0000000   0.0000000   0.0000000  31.3000000
 NMagM=    0.0000000   2.7928460   0.0000000   2.7928460   2.1063990
 AtZNuc=   6.0000000   1.0000000   6.0000000   1.0000000  35.0000000
 Leave Link  101 at Thu May  2 13:58:23 2024, MaxMem=   134217728 cpu:               1.7 elap:               1.7
 (Enter /software/gaussian/g16-c01/sse4/g16/l202.exe)
                          Input orientation:                          
 ---------------------------------------------------------------------
 Center     Atomic      Atomic             Coordinates (Angstroms)
 Number     Number       Type             X           Y           Z
 ---------------------------------------------------------------------
      1          6           0        0.519300    1.233000   -0.031900
      2          6           0        1.944500    1.269200   -0.036700
      3          6           0        2.620400    0.092800   -0.025000
      4          6           0       -0.196000    0.030100    0.001000
      5          1           0       -0.020700    2.174200   -0.043400
      6          1           0        2.482800    2.208900   -0.036100
      7          1           0       -1.277700    0.039900    0.011700
      8          7           0        4.092100    0.095900    0.036600
      9          8           0        4.639300   -1.021700    0.144600
     10          8           0        4.664900    1.198400   -0.023300
     11          6           0        0.494300   -1.167100    0.021000
     12          1           0       -0.032500   -2.114900    0.054500
     13          6           0        1.962900   -1.216500   -0.021100
     14          1           0        2.443600   -1.963100    0.615100
     15         35           0        2.173000   -1.949100   -1.906200
 ---------------------------------------------------------------------
                    Distance matrix (angstroms):
                    1          2          3          4          5
     1  C    0.000000
     2  C    1.425668   0.000000
     3  C    2.390549   1.356796   0.000000
     4  C    1.399895   2.473566   2.817218   0.000000
     5  H    1.085168   2.163581   3.362733   2.151712   0.000000
     6  H    2.192654   1.082960   2.120598   3.453189   2.503751
     7  H    2.157452   3.449071   3.898632   1.081797   2.477564
     8  N    3.750012   2.448304   1.472992   4.288753   4.608780
     9  O    4.699917   3.541615   2.312322   4.950458   5.653735
    10  O    4.145753   2.721354   2.324292   4.999386   4.786171
    11  C    2.400813   2.835836   2.471794   1.382101   3.381369
    12  H    3.394169   3.920329   3.452266   2.151887   4.290233
    13  C    2.843264   2.485817   1.465124   2.493060   3.928360
    14  H    3.786370   3.334922   2.160489   3.364142   4.860416
    15  Br   4.046416   3.728900   2.812194   3.628609   5.028314
                    6          7          8          9         10
     6  H    0.000000
     7  H    4.341452   0.000000
     8  N    2.657047   5.370150   0.000000
     9  O    3.888434   6.012948   1.249048   0.000000
    10  O    2.404752   6.054572   1.243863   2.226587   0.000000
    11  C    3.918516   2.144043   3.813080   4.149391   4.794941
    12  H    5.003018   2.489080   4.679774   4.798846   5.748876
    13  C    3.464662   3.475788   2.501842   2.688591   3.623886
    14  H    4.222698   4.268978   2.700314   2.434893   3.916224
    15  Br   4.569706   4.420610   3.411663   3.338935   4.434144
                   11         12         13         14         15
    11  C    0.000000
    12  H    1.084880   0.000000
    13  C    1.470034   2.189625   0.000000
    14  H    2.187771   2.543302   1.092353   0.000000
    15  Br   2.672762   2.955683   2.033334   2.535818   0.000000
 Symmetry turned off by external request.
 Stoichiometry    C6H5BrNO2(1+)
 Framework group  C1[X(C6H5BrNO2)]
 Deg. of freedom    39
 Full point group                 C1      NOp   1
 Rotational constants (GHZ):           1.1632986           0.9594224           0.5957624
 Leave Link  202 at Thu May  2 13:58:24 2024, MaxMem=   134217728 cpu:               1.2 elap:               1.2
 (Enter /software/gaussian/g16-c01/sse4/g16/l301.exe)
 Standard basis: 6-311+G(d) (5D, 7F)
 Ernie: Thresh=  0.10000D-02 Tol=  0.10000D-05 Strict=F.
 The following finite field(s) will be applied:
 An electric field of              0.0000  0.0000 -0.0019
   261 basis functions,   443 primitive gaussians,   273 cartesian basis functions
    49 alpha electrons       49 beta electrons
       nuclear repulsion energy       772.8945969580 Hartrees.
 IExCor= 4639 DFT=T Ex+Corr=wB97XD ExCW=0 ScaHFX=  1.000000
 ScaDFX=  1.000000  1.000000  1.000000  1.000000 ScalE2=  1.000000  1.000000
 IRadAn=      5 IRanWt=     -1 IRanGd=            0 ICorTp=0 IEmpDi=121
 HFx  wShort=  0.000000 wLong=  0.200000 cFull=  0.222036 cShort=  0.000000 cLong=  0.777964
 DFx  wShort=  0.000000 wLong=  0.200000 cFull=  0.000000 cShort=  0.000000 cLong=  1.000000
 NAtoms=   15 NActive=   15 NUniq=   15 SFac= 1.00D+00 NAtFMM=   60 NAOKFM=F Big=F
 Integral buffers will be    131072 words long.
 Raffenetti 2 integral format.
 Two-electron integral symmetry is turned off.
 R6Disp:  Grimme-D2 Dispersion energy=       -0.0080346408 Hartrees.
 Nuclear repulsion after empirical dispersion term =      772.8865623173 Hartrees.
 Leave Link  301 at Thu May  2 13:58:25 2024, MaxMem=   134217728 cpu:               1.2 elap:               1.2
 (Enter /software/gaussian/g16-c01/sse4/g16/l302.exe)
 NPDir=0 NMtPBC=     1 NCelOv=     1 NCel=       1 NClECP=     1 NCelD=      1
         NCelK=      1 NCelE2=     1 NClLst=     1 CellRange=     0.0.
 One-electron integrals computed using PRISM.
 NBasis=   261 RedAO= T EigKep=  2.52D-06  NBF=   261
 NBsUse=   261 1.00D-06 EigRej= -1.00D+00 NBFU=   261
 Precomputing XC quadrature grid using
 IXCGrd= 4 IRadAn=           5 IRanWt=          -1 IRanGd=           0 AccXCQ= 0.00D+00.
 Generated NRdTot=       0 NPtTot=           0 NUsed=           0 NTot=          32
 NSgBfM=   273   273   273   273   273 MxSgAt=    15 MxSgA2=    15.
 Leave Link  302 at Thu May  2 13:58:47 2024, MaxMem=   134217728 cpu:              21.9 elap:              21.9
 (Enter /software/gaussian/g16-c01/sse4/g16/l303.exe)
 DipDrv:  MaxL=1.
 The nuclear repulsion energy is now       773.1215405390 hartrees.
 Leave Link  303 at Thu May  2 13:58:50 2024, MaxMem=   134217728 cpu:               3.3 elap:               3.3
 (Enter /software/gaussian/g16-c01/sse4/g16/l401.exe)
 ExpMin= 3.50D-02 ExpMax= 4.40D+05 ExpMxC= 1.51D+04 IAcc=3 IRadAn=         5 AccDes= 0.00D+00
 Harris functional with IExCor= 4639 and IRadAn=       5 diagonalized for initial guess.
 HarFok:  IExCor= 4639 AccDes= 0.00D+00 IRadAn=         5 IDoV= 1 UseB2=F ITyADJ=14
 ICtDFT=  3500011 ScaDFX=  1.000000  1.000000  1.000000  1.000000
 FoFCou: FMM=F IPFlag=           0 FMFlag=      100000 FMFlg1=           0
         NFxFlg=           0 DoJE=T BraDBF=F KetDBF=T FulRan=T
         wScrn=  0.000000 ICntrl=       500 IOpCl=  0 I1Cent=   200000004 NGrid=           0
         NMat0=    1 NMatS0=      1 NMatT0=    0 NMatD0=    1 NMtDS0=    0 NMtDT0=    0
 Symmetry not used in FoFCou.
 Harris En= -2970.60039084474    
 JPrj=0 DoOrth=F DoCkMO=F.
 Leave Link  401 at Thu May  2 13:59:22 2024, MaxMem=   134217728 cpu:              31.7 elap:              31.7
 (Enter /software/gaussian/g16-c01/sse4/g16/l502.exe)
 Two-electron integral symmetry not used.
 Closed shell SCF:
 Using DIIS extrapolation, IDIIS=  1040.
 NGot=   134217728 LenX=   134063053 LenY=   133988083
 Requested convergence on RMS density matrix=1.00D-08 within 128 cycles.
 Requested convergence on MAX density matrix=1.00D-06.
 Requested convergence on             energy=1.00D-06.
 No special actions if energy rises.
 Fock matrices will be formed incrementally for  20 cycles.

 Cycle   1  Pass 1  IDiag  1:
 FoFJK:  IHMeth= 1 ICntrl=       0 DoSepK=T KAlg= 0 I1Cent=           0 FoldK=F
 IRaf=         1 NMat=       1 IRICut=       1 DoRegI=T DoRafI=F ISym2E= 0 IDoP0=0 IntGTp=1.
 FoFCou: FMM=F IPFlag=           0 FMFlag=      100000 FMFlg1=           0
         NFxFlg=           0 DoJE=T BraDBF=F KetDBF=F FulRan=T
         wScrn=  0.000000 ICntrl=       500 IOpCl=  0 I1Cent=           0 NGrid=           0
         NMat0=    1 NMatS0=      1 NMatT0=    0 NMatD0=    1 NMtDS0=    0 NMtDT0=    0
 Symmetry not used in FoFCou.
 E= -3009.69965467825    
 DIIS: error= 2.90D-01 at cycle   1 NSaved=   1.
 NSaved= 1 IEnMin= 1 EnMin= -3009.69965467825     IErMin= 1 ErrMin= 2.90D-01
 ErrMax= 2.90D-01  0.00D+00 EMaxC= 1.00D-01 BMatC= 1.19D+01 BMatP= 1.19D+01
 IDIUse=3 WtCom= 0.00D+00 WtEn= 1.00D+00
 Coeff-Com:  0.100D+01
 Coeff-En:   0.100D+01
 Coeff:      0.100D+01
 Gap=     0.315 Goal=   None    Shift=    0.000
 GapD=    0.315 DampG=1.000 DampE=0.250 DampFc=0.2500 IDamp=-1.
 Damping current iteration by 2.50D-01
 RMSDP=4.12D-02 MaxDP=4.09D+00              OVMax= 2.61D-01

 Cycle   2  Pass 1  IDiag  1:
 RMSU=  5.49D-03    CP:  9.18D-01
 E= -3009.99044375433     Delta-E=       -0.290789076079 Rises=F Damp=T
 DIIS: error= 2.19D-01 at cycle   2 NSaved=   2.
 NSaved= 2 IEnMin= 2 EnMin= -3009.99044375433     IErMin= 2 ErrMin= 2.19D-01
 ErrMax= 2.19D-01  0.00D+00 EMaxC= 1.00D-01 BMatC= 5.46D+00 BMatP= 1.19D+01
 IDIUse=3 WtCom= 0.00D+00 WtEn= 1.00D+00
 Coeff-Com: -0.183D+01 0.283D+01
 Coeff-En:   0.000D+00 0.100D+01
 Coeff:      0.000D+00 0.100D+01
 Gap=     0.268 Goal=   None    Shift=    0.000
 RMSDP=3.31D-02 MaxDP=3.39D+00 DE=-2.91D-01 OVMax= 7.01D-02

 Cycle   3  Pass 1  IDiag  1:
 RMSU=  5.03D-03    CP:  6.29D-01  3.00D+00
 E= -3010.37652183430     Delta-E=       -0.386078079968 Rises=F Damp=F
 DIIS: error= 6.58D-02 at cycle   3 NSaved=   3.
 NSaved= 3 IEnMin= 3 EnMin= -3010.37652183430     IErMin= 3 ErrMin= 6.58D-02
 ErrMax= 6.58D-02  0.00D+00 EMaxC= 1.00D-01 BMatC= 7.33D-01 BMatP= 5.46D+00
 IDIUse=3 WtCom= 3.42D-01 WtEn= 6.58D-01
 Coeff-Com:  0.261D+01-0.342D+01 0.181D+01
 Coeff-En:   0.349D-01 0.000D+00 0.965D+00
 Coeff:      0.914D+00-0.117D+01 0.125D+01
 Gap=     0.263 Goal=   None    Shift=    0.000
 RMSDP=1.10D-02 MaxDP=6.82D-01 DE=-3.86D-01 OVMax= 7.47D-02

 Cycle   4  Pass 1  IDiag  1:
 RMSU=  5.82D-03    CP:  6.65D-01  1.87D+00  2.08D+00
 E= -3010.48501789757     Delta-E=       -0.108496063267 Rises=F Damp=F
 DIIS: error= 3.77D-02 at cycle   4 NSaved=   4.
 NSaved= 4 IEnMin= 4 EnMin= -3010.48501789757     IErMin= 4 ErrMin= 3.77D-02
 ErrMax= 3.77D-02  0.00D+00 EMaxC= 1.00D-01 BMatC= 2.23D-01 BMatP= 7.33D-01
 IDIUse=3 WtCom= 6.23D-01 WtEn= 3.77D-01
 Coeff-Com: -0.930D-02 0.262D-01 0.359D+00 0.624D+00
 Coeff-En:   0.000D+00 0.000D+00 0.192D+00 0.808D+00
 Coeff:     -0.579D-02 0.163D-01 0.296D+00 0.694D+00
 Gap=     0.254 Goal=   None    Shift=    0.000
 RMSDP=5.42D-03 MaxDP=6.62D-01 DE=-1.08D-01 OVMax= 3.13D-02

 Cycle   5  Pass 1  IDiag  1:
 RMSU=  1.58D-03    CP:  6.25D-01  2.11D+00  1.93D+00  5.79D-01
 E= -3010.52810404316     Delta-E=       -0.043086145596 Rises=F Damp=F
 DIIS: error= 6.75D-03 at cycle   5 NSaved=   5.
 NSaved= 5 IEnMin= 5 EnMin= -3010.52810404316     IErMin= 5 ErrMin= 6.75D-03
 ErrMax= 6.75D-03  0.00D+00 EMaxC= 1.00D-01 BMatC= 9.39D-03 BMatP= 2.23D-01
 IDIUse=3 WtCom= 9.32D-01 WtEn= 6.75D-02
 Coeff-Com: -0.102D+00 0.142D+00 0.117D+00 0.393D+00 0.450D+00
 Coeff-En:   0.000D+00 0.000D+00 0.000D+00 0.000D+00 0.100D+01
 Coeff:     -0.954D-01 0.132D+00 0.109D+00 0.367D+00 0.487D+00
 Gap=     0.247 Goal=   None    Shift=    0.000
 RMSDP=1.49D-03 MaxDP=1.81D-01 DE=-4.31D-02 OVMax= 2.32D-02

 Cycle   6  Pass 1  IDiag  1:
 RMSU=  5.54D-04    CP:  6.31D-01  2.12D+00  2.01D+00  7.52D-01  6.36D-01
 E= -3010.53095251476     Delta-E=       -0.002848471598 Rises=F Damp=F
 DIIS: error= 2.90D-03 at cycle   6 NSaved=   6.
 NSaved= 6 IEnMin= 6 EnMin= -3010.53095251476     IErMin= 6 ErrMin= 2.90D-03
 ErrMax= 2.90D-03  0.00D+00 EMaxC= 1.00D-01 BMatC= 7.01D-04 BMatP= 9.39D-03
 IDIUse=3 WtCom= 9.71D-01 WtEn= 2.90D-02
 Coeff-Com: -0.954D-01 0.129D+00 0.266D-02 0.165D+00 0.334D+00 0.465D+00
 Coeff-En:   0.000D+00 0.000D+00 0.000D+00 0.000D+00 0.102D+00 0.898D+00
 Coeff:     -0.926D-01 0.125D+00 0.259D-02 0.160D+00 0.327D+00 0.478D+00
 Gap=     0.245 Goal=   None    Shift=    0.000
 RMSDP=4.21D-04 MaxDP=3.75D-02 DE=-2.85D-03 OVMax= 7.51D-03

 Cycle   7  Pass 1  IDiag  1:
 RMSU=  2.15D-04    CP:  6.29D-01  2.11D+00  2.00D+00  7.17D-01  7.44D-01
                    CP:  6.61D-01
 E= -3010.53144761605     Delta-E=       -0.000495101292 Rises=F Damp=F
 DIIS: error= 3.24D-04 at cycle   7 NSaved=   7.
 NSaved= 7 IEnMin= 7 EnMin= -3010.53144761605     IErMin= 7 ErrMin= 3.24D-04
 ErrMax= 3.24D-04  0.00D+00 EMaxC= 1.00D-01 BMatC= 1.55D-05 BMatP= 7.01D-04
 IDIUse=3 WtCom= 9.97D-01 WtEn= 3.24D-03
 Coeff-Com: -0.347D-01 0.462D-01-0.118D-01 0.330D-01 0.814D-01 0.181D+00
 Coeff-Com:  0.705D+00
 Coeff-En:   0.000D+00 0.000D+00 0.000D+00 0.000D+00 0.000D+00 0.000D+00
 Coeff-En:   0.100D+01
 Coeff:     -0.346D-01 0.461D-01-0.118D-01 0.328D-01 0.812D-01 0.180D+00
 Coeff:      0.706D+00
 Gap=     0.246 Goal=   None    Shift=    0.000
 RMSDP=1.39D-04 MaxDP=1.10D-02 DE=-4.95D-04 OVMax= 1.52D-03

 Cycle   8  Pass 1  IDiag  1:
 RMSU=  6.06D-05    CP:  6.29D-01  2.10D+00  2.00D+00  7.29D-01  7.88D-01
                    CP:  7.16D-01  9.17D-01
 E= -3010.53146546598     Delta-E=       -0.000017849924 Rises=F Damp=F
 DIIS: error= 1.00D-04 at cycle   8 NSaved=   8.
 NSaved= 8 IEnMin= 8 EnMin= -3010.53146546598     IErMin= 8 ErrMin= 1.00D-04
 ErrMax= 1.00D-04  0.00D+00 EMaxC= 1.00D-01 BMatC= 2.17D-06 BMatP= 1.55D-05
 IDIUse=3 WtCom= 9.99D-01 WtEn= 1.00D-03
 Coeff-Com:  0.465D-02-0.644D-02-0.341D-02-0.133D-01-0.279D-01-0.325D-01
 Coeff-Com:  0.169D+00 0.910D+00
 Coeff-En:   0.000D+00 0.000D+00 0.000D+00 0.000D+00 0.000D+00 0.000D+00
 Coeff-En:   0.000D+00 0.100D+01
 Coeff:      0.465D-02-0.643D-02-0.341D-02-0.132D-01-0.279D-01-0.324D-01
 Coeff:      0.169D+00 0.910D+00
 Gap=     0.246 Goal=   None    Shift=    0.000
 RMSDP=6.48D-05 MaxDP=5.10D-03 DE=-1.78D-05 OVMax= 1.39D-03

 Cycle   9  Pass 1  IDiag  1:
 RMSU=  2.39D-05    CP:  6.29D-01  2.10D+00  2.00D+00  7.34D-01  7.99D-01
                    CP:  7.21D-01  1.06D+00  1.22D+00
 E= -3010.53146986583     Delta-E=       -0.000004399859 Rises=F Damp=F
 DIIS: error= 2.27D-05 at cycle   9 NSaved=   9.
 NSaved= 9 IEnMin= 9 EnMin= -3010.53146986583     IErMin= 9 ErrMin= 2.27D-05
 ErrMax= 2.27D-05  0.00D+00 EMaxC= 1.00D-01 BMatC= 2.46D-07 BMatP= 2.17D-06
 IDIUse=1 WtCom= 1.00D+00 WtEn= 0.00D+00
 Coeff-Com:  0.653D-02-0.877D-02 0.716D-03-0.875D-02-0.178D-01-0.311D-01
 Coeff-Com: -0.612D-01 0.252D+00 0.868D+00
 Coeff:      0.653D-02-0.877D-02 0.716D-03-0.875D-02-0.178D-01-0.311D-01
 Coeff:     -0.612D-01 0.252D+00 0.868D+00
 Gap=     0.246 Goal=   None    Shift=    0.000
 RMSDP=3.68D-05 MaxDP=4.04D-03 DE=-4.40D-06 OVMax= 8.15D-04

 Cycle  10  Pass 1  IDiag  1:
 RMSU=  9.25D-06    CP:  6.29D-01  2.10D+00  2.00D+00  7.33D-01  8.05D-01
                    CP:  7.13D-01  1.10D+00  1.49D+00  1.05D+00
 E= -3010.53147078686     Delta-E=       -0.000000921027 Rises=F Damp=F
 DIIS: error= 1.37D-05 at cycle  10 NSaved=  10.
 NSaved=10 IEnMin=10 EnMin= -3010.53147078686     IErMin=10 ErrMin= 1.37D-05
 ErrMax= 1.37D-05  0.00D+00 EMaxC= 1.00D-01 BMatC= 6.79D-08 BMatP= 2.46D-07
 IDIUse=1 WtCom= 1.00D+00 WtEn= 0.00D+00
 Coeff-Com:  0.545D-03-0.704D-03 0.469D-03-0.116D-03 0.211D-02 0.363D-02
 Coeff-Com: -0.414D-01-0.926D-01 0.201D+00 0.927D+00
 Coeff:      0.545D-03-0.704D-03 0.469D-03-0.116D-03 0.211D-02 0.363D-02
 Coeff:     -0.414D-01-0.926D-01 0.201D+00 0.927D+00
 Gap=     0.246 Goal=   None    Shift=    0.000
 RMSDP=1.47D-05 MaxDP=1.45D-03 DE=-9.21D-07 OVMax= 4.51D-04

 Cycle  11  Pass 1  IDiag  1:
 RMSU=  7.57D-06    CP:  6.29D-01  2.10D+00  2.00D+00  7.33D-01  8.07D-01
                    CP:  7.10D-01  1.09D+00  1.63D+00  1.17D+00  1.41D+00
 E= -3010.53147102597     Delta-E=       -0.000000239108 Rises=F Damp=F
 DIIS: error= 6.96D-06 at cycle  11 NSaved=  11.
 NSaved=11 IEnMin=11 EnMin= -3010.53147102597     IErMin=11 ErrMin= 6.96D-06
 ErrMax= 6.96D-06  0.00D+00 EMaxC= 1.00D-01 BMatC= 8.06D-09 BMatP= 6.79D-08
 IDIUse=1 WtCom= 1.00D+00 WtEn= 0.00D+00
 Coeff-Com: -0.402D-03 0.537D-03 0.248D-04 0.920D-03 0.189D-02 0.428D-02
 Coeff-Com:  0.176D-01-0.181D-01-0.196D+00-0.221D+00 0.141D+01
 Coeff:     -0.402D-03 0.537D-03 0.248D-04 0.920D-03 0.189D-02 0.428D-02
 Coeff:      0.176D-01-0.181D-01-0.196D+00-0.221D+00 0.141D+01
 Gap=     0.246 Goal=   None    Shift=    0.000
 RMSDP=1.51D-05 MaxDP=1.46D-03 DE=-2.39D-07 OVMax= 3.51D-04

 Cycle  12  Pass 1  IDiag  1:
 RMSU=  1.66D-06    CP:  6.29D-01  2.10D+00  2.00D+00  7.32D-01  8.08D-01
                    CP:  7.03D-01  1.08D+00  1.73D+00  1.19D+00  1.87D+00
                    CP:  1.74D+00
 E= -3010.53147110205     Delta-E=       -0.000000076085 Rises=F Damp=F
 DIIS: error= 2.83D-06 at cycle  12 NSaved=  12.
 NSaved=12 IEnMin=12 EnMin= -3010.53147110205     IErMin=12 ErrMin= 2.83D-06
 ErrMax= 2.83D-06  0.00D+00 EMaxC= 1.00D-01 BMatC= 1.86D-09 BMatP= 8.06D-09
 IDIUse=1 WtCom= 1.00D+00 WtEn= 0.00D+00
 Coeff-Com: -0.188D-03 0.248D-03-0.385D-04 0.336D-03 0.209D-03 0.701D-03
 Coeff-Com:  0.122D-01 0.637D-02-0.976D-01-0.222D+00 0.540D+00 0.759D+00
 Coeff:     -0.188D-03 0.248D-03-0.385D-04 0.336D-03 0.209D-03 0.701D-03
 Coeff:      0.122D-01 0.637D-02-0.976D-01-0.222D+00 0.540D+00 0.759D+00
 Gap=     0.246 Goal=   None    Shift=    0.000
 RMSDP=2.10D-06 MaxDP=1.69D-04 DE=-7.61D-08 OVMax= 9.34D-05

 Cycle  13  Pass 1  IDiag  1:
 RMSU=  8.81D-07    CP:  6.29D-01  2.10D+00  2.00D+00  7.32D-01  8.08D-01
                    CP:  7.02D-01  1.08D+00  1.74D+00  1.20D+00  1.93D+00
                    CP:  1.89D+00  1.20D+00
 E= -3010.53147110993     Delta-E=       -0.000000007879 Rises=F Damp=F
 DIIS: error= 1.67D-06 at cycle  13 NSaved=  13.
 NSaved=13 IEnMin=13 EnMin= -3010.53147110993     IErMin=13 ErrMin= 1.67D-06
 ErrMax= 1.67D-06  0.00D+00 EMaxC= 1.00D-01 BMatC= 3.48D-10 BMatP= 1.86D-09
 IDIUse=1 WtCom= 1.00D+00 WtEn= 0.00D+00
 Coeff-Com:  0.165D-04-0.219D-04-0.221D-04-0.139D-03-0.463D-03-0.106D-02
 Coeff-Com: -0.310D-02 0.344D-02 0.408D-01 0.257D-01-0.281D+00 0.140D+00
 Coeff-Com:  0.108D+01
 Coeff:      0.165D-04-0.219D-04-0.221D-04-0.139D-03-0.463D-03-0.106D-02
 Coeff:     -0.310D-02 0.344D-02 0.408D-01 0.257D-01-0.281D+00 0.140D+00
 Coeff:      0.108D+01
 Gap=     0.246 Goal=   None    Shift=    0.000
 RMSDP=9.02D-07 MaxDP=4.85D-05 DE=-7.88D-09 OVMax= 4.57D-05

 Cycle  14  Pass 1  IDiag  1:
 RMSU=  3.21D-07    CP:  6.29D-01  2.10D+00  2.00D+00  7.32D-01  8.08D-01
                    CP:  7.02D-01  1.08D+00  1.74D+00  1.19D+00  1.95D+00
                    CP:  1.93D+00  1.45D+00  1.54D+00
 E= -3010.53147111175     Delta-E=       -0.000000001816 Rises=F Damp=F
 DIIS: error= 5.26D-07 at cycle  14 NSaved=  14.
 NSaved=14 IEnMin=14 EnMin= -3010.53147111175     IErMin=14 ErrMin= 5.26D-07
 ErrMax= 5.26D-07  0.00D+00 EMaxC= 1.00D-01 BMatC= 5.54D-11 BMatP= 3.48D-10
 IDIUse=1 WtCom= 1.00D+00 WtEn= 0.00D+00
 Coeff-Com:  0.972D-05-0.126D-04-0.824D-05-0.695D-04-0.134D-03-0.353D-03
 Coeff-Com: -0.226D-02 0.155D-03 0.249D-01 0.333D-01-0.161D+00-0.435D-01
 Coeff-Com:  0.368D+00 0.781D+00
 Coeff:      0.972D-05-0.126D-04-0.824D-05-0.695D-04-0.134D-03-0.353D-03
 Coeff:     -0.226D-02 0.155D-03 0.249D-01 0.333D-01-0.161D+00-0.435D-01
 Coeff:      0.368D+00 0.781D+00
 Gap=     0.246 Goal=   None    Shift=    0.000
 RMSDP=3.40D-07 MaxDP=3.28D-05 DE=-1.82D-09 OVMax= 1.26D-05

 Cycle  15  Pass 1  IDiag  1:
 RMSU=  1.29D-07    CP:  6.29D-01  2.10D+00  2.00D+00  7.32D-01  8.08D-01
                    CP:  7.02D-01  1.08D+00  1.73D+00  1.19D+00  1.95D+00
                    CP:  1.94D+00  1.50D+00  1.71D+00  1.23D+00
 E= -3010.53147111194     Delta-E=       -0.000000000189 Rises=F Damp=F
 DIIS: error= 2.67D-07 at cycle  15 NSaved=  15.
 NSaved=15 IEnMin=15 EnMin= -3010.53147111194     IErMin=15 ErrMin= 2.67D-07
 ErrMax= 2.67D-07  0.00D+00 EMaxC= 1.00D-01 BMatC= 1.30D-11 BMatP= 5.54D-11
 IDIUse=1 WtCom= 1.00D+00 WtEn= 0.00D+00
 Coeff-Com:  0.602D-05-0.798D-05 0.337D-05 0.274D-05 0.619D-04 0.120D-03
 Coeff-Com: -0.663D-04-0.650D-03-0.540D-03 0.624D-02 0.725D-02-0.517D-01
 Coeff-Com: -0.128D+00 0.296D+00 0.871D+00
 Coeff:      0.602D-05-0.798D-05 0.337D-05 0.274D-05 0.619D-04 0.120D-03
 Coeff:     -0.663D-04-0.650D-03-0.540D-03 0.624D-02 0.725D-02-0.517D-01
 Coeff:     -0.128D+00 0.296D+00 0.871D+00
 Gap=     0.246 Goal=   None    Shift=    0.000
 RMSDP=1.65D-07 MaxDP=9.24D-06 DE=-1.89D-10 OVMax= 5.96D-06

 Cycle  16  Pass 1  IDiag  1:
 RMSU=  5.94D-08    CP:  6.29D-01  2.10D+00  2.00D+00  7.32D-01  8.08D-01
                    CP:  7.02D-01  1.08D+00  1.73D+00  1.19D+00  1.96D+00
                    CP:  1.94D+00  1.53D+00  1.77D+00  1.41D+00  1.44D+00
 E= -3010.53147111196     Delta-E=       -0.000000000019 Rises=F Damp=F
 DIIS: error= 7.29D-08 at cycle  16 NSaved=  16.
 NSaved=16 IEnMin=16 EnMin= -3010.53147111196     IErMin=16 ErrMin= 7.29D-08
 ErrMax= 7.29D-08  0.00D+00 EMaxC= 1.00D-01 BMatC= 1.02D-12 BMatP= 1.30D-11
 IDIUse=1 WtCom= 1.00D+00 WtEn= 0.00D+00
 Coeff-Com: -0.177D-06 0.214D-06 0.158D-05 0.899D-05 0.284D-04 0.587D-04
 Coeff-Com:  0.215D-03-0.210D-03-0.294D-02-0.187D-02 0.186D-01-0.559D-02
 Coeff-Com: -0.586D-01-0.504D-01 0.145D+00 0.956D+00
 Coeff:     -0.177D-06 0.214D-06 0.158D-05 0.899D-05 0.284D-04 0.587D-04
 Coeff:      0.215D-03-0.210D-03-0.294D-02-0.187D-02 0.186D-01-0.559D-02
 Coeff:     -0.586D-01-0.504D-01 0.145D+00 0.956D+00
 Gap=     0.246 Goal=   None    Shift=    0.000
 RMSDP=5.91D-08 MaxDP=3.87D-06 DE=-1.91D-11 OVMax= 1.65D-06

 Cycle  17  Pass 1  IDiag  1:
 RMSU=  2.35D-08    CP:  6.29D-01  2.10D+00  2.00D+00  7.32D-01  8.08D-01
                    CP:  7.02D-01  1.08D+00  1.74D+00  1.19D+00  1.96D+00
                    CP:  1.94D+00  1.53D+00  1.78D+00  1.46D+00  1.71D+00
                    CP:  1.15D+00
 E= -3010.53147111196     Delta-E=        0.000000000002 Rises=F Damp=F
 DIIS: error= 2.75D-08 at cycle  17 NSaved=  17.
 NSaved=17 IEnMin=16 EnMin= -3010.53147111196     IErMin=17 ErrMin= 2.75D-08
 ErrMax= 2.75D-08  0.00D+00 EMaxC= 1.00D-01 BMatC= 1.99D-13 BMatP= 1.02D-12
 IDIUse=1 WtCom= 1.00D+00 WtEn= 0.00D+00
 Coeff-Com: -0.163D-05 0.217D-05-0.195D-06 0.268D-05 0.146D-05 0.609D-06
 Coeff-Com:  0.533D-04 0.700D-04-0.628D-03-0.100D-02 0.371D-02 0.479D-02
 Coeff-Com:  0.409D-02-0.573D-01-0.785D-01 0.228D+00 0.897D+00
 Coeff:     -0.163D-05 0.217D-05-0.195D-06 0.268D-05 0.146D-05 0.609D-06
 Coeff:      0.533D-04 0.700D-04-0.628D-03-0.100D-02 0.371D-02 0.479D-02
 Coeff:      0.409D-02-0.573D-01-0.785D-01 0.228D+00 0.897D+00
 Gap=     0.246 Goal=   None    Shift=    0.000
 RMSDP=4.39D-08 MaxDP=3.97D-06 DE= 1.82D-12 OVMax= 5.82D-07

 Cycle  18  Pass 1  IDiag  1:
 RMSU=  7.03D-09    CP:  6.29D-01  2.10D+00  2.00D+00  7.32D-01  8.08D-01
                    CP:  7.02D-01  1.08D+00  1.74D+00  1.19D+00  1.96D+00
                    CP:  1.94D+00  1.53D+00  1.77D+00  1.45D+00  1.81D+00
                    CP:  1.35D+00  1.11D+00
 E= -3010.53147111196     Delta-E=       -0.000000000002 Rises=F Damp=F
 DIIS: error= 1.45D-08 at cycle  18 NSaved=  18.
 NSaved=18 IEnMin=18 EnMin= -3010.53147111196     IErMin=18 ErrMin= 1.45D-08
 ErrMax= 1.45D-08  0.00D+00 EMaxC= 1.00D-01 BMatC= 4.35D-14 BMatP= 1.99D-13
 IDIUse=1 WtCom= 1.00D+00 WtEn= 0.00D+00
 Coeff-Com: -0.238D-06 0.319D-06-0.310D-06-0.113D-05-0.618D-05-0.144D-04
 Coeff-Com: -0.261D-04 0.865D-04 0.279D-03-0.153D-03-0.234D-02 0.278D-02
 Coeff-Com:  0.142D-01-0.135D-01-0.540D-01-0.905D-01 0.340D+00 0.803D+00
 Coeff:     -0.238D-06 0.319D-06-0.310D-06-0.113D-05-0.618D-05-0.144D-04
 Coeff:     -0.261D-04 0.865D-04 0.279D-03-0.153D-03-0.234D-02 0.278D-02
 Coeff:      0.142D-01-0.135D-01-0.540D-01-0.905D-01 0.340D+00 0.803D+00
 Gap=     0.246 Goal=   None    Shift=    0.000
 RMSDP=2.93D-08 MaxDP=2.98D-06 DE=-2.27D-12 OVMax= 2.33D-07

 Cycle  19  Pass 1  IDiag  1:
 RMSU=  2.44D-09    CP:  6.29D-01  2.10D+00  2.00D+00  7.32D-01  8.08D-01
                    CP:  7.02D-01  1.08D+00  1.74D+00  1.19D+00  1.96D+00
                    CP:  1.94D+00  1.53D+00  1.77D+00  1.44D+00  1.85D+00
                    CP:  1.40D+00  1.28D+00  1.17D+00
 E= -3010.53147111199     Delta-E=       -0.000000000030 Rises=F Damp=F
 DIIS: error= 8.39D-09 at cycle  19 NSaved=  19.
 NSaved=19 IEnMin=19 EnMin= -3010.53147111199     IErMin=19 ErrMin= 8.39D-09
 ErrMax= 8.39D-09  0.00D+00 EMaxC= 1.00D-01 BMatC= 4.44D-15 BMatP= 4.35D-14
 IDIUse=1 WtCom= 1.00D+00 WtEn= 0.00D+00
 Large coefficients: NSaved= 19 BigCof=    0.00 CofMax=   10.00 Det=-8.18D-15
 Inversion failed.  Reducing to 18 matrices.
 Large coefficients: NSaved= 18 BigCof=    0.00 CofMax=   10.00 Det=-1.48D-14
 Inversion failed.  Reducing to 17 matrices.
 Coeff-Com: -0.407D-07-0.172D-06-0.236D-06-0.862D-06-0.727D-05 0.135D-06
 Coeff-Com:  0.859D-04 0.116D-03-0.493D-03-0.313D-03 0.100D-02 0.430D-02
 Coeff-Com:  0.407D-02-0.379D-01-0.808D-01 0.770D-01 0.103D+01
 Coeff:     -0.407D-07-0.172D-06-0.236D-06-0.862D-06-0.727D-05 0.135D-06
 Coeff:      0.859D-04 0.116D-03-0.493D-03-0.313D-03 0.100D-02 0.430D-02
 Coeff:      0.407D-02-0.379D-01-0.808D-01 0.770D-01 0.103D+01
 Gap=     0.246 Goal=   None    Shift=    0.000
 RMSDP=5.20D-09 MaxDP=4.68D-07 DE=-2.96D-11 OVMax= 1.66D-07

 SCF Done:  E(RwB97XD) =  -3010.53147111     A.U. after   19 cycles
            NFock= 19  Conv=0.52D-08     -V/T= 2.0016
 KE= 3.005853737529D+03 PE=-8.699815068716D+03 EE= 1.910308319536D+03
 Leave Link  502 at Thu May  2 14:19:08 2024, MaxMem=   134217728 cpu:            1185.8 elap:            1186.0
 (Enter /software/gaussian/g16-c01/sse4/g16/l601.exe)
 Copying SCF densities to generalized density rwf, IOpCl= 0 IROHF=0.

 **********************************************************************

            Population analysis using the SCF Density.

 **********************************************************************

 Alpha  occ. eigenvalues -- -483.31341 -62.86367 -56.66056 -56.65492 -56.65482
 Alpha  occ. eigenvalues --  -19.46223 -19.46205 -14.85648 -10.59233 -10.58094
 Alpha  occ. eigenvalues --  -10.57311 -10.56994 -10.53390 -10.52747  -9.02174
 Alpha  occ. eigenvalues --   -6.84844  -6.82991  -6.82961  -2.94751  -2.94263
 Alpha  occ. eigenvalues --   -2.94238  -2.92755  -2.92754  -1.49906  -1.32865
 Alpha  occ. eigenvalues --   -1.22455  -1.12895  -1.12476  -1.04882  -1.00338
 Alpha  occ. eigenvalues --   -0.95368  -0.90585  -0.84945  -0.80905  -0.80150
 Alpha  occ. eigenvalues --   -0.80056  -0.77917  -0.76192  -0.75597  -0.72037
 Alpha  occ. eigenvalues --   -0.68544  -0.67583  -0.63419  -0.59901  -0.57399
 Alpha  occ. eigenvalues --   -0.56802  -0.56370  -0.55919  -0.54702
 Alpha virt. eigenvalues --   -0.30131  -0.20380  -0.15763  -0.13061  -0.08568
 Alpha virt. eigenvalues --   -0.06061  -0.05550  -0.05178  -0.03998  -0.03189
 Alpha virt. eigenvalues --   -0.02415  -0.01822  -0.01574  -0.00742   0.00255
 Alpha virt. eigenvalues --    0.00972   0.01393   0.01606   0.02411   0.03436
 Alpha virt. eigenvalues --    0.04350   0.05426   0.05798   0.06140   0.06818
 Alpha virt. eigenvalues --    0.07494   0.07750   0.08069   0.09400   0.09551
 Alpha virt. eigenvalues --    0.10146   0.10781   0.11732   0.11837   0.12639
 Alpha virt. eigenvalues --    0.13042   0.13377   0.13587   0.14727   0.15751
 Alpha virt. eigenvalues --    0.16638   0.17218   0.17615   0.18787   0.19100
 Alpha virt. eigenvalues --    0.20165   0.20793   0.21521   0.22467   0.24075
 Alpha virt. eigenvalues --    0.24612   0.26680   0.27939   0.29362   0.31700
 Alpha virt. eigenvalues --    0.32500   0.33353   0.33595   0.34424   0.36567
 Alpha virt. eigenvalues --    0.37273   0.37730   0.39591   0.40687   0.41887
 Alpha virt. eigenvalues --    0.43381   0.44190   0.45436   0.46973   0.47444
 Alpha virt. eigenvalues --    0.48612   0.50467   0.50871   0.52221   0.53639
 Alpha virt. eigenvalues --    0.55141   0.56019   0.58131   0.58239   0.60246
 Alpha virt. eigenvalues --    0.61175   0.62334   0.64511   0.67515   0.68242
 Alpha virt. eigenvalues --    0.71398   0.71658   0.72906   0.74438   0.74684
 Alpha virt. eigenvalues --    0.74866   0.77390   0.79703   0.83181   0.85629
 Alpha virt. eigenvalues --    0.87082   0.87677   0.91548   0.94219   0.98795
 Alpha virt. eigenvalues --    1.00414   1.02584   1.03940   1.05706   1.07003
 Alpha virt. eigenvalues --    1.08844   1.12653   1.13405   1.14104   1.17948
 Alpha virt. eigenvalues --    1.21075   1.22908   1.28180   1.33528   1.36377
 Alpha virt. eigenvalues --    1.37001   1.39074   1.43228   1.54992   1.56779
 Alpha virt. eigenvalues --    1.57383   1.59933   1.61310   1.64035   1.65863
 Alpha virt. eigenvalues --    1.68195   1.71535   1.74042   1.75364   1.79554
 Alpha virt. eigenvalues --    1.84043   1.85450   1.87369   1.94775   1.96171
 Alpha virt. eigenvalues --    1.97936   2.02529   2.03050   2.07324   2.08982
 Alpha virt. eigenvalues --    2.12913   2.14727   2.22427   2.23766   2.27493
 Alpha virt. eigenvalues --    2.33623   2.39980   2.41614   2.44457   2.53369
 Alpha virt. eigenvalues --    2.58184   2.63264   2.66062   2.68845   2.71736
 Alpha virt. eigenvalues --    2.73750   2.76420   2.77521   2.80674   2.82132
 Alpha virt. eigenvalues --    2.93310   2.98221   3.01468   3.05910   3.09082
 Alpha virt. eigenvalues --    3.14956   3.16459   3.17664   3.22545   3.26605
 Alpha virt. eigenvalues --    3.27895   3.38003   3.46713   3.50243   3.54747
 Alpha virt. eigenvalues --    3.57673   3.68917   3.74244   3.83756   3.87460
 Alpha virt. eigenvalues --    4.09874   4.10727   4.19316   4.23437   4.43170
 Alpha virt. eigenvalues --    4.45234   4.54744   4.59889   4.93576   4.96407
 Alpha virt. eigenvalues --    5.05270   5.09745   5.62024   6.15173   6.67902
 Alpha virt. eigenvalues --    7.48741   7.51068   7.61184  23.22262  23.61401
 Alpha virt. eigenvalues --   23.71940  23.78110  23.95792  24.02226  35.31515
 Alpha virt. eigenvalues --   47.93985  49.85246  49.93909 289.81628 289.83968
 Alpha virt. eigenvalues --  289.965911020.95170
          Condensed to atoms (all electrons):
               1          2          3          4          5          6
     1  C    7.833689  -2.585257   0.849372  -0.070827   0.298291   0.057056
     2  C   -2.585257  17.140876  -4.196235   0.450437  -0.016806   0.189971
     3  C    0.849372  -4.196235  18.707502  -1.341142   0.026410   0.119283
     4  C   -0.070827   0.450437  -1.341142   6.410205   0.020538  -0.015670
     5  H    0.298291  -0.016806   0.026410   0.020538   0.331032  -0.001652
     6  H    0.057056   0.189971   0.119283  -0.015670  -0.001652   0.311760
     7  H    0.026935  -0.026595   0.022255   0.305875  -0.002786  -0.000004
     8  N   -0.097669   0.042187  -1.680099   0.019160  -0.000481  -0.029851
     9  O   -0.021176   0.239936  -0.121076  -0.015694  -0.000034  -0.002458
    10  O    0.273128  -0.207127  -0.226370  -0.023567   0.000011   0.021341
    11  C    0.757417  -0.690985   2.343046  -0.286789  -0.024435   0.008917
    12  H   -0.010745   0.016723   0.009610   0.016026   0.000015  -0.000017
    13  C   -1.205998  -4.351265  -8.236418   0.854262   0.024218  -0.008819
    14  H   -0.004370   0.011725   0.021031   0.004594  -0.000029   0.000038
    15  Br   0.004692  -0.193640  -0.219186   0.006993  -0.000080  -0.000543
               7          8          9         10         11         12
     1  C    0.026935  -0.097669  -0.021176   0.273128   0.757417  -0.010745
     2  C   -0.026595   0.042187   0.239936  -0.207127  -0.690985   0.016723
     3  C    0.022255  -1.680099  -0.121076  -0.226370   2.343046   0.009610
     4  C    0.305875   0.019160  -0.015694  -0.023567  -0.286789   0.016026
     5  H   -0.002786  -0.000481  -0.000034   0.000011  -0.024435   0.000015
     6  H   -0.000004  -0.029851  -0.002458   0.021341   0.008917  -0.000017
     7  H    0.337742  -0.000001   0.000005  -0.000001   0.031653  -0.002326
     8  N   -0.000001   7.623584   0.068886   0.187874  -0.311770   0.000453
     9  O    0.000005   0.068886   7.880209   0.005733   0.262724   0.000101
    10  O   -0.000001   0.187874   0.005733   7.820447   0.007876  -0.000020
    11  C    0.031653  -0.311770   0.262724   0.007876   7.932085   0.315699
    12  H   -0.002326   0.000453   0.000101  -0.000020   0.315699   0.320894
    13  C   -0.023524   1.282348  -0.341624   0.068908  -4.216774  -0.017987
    14  H   -0.000028  -0.028299   0.011351  -0.001751   0.011380  -0.004438
    15  Br  -0.000440   0.159862  -0.055398   0.003447   0.057492  -0.001317
              13         14         15
     1  C   -1.205998  -0.004370   0.004692
     2  C   -4.351265   0.011725  -0.193640
     3  C   -8.236418   0.021031  -0.219186
     4  C    0.854262   0.004594   0.006993
     5  H    0.024218  -0.000029  -0.000080
     6  H   -0.008819   0.000038  -0.000543
     7  H   -0.023524  -0.000028  -0.000440
     8  N    1.282348  -0.028299   0.159862
     9  O   -0.341624   0.011351  -0.055398
    10  O    0.068908  -0.001751   0.003447
    11  C   -4.216774   0.011380   0.057492
    12  H   -0.017987  -0.004438  -0.001317
    13  C   21.850404   0.285267   0.388002
    14  H    0.285267   0.315007  -0.038836
    15  Br   0.388002  -0.038836  34.724335
 Mulliken charges:
               1
     1  C   -0.104535
     2  C    0.176056
     3  C   -0.077982
     4  C   -0.334401
     5  H    0.345789
     6  H    0.350650
     7  H    0.331242
     8  N   -0.236181
     9  O    0.088516
    10  O    0.070072
    11  C   -0.197534
    12  H    0.357332
    13  C   -0.351000
    14  H    0.417360
    15  Br   0.164618
 Sum of Mulliken charges =   1.00000
 Mulliken charges with hydrogens summed into heavy atoms:
               1
     1  C    0.241254
     2  C    0.526705
     3  C   -0.077982
     4  C   -0.003160
     8  N   -0.236181
     9  O    0.088516
    10  O    0.070072
    11  C    0.159798
    13  C    0.066360
    15  Br   0.164618
 Electronic spatial extent (au):  <R**2>=           3946.5365
 Charge=              1.0000 electrons
 Dipole moment (field-independent basis, Debye):
    X=              2.7550    Y=             -0.8297    Z=             -0.4101  Tot=              2.9063
 Quadrupole moment (field-independent basis, Debye-Ang):
   XX=            -67.8457   YY=            -51.2610   ZZ=            -62.6035
   XY=             -2.8182   XZ=             -1.8584   YZ=              2.1251
 Traceless Quadrupole moment (field-independent basis, Debye-Ang):
   XX=             -7.2757   YY=              9.3091   ZZ=             -2.0334
   XY=             -2.8182   XZ=             -1.8584   YZ=              2.1251
 Octapole moment (field-independent basis, Debye-Ang**2):
  XXX=           -512.8848  YYY=             92.6346  ZZZ=             84.6563  XYY=           -136.8569
  XXY=             24.7085  XXZ=             27.6172  XZZ=           -133.4600  YZZ=             18.0242
  YYZ=             26.7555  XYZ=              7.2462
 Hexadecapole moment (field-independent basis, Debye-Ang**3):
 XXXX=          -3447.1462 YYYY=           -703.2403 ZZZZ=           -399.5441 XXXY=            179.7938
 XXXZ=            190.9829 YYYX=            186.3638 YYYZ=           -174.0231 ZZZX=            171.1443
 ZZZY=           -147.1026 XXYY=           -624.6883 XXZZ=           -528.4276 YYZZ=           -173.4893
 XXYZ=            -43.0016 YYXZ=             51.7290 ZZXY=             30.8211
 N-N= 7.731215405390D+02 E-N=-8.699815068348D+03  KE= 3.005853737529D+03
 No NMR shielding tensors so no spin-rotation constants.
 Leave Link  601 at Thu May  2 14:19:16 2024, MaxMem=   134217728 cpu:               7.4 elap:               7.5
 (Enter /software/gaussian/g16-c01/sse4/g16/l9999.exe)
 Unable to Open any file for archive entry.
 1\1\GINC-BHX0017\SP\RwB97XD\6-311+G(d)\C6H5Br1N1O2(1+)\BWEIGHT\02-May-
 2024\0\\#P wB97XD/6-311+G* NoSymm #P Field=Z-19\\TitleMe\\1,1\C,0,0.51
 93,1.233,-0.0319\C,0,1.9445,1.2692,-0.0367\C,0,2.6204,0.0928,-0.025\C,
 0,-0.196,0.0301,0.001\H,0,-0.0207,2.1742,-0.0434\H,0,2.4828,2.2089,-0.
 0361\H,0,-1.2777,0.0399,0.0117\N,0,4.0921,0.0959,0.0366\O,0,4.6393,-1.
 0217,0.1446\O,0,4.6649,1.1984,-0.0233\C,0,0.4943,-1.1671,0.021\H,0,-0.
 0325,-2.1149,0.0545\C,0,1.9629,-1.2165,-0.0211\H,0,2.4436,-1.9631,0.61
 51\Br,0,2.173,-1.9491,-1.9062\\Version=ES64L-G16RevC.01\HF=-3010.53147
 11\RMSD=5.202e-09\Dipole=-3.2453263,0.901679,1.0878809\Quadrupole=-5.4
 092705,6.9210663,-1.5117958,-2.0952754,-1.3816901,1.5799865\PG=C01 [X(
 C6H5Br1N1O2)]\\@
 The archive entry for this job was punched.


 THE WISE MAN HAS THE POWER TO REASON AWAY
 WHAT A FOOL BELIEVES.
                     - DOOBIE BROTHERS
 Job cpu time:       0 days  0 hours 20 minutes 56.7 seconds.
 Elapsed time:       0 days  0 hours 20 minutes 56.9 seconds.
 File lengths (MBytes):  RWF=     40 Int=      0 D2E=      0 Chk=     32 Scr=      1
 Normal termination of Gaussian 16 at Thu May  2 14:19:16 2024.
