 Entering Gaussian System, Link 0=g16
 Initial command:
 /software/gaussian/g16-a03/l1.exe "/local_scratch/6484927/Gau-32219.inp" -scrdir="/local_scratch/6484927/"
 Entering Link 1 = /software/gaussian/g16-a03/l1.exe PID=     32220.
  
 Copyright (c) 1988,1990,1992,1993,1995,1998,2003,2009,2016,
            Gaussian, Inc.  All Rights Reserved.
  
 This is part of the Gaussian(R) 16 program.  It is based on
 the Gaussian(R) 09 system (copyright 2009, Gaussian, Inc.),
 the Gaussian(R) 03 system (copyright 2003, Gaussian, Inc.),
 the Gaussian(R) 98 system (copyright 1998, Gaussian, Inc.),
 the Gaussian(R) 94 system (copyright 1995, Gaussian, Inc.),
 the Gaussian 92(TM) system (copyright 1992, Gaussian, Inc.),
 the Gaussian 90(TM) system (copyright 1990, Gaussian, Inc.),
 the Gaussian 88(TM) system (copyright 1988, Gaussian, Inc.),
 the Gaussian 86(TM) system (copyright 1986, Carnegie Mellon
 University), and the Gaussian 82(TM) system (copyright 1983,
 Carnegie Mellon University). Gaussian is a federally registered
 trademark of Gaussian, Inc.
  
 This software contains proprietary and confidential information,
 including trade secrets, belonging to Gaussian, Inc.
  
 This software is provided under written license and may be
 used, copied, transmitted, or stored only in accord with that
 written license.
  
 The following legend is applicable only to US Government
 contracts under FAR:
  
                    RESTRICTED RIGHTS LEGEND
  
 Use, reproduction and disclosure by the US Government is
 subject to restrictions as set forth in subparagraphs (a)
 and (c) of the Commercial Computer Software - Restricted
 Rights clause in FAR 52.227-19.
  
 Gaussian, Inc.
 340 Quinnipiac St., Bldg. 40, Wallingford CT 06492
  
  
 ---------------------------------------------------------------
 Warning -- This program may not be used in any manner that
 competes with the business of Gaussian, Inc. or will provide
 assistance to any competitor of Gaussian, Inc.  The licensee
 of this program is prohibited from giving any competitor of
 Gaussian, Inc. access to this program.  By using this program,
 the user acknowledges that Gaussian, Inc. is engaged in the
 business of creating and licensing software in the field of
 computational chemistry and represents and warrants to the
 licensee that it is not a competitor of Gaussian, Inc. and that
 it will not use this program in any manner prohibited above.
 ---------------------------------------------------------------
  

 Cite this work as:
 Gaussian 16, Revision A.03,
 M. J. Frisch, G. W. Trucks, H. B. Schlegel, G. E. Scuseria, 
 M. A. Robb, J. R. Cheeseman, G. Scalmani, V. Barone, 
 G. A. Petersson, H. Nakatsuji, X. Li, M. Caricato, A. V. Marenich, 
 J. Bloino, B. G. Janesko, R. Gomperts, B. Mennucci, H. P. Hratchian, 
 J. V. Ortiz, A. F. Izmaylov, J. L. Sonnenberg, D. Williams-Young, 
 F. Ding, F. Lipparini, F. Egidi, J. Goings, B. Peng, A. Petrone, 
 T. Henderson, D. Ranasinghe, V. G. Zakrzewski, J. Gao, N. Rega, 
 G. Zheng, W. Liang, M. Hada, M. Ehara, K. Toyota, R. Fukuda, 
 J. Hasegawa, M. Ishida, T. Nakajima, Y. Honda, O. Kitao, H. Nakai, 
 T. Vreven, K. Throssell, J. A. Montgomery, Jr., J. E. Peralta, 
 F. Ogliaro, M. J. Bearpark, J. J. Heyd, E. N. Brothers, K. N. Kudin, 
 V. N. Staroverov, T. A. Keith, R. Kobayashi, J. Normand, 
 K. Raghavachari, A. P. Rendell, J. C. Burant, S. S. Iyengar, 
 J. Tomasi, M. Cossi, J. M. Millam, M. Klene, C. Adamo, R. Cammi, 
 J. W. Ochterski, R. L. Martin, K. Morokuma, O. Farkas, 
 J. B. Foresman, and D. J. Fox, Gaussian, Inc., Wallingford CT, 2016.
 
 ******************************************
 Gaussian 16:  ES64L-G16RevA.03 25-Dec-2016
                17-Sep-2021 
 ******************************************
 %chk=geometry.chk
 %mem=2GB
 %nprocshared=1
 Will use up to    1 processors via shared memory.
 --------------------------------------------------------------------
 #p B3LYP/6-311+G** #p TD=(singlets,nstates=30)IOp(6/8=3) IOp(9/40=4)
 --------------------------------------------------------------------
 1/38=1,172=1/1;
 2/12=2,17=6,18=5,40=1/2;
 3/5=4,6=6,7=111,11=9,25=1,30=1,74=-5/1,2,3,8;
 4//1;
 5/5=2,38=5/2;
 8/6=1,10=2,108=30/1;
 9/40=4,41=30,42=1,48=1,70=2/14;
 6/7=2,8=3,9=2,10=2/1;
 99/5=1,9=1/99;
 Leave Link    1 at Fri Sep 17 10:52:27 2021, MaxMem=   268435456 cpu:               0.0 elap:               0.2
 (Enter /software/gaussian/g16-a03/l101.exe)
 -------------------------------
 Scan Step 196, Bond Length 1.48
 -------------------------------
 Symbolic Z-matrix:
 Charge =  0 Multiplicity = 1
 C                     0.        0.       -0.52736 
 H                     0.        0.93726  -1.11871 
 H                     0.       -0.93726  -1.11871 
 O                     0.        0.        0.95264 
 
 ITRead=  0  0  0  0
 MicOpt= -1 -1 -1 -1
 NAtoms=      4 NQM=        4 NQMF=       0 NMMI=      0 NMMIF=      0
                NMic=       0 NMicF=      0.
                    Isotopes and Nuclear Properties:
 (Nuclear quadrupole moments (NQMom) in fm**2, nuclear magnetic moments (NMagM)
  in nuclear magnetons)

  Atom         1           2           3           4
 IAtWgt=          12           1           1          16
 AtmWgt=  12.0000000   1.0078250   1.0078250  15.9949146
 NucSpn=           0           1           1           0
 AtZEff=  -0.0000000  -0.0000000  -0.0000000  -0.0000000
 NQMom=    0.0000000   0.0000000   0.0000000   0.0000000
 NMagM=    0.0000000   2.7928460   2.7928460   0.0000000
 AtZNuc=   6.0000000   1.0000000   1.0000000   8.0000000
 Leave Link  101 at Fri Sep 17 10:52:28 2021, MaxMem=   268435456 cpu:               0.1 elap:               0.1
 (Enter /software/gaussian/g16-a03/l202.exe)
                          Input orientation:                          
 ---------------------------------------------------------------------
 Center     Atomic      Atomic             Coordinates (Angstroms)
 Number     Number       Type             X           Y           Z
 ---------------------------------------------------------------------
      1          6           0        0.000000    0.000000   -0.527360
      2          1           0        0.000000    0.937260   -1.118710
      3          1           0        0.000000   -0.937260   -1.118710
      4          8           0        0.000000    0.000000    0.952640
 ---------------------------------------------------------------------
                    Distance matrix (angstroms):
                    1          2          3          4
     1  C    0.000000
     2  H    1.108220   0.000000
     3  H    1.108220   1.874520   0.000000
     4  O    1.480000   2.273532   2.273532   0.000000
 Stoichiometry    CH2O
 Framework group  C2V[C2(CO),SGV(H2)]
 Deg. of freedom     3
 Full point group                 C2V     NOp   4
 Largest Abelian subgroup         C2V     NOp   4
 Largest concise Abelian subgroup C2      NOp   2
                         Standard orientation:                         
 ---------------------------------------------------------------------
 Center     Atomic      Atomic             Coordinates (Angstroms)
 Number     Number       Type             X           Y           Z
 ---------------------------------------------------------------------
      1          6           0        0.000000    0.000000   -0.666081
      2          1           0        0.000000    0.937260   -1.257431
      3          1           0       -0.000000   -0.937260   -1.257431
      4          8           0        0.000000   -0.000000    0.813919
 ---------------------------------------------------------------------
 Rotational constants (GHZ):         285.4183527          26.7392587          24.4487877
 Leave Link  202 at Fri Sep 17 10:52:28 2021, MaxMem=   268435456 cpu:               0.0 elap:               0.0
 (Enter /software/gaussian/g16-a03/l301.exe)
 Standard basis: 6-311+G(d,p) (5D, 7F)
 Ernie: Thresh=  0.10000D-02 Tol=  0.10000D-05 Strict=F.
 There are    29 symmetry adapted cartesian basis functions of A1  symmetry.
 There are     3 symmetry adapted cartesian basis functions of A2  symmetry.
 There are    11 symmetry adapted cartesian basis functions of B1  symmetry.
 There are    15 symmetry adapted cartesian basis functions of B2  symmetry.
 There are    27 symmetry adapted basis functions of A1  symmetry.
 There are     3 symmetry adapted basis functions of A2  symmetry.
 There are    11 symmetry adapted basis functions of B1  symmetry.
 There are    15 symmetry adapted basis functions of B2  symmetry.
    56 basis functions,    88 primitive gaussians,    58 cartesian basis functions
     8 alpha electrons        8 beta electrons
       nuclear repulsion energy        26.8989178385 Hartrees.
 IExCor=  402 DFT=T Ex+Corr=B3LYP ExCW=0 ScaHFX=  0.200000
 ScaDFX=  0.800000  0.720000  1.000000  0.810000 ScalE2=  1.000000  1.000000
 IRadAn=      5 IRanWt=     -1 IRanGd=            0 ICorTp=0 IEmpDi=  4
 NAtoms=    4 NActive=    4 NUniq=    3 SFac= 1.78D+00 NAtFMM=   60 NAOKFM=F Big=F
 Integral buffers will be    131072 words long.
 Regular integral format.
 Two-electron integral symmetry is turned on.
 Leave Link  301 at Fri Sep 17 10:52:28 2021, MaxMem=   268435456 cpu:               0.1 elap:               0.1
 (Enter /software/gaussian/g16-a03/l302.exe)
 NPDir=0 NMtPBC=     1 NCelOv=     1 NCel=       1 NClECP=     1 NCelD=      1
         NCelK=      1 NCelE2=     1 NClLst=     1 CellRange=     0.0.
 One-electron integrals computed using PRISM.
 One-electron integral symmetry used in STVInt
 NBasis=    56 RedAO= T EigKep=  7.87D-03  NBF=    27     3    11    15
 NBsUse=    56 1.00D-06 EigRej= -1.00D+00 NBFU=    27     3    11    15
 Precomputing XC quadrature grid using
 IXCGrd= 4 IRadAn=           5 IRanWt=          -1 IRanGd=           0 AccXCQ= 0.00D+00.
 Generated NRdTot=       0 NPtTot=           0 NUsed=           0 NTot=          32
 NSgBfM=    58    58    58    58    58 MxSgAt=     4 MxSgA2=     4.
 Leave Link  302 at Fri Sep 17 10:52:28 2021, MaxMem=   268435456 cpu:               0.1 elap:               0.1
 (Enter /software/gaussian/g16-a03/l303.exe)
 DipDrv:  MaxL=1.
 Leave Link  303 at Fri Sep 17 10:52:28 2021, MaxMem=   268435456 cpu:               0.0 elap:               0.0
 (Enter /software/gaussian/g16-a03/l308.exe)
 Leave Link  308 at Fri Sep 17 10:52:28 2021, MaxMem=   268435456 cpu:               0.0 elap:               0.0
 (Enter /software/gaussian/g16-a03/l401.exe)
 ExpMin= 4.38D-02 ExpMax= 8.59D+03 ExpMxC= 1.30D+03 IAcc=3 IRadAn=         5 AccDes= 0.00D+00
 Harris functional with IExCor=  402 and IRadAn=       5 diagonalized for initial guess.
 HarFok:  IExCor=  402 AccDes= 0.00D+00 IRadAn=         5 IDoV= 1 UseB2=F ITyADJ=14
 ICtDFT=  3500011 ScaDFX=  1.000000  1.000000  1.000000  1.000000
 FoFCou: FMM=F IPFlag=           0 FMFlag=      100000 FMFlg1=           0
         NFxFlg=           0 DoJE=T BraDBF=F KetDBF=T FulRan=T
         wScrn=  0.000000 ICntrl=       500 IOpCl=  0 I1Cent=   200000004 NGrid=           0
         NMat0=    1 NMatS0=      1 NMatT0=    0 NMatD0=    1 NMtDS0=    0 NMtDT0=    0
 Petite list used in FoFCou.
 Harris En= -114.488259873691    
 JPrj=0 DoOrth=F DoCkMO=F.
 Initial guess orbital symmetries:
       Occupied  (A1) (A1) (A1) (A1) (B2) (A1) (B1) (B2)
       Virtual   (B1) (A1) (A1) (B2) (B1) (A1) (A1) (B2) (A1) (B1)
                 (B2) (A1) (A1) (B2) (B1) (A1) (B2) (A1) (B1) (A2)
                 (A1) (B2) (B1) (A1) (B2) (A1) (B2) (A1) (B1) (A2)
                 (A1) (B2) (A1) (B2) (A1) (B1) (A1) (A2) (A1) (B1)
                 (B2) (B2) (A1) (B1) (B2) (A1) (A1) (A1)
 The electronic state of the initial guess is 1-A1.
 Leave Link  401 at Fri Sep 17 10:52:28 2021, MaxMem=   268435456 cpu:               0.3 elap:               0.3
 (Enter /software/gaussian/g16-a03/l502.exe)
 Keep R1 ints in memory in symmetry-blocked form, NReq=2159909.
 FoFCou: FMM=F IPFlag=           0 FMFlag=           0 FMFlg1=           0
         NFxFlg=           0 DoJE=F BraDBF=F KetDBF=F FulRan=T
         wScrn=  0.000000 ICntrl=       600 IOpCl=  0 I1Cent=           0 NGrid=           0
         NMat0=    1 NMatS0=   1596 NMatT0=    0 NMatD0=    1 NMtDS0=    0 NMtDT0=    0
 Petite list used in FoFCou.
 Closed shell SCF:
 Using DIIS extrapolation, IDIIS=  1040.
 NGot=   268435456 LenX=   268074384 LenY=   268070579
 Requested convergence on RMS density matrix=1.00D-08 within 128 cycles.
 Requested convergence on MAX density matrix=1.00D-06.
 Requested convergence on             energy=1.00D-06.
 No special actions if energy rises.

 Cycle   1  Pass 1  IDiag  1:
 E= -114.402096840310    
 DIIS: error= 5.59D-02 at cycle   1 NSaved=   1.
 NSaved= 1 IEnMin= 1 EnMin= -114.402096840310     IErMin= 1 ErrMin= 5.59D-02
 ErrMax= 5.59D-02  0.00D+00 EMaxC= 1.00D-01 BMatC= 8.71D-02 BMatP= 8.71D-02
 IDIUse=3 WtCom= 4.41D-01 WtEn= 5.59D-01
 Coeff-Com:  0.100D+01
 Coeff-En:   0.100D+01
 Coeff:      0.100D+01
 Gap=     0.010 Goal=   None    Shift=    0.000
 GapD=    0.010 DampG=0.250 DampE=0.500 DampFc=0.2500 IDamp=-1.
 Damping current iteration by 2.50D-01
 RMSDP=1.38D-02 MaxDP=1.24D-01              OVMax= 5.57D-01

 Cycle   2  Pass 1  IDiag  1:
 E= -114.412377761048     Delta-E=       -0.010280920738 Rises=F Damp=T
 DIIS: error= 1.13D-02 at cycle   2 NSaved=   2.
 NSaved= 2 IEnMin= 2 EnMin= -114.412377761048     IErMin= 2 ErrMin= 1.13D-02
 ErrMax= 1.13D-02  0.00D+00 EMaxC= 1.00D-01 BMatC= 7.82D-03 BMatP= 8.71D-02
 IDIUse=3 WtCom= 8.87D-01 WtEn= 1.13D-01
 Coeff-Com:  0.853D-01 0.915D+00
 Coeff-En:   0.420D+00 0.580D+00
 Coeff:      0.123D+00 0.877D+00
 Gap=     0.119 Goal=   None    Shift=    0.000
 RMSDP=1.66D-03 MaxDP=3.08D-02 DE=-1.03D-02 OVMax= 4.50D-01

 Cycle   3  Pass 1  IDiag  1:
 E= -114.470226579881     Delta-E=       -0.057848818833 Rises=F Damp=F
 DIIS: error= 8.73D-03 at cycle   3 NSaved=   3.
 NSaved= 3 IEnMin= 3 EnMin= -114.470226579881     IErMin= 3 ErrMin= 8.73D-03
 ErrMax= 8.73D-03  0.00D+00 EMaxC= 1.00D-01 BMatC= 2.32D-03 BMatP= 7.82D-03
 IDIUse=3 WtCom= 9.13D-01 WtEn= 8.73D-02
 Coeff-Com:  0.163D-02 0.327D+00 0.671D+00
 Coeff-En:   0.000D+00 0.000D+00 0.100D+01
 Coeff:      0.149D-02 0.298D+00 0.700D+00
 Gap=     0.159 Goal=   None    Shift=    0.000
 RMSDP=7.86D-04 MaxDP=1.79D-02 DE=-5.78D-02 OVMax= 3.20D-02

 Cycle   4  Pass 1  IDiag  1:
 E= -114.472196404635     Delta-E=       -0.001969824754 Rises=F Damp=F
 DIIS: error= 3.82D-03 at cycle   4 NSaved=   4.
 NSaved= 4 IEnMin= 4 EnMin= -114.472196404635     IErMin= 4 ErrMin= 3.82D-03
 ErrMax= 3.82D-03  0.00D+00 EMaxC= 1.00D-01 BMatC= 5.32D-04 BMatP= 2.32D-03
 IDIUse=3 WtCom= 9.62D-01 WtEn= 3.82D-02
 Coeff-Com:  0.224D-01 0.128D-01 0.291D+00 0.674D+00
 Coeff-En:   0.000D+00 0.000D+00 0.148D+00 0.852D+00
 Coeff:      0.215D-01 0.123D-01 0.285D+00 0.681D+00
 Gap=     0.163 Goal=   None    Shift=    0.000
 RMSDP=2.49D-04 MaxDP=5.87D-03 DE=-1.97D-03 OVMax= 7.22D-03

 Cycle   5  Pass 1  IDiag  1:
 E= -114.472690476773     Delta-E=       -0.000494072137 Rises=F Damp=F
 DIIS: error= 8.24D-04 at cycle   5 NSaved=   5.
 NSaved= 5 IEnMin= 5 EnMin= -114.472690476773     IErMin= 5 ErrMin= 8.24D-04
 ErrMax= 8.24D-04  0.00D+00 EMaxC= 1.00D-01 BMatC= 1.90D-05 BMatP= 5.32D-04
 IDIUse=3 WtCom= 9.92D-01 WtEn= 8.24D-03
 Coeff-Com:  0.147D-01-0.234D-01 0.572D-01 0.206D+00 0.746D+00
 Coeff-En:   0.000D+00 0.000D+00 0.000D+00 0.000D+00 0.100D+01
 Coeff:      0.145D-01-0.232D-01 0.567D-01 0.204D+00 0.748D+00
 Gap=     0.164 Goal=   None    Shift=    0.000
 RMSDP=4.08D-05 MaxDP=2.97D-04 DE=-4.94D-04 OVMax= 1.03D-03

 Cycle   6  Pass 1  IDiag  1:
 E= -114.472705562203     Delta-E=       -0.000015085431 Rises=F Damp=F
 DIIS: error= 2.75D-04 at cycle   6 NSaved=   6.
 NSaved= 6 IEnMin= 6 EnMin= -114.472705562203     IErMin= 6 ErrMin= 2.75D-04
 ErrMax= 2.75D-04  0.00D+00 EMaxC= 1.00D-01 BMatC= 1.59D-06 BMatP= 1.90D-05
 IDIUse=3 WtCom= 9.97D-01 WtEn= 2.75D-03
 Coeff-Com:  0.284D-02-0.375D-02 0.277D-02-0.115D-01-0.541D-01 0.106D+01
 Coeff-En:   0.000D+00 0.000D+00 0.000D+00 0.000D+00 0.000D+00 0.100D+01
 Coeff:      0.283D-02-0.374D-02 0.276D-02-0.115D-01-0.540D-01 0.106D+01
 Gap=     0.164 Goal=   None    Shift=    0.000
 RMSDP=1.33D-05 MaxDP=1.03D-04 DE=-1.51D-05 OVMax= 4.60D-04

 Cycle   7  Pass 1  IDiag  1:
 E= -114.472706974544     Delta-E=       -0.000001412341 Rises=F Damp=F
 DIIS: error= 2.02D-05 at cycle   7 NSaved=   7.
 NSaved= 7 IEnMin= 7 EnMin= -114.472706974544     IErMin= 7 ErrMin= 2.02D-05
 ErrMax= 2.02D-05  0.00D+00 EMaxC= 1.00D-01 BMatC= 1.12D-08 BMatP= 1.59D-06
 IDIUse=1 WtCom= 1.00D+00 WtEn= 0.00D+00
 Coeff-Com:  0.232D-03-0.257D-03 0.879D-03-0.851D-03-0.551D-02 0.190D-01
 Coeff-Com:  0.986D+00
 Coeff:      0.232D-03-0.257D-03 0.879D-03-0.851D-03-0.551D-02 0.190D-01
 Coeff:      0.986D+00
 Gap=     0.164 Goal=   None    Shift=    0.000
 RMSDP=6.69D-07 MaxDP=1.45D-05 DE=-1.41D-06 OVMax= 2.53D-05

 Cycle   8  Pass 1  IDiag  1:
 E= -114.472706983213     Delta-E=       -0.000000008669 Rises=F Damp=F
 DIIS: error= 7.55D-06 at cycle   8 NSaved=   8.
 NSaved= 8 IEnMin= 8 EnMin= -114.472706983213     IErMin= 8 ErrMin= 7.55D-06
 ErrMax= 7.55D-06  0.00D+00 EMaxC= 1.00D-01 BMatC= 1.17D-09 BMatP= 1.12D-08
 IDIUse=1 WtCom= 1.00D+00 WtEn= 0.00D+00
 Coeff-Com:  0.960D-05 0.793D-07 0.411D-04 0.213D-03 0.107D-02-0.340D-01
 Coeff-Com:  0.566D-01 0.976D+00
 Coeff:      0.960D-05 0.793D-07 0.411D-04 0.213D-03 0.107D-02-0.340D-01
 Coeff:      0.566D-01 0.976D+00
 Gap=     0.164 Goal=   None    Shift=    0.000
 RMSDP=3.76D-07 MaxDP=3.11D-06 DE=-8.67D-09 OVMax= 1.38D-05

 Cycle   9  Pass 1  IDiag  1:
 E= -114.472706984265     Delta-E=       -0.000000001052 Rises=F Damp=F
 DIIS: error= 1.52D-07 at cycle   9 NSaved=   9.
 NSaved= 9 IEnMin= 9 EnMin= -114.472706984265     IErMin= 9 ErrMin= 1.52D-07
 ErrMax= 1.52D-07  0.00D+00 EMaxC= 1.00D-01 BMatC= 8.74D-13 BMatP= 1.17D-09
 IDIUse=1 WtCom= 1.00D+00 WtEn= 0.00D+00
 Coeff-Com:  0.180D-05-0.206D-05-0.397D-05 0.335D-04 0.140D-03-0.216D-02
 Coeff-Com: -0.703D-02 0.603D-01 0.949D+00
 Coeff:      0.180D-05-0.206D-05-0.397D-05 0.335D-04 0.140D-03-0.216D-02
 Coeff:     -0.703D-02 0.603D-01 0.949D+00
 Gap=     0.164 Goal=   None    Shift=    0.000
 RMSDP=9.94D-09 MaxDP=1.21D-07 DE=-1.05D-09 OVMax= 3.54D-07

 SCF Done:  E(RB3LYP) =  -114.472706984     A.U. after    9 cycles
            NFock=  9  Conv=0.99D-08     -V/T= 2.0086
 KE= 1.134965462554D+02 PE=-3.224131422891D+02 EE= 6.754497121096D+01
 Leave Link  502 at Fri Sep 17 10:52:30 2021, MaxMem=   268435456 cpu:               1.7 elap:               2.0
 (Enter /software/gaussian/g16-a03/l801.exe)
 DoSCS=F DFT=T ScalE2(SS,OS)=  1.000000  1.000000
 ExpMin= 4.38D-02 ExpMax= 8.59D+03 ExpMxC= 1.30D+03 IAcc=3 IRadAn=         5 AccDes= 0.00D+00
 HarFok:  IExCor=  205 AccDes= 0.00D+00 IRadAn=         5 IDoV=-2 UseB2=F ITyADJ=14
 ICtDFT= 12500011 ScaDFX=  1.000000  1.000000  1.000000  1.000000
 Largest valence mixing into a core orbital is  5.25D-05
 Largest core mixing into a valence orbital is  1.19D-05
 Range of M.O.s used for correlation:     3    56
 NBasis=    56 NAE=     8 NBE=     8 NFC=     2 NFV=     0
 NROrb=     54 NOA=     6 NOB=     6 NVA=    48 NVB=    48
 Leave Link  801 at Fri Sep 17 10:52:31 2021, MaxMem=   268435456 cpu:               0.2 elap:               0.2
 (Enter /software/gaussian/g16-a03/l914.exe)
 RHF ground state
 Keep R1, R2, and R3 ints in memory in symmetry-blocked form, NReq=6042848.
 FoFCou: FMM=F IPFlag=           0 FMFlag=           0 FMFlg1=           0
         NFxFlg=           0 DoJE=F BraDBF=F KetDBF=F FulRan=T
         wScrn=  0.000000 ICntrl=       600 IOpCl=  0 I1Cent=           0 NGrid=           0
         NMat0=    1 NMatS0=   1596 NMatT0=    0 NMatD0=    1 NMtDS0=    0 NMtDT0=    0
 Petite list used in FoFCou.
 MDV=   268435456 DFT=T DoStab=F Mixed=T DoRPA=T DoScal=F NonHer=T
 Making orbital integer symmetry assigments:
 Orbital symmetries:
       Occupied  (A1) (A1) (A1) (A1) (B2) (A1) (B1) (B2)
       Virtual   (B1) (A1) (A1) (B2) (B1) (A1) (B2) (A1) (A1) (B1)
                 (B2) (A1) (A1) (B2) (B1) (A1) (B2) (A1) (A2) (B1)
                 (A1) (B2) (B1) (A1) (B2) (A1) (B2) (A1) (B1) (A2)
                 (A1) (B2) (A1) (B2) (A1) (B1) (A1) (A2) (A1) (B1)
                 (B2) (B2) (A1) (B1) (B2) (A1) (A1) (A1)
   120 initial guesses have been made.
 Convergence on wavefunction:    0.001000000000000
 Davidson Disk Diagonalization:  ConvIn= 1.00D-03 SkipCon=T Conv= 1.00D-03.
 Max sub-space:  1728 roots to seek:   120 dimension of matrix:          576
 Iteration     1 Dimension   120 NMult     0 NNew    120
 CISAX will form   120 AO SS matrices at one time.
 NMat=   120 NSing=   120 JSym2X=-1.
 New state      3 was old state      4
 New state      4 was old state      3
 New state      6 was old state      9
 New state      7 was old state      6
 New state      8 was old state      7
 New state      9 was old state      8
 New state     14 was old state     16
 New state     15 was old state     14
 New state     16 was old state     17
 New state     17 was old state     18
 New state     18 was old state     20
 New state     19 was old state     15
 New state     20 was old state     19
 New state     22 was old state     25
 New state     25 was old state     22
 New state     28 was old state     29
 New state     29 was old state     28
 Excitation Energies [eV] at current iteration:
 Root      1 :     2.487907738341113
 Root      2 :     6.257647739351068
 Root      3 :     6.388053911416821
 Root      4 :     6.854876245177765
 Root      5 :     7.330764387306225
 Root      6 :     8.025714995069013
 Root      7 :     8.048065465908143
 Root      8 :     8.396906295335381
 Root      9 :     8.595480597803238
 Root     10 :     8.998566110073179
 Root     11 :     9.580617853864098
 Root     12 :     9.835609388014431
 Root     13 :    10.221249094782420
 Root     14 :    10.665700072841880
 Root     15 :    10.677226800993450
 Root     16 :    11.204327010957230
 Root     17 :    11.372544797566470
 Root     18 :    11.694238357789180
 Root     19 :    11.783015271718190
 Root     20 :    11.850009641763410
 Root     21 :    12.132673076156690
 Root     22 :    12.161918706979160
 Root     23 :    12.283961826108260
 Root     24 :    12.324438197233840
 Root     25 :    12.389241751588900
 Root     26 :    12.888502597436030
 Root     27 :    13.245991236363850
 Root     28 :    13.355515864111520
 Root     29 :    13.567969597925900
 Root     30 :    13.796159775689610
 Root     31 :    13.843449207124040
 Root     32 :    14.380310457722860
 Root     33 :    14.619317280272920
 Root     34 :    14.693351668524630
 Root     35 :    14.747206390506630
 Root     36 :    14.870403120854730
 Root     37 :    15.461748862100300
 Root     38 :    15.681299781782880
 Root     39 :    16.208788025178040
 Root     40 :    16.404006848875180
 Root     41 :    16.405491562696000
 Root     42 :    16.452008618664730
 Root     43 :    16.686120399926110
 Root     44 :    17.033056888235160
 Root     45 :    17.475907457371770
 Root     46 :    17.699000003383710
 Root     47 :    17.797552922719340
 Root     48 :    18.112776106301200
 Root     49 :    18.239536920364290
 Root     50 :    18.539802856515880
 Root     51 :    18.765085658773510
 Root     52 :    19.054828086459000
 Root     53 :    19.080917351157840
 Root     54 :    19.337095056312920
 Root     55 :    19.532589637373210
 Root     56 :    19.973340648263210
 Root     57 :    20.332548431877870
 Root     58 :    20.337813708808120
 Root     59 :    20.688097738967970
 Root     60 :    21.432415303447700
 Root     61 :    21.660281344277680
 Root     62 :    21.696350165366420
 Root     63 :    21.872768795656400
 Root     64 :    22.068785531426650
 Root     65 :    22.122650932227380
 Root     66 :    22.490690458466680
 Root     67 :    22.829263583404770
 Root     68 :    22.844457290886070
 Root     69 :    22.910067403182100
 Root     70 :    23.467625768153010
 Root     71 :    23.512875857122340
 Root     72 :    24.000053676544410
 Root     73 :    24.078027301867350
 Root     74 :    24.110957942163420
 Root     75 :    24.405739116136150
 Root     76 :    25.158742611233520
 Root     77 :    25.244757782289590
 Root     78 :    25.547639232868120
 Root     79 :    25.932907645196540
 Root     80 :    26.030150767743050
 Root     81 :    26.250679503399080
 Root     82 :    26.302011548584580
 Root     83 :    26.399626114070090
 Root     84 :    26.774130669821070
 Root     85 :    26.847933728580880
 Root     86 :    27.561753322008280
 Root     87 :    28.154144855744820
 Root     88 :    28.355401956521340
 Root     89 :    29.118095951192600
 Root     90 :    29.144606723888880
 Root     91 :    29.304833206958540
 Root     92 :    29.747393177395020
 Root     93 :    30.110997901234810
 Root     94 :    30.803892853910800
 Root     95 :    30.851113614244070
 Root     96 :    30.862530168599940
 Root     97 :    31.349444215001820
 Root     98 :    31.491724908932670
 Root     99 :    32.892341474688400
 Root    100 :    33.234055467753560
 Root    101 :    33.291490745472070
 Root    102 :    33.387203217208270
 Root    103 :    33.413068303011540
 Root    104 :    33.992331666547340
 Root    105 :    35.251456205870960
 Root    106 :    35.382134114068880
 Root    107 :    35.801875461040670
 Root    108 :    35.848711100709850
 Root    109 :    36.351464807106860
 Root    110 :    36.870856322626070
 Root    111 :    37.005156635911650
 Root    112 :    37.245168160528020
 Root    113 :    37.332518617487530
 Root    114 :    38.085757371603650
 Root    115 :    38.440432587630330
 Root    116 :    39.263621778396520
 Root    117 :    39.606270522715200
 Root    118 :    39.708912237237180
 Root    119 :    40.003903756916050
 Root    120 :    44.221416932684860
 Iteration     2 Dimension   180 NMult   120 NNew     60
 CISAX will form    60 AO SS matrices at one time.
 NMat=    60 NSing=    60 JSym2X=-1.
 Root      1 not converged, maximum delta is    0.006377482483278
 Root      2 not converged, maximum delta is    0.010078314689506
 Root      3 not converged, maximum delta is    0.011491977447766
 Root      4 not converged, maximum delta is    0.013857862309847
 Root      5 not converged, maximum delta is    0.014304634432857
 Root      6 not converged, maximum delta is    0.010968773229884
 Root      7 not converged, maximum delta is    0.001929873108266
 Root      8 not converged, maximum delta is    0.006217605317539
 Root      9 has converged.
 Root     10 not converged, maximum delta is    0.006708394328509
 Root     11 not converged, maximum delta is    0.001722228109566
 Root     12 not converged, maximum delta is    0.011440483124222
 Root     13 not converged, maximum delta is    0.003373333789033
 Root     14 not converged, maximum delta is    0.010973243688844
 Root     15 not converged, maximum delta is    0.003708814260169
 Root     16 not converged, maximum delta is    0.004474702997303
 Root     17 not converged, maximum delta is    0.005515009740304
 Root     18 not converged, maximum delta is    0.014154164492395
 Root     19 not converged, maximum delta is    0.007096139839547
 Root     20 not converged, maximum delta is    0.013321009693106
 Root     21 not converged, maximum delta is    0.007787371264239
 Root     22 not converged, maximum delta is    0.005196510614712
 Root     23 not converged, maximum delta is    0.013959433122106
 Root     24 not converged, maximum delta is    0.013835905968285
 Root     25 not converged, maximum delta is    0.001572160812414
 Root     26 not converged, maximum delta is    0.006765732144549
 Root     27 not converged, maximum delta is    0.008316539195183
 Root     28 not converged, maximum delta is    0.002657302062339
 Root     29 not converged, maximum delta is    0.005258450040792
 Root     30 not converged, maximum delta is    0.004861020309239
 Excitation Energies [eV] at current iteration:
 Root      1 :     2.478469625623754   Change is   -0.009438112717359
 Root      2 :     6.228546373354631   Change is   -0.029101365996436
 Root      3 :     6.344759354078659   Change is   -0.043294557338163
 Root      4 :     6.848338936617687   Change is   -0.006537308560079
 Root      5 :     7.311929740506525   Change is   -0.018834646799700
 Root      6 :     8.010992045800819   Change is   -0.014722949268193
 Root      7 :     8.046742754159329   Change is   -0.001322711748814
 Root      8 :     8.393099790958969   Change is   -0.003806504376412
 Root      9 :     8.595320414731622   Change is   -0.000160183071616
 Root     10 :     8.987620324070473   Change is   -0.010945786002707
 Root     11 :     9.580058767355771   Change is   -0.000559086508325
 Root     12 :     9.815719348119796   Change is   -0.019890039894635
 Root     13 :    10.217859522768790   Change is   -0.003389572013625
 Root     14 :    10.651052257458030   Change is   -0.014647815383854
 Root     15 :    10.672149545928750   Change is   -0.005077255064702
 Root     16 :    11.193971357111080   Change is   -0.010355653846156
 Root     17 :    11.363449791021020   Change is   -0.009095006545455
 Root     18 :    11.685263447494640   Change is   -0.008974910294541
 Root     19 :    11.770470939733830   Change is   -0.012544331984365
 Root     20 :    11.847008633886080   Change is   -0.003001007877330
 Root     21 :    12.122348147138760   Change is   -0.010324929017934
 Root     22 :    12.154491204189320   Change is   -0.007427502789833
 Root     23 :    12.282398054350620   Change is   -0.001563771757633
 Root     24 :    12.322574152870550   Change is   -0.001864044363287
 Root     25 :    12.388365675922580   Change is   -0.000876075666319
 Root     26 :    12.876103128385460   Change is   -0.012399469050570
 Root     27 :    13.234455343311440   Change is   -0.011535893052413
 Root     28 :    13.352898388661060   Change is   -0.002617475450460
 Root     29 :    13.561106719328170   Change is   -0.006862878597724
 Root     30 :    13.787166530342740   Change is   -0.008993245346873
 Iteration     3 Dimension   238 NMult   180 NNew     58
 CISAX will form    58 AO SS matrices at one time.
 NMat=    58 NSing=    58 JSym2X=-1.
 Root      1 has converged.
 Root      2 has converged.
 Root      3 has converged.
 Root      4 has converged.
 Root      5 has converged.
 Root      6 has converged.
 Root      7 has converged.
 Root      8 has converged.
 Root      9 has converged.
 Root     10 has converged.
 Root     11 has converged.
 Root     12 has converged.
 Root     13 has converged.
 Root     14 has converged.
 Root     15 has converged.
 Root     16 has converged.
 Root     17 has converged.
 Root     18 has converged.
 Root     19 has converged.
 Root     20 has converged.
 Root     21 has converged.
 Root     22 has converged.
 Root     23 has converged.
 Root     24 has converged.
 Root     25 has converged.
 Root     26 has converged.
 Root     27 has converged.
 Root     28 has converged.
 Root     29 has converged.
 Root     30 has converged.
 Excitation Energies [eV] at current iteration:
 Root      1 :     2.478468385225820   Change is   -0.000001240397934
 Root      2 :     6.228518358047729   Change is   -0.000028015306902
 Root      3 :     6.344728890873535   Change is   -0.000030463205124
 Root      4 :     6.848331768272113   Change is   -0.000007168345574
 Root      5 :     7.311912237311238   Change is   -0.000017503195287
 Root      6 :     8.010984699775255   Change is   -0.000007346025565
 Root      7 :     8.046741538036153   Change is   -0.000001216123176
 Root      8 :     8.393097651465000   Change is   -0.000002139493969
 Root      9 :     8.595320399240249   Change is   -0.000000015491373
 Root     10 :     8.987612369447326   Change is   -0.000007954623147
 Root     11 :     9.580058552649728   Change is   -0.000000214706043
 Root     12 :     9.815684725440008   Change is   -0.000034622679789
 Root     13 :    10.217853005977210   Change is   -0.000006516791576
 Root     14 :    10.651023339849780   Change is   -0.000028917608247
 Root     15 :    10.672139020452600   Change is   -0.000010525476154
 Root     16 :    11.193942066177200   Change is   -0.000029290933881
 Root     17 :    11.363439981515440   Change is   -0.000009809505577
 Root     18 :    11.685250701101610   Change is   -0.000012746393026
 Root     19 :    11.770434552531450   Change is   -0.000036387202378
 Root     20 :    11.847004645752060   Change is   -0.000003988134019
 Root     21 :    12.122330908831990   Change is   -0.000017238306767
 Root     22 :    12.154480323392190   Change is   -0.000010880797134
 Root     23 :    12.282396128016030   Change is   -0.000001926334597
 Root     24 :    12.322571199140040   Change is   -0.000002953730505
 Root     25 :    12.388365023696270   Change is   -0.000000652226310
 Root     26 :    12.876086699278880   Change is   -0.000016429106576
 Root     27 :    13.234422196359690   Change is   -0.000033146951748
 Root     28 :    13.352894017132750   Change is   -0.000004371528314
 Root     29 :    13.561092272884630   Change is   -0.000014446443540
 Root     30 :    13.787145206941800   Change is   -0.000021323400937
 Convergence achieved on expansion vectors.
 ***********************************************************************
 Excited states from <AA,BB:AA,BB> singles matrix:
 ***********************************************************************
 
 1PDM for each excited state written to RWF  633
 Ground to excited state transition densities written to RWF  633
 Ground to excited state transition electric dipole moments (Au):
       state          X           Y           Z        Dip. S.      Osc.
         1         0.0000     -0.0000     -0.0000      0.0000      0.0000
         2         0.0000     -0.0000      0.8450      0.7140      0.1090
         3         0.0988     -0.0000      0.0000      0.0098      0.0015
         4         0.0000      0.3015      0.0000      0.0909      0.0153
         5         0.0000     -0.3124      0.0000      0.0976      0.0175
         6        -0.0000      0.0000     -0.0000      0.0000      0.0000
         7        -0.0000      0.0000     -0.3792      0.1438      0.0283
         8        -0.2626     -0.0000     -0.0000      0.0689      0.0142
         9         0.0000     -0.0000     -0.0000      0.0000      0.0000
        10        -0.6648      0.0000      0.0000      0.4419      0.0973
        11         0.0000     -0.0000     -0.0000      0.0000      0.0000
        12         0.0000      0.0921     -0.0000      0.0085      0.0020
        13        -0.0000     -0.0000      0.0049      0.0000      0.0000
        14        -0.0000     -0.4013      0.0000      0.1610      0.0420
        15        -0.0000      0.0000      0.4368      0.1908      0.0499
        16        -0.0000     -0.0000     -0.1128      0.0127      0.0035
        17         0.1934      0.0000      0.0000      0.0374      0.0104
        18        -0.0000     -0.0233     -0.0000      0.0005      0.0002
        19         0.0000     -0.0000     -1.1131      1.2391      0.3573
        20         0.0000     -0.3355     -0.0000      0.1126      0.0327
        21        -0.0000     -0.5671      0.0000      0.3216      0.0955
        22        -0.2560      0.0000      0.0000      0.0655      0.0195
        23         0.0000     -0.0000      0.0000      0.0000      0.0000
        24         0.0000     -0.0000      0.0000      0.0000      0.0000
        25        -0.1485      0.0000      0.0000      0.0221      0.0067
        26        -0.0000     -0.4184      0.0000      0.1751      0.0552
        27        -0.0000     -0.0000     -0.4952      0.2452      0.0795
        28         0.1430      0.0000      0.0000      0.0205      0.0067
        29        -0.0000      0.0000      0.4654      0.2166      0.0720
        30         0.0000     -0.0000      0.4408      0.1943      0.0656
 Ground to excited state transition velocity dipole moments (Au):
       state          X           Y           Z        Dip. S.      Osc.
         1        -0.0000      0.0000      0.0000      0.0000      0.0000
         2         0.0000      0.0000     -0.1803      0.0325      0.0947
         3        -0.0394      0.0000     -0.0000      0.0016      0.0044
         4        -0.0000     -0.0788     -0.0000      0.0062      0.0165
         5         0.0000      0.0840     -0.0000      0.0071      0.0175
         6         0.0000     -0.0000      0.0000      0.0000      0.0000
         7         0.0000     -0.0000      0.1099      0.0121      0.0272
         8         0.0868     -0.0000     -0.0000      0.0075      0.0163
         9        -0.0000      0.0000      0.0000      0.0000      0.0000
        10         0.2214      0.0000     -0.0000      0.0490      0.0989
        11        -0.0000      0.0000      0.0000      0.0000      0.0000
        12         0.0000     -0.0298      0.0000      0.0009      0.0016
        13         0.0000      0.0000      0.0020      0.0000      0.0000
        14        -0.0000      0.1599     -0.0000      0.0256      0.0435
        15         0.0000     -0.0000     -0.1756      0.0308      0.0524
        16         0.0000     -0.0000      0.0585      0.0034      0.0055
        17        -0.0544     -0.0000     -0.0000      0.0030      0.0047
        18         0.0000     -0.0044      0.0000      0.0000      0.0000
        19         0.0000      0.0000      0.4855      0.2357      0.3632
        20        -0.0000      0.1455      0.0000      0.0212      0.0324
        21         0.0000      0.2513     -0.0000      0.0632      0.0945
        22         0.1163     -0.0000     -0.0000      0.0135      0.0202
        23        -0.0000      0.0000     -0.0000      0.0000      0.0000
        24        -0.0000      0.0000     -0.0000      0.0000      0.0000
        25         0.0624     -0.0000     -0.0000      0.0039      0.0057
        26         0.0000      0.1940     -0.0000      0.0376      0.0530
        27         0.0000      0.0000      0.2286      0.0523      0.0717
        28        -0.0641     -0.0000     -0.0000      0.0041      0.0056
        29         0.0000     -0.0000     -0.2250      0.0506      0.0677
        30        -0.0000      0.0000     -0.2203      0.0485      0.0639
 Ground to excited state transition magnetic dipole moments (Au):
       state          X           Y           Z
         1         0.0000      0.0000      1.0860
         2        -0.0000      0.0000      0.0000
         3         0.0000     -1.6764      0.0000
         4        -0.2565     -0.0000     -0.0000
         5        -0.4975      0.0000     -0.0000
         6         0.0000     -0.0000     -0.9060
         7         0.0000     -0.0000      0.0000
         8        -0.0000      0.1597      0.0000
         9         0.0000     -0.0000      0.0155
        10        -0.0000     -0.3013      0.0000
        11         0.0000     -0.0000      0.0301
        12        -0.6192      0.0000      0.0000
        13        -0.0000      0.0000     -0.0000
        14         0.3758     -0.0000     -0.0000
        15        -0.0000      0.0000     -0.0000
        16         0.0000      0.0000     -0.0000
        17        -0.0000      0.2388     -0.0000
        18         0.2177      0.0000      0.0000
        19         0.0000      0.0000      0.0000
        20        -0.1536      0.0000     -0.0000
        21         0.1715      0.0000      0.0000
        22        -0.0000      0.5166     -0.0000
        23         0.0000     -0.0000     -0.0518
        24         0.0000     -0.0000     -0.0110
        25        -0.0000      0.1544     -0.0000
        26         0.8762     -0.0000      0.0000
        27         0.0000      0.0000      0.0000
        28        -0.0000     -0.1063      0.0000
        29        -0.0000      0.0000     -0.0000
        30        -0.0000     -0.0000      0.0000
 Ground to excited state transition velocity quadrupole moments (Au):
       state          XX          YY          ZZ          XY          XZ          YZ
         1         0.0000      0.0000      0.0000     -0.0487      0.0000      0.0000
         2         0.1232     -0.0050     -0.0799     -0.0000      0.0000      0.0000
         3         0.0000      0.0000     -0.0000      0.0000     -0.2059     -0.0000
         4        -0.0000      0.0000      0.0000      0.0000     -0.0000      0.2936
         5         0.0000      0.0000     -0.0000      0.0000     -0.0000      0.2408
         6        -0.0000     -0.0000     -0.0000      0.1878     -0.0000     -0.0000
         7         0.0124     -0.0784     -0.2427     -0.0000     -0.0000     -0.0000
         8         0.0000      0.0000      0.0000     -0.0000     -0.2390     -0.0000
         9        -0.0000      0.0000      0.0000      0.0096     -0.0000     -0.0000
        10        -0.0000     -0.0000     -0.0000     -0.0000      0.1868      0.0000
        11        -0.0000      0.0000      0.0000      0.2859      0.0000     -0.0000
        12         0.0000      0.0000      0.0000      0.0000      0.0000      0.2516
        13         0.7985      0.0182     -0.0565      0.0000      0.0000      0.0000
        14        -0.0000     -0.0000      0.0000      0.0000      0.0000     -0.1075
        15         0.0088     -0.0672      0.2917      0.0000      0.0000      0.0000
        16         0.2696      0.4483      0.5209      0.0000      0.0000     -0.0000
        17         0.0000     -0.0000      0.0000     -0.0000      0.1841      0.0000
        18         0.0000     -0.0000     -0.0000     -0.0000     -0.0000      0.3795
        19        -0.0069     -0.3763     -0.3107     -0.0000      0.0000     -0.0000
        20        -0.0000     -0.0000     -0.0000      0.0000     -0.0000     -0.3694
        21         0.0000      0.0000      0.0000     -0.0000      0.0000     -0.8053
        22        -0.0000      0.0000      0.0000      0.0000      0.0629      0.0000
        23         0.0000     -0.0000     -0.0000     -0.0487      0.0000     -0.0000
        24        -0.0000     -0.0000     -0.0000      0.4522      0.0000     -0.0000
        25        -0.0000     -0.0000     -0.0000      0.0000     -0.1005      0.0000
        26        -0.0000     -0.0000     -0.0000     -0.0000      0.0000      0.0943
        27        -0.0063      0.3663      0.1816      0.0000     -0.0000     -0.0000
        28         0.0000     -0.0000     -0.0000      0.0000      0.2180      0.0000
        29         0.1419      1.2099      0.2839     -0.0000     -0.0000      0.0000
        30        -0.3006      0.1018     -0.2804      0.0000     -0.0000      0.0000
 <0|del|b> * <b|rxdel|0> + <0|del|b> * <b|delr+rdel|0>
 Rotatory Strengths (R) in cgs (10**-40 erg-esu-cm/Gauss)
       state          XX          YY          ZZ    R(velocity)    E-M Angle
         1         0.0000      0.0000      0.0000      0.0000       90.00
         2         0.0000     -0.0000      0.0000     -0.0000       90.00
         3        -0.0000      0.0000     -0.0000     -0.0000       90.00
         4         0.0000     -0.0000      0.0000      0.0000       90.00
         5         0.0000     -0.0000     -0.0000     -0.0000       90.00
         6        -0.0000     -0.0000      0.0000     -0.0000       90.00
         7        -0.0000      0.0000      0.0000      0.0000       90.00
         8        -0.0000     -0.0000      0.0000     -0.0000       90.00
         9         0.0000      0.0000     -0.0000      0.0000       90.00
        10        -0.0000      0.0000     -0.0000     -0.0000       90.00
        11         0.0000     -0.0000     -0.0000      0.0000       90.00
        12         0.0000     -0.0000     -0.0000     -0.0000       90.00
        13        -0.0000     -0.0000      0.0000     -0.0000       90.00
        14        -0.0000     -0.0000     -0.0000     -0.0000       90.00
        15        -0.0000      0.0000     -0.0000      0.0000       90.00
        16         0.0000     -0.0000      0.0000     -0.0000       90.00
        17        -0.0000     -0.0000     -0.0000     -0.0000       90.00
        18        -0.0000      0.0000     -0.0000      0.0000       90.00
        19        -0.0000      0.0000      0.0000      0.0000       90.00
        20         0.0000      0.0000     -0.0000      0.0000       90.00
        21         0.0000     -0.0000      0.0000      0.0000       90.00
        22        -0.0000      0.0000     -0.0000     -0.0000       90.00
        23         0.0000      0.0000     -0.0000      0.0000       90.00
        24        -0.0000      0.0000     -0.0000      0.0000       90.00
        25        -0.0000     -0.0000     -0.0000     -0.0000       90.00
        26        -0.0000      0.0000      0.0000      0.0000       90.00
        27         0.0000     -0.0000      0.0000      0.0000       90.00
        28         0.0000      0.0000      0.0000      0.0000       90.00
        29         0.0000     -0.0000     -0.0000      0.0000       90.00
        30        -0.0000      0.0000     -0.0000     -0.0000       90.00
 1/2[<0|r|b>*<b|rxdel|0> + (<0|rxdel|b>*<b|r|0>)*]
 Rotatory Strengths (R) in cgs (10**-40 erg-esu-cm/Gauss)
       state          XX          YY          ZZ     R(length)
         1        -0.0000      0.0000      0.0000      0.0000
         2         0.0000      0.0000     -0.0000     -0.0000
         3        -0.0000     -0.0000     -0.0000     -0.0000
         4         0.0000      0.0000      0.0000      0.0000
         5         0.0000      0.0000      0.0000      0.0000
         6         0.0000      0.0000     -0.0000     -0.0000
         7         0.0000      0.0000      0.0000      0.0000
         8        -0.0000      0.0000      0.0000      0.0000
         9        -0.0000     -0.0000      0.0000      0.0000
        10        -0.0000      0.0000     -0.0000     -0.0000
        11        -0.0000     -0.0000      0.0000      0.0000
        12         0.0000     -0.0000      0.0000      0.0000
        13        -0.0000      0.0000      0.0000      0.0000
        14         0.0000     -0.0000      0.0000     -0.0000
        15        -0.0000     -0.0000      0.0000      0.0000
        16         0.0000      0.0000     -0.0000     -0.0000
        17         0.0000     -0.0000      0.0000     -0.0000
        18         0.0000      0.0000      0.0000      0.0000
        19        -0.0000      0.0000      0.0000      0.0000
        20         0.0000      0.0000     -0.0000      0.0000
        21         0.0000      0.0000     -0.0000      0.0000
        22        -0.0000     -0.0000      0.0000     -0.0000
        23        -0.0000     -0.0000      0.0000      0.0000
        24        -0.0000     -0.0000      0.0000      0.0000
        25        -0.0000     -0.0000      0.0000     -0.0000
        26         0.0000     -0.0000     -0.0000      0.0000
        27         0.0000      0.0000      0.0000      0.0000
        28         0.0000      0.0000     -0.0000      0.0000
        29        -0.0000     -0.0000      0.0000      0.0000
        30         0.0000     -0.0000     -0.0000     -0.0000
  1/2[<0|del|b>*<b|r|0> + (<0|r|b>*<b|del|0>)*] (Au)
       state          X           Y           Z        Dip. S.   Osc.(frdel)
         1        -0.0000     -0.0000     -0.0000      0.0000      0.0000
         2         0.0000     -0.0000     -0.1524      0.1524      0.1016
         3        -0.0039     -0.0000     -0.0000      0.0039      0.0026
         4        -0.0000     -0.0238     -0.0000      0.0238      0.0158
         5         0.0000     -0.0263     -0.0000      0.0263      0.0175
         6        -0.0000     -0.0000     -0.0000      0.0000      0.0000
         7        -0.0000     -0.0000     -0.0417      0.0417      0.0278
         8        -0.0228      0.0000      0.0000      0.0228      0.0152
         9        -0.0000     -0.0000     -0.0000      0.0000      0.0000
        10        -0.1472      0.0000     -0.0000      0.1472      0.0981
        11        -0.0000     -0.0000     -0.0000      0.0000      0.0000
        12         0.0000     -0.0027     -0.0000      0.0027      0.0018
        13        -0.0000     -0.0000      0.0000     -0.0000     -0.0000
        14         0.0000     -0.0642     -0.0000      0.0642      0.0428
        15        -0.0000     -0.0000     -0.0767      0.0767      0.0511
        16        -0.0000      0.0000     -0.0066      0.0066      0.0044
        17        -0.0105     -0.0000     -0.0000      0.0105      0.0070
        18        -0.0000      0.0001     -0.0000     -0.0001     -0.0001
        19         0.0000     -0.0000     -0.5404      0.5404      0.3603
        20        -0.0000     -0.0488     -0.0000      0.0488      0.0325
        21        -0.0000     -0.1425     -0.0000      0.1425      0.0950
        22        -0.0298     -0.0000     -0.0000      0.0298      0.0199
        23        -0.0000     -0.0000     -0.0000      0.0000      0.0000
        24        -0.0000     -0.0000     -0.0000      0.0000      0.0000
        25        -0.0093     -0.0000     -0.0000      0.0093      0.0062
        26        -0.0000     -0.0812     -0.0000      0.0812      0.0541
        27        -0.0000     -0.0000     -0.1132      0.1132      0.0755
        28        -0.0092     -0.0000     -0.0000      0.0092      0.0061
        29        -0.0000     -0.0000     -0.1047      0.1047      0.0698
        30        -0.0000     -0.0000     -0.0971      0.0971      0.0647

 Excitation energies and oscillator strengths:
 
 Excited State   1:      Singlet-A2     2.4785 eV  500.25 nm  f=0.0000  <S**2>=0.000
       3 -> 27         0.00153
       3 -> 38         0.00120
       3 -> 46         0.00315
       4 -> 27         0.00096
       4 -> 38        -0.00023
       4 -> 46        -0.00139
       5 ->  9         0.01180
       5 -> 13         0.00044
       5 -> 18         0.00370
       5 -> 23         0.00150
       5 -> 28         0.00330
       5 -> 31        -0.00046
       5 -> 37         0.00190
       5 -> 44         0.00041
       5 -> 52         0.00046
       6 -> 27        -0.00058
       6 -> 38        -0.00085
       6 -> 46         0.00154
       7 -> 12        -0.00076
       7 -> 15         0.00429
       7 -> 19        -0.00370
       7 -> 22        -0.00045
       7 -> 25         0.00115
       7 -> 30        -0.00133
       7 -> 33         0.00041
       7 -> 42        -0.00010
       7 -> 49         0.00014
       7 -> 50         0.00022
       7 -> 53         0.00047
       8 ->  9         0.70763
       8 -> 13        -0.01865
       8 -> 18         0.02197
       8 -> 23        -0.00531
       8 -> 28         0.01101
       8 -> 31         0.00032
       8 -> 37         0.00064
       8 -> 48        -0.00030
       8 -> 52         0.00192
       3 <- 27         0.00082
       3 <- 38         0.00090
       3 <- 46         0.00321
       4 <- 27         0.00159
       4 <- 38         0.00022
       4 <- 46        -0.00114
       5 <-  9        -0.00048
       5 <- 13        -0.00063
       5 <- 18        -0.00085
       5 <- 23         0.00035
       5 <- 28        -0.00059
       5 <- 31         0.00046
       5 <- 37         0.00102
       5 <- 44         0.00014
       5 <- 52         0.00012
       6 <- 38        -0.00071
       6 <- 46         0.00120
       7 <- 15        -0.00945
       7 <- 19         0.00270
       7 <- 22         0.00729
       7 <- 25         0.00041
       7 <- 30         0.00489
       7 <- 33        -0.00075
       7 <- 35         0.00133
       7 <- 40         0.00068
       7 <- 42         0.00010
       7 <- 49        -0.00027
       7 <- 50         0.00014
       7 <- 53         0.00144
       8 <-  9        -0.04138
       8 <- 13         0.00107
       8 <- 18        -0.00590
       8 <- 23         0.00044
       8 <- 28        -0.00203
       8 <- 31        -0.00055
       8 <- 37        -0.00068
       8 <- 52         0.00052
 This state for optimization and/or second-order correction.
 Total Energy, E(TD-HF/TD-DFT) =  -114.381624947    
 Copying the excited state density for this state as the 1-particle RhoCI density.
 
 Excited State   2:      Singlet-A1     6.2285 eV  199.06 nm  f=0.1090  <S**2>=0.000
       3 -> 10         0.00874
       3 -> 11        -0.01661
       3 -> 14         0.01134
       3 -> 16         0.01878
       3 -> 17        -0.00420
       3 -> 20        -0.00269
       3 -> 21        -0.00314
       3 -> 24         0.00424
       3 -> 26         0.00612
       3 -> 29        -0.00036
       3 -> 32         0.00283
       3 -> 34         0.00359
       3 -> 36         0.00043
       3 -> 39         0.00111
       3 -> 43         0.00046
       3 -> 45         0.00122
       3 -> 47         0.00176
       3 -> 51         0.00062
       3 -> 54         0.00028
       4 -> 10         0.02019
       4 -> 11         0.01034
       4 -> 14         0.01216
       4 -> 16        -0.00714
       4 -> 17         0.00338
       4 -> 20         0.00779
       4 -> 21         0.00029
       4 -> 24        -0.00630
       4 -> 26         0.00585
       4 -> 29         0.00114
       4 -> 32        -0.00122
       4 -> 34        -0.00254
       4 -> 36        -0.00022
       4 -> 39        -0.00019
       4 -> 41         0.00014
       4 -> 43        -0.00026
       4 -> 47        -0.00167
       4 -> 51        -0.00024
       5 -> 12         0.02381
       5 -> 15         0.01997
       5 -> 19         0.00170
       5 -> 22         0.00573
       5 -> 25         0.01090
       5 -> 30        -0.00141
       5 -> 33        -0.00334
       5 -> 35         0.00243
       5 -> 40         0.00162
       5 -> 42         0.00064
       5 -> 49         0.00059
       5 -> 50        -0.00056
       5 -> 53        -0.00023
       6 -> 10        -0.06277
       6 -> 11         0.09382
       6 -> 14        -0.05939
       6 -> 16        -0.11914
       6 -> 17        -0.01849
       6 -> 20        -0.02234
       6 -> 21         0.02141
       6 -> 24        -0.01953
       6 -> 26        -0.00995
       6 -> 29        -0.00969
       6 -> 34         0.00216
       6 -> 36        -0.00153
       6 -> 39         0.00048
       6 -> 41        -0.00069
       6 -> 43         0.00063
       6 -> 47         0.00174
       6 -> 51         0.00083
       6 -> 54        -0.00043
       7 ->  9         0.68615
       7 -> 13         0.01045
       7 -> 18        -0.02371
       7 -> 23         0.00314
       7 -> 28        -0.00345
       7 -> 31        -0.00247
       7 -> 37         0.00046
       7 -> 44        -0.00102
       7 -> 48         0.00057
       7 -> 52         0.00102
       8 -> 12        -0.00330
       8 -> 15         0.09998
       8 -> 19        -0.02662
       8 -> 22        -0.03767
       8 -> 25         0.00179
       8 -> 30        -0.01423
       8 -> 33         0.00383
       8 -> 35        -0.00484
       8 -> 40        -0.00212
       8 -> 42        -0.00034
       8 -> 49         0.00070
       8 -> 50         0.00031
       8 -> 53        -0.00087
       3 <- 10         0.00518
       3 <- 11        -0.01057
       3 <- 14         0.00800
       3 <- 16         0.01256
       3 <- 17        -0.00213
       3 <- 20        -0.00167
       3 <- 21        -0.00298
       3 <- 24         0.00284
       3 <- 26         0.00387
       3 <- 29        -0.00014
       3 <- 32         0.00259
       3 <- 34         0.00238
       3 <- 36         0.00022
       3 <- 39         0.00090
       3 <- 41         0.00012
       3 <- 43         0.00052
       3 <- 45         0.00112
       3 <- 47         0.00200
       3 <- 51         0.00060
       3 <- 54         0.00035
       4 <- 10         0.00925
       4 <- 11         0.00571
       4 <- 14         0.00569
       4 <- 16        -0.00425
       4 <- 17         0.00151
       4 <- 20         0.00544
       4 <- 21         0.00028
       4 <- 24        -0.00397
       4 <- 26         0.00430
       4 <- 29         0.00025
       4 <- 32        -0.00158
       4 <- 34        -0.00218
       4 <- 39        -0.00024
       4 <- 43        -0.00026
       4 <- 45         0.00042
       4 <- 47        -0.00136
       5 <- 12         0.00861
       5 <- 15         0.00867
       5 <- 19         0.00109
       5 <- 22         0.00319
       5 <- 25         0.00672
       5 <- 30        -0.00079
       5 <- 33        -0.00247
       5 <- 35         0.00193
       5 <- 40         0.00137
       5 <- 42         0.00050
       5 <- 49         0.00051
       5 <- 50        -0.00050
       5 <- 53        -0.00020
       6 <- 10        -0.01540
       6 <- 11         0.02473
       6 <- 14        -0.02025
       6 <- 16        -0.04548
       6 <- 17        -0.00767
       6 <- 20        -0.01141
       6 <- 21         0.01119
       6 <- 24        -0.01109
       6 <- 26        -0.00585
       6 <- 29        -0.00628
       6 <- 32         0.00050
       6 <- 34         0.00229
       6 <- 36        -0.00113
       6 <- 39         0.00062
       6 <- 41        -0.00046
       6 <- 43         0.00055
       6 <- 45        -0.00032
       6 <- 47         0.00128
       6 <- 51         0.00063
       6 <- 54        -0.00034
       7 <-  9        -0.11342
       7 <- 13         0.01012
       7 <- 18        -0.01470
       7 <- 23         0.00552
       7 <- 28        -0.00515
       7 <- 31        -0.00089
       7 <- 44        -0.00051
       7 <- 52         0.00087
       8 <- 12        -0.00049
       8 <- 15         0.02682
       8 <- 19        -0.00903
       8 <- 22        -0.01769
       8 <- 25         0.00057
       8 <- 30        -0.00951
       8 <- 33         0.00271
       8 <- 35        -0.00352
       8 <- 40        -0.00167
       8 <- 42        -0.00027
       8 <- 49         0.00048
       8 <- 50         0.00024
       8 <- 53        -0.00078
 
 Excited State   3:      Singlet-B1     6.3447 eV  195.41 nm  f=0.0015  <S**2>=0.000
       3 ->  9        -0.03172
       3 -> 13         0.00258
       3 -> 18        -0.00554
       3 -> 23         0.00242
       3 -> 28        -0.00140
       3 -> 31        -0.00050
       3 -> 44         0.00035
       3 -> 48         0.00074
       3 -> 52         0.00105
       4 ->  9         0.01508
       4 -> 13        -0.00271
       4 -> 18         0.00050
       4 -> 23        -0.00248
       4 -> 28         0.00019
       4 -> 31        -0.00179
       4 -> 37        -0.00045
       4 -> 48        -0.00133
       4 -> 52        -0.00075
       5 -> 27        -0.00073
       5 -> 38         0.00198
       5 -> 46         0.00145
       6 ->  9         0.70601
       6 -> 13        -0.02356
       6 -> 18         0.01875
       6 -> 23        -0.01156
       6 -> 28         0.00528
       6 -> 31         0.00377
       6 -> 37        -0.00243
       6 -> 44        -0.00325
       6 -> 48         0.00467
       6 -> 52         0.00166
       7 -> 10        -0.00782
       7 -> 11         0.01065
       7 -> 14        -0.00675
       7 -> 16        -0.00706
       7 -> 17        -0.01001
       7 -> 20         0.00226
       7 -> 21        -0.00089
       7 -> 24         0.00022
       7 -> 26        -0.00074
       7 -> 29        -0.00433
       7 -> 32        -0.00100
       7 -> 36         0.00179
       7 -> 39         0.00012
       7 -> 41        -0.00101
       7 -> 43         0.00070
       7 -> 45         0.00285
       7 -> 47         0.00384
       7 -> 51         0.00115
       7 -> 54         0.00053
       8 -> 27         0.00112
       8 -> 38         0.00034
       8 -> 46         0.00602
       3 <-  9        -0.01038
       3 <- 13        -0.00024
       3 <- 18        -0.00316
       3 <- 23        -0.00029
       3 <- 28        -0.00093
       3 <- 31        -0.00056
       3 <- 44        -0.00026
       3 <- 48         0.00096
       3 <- 52         0.00084
       4 <-  9         0.00648
       4 <- 18         0.00224
       4 <- 23        -0.00040
       4 <- 28         0.00196
       4 <- 31        -0.00133
       4 <- 37        -0.00013
       4 <- 44         0.00017
       4 <- 48        -0.00115
       4 <- 52        -0.00042
       5 <- 27        -0.00113
       5 <- 38         0.00156
       5 <- 46         0.00129
       6 <-  9        -0.02298
       6 <- 13         0.00189
       6 <- 18        -0.00304
       6 <- 23        -0.00018
       6 <- 28        -0.00303
       6 <- 31         0.00187
       6 <- 37        -0.00221
       6 <- 44        -0.00192
       6 <- 48         0.00416
       6 <- 52         0.00061
       7 <- 10         0.00528
       7 <- 11        -0.00824
       7 <- 14         0.00649
       7 <- 16         0.01695
       7 <- 17         0.00015
       7 <- 20         0.00599
       7 <- 21        -0.00537
       7 <- 24         0.00497
       7 <- 26         0.00222
       7 <- 29         0.00069
       7 <- 32        -0.00073
       7 <- 34        -0.00074
       7 <- 36         0.00283
       7 <- 39         0.00038
       7 <- 41        -0.00060
       7 <- 43         0.00061
       7 <- 45         0.00271
       7 <- 47         0.00338
       7 <- 51         0.00090
       7 <- 54         0.00109
       8 <- 27         0.00144
       8 <- 38         0.00049
       8 <- 46         0.00551
 
 Excited State   4:      Singlet-B2     6.8483 eV  181.04 nm  f=0.0153  <S**2>=0.000
       3 -> 12         0.00187
       3 -> 15        -0.00040
       3 -> 19         0.00258
       3 -> 22        -0.00029
       3 -> 25         0.00066
       3 -> 30         0.00134
       3 -> 33         0.00037
       3 -> 35        -0.00127
       3 -> 40        -0.00090
       3 -> 42        -0.00012
       3 -> 49         0.00106
       3 -> 50        -0.00015
       3 -> 53        -0.00018
       4 -> 12        -0.00114
       4 -> 15         0.00265
       4 -> 19         0.00116
       4 -> 22        -0.00340
       4 -> 25         0.00289
       4 -> 30        -0.00040
       4 -> 33         0.00020
       4 -> 35        -0.00012
       4 -> 40         0.00045
       4 -> 42        -0.00011
       4 -> 49        -0.00016
       5 -> 10        -0.00593
       5 -> 11        -0.00067
       5 -> 14         0.01203
       5 -> 16         0.00469
       5 -> 17        -0.00159
       5 -> 20        -0.00013
       5 -> 21        -0.00607
       5 -> 24        -0.00160
       5 -> 26         0.00196
       5 -> 29         0.00139
       5 -> 32        -0.00038
       5 -> 34         0.00116
       5 -> 36         0.00050
       5 -> 39         0.00032
       5 -> 41        -0.00076
       5 -> 43        -0.00019
       5 -> 45         0.00021
       5 -> 47         0.00039
       5 -> 51        -0.00025
       5 -> 54         0.00016
       6 -> 12        -0.00302
       6 -> 15         0.00098
       6 -> 19        -0.00095
       6 -> 22        -0.00110
       6 -> 25         0.00070
       6 -> 33        -0.00046
       6 -> 35         0.00160
       6 -> 40         0.00092
       6 -> 49        -0.00043
       6 -> 53         0.00014
       7 -> 27         0.00020
       7 -> 38        -0.00096
       7 -> 46        -0.00153
       8 -> 10         0.69838
       8 -> 11        -0.08018
       8 -> 14         0.05539
       8 -> 16         0.04920
       8 -> 17         0.00134
       8 -> 20         0.01161
       8 -> 21        -0.00055
       8 -> 24         0.00214
       8 -> 26         0.00458
       8 -> 29         0.00443
       8 -> 32         0.00113
       8 -> 34         0.00036
       8 -> 36         0.00032
       8 -> 39         0.00032
       8 -> 41        -0.00047
       8 -> 43         0.00066
       8 -> 45         0.00142
       8 -> 47         0.00118
       8 -> 51        -0.00104
       8 -> 54         0.00062
       3 <- 12         0.00049
       3 <- 15         0.00014
       3 <- 19         0.00114
       3 <- 22        -0.00072
       3 <- 25         0.00028
       3 <- 30         0.00046
       3 <- 33         0.00033
       3 <- 35        -0.00106
       3 <- 40        -0.00083
       3 <- 49         0.00111
       3 <- 50        -0.00012
       3 <- 53        -0.00039
       4 <- 12         0.00068
       4 <- 15         0.00229
       4 <- 19         0.00114
       4 <- 22        -0.00245
       4 <- 25         0.00183
       4 <- 30        -0.00033
       4 <- 33         0.00030
       4 <- 35        -0.00031
       4 <- 40         0.00011
       4 <- 42        -0.00020
       4 <- 49        -0.00012
       5 <- 10         0.00195
       5 <- 11         0.00069
       5 <- 14         0.00428
       5 <- 16        -0.00144
       5 <- 17        -0.00028
       5 <- 21        -0.00155
       5 <- 24        -0.00267
       5 <- 26         0.00108
       5 <- 29         0.00031
       5 <- 32        -0.00074
       5 <- 34         0.00065
       5 <- 36         0.00013
       5 <- 41        -0.00065
       5 <- 43        -0.00023
       5 <- 45         0.00033
       5 <- 47         0.00015
       5 <- 51        -0.00011
       6 <- 12        -0.00028
       6 <- 15        -0.00213
       6 <- 19         0.00118
       6 <- 22         0.00125
       6 <- 25         0.00024
       6 <- 30         0.00189
       6 <- 33        -0.00057
       6 <- 35         0.00156
       6 <- 40         0.00086
       6 <- 49        -0.00047
       6 <- 50        -0.00011
       6 <- 53         0.00045
       7 <- 27         0.00025
       7 <- 38        -0.00072
       7 <- 46        -0.00122
       8 <- 10        -0.00297
       8 <- 11         0.00441
       8 <- 14        -0.00556
       8 <- 16        -0.00439
       8 <- 17        -0.00032
       8 <- 20         0.00032
       8 <- 21         0.00180
       8 <- 24         0.00024
       8 <- 26        -0.00147
       8 <- 29         0.00025
       8 <- 32        -0.00034
       8 <- 34        -0.00046
       8 <- 36        -0.00040
       8 <- 39        -0.00052
       8 <- 41        -0.00036
       8 <- 43         0.00018
       8 <- 45         0.00152
       8 <- 47         0.00054
       8 <- 51        -0.00053
       8 <- 54         0.00016
 
 Excited State   5:      Singlet-B2     7.3119 eV  169.56 nm  f=0.0175  <S**2>=0.000
       3 -> 12         0.00065
       3 -> 15         0.00199
       3 -> 19        -0.00219
       3 -> 22        -0.00048
       3 -> 25         0.00071
       3 -> 30        -0.00358
       3 -> 33        -0.00014
       3 -> 35         0.00123
       3 -> 40         0.00100
       3 -> 49        -0.00129
       3 -> 50         0.00014
       4 -> 12        -0.00166
       4 -> 15        -0.00076
       4 -> 19         0.00017
       4 -> 22         0.00091
       4 -> 25        -0.00117
       4 -> 30         0.00187
       4 -> 33        -0.00045
       4 -> 35         0.00065
       4 -> 40        -0.00011
       4 -> 50        -0.00013
       5 -> 10        -0.00495
       5 -> 11         0.00189
       5 -> 14        -0.00883
       5 -> 16         0.00404
       5 -> 17         0.00325
       5 -> 20         0.00327
       5 -> 21         0.00349
       5 -> 24         0.00045
       5 -> 26        -0.00163
       5 -> 29        -0.00133
       5 -> 32        -0.00130
       5 -> 34        -0.00036
       5 -> 36        -0.00076
       5 -> 39        -0.00088
       5 -> 41         0.00036
       5 -> 43        -0.00036
       5 -> 45        -0.00076
       5 -> 47        -0.00058
       5 -> 51         0.00051
       6 -> 12         0.00117
       6 -> 19         0.00117
       6 -> 22        -0.00099
       6 -> 30        -0.00128
       6 -> 33         0.00034
       6 -> 35        -0.00130
       6 -> 40        -0.00141
       6 -> 42        -0.00023
       6 -> 49         0.00179
       6 -> 50        -0.00015
       6 -> 53        -0.00019
       7 -> 27        -0.00077
       7 -> 38         0.00041
       7 -> 46         0.00298
       8 -> 10         0.08734
       8 -> 11         0.69707
       8 -> 14        -0.03003
       8 -> 16        -0.07267
       8 -> 17        -0.00513
       8 -> 20         0.01342
       8 -> 21         0.00315
       8 -> 24        -0.00439
       8 -> 26        -0.00075
       8 -> 29        -0.00533
       8 -> 32        -0.00058
       8 -> 34        -0.00077
       8 -> 36        -0.00105
       8 -> 39         0.00013
       8 -> 41         0.00049
       8 -> 43        -0.00022
       8 -> 45        -0.00331
       8 -> 47        -0.00194
       8 -> 51         0.00172
       8 -> 54        -0.00050
       3 <- 12        -0.00024
       3 <- 15         0.00075
       3 <- 19        -0.00137
       3 <- 25         0.00029
       3 <- 30        -0.00173
       3 <- 33        -0.00021
       3 <- 35         0.00104
       3 <- 40         0.00090
       3 <- 49        -0.00128
       3 <- 50         0.00011
       3 <- 53         0.00054
       4 <- 12         0.00013
       4 <- 15        -0.00068
       4 <- 19         0.00047
       4 <- 22         0.00097
       4 <- 25        -0.00045
       4 <- 30         0.00124
       4 <- 33        -0.00045
       4 <- 35         0.00053
       5 <- 11        -0.00171
       5 <- 14        -0.00115
       5 <- 16         0.00261
       5 <- 20         0.00031
       5 <- 21         0.00120
       5 <- 24         0.00091
       5 <- 29        -0.00051
       5 <- 34         0.00039
       5 <- 39        -0.00029
       5 <- 41         0.00045
       5 <- 43        -0.00018
       5 <- 45        -0.00088
       5 <- 47        -0.00037
       5 <- 51         0.00032
       6 <- 15         0.00255
       6 <- 19        -0.00105
       6 <- 22        -0.00205
       6 <- 25         0.00011
       6 <- 30        -0.00250
       6 <- 33         0.00046
       6 <- 35        -0.00135
       6 <- 40        -0.00131
       6 <- 42        -0.00025
       6 <- 49         0.00157
       6 <- 50        -0.00011
       6 <- 53        -0.00039
       7 <- 27        -0.00068
       7 <- 38         0.00033
       7 <- 46         0.00247
       8 <- 10         0.00303
       8 <- 11        -0.00648
       8 <- 14         0.00531
       8 <- 16         0.00718
       8 <- 17        -0.00119
       8 <- 20        -0.00300
       8 <- 21        -0.00154
       8 <- 24         0.00121
       8 <- 26         0.00148
       8 <- 29        -0.00120
       8 <- 32         0.00213
       8 <- 34         0.00203
       8 <- 36        -0.00030
       8 <- 39         0.00124
       8 <- 41         0.00076
       8 <- 45        -0.00295
       8 <- 47        -0.00113
       8 <- 51         0.00111
 
 Excited State   6:      Singlet-A2     8.0110 eV  154.77 nm  f=0.0000  <S**2>=0.000
       3 -> 27        -0.00129
       3 -> 38        -0.00052
       3 -> 46         0.00042
       4 -> 27        -0.00586
       4 -> 38         0.00050
       4 -> 46        -0.00048
       5 ->  9         0.70547
       5 -> 13        -0.02971
       5 -> 18         0.00787
       5 -> 23        -0.01511
       5 -> 28         0.00128
       5 -> 31        -0.00070
       5 -> 37        -0.00581
       5 -> 44        -0.00207
       5 -> 48        -0.00024
       5 -> 52         0.00018
       6 -> 27        -0.00123
       6 -> 38         0.00203
       6 -> 46         0.00041
       7 -> 12         0.01521
       7 -> 15         0.01408
       7 -> 19         0.00107
       7 -> 22        -0.00530
       7 -> 25         0.00043
       7 -> 30        -0.00091
       7 -> 33        -0.00033
       7 -> 35        -0.00048
       7 -> 40        -0.00017
       7 -> 42        -0.00024
       7 -> 49        -0.00022
       7 -> 50        -0.00078
       8 ->  9        -0.01147
       8 -> 13         0.02457
       8 -> 18         0.00876
       8 -> 23         0.00318
       8 -> 28         0.00197
       8 -> 31         0.00101
       8 -> 37         0.00245
       8 -> 44         0.00024
       8 -> 48         0.00014
       8 -> 52         0.00045
       3 <- 27        -0.00154
       3 <- 38        -0.00065
       3 <- 46         0.00055
       4 <- 27        -0.00502
       4 <- 38         0.00025
       4 <- 46        -0.00011
       5 <-  9        -0.01183
       5 <- 13         0.00199
       5 <- 18        -0.00038
       5 <- 28         0.00159
       5 <- 31        -0.00274
       5 <- 37        -0.00333
       5 <- 44        -0.00037
       5 <- 48        -0.00029
       6 <- 27        -0.00151
       6 <- 38         0.00146
       6 <- 46         0.00025
       7 <- 12        -0.00221
       7 <- 15        -0.00123
       7 <- 19        -0.00015
       7 <- 22        -0.00304
       7 <- 25        -0.00294
       7 <- 30         0.00030
       7 <- 33         0.00047
       7 <- 35        -0.00090
       7 <- 40        -0.00064
       7 <- 42        -0.00053
       7 <- 49        -0.00042
       7 <- 50        -0.00087
       7 <- 53         0.00027
       8 <-  9         0.00018
       8 <- 13        -0.00044
       8 <- 18        -0.00154
       8 <- 28        -0.00219
       8 <- 31         0.00154
       8 <- 37         0.00112
       8 <- 48         0.00011
 
 Excited State   7:      Singlet-A1     8.0467 eV  154.08 nm  f=0.0283  <S**2>=0.000
       3 -> 10         0.00252
       3 -> 14         0.00226
       3 -> 16         0.00247
       3 -> 17        -0.00022
       3 -> 20         0.00033
       3 -> 21        -0.00014
       3 -> 24         0.00018
       3 -> 26         0.00038
       3 -> 29         0.00036
       3 -> 32         0.00011
       3 -> 34         0.00084
       3 -> 36        -0.00036
       3 -> 41        -0.00018
       3 -> 45         0.00017
       3 -> 47        -0.00018
       3 -> 54        -0.00012
       4 -> 10         0.00190
       4 -> 11        -0.00191
       4 -> 14         0.00129
       4 -> 16        -0.00135
       4 -> 17         0.00099
       4 -> 20         0.00117
       4 -> 21         0.00124
       4 -> 24        -0.00431
       4 -> 26         0.00189
       4 -> 32        -0.00041
       4 -> 34        -0.00030
       4 -> 39         0.00012
       4 -> 43         0.00014
       5 -> 12        -0.00028
       5 -> 15         0.00078
       5 -> 19         0.00479
       5 -> 22        -0.00266
       5 -> 25         0.00357
       5 -> 30        -0.00018
       5 -> 35         0.00054
       6 -> 10         0.00615
       6 -> 11         0.00071
       6 -> 14         0.00192
       6 -> 16        -0.00214
       6 -> 17        -0.00160
       6 -> 20         0.00106
       6 -> 21         0.00151
       6 -> 24        -0.00317
       6 -> 26         0.00015
       6 -> 29        -0.00201
       6 -> 32         0.00017
       6 -> 34         0.00012
       6 -> 36         0.00024
       6 -> 39         0.00042
       6 -> 43         0.00020
       6 -> 45        -0.00035
       6 -> 47         0.00039
       6 -> 51         0.00012
       6 -> 54        -0.00014
       7 ->  9         0.00312
       7 -> 13         0.01082
       7 -> 18        -0.00263
       7 -> 23         0.00323
       7 -> 28        -0.00114
       7 -> 31        -0.00114
       7 -> 37         0.00054
       7 -> 44         0.00050
       7 -> 48        -0.00030
       7 -> 52        -0.00015
       8 -> 12         0.70635
       8 -> 15         0.00776
       8 -> 19         0.02634
       8 -> 22         0.00201
       8 -> 25         0.00643
       8 -> 30        -0.00166
       8 -> 33         0.00124
       8 -> 35        -0.00136
       8 -> 40         0.00012
       8 -> 49        -0.00046
       8 -> 50         0.00012
       8 -> 53        -0.00017
       3 <- 10         0.00071
       3 <- 11        -0.00075
       3 <- 14         0.00084
       3 <- 16         0.00104
       3 <- 20        -0.00017
       3 <- 21        -0.00010
       3 <- 24        -0.00016
       3 <- 26         0.00039
       3 <- 29         0.00020
       3 <- 32         0.00021
       3 <- 34         0.00057
       3 <- 36        -0.00031
       3 <- 45         0.00019
       3 <- 47        -0.00012
       3 <- 54        -0.00011
       4 <- 10         0.00216
       4 <- 14         0.00158
       4 <- 16        -0.00072
       4 <- 17         0.00032
       4 <- 20         0.00064
       4 <- 21         0.00078
       4 <- 24        -0.00234
       4 <- 26         0.00105
       4 <- 29         0.00015
       4 <- 32        -0.00056
       4 <- 41        -0.00017
       4 <- 43         0.00012
       5 <- 12         0.00153
       5 <- 15         0.00191
       5 <- 19         0.00199
       5 <- 22        -0.00114
       5 <- 25         0.00201
       5 <- 33        -0.00015
       5 <- 35         0.00043
       5 <- 49         0.00012
       6 <- 10         0.00149
       6 <- 11        -0.00015
       6 <- 14         0.00082
       6 <- 16        -0.00056
       6 <- 17        -0.00057
       6 <- 20         0.00045
       6 <- 21         0.00082
       6 <- 24        -0.00138
       6 <- 26         0.00019
       6 <- 29        -0.00135
       6 <- 34         0.00012
       6 <- 36         0.00019
       6 <- 39         0.00027
       6 <- 43         0.00015
       6 <- 45        -0.00039
       6 <- 47         0.00027
       6 <- 51         0.00014
       6 <- 54        -0.00013
       7 <-  9        -0.00070
       7 <- 13         0.00114
       7 <- 18        -0.00090
       7 <- 23         0.00141
       7 <- 28        -0.00071
       7 <- 31        -0.00078
       7 <- 37         0.00042
       7 <- 44         0.00041
       7 <- 48        -0.00024
       7 <- 52        -0.00013
       8 <- 12         0.00033
       8 <- 15        -0.00185
       8 <- 19        -0.00121
       8 <- 22         0.00028
       8 <- 25        -0.00044
       8 <- 30        -0.00133
       8 <- 33         0.00020
       8 <- 40         0.00032
       8 <- 49        -0.00042
       8 <- 53        -0.00018
 
 Excited State   8:      Singlet-B1     8.3931 eV  147.72 nm  f=0.0142  <S**2>=0.000
       3 ->  9         0.00905
       3 -> 13         0.00040
       3 -> 18         0.00130
       3 -> 23        -0.00089
       3 -> 28         0.00112
       3 -> 31         0.00017
       3 -> 44        -0.00047
       3 -> 48         0.00074
       4 ->  9         0.02409
       4 -> 13        -0.00267
       4 -> 18        -0.00094
       4 -> 23        -0.00336
       4 -> 28        -0.00124
       4 -> 31         0.00092
       4 -> 37        -0.00052
       4 -> 48        -0.00027
       5 -> 27         0.00402
       5 -> 38         0.00168
       5 -> 46        -0.00052
       6 ->  9         0.00895
       6 -> 13         0.00311
       6 -> 18        -0.00201
       6 -> 23         0.00114
       6 -> 28        -0.00163
       6 -> 31         0.00166
       6 -> 37        -0.00081
       6 -> 44         0.00048
       6 -> 48        -0.00062
       6 -> 52         0.00011
       7 -> 10         0.70230
       7 -> 11        -0.04705
       7 -> 14         0.05182
       7 -> 16         0.03288
       7 -> 20         0.00822
       7 -> 21         0.00223
       7 -> 24        -0.00173
       7 -> 26         0.00561
       7 -> 29         0.00305
       7 -> 32        -0.00019
       7 -> 34         0.00126
       7 -> 36         0.00116
       7 -> 39         0.00051
       7 -> 41        -0.00022
       7 -> 45        -0.00068
       7 -> 47        -0.00093
       7 -> 51        -0.00060
       7 -> 54         0.00035
       8 -> 27        -0.00123
       8 -> 38        -0.00054
       8 -> 46        -0.00124
       3 <-  9         0.00207
       3 <- 13        -0.00043
       3 <- 18         0.00043
       3 <- 23        -0.00074
       3 <- 28         0.00052
       3 <- 44        -0.00019
       3 <- 48         0.00087
       3 <- 52        -0.00024
       4 <-  9         0.00237
       4 <- 13        -0.00037
       4 <- 18        -0.00020
       4 <- 23        -0.00095
       4 <- 28        -0.00102
       4 <- 31         0.00092
       4 <- 37        -0.00049
       4 <- 44         0.00041
       5 <- 27         0.00241
       5 <- 38         0.00121
       5 <- 46        -0.00039
       6 <-  9         0.00682
       6 <- 13         0.00064
       6 <- 18         0.00122
       6 <- 23         0.00078
       6 <- 28         0.00030
[...]
  53        6D+1        0.00000   0.00000   0.00000   0.00000  -0.00000
  54        6D-1       -0.00000  -0.00000  -0.00146  -0.00134   0.00182
  55        6D+2        0.00002  -0.00000  -0.00005  -0.00004  -0.00000
  56        6D-2       -0.00000   0.00000  -0.00000  -0.00000   0.00000
                          26        27        28        29        30
  26        4PX         0.00026
  27        4PY        -0.00000   0.00107
  28        4PZ         0.00000  -0.00048   0.00058
  29 3   H  1S          0.00000  -0.00183  -0.00267   0.07847
  30        2S          0.00000  -0.00179  -0.00419   0.11186   0.16304
  31        3S         -0.00000   0.00049  -0.00218   0.03685   0.06202
  32        4PX         0.00026   0.00000   0.00000  -0.00000  -0.00000
  33        4PY         0.00000  -0.00055  -0.00006   0.00804   0.01062
  34        4PZ        -0.00000   0.00006  -0.00001   0.00441   0.00617
  35 4   O  1S         -0.00000   0.00000  -0.00067   0.00174   0.00078
  36        2S          0.00000  -0.00002  -0.00085   0.00284   0.00150
  37        2PX         0.00547   0.00000  -0.00000  -0.00000  -0.00000
  38        2PY         0.00000  -0.00222   0.00118   0.01579   0.04357
  39        2PZ         0.00000  -0.00117  -0.00450   0.01446   0.02138
  40        3S         -0.00000   0.00032   0.00169  -0.00957  -0.00648
  41        3PX         0.00800   0.00000  -0.00000  -0.00000  -0.00000
  42        3PY         0.00000  -0.00324   0.00175   0.02213   0.06179
  43        3PZ         0.00000  -0.00167  -0.00665   0.02102   0.03107
  44        4S         -0.00000   0.00005  -0.00068  -0.00327   0.00172
  45        4PX         0.00702   0.00000  -0.00000  -0.00000  -0.00000
  46        4PY         0.00000  -0.00259   0.00121   0.02460   0.06272
  47        4PZ         0.00000  -0.00146  -0.00423   0.01592   0.02313
  48        5S          0.00000  -0.00045  -0.00262   0.00713   0.01054
  49        5PX         0.00092   0.00000   0.00000  -0.00000  -0.00000
  50        5PY         0.00000   0.00004  -0.00038   0.01290   0.02454
  51        5PZ         0.00000  -0.00038   0.00019   0.00205   0.00266
  52        6D 0        0.00000  -0.00003   0.00042  -0.00050  -0.00085
  53        6D+1       -0.00040  -0.00000   0.00000  -0.00000  -0.00000
  54        6D-1       -0.00000   0.00025  -0.00022   0.00146   0.00134
  55        6D+2       -0.00000   0.00000   0.00001  -0.00005  -0.00004
  56        6D-2       -0.00000   0.00000   0.00000  -0.00000  -0.00000
                          31        32        33        34        35
  31        3S          0.04458
  32        4PX        -0.00000   0.00026
  33        4PY         0.00158  -0.00000   0.00107
  34        4PZ         0.00107  -0.00000   0.00048   0.00058
  35 4   O  1S          0.00022   0.00000  -0.00000  -0.00067   0.64100
  36        2S          0.00022  -0.00000   0.00002  -0.00085   0.57117
  37        2PX        -0.00000   0.00547   0.00000   0.00000   0.00000
  38        2PY         0.07145   0.00000  -0.00222  -0.00118   0.00000
  39        2PZ         0.01582  -0.00000   0.00117  -0.00450  -0.01113
  40        3S         -0.00020   0.00000  -0.00032   0.00169  -0.14368
  41        3PX        -0.00000   0.00800   0.00000   0.00000   0.00000
  42        3PY         0.10243   0.00000  -0.00324  -0.00175   0.00000
  43        3PZ         0.02323  -0.00000   0.00167  -0.00665  -0.01270
  44        4S          0.00649   0.00000  -0.00005  -0.00068  -0.13858
  45        4PX        -0.00000   0.00702   0.00000   0.00000   0.00000
  46        4PY         0.09513   0.00000  -0.00259  -0.00121   0.00000
  47        4PZ         0.01546  -0.00000   0.00146  -0.00423  -0.01024
  48        5S          0.00870  -0.00000   0.00045  -0.00262   0.00549
  49        5PX        -0.00000   0.00092   0.00000  -0.00000   0.00000
  50        5PY         0.02369   0.00000   0.00004   0.00038   0.00000
  51        5PZ         0.00007  -0.00000   0.00038   0.00019  -0.00379
  52        6D 0       -0.00122  -0.00000   0.00003   0.00042  -0.00064
  53        6D+1        0.00000  -0.00040  -0.00000  -0.00000   0.00000
  54        6D-1       -0.00182  -0.00000   0.00025   0.00022   0.00000
  55        6D+2       -0.00000   0.00000  -0.00000   0.00001  -0.00081
  56        6D-2        0.00000   0.00000  -0.00000   0.00000  -0.00000
                          36        37        38        39        40
  36        2S          0.52675
  37        2PX         0.00000   0.11386
  38        2PY         0.00000  -0.00000   0.18887
  39        2PZ        -0.01730   0.00000   0.00000   0.11165
  40        3S         -0.24132   0.00000   0.00000   0.04992   0.75312
  41        3PX         0.00000   0.16628  -0.00000   0.00000   0.00000
  42        3PY         0.00000  -0.00000   0.27161  -0.00000  -0.00000
  43        3PZ        -0.02102   0.00000   0.00000   0.16361   0.06536
  44        4S         -0.21613   0.00000   0.00000   0.08793   0.62088
  45        4PX         0.00000   0.14598  -0.00000   0.00000   0.00000
  46        4PY         0.00000  -0.00000   0.24528  -0.00000  -0.00000
  47        4PZ        -0.01744   0.00000   0.00000   0.10845   0.05556
  48        5S          0.00392   0.00000   0.00000   0.06033   0.00529
  49        5PX         0.00000   0.01906  -0.00000   0.00000   0.00000
  50        5PY         0.00000  -0.00000   0.04940  -0.00000  -0.00000
  51        5PZ        -0.00544   0.00000   0.00000   0.00023   0.01392
  52        6D 0       -0.00097  -0.00000  -0.00000  -0.00857   0.00257
  53        6D+1        0.00000  -0.00827  -0.00000   0.00000  -0.00000
  54        6D-1        0.00000  -0.00000  -0.00802   0.00000  -0.00000
  55        6D+2       -0.00130   0.00000  -0.00000   0.00023   0.00386
  56        6D-2       -0.00000   0.00000  -0.00000   0.00000   0.00000
                          41        42        43        44        45
  41        3PX         0.24283
  42        3PY        -0.00000   0.39062
  43        3PZ         0.00000   0.00000   0.23985
  44        4S          0.00000   0.00000   0.12261   0.53281
  45        4PX         0.21319  -0.00000   0.00000   0.00000   0.18716
  46        4PY        -0.00000   0.35269  -0.00000  -0.00000  -0.00000
  47        4PZ         0.00000   0.00000   0.15883   0.09084   0.00000
  48        5S          0.00000   0.00000   0.08867   0.03009   0.00000
  49        5PX         0.02784  -0.00000   0.00000   0.00000   0.02444
  50        5PY        -0.00000   0.07094  -0.00000  -0.00000  -0.00000
  51        5PZ         0.00000   0.00000   0.00016   0.01107   0.00000
  52        6D 0       -0.00000  -0.00000  -0.01263  -0.00169  -0.00000
  53        6D+1       -0.01208  -0.00000   0.00000  -0.00000  -0.01061
  54        6D-1       -0.00000  -0.01156   0.00000   0.00000   0.00000
  55        6D+2        0.00000  -0.00000   0.00029   0.00317   0.00000
  56        6D-2        0.00000  -0.00000   0.00000   0.00000   0.00000
                          46        47        48        49        50
  46        4PY         0.31891
  47        4PZ         0.00000   0.10556
  48        5S          0.00000   0.05833   0.03341
  49        5PX        -0.00000   0.00000   0.00000   0.00319
  50        5PY         0.06493  -0.00000   0.00000  -0.00000   0.01459
  51        5PZ         0.00000   0.00051  -0.00041   0.00000   0.00000
  52        6D 0       -0.00000  -0.00821  -0.00486  -0.00000  -0.00000
  53        6D+1        0.00000   0.00000   0.00000  -0.00139   0.00000
  54        6D-1       -0.01022   0.00000   0.00000   0.00000  -0.00169
  55        6D+2       -0.00000   0.00026   0.00001  -0.00000  -0.00000
  56        6D-2       -0.00000   0.00000  -0.00000   0.00000   0.00000
                          51        52        53        54        55
  51        5PZ         0.00046
  52        6D 0        0.00017   0.00073
  53        6D+1       -0.00000   0.00000   0.00060
  54        6D-1       -0.00000   0.00000   0.00000   0.00044
  55        6D+2        0.00007   0.00002  -0.00000   0.00000   0.00002
  56        6D-2        0.00000   0.00000  -0.00000   0.00000   0.00000
                          56
  56        6D-2        0.00000
          Condensed to atoms (all electrons):
               1          2          3          4
     1  C    4.981505   0.363622   0.363622   0.329227
     2  H    0.363622   0.571436  -0.066548  -0.034367
     3  H    0.363622  -0.066548   0.571436  -0.034367
     4  O    0.329227  -0.034367  -0.034367   8.033241
 Mulliken charges:
               1
     1  C   -0.037977
     2  H    0.165856
     3  H    0.165856
     4  O   -0.293735
 Sum of Mulliken charges =   0.00000
 Mulliken charges with hydrogens summed into heavy atoms:
               1
     1  C    0.293735
     4  O   -0.293735
 Electronic spatial extent (au):  <R**2>=             72.7377
 Charge=              0.0000 electrons
 Dipole moment (field-independent basis, Debye):
    X=             -0.0000    Y=              0.0000    Z=             -3.4692  Tot=              3.4692
 Quadrupole moment (field-independent basis, Debye-Ang):
   XX=            -12.4909   YY=            -11.8087   ZZ=            -11.6656
   XY=              0.0000   XZ=              0.0000   YZ=              0.0000
 Traceless Quadrupole moment (field-independent basis, Debye-Ang):
   XX=             -0.5025   YY=              0.1797   ZZ=              0.3228
   XY=              0.0000   XZ=              0.0000   YZ=              0.0000
 Octapole moment (field-independent basis, Debye-Ang**2):
  XXX=              0.0000  YYY=              0.0000  ZZZ=             -1.6808  XYY=             -0.0000
  XXY=             -0.0000  XXZ=              0.5456  XZZ=             -0.0000  YZZ=             -0.0000
  YYZ=             -1.8591  XYZ=             -0.0000
 Hexadecapole moment (field-independent basis, Debye-Ang**3):
 XXXX=            -12.5701 YYYY=            -18.3310 ZZZZ=            -58.8226 XXXY=             -0.0000
 XXXZ=             -0.0000 YYYX=             -0.0000 YYYZ=             -0.0000 ZZZX=             -0.0000
 ZZZY=             -0.0000 XXYY=             -5.5609 XXZZ=            -12.3379 YYZZ=            -11.7763
 XXYZ=              0.0000 YYXZ=              0.0000 ZZXY=              0.0000
 N-N= 2.689891783846D+01 E-N=-3.224131456423D+02  KE= 1.134965462554D+02
 Symmetry A1   KE= 1.030754066004D+02
 Symmetry A2   KE= 1.819800861044D-35
 Symmetry B1   KE= 3.603569373025D+00
 Symmetry B2   KE= 6.817570281999D+00
 Leave Link  601 at Fri Sep 17 10:52:54 2021, MaxMem=   268435456 cpu:               0.0 elap:               0.0
 (Enter /software/gaussian/g16-a03/l9999.exe)
 Electronic transition elements 
                 1             2             3             4             5 
      1  -0.114382D+03 -0.114244D+03 -0.114240D+03 -0.114221D+03 -0.114204D+03
      2   0.000000D+00  0.000000D+00  0.988358D-01  0.000000D+00  0.000000D+00
      3   0.000000D+00  0.000000D+00  0.000000D+00  0.301507D+00 -0.312398D+00
      4   0.000000D+00  0.844991D+00  0.000000D+00  0.000000D+00  0.000000D+00
      5   0.000000D+00  0.000000D+00 -0.394119D-01  0.000000D+00  0.000000D+00
      6   0.000000D+00  0.000000D+00  0.000000D+00 -0.788473D-01  0.840331D-01
      7   0.000000D+00 -0.180345D+00  0.000000D+00  0.000000D+00  0.000000D+00
      8   0.000000D+00  0.000000D+00  0.000000D+00 -0.256512D+00 -0.497546D+00
      9   0.000000D+00  0.000000D+00 -0.167635D+01  0.000000D+00  0.000000D+00
     10   0.108604D+01  0.000000D+00  0.000000D+00  0.000000D+00  0.000000D+00
     11   0.000000D+00  0.123219D+00  0.000000D+00  0.000000D+00  0.000000D+00
     12   0.000000D+00 -0.501356D-02  0.000000D+00  0.000000D+00  0.000000D+00
     13   0.000000D+00 -0.798998D-01  0.000000D+00  0.000000D+00  0.000000D+00
     14  -0.486895D-01  0.000000D+00  0.000000D+00  0.000000D+00  0.000000D+00
     15   0.000000D+00  0.000000D+00 -0.205867D+00  0.000000D+00  0.000000D+00
     16   0.000000D+00  0.000000D+00  0.000000D+00  0.293629D+00  0.240783D+00
                 6             7             8             9            10 
      1  -0.114178D+03 -0.114177D+03 -0.114164D+03 -0.114157D+03 -0.114142D+03
      2   0.000000D+00  0.000000D+00 -0.262575D+00  0.000000D+00 -0.664761D+00
      3   0.000000D+00  0.000000D+00  0.000000D+00  0.000000D+00  0.000000D+00
      4   0.000000D+00 -0.379207D+00  0.000000D+00  0.000000D+00  0.000000D+00
      5   0.000000D+00  0.000000D+00  0.868318D-01  0.000000D+00  0.221382D+00
      6   0.000000D+00  0.000000D+00  0.000000D+00  0.000000D+00  0.000000D+00
      7   0.000000D+00  0.109897D+00  0.000000D+00  0.000000D+00  0.000000D+00
      8   0.000000D+00  0.000000D+00  0.000000D+00  0.000000D+00  0.000000D+00
      9   0.000000D+00  0.000000D+00  0.159694D+00  0.000000D+00 -0.301274D+00
     10  -0.905984D+00  0.000000D+00  0.000000D+00  0.154891D-01  0.000000D+00
     11   0.000000D+00  0.124168D-01  0.000000D+00  0.000000D+00  0.000000D+00
     12   0.000000D+00 -0.784199D-01  0.000000D+00  0.000000D+00  0.000000D+00
     13   0.000000D+00 -0.242716D+00  0.000000D+00  0.000000D+00  0.000000D+00
     14   0.187787D+00  0.000000D+00  0.000000D+00  0.955792D-02  0.000000D+00
     15   0.000000D+00  0.000000D+00 -0.238978D+00  0.000000D+00  0.186811D+00
     16   0.000000D+00  0.000000D+00  0.000000D+00  0.000000D+00  0.000000D+00
                11            12            13            14            15 
      1  -0.114121D+03 -0.114112D+03 -0.114097D+03 -0.114081D+03 -0.114081D+03
      2   0.000000D+00  0.000000D+00  0.000000D+00  0.000000D+00  0.000000D+00
      3   0.000000D+00  0.921459D-01  0.000000D+00 -0.401284D+00  0.000000D+00
      4   0.000000D+00  0.000000D+00  0.492632D-02  0.000000D+00  0.436784D+00
      5   0.000000D+00  0.000000D+00  0.000000D+00  0.000000D+00  0.000000D+00
      6   0.000000D+00 -0.298071D-01  0.000000D+00  0.159864D+00  0.000000D+00
      7   0.000000D+00  0.000000D+00  0.195046D-02  0.000000D+00 -0.175567D+00
      8   0.000000D+00 -0.619168D+00  0.000000D+00  0.375793D+00  0.000000D+00
      9   0.000000D+00  0.000000D+00  0.000000D+00  0.000000D+00  0.000000D+00
     10   0.300637D-01  0.000000D+00  0.000000D+00  0.000000D+00  0.000000D+00
     11   0.000000D+00  0.000000D+00  0.798491D+00  0.000000D+00  0.879824D-02
     12   0.000000D+00  0.000000D+00  0.182400D-01  0.000000D+00 -0.671748D-01
     13   0.000000D+00  0.000000D+00 -0.564696D-01  0.000000D+00  0.291694D+00
     14   0.285870D+00  0.000000D+00  0.000000D+00  0.000000D+00  0.000000D+00
     15   0.000000D+00  0.000000D+00  0.000000D+00  0.000000D+00  0.000000D+00
     16   0.000000D+00  0.251640D+00  0.000000D+00 -0.107543D+00  0.000000D+00
                16            17            18            19            20 
      1  -0.114061D+03 -0.114055D+03 -0.114043D+03 -0.114040D+03 -0.114037D+03
      2   0.000000D+00  0.193431D+00  0.000000D+00  0.000000D+00  0.000000D+00
      3   0.000000D+00  0.000000D+00 -0.232511D-01  0.000000D+00 -0.335493D+00
      4  -0.112783D+00  0.000000D+00  0.000000D+00 -0.111314D+01  0.000000D+00
      5   0.000000D+00 -0.543928D-01  0.000000D+00  0.000000D+00  0.000000D+00
      6   0.000000D+00  0.000000D+00 -0.436000D-02  0.000000D+00  0.145529D+00
      7   0.584568D-01  0.000000D+00  0.000000D+00  0.485454D+00  0.000000D+00
      8   0.000000D+00  0.000000D+00  0.217725D+00  0.000000D+00 -0.153589D+00
      9   0.000000D+00  0.238844D+00  0.000000D+00  0.000000D+00  0.000000D+00
     10   0.000000D+00  0.000000D+00  0.000000D+00  0.000000D+00  0.000000D+00
     11   0.269569D+00  0.000000D+00  0.000000D+00 -0.690277D-02  0.000000D+00
     12   0.448290D+00  0.000000D+00  0.000000D+00 -0.376317D+00  0.000000D+00
     13   0.520894D+00  0.000000D+00  0.000000D+00 -0.310693D+00  0.000000D+00
     14   0.000000D+00  0.000000D+00  0.000000D+00  0.000000D+00  0.000000D+00
     15   0.000000D+00  0.184053D+00  0.000000D+00  0.000000D+00  0.000000D+00
     16   0.000000D+00  0.000000D+00  0.379501D+00  0.000000D+00 -0.369363D+00
                21            22            23            24            25 
      1  -0.114027D+03 -0.114026D+03 -0.114021D+03 -0.114020D+03 -0.114017D+03
      2   0.000000D+00 -0.255957D+00  0.000000D+00  0.000000D+00 -0.148501D+00
      3  -0.567091D+00  0.000000D+00  0.000000D+00  0.000000D+00  0.000000D+00
      4   0.000000D+00  0.000000D+00  0.000000D+00  0.000000D+00  0.000000D+00
      5   0.000000D+00  0.116349D+00  0.000000D+00  0.000000D+00  0.624395D-01
      6   0.251312D+00  0.000000D+00  0.000000D+00  0.000000D+00  0.000000D+00
      7   0.000000D+00  0.000000D+00  0.000000D+00  0.000000D+00  0.000000D+00
      8   0.171515D+00  0.000000D+00  0.000000D+00  0.000000D+00  0.000000D+00
      9   0.000000D+00  0.516551D+00  0.000000D+00  0.000000D+00  0.154428D+00
     10   0.000000D+00  0.000000D+00 -0.518339D-01 -0.110232D-01  0.000000D+00
     11   0.000000D+00  0.000000D+00  0.000000D+00  0.000000D+00  0.000000D+00
     12   0.000000D+00  0.000000D+00  0.000000D+00  0.000000D+00  0.000000D+00
     13   0.000000D+00  0.000000D+00  0.000000D+00  0.000000D+00  0.000000D+00
     14   0.000000D+00  0.000000D+00 -0.486670D-01  0.452238D+00  0.000000D+00
     15   0.000000D+00  0.629038D-01  0.000000D+00  0.000000D+00 -0.100468D+00
     16  -0.805340D+00  0.000000D+00  0.000000D+00  0.000000D+00  0.000000D+00
                26            27            28            29            30 
      1  -0.114000D+03 -0.113986D+03 -0.113982D+03 -0.113974D+03 -0.113966D+03
      2   0.000000D+00  0.000000D+00  0.143023D+00  0.000000D+00  0.000000D+00
      3  -0.418443D+00  0.000000D+00  0.000000D+00  0.000000D+00  0.000000D+00
      4   0.000000D+00 -0.495224D+00  0.000000D+00  0.465411D+00  0.440781D+00
      5   0.000000D+00  0.000000D+00 -0.641445D-01  0.000000D+00  0.000000D+00
      6   0.194036D+00  0.000000D+00  0.000000D+00  0.000000D+00  0.000000D+00
      7   0.000000D+00  0.228630D+00  0.000000D+00 -0.224959D+00 -0.220334D+00
      8   0.876213D+00  0.000000D+00  0.000000D+00  0.000000D+00  0.000000D+00
      9   0.000000D+00  0.000000D+00 -0.106275D+00  0.000000D+00  0.000000D+00
     10   0.000000D+00  0.000000D+00  0.000000D+00  0.000000D+00  0.000000D+00
     11   0.000000D+00 -0.632035D-02  0.000000D+00  0.141883D+00 -0.300611D+00
     12   0.000000D+00  0.366264D+00  0.000000D+00  0.120987D+01  0.101763D+00
     13   0.000000D+00  0.181562D+00  0.000000D+00  0.283936D+00 -0.280434D+00
     14   0.000000D+00  0.000000D+00  0.000000D+00  0.000000D+00  0.000000D+00
     15   0.000000D+00  0.000000D+00  0.217970D+00  0.000000D+00  0.000000D+00
     16   0.943194D-01  0.000000D+00  0.000000D+00  0.000000D+00  0.000000D+00

 Test job not archived.
 1\1\GINC-BHD0015\SP\RB3LYP TD-FC\6-311+G(d,p)\C1H2O1\BWEIGHT\17-Sep-20
 21\0\\#p B3LYP/6-311+G** #p TD=(singlets,nstates=30)IOp(6/8=3) IOp(9/4
 0=4)\\Scan Step 196, Bond Length 1.48\\0,1\C,0,0.,0.,-0.52736\H,0,0.,0
 .93726,-1.11871\H,0,0.,-0.93726,-1.11871\O,0,0.,0.,0.95264\\Version=ES
 64L-G16RevA.03\State=1-A1\HF=-114.472707\RMSD=9.942e-09\PG=C02V [C2(C1
 O1),SGV(H2)]\\@


 THE VALUE OF PHILOSOPHY IS, IN FACT, TO BE SOUGHT LARGELY IN ITS
 VERY UNCERTAINTY.  THE MAN WHO HAS NO TINCTURE OF PHILOSOPHY GOES
 THROUGH LIFE IMPRISONED IN THE PREJUDICES DERIVED FROM COMMON SENSE,
 FROM THE HABITUAL BELIEFS OF HIS AGE OR HIS NATION, AND FROM
 CONVICTIONS WHICH HAVE GROWN UP IN HIS MIND WITHOUT THE CO-OPERATION
 OR CONSENT OF HIS DELIBERATE REASON.  TO SUCH A MAN THE WORLD TENDS
 TO BE DEFINITE, FINITE, OBVIOUS; COMMON OBJECTS ROUSE NO QUESTIONS,
 AND UNFAMILIAR POSSIBILITIES ARE CONTEMPTUOUSLY REJECTED.

                             -- BERTRAND RUSSELL
 Job cpu time:       0 days  0 hours  0 minutes 26.1 seconds.
 Elapsed time:       0 days  0 hours  0 minutes 26.6 seconds.
 File lengths (MBytes):  RWF=     79 Int=      0 D2E=      0 Chk=     32 Scr=      1
 Normal termination of Gaussian 16 at Fri Sep 17 10:52:54 2021.
