 Entering Gaussian System, Link 0=g16
 Initial command:
 /software/gaussian/g16-c01/sse4/g16/l1.exe "/local_scratch/24657466/Gau-5449.inp" -scrdir="/local_scratch/24657466/"
 Entering Link 1 = /software/gaussian/g16-c01/sse4/g16/l1.exe PID=      5531.
  
 Copyright (c) 1988-2019, Gaussian, Inc.  All Rights Reserved.
  
 This is part of the Gaussian(R) 16 program.  It is based on
 the Gaussian(R) 09 system (copyright 2009, Gaussian, Inc.),
 the Gaussian(R) 03 system (copyright 2003, Gaussian, Inc.),
 the Gaussian(R) 98 system (copyright 1998, Gaussian, Inc.),
 the Gaussian(R) 94 system (copyright 1995, Gaussian, Inc.),
 the Gaussian 92(TM) system (copyright 1992, Gaussian, Inc.),
 the Gaussian 90(TM) system (copyright 1990, Gaussian, Inc.),
 the Gaussian 88(TM) system (copyright 1988, Gaussian, Inc.),
 the Gaussian 86(TM) system (copyright 1986, Carnegie Mellon
 University), and the Gaussian 82(TM) system (copyright 1983,
 Carnegie Mellon University). Gaussian is a federally registered
 trademark of Gaussian, Inc.
  
 This software contains proprietary and confidential information,
 including trade secrets, belonging to Gaussian, Inc.
  
 This software is provided under written license and may be
 used, copied, transmitted, or stored only in accord with that
 written license.
  
 The following legend is applicable only to US Government
 contracts under FAR:
  
                    RESTRICTED RIGHTS LEGEND
  
 Use, reproduction and disclosure by the US Government is
 subject to restrictions as set forth in subparagraphs (a)
 and (c) of the Commercial Computer Software - Restricted
 Rights clause in FAR 52.227-19.
  
 Gaussian, Inc.
 340 Quinnipiac St., Bldg. 40, Wallingford CT 06492
  
  
 ---------------------------------------------------------------
 Warning -- This program may not be used in any manner that
 competes with the business of Gaussian, Inc. or will provide
 assistance to any competitor of Gaussian, Inc.  The licensee
 of this program is prohibited from giving any competitor of
 Gaussian, Inc. access to this program.  By using this program,
 the user acknowledges that Gaussian, Inc. is engaged in the
 business of creating and licensing software in the field of
 computational chemistry and represents and warrants to the
 licensee that it is not a competitor of Gaussian, Inc. and that
 it will not use this program in any manner prohibited above.
 ---------------------------------------------------------------
  

 Cite this work as:
 Gaussian 16, Revision C.01,
 M. J. Frisch, G. W. Trucks, H. B. Schlegel, G. E. Scuseria, 
 M. A. Robb, J. R. Cheeseman, G. Scalmani, V. Barone, 
 G. A. Petersson, H. Nakatsuji, X. Li, M. Caricato, A. V. Marenich, 
 J. Bloino, B. G. Janesko, R. Gomperts, B. Mennucci, H. P. Hratchian, 
 J. V. Ortiz, A. F. Izmaylov, J. L. Sonnenberg, D. Williams-Young, 
 F. Ding, F. Lipparini, F. Egidi, J. Goings, B. Peng, A. Petrone, 
 T. Henderson, D. Ranasinghe, V. G. Zakrzewski, J. Gao, N. Rega, 
 G. Zheng, W. Liang, M. Hada, M. Ehara, K. Toyota, R. Fukuda, 
 J. Hasegawa, M. Ishida, T. Nakajima, Y. Honda, O. Kitao, H. Nakai, 
 T. Vreven, K. Throssell, J. A. Montgomery, Jr., J. E. Peralta, 
 F. Ogliaro, M. J. Bearpark, J. J. Heyd, E. N. Brothers, K. N. Kudin, 
 V. N. Staroverov, T. A. Keith, R. Kobayashi, J. Normand, 
 K. Raghavachari, A. P. Rendell, J. C. Burant, S. S. Iyengar, 
 J. Tomasi, M. Cossi, J. M. Millam, M. Klene, C. Adamo, R. Cammi, 
 J. W. Ochterski, R. L. Martin, K. Morokuma, O. Farkas, 
 J. B. Foresman, and D. J. Fox, Gaussian, Inc., Wallingford CT, 2019.
 
 ******************************************
 Gaussian 16:  ES64L-G16RevC.01  3-Jul-2019
                 1-May-2024 
 ******************************************
 %chk=geometry.chk
 %mem=9GB
 %nprocshared=12
 Will use up to   12 processors via shared memory.
 ----------------------------------------
 #P wB97XD/6-311+G* NoSymm #P Field=X+243
 ----------------------------------------
 1/38=1,172=1/1;
 2/12=2,15=1,17=6,18=5,40=1/2;
 3/5=4,6=6,7=11,11=2,14=1,15=243,25=1,30=1,74=-58/1,2,3;
 4//1;
 5/5=2,38=5/2;
 6/7=2,8=2,9=2,10=2,28=1/1;
 99/5=1,9=1/99;
 Leave Link    1 at Wed May  1 14:27:50 2024, MaxMem=  1207959552 cpu:               2.9 elap:               4.4
 (Enter /software/gaussian/g16-c01/sse4/g16/l101.exe)
 -------
 TitleMe
 -------
 Symbolic Z-matrix:
 Charge =  1 Multiplicity = 1
 C                     0.0295    1.3397    0.0682 
 C                     1.4348    1.2867    0.0064 
 C                     2.1118    0.0511   -0.0054 
 C                     1.4451   -1.1372    0.0312 
 C                    -0.6879    0.1682    0.11 
 H                    -0.4713    2.2984    0.0781 
 H                     2.0273    2.1965   -0.0322 
 H                     1.9897   -2.0764    0.0232 
 H                    -1.7716    0.1804    0.1582 
 N                     3.5864    0.051    -0.0675 
 O                     4.1471   -1.0597   -0.0881 
 O                     4.145     1.1639   -0.0901 
 C                    -0.0236   -1.1458    0.0835 
 H                    -0.4367   -1.8725    0.7889 
 Br                   -0.5359   -1.8697   -1.7408 
 
 ITRead=  0  0  0  0  0  0  0  0  0  0  0  0  0  0  0
 MicOpt= -1 -1 -1 -1 -1 -1 -1 -1 -1 -1 -1 -1 -1 -1 -1
 NAtoms=     15 NQM=       15 NQMF=       0 NMMI=      0 NMMIF=      0
                NMic=       0 NMicF=      0.
                    Isotopes and Nuclear Properties:
 (Nuclear quadrupole moments (NQMom) in fm**2, nuclear magnetic moments (NMagM)
  in nuclear magnetons)

  Atom         1           2           3           4           5           6           7           8           9          10
 IAtWgt=          12          12          12          12          12           1           1           1           1          14
 AtmWgt=  12.0000000  12.0000000  12.0000000  12.0000000  12.0000000   1.0078250   1.0078250   1.0078250   1.0078250  14.0030740
 NucSpn=           0           0           0           0           0           1           1           1           1           2
 AtZEff=  -0.0000000  -0.0000000  -0.0000000  -0.0000000  -0.0000000  -0.0000000  -0.0000000  -0.0000000  -0.0000000  -0.0000000
 NQMom=    0.0000000   0.0000000   0.0000000   0.0000000   0.0000000   0.0000000   0.0000000   0.0000000   0.0000000   2.0440000
 NMagM=    0.0000000   0.0000000   0.0000000   0.0000000   0.0000000   2.7928460   2.7928460   2.7928460   2.7928460   0.4037610
 AtZNuc=   6.0000000   6.0000000   6.0000000   6.0000000   6.0000000   1.0000000   1.0000000   1.0000000   1.0000000   7.0000000

  Atom        11          12          13          14          15
 IAtWgt=          16          16          12           1          79
 AtmWgt=  15.9949146  15.9949146  12.0000000   1.0078250  78.9183361
 NucSpn=           0           0           0           1           3
 AtZEff=  -0.0000000  -0.0000000  -0.0000000  -0.0000000  -0.0000000
 NQMom=    0.0000000   0.0000000   0.0000000   0.0000000  31.3000000
 NMagM=    0.0000000   0.0000000   0.0000000   2.7928460   2.1063990
 AtZNuc=   8.0000000   8.0000000   6.0000000   1.0000000  35.0000000
 Leave Link  101 at Wed May  1 14:27:56 2024, MaxMem=  1207959552 cpu:               2.9 elap:               3.3
 (Enter /software/gaussian/g16-c01/sse4/g16/l202.exe)
                          Input orientation:                          
 ---------------------------------------------------------------------
 Center     Atomic      Atomic             Coordinates (Angstroms)
 Number     Number       Type             X           Y           Z
 ---------------------------------------------------------------------
      1          6           0        0.029500    1.339700    0.068200
      2          6           0        1.434800    1.286700    0.006400
      3          6           0        2.111800    0.051100   -0.005400
      4          6           0        1.445100   -1.137200    0.031200
      5          6           0       -0.687900    0.168200    0.110000
      6          1           0       -0.471300    2.298400    0.078100
      7          1           0        2.027300    2.196500   -0.032200
      8          1           0        1.989700   -2.076400    0.023200
      9          1           0       -1.771600    0.180400    0.158200
     10          7           0        3.586400    0.051000   -0.067500
     11          8           0        4.147100   -1.059700   -0.088100
     12          8           0        4.145000    1.163900   -0.090100
     13          6           0       -0.023600   -1.145800    0.083500
     14          1           0       -0.436700   -1.872500    0.788900
     15         35           0       -0.535900   -1.869700   -1.740800
 ---------------------------------------------------------------------
                    Distance matrix (angstroms):
                    1          2          3          4          5
     1  C    0.000000
     2  C    1.407656   0.000000
     3  C    2.449874   1.408963   0.000000
     4  C    2.853126   2.424049   1.363043   0.000000
     5  C    1.374344   2.401589   2.804523   2.501993   0.000000
     6  H    1.081667   2.159142   3.424870   3.934226   2.141421
     7  H    2.176095   1.086408   2.147231   3.384750   3.392128
     8  H    3.938800   3.408612   2.131193   1.085702   3.495040
     9  H    2.143837   3.395283   3.888995   3.478413   1.084840
    10  N    3.785591   2.482297   1.475907   2.450862   4.279589
    11  O    4.768247   3.587631   2.320164   2.705743   4.992415
    12  O    4.122294   2.714696   2.319353   3.549540   4.938459
    13  C    2.486114   2.837240   2.449573   1.469656   1.472614
    14  H    3.324903   3.754379   3.290289   2.157764   2.165286
    15  Br   3.727252   4.110867   3.702891   2.756973   2.757100
                    6          7          8          9         10
     6  H    0.000000
     7  H    2.503108   0.000000
     8  H    5.019802   4.273425   0.000000
     9  H    2.486588   4.304945   4.388479   0.000000
    10  N    4.640790   2.652397   2.661486   5.364313   0.000000
    11  O    5.712624   3.885809   2.387560   6.052233   1.244373
    12  O    4.756638   2.356750   3.893289   6.002923   1.245428
    13  C    3.473180   3.923079   2.218790   2.195425   3.806210
    14  H    4.231175   4.827242   2.552506   2.528663   4.540772
    15  Br   4.548146   5.101303   3.087568   3.055498   4.845862
                   11         12         13         14         15
    11  O    0.000000
    12  O    2.223602   0.000000
    13  C    4.175117   4.768865   0.000000
    14  H    4.737193   5.566358   1.093770   0.000000
    15  Br   5.031700   5.817075   2.028436   2.531646   0.000000
 Symmetry turned off by external request.
 Stoichiometry    C6H5BrNO2(1+)
 Framework group  C1[X(C6H5BrNO2)]
 Deg. of freedom    39
 Full point group                 C1      NOp   1
 Rotational constants (GHZ):           1.8252210           0.5518633           0.4576002
 Leave Link  202 at Wed May  1 14:27:57 2024, MaxMem=  1207959552 cpu:               1.2 elap:               1.2
 (Enter /software/gaussian/g16-c01/sse4/g16/l301.exe)
 Standard basis: 6-311+G(d) (5D, 7F)
 Ernie: Thresh=  0.10000D-02 Tol=  0.10000D-05 Strict=F.
 The following finite field(s) will be applied:
 An electric field of              0.0243  0.0000  0.0000
   261 basis functions,   443 primitive gaussians,   273 cartesian basis functions
    49 alpha electrons       49 beta electrons
       nuclear repulsion energy       739.2122215416 Hartrees.
 IExCor= 4639 DFT=T Ex+Corr=wB97XD ExCW=0 ScaHFX=  1.000000
 ScaDFX=  1.000000  1.000000  1.000000  1.000000 ScalE2=  1.000000  1.000000
 IRadAn=      5 IRanWt=     -1 IRanGd=            0 ICorTp=0 IEmpDi=121
 HFx  wShort=  0.000000 wLong=  0.200000 cFull=  0.222036 cShort=  0.000000 cLong=  0.777964
 DFx  wShort=  0.000000 wLong=  0.200000 cFull=  0.000000 cShort=  0.000000 cLong=  1.000000
 NAtoms=   15 NActive=   15 NUniq=   15 SFac= 1.00D+00 NAtFMM=   60 NAOKFM=F Big=F
 Integral buffers will be    131072 words long.
 Raffenetti 2 integral format.
 Two-electron integral symmetry is turned off.
 R6Disp:  Grimme-D2 Dispersion energy=       -0.0077368520 Hartrees.
 Nuclear repulsion after empirical dispersion term =      739.2044846896 Hartrees.
 Leave Link  301 at Wed May  1 14:27:58 2024, MaxMem=  1207959552 cpu:               1.1 elap:               1.1
 (Enter /software/gaussian/g16-c01/sse4/g16/l302.exe)
 NPDir=0 NMtPBC=     1 NCelOv=     1 NCel=       1 NClECP=     1 NCelD=      1
         NCelK=      1 NCelE2=     1 NClLst=     1 CellRange=     0.0.
 One-electron integrals computed using PRISM.
 NBasis=   261 RedAO= T EigKep=  2.35D-06  NBF=   261
 NBsUse=   261 1.00D-06 EigRej= -1.00D+00 NBFU=   261
 Precomputing XC quadrature grid using
 IXCGrd= 4 IRadAn=           5 IRanWt=          -1 IRanGd=           0 AccXCQ= 0.00D+00.
 Generated NRdTot=       0 NPtTot=           0 NUsed=           0 NTot=          32
 NSgBfM=   273   273   273   273   273 MxSgAt=    15 MxSgA2=    15.
 Leave Link  302 at Wed May  1 14:28:20 2024, MaxMem=  1207959552 cpu:              21.9 elap:              21.9
 (Enter /software/gaussian/g16-c01/sse4/g16/l303.exe)
 DipDrv:  MaxL=1.
 The nuclear repulsion energy is now       743.7910408751 hartrees.
 Leave Link  303 at Wed May  1 14:28:23 2024, MaxMem=  1207959552 cpu:               3.3 elap:               3.3
 (Enter /software/gaussian/g16-c01/sse4/g16/l401.exe)
 ExpMin= 3.50D-02 ExpMax= 4.40D+05 ExpMxC= 1.51D+04 IAcc=3 IRadAn=         5 AccDes= 0.00D+00
 Harris functional with IExCor= 4639 and IRadAn=       5 diagonalized for initial guess.
 HarFok:  IExCor= 4639 AccDes= 0.00D+00 IRadAn=         5 IDoV= 1 UseB2=F ITyADJ=14
 ICtDFT=  3500011 ScaDFX=  1.000000  1.000000  1.000000  1.000000
 FoFCou: FMM=F IPFlag=           0 FMFlag=      100000 FMFlg1=           0
         NFxFlg=           0 DoJE=T BraDBF=F KetDBF=T FulRan=T
         wScrn=  0.000000 ICntrl=       500 IOpCl=  0 I1Cent=   200000004 NGrid=           0
         NMat0=    1 NMatS0=      1 NMatT0=    0 NMatD0=    1 NMtDS0=    0 NMtDT0=    0
 Symmetry not used in FoFCou.
 Harris En= -2970.68359773030    
 JPrj=0 DoOrth=F DoCkMO=F.
 Leave Link  401 at Wed May  1 14:28:55 2024, MaxMem=  1207959552 cpu:              31.1 elap:              31.1
 (Enter /software/gaussian/g16-c01/sse4/g16/l502.exe)
 Two-electron integral symmetry not used.
 Closed shell SCF:
 Using DIIS extrapolation, IDIIS=  1040.
 NGot=  1207959552 LenX=  1207804877 LenY=  1207729907
 Requested convergence on RMS density matrix=1.00D-08 within 128 cycles.
 Requested convergence on MAX density matrix=1.00D-06.
 Requested convergence on             energy=1.00D-06.
 No special actions if energy rises.
 Fock matrices will be formed incrementally for  20 cycles.

 Cycle   1  Pass 1  IDiag  1:
 FoFJK:  IHMeth= 1 ICntrl=       0 DoSepK=T KAlg= 0 I1Cent=           0 FoldK=F
 IRaf=         1 NMat=       1 IRICut=       1 DoRegI=T DoRafI=F ISym2E= 0 IDoP0=0 IntGTp=1.
 FoFCou: FMM=F IPFlag=           0 FMFlag=      100000 FMFlg1=           0
         NFxFlg=           0 DoJE=T BraDBF=F KetDBF=F FulRan=T
         wScrn=  0.000000 ICntrl=       500 IOpCl=  0 I1Cent=           0 NGrid=           0
         NMat0=    1 NMatS0=      1 NMatT0=    0 NMatD0=    1 NMtDS0=    0 NMtDT0=    0
 Symmetry not used in FoFCou.
 E= -3009.67258580669    
 DIIS: error= 3.21D-01 at cycle   1 NSaved=   1.
 NSaved= 1 IEnMin= 1 EnMin= -3009.67258580669     IErMin= 1 ErrMin= 3.21D-01
 ErrMax= 3.21D-01  0.00D+00 EMaxC= 1.00D-01 BMatC= 1.21D+01 BMatP= 1.21D+01
 IDIUse=3 WtCom= 0.00D+00 WtEn= 1.00D+00
 Coeff-Com:  0.100D+01
 Coeff-En:   0.100D+01
 Coeff:      0.100D+01
 Gap=     0.618 Goal=   None    Shift=    0.000
 GapD=    0.618 DampG=2.000 DampE=0.250 DampFc=0.5000 IDamp=-1.
 Damping current iteration by 5.00D-01
 RMSDP=9.99D-02 MaxDP=1.15D+01              OVMax= 2.58D-01

 Cycle   2  Pass 1  IDiag  1:
 RMSU=  1.18D-02    CP:  6.75D-01
 E= -3010.12806709042     Delta-E=       -0.455481283728 Rises=F Damp=T
 DIIS: error= 1.43D-01 at cycle   2 NSaved=   2.
 NSaved= 2 IEnMin= 2 EnMin= -3010.12806709042     IErMin= 2 ErrMin= 1.43D-01
 ErrMax= 1.43D-01  0.00D+00 EMaxC= 1.00D-01 BMatC= 1.75D+00 BMatP= 1.21D+01
 IDIUse=3 WtCom= 0.00D+00 WtEn= 1.00D+00
 Coeff-Com: -0.402D+00 0.140D+01
 Coeff-En:   0.000D+00 0.100D+01
 Coeff:      0.000D+00 0.100D+01
 Gap=     0.304 Goal=   None    Shift=    0.000
 RMSDP=4.63D-02 MaxDP=4.76D+00 DE=-4.55D-01 OVMax= 1.36D-01

 Cycle   3  Pass 1  IDiag  1:
 RMSU=  9.03D-03    CP:  3.72D-01  1.32D+00
 E= -3010.56396291530     Delta-E=       -0.435895824883 Rises=F Damp=F
 DIIS: error= 8.62D-03 at cycle   3 NSaved=   3.
 NSaved= 3 IEnMin= 3 EnMin= -3010.56396291530     IErMin= 3 ErrMin= 8.62D-03
 ErrMax= 8.62D-03  0.00D+00 EMaxC= 1.00D-01 BMatC= 3.00D-02 BMatP= 1.75D+00
 IDIUse=3 WtCom= 9.14D-01 WtEn= 8.62D-02
 Coeff-Com:  0.252D-01 0.953D-02 0.965D+00
 Coeff-En:   0.000D+00 0.000D+00 0.100D+01
 Coeff:      0.230D-01 0.871D-02 0.968D+00
 Gap=     0.255 Goal=   None    Shift=    0.000
 RMSDP=4.62D-03 MaxDP=3.40D-01 DE=-4.36D-01 OVMax= 5.53D-02

 Cycle   4  Pass 1  IDiag  1:
 RMSU=  4.38D-03    CP:  3.68D-01  1.38D+00  1.13D+00
 E= -3010.56077137531     Delta-E=        0.003191539990 Rises=F Damp=F
 DIIS: error= 1.37D-02 at cycle   4 NSaved=   4.
 NSaved= 4 IEnMin= 3 EnMin= -3010.56396291530     IErMin= 3 ErrMin= 8.62D-03
 ErrMax= 1.37D-02  0.00D+00 EMaxC= 1.00D-01 BMatC= 2.66D-02 BMatP= 3.00D-02
 IDIUse=3 WtCom= 8.63D-01 WtEn= 1.37D-01
 Coeff-Com:  0.235D-01-0.301D-01 0.534D+00 0.473D+00
 Coeff-En:   0.000D+00 0.000D+00 0.553D+00 0.447D+00
 Coeff:      0.202D-01-0.259D-01 0.536D+00 0.469D+00
 Gap=     0.246 Goal=   None    Shift=    0.000
 RMSDP=2.24D-03 MaxDP=2.40D-01 DE= 3.19D-03 OVMax= 3.70D-02

 Cycle   5  Pass 1  IDiag  1:
 RMSU=  1.10D-03    CP:  3.59D-01  1.31D+00  1.24D+00  8.60D-01
 E= -3010.57813833421     Delta-E=       -0.017366958895 Rises=F Damp=F
 DIIS: error= 1.78D-03 at cycle   5 NSaved=   5.
 NSaved= 5 IEnMin= 5 EnMin= -3010.57813833421     IErMin= 5 ErrMin= 1.78D-03
 ErrMax= 1.78D-03  0.00D+00 EMaxC= 1.00D-01 BMatC= 3.28D-04 BMatP= 2.66D-02
 IDIUse=3 WtCom= 9.82D-01 WtEn= 1.78D-02
 Coeff-Com:  0.636D-02-0.873D-02 0.156D+00 0.168D+00 0.679D+00
 Coeff-En:   0.000D+00 0.000D+00 0.000D+00 0.000D+00 0.100D+01
 Coeff:      0.625D-02-0.857D-02 0.153D+00 0.165D+00 0.684D+00
 Gap=     0.243 Goal=   None    Shift=    0.000
 RMSDP=5.29D-04 MaxDP=4.53D-02 DE=-1.74D-02 OVMax= 7.63D-03

 Cycle   6  Pass 1  IDiag  1:
 RMSU=  3.75D-04    CP:  3.58D-01  1.30D+00  1.26D+00  8.22D-01  1.13D+00
 E= -3010.57846100495     Delta-E=       -0.000322670738 Rises=F Damp=F
 DIIS: error= 7.52D-04 at cycle   6 NSaved=   6.
 NSaved= 6 IEnMin= 6 EnMin= -3010.57846100495     IErMin= 6 ErrMin= 7.52D-04
 ErrMax= 7.52D-04  0.00D+00 EMaxC= 1.00D-01 BMatC= 9.85D-05 BMatP= 3.28D-04
 IDIUse=3 WtCom= 9.92D-01 WtEn= 7.52D-03
 Coeff-Com: -0.152D-02 0.182D-02-0.274D-01-0.125D-01 0.349D+00 0.691D+00
 Coeff-En:   0.000D+00 0.000D+00 0.000D+00 0.000D+00 0.000D+00 0.100D+01
 Coeff:     -0.151D-02 0.180D-02-0.272D-01-0.124D-01 0.346D+00 0.693D+00
 Gap=     0.244 Goal=   None    Shift=    0.000
 RMSDP=5.16D-04 MaxDP=2.72D-02 DE=-3.23D-04 OVMax= 6.80D-03

 Cycle   7  Pass 1  IDiag  1:
 RMSU=  1.60D-04    CP:  3.56D-01  1.31D+00  1.28D+00  8.88D-01  1.27D+00
                    CP:  9.26D-01
 E= -3010.57859873802     Delta-E=       -0.000137733075 Rises=F Damp=F
 DIIS: error= 4.02D-04 at cycle   7 NSaved=   7.
 NSaved= 7 IEnMin= 7 EnMin= -3010.57859873802     IErMin= 7 ErrMin= 4.02D-04
 ErrMax= 4.02D-04  0.00D+00 EMaxC= 1.00D-01 BMatC= 1.98D-05 BMatP= 9.85D-05
 IDIUse=3 WtCom= 9.96D-01 WtEn= 4.02D-03
 Coeff-Com: -0.170D-02 0.215D-02-0.374D-01-0.322D-01 0.884D-01 0.374D+00
 Coeff-Com:  0.607D+00
 Coeff-En:   0.000D+00 0.000D+00 0.000D+00 0.000D+00 0.000D+00 0.000D+00
 Coeff-En:   0.100D+01
 Coeff:     -0.169D-02 0.215D-02-0.372D-01-0.321D-01 0.880D-01 0.373D+00
 Coeff:      0.608D+00
 Gap=     0.245 Goal=   None    Shift=    0.000
 RMSDP=1.50D-04 MaxDP=7.72D-03 DE=-1.38D-04 OVMax= 3.44D-03

 Cycle   8  Pass 1  IDiag  1:
 RMSU=  5.79D-05    CP:  3.55D-01  1.31D+00  1.28D+00  9.09D-01  1.32D+00
                    CP:  1.00D+00  1.25D+00
 E= -3010.57862860174     Delta-E=       -0.000029863720 Rises=F Damp=F
 DIIS: error= 1.99D-04 at cycle   8 NSaved=   8.
 NSaved= 8 IEnMin= 8 EnMin= -3010.57862860174     IErMin= 8 ErrMin= 1.99D-04
 ErrMax= 1.99D-04  0.00D+00 EMaxC= 1.00D-01 BMatC= 4.66D-06 BMatP= 1.98D-05
 IDIUse=3 WtCom= 9.98D-01 WtEn= 1.99D-03
 Coeff-Com: -0.402D-03 0.474D-03-0.128D-01-0.152D-01-0.716D-01-0.236D-01
 Coeff-Com:  0.347D+00 0.776D+00
 Coeff-En:   0.000D+00 0.000D+00 0.000D+00 0.000D+00 0.000D+00 0.000D+00
 Coeff-En:   0.000D+00 0.100D+01
 Coeff:     -0.401D-03 0.473D-03-0.128D-01-0.152D-01-0.715D-01-0.235D-01
 Coeff:      0.347D+00 0.776D+00
 Gap=     0.245 Goal=   None    Shift=    0.000
 RMSDP=1.11D-04 MaxDP=7.79D-03 DE=-2.99D-05 OVMax= 2.75D-03

 Cycle   9  Pass 1  IDiag  1:
 RMSU=  3.88D-05    CP:  3.56D-01  1.31D+00  1.29D+00  9.12D-01  1.36D+00
                    CP:  1.12D+00  1.58D+00  1.09D+00
 E= -3010.57864052028     Delta-E=       -0.000011918544 Rises=F Damp=F
 DIIS: error= 3.55D-05 at cycle   9 NSaved=   9.
 NSaved= 9 IEnMin= 9 EnMin= -3010.57864052028     IErMin= 9 ErrMin= 3.55D-05
 ErrMax= 3.55D-05  0.00D+00 EMaxC= 1.00D-01 BMatC= 7.07D-07 BMatP= 4.66D-06
 IDIUse=1 WtCom= 1.00D+00 WtEn= 0.00D+00
 Coeff-Com:  0.152D-03-0.194D-03 0.193D-02-0.430D-03-0.487D-01-0.810D-01
 Coeff-Com:  0.497D-01 0.360D+00 0.719D+00
 Coeff:      0.152D-03-0.194D-03 0.193D-02-0.430D-03-0.487D-01-0.810D-01
 Coeff:      0.497D-01 0.360D+00 0.719D+00
 Gap=     0.245 Goal=   None    Shift=    0.000
 RMSDP=4.33D-05 MaxDP=1.93D-03 DE=-1.19D-05 OVMax= 1.02D-03

 Cycle  10  Pass 1  IDiag  1:
 RMSU=  1.52D-05    CP:  3.56D-01  1.31D+00  1.29D+00  9.14D-01  1.37D+00
                    CP:  1.13D+00  1.77D+00  1.27D+00  1.31D+00
 E= -3010.57864263354     Delta-E=       -0.000002113251 Rises=F Damp=F
 DIIS: error= 1.54D-05 at cycle  10 NSaved=  10.
 NSaved=10 IEnMin=10 EnMin= -3010.57864263354     IErMin=10 ErrMin= 1.54D-05
 ErrMax= 1.54D-05  0.00D+00 EMaxC= 1.00D-01 BMatC= 7.47D-08 BMatP= 7.07D-07
 IDIUse=1 WtCom= 1.00D+00 WtEn= 0.00D+00
 Coeff-Com:  0.734D-04-0.577D-04 0.284D-02 0.269D-02 0.391D-02-0.140D-01
 Coeff-Com: -0.529D-01-0.739D-01 0.734D-01 0.106D+01
 Coeff:      0.734D-04-0.577D-04 0.284D-02 0.269D-02 0.391D-02-0.140D-01
 Coeff:     -0.529D-01-0.739D-01 0.734D-01 0.106D+01
 Gap=     0.245 Goal=   None    Shift=    0.000
 RMSDP=2.87D-05 MaxDP=1.74D-03 DE=-2.11D-06 OVMax= 7.07D-04

 Cycle  11  Pass 1  IDiag  1:
 RMSU=  5.88D-06    CP:  3.56D-01  1.31D+00  1.29D+00  9.14D-01  1.37D+00
                    CP:  1.13D+00  1.89D+00  1.38D+00  1.61D+00  1.49D+00
 E= -3010.57864319862     Delta-E=       -0.000000565086 Rises=F Damp=F
 DIIS: error= 8.59D-06 at cycle  11 NSaved=  11.
 NSaved=11 IEnMin=11 EnMin= -3010.57864319862     IErMin=11 ErrMin= 8.59D-06
 ErrMax= 8.59D-06  0.00D+00 EMaxC= 1.00D-01 BMatC= 2.41D-08 BMatP= 7.47D-08
 IDIUse=1 WtCom= 1.00D+00 WtEn= 0.00D+00
 Coeff-Com: -0.577D-06-0.129D-05 0.279D-03 0.754D-03 0.109D-01 0.122D-01
 Coeff-Com: -0.188D-01-0.858D-01-0.145D+00 0.361D+00 0.864D+00
 Coeff:     -0.577D-06-0.129D-05 0.279D-03 0.754D-03 0.109D-01 0.122D-01
 Coeff:     -0.188D-01-0.858D-01-0.145D+00 0.361D+00 0.864D+00
 Gap=     0.245 Goal=   None    Shift=    0.000
 RMSDP=1.37D-05 MaxDP=1.05D-03 DE=-5.65D-07 OVMax= 3.17D-04

 Cycle  12  Pass 1  IDiag  1:
 RMSU=  2.44D-06    CP:  3.56D-01  1.31D+00  1.29D+00  9.14D-01  1.37D+00
                    CP:  1.13D+00  1.93D+00  1.41D+00  1.74D+00  1.84D+00
                    CP:  1.27D+00
 E= -3010.57864332092     Delta-E=       -0.000000122300 Rises=F Damp=F
 DIIS: error= 3.84D-06 at cycle  12 NSaved=  12.
 NSaved=12 IEnMin=12 EnMin= -3010.57864332092     IErMin=12 ErrMin= 3.84D-06
 ErrMax= 3.84D-06  0.00D+00 EMaxC= 1.00D-01 BMatC= 4.53D-09 BMatP= 2.41D-08
 IDIUse=1 WtCom= 1.00D+00 WtEn= 0.00D+00
 Coeff-Com: -0.813D-05-0.528D-06-0.406D-03-0.216D-03 0.207D-02 0.531D-02
 Coeff-Com:  0.511D-02-0.132D-01-0.696D-01-0.812D-01 0.239D+00 0.913D+00
 Coeff:     -0.813D-05-0.528D-06-0.406D-03-0.216D-03 0.207D-02 0.531D-02
 Coeff:      0.511D-02-0.132D-01-0.696D-01-0.812D-01 0.239D+00 0.913D+00
 Gap=     0.245 Goal=   None    Shift=    0.000
 RMSDP=5.83D-06 MaxDP=3.34D-04 DE=-1.22D-07 OVMax= 1.87D-04

 Cycle  13  Pass 1  IDiag  1:
 RMSU=  1.40D-06    CP:  3.56D-01  1.31D+00  1.29D+00  9.14D-01  1.37D+00
                    CP:  1.13D+00  1.95D+00  1.41D+00  1.80D+00  2.01D+00
                    CP:  1.46D+00  1.32D+00
 E= -3010.57864335504     Delta-E=       -0.000000034114 Rises=F Damp=F
 DIIS: error= 1.71D-06 at cycle  13 NSaved=  13.
 NSaved=13 IEnMin=13 EnMin= -3010.57864335504     IErMin=13 ErrMin= 1.71D-06
 ErrMax= 1.71D-06  0.00D+00 EMaxC= 1.00D-01 BMatC= 1.25D-09 BMatP= 4.53D-09
 IDIUse=1 WtCom= 1.00D+00 WtEn= 0.00D+00
 Coeff-Com: -0.556D-05 0.880D-05-0.171D-03-0.247D-03-0.270D-02-0.257D-02
 Coeff-Com:  0.696D-02 0.227D-01 0.267D-01-0.101D+00-0.239D+00 0.217D+00
 Coeff-Com:  0.107D+01
 Coeff:     -0.556D-05 0.880D-05-0.171D-03-0.247D-03-0.270D-02-0.257D-02
 Coeff:      0.696D-02 0.227D-01 0.267D-01-0.101D+00-0.239D+00 0.217D+00
 Coeff:      0.107D+01
 Gap=     0.245 Goal=   None    Shift=    0.000
 RMSDP=3.28D-06 MaxDP=2.23D-04 DE=-3.41D-08 OVMax= 1.07D-04

 Cycle  14  Pass 1  IDiag  1:
 RMSU=  9.15D-07    CP:  3.56D-01  1.31D+00  1.29D+00  9.14D-01  1.37D+00
                    CP:  1.13D+00  1.96D+00  1.41D+00  1.80D+00  2.07D+00
                    CP:  1.56D+00  1.75D+00  1.23D+00
 E= -3010.57864336467     Delta-E=       -0.000000009638 Rises=F Damp=F
 DIIS: error= 1.03D-06 at cycle  14 NSaved=  14.
 NSaved=14 IEnMin=14 EnMin= -3010.57864336467     IErMin=14 ErrMin= 1.03D-06
 ErrMax= 1.03D-06  0.00D+00 EMaxC= 1.00D-01 BMatC= 2.34D-10 BMatP= 1.25D-09
 IDIUse=1 WtCom= 1.00D+00 WtEn= 0.00D+00
 Coeff-Com: -0.282D-05 0.753D-05-0.629D-05-0.608D-04-0.134D-02-0.182D-02
 Coeff-Com:  0.199D-02 0.110D-01 0.216D-01-0.226D-01-0.148D+00-0.707D-01
 Coeff-Com:  0.374D+00 0.836D+00
 Coeff:     -0.282D-05 0.753D-05-0.629D-05-0.608D-04-0.134D-02-0.182D-02
 Coeff:      0.199D-02 0.110D-01 0.216D-01-0.226D-01-0.148D+00-0.707D-01
 Coeff:      0.374D+00 0.836D+00
 Gap=     0.245 Goal=   None    Shift=    0.000
 RMSDP=1.27D-06 MaxDP=7.33D-05 DE=-9.64D-09 OVMax= 4.18D-05

 Cycle  15  Pass 1  IDiag  1:
 RMSU=  2.72D-07    CP:  3.56D-01  1.31D+00  1.29D+00  9.14D-01  1.37D+00
                    CP:  1.13D+00  1.97D+00  1.42D+00  1.80D+00  2.09D+00
                    CP:  1.58D+00  1.92D+00  1.42D+00  1.35D+00
 E= -3010.57864336602     Delta-E=       -0.000000001348 Rises=F Damp=F
 DIIS: error= 5.44D-07 at cycle  15 NSaved=  15.
 NSaved=15 IEnMin=15 EnMin= -3010.57864336602     IErMin=15 ErrMin= 5.44D-07
 ErrMax= 5.44D-07  0.00D+00 EMaxC= 1.00D-01 BMatC= 3.38D-11 BMatP= 2.34D-10
 IDIUse=1 WtCom= 1.00D+00 WtEn= 0.00D+00
 Coeff-Com:  0.136D-05-0.216D-05 0.335D-04 0.460D-04 0.357D-03 0.249D-03
 Coeff-Com: -0.116D-02-0.341D-02-0.429D-02 0.201D-01 0.349D-01-0.383D-01
 Coeff-Com: -0.208D+00 0.137D+00 0.106D+01
 Coeff:      0.136D-05-0.216D-05 0.335D-04 0.460D-04 0.357D-03 0.249D-03
 Coeff:     -0.116D-02-0.341D-02-0.429D-02 0.201D-01 0.349D-01-0.383D-01
 Coeff:     -0.208D+00 0.137D+00 0.106D+01
 Gap=     0.245 Goal=   None    Shift=    0.000
 RMSDP=3.60D-07 MaxDP=2.11D-05 DE=-1.35D-09 OVMax= 1.70D-05

 Cycle  16  Pass 1  IDiag  1:
 RMSU=  1.14D-07    CP:  3.56D-01  1.31D+00  1.29D+00  9.14D-01  1.37D+00
                    CP:  1.13D+00  1.97D+00  1.42D+00  1.80D+00  2.09D+00
                    CP:  1.57D+00  1.96D+00  1.47D+00  1.58D+00  1.30D+00
 E= -3010.57864336623     Delta-E=       -0.000000000209 Rises=F Damp=F
 DIIS: error= 1.19D-07 at cycle  16 NSaved=  16.
 NSaved=16 IEnMin=16 EnMin= -3010.57864336623     IErMin=16 ErrMin= 1.19D-07
 ErrMax= 1.19D-07  0.00D+00 EMaxC= 1.00D-01 BMatC= 4.02D-12 BMatP= 3.38D-11
 IDIUse=1 WtCom= 1.00D+00 WtEn= 0.00D+00
 Coeff-Com:  0.697D-06-0.153D-05 0.814D-05 0.183D-04 0.267D-03 0.291D-03
 Coeff-Com: -0.512D-03-0.225D-02-0.409D-02 0.784D-02 0.280D-01-0.116D-02
 Coeff-Com: -0.105D+00-0.704D-01 0.237D+00 0.910D+00
 Coeff:      0.697D-06-0.153D-05 0.814D-05 0.183D-04 0.267D-03 0.291D-03
 Coeff:     -0.512D-03-0.225D-02-0.409D-02 0.784D-02 0.280D-01-0.116D-02
 Coeff:     -0.105D+00-0.704D-01 0.237D+00 0.910D+00
 Gap=     0.245 Goal=   None    Shift=    0.000
 RMSDP=1.99D-07 MaxDP=1.33D-05 DE=-2.09D-10 OVMax= 5.76D-06

 Cycle  17  Pass 1  IDiag  1:
 RMSU=  3.89D-08    CP:  3.56D-01  1.31D+00  1.29D+00  9.14D-01  1.37D+00
                    CP:  1.13D+00  1.97D+00  1.42D+00  1.80D+00  2.09D+00
                    CP:  1.57D+00  1.97D+00  1.46D+00  1.67D+00  1.50D+00
                    CP:  1.21D+00
 E= -3010.57864336625     Delta-E=       -0.000000000022 Rises=F Damp=F
 DIIS: error= 5.74D-08 at cycle  17 NSaved=  17.
 NSaved=17 IEnMin=17 EnMin= -3010.57864336625     IErMin=17 ErrMin= 5.74D-08
 ErrMax= 5.74D-08  0.00D+00 EMaxC= 1.00D-01 BMatC= 6.22D-13 BMatP= 4.02D-12
 IDIUse=1 WtCom= 1.00D+00 WtEn= 0.00D+00
 Coeff-Com: -0.864D-07 0.861D-07-0.216D-05-0.144D-05 0.222D-04 0.332D-04
 Coeff-Com:  0.315D-04-0.773D-04-0.469D-03-0.493D-03 0.194D-02 0.407D-02
 Coeff-Com:  0.218D-02-0.297D-01-0.634D-01 0.220D+00 0.866D+00
 Coeff:     -0.864D-07 0.861D-07-0.216D-05-0.144D-05 0.222D-04 0.332D-04
 Coeff:      0.315D-04-0.773D-04-0.469D-03-0.493D-03 0.194D-02 0.407D-02
 Coeff:      0.218D-02-0.297D-01-0.634D-01 0.220D+00 0.866D+00
 Gap=     0.245 Goal=   None    Shift=    0.000
 RMSDP=4.44D-08 MaxDP=2.16D-06 DE=-2.18D-11 OVMax= 1.50D-06

 Cycle  18  Pass 1  IDiag  1:
 RMSU=  1.41D-08    CP:  3.56D-01  1.31D+00  1.29D+00  9.14D-01  1.37D+00
                    CP:  1.13D+00  1.97D+00  1.42D+00  1.80D+00  2.09D+00
                    CP:  1.57D+00  1.97D+00  1.45D+00  1.67D+00  1.53D+00
                    CP:  1.34D+00  1.33D+00
 E= -3010.57864336626     Delta-E=       -0.000000000011 Rises=F Damp=F
 DIIS: error= 1.72D-08 at cycle  18 NSaved=  18.
 NSaved=18 IEnMin=18 EnMin= -3010.57864336626     IErMin=18 ErrMin= 1.72D-08
 ErrMax= 1.72D-08  0.00D+00 EMaxC= 1.00D-01 BMatC= 1.82D-13 BMatP= 6.22D-13
 IDIUse=1 WtCom= 1.00D+00 WtEn= 0.00D+00
 Coeff-Com: -0.152D-06 0.319D-06-0.193D-05-0.374D-05-0.512D-04-0.606D-04
 Coeff-Com:  0.119D-03 0.468D-03 0.717D-03-0.171D-02-0.567D-02 0.161D-02
 Coeff-Com:  0.239D-01 0.416D-02-0.676D-01-0.164D+00 0.207D+00 0.100D+01
 Coeff:     -0.152D-06 0.319D-06-0.193D-05-0.374D-05-0.512D-04-0.606D-04
 Coeff:      0.119D-03 0.468D-03 0.717D-03-0.171D-02-0.567D-02 0.161D-02
 Coeff:      0.239D-01 0.416D-02-0.676D-01-0.164D+00 0.207D+00 0.100D+01
 Gap=     0.245 Goal=   None    Shift=    0.000
 RMSDP=3.35D-08 MaxDP=2.53D-06 DE=-1.09D-11 OVMax= 1.19D-06

 Cycle  19  Pass 1  IDiag  1:
 RMSU=  7.46D-09    CP:  3.56D-01  1.31D+00  1.29D+00  9.14D-01  1.37D+00
                    CP:  1.13D+00  1.97D+00  1.42D+00  1.80D+00  2.09D+00
                    CP:  1.57D+00  1.97D+00  1.45D+00  1.68D+00  1.56D+00
                    CP:  1.42D+00  1.67D+00  1.67D+00
 E= -3010.57864336627     Delta-E=       -0.000000000006 Rises=F Damp=F
 DIIS: error= 8.37D-09 at cycle  19 NSaved=  19.
 NSaved=19 IEnMin=19 EnMin= -3010.57864336627     IErMin=19 ErrMin= 8.37D-09
 ErrMax= 8.37D-09  0.00D+00 EMaxC= 1.00D-01 BMatC= 2.98D-14 BMatP= 1.82D-13
 IDIUse=1 WtCom= 1.00D+00 WtEn= 0.00D+00
 Coeff-Com: -0.625D-08 0.247D-07 0.153D-06 0.137D-06-0.512D-05-0.103D-04
 Coeff-Com: -0.240D-05 0.344D-04 0.901D-04 0.177D-03-0.744D-03-0.882D-03
 Coeff-Com:  0.820D-03 0.391D-02 0.121D-01-0.486D-01-0.144D+00 0.322D-01
 Coeff-Com:  0.115D+01
 Coeff:     -0.625D-08 0.247D-07 0.153D-06 0.137D-06-0.512D-05-0.103D-04
 Coeff:     -0.240D-05 0.344D-04 0.901D-04 0.177D-03-0.744D-03-0.882D-03
 Coeff:      0.820D-03 0.391D-02 0.121D-01-0.486D-01-0.144D+00 0.322D-01
 Coeff:      0.115D+01
 Gap=     0.245 Goal=   None    Shift=    0.000
 RMSDP=2.55D-08 MaxDP=1.47D-06 DE=-6.37D-12 OVMax= 6.84D-07

 Cycle  20  Pass 1  IDiag  1:
 RMSU=  3.49D-09    CP:  3.56D-01  1.31D+00  1.29D+00  9.14D-01  1.37D+00
                    CP:  1.13D+00  1.97D+00  1.42D+00  1.80D+00  2.09D+00
                    CP:  1.57D+00  1.97D+00  1.44D+00  1.68D+00  1.57D+00
                    CP:  1.44D+00  1.83D+00  2.11D+00  1.43D+00
 E= -3010.57864336630     Delta-E=       -0.000000000029 Rises=F Damp=F
 DIIS: error= 4.22D-09 at cycle  20 NSaved=  20.
 NSaved=20 IEnMin=20 EnMin= -3010.57864336630     IErMin=20 ErrMin= 4.22D-09
 ErrMax= 4.22D-09  0.00D+00 EMaxC= 1.00D-01 BMatC= 7.69D-15 BMatP= 2.98D-14
 IDIUse=1 WtCom= 1.00D+00 WtEn= 0.00D+00
 Coeff-Com:  0.293D-07-0.606D-07 0.483D-06 0.102D-05 0.125D-04 0.137D-04
 Coeff-Com: -0.297D-04-0.114D-03-0.185D-03 0.468D-03 0.127D-02-0.552D-03
 Coeff-Com: -0.569D-02-0.852D-03 0.213D-01 0.377D-01-0.861D-01-0.267D+00
 Coeff-Com:  0.213D+00 0.109D+01
 Coeff:      0.293D-07-0.606D-07 0.483D-06 0.102D-05 0.125D-04 0.137D-04
 Coeff:     -0.297D-04-0.114D-03-0.185D-03 0.468D-03 0.127D-02-0.552D-03
 Coeff:     -0.569D-02-0.852D-03 0.213D-01 0.377D-01-0.861D-01-0.267D+00
 Coeff:      0.213D+00 0.109D+01
 Gap=     0.245 Goal=   None    Shift=    0.000
 RMSDP=1.51D-08 MaxDP=8.42D-07 DE=-2.91D-11 OVMax= 3.49D-07

 Cycle  21  Pass 1  IDiag  1:
 Restarting incremental Fock formation.
 E= -3010.57864336628     Delta-E=        0.000000000024 Rises=F Damp=F
 DIIS: error= 1.49D-09 at cycle  21 NSaved=  20.
 NSaved=20 IEnMin=19 EnMin= -3010.57864336630     IErMin=20 ErrMin= 1.49D-09
 ErrMax= 1.49D-09  0.00D+00 EMaxC= 1.00D-01 BMatC= 6.67D-16 BMatP= 7.69D-15
 IDIUse=1 WtCom= 1.00D+00 WtEn= 0.00D+00
 Large coefficients: NSaved= 20 BigCof=    0.00 CofMax=   10.00 Det=-2.32D-15
 Inversion failed.  Reducing to 19 matrices.
 Large coefficients: NSaved= 19 BigCof=    0.00 CofMax=   10.00 Det=-2.42D-15
 Inversion failed.  Reducing to 18 matrices.
 Large coefficients: NSaved= 18 BigCof=    0.00 CofMax=   10.00 Det=-2.73D-15
 Inversion failed.  Reducing to 17 matrices.
 Large coefficients: NSaved= 17 BigCof=    0.00 CofMax=   10.00 Det=-2.88D-15
 Inversion failed.  Reducing to 16 matrices.
 Large coefficients: NSaved= 16 BigCof=    0.00 CofMax=   10.00 Det=-2.89D-15
 Inversion failed.  Reducing to 15 matrices.
 Coeff-Com:  0.128D-05-0.178D-06-0.533D-05-0.147D-04 0.491D-04 0.102D-03
 Coeff-Com:  0.503D-04-0.577D-03-0.168D-02 0.556D-02 0.101D-01-0.599D-02
 Coeff-Com: -0.130D+00 0.362D-01 0.109D+01
 Coeff:      0.128D-05-0.178D-06-0.533D-05-0.147D-04 0.491D-04 0.102D-03
 Coeff:      0.503D-04-0.577D-03-0.168D-02 0.556D-02 0.101D-01-0.599D-02
 Coeff:     -0.130D+00 0.362D-01 0.109D+01
 Gap=     0.245 Goal=   None    Shift=    0.000
 RMSDP=5.02D-09 MaxDP=3.52D-07 DE= 2.36D-11 OVMax= 9.39D-08

 SCF Done:  E(RwB97XD) =  -3010.57864337     A.U. after   21 cycles
            NFock= 21  Conv=0.50D-08     -V/T= 2.0016
 KE= 3.005825575669D+03 PE=-8.636224873386D+03 EE= 1.876029613476D+03
 Leave Link  502 at Wed May  1 14:49:27 2024, MaxMem=  1207959552 cpu:            1232.2 elap:            1232.3
 (Enter /software/gaussian/g16-c01/sse4/g16/l601.exe)
 Copying SCF densities to generalized density rwf, IOpCl= 0 IROHF=0.

 **********************************************************************

            Population analysis using the SCF Density.

 **********************************************************************

 Alpha  occ. eigenvalues -- -483.33238 -62.88216 -56.67943 -56.67333 -56.67316
 Alpha  occ. eigenvalues --  -19.58094 -19.58001 -14.97172 -10.63136 -10.62063
 Alpha  occ. eigenvalues --  -10.61341 -10.60436 -10.59361 -10.55507  -9.03986
 Alpha  occ. eigenvalues --   -6.86750  -6.84759  -6.84701  -2.96632  -2.96117
 Alpha  occ. eigenvalues --   -2.96070  -2.94478  -2.94477  -1.61797  -1.44907
 Alpha  occ. eigenvalues --   -1.27183  -1.18954  -1.15315  -1.08448  -1.06381
 Alpha  occ. eigenvalues --   -0.99013  -0.96774  -0.93606  -0.91583  -0.90150
 Alpha  occ. eigenvalues --   -0.86157  -0.83261  -0.81194  -0.79546  -0.75841
 Alpha  occ. eigenvalues --   -0.72116  -0.70815  -0.69430  -0.69136  -0.68167
 Alpha  occ. eigenvalues --   -0.67319  -0.63108  -0.57630  -0.57170
 Alpha virt. eigenvalues --   -0.32716  -0.31527  -0.19343  -0.18998  -0.17033
 Alpha virt. eigenvalues --   -0.15088  -0.13699  -0.12418  -0.11491  -0.09432
 Alpha virt. eigenvalues --   -0.07905  -0.07220  -0.06056  -0.05640  -0.04775
 Alpha virt. eigenvalues --   -0.04675  -0.04049  -0.02855  -0.01699  -0.01058
 Alpha virt. eigenvalues --   -0.00395   0.00442   0.00771   0.01233   0.01855
 Alpha virt. eigenvalues --    0.02399   0.02745   0.03082   0.04123   0.04548
 Alpha virt. eigenvalues --    0.05957   0.06386   0.07287   0.07776   0.08080
 Alpha virt. eigenvalues --    0.08872   0.09101   0.09606   0.10537   0.10846
 Alpha virt. eigenvalues --    0.11360   0.11914   0.12401   0.13306   0.13965
 Alpha virt. eigenvalues --    0.16029   0.16458   0.17094   0.17713   0.18789
 Alpha virt. eigenvalues --    0.19622   0.21157   0.21630   0.22407   0.24555
 Alpha virt. eigenvalues --    0.26382   0.28490   0.30419   0.31120   0.31454
 Alpha virt. eigenvalues --    0.33079   0.33825   0.35421   0.36383   0.38481
 Alpha virt. eigenvalues --    0.39501   0.40028   0.40661   0.41105   0.42940
 Alpha virt. eigenvalues --    0.43819   0.44908   0.47890   0.48103   0.49278
 Alpha virt. eigenvalues --    0.50025   0.51713   0.53038   0.54018   0.54958
 Alpha virt. eigenvalues --    0.58581   0.61152   0.61615   0.62410   0.63976
 Alpha virt. eigenvalues --    0.65612   0.67383   0.69665   0.70539   0.71103
 Alpha virt. eigenvalues --    0.71734   0.72990   0.74783   0.75326   0.80212
 Alpha virt. eigenvalues --    0.82173   0.82714   0.85584   0.85980   0.88149
 Alpha virt. eigenvalues --    0.89100   0.94324   0.96902   0.98141   0.99745
 Alpha virt. eigenvalues --    1.00074   1.01522   1.03421   1.03693   1.06806
 Alpha virt. eigenvalues --    1.10211   1.17094   1.20209   1.29210   1.32167
 Alpha virt. eigenvalues --    1.33139   1.33861   1.41552   1.47343   1.48777
 Alpha virt. eigenvalues --    1.49051   1.51660   1.56602   1.57589   1.62431
 Alpha virt. eigenvalues --    1.63463   1.64663   1.66089   1.70129   1.74766
 Alpha virt. eigenvalues --    1.78157   1.80725   1.82423   1.88987   1.92696
 Alpha virt. eigenvalues --    1.94264   1.94738   1.98006   2.03581   2.04349
 Alpha virt. eigenvalues --    2.06257   2.10901   2.14098   2.17229   2.25806
 Alpha virt. eigenvalues --    2.30019   2.33689   2.37918   2.40428   2.47911
 Alpha virt. eigenvalues --    2.53250   2.57488   2.58364   2.61595   2.63015
 Alpha virt. eigenvalues --    2.64172   2.65821   2.69270   2.71819   2.78293
 Alpha virt. eigenvalues --    2.87986   2.91084   2.92364   3.01451   3.03333
 Alpha virt. eigenvalues --    3.06381   3.10133   3.13769   3.14777   3.15862
 Alpha virt. eigenvalues --    3.19929   3.30628   3.42728   3.44061   3.45673
 Alpha virt. eigenvalues --    3.50609   3.58889   3.62107   3.78112   3.82983
 Alpha virt. eigenvalues --    4.07236   4.07439   4.14666   4.20038   4.31708
 Alpha virt. eigenvalues --    4.40746   4.48889   4.54007   4.80368   4.82916
 Alpha virt. eigenvalues --    4.91606   4.95769   5.50676   6.03074   6.62914
 Alpha virt. eigenvalues --    7.45965   7.47494   7.57163  23.17484  23.57234
 Alpha virt. eigenvalues --   23.67056  23.75604  23.91898  23.97201  35.20816
 Alpha virt. eigenvalues --   47.89260  49.73277  49.82085 289.78535 289.80194
 Alpha virt. eigenvalues --  289.926111020.89604
          Condensed to atoms (all electrons):
               1          2          3          4          5          6
     1  C    8.626147  -3.153034   1.421296  -1.593498  -1.303979   0.284402
     2  C   -3.153034  15.326306  -4.024437  -2.246724   1.976135  -0.004827
     3  C    1.421296  -4.024437  13.557382  -2.609270  -1.741592   0.007971
     4  C   -1.593498  -2.246724  -2.609270  13.317967   1.286420   0.011982
     5  C   -1.303979   1.976135  -1.741592   1.286420   7.977615   0.040331
     6  H    0.284402  -0.004827   0.007971   0.011982   0.040331   0.292081
     7  H    0.060289   0.257643   0.088089  -0.039699  -0.023068  -0.001827
     8  H   -0.000036  -0.024899   0.050503   0.275067   0.011575   0.000002
     9  H    0.015140   0.003223  -0.003100  -0.004534   0.317955  -0.001270
    10  N   -0.079375   0.330338  -0.961946   0.203221   0.087980  -0.000251
    11  O    0.030547   0.028629  -0.241055  -0.075328  -0.053905  -0.000008
    12  O    0.190258  -0.061361  -0.252856   0.002469  -0.047310  -0.000088
    13  C    2.029273  -2.958643   1.388511  -2.821408  -2.582555  -0.012297
    14  H    0.014140  -0.032200   0.018607  -0.032761  -0.115479  -0.000061
    15  Br   0.087849   0.003902   0.050113   0.194956   0.077389  -0.000318
               7          8          9         10         11         12
     1  C    0.060289  -0.000036   0.015140  -0.079375   0.030547   0.190258
     2  C    0.257643  -0.024899   0.003223   0.330338   0.028629  -0.061361
     3  C    0.088089   0.050503  -0.003100  -0.961946  -0.241055  -0.252856
     4  C   -0.039699   0.275067  -0.004534   0.203221  -0.075328   0.002469
     5  C   -0.023068   0.011575   0.317955   0.087980  -0.053905  -0.047310
     6  H   -0.001827   0.000002  -0.001270  -0.000251  -0.000008  -0.000088
     7  H    0.347974   0.000067   0.000034  -0.032668  -0.001911   0.011198
     8  H    0.000067   0.344196   0.000164  -0.023548   0.011018  -0.001042
     9  H    0.000034   0.000164   0.242723   0.000484   0.000001   0.000007
    10  N   -0.032668  -0.023548   0.000484   7.097089   0.303796   0.280493
    11  O   -0.001911   0.011018   0.000001   0.303796   7.920990  -0.041349
    12  O    0.011198  -0.001042   0.000007   0.280493  -0.041349   7.947160
    13  C    0.012856   0.028240  -0.020009  -0.092598   0.195426   0.052381
    14  H   -0.000007  -0.006083  -0.003518  -0.002504  -0.000046  -0.000080
    15  Br  -0.000411  -0.004733   0.001513  -0.002000   0.002044   0.001897
              13         14         15
     1  C    2.029273   0.014140   0.087849
     2  C   -2.958643  -0.032200   0.003902
     3  C    1.388511   0.018607   0.050113
     4  C   -2.821408  -0.032761   0.194956
     5  C   -2.582555  -0.115479   0.077389
     6  H   -0.012297  -0.000061  -0.000318
     7  H    0.012856  -0.000007  -0.000411
     8  H    0.028240  -0.006083  -0.004733
     9  H   -0.020009  -0.003518   0.001513
    10  N   -0.092598  -0.002504  -0.002000
    11  O    0.195426  -0.000046   0.002044
    12  O    0.052381  -0.000080   0.001897
    13  C   10.973173   0.439727  -0.214091
    14  H    0.439727   0.309054  -0.033800
    15  Br  -0.214091  -0.033800  34.515841
 Mulliken charges:
               1
     1  C   -0.629419
     2  C    0.579951
     3  C   -0.748216
     4  C    0.131139
     5  C    0.092489
     6  H    0.384179
     7  H    0.321444
     8  H    0.339510
     9  H    0.451186
    10  N   -0.108511
    11  O   -0.078849
    12  O   -0.081777
    13  C   -0.417986
    14  H    0.445011
    15  Br   0.319850
 Sum of Mulliken charges =   1.00000
 Mulliken charges with hydrogens summed into heavy atoms:
               1
     1  C   -0.245240
     2  C    0.901395
     3  C   -0.748216
     4  C    0.470649
     5  C    0.543675
    10  N   -0.108511
    11  O   -0.078849
    12  O   -0.081777
    13  C    0.027025
    15  Br   0.319850
 Electronic spatial extent (au):  <R**2>=           2810.5123
 Charge=              1.0000 electrons
 Dipole moment (field-independent basis, Debye):
    X=             -8.3685    Y=             -1.4813    Z=             -0.6628  Tot=              8.5244
 Quadrupole moment (field-independent basis, Debye-Ang):
   XX=            -90.0584   YY=            -51.2484   ZZ=            -60.8750
   XY=              2.3778   XZ=              3.0439   YZ=              3.4554
 Traceless Quadrupole moment (field-independent basis, Debye-Ang):
   XX=            -22.6644   YY=             16.1455   ZZ=              6.5189
   XY=              2.3778   XZ=              3.0439   YZ=              3.4554
 Octapole moment (field-independent basis, Debye-Ang**2):
  XXX=           -406.9043  YYY=             81.4991  ZZZ=             72.6461  XYY=            -93.9222
  XXY=             26.6619  XXZ=             31.8540  XZZ=            -86.6357  YZZ=             11.7842
  YYZ=             21.4135  XYZ=             -6.8845
 Hexadecapole moment (field-independent basis, Debye-Ang**3):
 XXXX=          -2752.0989 YYYY=           -664.1700 ZZZZ=           -334.2496 XXXY=            -68.0125
 XXXZ=             -8.8093 YYYX=            -52.0624 YYYZ=           -143.9031 ZZZX=             -8.3460
 ZZZY=           -124.7937 XXYY=           -492.4801 XXZZ=           -378.7400 YYZZ=           -153.6582
 XXYZ=            -50.2380 YYXZ=              6.3693 ZZXY=             -1.4447
 N-N= 7.437910408751D+02 E-N=-8.636224873349D+03  KE= 3.005825575669D+03
 No NMR shielding tensors so no spin-rotation constants.
 Leave Link  601 at Wed May  1 14:49:34 2024, MaxMem=  1207959552 cpu:               7.3 elap:               7.3
 (Enter /software/gaussian/g16-c01/sse4/g16/l9999.exe)
 Unable to Open any file for archive entry.
 1\1\GINC-BHX0030\SP\RwB97XD\6-311+G(d)\C6H5Br1N1O2(1+)\BWEIGHT\01-May-
 2024\0\\#P wB97XD/6-311+G* NoSymm #P Field=X+243\\TitleMe\\1,1\C,0,0.0
 295,1.3397,0.0682\C,0,1.4348,1.2867,0.0064\C,0,2.1118,0.0511,-0.0054\C
 ,0,1.4451,-1.1372,0.0312\C,0,-0.6879,0.1682,0.11\H,0,-0.4713,2.2984,0.
 0781\H,0,2.0273,2.1965,-0.0322\H,0,1.9897,-2.0764,0.0232\H,0,-1.7716,0
 .1804,0.1582\N,0,3.5864,0.051,-0.0675\O,0,4.1471,-1.0597,-0.0881\O,0,4
 .145,1.1639,-0.0901\C,0,-0.0236,-1.1458,0.0835\H,0,-0.4367,-1.8725,0.7
 889\Br,0,-0.5359,-1.8697,-1.7408\\Version=ES64L-G16RevC.01\HF=-3010.57
 86434\RMSD=5.022e-09\Dipole=-5.1989742,0.5653084,0.8853915\Quadrupole=
 -16.8504586,12.0038132,4.8466453,1.7678372,2.2630525,2.5689988\PG=C01 
 [X(C6H5Br1N1O2)]\\@
 The archive entry for this job was punched.


 KNOWLEDGE IS OF TWO KINDS:  WE KNOW A SUBJECT OURSELVES OR WE KNOW 
 WHERE WE CAN FIND INFORMATION UPON IT.

                                    -- SAMUEL JOHNSON
 Job cpu time:       0 days  0 hours 21 minutes 44.7 seconds.
 Elapsed time:       0 days  0 hours 21 minutes 46.7 seconds.
 File lengths (MBytes):  RWF=     40 Int=      0 D2E=      0 Chk=     32 Scr=      1
 Normal termination of Gaussian 16 at Wed May  1 14:49:35 2024.
