
Running Job 1 of 1 QCHEM.in
qchem QCHEM.in_3033.0 /local_scratch/16808488/QCLOCALSCR/save/ 0
/gpfs/fs2/scratch/phuo_lab/Program/Qchem/exe/qcprog.exe_s QCHEM.in_3033.0 /local_scratch/16808488/QCLOCALSCR/save/
                  Welcome to Q-Chem
     A Quantum Leap Into The Future Of Chemistry


 Q-Chem 6.0, Q-Chem, Inc., Pleasanton, CA (2022)

 License issued to: SRG Frank Huo, University of Rochester

 E. Epifanovsky,  A. T. B. Gilbert,  Xintian Feng,  Joonho Lee,  Yuezhi Mao,  
 N. Mardirossian,  P. Pokhilko,  A. White,  M. Wormit,  M. P. Coons,  
 A. L. Dempwolff,  Zhengting Gan,  D. Hait,  P. R. Horn,  L. D. Jacobson,  
 I. Kaliman,  J. Kussmann,  A. W. Lange,  Ka Un Lao,  D. S. Levine,  Jie Liu,  
 S. C. McKenzie,  A. F. Morrison,  K. Nanda,  F. Plasser,  D. R. Rehn,  
 M. L. Vidal,  Zhi-Qiang You,  Ying Zhu,  B. Alam,  B. Albrecht,  
 A. Aldossary,  E. Alguire,  J. H. Andersen,  V. Athavale,  D. Barton,  
 K. Begam,  A. Behn,  N. Bellonzi,  Y. A. Bernard,  E. J. Berquist,  
 H. Burton,  A. Carreras,  K. Carter-Fenk,  Romit Chakraborty,  
 Chandrima Chakravarty,  Junhan Chen,  A. D. Chien,  K. D. Closser,  
 V. Cofer-Shabica,  L. Cunha,  S. Dasgupta,  Jia Deng,  M. de Wergifosse,  
 M. Diedenhofen,  Hainam Do,  S. Ehlert,  Po-Tung Fang,  S. Fatehi,  
 Qingguo Feng,  T. Friedhoff,  B. Ganoe,  J. Gayvert,  Qinghui Ge,  
 G. Gidofalvi,  M. Goldey,  J. Gomes,  C. Gonzalez-Espinoza,  S. Gulania,  
 A. Gunina,  J. A. Gyamfi,  M. W. D. Hanson-Heine,  P. H. P. Harbach,  
 A. W. Hauser,  M. F. Herbst,  M. Hernandez Vera,  M. Hodecker,  
 Z. C. Holden,  S. Houck,  Xunkun Huang,  Kerwin Hui,  B. C. Huynh,  
 K. Ikeda,  M. Ivanov,  Hyunjun Ji,  Zuxin Jin,  Hanjie Jiang,  B. Kaduk,  
 S. Kaehler,  R. Kang,  K. Khistyaev,  Jaehoon Kim,  Yongbin Kim,  
 P. Klunzinger,  Z. Koczor-Benda,  Joong Hoon Koh,  D. Kosenkov,  
 Saikiran Kotaru,  L. Koulias,  T. Kowalczyk,  C. M. Krauter,  K. Kue,  
 A. Kunitsa,  T. Kus,  A. Landau,  K. V. Lawler,  D. Lefrancois,  S. Lehtola,  
 Rain Li,  Shaozhi Li,  Yi-Pei Li,  Jiashu Liang,  M. Liebenthal,  
 Hung-Hsuan Lin,  You-Sheng Lin,  Fenglai Liu,  Kuan-Yu Liu,  
 M. Loipersberger,  A. Luenser,  C. Malbon,  A. Manjanath,  P. Manohar,  
 E. Mansoor,  S. F. Manzer,  Shan-Ping Mao,  A. V. Marenich,  T. Markovich,  
 S. Mason,  F. Matz,  S. A. Maurer,  P. F. McLaughlin,  M. F. S. J. Menger,  
 J.-M. Mewes,  S. A. Mewes,  P. Morgante,  Mohammad Mostafanejad,  
 J. W. Mullinax,  K. J. Oosterbaan,  G. Paran,  V. Parravicini,  
 Alexander C. Paul,  Suranjan K. Paul,  F. Pavosevic,  Zheng Pei,  S. Prager,  
 E. I. Proynov,  E. Ramos,  B. Rana,  A. E. Rask,  A. Rettig,  R. M. Richard,  
 F. Rob,  E. Rossomme,  T. Scheele,  M. Scheurer,  M. Schneider,  
 P. E. Schneider,  N. Sergueev,  S. M. Sharada,  Hengyuan Shen,  
 W. Skomorowski,  D. W. Small,  C. J. Stein,  Yingli Su,  Yu-Chuan Su,  
 E. J. Sundstrom,  Zhen Tao,  J. Thirman,  Hung-Yi Tsai,  T. Tsuchimochi,  
 N. M. Tubman,  C. Utku,  S. P. Veccham,  O. Vydrov,  J. Wenzel,  
 Jonathan Wong,  J. Witte,  A. Yamada,  Chou-Hsun Yang,  Kun Yao,  
 S. Yeganeh,  S. R. Yost,  A. Zech,  F. Zeller,  Igor Ying Zhang,  
 Xing Zhang,  Yu Zhang,  D. Zuev,  A. Aspuru-Guzik,  A. T. Bell,  
 N. A. Besley,  K. B. Bravaya,  B. R. Brooks,  D. Casanova,  Jeng-Da Chai,  
 Hsing-Ta Chen,  S. Coriani,  C. J. Cramer,  A. E. DePrince, III,  
 R. A. DiStasio Jr.,  A. Dreuw,  B. D. Dunietz,  T. R. Furlani,  
 W. A. Goddard III,  S. Grimme,  S. Hammes-Schiffer,  T. Head-Gordon,  
 W. J. Hehre,  Chao-Ping Hsu,  T.-C. Jagau,  Yousung Jung,  A. Klamt,  
 Jing Kong,  D. S. Lambrecht,  Xiangyuan Li,  WanZhen Liang,  N. J. Mayhall,  
 C. W. McCurdy,  J. B. Neaton,  T. Neudecker,  C. Ochsenfeld,  
 J. A. Parkhill,  R. Peverati,  V. A. Rassolov,  Haisheng Ren,  Yihan Shao,  
 L. V. Slipchenko,  R. P. Steele,  J. E. Subotnik,  A. J. W. Thom,  
 A. Tkatchenko,  D. G. Truhlar,  T. Van Voorhis,  Fan Wang,  
 T. A. Wesolowski,  K. B. Whaley,  H. L. Woodcock III,  P. M. Zimmerman,  
 S. Faraji,  P. M. W. Gill,  M. Head-Gordon,  J. M. Herbert,  A. I. Krylov

 Contributors to earlier versions of Q-Chem not listed above: 
 R. D. Adamson,  B. Austin,  R. Baer,  J. Baker,  G. J. O. Beran,  
 K. Brandhorst,  S. T. Brown,  E. F. C. Byrd,  Arup K. Chakraborty,  
 G. K. L. Chan,  Chun-Min Chang,  Yunqing Chen,  C.-L. Cheng,  
 Siu Hung Chien,  D. M. Chipman,  D. L. Crittenden,  H. Dachsel,  
 R. J. Doerksen,  A. D. Dutoi,  R. G. Edgar,  J. Fosso-Tande,  
 L. Fusti-Molnar,  D. Ghosh,  A. Ghysels,  A. Golubeva-Zadorozhnaya,  
 J. Gonthier,  M. S. Gordon,  S. R. Gwaltney,  G. Hawkins,  J. E. Herr,  
 A. Heyden,  S. Hirata,  E. G. Hohenstein,  G. Kedziora,  F. J. Keil,  
 C. Kelley,  Jihan Kim,  R. A. King,  R. Z. Khaliullin,  P. P. Korambath,  
 W. Kurlancheek,  A. Laurent,  A. M. Lee,  M. S. Lee,  S. V. Levchenko,  
 Ching Yeh Lin,  D. Liotard,  E. Livshits,  R. C. Lochan,  I. Lotan,  
 L. A. Martinez-Martinez,  P. E. Maslen,  N. Nair,  D. P. O'Neill,  
 D. Neuhauser,  E. Neuscamman,  C. M. Oana,  R. Olivares-Amaya,  R. Olson,  
 T. M. Perrine,  B. Peters,  P. A. Pieniazek,  A. Prociuk,  Y. M. Rhee,  
 J. Ritchie,  M. A. Rohrdanz,  E. Rosta,  N. J. Russ,  H. F. Schaefer III,  
 M. W. Schmidt,  N. E. Schultz,  S. Sharma,  N. Shenvi,  C. D. Sherrill,  
 A. C. Simmonett,  A. Sodt,  T. Stein,  D. Stuck,  K. S. Thanthiriwatte,  
 V. Vanovschi,  L. Vogt,  Tao Wang,  A. Warshel,  M. A. Watson,  
 C. F. Williams,  Q. Wu,  X. Xu,  Jun Yang,  W. Zhang,  Yan Zhao

   Please cite Q-Chem as follows:
  "Software for the frontiers of quantum chemistry:
   An overview of developments in the Q-Chem 5 package"
   J. Chem. Phys. 155, 084801 (2021)
   https://doi.org/10.1063/5.0055522 (open access)

 Q-Chem 6.0.2 for Intel X86 EM64T Linux

 Parts of Q-Chem use Armadillo 9.900.5 (Nocturnal Misbehaviour).
 http://arma.sourceforge.net/

 Q-Chem begins on Mon May 22 12:52:18 2023  

 Host: 
0

     Scratch files written to /local_scratch/16808488/QCLOCALSCR/save//
 Dec722 |scratch|qcdevops|jenkins|workspace|build_RNUM 9024   
 Processing $rem in /gpfs/fs2/scratch/phuo_lab/Program/Qchem/config/preferences:
 Processing $rem in /home/bweight/.qchemrc:

 Checking the input file for inconsistencies... 	...done.

--------------------------------------------------------------
User input:
--------------------------------------------------------------
$molecule
0 1
C                 -0.60308027    1.24884959    0.02595850
C                  0.78318760    1.23153607   -0.00621390
C                  1.43790248    0.00979129   -0.02475940
C                 -1.30034920    0.04558663    0.03879402
H                 -1.13531042    2.19180962    0.04090714
H                  1.35342608    2.15108582   -0.01688747
N                  2.91159486   -0.00948016   -0.05899691
O                  3.45893135   -1.09359226   -0.07501963
O                  3.48723719    1.05994155   -0.06906801
C                 -0.63489100   -1.17551740    0.01999630
H                 -1.19175769   -2.10420457    0.03034090
C                  0.75132891   -1.19445736   -0.01220662
H                  1.29720829   -2.12860384   -0.02748658
Br                -3.19270661    0.07025578    0.08272467
$end

$rem
!SCF_GUESS         read
!SKIP_CIS_RPA      TRUE
METHOD             wB97XD
RPA                TRUE
BASIS              6-311+G*
CIS_N_ROOTS        100
CIS_SINGLETS       TRUE
CIS_TRIPLETS       FALSE
MAKE_CUBE_FILES    TRUE
PLOTS              TRUE
STS_MOM            TRUE
SYM_IGNORE         TRUE
SYMMETRY           FALSE
NTO_PAIRS          1
$end

$plots
grid_points                    75 75 75
total_density                  0-100
transition_density             1-100
natural_transition_orbital     1-100
$end
































--------------------------------------------------------------
 ----------------------------------------------------------------
             Standard Nuclear Orientation (Angstroms)
    I     Atom           X                Y                Z
 ----------------------------------------------------------------
    1      C      -0.6030802700     1.2488495900     0.0259585000
    2      C       0.7831876000     1.2315360700    -0.0062139000
    3      C       1.4379024800     0.0097912900    -0.0247594000
    4      C      -1.3003492000     0.0455866300     0.0387940200
    5      H      -1.1353104200     2.1918096200     0.0409071400
    6      H       1.3534260800     2.1510858200    -0.0168874700
    7      N       2.9115948600    -0.0094801600    -0.0589969100
    8      O       3.4589313500    -1.0935922600    -0.0750196300
    9      O       3.4872371900     1.0599415500    -0.0690680100
   10      C      -0.6348910000    -1.1755174000     0.0199963000
   11      H      -1.1917576900    -2.1042045700     0.0303409000
   12      C       0.7513289100    -1.1944573600    -0.0122066200
   13      H       1.2972082900    -2.1286038400    -0.0274865800
   14      Br     -3.1927066100     0.0702557800     0.0827246700
 ----------------------------------------------------------------
 Nuclear Repulsion Energy =         702.12543060 hartrees
 There are       49 alpha and       49 beta electrons
 Requested basis set is 6-311+G(d)
 There are 85 shells and 258 basis functions

 Total QAlloc Memory Limit   2000 MB
 Mega-Array Size       188 MB
 MEM_STATIC part       192 MB


                       Distance Matrix (Angstroms)
             C (  1)   C (  2)   C (  3)   C (  4)   H (  5)   H (  6)
   C (  2)  1.386749
   C (  3)  2.388189  1.386238
   C (  4)  1.390752  2.397838  2.739223
   H (  5)  1.082897  2.145922  3.374454  2.152560
   H (  6)  2.154944  1.082062  2.142975  3.388030  2.489741
   N (  7)  3.734107  2.464351  1.474216  4.213439  4.607939  2.664152
   O (  8)  4.690114  3.545499  2.303158  4.895042  5.649280  3.868393
   O (  9)  4.095780  2.710218  2.303161  4.895052  4.760375  2.397179
   C ( 10)  2.424583  2.793840  2.388186  1.390785  3.404372  3.875700
   H ( 11)  3.404340  3.876714  3.374482  2.152549  4.296398  4.958597
   C ( 12)  2.793856  2.426210  1.386274  2.397852  3.876730  3.399294
   H ( 13)  3.875712  3.399296  2.143020  3.388038  4.958608  4.280072
   Br( 14)  2.845781  4.142972  4.632251  1.893028  2.955608  5.000710
             N (  7)   O (  8)   O (  9)   C ( 10)   H ( 11)   C ( 12)
   O (  8)  1.214551
   O (  9)  1.214549  2.153728
   C ( 10)  3.734092  4.095744  4.690112
   H ( 11)  4.607966  4.760394  5.649309  1.082898
   C ( 12)  2.464368  2.710209  3.545524  1.386723  2.145935
   H ( 13)  2.664193  2.397197  3.868433  2.154910  2.489757  1.082057
   Br( 14)  6.106467  6.754533  6.754566  2.845752  2.955473  4.142937
             H ( 13)
   Br( 14)  5.000647
 
 A cutoff of  1.0D-12 yielded   3049 shell pairs
 There are     29287 function pairs (     31936 Cartesian)
 Smallest overlap matrix eigenvalue = 1.96E-06

 Scale SEOQF with 1.000000e-01/1.000000e-01/1.000000e-01

 Standard Electronic Orientation quadrupole field applied
 Nucleus-field energy     =     0.0000000283 hartrees
 Guess from superposition of atomic densities
 Warning:  Energy on first SCF cycle will be non-variational
 SAD guess density has 98.000000 electrons

 -----------------------------------------------------------------------
  General SCF calculation program by
  Eric Jon Sundstrom, Paul Horn, Yuezhi Mao, Dmitri Zuev, Alec White,
  David Stuck, Shaama M.S., Shane Yost, Joonho Lee, David Small,
  Daniel Levine, Susi Lehtola, Hugh Burton, Evgeny Epifanovsky,
  Bang C. Huynh
 -----------------------------------------------------------------------
 Exchange:     0.2220 Hartree-Fock + 1.0000 wB97X-D + LR-HF
 Correlation:  1.0000 wB97X-D
 Using SG-2 standard quadrature grid
 Dispersion:   Grimme D
 using 12 threads for integral computing
 -------------------------------------------------------
 OpenMP Integral computing Module                
 Release: version 1.0, May 2013, Q-Chem Inc. Pittsburgh 
 -------------------------------------------------------
 A restricted SCF calculation will be
 performed using DIIS
 SCF converges when DIIS error is below 1.0e-08
 ---------------------------------------
  Cycle       Energy         DIIS error
 ---------------------------------------
    1   -3013.1721802400      4.18e-02  
    2   -3010.0505802891      6.00e-03  
    3   -3009.9014821930      8.47e-03  
    4   -3010.2722310454      4.79e-04  
    5   -3010.2732983388      3.33e-04  
    6   -3010.2740888807      7.11e-05  
    7   -3010.2741330020      2.86e-05  
    8   -3010.2741417677      9.14e-06  
    9   -3010.2741429106      2.84e-06  
   10   -3010.2741430341      8.86e-07  
   11   -3010.2741430541      2.77e-07  
   12   -3010.2741430558      1.60e-07  
   13   -3010.2741430561      9.42e-08  
   14   -3010.2741430561      3.17e-08  
   15   -3010.2741430562      7.41e-09  Convergence criterion met
 ---------------------------------------
 SCF time:   CPU 232.29s  wall 19.00s 
 SCF   energy in the final basis set =    -3010.2741430562
 Total energy in the final basis set =    -3010.2741430562
 
 MAX_CIS_SUBSPACE fits in available memory
 Direct TDDFT/TDA calculation will be performed
 Exchange:     0.2220 Hartree-Fock + 1.0000 wB97X-D + LR-HF
 Correlation:  1.0000 wB97X-D
 Using SG-2 standard quadrature grid
 Dispersion:   Grimme D
 Singlet excitation energies requested
 CIS energy converged when residual is below 10e- 6
 ---------------------------------------------------
 Iter    Rts Conv    Rts Left    Ttl Dev     Max Dev
 ---------------------------------------------------
   1         0         100      0.038703    0.001844
   2         0         100      0.011616    0.000284
   3         0         100      0.008100    0.000630
   4         1          99      0.005049    0.000501
   5        23          77      0.001908    0.000206
   6        58          42      0.000524    0.000093
   7        75          25      0.000125    0.000020
   8        92           8      0.000039    0.000004
   9        99           1      0.000024    0.000001
  10       100           0      0.000024    0.000001    Roots Converged
 ---------------------------------------------------
 
 ---------------------------------------------------
         TDDFT/TDA Excitation Energies              
 ---------------------------------------------------

 Excited state   1: excitation energy (eV) =    4.0355
 Total energy for state  1:                 -3010.12584268 au
    Multiplicity: Singlet
    Trans. Mom.:  0.0003 X  -0.0000 Y  -0.0000 Z
    Strength   :     0.0000000119
    D(   46) --> V(    1) amplitude =  0.7856
    D(   46) --> V(    4) amplitude = -0.2759
    D(   47) --> V(    1) amplitude =  0.5213

 Excited state   2: excitation energy (eV) =    4.5490
 Total energy for state  2:                 -3010.10697143 au
    Multiplicity: Singlet
    Trans. Mom.:  0.0012 X  -0.0001 Y   0.0458 Z
    Strength   :     0.0002336034
    D(   44) --> V(    1) amplitude =  0.9449
    D(   44) --> V(    4) amplitude = -0.3075

 Excited state   3: excitation energy (eV) =    5.0132
 Total energy for state  3:                 -3010.08991063 au
    Multiplicity: Singlet
    Trans. Mom.: -0.0047 X  -0.3368 Y  -0.0008 Z
    Strength   :     0.0139310589
    D(   48) --> V(    1) amplitude =  0.8397
    D(   49) --> V(    2) amplitude =  0.4909

 Excited state   4: excitation energy (eV) =    5.0851
 Total energy for state  4:                 -3010.08726806 au
    Multiplicity: Singlet
    Trans. Mom.:  1.8641 X  -0.0244 Y  -0.0433 Z
    Strength   :     0.4332403841
    D(   49) --> V(    1) amplitude =  0.9441

 Excited state   5: excitation energy (eV) =    6.0122
 Total energy for state  5:                 -3010.05319899 au
    Multiplicity: Singlet
    Trans. Mom.:  0.0008 X  -0.0001 Y   0.0371 Z
    Strength   :     0.0002025391
    D(   49) --> V(    3) amplitude =  0.8927
    D(   49) --> V(    5) amplitude = -0.2717

 Excited state   6: excitation energy (eV) =    6.2433
 Total energy for state  6:                 -3010.04470441 au
    Multiplicity: Singlet
    Trans. Mom.:  0.0081 X   0.6158 Y   0.0014 Z
    Strength   :     0.0580178555
    D(   48) --> V(    1) amplitude = -0.5067
    D(   48) --> V(    4) amplitude =  0.3510
    D(   49) --> V(    2) amplitude =  0.7511

 Excited state   7: excitation energy (eV) =    6.2466
 Total energy for state  7:                 -3010.04458488 au
    Multiplicity: Singlet
    Trans. Mom.:  0.0000 X  -0.0007 Y  -0.0000 Z
    Strength   :     0.0000000782
    D(   46) --> V(    1) amplitude = -0.4836
    D(   47) --> V(    1) amplitude =  0.7663
    D(   47) --> V(    4) amplitude =  0.3575

 Excited state   8: excitation energy (eV) =    6.7096
 Total energy for state  8:                 -3010.02757022 au
    Multiplicity: Singlet
    Trans. Mom.: -0.2333 X   0.0032 Y   0.0056 Z
    Strength   :     0.0089508202
    D(   43) --> V(    1) amplitude =  0.6193
    D(   48) --> V(    2) amplitude = -0.2786
    D(   49) --> V(    4) amplitude =  0.6885

 Excited state   9: excitation energy (eV) =    6.7714
 Total energy for state  9:                 -3010.02529904 au
    Multiplicity: Singlet
    Trans. Mom.: -0.0014 X  -0.1023 Y  -0.0003 Z
    Strength   :     0.0017362812
    D(   46) --> V(    3) amplitude = -0.4374
    D(   47) --> V(    3) amplitude =  0.7759
    D(   47) --> V(    5) amplitude = -0.3077

 Excited state  10: excitation energy (eV) =    6.9509
 Total energy for state 10:                 -3010.01870093 au
    Multiplicity: Singlet
    Trans. Mom.:  0.0114 X   0.8640 Y   0.0024 Z
    Strength   :     0.1271405005
    D(   45) --> V(    1) amplitude =  0.9198

 Excited state  11: excitation energy (eV) =    7.0449
 Total energy for state 11:                 -3010.01524814 au
    Multiplicity: Singlet
    Trans. Mom.:  1.2528 X  -0.0164 Y  -0.0287 Z
    Strength   :     0.2710942843
    D(   43) --> V(    1) amplitude =  0.4922
    D(   43) --> V(    4) amplitude =  0.2549
    D(   48) --> V(    2) amplitude =  0.7607
    D(   49) --> V(    1) amplitude =  0.2207

 Excited state  12: excitation energy (eV) =    7.2028
 Total energy for state 12:                 -3010.00944586 au
    Multiplicity: Singlet
    Trans. Mom.: -0.0000 X  -0.0003 Y   0.0002 Z
    Strength   :     0.0000000180
    D(   48) --> V(    3) amplitude =  0.9619

 Excited state  13: excitation energy (eV) =    7.2116
 Total energy for state 13:                 -3010.00912035 au
    Multiplicity: Singlet
    Trans. Mom.:  0.0022 X  -0.0002 Y   0.1041 Z
    Strength   :     0.0019148302
    D(   47) --> V(    2) amplitude =  0.9770

 Excited state  14: excitation energy (eV) =    7.2672
 Total energy for state 14:                 -3010.00707704 au
    Multiplicity: Singlet
    Trans. Mom.:  0.0076 X  -0.0008 Y   0.2829 Z
    Strength   :     0.0142608741
    D(   49) --> V(    3) amplitude =  0.2787
    D(   49) --> V(    5) amplitude =  0.8808
    D(   49) --> V(    8) amplitude =  0.2291

 Excited state  15: excitation energy (eV) =    7.3825
 Total energy for state 15:                 -3010.00283934 au
    Multiplicity: Singlet
    Trans. Mom.: -0.0001 X  -0.0001 Y   0.0000 Z
    Strength   :     0.0000000042
    D(   42) --> V(    1) amplitude =  0.9534

 Excited state  16: excitation energy (eV) =    7.5606
 Total energy for state 16:                 -3009.99629781 au
    Multiplicity: Singlet
    Trans. Mom.: -0.0109 X  -0.8439 Y  -0.0023 Z
    Strength   :     0.1319278918
    D(   43) --> V(    2) amplitude = -0.4797
    D(   48) --> V(    4) amplitude =  0.7604
    D(   49) --> V(    2) amplitude = -0.3614

 Excited state  17: excitation energy (eV) =    7.5634
 Total energy for state 17:                 -3009.99619456 au
    Multiplicity: Singlet
    Trans. Mom.: -0.0010 X   0.0041 Y  -0.0449 Z
    Strength   :     0.0003765475
    D(   46) --> V(    2) amplitude =  0.9804

 Excited state  18: excitation energy (eV) =    7.7051
 Total energy for state 18:                 -3009.99098601 au
    Multiplicity: Singlet
    Trans. Mom.:  0.0007 X  -0.0002 Y  -0.0000 Z
    Strength   :     0.0000001001
    D(   44) --> V(    2) amplitude =  0.9492

 Excited state  19: excitation energy (eV) =    7.7353
 Total energy for state 19:                 -3009.98987502 au
    Multiplicity: Singlet
    Trans. Mom.:  1.8521 X  -0.0242 Y  -0.0429 Z
    Strength   :     0.6505507302
    D(   43) --> V(    1) amplitude = -0.4836
    D(   48) --> V(    2) amplitude =  0.4593
    D(   49) --> V(    4) amplitude =  0.6623

 Excited state  20: excitation energy (eV) =    7.8084
 Total energy for state 20:                 -3009.98719105 au
    Multiplicity: Singlet
    Trans. Mom.: -0.0027 X   0.0003 Y  -0.0990 Z
    Strength   :     0.0018767543
    D(   41) --> V(    1) amplitude =  0.7936
    D(   41) --> V(    4) amplitude =  0.2283
    D(   44) --> V(    4) amplitude =  0.4594

 Excited state  21: excitation energy (eV) =    7.8609
 Total energy for state 21:                 -3009.98526018 au
    Multiplicity: Singlet
    Trans. Mom.: -0.0014 X  -0.0000 Y   0.0000 Z
    Strength   :     0.0000003754
    D(   44) --> V(    2) amplitude = -0.2300
    D(   46) --> V(    1) amplitude =  0.3139
    D(   46) --> V(    4) amplitude =  0.7271
    D(   47) --> V(    4) amplitude =  0.4905

 Excited state  22: excitation energy (eV) =    7.9412
 Total energy for state 22:                 -3009.98230824 au
    Multiplicity: Singlet
    Trans. Mom.:  0.0000 X   0.0002 Y   0.0001 Z
    Strength   :     0.0000000102
    D(   48) --> V(    5) amplitude =  0.7998
    D(   48) --> V(    7) amplitude = -0.3898
    D(   49) --> V(    6) amplitude =  0.2881

 Excited state  23: excitation energy (eV) =    8.0244
 Total energy for state 23:                 -3009.97925284 au
    Multiplicity: Singlet
    Trans. Mom.:  0.0093 X  -0.0001 Y  -0.0003 Z
    Strength   :     0.0000169604
    D(   45) --> V(    2) amplitude =  0.9910

 Excited state  24: excitation energy (eV) =    8.1048
 Total energy for state 24:                 -3009.97629794 au
    Multiplicity: Singlet
    Trans. Mom.:  0.0041 X   0.0021 Y   0.1918 Z
    Strength   :     0.0073114486
    D(   43) --> V(    3) amplitude =  0.3718
    D(   49) --> V(    7) amplitude =  0.8054

 Excited state  25: excitation energy (eV) =    8.1143
 Total energy for state 25:                 -3009.97594894 au
    Multiplicity: Singlet
    Trans. Mom.: -0.0044 X  -0.3395 Y   0.0004 Z
    Strength   :     0.0229169944
    D(   43) --> V(    2) amplitude = -0.3568
    D(   46) --> V(    5) amplitude = -0.3636
    D(   47) --> V(    5) amplitude =  0.7074
    D(   47) --> V(    7) amplitude =  0.2496

 Excited state  26: excitation energy (eV) =    8.1647
 Total energy for state 26:                 -3009.97409711 au
    Multiplicity: Singlet
    Trans. Mom.: -0.0001 X   0.0002 Y   0.0006 Z
    Strength   :     0.0000000770
    D(   49) --> V(    6) amplitude =  0.9036

 Excited state  27: excitation energy (eV) =    8.1767
 Total energy for state 27:                 -3009.97365498 au
    Multiplicity: Singlet
    Trans. Mom.:  0.0017 X  -0.0003 Y   0.1091 Z
    Strength   :     0.0023854408
    D(   43) --> V(    3) amplitude =  0.7216
    D(   43) --> V(    5) amplitude = -0.2593
    D(   49) --> V(    7) amplitude = -0.2369
    D(   49) --> V(    8) amplitude =  0.3755

 Excited state  28: excitation energy (eV) =    8.1810
 Total energy for state 28:                 -3009.97349778 au
    Multiplicity: Singlet
    Trans. Mom.:  0.0002 X   0.0002 Y   0.0008 Z
    Strength   :     0.0000001375
    D(   41) --> V(    1) amplitude = -0.4650
    D(   44) --> V(    1) amplitude =  0.2379
    D(   44) --> V(    4) amplitude =  0.7561

 Excited state  29: excitation energy (eV) =    8.3839
 Total energy for state 29:                 -3009.96603971 au
    Multiplicity: Singlet
    Trans. Mom.: -0.0192 X  -1.4697 Y  -0.0032 Z
    Strength   :     0.4437604671
    D(   43) --> V(    2) amplitude =  0.6982
    D(   47) --> V(    5) amplitude =  0.2237
    D(   48) --> V(    4) amplitude =  0.3834
    D(   48) --> V(    9) amplitude = -0.2477

 Excited state  30: excitation energy (eV) =    8.4001
 Total energy for state 30:                 -3009.96544567 au
    Multiplicity: Singlet
    Trans. Mom.:  0.0060 X   0.0013 Y   0.2981 Z
    Strength   :     0.0182969699
    D(   42) --> V(    2) amplitude =  0.9442

 Excited state  31: excitation energy (eV) =    8.5064
 Total energy for state 31:                 -3009.96154035 au
    Multiplicity: Singlet
    Trans. Mom.: -0.0054 X   0.0013 Y  -0.4270 Z
    Strength   :     0.0380060438
    D(   42) --> V(    2) amplitude =  0.2491
    D(   48) --> V(    6) amplitude =  0.6892
    D(   49) --> V(    8) amplitude = -0.5206

 Excited state  32: excitation energy (eV) =    8.5605
 Total energy for state 32:                 -3009.95955186 au
    Multiplicity: Singlet
    Trans. Mom.:  0.3008 X  -0.0040 Y   0.0061 Z
    Strength   :     0.0189880395
    D(   49) --> V(    9) amplitude =  0.9329

 Excited state  33: excitation energy (eV) =    8.5897
 Total energy for state 33:                 -3009.95847745 au
    Multiplicity: Singlet
    Trans. Mom.:  0.0047 X   0.0004 Y  -0.1749 Z
    Strength   :     0.0064454383
    D(   48) --> V(    6) amplitude =  0.6114
    D(   49) --> V(    5) amplitude = -0.2272
    D(   49) --> V(    8) amplitude =  0.5971

 Excited state  34: excitation energy (eV) =    8.5995
 Total energy for state 34:                 -3009.95811809 au
    Multiplicity: Singlet
    Trans. Mom.: -0.0001 X   0.0013 Y  -0.0004 Z
    Strength   :     0.0000003982
    D(   41) --> V(    2) amplitude =  0.3013
    D(   46) --> V(    4) amplitude = -0.4668
    D(   47) --> V(    1) amplitude = -0.3099
    D(   47) --> V(    4) amplitude =  0.6786

 Excited state  35: excitation energy (eV) =    8.6360
 Total energy for state 35:                 -3009.95677634 au
    Multiplicity: Singlet
    Trans. Mom.: -0.0000 X  -0.0023 Y   0.0001 Z
    Strength   :     0.0000011610
    D(   45) --> V(    4) amplitude =  0.4948
    D(   46) --> V(    3) amplitude = -0.3421
    D(   46) --> V(    5) amplitude = -0.2804
    D(   46) --> V(    7) amplitude =  0.4405
    D(   46) --> V(   11) amplitude =  0.2271
    D(   47) --> V(    3) amplitude = -0.2134
    D(   47) --> V(    7) amplitude =  0.3383

 Excited state  36: excitation energy (eV) =    8.7791
 Total energy for state 36:                 -3009.95151840 au
    Multiplicity: Singlet
    Trans. Mom.: -0.0128 X  -0.9811 Y  -0.0027 Z
    Strength   :     0.2070557928
    D(   45) --> V(    4) amplitude =  0.7503
    D(   46) --> V(    3) amplitude =  0.3066

 Excited state  37: excitation energy (eV) =    8.8010
 Total energy for state 37:                 -3009.95071182 au
    Multiplicity: Singlet
    Trans. Mom.:  0.0000 X   0.0023 Y   0.0001 Z
    Strength   :     0.0000011642
    D(   41) --> V(    2) amplitude =  0.2754
    D(   48) --> V(    5) amplitude = -0.3414
    D(   48) --> V(    7) amplitude = -0.3239
    D(   48) --> V(    8) amplitude =  0.7503
    D(   48) --> V(   16) amplitude = -0.2416

 Excited state  38: excitation energy (eV) =    8.8306
 Total energy for state 38:                 -3009.94962356 au
    Multiplicity: Singlet
    Trans. Mom.:  0.0002 X  -0.0004 Y   0.0000 Z
    Strength   :     0.0000000390
    D(   41) --> V(    2) amplitude =  0.8633
    D(   47) --> V(    4) amplitude = -0.2257
    D(   48) --> V(    8) amplitude = -0.2512

 Excited state  39: excitation energy (eV) =    8.8897
 Total energy for state 39:                 -3009.94745412 au
    Multiplicity: Singlet
    Trans. Mom.:  1.0313 X  -0.0131 Y  -0.0243 Z
    Strength   :     0.2318177488
    D(   40) --> V(    1) amplitude =  0.7275
    D(   43) --> V(    4) amplitude = -0.3778
    D(   47) --> V(    6) amplitude = -0.2299

 Excited state  40: excitation energy (eV) =    8.9915
 Total energy for state 40:                 -3009.94371209 au
    Multiplicity: Singlet
    Trans. Mom.:  0.0001 X   0.0021 Y   0.0001 Z
    Strength   :     0.0000009709
    D(   45) --> V(    3) amplitude = -0.3196
    D(   45) --> V(    5) amplitude = -0.2688
    D(   45) --> V(    7) amplitude =  0.4131
    D(   48) --> V(    7) amplitude =  0.4384
    D(   48) --> V(    8) amplitude =  0.2251
    D(   49) --> V(   10) amplitude =  0.4598

 Excited state  41: excitation energy (eV) =    9.0170
 Total energy for state 41:                 -3009.94277270 au
    Multiplicity: Singlet
    Trans. Mom.:  0.0002 X  -0.0029 Y   0.0001 Z
    Strength   :     0.0000019327
    D(   48) --> V(    7) amplitude = -0.5345
    D(   48) --> V(    8) amplitude = -0.3387
    D(   49) --> V(   10) amplitude =  0.6575

 Excited state  42: excitation energy (eV) =    9.0385
 Total energy for state 42:                 -3009.94198328 au
    Multiplicity: Singlet
    Trans. Mom.:  0.0936 X  -0.0013 Y  -0.0022 Z
    Strength   :     0.0019417721
    D(   40) --> V(    1) amplitude = -0.2338
    D(   44) --> V(    3) amplitude = -0.4776
    D(   44) --> V(    5) amplitude = -0.3545
    D(   44) --> V(    7) amplitude =  0.5542
    D(   44) --> V(   11) amplitude =  0.2366
    D(   46) --> V(    6) amplitude = -0.2637

 Excited state  43: excitation energy (eV) =    9.1387
 Total energy for state 43:                 -3009.93830246 au
    Multiplicity: Singlet
    Trans. Mom.: -0.0001 X  -0.0022 Y  -0.0003 Z
    Strength   :     0.0000010796
    D(   45) --> V(    3) amplitude = -0.3540
    D(   45) --> V(    5) amplitude = -0.2768
    D(   45) --> V(    7) amplitude =  0.5063
    D(   45) --> V(   11) amplitude =  0.2323
    D(   48) --> V(    7) amplitude = -0.3827
    D(   49) --> V(   10) amplitude = -0.3935

 Excited state  44: excitation energy (eV) =    9.1538
 Total energy for state 44:                 -3009.93774884 au
    Multiplicity: Singlet
    Trans. Mom.: -0.0751 X   0.0007 Y   0.0036 Z
    Strength   :     0.0012667408
    D(   40) --> V(    1) amplitude =  0.2270
    D(   46) --> V(    6) amplitude = -0.3453
    D(   46) --> V(   10) amplitude =  0.2275
    D(   47) --> V(    6) amplitude =  0.6910
    D(   47) --> V(   10) amplitude = -0.3872
    D(   49) --> V(   12) amplitude =  0.2776

 Excited state  45: excitation energy (eV) =    9.1801
 Total energy for state 45:                 -3009.93678032 au
    Multiplicity: Singlet
    Trans. Mom.: -0.0072 X   0.0009 Y  -0.2881 Z
    Strength   :     0.0186758101
    D(   43) --> V(    7) amplitude = -0.2952
    D(   49) --> V(   11) amplitude =  0.8644

 Excited state  46: excitation energy (eV) =    9.3510
 Total energy for state 46:                 -3009.93049904 au
    Multiplicity: Singlet
    Trans. Mom.: -0.0001 X  -0.0028 Y   0.0001 Z
    Strength   :     0.0000017563
    D(   37) --> V(    1) amplitude = -0.2745
    D(   39) --> V(    1) amplitude = -0.5745
    D(   42) --> V(    4) amplitude =  0.6458
    D(   47) --> V(    9) amplitude =  0.2691

 Excited state  47: excitation energy (eV) =    9.3555
 Total energy for state 47:                 -3009.93033412 au
    Multiplicity: Singlet
    Trans. Mom.: -0.0073 X  -0.5454 Y  -0.0013 Z
    Strength   :     0.0681909150
    D(   43) --> V(    2) amplitude =  0.2313
    D(   48) --> V(    9) amplitude =  0.7767
    D(   48) --> V(   12) amplitude =  0.4033

 Excited state  48: excitation energy (eV) =    9.4171
 Total energy for state 48:                 -3009.92806934 au
    Multiplicity: Singlet
    Trans. Mom.: -0.2602 X   0.0037 Y   0.0066 Z
    Strength   :     0.0156293060
    D(   40) --> V(    1) amplitude =  0.3296
    D(   43) --> V(    4) amplitude =  0.6891
    D(   49) --> V(   12) amplitude =  0.4609

 Excited state  49: excitation energy (eV) =    9.4616
 Total energy for state 49:                 -3009.92643437 au
    Multiplicity: Singlet
    Trans. Mom.:  0.3759 X  -0.0030 Y  -0.0081 Z
    Strength   :     0.0327667428
    D(   40) --> V(    1) amplitude = -0.2969
    D(   43) --> V(    4) amplitude = -0.3558
    D(   43) --> V(    9) amplitude = -0.2422
    D(   49) --> V(   12) amplitude =  0.7182

 Excited state  50: excitation energy (eV) =    9.4680
 Total energy for state 50:                 -3009.92619994 au
    Multiplicity: Singlet
    Trans. Mom.:  0.0045 X   0.4508 Y   0.0014 Z
    Strength   :     0.0471376362
    D(   46) --> V(    3) amplitude =  0.5076
    D(   46) --> V(    8) amplitude = -0.2649
    D(   47) --> V(    3) amplitude =  0.2194
    D(   47) --> V(    7) amplitude =  0.3817
    D(   47) --> V(    8) amplitude = -0.4254

 Excited state  51: excitation energy (eV) =    9.5182
 Total energy for state 51:                 -3009.92435382 au
    Multiplicity: Singlet
    Trans. Mom.: -0.0004 X  -0.0169 Y   0.0003 Z
    Strength   :     0.0000666963
    D(   39) --> V(    1) amplitude =  0.2257
    D(   46) --> V(    9) amplitude = -0.4110
    D(   47) --> V(    9) amplitude =  0.7822

 Excited state  52: excitation energy (eV) =    9.5493
 Total energy for state 52:                 -3009.92321291 au
    Multiplicity: Singlet
    Trans. Mom.:  0.0057 X   0.4128 Y   0.0009 Z
    Strength   :     0.0398836694
    D(   46) --> V(    7) amplitude =  0.4371
    D(   46) --> V(    8) amplitude = -0.2760
    D(   46) --> V(   11) amplitude = -0.2377
    D(   47) --> V(    3) amplitude =  0.2849
    D(   47) --> V(    7) amplitude = -0.4041
    D(   47) --> V(   11) amplitude =  0.5306

 Excited state  53: excitation energy (eV) =    9.6020
 Total energy for state 53:                 -3009.92127503 au
    Multiplicity: Singlet
    Trans. Mom.:  0.0083 X  -0.0010 Y   0.3395 Z
    Strength   :     0.0271298544
    D(   43) --> V(    3) amplitude =  0.2144
    D(   43) --> V(    5) amplitude =  0.6816
    D(   43) --> V(    8) amplitude =  0.3092
    D(   49) --> V(    7) amplitude = -0.3129
    D(   49) --> V(   15) amplitude = -0.3403

 Excited state  54: excitation energy (eV) =    9.6539
 Total energy for state 54:                 -3009.91936801 au
    Multiplicity: Singlet
    Trans. Mom.:  0.0045 X   0.3463 Y   0.0008 Z
    Strength   :     0.0283757705
    D(   40) --> V(    2) amplitude = -0.2436
    D(   49) --> V(   14) amplitude =  0.9009

 Excited state  55: excitation energy (eV) =    9.7168
 Total energy for state 55:                 -3009.91705602 au
    Multiplicity: Singlet
    Trans. Mom.:  0.0174 X   0.0001 Y  -0.0004 Z
    Strength   :     0.0000722044
    D(   44) --> V(    7) amplitude =  0.2365
    D(   44) --> V(    8) amplitude = -0.2856
    D(   46) --> V(    6) amplitude =  0.6260
    D(   46) --> V(   10) amplitude =  0.2648
    D(   47) --> V(    6) amplitude =  0.3387
    D(   47) --> V(   10) amplitude =  0.3318

 Excited state  56: excitation energy (eV) =    9.7641
 Total energy for state 56:                 -3009.91531903 au
    Multiplicity: Singlet
    Trans. Mom.:  0.0016 X   0.0000 Y   0.0608 Z
    Strength   :     0.0008834646
    D(   43) --> V(    5) amplitude =  0.2549
    D(   48) --> V(   10) amplitude =  0.5470
    D(   49) --> V(   15) amplitude =  0.4704
    D(   49) --> V(   16) amplitude = -0.3024

 Excited state  57: excitation energy (eV) =    9.7835
 Total energy for state 57:                 -3009.91460747 au
    Multiplicity: Singlet
    Trans. Mom.:  0.0626 X  -0.0009 Y  -0.0009 Z
    Strength   :     0.0009406828
    D(   44) --> V(    3) amplitude =  0.7400
    D(   44) --> V(    7) amplitude =  0.3815
    D(   44) --> V(    8) amplitude = -0.3067

 Excited state  58: excitation energy (eV) =    9.7907
 Total energy for state 58:                 -3009.91434103 au
    Multiplicity: Singlet
    Trans. Mom.: -0.0000 X  -0.0005 Y  -0.0006 Z
    Strength   :     0.0000001297
    D(   37) --> V(    1) amplitude = -0.4555
    D(   39) --> V(    1) amplitude =  0.6189
    D(   42) --> V(    4) amplitude =  0.3680
    D(   49) --> V(   13) amplitude = -0.3623

 Excited state  59: excitation energy (eV) =    9.8113
 Total energy for state 59:                 -3009.91358599 au
    Multiplicity: Singlet
    Trans. Mom.: -0.0045 X   0.0004 Y  -0.1627 Z
    Strength   :     0.0063711496
    D(   43) --> V(    5) amplitude = -0.3965
    D(   48) --> V(   10) amplitude =  0.6487
    D(   48) --> V(   13) amplitude =  0.2133
    D(   49) --> V(   15) amplitude = -0.4690

 Excited state  60: excitation energy (eV) =    9.8174
 Total energy for state 60:                 -3009.91336127 au
    Multiplicity: Singlet
    Trans. Mom.: -0.0004 X  -0.0557 Y  -0.0003 Z
    Strength   :     0.0007473990
    D(   46) --> V(    3) amplitude =  0.3550
    D(   46) --> V(   15) amplitude =  0.2255
    D(   47) --> V(    5) amplitude = -0.2941
    D(   47) --> V(    8) amplitude =  0.6818
    D(   47) --> V(   15) amplitude = -0.2732

 Excited state  61: excitation energy (eV) =    9.8305
 Total energy for state 61:                 -3009.91287984 au
    Multiplicity: Singlet
    Trans. Mom.:  0.0000 X   0.0007 Y  -0.0016 Z
    Strength   :     0.0000006974
    D(   39) --> V(    1) amplitude =  0.2595
    D(   49) --> V(   13) amplitude =  0.8075

 Excited state  62: excitation energy (eV) =    9.8616
 Total energy for state 62:                 -3009.91173582 au
    Multiplicity: Singlet
    Trans. Mom.: -0.0001 X  -0.0004 Y  -0.0001 Z
    Strength   :     0.0000000492
    D(   45) --> V(    3) amplitude =  0.7328
    D(   45) --> V(    7) amplitude =  0.3173
    D(   45) --> V(    8) amplitude = -0.4628
    D(   45) --> V(   15) amplitude = -0.2330

 Excited state  63: excitation energy (eV) =    9.8884
 Total energy for state 63:                 -3009.91075100 au
    Multiplicity: Singlet
    Trans. Mom.:  0.0020 X   0.1634 Y   0.0004 Z
    Strength   :     0.0064663307
    D(   44) --> V(    6) amplitude = -0.4371
    D(   44) --> V(   10) amplitude = -0.2625
    D(   46) --> V(    3) amplitude =  0.3074
    D(   46) --> V(    5) amplitude = -0.2436
    D(   46) --> V(    8) amplitude =  0.5548
    D(   47) --> V(    3) amplitude =  0.2749
    D(   47) --> V(   15) amplitude =  0.2668

 Excited state  64: excitation energy (eV) =    9.9351
 Total energy for state 64:                 -3009.90903466 au
    Multiplicity: Singlet
    Trans. Mom.: -0.0048 X   0.0005 Y  -0.2013 Z
    Strength   :     0.0098667578
    D(   36) --> V(    1) amplitude = -0.4063
    D(   38) --> V(    1) amplitude = -0.3208
    D(   41) --> V(    4) amplitude =  0.7106

 Excited state  65: excitation energy (eV) =   10.0049
 Total energy for state 65:                 -3009.90646796 au
    Multiplicity: Singlet
    Trans. Mom.: -0.0021 X  -0.1128 Y  -0.0003 Z
    Strength   :     0.0031203921
    D(   40) --> V(    2) amplitude =  0.2520
    D(   42) --> V(    3) amplitude =  0.8502

 Excited state  66: excitation energy (eV) =   10.0429
 Total energy for state 66:                 -3009.90507148 au
    Multiplicity: Singlet
    Trans. Mom.:  0.3524 X  -0.0044 Y  -0.0081 Z
    Strength   :     0.0305836686
    D(   48) --> V(   14) amplitude =  0.8949

 Excited state  67: excitation energy (eV) =   10.0552
 Total energy for state 67:                 -3009.90462052 au
    Multiplicity: Singlet
    Trans. Mom.:  0.0053 X  -0.0008 Y   0.2546 Z
    Strength   :     0.0159784371
    D(   45) --> V(    6) amplitude =  0.7618
    D(   45) --> V(   10) amplitude =  0.4692
    D(   45) --> V(   13) amplitude =  0.2406

 Excited state  68: excitation energy (eV) =   10.0572
 Total energy for state 68:                 -3009.90454642 au
    Multiplicity: Singlet
    Trans. Mom.: -0.0001 X  -0.0005 Y   0.0038 Z
    Strength   :     0.0000036972
    D(   48) --> V(   11) amplitude =  0.8133
    D(   48) --> V(   16) amplitude = -0.3444

 Excited state  69: excitation energy (eV) =   10.0822
 Total energy for state 69:                 -3009.90363085 au
    Multiplicity: Singlet
    Trans. Mom.: -0.0001 X  -0.0002 Y  -0.0443 Z
    Strength   :     0.0004856042
    D(   43) --> V(   11) amplitude =  0.2743
    D(   48) --> V(   10) amplitude =  0.2733
    D(   49) --> V(    8) amplitude =  0.2197
    D(   49) --> V(   15) amplitude =  0.3736
    D(   49) --> V(   16) amplitude =  0.6979
    D(   49) --> V(   22) amplitude =  0.2466

 Excited state  70: excitation energy (eV) =   10.1026
 Total energy for state 70:                 -3009.90287980 au
    Multiplicity: Singlet
    Trans. Mom.:  0.0024 X   0.1608 Y   0.0007 Z
    Strength   :     0.0063986547
    D(   46) --> V(    5) amplitude =  0.6220
    D(   46) --> V(   11) amplitude =  0.3570
    D(   46) --> V(   16) amplitude = -0.2185
    D(   47) --> V(    5) amplitude =  0.2967
    D(   48) --> V(   12) amplitude = -0.3178

 Excited state  71: excitation energy (eV) =   10.1155
 Total energy for state 71:                 -3009.90240639 au
    Multiplicity: Singlet
    Trans. Mom.:  0.0048 X   0.3758 Y   0.0010 Z
    Strength   :     0.0350107406
    D(   40) --> V(    2) amplitude =  0.6792
    D(   48) --> V(    9) amplitude = -0.2788
    D(   48) --> V(   12) amplitude =  0.4957

 Excited state  72: excitation energy (eV) =   10.1444
 Total energy for state 72:                 -3009.90134378 au
    Multiplicity: Singlet
    Trans. Mom.: -0.0007 X  -0.0223 Y  -0.0000 Z
    Strength   :     0.0001234830
    D(   40) --> V(    2) amplitude = -0.5571
    D(   42) --> V(    3) amplitude =  0.2269
    D(   48) --> V(    9) amplitude = -0.2656
    D(   48) --> V(   12) amplitude =  0.5386
    D(   48) --> V(   17) amplitude =  0.2282
    D(   49) --> V(   14) amplitude = -0.2510

 Excited state  73: excitation energy (eV) =   10.1590
 Total energy for state 73:                 -3009.90080564 au
    Multiplicity: Singlet
    Trans. Mom.: -0.0001 X   0.0017 Y   0.0000 Z
    Strength   :     0.0000007344
    D(   46) --> V(    9) amplitude =  0.5150
    D(   46) --> V(   12) amplitude =  0.5428
    D(   46) --> V(   17) amplitude =  0.2415
    D(   47) --> V(    9) amplitude =  0.2855
    D(   47) --> V(   12) amplitude =  0.4607

 Excited state  74: excitation energy (eV) =   10.2060
 Total energy for state 74:                 -3009.89907789 au
    Multiplicity: Singlet
    Trans. Mom.: -0.1005 X   0.0013 Y   0.0030 Z
    Strength   :     0.0025277491
    D(   46) --> V(    6) amplitude =  0.2498
    D(   46) --> V(   10) amplitude =  0.3653
    D(   46) --> V(   13) amplitude = -0.2246
    D(   47) --> V(    6) amplitude = -0.2663
    D(   47) --> V(   10) amplitude = -0.4846
    D(   47) --> V(   13) amplitude =  0.5385

 Excited state  75: excitation energy (eV) =   10.2082
 Total energy for state 75:                 -3009.89899869 au
    Multiplicity: Singlet
    Trans. Mom.: -0.0023 X   0.0003 Y  -0.0770 Z
    Strength   :     0.0014834807
    D(   38) --> V(    1) amplitude =  0.7964
    D(   39) --> V(    2) amplitude =  0.4678

 Excited state  76: excitation energy (eV) =   10.2471
 Total energy for state 76:                 -3009.89756832 au
    Multiplicity: Singlet
    Trans. Mom.: -0.0001 X   0.0001 Y  -0.0001 Z
    Strength   :     0.0000000097
    D(   35) --> V(    1) amplitude =  0.3461
    D(   37) --> V(    1) amplitude =  0.6549
    D(   39) --> V(    1) amplitude =  0.2193
    D(   42) --> V(    4) amplitude =  0.4988

 Excited state  77: excitation energy (eV) =   10.2566
 Total energy for state 77:                 -3009.89722078 au
    Multiplicity: Singlet
    Trans. Mom.: -0.0001 X  -0.0004 Y   0.0002 Z
    Strength   :     0.0000000525
    D(   44) --> V(    6) amplitude =  0.6522
    D(   44) --> V(   10) amplitude =  0.2745
    D(   46) --> V(    8) amplitude =  0.3437
    D(   46) --> V(   16) amplitude = -0.3011

 Excited state  78: excitation energy (eV) =   10.3465
 Total energy for state 78:                 -3009.89391672 au
    Multiplicity: Singlet
    Trans. Mom.: -0.6735 X   0.0090 Y   0.0155 Z
    Strength   :     0.1150680281
    D(   41) --> V(    3) amplitude = -0.2432
    D(   44) --> V(    5) amplitude =  0.6255
    D(   44) --> V(    8) amplitude = -0.4862
    D(   44) --> V(   11) amplitude =  0.2155

 Excited state  79: excitation energy (eV) =   10.3824
 Total energy for state 79:                 -3009.89259861 au
    Multiplicity: Singlet
    Trans. Mom.:  0.0001 X   0.0003 Y  -0.0001 Z
    Strength   :     0.0000000323
    D(   45) --> V(    3) amplitude =  0.2619
    D(   45) --> V(    5) amplitude = -0.2811
    D(   45) --> V(    8) amplitude =  0.2902
    D(   48) --> V(   15) amplitude =  0.7192
    D(   48) --> V(   21) amplitude =  0.3054

 Excited state  80: excitation energy (eV) =   10.3950
 Total energy for state 80:                 -3009.89213236 au
    Multiplicity: Singlet
    Trans. Mom.:  0.9728 X  -0.0120 Y  -0.0222 Z
    Strength   :     0.2411900609
    D(   41) --> V(    3) amplitude =  0.6281
    D(   44) --> V(    5) amplitude =  0.3781
    D(   44) --> V(   11) amplitude =  0.2203
    D(   49) --> V(   17) amplitude =  0.3150

 Excited state  81: excitation energy (eV) =   10.4362
 Total energy for state 81:                 -3009.89062090 au
    Multiplicity: Singlet
    Trans. Mom.: -0.0037 X  -0.4451 Y  -0.0013 Z
    Strength   :     0.0506675156
    D(   46) --> V(    7) amplitude = -0.2587
    D(   46) --> V(   11) amplitude = -0.3312
    D(   47) --> V(    7) amplitude =  0.4756
    D(   47) --> V(   11) amplitude =  0.4740
    D(   47) --> V(   16) amplitude =  0.4661

 Excited state  82: excitation energy (eV) =   10.4423
 Total energy for state 82:                 -3009.89039729 au
    Multiplicity: Singlet
    Trans. Mom.: -0.0009 X   0.0032 Y   0.0007 Z
    Strength   :     0.0000029694
    D(   43) --> V(    6) amplitude =  0.7715
    D(   45) --> V(    5) amplitude =  0.2935
    D(   48) --> V(   15) amplitude =  0.2457
    D(   49) --> V(   10) amplitude =  0.2499

 Excited state  83: excitation energy (eV) =   10.4513
 Total energy for state 83:                 -3009.89006363 au
    Multiplicity: Singlet
    Trans. Mom.:  0.0011 X  -0.0004 Y   0.1235 Z
    Strength   :     0.0039044584
    D(   38) --> V(    1) amplitude = -0.3838
    D(   39) --> V(    2) amplitude =  0.8089
    D(   41) --> V(    4) amplitude = -0.3034

 Excited state  84: excitation energy (eV) =   10.4522
 Total energy for state 84:                 -3009.89003219 au
    Multiplicity: Singlet
    Trans. Mom.: -0.0008 X  -0.0009 Y   0.0006 Z
    Strength   :     0.0000004503
    D(   43) --> V(    6) amplitude = -0.4661
    D(   45) --> V(    3) amplitude = -0.2510
    D(   45) --> V(    5) amplitude =  0.4963
    D(   45) --> V(    8) amplitude = -0.4173
    D(   45) --> V(   15) amplitude = -0.2135
    D(   48) --> V(   15) amplitude =  0.3243

 Excited state  85: excitation energy (eV) =   10.4595
 Total energy for state 85:                 -3009.88976206 au
    Multiplicity: Singlet
    Trans. Mom.: -0.5019 X   0.0058 Y   0.0113 Z
    Strength   :     0.0645940085
    D(   44) --> V(    5) amplitude = -0.2160
    D(   44) --> V(    8) amplitude = -0.3405
    D(   44) --> V(   11) amplitude = -0.3094
    D(   44) --> V(   16) amplitude =  0.3368
    D(   49) --> V(   17) amplitude =  0.5719

 Excited state  86: excitation energy (eV) =   10.5158
 Total energy for state 86:                 -3009.88769289 au
    Multiplicity: Singlet
    Trans. Mom.: -0.0022 X   0.0004 Y  -0.0960 Z
    Strength   :     0.0023774338
    D(   44) --> V(    9) amplitude =  0.5874
    D(   44) --> V(   12) amplitude =  0.6727
    D(   44) --> V(   17) amplitude =  0.2439

 Excited state  87: excitation energy (eV) =   10.5561
 Total energy for state 87:                 -3009.88621289 au
    Multiplicity: Singlet
    Trans. Mom.:  0.0003 X  -0.0001 Y  -0.0001 Z
    Strength   :     0.0000000314
    D(   45) --> V(    3) amplitude =  0.2175
    D(   45) --> V(    5) amplitude =  0.4556
    D(   45) --> V(    8) amplitude =  0.3317
    D(   45) --> V(   11) amplitude =  0.4687
    D(   45) --> V(   16) amplitude = -0.4773

 Excited state  88: excitation energy (eV) =   10.5839
 Total energy for state 88:                 -3009.88519294 au
    Multiplicity: Singlet
    Trans. Mom.:  0.0115 X  -0.0015 Y   0.4646 Z
    Strength   :     0.0559934303
    D(   40) --> V(    3) amplitude = -0.2447
    D(   43) --> V(    3) amplitude = -0.2139
    D(   43) --> V(    7) amplitude =  0.7833
    D(   49) --> V(   11) amplitude =  0.2567

 Excited state  89: excitation energy (eV) =   10.6262
 Total energy for state 89:                 -3009.88363630 au
    Multiplicity: Singlet
    Trans. Mom.: -0.3329 X   0.0043 Y   0.0121 Z
    Strength   :     0.0288908804
    D(   41) --> V(    3) amplitude = -0.2936
    D(   44) --> V(    8) amplitude =  0.3883
    D(   46) --> V(    6) amplitude =  0.2848
    D(   49) --> V(   17) amplitude =  0.5094
    D(   49) --> V(   20) amplitude = -0.2133

 Excited state  90: excitation energy (eV) =   10.6592
 Total energy for state 90:                 -3009.88242426 au
    Multiplicity: Singlet
    Trans. Mom.: -0.0111 X   0.0011 Y  -0.3675 Z
    Strength   :     0.0353046902
    D(   49) --> V(   15) amplitude =  0.2468
    D(   49) --> V(   16) amplitude = -0.2450
    D(   49) --> V(   21) amplitude = -0.7498
    D(   49) --> V(   22) amplitude =  0.2339

 Excited state  91: excitation energy (eV) =   10.6661
 Total energy for state 91:                 -3009.88217215 au
    Multiplicity: Singlet
    Trans. Mom.:  0.0011 X   0.0798 Y   0.0004 Z
    Strength   :     0.0016646229
    D(   45) --> V(    9) amplitude =  0.5168
    D(   45) --> V(   12) amplitude =  0.5906
    D(   45) --> V(   17) amplitude =  0.2146
    D(   46) --> V(    7) amplitude =  0.2924

 Excited state  92: excitation energy (eV) =   10.7283
 Total energy for state 92:                 -3009.87988658 au
    Multiplicity: Singlet
    Trans. Mom.:  0.0017 X  -0.0004 Y   0.0742 Z
    Strength   :     0.0014496748
    D(   40) --> V(    3) amplitude = -0.2960
    D(   43) --> V(    8) amplitude =  0.3209
    D(   48) --> V(   13) amplitude =  0.7379
    D(   49) --> V(   21) amplitude =  0.2611

 Excited state  93: excitation energy (eV) =   10.7663
 Total energy for state 93:                 -3009.87849029 au
    Multiplicity: Singlet
    Trans. Mom.:  0.0023 X   0.1409 Y   0.0008 Z
    Strength   :     0.0052389493
    D(   45) --> V(    9) amplitude = -0.3187
    D(   45) --> V(   12) amplitude = -0.3347
    D(   46) --> V(    5) amplitude =  0.2407
    D(   46) --> V(    7) amplitude =  0.4299
    D(   46) --> V(    8) amplitude =  0.2339
    D(   46) --> V(   16) amplitude =  0.3445

 Excited state  94: excitation energy (eV) =   10.7846
 Total energy for state 94:                 -3009.87781482 au
    Multiplicity: Singlet
    Trans. Mom.: -0.0004 X   0.0019 Y  -0.0000 Z
    Strength   :     0.0000009904
    D(   35) --> V(    1) amplitude =  0.6106
    D(   37) --> V(    1) amplitude = -0.2538
    D(   37) --> V(    4) amplitude = -0.2589
    D(   49) --> V(   18) amplitude =  0.5442

 Excited state  95: excitation energy (eV) =   10.7984
 Total energy for state 95:                 -3009.87730850 au
    Multiplicity: Singlet
    Trans. Mom.:  0.0008 X  -0.0018 Y  -0.0000 Z
    Strength   :     0.0000010589
    D(   35) --> V(    1) amplitude =  0.5092
    D(   37) --> V(    4) amplitude = -0.2183
    D(   49) --> V(   18) amplitude = -0.6466
    D(   49) --> V(   23) amplitude =  0.2417

 Excited state  96: excitation energy (eV) =   10.8032
 Total energy for state 96:                 -3009.87713192 au
    Multiplicity: Singlet
    Trans. Mom.: -0.2886 X   0.0039 Y   0.0072 Z
    Strength   :     0.0220669141
    D(   41) --> V(    5) amplitude =  0.3642
    D(   43) --> V(    9) amplitude =  0.4509
    D(   49) --> V(   20) amplitude = -0.4092
    D(   49) --> V(   24) amplitude = -0.3880

 Excited state  97: excitation energy (eV) =   10.8097
 Total energy for state 97:                 -3009.87689407 au
    Multiplicity: Singlet
    Trans. Mom.:  0.0012 X   0.0348 Y   0.0001 Z
    Strength   :     0.0003211581
    D(   42) --> V(    5) amplitude = -0.8265
    D(   42) --> V(    7) amplitude =  0.3391

 Excited state  98: excitation energy (eV) =   10.8231
 Total energy for state 98:                 -3009.87640199 au
    Multiplicity: Singlet
    Trans. Mom.: -0.0049 X   0.0001 Y  -0.0066 Z
    Strength   :     0.0000179581
    D(   40) --> V(    3) amplitude = -0.3244
    D(   43) --> V(    8) amplitude =  0.5292
    D(   48) --> V(   13) amplitude = -0.5101

 Excited state  99: excitation energy (eV) =   10.8500
 Total energy for state 99:                 -3009.87541370 au
    Multiplicity: Singlet
    Trans. Mom.: -0.7454 X   0.0095 Y   0.0171 Z
    Strength   :     0.1477927544
    D(   41) --> V(    5) amplitude =  0.6326
    D(   43) --> V(    9) amplitude = -0.2124
    D(   46) --> V(   10) amplitude =  0.2500
    D(   46) --> V(   13) amplitude =  0.2803
    D(   49) --> V(   17) amplitude =  0.2275
    D(   49) --> V(   20) amplitude =  0.2254

 Excited state 100: excitation energy (eV) =   10.8721
 Total energy for state100:                 -3009.87460016 au
    Multiplicity: Singlet
    Trans. Mom.: -0.0005 X  -0.0019 Y  -0.0001 Z
    Strength   :     0.0000010422
    D(   46) --> V(   12) amplitude = -0.4779
    D(   47) --> V(   12) amplitude =  0.6730
    D(   47) --> V(   17) amplitude = -0.3924
 
 ---------------------------------------------------

 Direct TDDFT calculation will be performed
 Exchange:     0.2220 Hartree-Fock + 1.0000 wB97X-D + LR-HF
 Correlation:  1.0000 wB97X-D
 Using SG-2 standard quadrature grid
 Dispersion:   Grimme D
 ---------------------------------------------------
 Iter    Rts Conv    Rts Left    Ttl Dev     Max Dev
 ---------------------------------------------------
   1         0         100      0.022426    0.000944
   2         0         100      0.005725    0.000158
   3         0         100      0.001993    0.000068
   4         1          99      0.000922    0.000035
   5        11          89      0.000401    0.000018
   6        44          56      0.000178    0.000008
   7        79          21      0.000085    0.000004
   8        95           5      0.000057    0.000002
   9       100           0      0.000052    0.000001    Roots Converged
 ---------------------------------------------------
 
 ---------------------------------------------------
             TDDFT Excitation Energies              
 ---------------------------------------------------

 Excited state   1: excitation energy (eV) =    4.0121
 Total energy for state  1:                 -3010.12670018 au
    Multiplicity: Singlet 
    Trans. Mom.:  0.0004 X  -0.0000 Y  -0.0000 Z
    Strength   :     0.0000000124
    X: D(   46) --> V(    1) amplitude =  0.7858
    X: D(   46) --> V(    4) amplitude = -0.2772
    X: D(   47) --> V(    1) amplitude =  0.5212

 Excited state   2: excitation energy (eV) =    4.5201
 Total energy for state  2:                 -3010.10803082 au
    Multiplicity: Singlet 
    Trans. Mom.:  0.0015 X  -0.0001 Y   0.0545 Z
    Strength   :     0.0003292582
    X: D(   44) --> V(    1) amplitude =  0.9456
    X: D(   44) --> V(    4) amplitude = -0.3084

 Excited state   3: excitation energy (eV) =    4.9315
 Total energy for state  3:                 -3010.09291329 au
    Multiplicity: Singlet 
    Trans. Mom.:  1.7106 X  -0.0223 Y  -0.0397 Z
    Strength   :     0.3537779851
    X: D(   43) --> V(    1) amplitude = -0.2234
    X: D(   49) --> V(    1) amplitude =  0.9502

 Excited state   4: excitation energy (eV) =    4.9474
 Total energy for state  4:                 -3010.09232992 au
    Multiplicity: Singlet 
    Trans. Mom.: -0.0039 X  -0.3310 Y  -0.0008 Z
    Strength   :     0.0132838712
    X: D(   48) --> V(    1) amplitude =  0.8707
    X: D(   49) --> V(    2) amplitude =  0.4429

 Excited state   5: excitation energy (eV) =    5.9696
 Total energy for state  5:                 -3010.05476449 au
    Multiplicity: Singlet 
    Trans. Mom.:  0.0000 X   0.0001 Y   0.0040 Z
    Strength   :     0.0000023487
    X: D(   49) --> V(    3) amplitude =  0.8907
    X: D(   49) --> V(    5) amplitude = -0.2759

 Excited state   6: excitation energy (eV) =    6.0249
 Total energy for state  6:                 -3010.05273268 au
    Multiplicity: Singlet 
    Trans. Mom.:  0.0060 X   0.4559 Y   0.0010 Z
    Strength   :     0.0306865415
    X: D(   45) --> V(    1) amplitude = -0.3116
    X: D(   48) --> V(    1) amplitude = -0.4684
    X: D(   48) --> V(    4) amplitude =  0.2295
    X: D(   49) --> V(    2) amplitude =  0.7845

 Excited state   7: excitation energy (eV) =    6.2431
 Total energy for state  7:                 -3010.04471240 au
    Multiplicity: Singlet 
    Trans. Mom.:  0.0000 X  -0.0001 Y  -0.0000 Z
    Strength   :     0.0000000007
    X: D(   46) --> V(    1) amplitude = -0.4831
    X: D(   47) --> V(    1) amplitude =  0.7662
    X: D(   47) --> V(    4) amplitude =  0.3580

 Excited state   8: excitation energy (eV) =    6.4913
 Total energy for state  8:                 -3010.03559096 au
    Multiplicity: Singlet 
    Trans. Mom.:  0.0137 X   1.0410 Y   0.0028 Z
    Strength   :     0.1723877944
    X: D(   45) --> V(    1) amplitude =  0.9268
    X: D(   49) --> V(    2) amplitude =  0.2766

 Excited state   9: excitation energy (eV) =    6.6022
 Total energy for state  9:                 -3010.03151662 au
    Multiplicity: Singlet 
    Trans. Mom.: -0.5764 X   0.0076 Y   0.0135 Z
    Strength   :     0.0537757446
    X: D(   43) --> V(    1) amplitude =  0.4862
    X: D(   48) --> V(    2) amplitude = -0.5146
    X: D(   49) --> V(    4) amplitude =  0.6701

 Excited state  10: excitation energy (eV) =    6.7106
 Total energy for state 10:                 -3010.02753343 au
    Multiplicity: Singlet 
    Trans. Mom.:  0.0002 X   0.0223 Y   0.0001 Z
    Strength   :     0.0000819952
    X: D(   46) --> V(    3) amplitude = -0.4402
    X: D(   47) --> V(    3) amplitude =  0.7762
    X: D(   47) --> V(    5) amplitude = -0.3041

 Excited state  11: excitation energy (eV) =    6.8007
 Total energy for state 11:                 -3010.02422292 au
    Multiplicity: Singlet 
    Trans. Mom.:  1.2666 X  -0.0166 Y  -0.0290 Z
    Strength   :     0.2674962991
    X: D(   43) --> V(    1) amplitude =  0.5442
    X: D(   48) --> V(    2) amplitude =  0.7518
    X: D(   49) --> V(    1) amplitude =  0.2239

 Excited state  12: excitation energy (eV) =    7.1999
 Total energy for state 12:                 -3010.00955174 au
    Multiplicity: Singlet 
    Trans. Mom.: -0.0000 X  -0.0003 Y   0.0002 Z
    Strength   :     0.0000000252
    X: D(   48) --> V(    3) amplitude =  0.9619

 Excited state  13: excitation energy (eV) =    7.2066
 Total energy for state 13:                 -3010.00930650 au
    Multiplicity: Singlet 
    Trans. Mom.:  0.0023 X  -0.0002 Y   0.1021 Z
    Strength   :     0.0018431860
    X: D(   47) --> V(    2) amplitude =  0.9769

 Excited state  14: excitation energy (eV) =    7.2639
 Total energy for state 14:                 -3010.00720091 au
    Multiplicity: Singlet 
    Trans. Mom.:  0.0076 X  -0.0008 Y   0.2824 Z
    Strength   :     0.0142073452
    X: D(   49) --> V(    3) amplitude =  0.2835
    X: D(   49) --> V(    5) amplitude =  0.8794
    X: D(   49) --> V(    8) amplitude =  0.2292

 Excited state  15: excitation energy (eV) =    7.3711
 Total energy for state 15:                 -3010.00326191 au
    Multiplicity: Singlet 
    Trans. Mom.: -0.0002 X  -0.0004 Y   0.0000 Z
    Strength   :     0.0000000368
    X: D(   42) --> V(    1) amplitude =  0.9531

 Excited state  16: excitation energy (eV) =    7.4231
 Total energy for state 16:                 -3010.00134864 au
    Multiplicity: Singlet 
    Trans. Mom.: -0.0103 X  -0.8032 Y  -0.0020 Z
    Strength   :     0.1173350626
    X: D(   43) --> V(    2) amplitude = -0.3292
    X: D(   48) --> V(    4) amplitude =  0.8727
    X: D(   49) --> V(    2) amplitude = -0.3117

 Excited state  17: excitation energy (eV) =    7.5005
 Total energy for state 17:                 -3009.99850494 au
    Multiplicity: Singlet 
    Trans. Mom.:  1.2943 X  -0.0167 Y  -0.0302 Z
    Strength   :     0.3080695445
    X: D(   43) --> V(    1) amplitude = -0.5690
    X: D(   48) --> V(    2) amplitude =  0.3406
    X: D(   49) --> V(    4) amplitude =  0.6807

 Excited state  18: excitation energy (eV) =    7.5603
 Total energy for state 18:                 -3009.99630623 au
    Multiplicity: Singlet 
    Trans. Mom.: -0.0011 X   0.0003 Y  -0.0508 Z
    Strength   :     0.0004782130
    X: D(   46) --> V(    2) amplitude =  0.9807

 Excited state  19: excitation energy (eV) =    7.7018
 Total energy for state 19:                 -3009.99110890 au
    Multiplicity: Singlet 
    Trans. Mom.: -0.0001 X  -0.0001 Y  -0.0000 Z
    Strength   :     0.0000000053
    X: D(   44) --> V(    2) amplitude =  0.9485

 Excited state  20: excitation energy (eV) =    7.7930
 Total energy for state 20:                 -3009.98775698 au
    Multiplicity: Singlet 
    Trans. Mom.: -0.0023 X   0.0003 Y  -0.0996 Z
    Strength   :     0.0018936173
    X: D(   41) --> V(    1) amplitude =  0.7992
    X: D(   41) --> V(    4) amplitude =  0.2335
    X: D(   44) --> V(    4) amplitude =  0.4513

 Excited state  21: excitation energy (eV) =    7.8583
 Total energy for state 21:                 -3009.98535751 au
    Multiplicity: Singlet 
    Trans. Mom.: -0.0003 X  -0.0000 Y  -0.0000 Z
    Strength   :     0.0000000226
    X: D(   44) --> V(    2) amplitude = -0.2295
    X: D(   46) --> V(    1) amplitude =  0.3149
    X: D(   46) --> V(    4) amplitude =  0.7271
    X: D(   47) --> V(    4) amplitude =  0.4898

 Excited state  22: excitation energy (eV) =    7.9375
 Total energy for state 22:                 -3009.98244363 au
    Multiplicity: Singlet 
    Trans. Mom.:  0.0000 X   0.0002 Y   0.0001 Z
    Strength   :     0.0000000088
    X: D(   48) --> V(    5) amplitude =  0.7993
    X: D(   48) --> V(    7) amplitude = -0.3909
    X: D(   49) --> V(    6) amplitude =  0.2851

 Excited state  23: excitation energy (eV) =    8.0180
 Total energy for state 23:                 -3009.97948737 au
    Multiplicity: Singlet 
    Trans. Mom.:  0.0859 X  -0.0011 Y  -0.0021 Z
    Strength   :     0.0014494451
    X: D(   45) --> V(    2) amplitude =  0.9930

 Excited state  24: excitation energy (eV) =    8.0924
 Total energy for state 24:                 -3009.97675119 au
    Multiplicity: Singlet 
    Trans. Mom.: -0.0007 X  -0.0560 Y  -0.0019 Z
    Strength   :     0.0006230661
    X: D(   43) --> V(    2) amplitude = -0.5712
    X: D(   46) --> V(    5) amplitude = -0.3065
    X: D(   47) --> V(    5) amplitude =  0.6134

 Excited state  25: excitation energy (eV) =    8.0992
 Total energy for state 25:                 -3009.97650374 au
    Multiplicity: Singlet 
    Trans. Mom.:  0.0044 X  -0.0005 Y   0.1924 Z
    Strength   :     0.0073522901
    X: D(   43) --> V(    3) amplitude =  0.4118
    X: D(   49) --> V(    7) amplitude =  0.7903

 Excited state  26: excitation energy (eV) =    8.1534
 Total energy for state 26:                 -3009.97451248 au
    Multiplicity: Singlet 
    Trans. Mom.:  0.0018 X   0.0001 Y   0.0843 Z
    Strength   :     0.0014203515
    X: D(   43) --> V(    3) amplitude =  0.6983
    X: D(   43) --> V(    5) amplitude = -0.2715
    X: D(   49) --> V(    7) amplitude = -0.2872
    X: D(   49) --> V(    8) amplitude =  0.3771

 Excited state  27: excitation energy (eV) =    8.1634
 Total energy for state 27:                 -3009.97414427 au
    Multiplicity: Singlet 
    Trans. Mom.: -0.0000 X   0.0007 Y  -0.0008 Z
    Strength   :     0.0000002257
    X: D(   49) --> V(    6) amplitude =  0.9042

 Excited state  28: excitation energy (eV) =    8.1746
 Total energy for state 28:                 -3009.97373271 au
    Multiplicity: Singlet 
    Trans. Mom.:  0.0001 X   0.0007 Y   0.0023 Z
    Strength   :     0.0000011701
    X: D(   41) --> V(    1) amplitude = -0.4602
    X: D(   44) --> V(    1) amplitude =  0.2404
    X: D(   44) --> V(    4) amplitude =  0.7609

 Excited state  29: excitation energy (eV) =    8.2255
 Total energy for state 29:                 -3009.97186057 au
    Multiplicity: Singlet 
    Trans. Mom.: -0.0172 X  -1.3190 Y  -0.0032 Z
    Strength   :     0.3506400968
    X: D(   43) --> V(    2) amplitude =  0.6963
    X: D(   46) --> V(    5) amplitude = -0.2776
    X: D(   47) --> V(    5) amplitude =  0.4308
    X: D(   48) --> V(    4) amplitude =  0.3078

 Excited state  30: excitation energy (eV) =    8.3848
 Total energy for state 30:                 -3009.96600701 au
    Multiplicity: Singlet 
    Trans. Mom.:  0.0057 X  -0.0006 Y   0.2661 Z
    Strength   :     0.0145499021
    X: D(   42) --> V(    2) amplitude =  0.9549

 Excited state  31: excitation energy (eV) =    8.5003
 Total energy for state 31:                 -3009.96176269 au
    Multiplicity: Singlet 
    Trans. Mom.: -0.0064 X   0.0013 Y  -0.4321 Z
    Strength   :     0.0388931524
    X: D(   48) --> V(    6) amplitude =  0.6828
    X: D(   49) --> V(    8) amplitude = -0.5402

 Excited state  32: excitation energy (eV) =    8.5302
 Total energy for state 32:                 -3009.96066398 au
    Multiplicity: Singlet 
    Trans. Mom.:  0.1410 X  -0.0019 Y   0.0131 Z
    Strength   :     0.0041910938
    X: D(   43) --> V(    4) amplitude = -0.2374
    X: D(   49) --> V(    9) amplitude =  0.9115

 Excited state  33: excitation energy (eV) =    8.5719
 Total energy for state 33:                 -3009.95913006 au
    Multiplicity: Singlet 
    Trans. Mom.: -0.0044 X  -0.3313 Y  -0.0014 Z
    Strength   :     0.0230499816
    X: D(   45) --> V(    4) amplitude =  0.8663
    X: D(   46) --> V(    7) amplitude =  0.2284

 Excited state  34: excitation energy (eV) =    8.5851
 Total energy for state 34:                 -3009.95864608 au
    Multiplicity: Singlet 
    Trans. Mom.: -0.0016 X   0.0014 Y  -0.1837 Z
    Strength   :     0.0071024707
    X: D(   48) --> V(    6) amplitude =  0.6273
    X: D(   49) --> V(    5) amplitude = -0.2243
    X: D(   49) --> V(    8) amplitude =  0.5859

 Excited state  35: excitation energy (eV) =    8.5967
 Total energy for state 35:                 -3009.95821946 au
    Multiplicity: Singlet 
    Trans. Mom.: -0.0001 X   0.0009 Y  -0.0003 Z
    Strength   :     0.0000001919
    X: D(   41) --> V(    2) amplitude =  0.3151
    X: D(   46) --> V(    4) amplitude = -0.4629
    X: D(   47) --> V(    1) amplitude = -0.3082
    X: D(   47) --> V(    4) amplitude =  0.6750

 Excited state  36: excitation energy (eV) =    8.6779
 Total energy for state 36:                 -3009.95523464 au
    Multiplicity: Singlet 
    Trans. Mom.: -0.0070 X  -0.5293 Y  -0.0015 Z
    Strength   :     0.0595680056
    X: D(   45) --> V(    4) amplitude =  0.3746
    X: D(   46) --> V(    3) amplitude =  0.4305
    X: D(   46) --> V(    5) amplitude =  0.2939
    X: D(   46) --> V(    7) amplitude = -0.4275
    X: D(   46) --> V(   11) amplitude = -0.2201
    X: D(   47) --> V(    3) amplitude =  0.2707
    X: D(   47) --> V(    7) amplitude = -0.3387

 Excited state  37: excitation energy (eV) =    8.7882
 Total energy for state 37:                 -3009.95118156 au
    Multiplicity: Singlet 
    Trans. Mom.:  0.5363 X  -0.0069 Y  -0.0131 Z
    Strength   :     0.0619692822
    X: D(   40) --> V(    1) amplitude =  0.7789
    X: D(   43) --> V(    4) amplitude = -0.4054
    X: D(   49) --> V(    9) amplitude = -0.2627

 Excited state  38: excitation energy (eV) =    8.7941
 Total energy for state 38:                 -3009.95096717 au
    Multiplicity: Singlet 
    Trans. Mom.: -0.0001 X   0.0002 Y   0.0001 Z
    Strength   :     0.0000000144
    X: D(   41) --> V(    2) amplitude =  0.2346
    X: D(   48) --> V(    5) amplitude = -0.3463
    X: D(   48) --> V(    7) amplitude = -0.3177
    X: D(   48) --> V(    8) amplitude =  0.7641
    X: D(   48) --> V(   16) amplitude = -0.2462

 Excited state  39: excitation energy (eV) =    8.8210
 Total energy for state 39:                 -3009.94997714 au
    Multiplicity: Singlet 
    Trans. Mom.:  0.0000 X  -0.0003 Y   0.0000 Z
    Strength   :     0.0000000145
    X: D(   41) --> V(    2) amplitude =  0.8708
    X: D(   47) --> V(    4) amplitude = -0.2376
    X: D(   48) --> V(    8) amplitude = -0.2155

 Excited state  40: excitation energy (eV) =    8.9890
 Total energy for state 40:                 -3009.94380391 au
    Multiplicity: Singlet 
    Trans. Mom.: -0.0005 X   0.0010 Y   0.0001 Z
    Strength   :     0.0000002964
    X: D(   45) --> V(    3) amplitude = -0.3205
    X: D(   45) --> V(    5) amplitude = -0.2700
    X: D(   45) --> V(    7) amplitude =  0.4145
    X: D(   48) --> V(    7) amplitude =  0.4497
    X: D(   48) --> V(    8) amplitude =  0.2260
    X: D(   49) --> V(   10) amplitude =  0.4459

 Excited state  41: excitation energy (eV) =    9.0160
 Total energy for state 41:                 -3009.94281102 au
    Multiplicity: Singlet 
    Trans. Mom.: -0.0009 X  -0.0013 Y   0.0002 Z
    Strength   :     0.0000005790
    X: D(   48) --> V(    7) amplitude = -0.5286
    X: D(   48) --> V(    8) amplitude = -0.3297
    X: D(   49) --> V(   10) amplitude =  0.6656

 Excited state  42: excitation energy (eV) =    9.0213
 Total energy for state 42:                 -3009.94261731 au
    Multiplicity: Singlet 
    Trans. Mom.:  0.3368 X  -0.0044 Y  -0.0079 Z
    Strength   :     0.0250861496
    X: D(   44) --> V(    3) amplitude = -0.4876
    X: D(   44) --> V(    5) amplitude = -0.3640
    X: D(   44) --> V(    7) amplitude =  0.5682
    X: D(   44) --> V(   11) amplitude =  0.2463
    X: D(   46) --> V(    6) amplitude = -0.2395
    X: D(   47) --> V(    6) amplitude = -0.2216

 Excited state  43: excitation energy (eV) =    9.1334
 Total energy for state 43:                 -3009.93849781 au
    Multiplicity: Singlet 
    Trans. Mom.: -0.2768 X   0.0034 Y   0.0073 Z
    Strength   :     0.0171533486
    X: D(   46) --> V(    6) amplitude = -0.3700
    X: D(   46) --> V(   10) amplitude =  0.2355
    X: D(   47) --> V(    6) amplitude =  0.7123
    X: D(   47) --> V(   10) amplitude = -0.4161

 Excited state  44: excitation energy (eV) =    9.1368
 Total energy for state 44:                 -3009.93837081 au
    Multiplicity: Singlet 
    Trans. Mom.: -0.0016 X  -0.0015 Y  -0.0003 Z
    Strength   :     0.0000011083
    X: D(   45) --> V(    3) amplitude = -0.3526
    X: D(   45) --> V(    5) amplitude = -0.2757
    X: D(   45) --> V(    7) amplitude =  0.5050
    X: D(   45) --> V(   11) amplitude =  0.2321
    X: D(   48) --> V(    7) amplitude = -0.3837
    X: D(   49) --> V(   10) amplitude = -0.3958

 Excited state  45: excitation energy (eV) =    9.1753
 Total energy for state 45:                 -3009.93695729 au
    Multiplicity: Singlet 
    Trans. Mom.: -0.0079 X   0.0009 Y  -0.2783 Z
    Strength   :     0.0174194235
    X: D(   43) --> V(    7) amplitude = -0.2962
    X: D(   49) --> V(   11) amplitude =  0.8630

 Excited state  46: excitation energy (eV) =    9.2320
 Total energy for state 46:                 -3009.93487332 au
    Multiplicity: Singlet 
    Trans. Mom.: -0.0030 X  -0.2192 Y  -0.0006 Z
    Strength   :     0.0108719258
    X: D(   48) --> V(    9) amplitude =  0.8405
    X: D(   48) --> V(   12) amplitude =  0.4398

 Excited state  47: excitation energy (eV) =    9.3362
 Total energy for state 47:                 -3009.93104457 au
    Multiplicity: Singlet 
    Trans. Mom.:  0.0844 X  -0.0010 Y  -0.0017 Z
    Strength   :     0.0016321474
    X: D(   40) --> V(    1) amplitude =  0.3605
    X: D(   43) --> V(    4) amplitude =  0.6254
    X: D(   49) --> V(   12) amplitude =  0.5504

 Excited state  48: excitation energy (eV) =    9.3380
 Total energy for state 48:                 -3009.93097902 au
    Multiplicity: Singlet 
    Trans. Mom.: -0.0009 X  -0.0005 Y   0.0001 Z
    Strength   :     0.0000002336
    X: D(   37) --> V(    1) amplitude = -0.2941
    X: D(   39) --> V(    1) amplitude = -0.5683
    X: D(   42) --> V(    4) amplitude =  0.6524
    X: D(   47) --> V(    9) amplitude =  0.2506

 Excited state  49: excitation energy (eV) =    9.4393
 Total energy for state 49:                 -3009.92725590 au
    Multiplicity: Singlet 
    Trans. Mom.:  0.0061 X   0.2110 Y   0.0007 Z
    Strength   :     0.0103091036
    X: D(   46) --> V(    3) amplitude =  0.5550
    X: D(   46) --> V(    7) amplitude =  0.2342
    X: D(   46) --> V(    8) amplitude = -0.3129
    X: D(   46) --> V(   15) amplitude = -0.2224
    X: D(   47) --> V(    3) amplitude =  0.2707
    X: D(   47) --> V(    7) amplitude =  0.3445
    X: D(   47) --> V(    8) amplitude = -0.4164

 Excited state  50: excitation energy (eV) =    9.4421
 Total energy for state 50:                 -3009.92715383 au
    Multiplicity: Singlet 
    Trans. Mom.:  0.5091 X  -0.0081 Y  -0.0113 Z
    Strength   :     0.0599966638
    X: D(   40) --> V(    1) amplitude = -0.2782
    X: D(   43) --> V(    4) amplitude = -0.4293
    X: D(   43) --> V(    9) amplitude = -0.2547
    X: D(   49) --> V(   12) amplitude =  0.6906

 Excited state  51: excitation energy (eV) =    9.5156
 Total energy for state 51:                 -3009.92445030 au
    Multiplicity: Singlet 
    Trans. Mom.: -0.0005 X  -0.0137 Y   0.0003 Z
    Strength   :     0.0000439814
    X: D(   46) --> V(    9) amplitude = -0.4142
    X: D(   47) --> V(    9) amplitude =  0.7880

 Excited state  52: excitation energy (eV) =    9.5392
 Total energy for state 52:                 -3009.92358354 au
    Multiplicity: Singlet 
    Trans. Mom.:  0.0045 X   0.3069 Y   0.0006 Z
    Strength   :     0.0220139061
    X: D(   46) --> V(    7) amplitude =  0.4255
    X: D(   46) --> V(    8) amplitude = -0.2581
    X: D(   46) --> V(   11) amplitude = -0.2449
    X: D(   47) --> V(    3) amplitude =  0.2776
    X: D(   47) --> V(    7) amplitude = -0.4374
    X: D(   47) --> V(   11) amplitude =  0.5499

 Excited state  53: excitation energy (eV) =    9.5968
 Total energy for state 53:                 -3009.92146853 au
    Multiplicity: Singlet 
    Trans. Mom.:  0.0077 X  -0.0009 Y   0.3341 Z
    Strength   :     0.0262590511
    X: D(   43) --> V(    3) amplitude =  0.2124
    X: D(   43) --> V(    5) amplitude =  0.6759
    X: D(   43) --> V(    8) amplitude =  0.3139
    X: D(   49) --> V(    7) amplitude = -0.3153
    X: D(   49) --> V(   15) amplitude = -0.3494

 Excited state  54: excitation energy (eV) =    9.6418
 Total energy for state 54:                 -3009.91981265 au
    Multiplicity: Singlet 
    Trans. Mom.:  0.0021 X   0.1743 Y   0.0004 Z
    Strength   :     0.0071754279
    X: D(   40) --> V(    2) amplitude = -0.2850
    X: D(   49) --> V(   14) amplitude =  0.8967

 Excited state  55: excitation energy (eV) =    9.7076
 Total energy for state 55:                 -3009.91739675 au
    Multiplicity: Singlet 
    Trans. Mom.:  0.0503 X  -0.0004 Y  -0.0012 Z
    Strength   :     0.0006012568
    X: D(   44) --> V(    7) amplitude =  0.2495
    X: D(   44) --> V(    8) amplitude = -0.2956
    X: D(   46) --> V(    6) amplitude =  0.6173
    X: D(   46) --> V(   10) amplitude =  0.2649
    X: D(   47) --> V(    6) amplitude =  0.3482
    X: D(   47) --> V(   10) amplitude =  0.3307

 Excited state  56: excitation energy (eV) =    9.7599
 Total energy for state 56:                 -3009.91547385 au
    Multiplicity: Singlet 
    Trans. Mom.:  0.0022 X  -0.0001 Y   0.0656 Z
    Strength   :     0.0010301013
    X: D(   43) --> V(    5) amplitude =  0.2794
    X: D(   48) --> V(   10) amplitude =  0.5141
    X: D(   49) --> V(   15) amplitude =  0.4900
    X: D(   49) --> V(   16) amplitude = -0.3054

 Excited state  57: excitation energy (eV) =    9.7639
 Total energy for state 57:                 -3009.91532506 au
    Multiplicity: Singlet 
    Trans. Mom.:  0.1324 X  -0.0017 Y  -0.0029 Z
    Strength   :     0.0041986329
    X: D(   41) --> V(    3) amplitude =  0.2291
    X: D(   44) --> V(    3) amplitude =  0.7291
    X: D(   44) --> V(    7) amplitude =  0.3768
    X: D(   44) --> V(    8) amplitude = -0.2982

 Excited state  58: excitation energy (eV) =    9.7744
 Total energy for state 58:                 -3009.91494077 au
    Multiplicity: Singlet 
    Trans. Mom.: -0.0000 X  -0.0002 Y  -0.0002 Z
    Strength   :     0.0000000180
    X: D(   37) --> V(    1) amplitude = -0.4968
    X: D(   39) --> V(    1) amplitude =  0.6560
    X: D(   42) --> V(    4) amplitude =  0.3618
    X: D(   49) --> V(   13) amplitude = -0.2335

 Excited state  59: excitation energy (eV) =    9.8068
 Total energy for state 59:                 -3009.91374967 au
    Multiplicity: Singlet 
    Trans. Mom.: -0.0043 X   0.0004 Y  -0.1533 Z
    Strength   :     0.0056476013
    X: D(   43) --> V(    5) amplitude = -0.3846
    X: D(   48) --> V(   10) amplitude =  0.6713
    X: D(   48) --> V(   13) amplitude =  0.2214
    X: D(   49) --> V(   15) amplitude = -0.4458

 Excited state  60: excitation energy (eV) =    9.8151
 Total energy for state 60:                 -3009.91344463 au
    Multiplicity: Singlet 
    Trans. Mom.: -0.0003 X  -0.0520 Y  -0.0002 Z
    Strength   :     0.0006498682
    X: D(   42) --> V(    3) amplitude = -0.2176
    X: D(   46) --> V(    3) amplitude =  0.3609
    X: D(   46) --> V(   15) amplitude =  0.2257
    X: D(   47) --> V(    5) amplitude = -0.2928
    X: D(   47) --> V(    8) amplitude =  0.6791
    X: D(   47) --> V(   15) amplitude = -0.2695

 Excited state  61: excitation energy (eV) =    9.8259
 Total energy for state 61:                 -3009.91304857 au
    Multiplicity: Singlet 
    Trans. Mom.: -0.0000 X   0.0003 Y  -0.0015 Z
    Strength   :     0.0000005752
    X: D(   43) --> V(   10) amplitude = -0.2225
    X: D(   49) --> V(   13) amplitude =  0.8522

 Excited state  62: excitation energy (eV) =    9.8601
 Total energy for state 62:                 -3009.91179060 au
    Multiplicity: Singlet 
    Trans. Mom.: -0.0001 X  -0.0003 Y  -0.0001 Z
    Strength   :     0.0000000223
    X: D(   45) --> V(    3) amplitude =  0.7327
    X: D(   45) --> V(    7) amplitude =  0.3169
    X: D(   45) --> V(    8) amplitude = -0.4635
    X: D(   45) --> V(   15) amplitude = -0.2334

 Excited state  63: excitation energy (eV) =    9.8806
 Total energy for state 63:                 -3009.91103650 au
    Multiplicity: Singlet 
    Trans. Mom.:  0.0020 X   0.1630 Y   0.0004 Z
    Strength   :     0.0064348563
    X: D(   44) --> V(    6) amplitude = -0.4234
    X: D(   44) --> V(   10) amplitude = -0.2566
    X: D(   46) --> V(    3) amplitude =  0.3043
    X: D(   46) --> V(    5) amplitude = -0.2369
    X: D(   46) --> V(    8) amplitude =  0.5370
    X: D(   47) --> V(    3) amplitude =  0.2713
    X: D(   47) --> V(   15) amplitude =  0.2604

 Excited state  64: excitation energy (eV) =    9.9153
 Total energy for state 64:                 -3009.90976321 au
    Multiplicity: Singlet 
    Trans. Mom.: -0.0044 X   0.0005 Y  -0.1865 Z
    Strength   :     0.0084539753
    X: D(   36) --> V(    1) amplitude = -0.4208
    X: D(   38) --> V(    1) amplitude = -0.3003
    X: D(   39) --> V(    2) amplitude =  0.2173
    X: D(   41) --> V(    4) amplitude =  0.7185

 Excited state  65: excitation energy (eV) =    9.9628
 Total energy for state 65:                 -3009.90801827 au
    Multiplicity: Singlet 
    Trans. Mom.: -0.0011 X  -0.0481 Y  -0.0001 Z
    Strength   :     0.0005658022
    X: D(   40) --> V(    2) amplitude =  0.6043
    X: D(   42) --> V(    3) amplitude =  0.6231
    X: D(   49) --> V(   14) amplitude =  0.2540

 Excited state  66: excitation energy (eV) =   10.0227
 Total energy for state 66:                 -3009.90581566 au
    Multiplicity: Singlet 
    Trans. Mom.:  0.3794 X  -0.0045 Y  -0.0091 Z
    Strength   :     0.0353618542
    X: D(   48) --> V(   14) amplitude =  0.8968

 Excited state  67: excitation energy (eV) =   10.0274
[...]
    e-/hole pair  2:  ampl =  0.6353   (40.7 %)
    e-/hole pair  3:  ampl =  0.3098   ( 9.7 %)
  These amplitudes account for 97.3 % of total amplitude

  Excited state 49:   9.4393 eV (singlet)
    e-/hole pair  1:  ampl =  0.9366   (88.0 %)
    e-/hole pair  2:  ampl =  0.2844   ( 8.1 %)
  These amplitudes account for 96.1 % of total amplitude

  Excited state 50:   9.4421 eV (singlet)
    e-/hole pair  1:  ampl =  0.7242   (52.5 %)
    e-/hole pair  2:  ampl =  0.5394   (29.1 %)
    e-/hole pair  3:  ampl =  0.3043   ( 9.3 %)
    e-/hole pair  4:  ampl =  0.2541   ( 6.5 %)
  These amplitudes account for 97.3 % of total amplitude

  Excited state 51:   9.5156 eV (singlet)
    e-/hole pair  1:  ampl =  0.9550   (91.2 %)
    e-/hole pair  2:  ampl =  0.2348   ( 5.5 %)
    e-/hole pair  3:  ampl =  0.1521   ( 2.3 %)
  These amplitudes account for 99.1 % of total amplitude

  Excited state 52:   9.5392 eV (singlet)
    e-/hole pair  1:  ampl =  0.9403   (88.7 %)
    e-/hole pair  2:  ampl =  0.2860   ( 8.2 %)
  These amplitudes account for 96.9 % of total amplitude

  Excited state 53:   9.5968 eV (singlet)
    e-/hole pair  1:  ampl =  0.8155   (66.5 %)
    e-/hole pair  2:  ampl =  0.5094   (25.9 %)
    e-/hole pair  3:  ampl =  0.2113   ( 4.5 %)
  These amplitudes account for 96.9 % of total amplitude

  Excited state 54:   9.6418 eV (singlet)
    e-/hole pair  1:  ampl =  0.9088   (82.5 %)
    e-/hole pair  2:  ampl =  0.2855   ( 8.1 %)
    e-/hole pair  3:  ampl =  0.2334   ( 5.4 %)
  These amplitudes account for 96.0 % of total amplitude

  Excited state 55:   9.7076 eV (singlet)
    e-/hole pair  1:  ampl =  0.8373   (70.2 %)
    e-/hole pair  2:  ampl =  0.5055   (25.6 %)
  These amplitudes account for 95.8 % of total amplitude

  Excited state 56:   9.7599 eV (singlet)
    e-/hole pair  1:  ampl =  0.6452   (41.7 %)
    e-/hole pair  2:  ampl =  0.5655   (32.0 %)
    e-/hole pair  3:  ampl =  0.3927   (15.4 %)
    e-/hole pair  4:  ampl =  0.1913   ( 3.7 %)
    e-/hole pair  5:  ampl =  0.1773   ( 3.1 %)
  These amplitudes account for 96.0 % of total amplitude

  Excited state 57:   9.7639 eV (singlet)
    e-/hole pair  1:  ampl =  0.9334   (87.7 %)
    e-/hole pair  2:  ampl =  0.2070   ( 4.3 %)
  These amplitudes account for 92.0 % of total amplitude

  Excited state 58:   9.7744 eV (singlet)
    e-/hole pair  1:  ampl =  0.8487   (72.6 %)
    e-/hole pair  2:  ampl =  0.4281   (18.5 %)
    e-/hole pair  3:  ampl =  0.2527   ( 6.4 %)
  These amplitudes account for 97.5 % of total amplitude

  Excited state 59:   9.8068 eV (singlet)
    e-/hole pair  1:  ampl =  0.7161   (51.3 %)
    e-/hole pair  2:  ampl =  0.5222   (27.3 %)
    e-/hole pair  3:  ampl =  0.4396   (19.3 %)
  These amplitudes account for 98.0 % of total amplitude

  Excited state 60:   9.8151 eV (singlet)
    e-/hole pair  1:  ampl =  0.8966   (80.4 %)
    e-/hole pair  2:  ampl =  0.4053   (16.4 %)
  These amplitudes account for 96.8 % of total amplitude

  Excited state 61:   9.8259 eV (singlet)
    e-/hole pair  1:  ampl =  0.9115   (83.3 %)
    e-/hole pair  2:  ampl =  0.2592   ( 6.7 %)
    e-/hole pair  3:  ampl =  0.2216   ( 4.9 %)
  These amplitudes account for 94.9 % of total amplitude

  Excited state 62:   9.8601 eV (singlet)
    e-/hole pair  1:  ampl =  0.9808   (96.2 %)
    e-/hole pair  2:  ampl =  0.1517   ( 2.3 %)
  These amplitudes account for 98.5 % of total amplitude

  Excited state 63:   9.8806 eV (singlet)
    e-/hole pair  1:  ampl =  0.7515   (56.6 %)
    e-/hole pair  2:  ampl =  0.5159   (26.7 %)
    e-/hole pair  3:  ampl =  0.3165   (10.0 %)
    e-/hole pair  4:  ampl =  0.1871   ( 3.5 %)
  These amplitudes account for 96.8 % of total amplitude

  Excited state 64:   9.9153 eV (singlet)
    e-/hole pair  1:  ampl =  0.7718   (60.4 %)
    e-/hole pair  2:  ampl =  0.5051   (25.9 %)
    e-/hole pair  3:  ampl =  0.2366   ( 5.7 %)
    e-/hole pair  4:  ampl =  0.2365   ( 5.7 %)
  These amplitudes account for 97.6 % of total amplitude

  Excited state 65:   9.9628 eV (singlet)
    e-/hole pair  1:  ampl =  0.6680   (45.5 %)
    e-/hole pair  2:  ampl =  0.5884   (35.3 %)
    e-/hole pair  3:  ampl =  0.2521   ( 6.5 %)
    e-/hole pair  4:  ampl =  0.2336   ( 5.6 %)
    e-/hole pair  5:  ampl =  0.1939   ( 3.8 %)
  These amplitudes account for 96.7 % of total amplitude

  Excited state 66:  10.0227 eV (singlet)
    e-/hole pair  1:  ampl =  0.9005   (80.7 %)
    e-/hole pair  2:  ampl =  0.2482   ( 6.1 %)
    e-/hole pair  3:  ampl =  0.1899   ( 3.6 %)
    e-/hole pair  4:  ampl =  0.1722   ( 3.0 %)
    e-/hole pair  5:  ampl =  0.1671   ( 2.8 %)
  These amplitudes account for 96.2 % of total amplitude

  Excited state 67:  10.0274 eV (singlet)
    e-/hole pair  1:  ampl =  0.6507   (43.4 %)
    e-/hole pair  2:  ampl =  0.6233   (39.8 %)
    e-/hole pair  3:  ampl =  0.2205   ( 5.0 %)
    e-/hole pair  4:  ampl =  0.1904   ( 3.7 %)
    e-/hole pair  5:  ampl =  0.1672   ( 2.9 %)
    e-/hole pair  6:  ampl =  0.1542   ( 2.4 %)
  These amplitudes account for 97.3 % of total amplitude

  Excited state 68:  10.0533 eV (singlet)
    e-/hole pair  1:  ampl =  0.9159   (83.9 %)
    e-/hole pair  2:  ampl =  0.3287   (10.8 %)
  These amplitudes account for 94.7 % of total amplitude

  Excited state 69:  10.0554 eV (singlet)
    e-/hole pair  1:  ampl =  0.9683   (93.6 %)
    e-/hole pair  2:  ampl =  0.1857   ( 3.4 %)
  These amplitudes account for 97.0 % of total amplitude

  Excited state 70:  10.0754 eV (singlet)
    e-/hole pair  1:  ampl =  0.8515   (72.7 %)
    e-/hole pair  2:  ampl =  0.3567   (12.8 %)
    e-/hole pair  3:  ampl =  0.2848   ( 8.1 %)
    e-/hole pair  4:  ampl =  0.2175   ( 4.7 %)
  These amplitudes account for 98.3 % of total amplitude

  Excited state 71:  10.1001 eV (singlet)
    e-/hole pair  1:  ampl =  0.8488   (72.1 %)
    e-/hole pair  2:  ampl =  0.3833   (14.7 %)
    e-/hole pair  3:  ampl =  0.2478   ( 6.1 %)
    e-/hole pair  4:  ampl =  0.1647   ( 2.7 %)
  These amplitudes account for 95.6 % of total amplitude

  Excited state 72:  10.1186 eV (singlet)
    e-/hole pair  1:  ampl =  0.8820   (77.7 %)
    e-/hole pair  2:  ampl =  0.3859   (14.9 %)
    e-/hole pair  3:  ampl =  0.1808   ( 3.3 %)
  These amplitudes account for 95.8 % of total amplitude

  Excited state 73:  10.1582 eV (singlet)
    e-/hole pair  1:  ampl =  0.9766   (95.3 %)
    e-/hole pair  2:  ampl =  0.1600   ( 2.6 %)
  These amplitudes account for 97.9 % of total amplitude

  Excited state 74:  10.1867 eV (singlet)
    e-/hole pair  1:  ampl =  0.9031   (81.7 %)
    e-/hole pair  2:  ampl =  0.3374   (11.4 %)
    e-/hole pair  3:  ampl =  0.1625   ( 2.6 %)
    e-/hole pair  4:  ampl =  0.1547   ( 2.4 %)
  These amplitudes account for 98.1 % of total amplitude

  Excited state 75:  10.1958 eV (singlet)
    e-/hole pair  1:  ampl =  0.8311   (69.7 %)
    e-/hole pair  2:  ampl =  0.4690   (22.2 %)
    e-/hole pair  3:  ampl =  0.1882   ( 3.6 %)
    e-/hole pair  4:  ampl =  0.1511   ( 2.3 %)
  These amplitudes account for 97.7 % of total amplitude

  Excited state 76:  10.2161 eV (singlet)
    e-/hole pair  1:  ampl =  0.8180   (68.0 %)
    e-/hole pair  2:  ampl =  0.5280   (28.3 %)
  These amplitudes account for 96.3 % of total amplitude

  Excited state 77:  10.2502 eV (singlet)
    e-/hole pair  1:  ampl =  0.7253   (52.8 %)
    e-/hole pair  2:  ampl =  0.6594   (43.6 %)
  These amplitudes account for 96.4 % of total amplitude

  Excited state 78:  10.2920 eV (singlet)
    e-/hole pair  1:  ampl =  0.5979   (36.4 %)
    e-/hole pair  2:  ampl =  0.5162   (27.1 %)
    e-/hole pair  3:  ampl =  0.4014   (16.4 %)
    e-/hole pair  4:  ampl =  0.2592   ( 6.8 %)
    e-/hole pair  5:  ampl =  0.2336   ( 5.6 %)
    e-/hole pair  6:  ampl =  0.1973   ( 4.0 %)
  These amplitudes account for 96.4 % of total amplitude

  Excited state 79:  10.3621 eV (singlet)
    e-/hole pair  1:  ampl =  0.8360   (70.1 %)
    e-/hole pair  2:  ampl =  0.3569   (12.8 %)
    e-/hole pair  3:  ampl =  0.2975   ( 8.9 %)
    e-/hole pair  4:  ampl =  0.1810   ( 3.3 %)
  These amplitudes account for 95.0 % of total amplitude

  Excited state 80:  10.3791 eV (singlet)
    e-/hole pair  1:  ampl =  0.8415   (70.8 %)
    e-/hole pair  2:  ampl =  0.4964   (24.6 %)
    e-/hole pair  3:  ampl =  0.1506   ( 2.3 %)
  These amplitudes account for 97.7 % of total amplitude

  Excited state 81:  10.4316 eV (singlet)
    e-/hole pair  1:  ampl =  0.9732   (94.8 %)
    e-/hole pair  2:  ampl =  0.1601   ( 2.6 %)
  These amplitudes account for 97.4 % of total amplitude

  Excited state 82:  10.4412 eV (singlet)
    e-/hole pair  1:  ampl =  0.6495   (42.3 %)
    e-/hole pair  2:  ampl =  0.6155   (38.0 %)
    e-/hole pair  3:  ampl =  0.2950   ( 8.7 %)
    e-/hole pair  4:  ampl =  0.2263   ( 5.1 %)
    e-/hole pair  5:  ampl =  0.1701   ( 2.9 %)
  These amplitudes account for 97.0 % of total amplitude

  Excited state 83:  10.4415 eV (singlet)
    e-/hole pair  1:  ampl =  0.7847   (61.5 %)
    e-/hole pair  2:  ampl =  0.4516   (20.4 %)
    e-/hole pair  3:  ampl =  0.3254   (10.6 %)
    e-/hole pair  4:  ampl =  0.2629   ( 6.9 %)
  These amplitudes account for 99.4 % of total amplitude

  Excited state 84:  10.4438 eV (singlet)
    e-/hole pair  1:  ampl =  0.8146   (66.8 %)
    e-/hole pair  2:  ampl =  0.4398   (19.5 %)
    e-/hole pair  3:  ampl =  0.3076   ( 9.5 %)
  These amplitudes account for 95.8 % of total amplitude

  Excited state 85:  10.4511 eV (singlet)
    e-/hole pair  1:  ampl =  0.7507   (56.4 %)
    e-/hole pair  2:  ampl =  0.5149   (26.5 %)
    e-/hole pair  3:  ampl =  0.3773   (14.2 %)
    e-/hole pair  4:  ampl =  0.1592   ( 2.5 %)
  These amplitudes account for 99.7 % of total amplitude

  Excited state 86:  10.5148 eV (singlet)
    e-/hole pair  1:  ampl =  0.9424   (88.8 %)
    e-/hole pair  2:  ampl =  0.2929   ( 8.6 %)
  These amplitudes account for 97.4 % of total amplitude

  Excited state 87:  10.5535 eV (singlet)
    e-/hole pair  1:  ampl =  0.9493   (90.2 %)
    e-/hole pair  2:  ampl =  0.2149   ( 4.6 %)
    e-/hole pair  3:  ampl =  0.1769   ( 3.1 %)
  These amplitudes account for 98.0 % of total amplitude

  Excited state 88:  10.5791 eV (singlet)
    e-/hole pair  1:  ampl =  0.8681   (75.5 %)
    e-/hole pair  2:  ampl =  0.3753   (14.1 %)
    e-/hole pair  3:  ampl =  0.2425   ( 5.9 %)
    e-/hole pair  4:  ampl =  0.1540   ( 2.4 %)
  These amplitudes account for 97.8 % of total amplitude

  Excited state 89:  10.5899 eV (singlet)
    e-/hole pair  1:  ampl =  0.6032   (36.7 %)
    e-/hole pair  2:  ampl =  0.5620   (31.9 %)
    e-/hole pair  3:  ampl =  0.3576   (12.9 %)
    e-/hole pair  4:  ampl =  0.2697   ( 7.3 %)
    e-/hole pair  5:  ampl =  0.2365   ( 5.6 %)
    e-/hole pair  6:  ampl =  0.1661   ( 2.8 %)
  These amplitudes account for 97.3 % of total amplitude

  Excited state 90:  10.6434 eV (singlet)
    e-/hole pair  1:  ampl =  0.9246   (85.5 %)
    e-/hole pair  2:  ampl =  0.3073   ( 9.4 %)
    e-/hole pair  3:  ampl =  0.1631   ( 2.7 %)
  These amplitudes account for 97.6 % of total amplitude

  Excited state 91:  10.6490 eV (singlet)
    e-/hole pair  1:  ampl =  0.9157   (83.9 %)
    e-/hole pair  2:  ampl =  0.3108   ( 9.7 %)
    e-/hole pair  3:  ampl =  0.1531   ( 2.3 %)
  These amplitudes account for 96.0 % of total amplitude

  Excited state 92:  10.7250 eV (singlet)
    e-/hole pair  1:  ampl =  0.8051   (64.8 %)
    e-/hole pair  2:  ampl =  0.4396   (19.3 %)
    e-/hole pair  3:  ampl =  0.2873   ( 8.3 %)
    e-/hole pair  4:  ampl =  0.2545   ( 6.5 %)
  These amplitudes account for 98.9 % of total amplitude

  Excited state 93:  10.7427 eV (singlet)
    e-/hole pair  1:  ampl =  0.9047   (82.1 %)
    e-/hole pair  2:  ampl =  0.3166   (10.1 %)
    e-/hole pair  3:  ampl =  0.1800   ( 3.3 %)
  These amplitudes account for 95.4 % of total amplitude

  Excited state 94:  10.7430 eV (singlet)
    e-/hole pair  1:  ampl =  0.8512   (74.0 %)
    e-/hole pair  2:  ampl =  0.3661   (13.7 %)
    e-/hole pair  3:  ampl =  0.2111   ( 4.6 %)
  These amplitudes account for 92.3 % of total amplitude

  Excited state 95:  10.7597 eV (singlet)
    e-/hole pair  1:  ampl =  0.7508   (56.9 %)
    e-/hole pair  2:  ampl =  0.4985   (25.1 %)
    e-/hole pair  3:  ampl =  0.2556   ( 6.6 %)
    e-/hole pair  4:  ampl =  0.2405   ( 5.8 %)
  These amplitudes account for 94.3 % of total amplitude

  Excited state 96:  10.7921 eV (singlet)
    e-/hole pair  1:  ampl =  0.9528   (90.6 %)
    e-/hole pair  2:  ampl =  0.1944   ( 3.8 %)
  These amplitudes account for 94.4 % of total amplitude

  Excited state 97:  10.8044 eV (singlet)
    e-/hole pair  1:  ampl =  0.9342   (87.4 %)
    e-/hole pair  2:  ampl =  0.1966   ( 3.9 %)
    e-/hole pair  3:  ampl =  0.1633   ( 2.7 %)
    e-/hole pair  4:  ampl =  0.1577   ( 2.5 %)
  These amplitudes account for 96.5 % of total amplitude

  Excited state 98:  10.8178 eV (singlet)
    e-/hole pair  1:  ampl =  0.6086   (37.1 %)
    e-/hole pair  2:  ampl =  0.6052   (36.7 %)
    e-/hole pair  3:  ampl =  0.3600   (13.0 %)
    e-/hole pair  4:  ampl =  0.3135   ( 9.8 %)
    e-/hole pair  5:  ampl =  0.1654   ( 2.7 %)
  These amplitudes account for 99.3 % of total amplitude

  Excited state 99:  10.8318 eV (singlet)
    e-/hole pair  1:  ampl =  0.7610   (58.2 %)
    e-/hole pair  2:  ampl =  0.4830   (23.4 %)
    e-/hole pair  3:  ampl =  0.2819   ( 8.0 %)
    e-/hole pair  4:  ampl =  0.2034   ( 4.2 %)
  These amplitudes account for 93.8 % of total amplitude

  Excited state 100:  10.8713 eV (singlet)
    e-/hole pair  1:  ampl =  0.9790   (95.8 %)
  These amplitudes account for 95.8 % of total amplitude

 =======================================================
 
 --------------------------------------------------------------
 
                    Orbital Energies (a.u.)
 --------------------------------------------------------------
 
 Alpha MOs
 -- Occupied --
******** -62.6796 -56.4755 -56.4715 -56.4714 -19.2958 -19.2958 -14.6941
-10.3838 -10.3716 -10.3384 -10.3384 -10.3352 -10.3352  -8.8378  -6.6613
 -6.6479  -6.6476  -2.7614  -2.7576  -2.7573  -2.7466  -2.7464  -1.3644
 -1.1852  -1.0267  -0.9584  -0.9008  -0.8930  -0.8010  -0.7566  -0.7098
 -0.6771  -0.6531  -0.6283  -0.5974  -0.5920  -0.5770  -0.5593  -0.5164
 -0.4842  -0.4811  -0.4315  -0.4156  -0.4147  -0.4023  -0.3945  -0.3782
 -0.3540
 -- Virtual --
 -0.0412   0.0146   0.0387   0.0453   0.0511   0.0685   0.0783   0.0911
  0.0959   0.0993   0.1124   0.1241   0.1267   0.1318   0.1330   0.1464
  0.1656   0.1764   0.1806   0.1811   0.1840   0.1920   0.1925   0.2005
  0.2065   0.2110   0.2342   0.2365   0.2389   0.2394   0.2484   0.2518
  0.2541   0.2634   0.2639   0.2773   0.2845   0.2922   0.2994   0.3064
  0.3216   0.3314   0.3337   0.3346   0.3418   0.3582   0.3691   0.3809
  0.3915   0.4018   0.4269   0.4548   0.4696   0.4830   0.4845   0.4933
  0.5047   0.5175   0.5371   0.5581   0.5753   0.5769   0.5813   0.5862
  0.6104   0.6328   0.6352   0.6366   0.6607   0.6610   0.6711   0.6743
  0.7027   0.7079   0.7301   0.7456   0.7575   0.7735   0.7900   0.7958
  0.7967   0.8395   0.8774   0.8932   0.8938   0.9184   0.9343   0.9378
  0.9449   0.9610   0.9735   1.0242   1.0422   1.0455   1.0501   1.1039
  1.1089   1.1349   1.1365   1.1846   1.2228   1.2347   1.2571   1.2621
  1.2625   1.2869   1.2962   1.3248   1.3324   1.3925   1.4068   1.4755
  1.5601   1.5797   1.5975   1.6580   1.7457   1.7476   1.7650   1.7820
  1.8352   1.8489   1.8868   1.8938   1.9303   1.9516   1.9668   1.9822
  2.0542   2.0630   2.0886   2.1114   2.1875   2.2078   2.2129   2.2576
  2.2944   2.3893   2.3925   2.3968   2.4415   2.4482   2.4835   2.5493
  2.6299   2.7047   2.7081   2.7426   2.8183   2.8252   2.8646   2.8946
  2.9220   2.9490   2.9552   2.9673   2.9735   3.1238   3.1314   3.1982
  3.2496   3.3400   3.3401   3.3835   3.3961   3.4419   3.4754   3.4906
  3.5617   3.7006   3.7074   3.7808   3.7823   3.8953   3.9129   4.0416
  4.0857   4.1033   4.1575   4.1775   4.3371   4.4975   4.6372   4.7993
  4.8545   5.0888   5.1206   5.1970   5.2704   5.8296   6.3752   6.8284
  7.6501   7.7632   7.8310  23.4035  23.9485  23.9534  24.1310  24.1605
 24.2541  35.5400  48.0912  50.0304  50.1472 289.9872 290.1018 290.1948
********
 --------------------------------------------------------------
 
          Ground-State Mulliken Net Atomic Charges

     Atom                 Charge (a.u.)
  ----------------------------------------
      1 C                    -0.783536
      2 C                     0.269632
      3 C                    -0.622570
      4 C                     0.874525
      5 H                     0.286589
      6 H                     0.294579
      7 N                    -0.132704
      8 O                    -0.027108
      9 O                    -0.027117
     10 C                    -0.785332
     11 H                     0.286627
     12 C                     0.268636
     13 H                     0.294544
     14 Br                   -0.196766
  ----------------------------------------
  Sum of atomic charges =     0.000000

 -----------------------------------------------------------------
                    Cartesian Multipole Moments
 -----------------------------------------------------------------
    Charge (ESU x 10^10)
                 0.0000
    Dipole Moment (Debye)
         X      -3.2944      Y       0.0438      Z       0.0769
       Tot       3.2956
    Quadrupole Moments (Debye-Ang)
        XX     -87.2379     XY       0.2105     YY     -63.8595
        XZ       0.3545     YZ       0.0131     ZZ     -70.7118
    Octopole Moments (Debye-Ang^2)
       XXX     -78.1534    XXY      -1.6509    XYY      -7.1224
       YYY      -5.1881    XXZ       1.4023    XYZ      -0.0536
       YYZ      -0.3815    XZZ       7.2062    YZZ      -2.1108
       ZZZ      -2.3267
    Hexadecapole Moments (Debye-Ang^3)
      XXXX   -2712.7697   XXXY      13.1832   XXYY    -510.0645
      XYYY      14.7094   YYYY    -356.9272   XXXZ      32.9992
      XXYZ      -0.3745   XYYZ       9.7988   YYYZ      -0.6776
      XXZZ    -420.9016   XYZZ       4.5866   YYZZ     -85.5255
      XZZZ      27.6986   YZZZ      -0.8816   ZZZZ     -77.6058
 -----------------------------------------------------------------
Grid information in Angstroms:
 x:         75  min =  -6.192707 max =   6.487237
 y:         75  min =  -5.128604 max =   5.191810
 z:         75  min =  -3.075020 max =   3.082725
 Plotting NTOs for the following states:  1 2 3 4 5 6 7 8 9 10 11 12 13 14 15 16 17 18 19 20 21 22 23 24 25 26 27 28 29 30 31 32 33 34 35 36 37 38 39 40 41 42 43 44 45 46 47 48 49 50 51 52 53 54 55 56 57 58 59 60 61 62 63 64 65 66 67 68 69 70 71 72 73 74 75 76 77 78 79 80 81 82 83 84 85 86 87 88 89 90 91 92 93 94 95 96 97 98 99 100
 Created directory /local_scratch/16808488/QCLOCALSCR/save/plots
 Plotting total densities:  0 1 2 3 4 5 6 7 8 9 10 11 12 13 14 15 16 17 18 19 20 21 22 23 24 25 26 27 28 29 30 31 32 33 34 35 36 37 38 39 40 41 42 43 44 45 46 47 48 49 50 51 52 53 54 55 56 57 58 59 60 61 62 63 64 65 66 67 68 69 70 71 72 73 74 75 76 77 78 79 80 81 82 83 84 85 86 87 88 89 90 91 92 93 94 95 96 97 98 99 100
 Plotting transition densities:  1 2 3 4 5 6 7 8 9 10 11 12 13 14 15 16 17 18 19 20 21 22 23 24 25 26 27 28 29 30 31 32 33 34 35 36 37 38 39 40 41 42 43 44 45 46 47 48 49 50 51 52 53 54 55 56 57 58 59 60 61 62 63 64 65 66 67 68 69 70 71 72 73 74 75 76 77 78 79 80 81 82 83 84 85 86 87 88 89 90 91 92 93 94 95 96 97 98 99 100
 Total job time:  1263.19s(wall), 12948.62s(cpu) 
 Mon May 22 13:13:21 2023

        *************************************************************
        *                                                           *
        *  Thank you very much for using Q-Chem.  Have a nice day.  *
        *                                                           *
        *************************************************************


