 Entering Gaussian System, Link 0=g16
 Initial command:
 /software/gaussian/g16-c01/sse4/g16/l1.exe "/local_scratch/24665337/Gau-5150.inp" -scrdir="/local_scratch/24665337/"
 Entering Link 1 = /software/gaussian/g16-c01/sse4/g16/l1.exe PID=      5176.
  
 Copyright (c) 1988-2019, Gaussian, Inc.  All Rights Reserved.
  
 This is part of the Gaussian(R) 16 program.  It is based on
 the Gaussian(R) 09 system (copyright 2009, Gaussian, Inc.),
 the Gaussian(R) 03 system (copyright 2003, Gaussian, Inc.),
 the Gaussian(R) 98 system (copyright 1998, Gaussian, Inc.),
 the Gaussian(R) 94 system (copyright 1995, Gaussian, Inc.),
 the Gaussian 92(TM) system (copyright 1992, Gaussian, Inc.),
 the Gaussian 90(TM) system (copyright 1990, Gaussian, Inc.),
 the Gaussian 88(TM) system (copyright 1988, Gaussian, Inc.),
 the Gaussian 86(TM) system (copyright 1986, Carnegie Mellon
 University), and the Gaussian 82(TM) system (copyright 1983,
 Carnegie Mellon University). Gaussian is a federally registered
 trademark of Gaussian, Inc.
  
 This software contains proprietary and confidential information,
 including trade secrets, belonging to Gaussian, Inc.
  
 This software is provided under written license and may be
 used, copied, transmitted, or stored only in accord with that
 written license.
  
 The following legend is applicable only to US Government
 contracts under FAR:
  
                    RESTRICTED RIGHTS LEGEND
  
 Use, reproduction and disclosure by the US Government is
 subject to restrictions as set forth in subparagraphs (a)
 and (c) of the Commercial Computer Software - Restricted
 Rights clause in FAR 52.227-19.
  
 Gaussian, Inc.
 340 Quinnipiac St., Bldg. 40, Wallingford CT 06492
  
  
 ---------------------------------------------------------------
 Warning -- This program may not be used in any manner that
 competes with the business of Gaussian, Inc. or will provide
 assistance to any competitor of Gaussian, Inc.  The licensee
 of this program is prohibited from giving any competitor of
 Gaussian, Inc. access to this program.  By using this program,
 the user acknowledges that Gaussian, Inc. is engaged in the
 business of creating and licensing software in the field of
 computational chemistry and represents and warrants to the
 licensee that it is not a competitor of Gaussian, Inc. and that
 it will not use this program in any manner prohibited above.
 ---------------------------------------------------------------
  

 Cite this work as:
 Gaussian 16, Revision C.01,
 M. J. Frisch, G. W. Trucks, H. B. Schlegel, G. E. Scuseria, 
 M. A. Robb, J. R. Cheeseman, G. Scalmani, V. Barone, 
 G. A. Petersson, H. Nakatsuji, X. Li, M. Caricato, A. V. Marenich, 
 J. Bloino, B. G. Janesko, R. Gomperts, B. Mennucci, H. P. Hratchian, 
 J. V. Ortiz, A. F. Izmaylov, J. L. Sonnenberg, D. Williams-Young, 
 F. Ding, F. Lipparini, F. Egidi, J. Goings, B. Peng, A. Petrone, 
 T. Henderson, D. Ranasinghe, V. G. Zakrzewski, J. Gao, N. Rega, 
 G. Zheng, W. Liang, M. Hada, M. Ehara, K. Toyota, R. Fukuda, 
 J. Hasegawa, M. Ishida, T. Nakajima, Y. Honda, O. Kitao, H. Nakai, 
 T. Vreven, K. Throssell, J. A. Montgomery, Jr., J. E. Peralta, 
 F. Ogliaro, M. J. Bearpark, J. J. Heyd, E. N. Brothers, K. N. Kudin, 
 V. N. Staroverov, T. A. Keith, R. Kobayashi, J. Normand, 
 K. Raghavachari, A. P. Rendell, J. C. Burant, S. S. Iyengar, 
 J. Tomasi, M. Cossi, J. M. Millam, M. Klene, C. Adamo, R. Cammi, 
 J. W. Ochterski, R. L. Martin, K. Morokuma, O. Farkas, 
 J. B. Foresman, and D. J. Fox, Gaussian, Inc., Wallingford CT, 2019.
 
 ******************************************
 Gaussian 16:  ES64L-G16RevC.01  3-Jul-2019
                 2-May-2024 
 ******************************************
 %chk=geometry.chk
 %mem=1GB
 %nprocshared=12
 Will use up to   12 processors via shared memory.
 ----------------------------------------
 #P wB97XD/6-311+G* NoSymm #P Field=Y+136
 ----------------------------------------
 1/38=1,172=1/1;
 2/12=2,15=1,17=6,18=5,40=1/2;
 3/5=4,6=6,7=11,11=2,14=2,15=136,25=1,30=1,74=-58/1,2,3;
 4//1;
 5/5=2,38=5/2;
 6/7=2,8=2,9=2,10=2,28=1/1;
 99/5=1,9=1/99;
 Leave Link    1 at Thu May  2 13:57:44 2024, MaxMem=   134217728 cpu:               1.7 elap:               1.7
 (Enter /software/gaussian/g16-c01/sse4/g16/l101.exe)
 -------
 TitleMe
 -------
 Symbolic Z-matrix:
 Charge =  1 Multiplicity = 1
 C                     0.5193    1.233    -0.0319 
 C                     1.9445    1.2692   -0.0367 
 C                     2.6204    0.0928   -0.025 
 C                    -0.196     0.0301    0.001 
 H                    -0.0207    2.1742   -0.0434 
 H                     2.4828    2.2089   -0.0361 
 H                    -1.2777    0.0399    0.0117 
 N                     4.0921    0.0959    0.0366 
 O                     4.6393   -1.0217    0.1446 
 O                     4.6649    1.1984   -0.0233 
 C                     0.4943   -1.1671    0.021 
 H                    -0.0325   -2.1149    0.0545 
 C                     1.9629   -1.2165   -0.0211 
 H                     2.4436   -1.9631    0.6151 
 Br                    2.173    -1.9491   -1.9062 
 
 ITRead=  0  0  0  0  0  0  0  0  0  0  0  0  0  0  0
 MicOpt= -1 -1 -1 -1 -1 -1 -1 -1 -1 -1 -1 -1 -1 -1 -1
 NAtoms=     15 NQM=       15 NQMF=       0 NMMI=      0 NMMIF=      0
                NMic=       0 NMicF=      0.
                    Isotopes and Nuclear Properties:
 (Nuclear quadrupole moments (NQMom) in fm**2, nuclear magnetic moments (NMagM)
  in nuclear magnetons)

  Atom         1           2           3           4           5           6           7           8           9          10
 IAtWgt=          12          12          12          12           1           1           1          14          16          16
 AtmWgt=  12.0000000  12.0000000  12.0000000  12.0000000   1.0078250   1.0078250   1.0078250  14.0030740  15.9949146  15.9949146
 NucSpn=           0           0           0           0           1           1           1           2           0           0
 AtZEff=  -0.0000000  -0.0000000  -0.0000000  -0.0000000  -0.0000000  -0.0000000  -0.0000000  -0.0000000  -0.0000000  -0.0000000
 NQMom=    0.0000000   0.0000000   0.0000000   0.0000000   0.0000000   0.0000000   0.0000000   2.0440000   0.0000000   0.0000000
 NMagM=    0.0000000   0.0000000   0.0000000   0.0000000   2.7928460   2.7928460   2.7928460   0.4037610   0.0000000   0.0000000
 AtZNuc=   6.0000000   6.0000000   6.0000000   6.0000000   1.0000000   1.0000000   1.0000000   7.0000000   8.0000000   8.0000000

  Atom        11          12          13          14          15
 IAtWgt=          12           1          12           1          79
 AtmWgt=  12.0000000   1.0078250  12.0000000   1.0078250  78.9183361
 NucSpn=           0           1           0           1           3
 AtZEff=  -0.0000000  -0.0000000  -0.0000000  -0.0000000  -0.0000000
 NQMom=    0.0000000   0.0000000   0.0000000   0.0000000  31.3000000
 NMagM=    0.0000000   2.7928460   0.0000000   2.7928460   2.1063990
 AtZNuc=   6.0000000   1.0000000   6.0000000   1.0000000  35.0000000
 Leave Link  101 at Thu May  2 13:57:45 2024, MaxMem=   134217728 cpu:               1.7 elap:               1.7
 (Enter /software/gaussian/g16-c01/sse4/g16/l202.exe)
                          Input orientation:                          
 ---------------------------------------------------------------------
 Center     Atomic      Atomic             Coordinates (Angstroms)
 Number     Number       Type             X           Y           Z
 ---------------------------------------------------------------------
      1          6           0        0.519300    1.233000   -0.031900
      2          6           0        1.944500    1.269200   -0.036700
      3          6           0        2.620400    0.092800   -0.025000
      4          6           0       -0.196000    0.030100    0.001000
      5          1           0       -0.020700    2.174200   -0.043400
      6          1           0        2.482800    2.208900   -0.036100
      7          1           0       -1.277700    0.039900    0.011700
      8          7           0        4.092100    0.095900    0.036600
      9          8           0        4.639300   -1.021700    0.144600
     10          8           0        4.664900    1.198400   -0.023300
     11          6           0        0.494300   -1.167100    0.021000
     12          1           0       -0.032500   -2.114900    0.054500
     13          6           0        1.962900   -1.216500   -0.021100
     14          1           0        2.443600   -1.963100    0.615100
     15         35           0        2.173000   -1.949100   -1.906200
 ---------------------------------------------------------------------
                    Distance matrix (angstroms):
                    1          2          3          4          5
     1  C    0.000000
     2  C    1.425668   0.000000
     3  C    2.390549   1.356796   0.000000
     4  C    1.399895   2.473566   2.817218   0.000000
     5  H    1.085168   2.163581   3.362733   2.151712   0.000000
     6  H    2.192654   1.082960   2.120598   3.453189   2.503751
     7  H    2.157452   3.449071   3.898632   1.081797   2.477564
     8  N    3.750012   2.448304   1.472992   4.288753   4.608780
     9  O    4.699917   3.541615   2.312322   4.950458   5.653735
    10  O    4.145753   2.721354   2.324292   4.999386   4.786171
    11  C    2.400813   2.835836   2.471794   1.382101   3.381369
    12  H    3.394169   3.920329   3.452266   2.151887   4.290233
    13  C    2.843264   2.485817   1.465124   2.493060   3.928360
    14  H    3.786370   3.334922   2.160489   3.364142   4.860416
    15  Br   4.046416   3.728900   2.812194   3.628609   5.028314
                    6          7          8          9         10
     6  H    0.000000
     7  H    4.341452   0.000000
     8  N    2.657047   5.370150   0.000000
     9  O    3.888434   6.012948   1.249048   0.000000
    10  O    2.404752   6.054572   1.243863   2.226587   0.000000
    11  C    3.918516   2.144043   3.813080   4.149391   4.794941
    12  H    5.003018   2.489080   4.679774   4.798846   5.748876
    13  C    3.464662   3.475788   2.501842   2.688591   3.623886
    14  H    4.222698   4.268978   2.700314   2.434893   3.916224
    15  Br   4.569706   4.420610   3.411663   3.338935   4.434144
                   11         12         13         14         15
    11  C    0.000000
    12  H    1.084880   0.000000
    13  C    1.470034   2.189625   0.000000
    14  H    2.187771   2.543302   1.092353   0.000000
    15  Br   2.672762   2.955683   2.033334   2.535818   0.000000
 Symmetry turned off by external request.
 Stoichiometry    C6H5BrNO2(1+)
 Framework group  C1[X(C6H5BrNO2)]
 Deg. of freedom    39
 Full point group                 C1      NOp   1
 Rotational constants (GHZ):           1.1632986           0.9594224           0.5957624
 Leave Link  202 at Thu May  2 13:57:46 2024, MaxMem=   134217728 cpu:               1.2 elap:               1.2
 (Enter /software/gaussian/g16-c01/sse4/g16/l301.exe)
 Standard basis: 6-311+G(d) (5D, 7F)
 Ernie: Thresh=  0.10000D-02 Tol=  0.10000D-05 Strict=F.
 The following finite field(s) will be applied:
 An electric field of              0.0000  0.0136  0.0000
   261 basis functions,   443 primitive gaussians,   273 cartesian basis functions
    49 alpha electrons       49 beta electrons
       nuclear repulsion energy       772.8945969580 Hartrees.
 IExCor= 4639 DFT=T Ex+Corr=wB97XD ExCW=0 ScaHFX=  1.000000
 ScaDFX=  1.000000  1.000000  1.000000  1.000000 ScalE2=  1.000000  1.000000
 IRadAn=      5 IRanWt=     -1 IRanGd=            0 ICorTp=0 IEmpDi=121
 HFx  wShort=  0.000000 wLong=  0.200000 cFull=  0.222036 cShort=  0.000000 cLong=  0.777964
 DFx  wShort=  0.000000 wLong=  0.200000 cFull=  0.000000 cShort=  0.000000 cLong=  1.000000
 NAtoms=   15 NActive=   15 NUniq=   15 SFac= 1.00D+00 NAtFMM=   60 NAOKFM=F Big=F
 Integral buffers will be    131072 words long.
 Raffenetti 2 integral format.
 Two-electron integral symmetry is turned off.
 R6Disp:  Grimme-D2 Dispersion energy=       -0.0080346408 Hartrees.
 Nuclear repulsion after empirical dispersion term =      772.8865623173 Hartrees.
 Leave Link  301 at Thu May  2 13:57:48 2024, MaxMem=   134217728 cpu:               1.1 elap:               1.1
 (Enter /software/gaussian/g16-c01/sse4/g16/l302.exe)
 NPDir=0 NMtPBC=     1 NCelOv=     1 NCel=       1 NClECP=     1 NCelD=      1
         NCelK=      1 NCelE2=     1 NClLst=     1 CellRange=     0.0.
 One-electron integrals computed using PRISM.
 NBasis=   261 RedAO= T EigKep=  2.52D-06  NBF=   261
 NBsUse=   261 1.00D-06 EigRej= -1.00D+00 NBFU=   261
 Precomputing XC quadrature grid using
 IXCGrd= 4 IRadAn=           5 IRanWt=          -1 IRanGd=           0 AccXCQ= 0.00D+00.
 Generated NRdTot=       0 NPtTot=           0 NUsed=           0 NTot=          32
 NSgBfM=   273   273   273   273   273 MxSgAt=    15 MxSgA2=    15.
 Leave Link  302 at Thu May  2 13:58:09 2024, MaxMem=   134217728 cpu:              21.9 elap:              21.9
 (Enter /software/gaussian/g16-c01/sse4/g16/l303.exe)
 DipDrv:  MaxL=1.
 The nuclear repulsion energy is now       771.2330168850 hartrees.
 Leave Link  303 at Thu May  2 13:58:13 2024, MaxMem=   134217728 cpu:               3.3 elap:               3.3
 (Enter /software/gaussian/g16-c01/sse4/g16/l401.exe)
 ExpMin= 3.50D-02 ExpMax= 4.40D+05 ExpMxC= 1.51D+04 IAcc=3 IRadAn=         5 AccDes= 0.00D+00
 Harris functional with IExCor= 4639 and IRadAn=       5 diagonalized for initial guess.
 HarFok:  IExCor= 4639 AccDes= 0.00D+00 IRadAn=         5 IDoV= 1 UseB2=F ITyADJ=14
 ICtDFT=  3500011 ScaDFX=  1.000000  1.000000  1.000000  1.000000
 FoFCou: FMM=F IPFlag=           0 FMFlag=      100000 FMFlg1=           0
         NFxFlg=           0 DoJE=T BraDBF=F KetDBF=T FulRan=T
         wScrn=  0.000000 ICntrl=       500 IOpCl=  0 I1Cent=   200000004 NGrid=           0
         NMat0=    1 NMatS0=      1 NMatT0=    0 NMatD0=    1 NMtDS0=    0 NMtDT0=    0
 Symmetry not used in FoFCou.
 Harris En= -2970.63570767892    
 JPrj=0 DoOrth=F DoCkMO=F.
 Leave Link  401 at Thu May  2 13:58:44 2024, MaxMem=   134217728 cpu:              31.4 elap:              31.5
 (Enter /software/gaussian/g16-c01/sse4/g16/l502.exe)
 Two-electron integral symmetry not used.
 Closed shell SCF:
 Using DIIS extrapolation, IDIIS=  1040.
 NGot=   134217728 LenX=   134063053 LenY=   133988083
 Requested convergence on RMS density matrix=1.00D-08 within 128 cycles.
 Requested convergence on MAX density matrix=1.00D-06.
 Requested convergence on             energy=1.00D-06.
 No special actions if energy rises.
 Fock matrices will be formed incrementally for  20 cycles.

 Cycle   1  Pass 1  IDiag  1:
 FoFJK:  IHMeth= 1 ICntrl=       0 DoSepK=T KAlg= 0 I1Cent=           0 FoldK=F
 IRaf=         1 NMat=       1 IRICut=       1 DoRegI=T DoRafI=F ISym2E= 0 IDoP0=0 IntGTp=1.
 FoFCou: FMM=F IPFlag=           0 FMFlag=      100000 FMFlg1=           0
         NFxFlg=           0 DoJE=T BraDBF=F KetDBF=F FulRan=T
         wScrn=  0.000000 ICntrl=       500 IOpCl=  0 I1Cent=           0 NGrid=           0
         NMat0=    1 NMatS0=      1 NMatT0=    0 NMatD0=    1 NMtDS0=    0 NMtDT0=    0
 Symmetry not used in FoFCou.
 E= -3009.63631328471    
 DIIS: error= 2.90D-01 at cycle   1 NSaved=   1.
 NSaved= 1 IEnMin= 1 EnMin= -3009.63631328471     IErMin= 1 ErrMin= 2.90D-01
 ErrMax= 2.90D-01  0.00D+00 EMaxC= 1.00D-01 BMatC= 1.21D+01 BMatP= 1.21D+01
 IDIUse=3 WtCom= 0.00D+00 WtEn= 1.00D+00
 Coeff-Com:  0.100D+01
 Coeff-En:   0.100D+01
 Coeff:      0.100D+01
 Gap=     0.400 Goal=   None    Shift=    0.000
 GapD=    0.400 DampG=2.000 DampE=0.250 DampFc=0.5000 IDamp=-1.
 Damping current iteration by 5.00D-01
 RMSDP=9.09D-02 MaxDP=1.09D+01              OVMax= 3.27D-01

 Cycle   2  Pass 1  IDiag  1:
 RMSU=  2.01D-02    CP:  7.22D-01
 E= -3010.05580000192     Delta-E=       -0.419486717217 Rises=F Damp=T
 DIIS: error= 1.47D-01 at cycle   2 NSaved=   2.
 NSaved= 2 IEnMin= 2 EnMin= -3010.05580000192     IErMin= 2 ErrMin= 1.47D-01
 ErrMax= 1.47D-01  0.00D+00 EMaxC= 1.00D-01 BMatC= 1.78D+00 BMatP= 1.21D+01
 IDIUse=3 WtCom= 0.00D+00 WtEn= 1.00D+00
 Coeff-Com: -0.391D+00 0.139D+01
 Coeff-En:   0.113D-01 0.989D+00
 Coeff:      0.113D-01 0.989D+00
 Gap=     0.323 Goal=   None    Shift=    0.000
 RMSDP=4.95D-02 MaxDP=5.54D+00 DE=-4.19D-01 OVMax= 2.67D-01

 Cycle   3  Pass 1  IDiag  1:
 RMSU=  1.29D-02    CP:  3.97D-01  1.21D+00
 E= -3010.45368705990     Delta-E=       -0.397887057974 Rises=F Damp=F
 DIIS: error= 3.64D-02 at cycle   3 NSaved=   3.
 NSaved= 3 IEnMin= 3 EnMin= -3010.45368705990     IErMin= 3 ErrMin= 3.64D-02
 ErrMax= 3.64D-02  0.00D+00 EMaxC= 1.00D-01 BMatC= 1.45D-01 BMatP= 1.78D+00
 IDIUse=3 WtCom= 6.36D-01 WtEn= 3.64D-01
 Coeff-Com: -0.534D-01 0.248D+00 0.806D+00
 Coeff-En:   0.000D+00 0.000D+00 0.100D+01
 Coeff:     -0.340D-01 0.158D+00 0.876D+00
 Gap=     0.272 Goal=   None    Shift=    0.000
 RMSDP=2.08D-02 MaxDP=2.71D+00 DE=-3.98D-01 OVMax= 2.52D-01

 Cycle   4  Pass 1  IDiag  1:
 RMSU=  1.24D-02    CP:  4.38D-01  1.96D+00  6.64D-01
 E= -3010.31154027340     Delta-E=        0.142146786498 Rises=F Damp=F
 DIIS: error= 7.16D-02 at cycle   4 NSaved=   4.
 NSaved= 4 IEnMin= 3 EnMin= -3010.45368705990     IErMin= 3 ErrMin= 3.64D-02
 ErrMax= 7.16D-02  0.00D+00 EMaxC= 1.00D-01 BMatC= 3.33D-01 BMatP= 1.45D-01
 IDIUse=2 WtCom= 0.00D+00 WtEn= 1.00D+00
 Coeff-En:   0.000D+00 0.000D+00 0.673D+00 0.327D+00
 Coeff:      0.000D+00 0.000D+00 0.673D+00 0.327D+00
 Gap=     0.260 Goal=   None    Shift=    0.000
 RMSDP=1.03D-02 MaxDP=1.27D+00 DE= 1.42D-01 OVMax= 1.68D-01

 Cycle   5  Pass 1  IDiag  1:
 RMSU=  2.21D-03    CP:  4.12D-01  1.65D+00  9.12D-01  5.11D-01
 E= -3010.54019052081     Delta-E=       -0.228650247408 Rises=F Damp=F
 DIIS: error= 8.98D-03 at cycle   5 NSaved=   5.
 NSaved= 5 IEnMin= 5 EnMin= -3010.54019052081     IErMin= 5 ErrMin= 8.98D-03
 ErrMax= 8.98D-03  0.00D+00 EMaxC= 1.00D-01 BMatC= 9.96D-03 BMatP= 1.45D-01
 IDIUse=3 WtCom= 9.10D-01 WtEn= 8.98D-02
 Coeff-Com:  0.476D-02-0.302D-02 0.256D+00 0.534D-01 0.689D+00
 Coeff-En:   0.000D+00 0.000D+00 0.362D-01 0.000D+00 0.964D+00
 Coeff:      0.433D-02-0.275D-02 0.236D+00 0.486D-01 0.713D+00
 Gap=     0.236 Goal=   None    Shift=    0.000
 RMSDP=2.73D-03 MaxDP=3.17D-01 DE=-2.29D-01 OVMax= 2.42D-02

 Cycle   6  Pass 1  IDiag  1:
 RMSU=  8.03D-04    CP:  4.00D-01  1.58D+00  9.64D-01  4.24D-01  1.00D+00
 E= -3010.54692657908     Delta-E=       -0.006736058271 Rises=F Damp=F
 DIIS: error= 1.59D-03 at cycle   6 NSaved=   6.
 NSaved= 6 IEnMin= 6 EnMin= -3010.54692657908     IErMin= 6 ErrMin= 1.59D-03
 ErrMax= 1.59D-03  0.00D+00 EMaxC= 1.00D-01 BMatC= 5.33D-04 BMatP= 9.96D-03
 IDIUse=3 WtCom= 9.84D-01 WtEn= 1.59D-02
 Coeff-Com: -0.929D-03 0.221D-02 0.318D-01-0.252D-01 0.345D+00 0.647D+00
 Coeff-En:   0.000D+00 0.000D+00 0.000D+00 0.000D+00 0.000D+00 0.100D+01
 Coeff:     -0.915D-03 0.218D-02 0.313D-01-0.248D-01 0.339D+00 0.653D+00
 Gap=     0.235 Goal=   None    Shift=    0.000
 RMSDP=7.67D-04 MaxDP=1.01D-01 DE=-6.74D-03 OVMax= 4.70D-03

 Cycle   7  Pass 1  IDiag  1:
 RMSU=  2.49D-04    CP:  4.02D-01  1.61D+00  9.58D-01  4.40D-01  1.14D+00
                    CP:  1.12D+00
 E= -3010.54737273824     Delta-E=       -0.000446159160 Rises=F Damp=F
 DIIS: error= 4.44D-04 at cycle   7 NSaved=   7.
 NSaved= 7 IEnMin= 7 EnMin= -3010.54737273824     IErMin= 7 ErrMin= 4.44D-04
 ErrMax= 4.44D-04  0.00D+00 EMaxC= 1.00D-01 BMatC= 3.14D-05 BMatP= 5.33D-04
 IDIUse=3 WtCom= 9.96D-01 WtEn= 4.44D-03
 Coeff-Com: -0.787D-03 0.135D-02-0.116D-02-0.155D-01 0.109D+00 0.295D+00
 Coeff-Com:  0.613D+00
 Coeff-En:   0.000D+00 0.000D+00 0.000D+00 0.000D+00 0.000D+00 0.000D+00
 Coeff-En:   0.100D+01
 Coeff:     -0.783D-03 0.134D-02-0.116D-02-0.154D-01 0.108D+00 0.294D+00
 Coeff:      0.614D+00
 Gap=     0.237 Goal=   None    Shift=    0.000
 RMSDP=2.59D-04 MaxDP=2.93D-02 DE=-4.46D-04 OVMax= 3.12D-03

 Cycle   8  Pass 1  IDiag  1:
 RMSU=  1.11D-04    CP:  4.00D-01  1.61D+00  9.59D-01  4.40D-01  1.17D+00
                    CP:  1.20D+00  7.56D-01
 E= -3010.54741517570     Delta-E=       -0.000042437463 Rises=F Damp=F
 DIIS: error= 1.93D-04 at cycle   8 NSaved=   8.
 NSaved= 8 IEnMin= 8 EnMin= -3010.54741517570     IErMin= 8 ErrMin= 1.93D-04
 ErrMax= 1.93D-04  0.00D+00 EMaxC= 1.00D-01 BMatC= 4.83D-06 BMatP= 3.14D-05
 IDIUse=3 WtCom= 9.98D-01 WtEn= 1.93D-03
 Coeff-Com:  0.136D-03-0.477D-03-0.768D-02-0.118D-02-0.382D-01-0.560D-01
 Coeff-Com:  0.205D+00 0.898D+00
 Coeff-En:   0.000D+00 0.000D+00 0.000D+00 0.000D+00 0.000D+00 0.000D+00
 Coeff-En:   0.000D+00 0.100D+01
 Coeff:      0.136D-03-0.476D-03-0.766D-02-0.117D-02-0.381D-01-0.559D-01
 Coeff:      0.205D+00 0.898D+00
 Gap=     0.237 Goal=   None    Shift=    0.000
 RMSDP=1.28D-04 MaxDP=5.89D-03 DE=-4.24D-05 OVMax= 2.56D-03

 Cycle   9  Pass 1  IDiag  1:
 RMSU=  5.14D-05    CP:  4.00D-01  1.61D+00  9.62D-01  4.39D-01  1.21D+00
                    CP:  1.28D+00  8.88D-01  1.19D+00
 E= -3010.54743158534     Delta-E=       -0.000016409642 Rises=F Damp=F
 DIIS: error= 3.71D-05 at cycle   9 NSaved=   9.
 NSaved= 9 IEnMin= 9 EnMin= -3010.54743158534     IErMin= 9 ErrMin= 3.71D-05
 ErrMax= 3.71D-05  0.00D+00 EMaxC= 1.00D-01 BMatC= 7.75D-07 BMatP= 4.83D-06
 IDIUse=1 WtCom= 1.00D+00 WtEn= 0.00D+00
 Coeff-Com:  0.206D-03-0.444D-03-0.226D-02 0.262D-02-0.334D-01-0.730D-01
 Coeff-Com: -0.183D-01 0.313D+00 0.812D+00
 Coeff:      0.206D-03-0.444D-03-0.226D-02 0.262D-02-0.334D-01-0.730D-01
 Coeff:     -0.183D-01 0.313D+00 0.812D+00
 Gap=     0.237 Goal=   None    Shift=    0.000
 RMSDP=4.79D-05 MaxDP=1.83D-03 DE=-1.64D-05 OVMax= 1.68D-03

 Cycle  10  Pass 1  IDiag  1:
 RMSU=  1.75D-05    CP:  4.00D-01  1.61D+00  9.63D-01  4.39D-01  1.22D+00
                    CP:  1.31D+00  9.32D-01  1.30D+00  1.47D+00
 E= -3010.54743609116     Delta-E=       -0.000004505814 Rises=F Damp=F
 DIIS: error= 2.06D-05 at cycle  10 NSaved=  10.
 NSaved=10 IEnMin=10 EnMin= -3010.54743609116     IErMin=10 ErrMin= 2.06D-05
 ErrMax= 2.06D-05  0.00D+00 EMaxC= 1.00D-01 BMatC= 1.93D-07 BMatP= 7.75D-07
 IDIUse=1 WtCom= 1.00D+00 WtEn= 0.00D+00
 Coeff-Com: -0.450D-04 0.138D-03 0.131D-02 0.759D-03 0.363D-02 0.305D-02
 Coeff-Com: -0.571D-01-0.192D+00 0.170D+00 0.107D+01
 Coeff:     -0.450D-04 0.138D-03 0.131D-02 0.759D-03 0.363D-02 0.305D-02
 Coeff:     -0.571D-01-0.192D+00 0.170D+00 0.107D+01
 Gap=     0.237 Goal=   None    Shift=    0.000
 RMSDP=3.68D-05 MaxDP=2.12D-03 DE=-4.51D-06 OVMax= 1.45D-03

 Cycle  11  Pass 1  IDiag  1:
 RMSU=  1.27D-05    CP:  4.00D-01  1.61D+00  9.63D-01  4.39D-01  1.22D+00
                    CP:  1.32D+00  9.43D-01  1.42D+00  1.88D+00  1.61D+00
 E= -3010.54743792015     Delta-E=       -0.000001828997 Rises=F Damp=F
 DIIS: error= 1.06D-05 at cycle  11 NSaved=  11.
 NSaved=11 IEnMin=11 EnMin= -3010.54743792015     IErMin=11 ErrMin= 1.06D-05
 ErrMax= 1.06D-05  0.00D+00 EMaxC= 1.00D-01 BMatC= 5.09D-08 BMatP= 1.93D-07
 IDIUse=1 WtCom= 1.00D+00 WtEn= 0.00D+00
 Coeff-Com: -0.467D-04 0.119D-03 0.112D-02-0.380D-03 0.952D-02 0.183D-01
 Coeff-Com: -0.111D-01-0.135D+00-0.159D+00 0.346D+00 0.931D+00
 Coeff:     -0.467D-04 0.119D-03 0.112D-02-0.380D-03 0.952D-02 0.183D-01
 Coeff:     -0.111D-01-0.135D+00-0.159D+00 0.346D+00 0.931D+00
 Gap=     0.237 Goal=   None    Shift=    0.000
 RMSDP=1.73D-05 MaxDP=1.35D-03 DE=-1.83D-06 OVMax= 7.63D-04

 Cycle  12  Pass 1  IDiag  1:
 RMSU=  6.19D-06    CP:  4.00D-01  1.61D+00  9.63D-01  4.39D-01  1.22D+00
                    CP:  1.32D+00  9.47D-01  1.44D+00  2.05D+00  2.04D+00
                    CP:  1.17D+00
 E= -3010.54743831715     Delta-E=       -0.000000396994 Rises=F Damp=F
 DIIS: error= 8.51D-06 at cycle  12 NSaved=  12.
 NSaved=12 IEnMin=12 EnMin= -3010.54743831715     IErMin=12 ErrMin= 8.51D-06
 ErrMax= 8.51D-06  0.00D+00 EMaxC= 1.00D-01 BMatC= 1.33D-08 BMatP= 5.09D-08
 IDIUse=1 WtCom= 1.00D+00 WtEn= 0.00D+00
 Coeff-Com:  0.920D-05-0.184D-04 0.156D-03-0.281D-03 0.192D-02 0.352D-02
 Coeff-Com:  0.114D-01 0.549D-02-0.966D-01-0.154D+00 0.315D+00 0.914D+00
 Coeff:      0.920D-05-0.184D-04 0.156D-03-0.281D-03 0.192D-02 0.352D-02
 Coeff:      0.114D-01 0.549D-02-0.966D-01-0.154D+00 0.315D+00 0.914D+00
 Gap=     0.236 Goal=   None    Shift=    0.000
 RMSDP=1.20D-05 MaxDP=1.05D-03 DE=-3.97D-07 OVMax= 3.50D-04

 Cycle  13  Pass 1  IDiag  1:
 RMSU=  3.63D-06    CP:  4.00D-01  1.61D+00  9.63D-01  4.39D-01  1.22D+00
                    CP:  1.32D+00  9.52D-01  1.43D+00  2.16D+00  2.28D+00
                    CP:  1.32D+00  1.29D+00
 E= -3010.54743839232     Delta-E=       -0.000000075172 Rises=F Damp=F
 DIIS: error= 2.00D-06 at cycle  13 NSaved=  13.
 NSaved=13 IEnMin=13 EnMin= -3010.54743839232     IErMin=13 ErrMin= 2.00D-06
 ErrMax= 2.00D-06  0.00D+00 EMaxC= 1.00D-01 BMatC= 1.23D-09 BMatP= 1.33D-08
 IDIUse=1 WtCom= 1.00D+00 WtEn= 0.00D+00
 Coeff-Com:  0.820D-05-0.211D-04-0.188D-03 0.573D-04-0.160D-02-0.300D-02
 Coeff-Com:  0.397D-02 0.235D-01 0.231D-01-0.726D-01-0.144D+00 0.397D-01
 Coeff-Com:  0.113D+01
 Coeff:      0.820D-05-0.211D-04-0.188D-03 0.573D-04-0.160D-02-0.300D-02
 Coeff:      0.397D-02 0.235D-01 0.231D-01-0.726D-01-0.144D+00 0.397D-01
 Coeff:      0.113D+01
 Gap=     0.236 Goal=   None    Shift=    0.000
 RMSDP=5.88D-06 MaxDP=5.77D-04 DE=-7.52D-08 OVMax= 1.30D-04

 Cycle  14  Pass 1  IDiag  1:
 RMSU=  1.22D-06    CP:  4.00D-01  1.61D+00  9.64D-01  4.39D-01  1.22D+00
                    CP:  1.32D+00  9.54D-01  1.43D+00  2.19D+00  2.39D+00
                    CP:  1.27D+00  1.60D+00  1.52D+00
 E= -3010.54743840264     Delta-E=       -0.000000010324 Rises=F Damp=F
 DIIS: error= 1.33D-06 at cycle  14 NSaved=  14.
 NSaved=14 IEnMin=14 EnMin= -3010.54743840264     IErMin=14 ErrMin= 1.33D-06
 ErrMax= 1.33D-06  0.00D+00 EMaxC= 1.00D-01 BMatC= 3.87D-10 BMatP= 1.23D-09
 IDIUse=1 WtCom= 1.00D+00 WtEn= 0.00D+00
 Coeff-Com: -0.243D-05 0.273D-05-0.961D-04 0.454D-04-0.586D-03-0.778D-03
 Coeff-Com: -0.991D-04 0.324D-02 0.185D-01 0.394D-02-0.728D-01-0.116D+00
 Coeff-Com:  0.312D+00 0.853D+00
 Coeff:     -0.243D-05 0.273D-05-0.961D-04 0.454D-04-0.586D-03-0.778D-03
 Coeff:     -0.991D-04 0.324D-02 0.185D-01 0.394D-02-0.728D-01-0.116D+00
 Coeff:      0.312D+00 0.853D+00
 Gap=     0.236 Goal=   None    Shift=    0.000
 RMSDP=1.48D-06 MaxDP=1.40D-04 DE=-1.03D-08 OVMax= 2.90D-05

 Cycle  15  Pass 1  IDiag  1:
 RMSU=  3.41D-07    CP:  4.00D-01  1.61D+00  9.64D-01  4.39D-01  1.22D+00
                    CP:  1.32D+00  9.54D-01  1.42D+00  2.20D+00  2.41D+00
                    CP:  1.26D+00  1.66D+00  1.70D+00  1.22D+00
 E= -3010.54743840382     Delta-E=       -0.000000001173 Rises=F Damp=F
 DIIS: error= 3.89D-07 at cycle  15 NSaved=  15.
 NSaved=15 IEnMin=15 EnMin= -3010.54743840382     IErMin=15 ErrMin= 3.89D-07
 ErrMax= 3.89D-07  0.00D+00 EMaxC= 1.00D-01 BMatC= 5.25D-11 BMatP= 3.87D-10
 IDIUse=1 WtCom= 1.00D+00 WtEn= 0.00D+00
 Coeff-Com: -0.181D-05 0.379D-05-0.601D-06 0.955D-05 0.607D-04 0.203D-03
 Coeff-Com: -0.652D-03-0.278D-02 0.118D-02 0.116D-01 0.946D-02-0.364D-01
 Coeff-Com: -0.140D+00 0.180D+00 0.978D+00
 Coeff:     -0.181D-05 0.379D-05-0.601D-06 0.955D-05 0.607D-04 0.203D-03
 Coeff:     -0.652D-03-0.278D-02 0.118D-02 0.116D-01 0.946D-02-0.364D-01
 Coeff:     -0.140D+00 0.180D+00 0.978D+00
 Gap=     0.236 Goal=   None    Shift=    0.000
 RMSDP=8.90D-07 MaxDP=7.52D-05 DE=-1.17D-09 OVMax= 1.56D-05

 Cycle  16  Pass 1  IDiag  1:
 RMSU=  1.56D-07    CP:  4.00D-01  1.61D+00  9.64D-01  4.39D-01  1.22D+00
                    CP:  1.32D+00  9.54D-01  1.42D+00  2.20D+00  2.42D+00
                    CP:  1.24D+00  1.69D+00  1.80D+00  1.34D+00  1.52D+00
 E= -3010.54743840405     Delta-E=       -0.000000000236 Rises=F Damp=F
 DIIS: error= 1.28D-07 at cycle  16 NSaved=  16.
 NSaved=16 IEnMin=16 EnMin= -3010.54743840405     IErMin=16 ErrMin= 1.28D-07
 ErrMax= 1.28D-07  0.00D+00 EMaxC= 1.00D-01 BMatC= 5.07D-12 BMatP= 5.25D-11
 IDIUse=1 WtCom= 1.00D+00 WtEn= 0.00D+00
 Coeff-Com:  0.381D-06-0.510D-06 0.113D-04-0.462D-05 0.562D-04 0.484D-04
 Coeff-Com:  0.313D-04-0.544D-04-0.219D-02-0.127D-02 0.770D-02 0.119D-01
 Coeff-Com: -0.249D-01-0.108D+00-0.564D-01 0.117D+01
 Coeff:      0.381D-06-0.510D-06 0.113D-04-0.462D-05 0.562D-04 0.484D-04
 Coeff:      0.313D-04-0.544D-04-0.219D-02-0.127D-02 0.770D-02 0.119D-01
 Coeff:     -0.249D-01-0.108D+00-0.564D-01 0.117D+01
 Gap=     0.236 Goal=   None    Shift=    0.000
 RMSDP=2.05D-07 MaxDP=1.53D-05 DE=-2.36D-10 OVMax= 8.13D-06

 Cycle  17  Pass 1  IDiag  1:
 RMSU=  6.10D-08    CP:  4.00D-01  1.61D+00  9.64D-01  4.39D-01  1.22D+00
                    CP:  1.32D+00  9.54D-01  1.42D+00  2.20D+00  2.42D+00
                    CP:  1.24D+00  1.70D+00  1.82D+00  1.38D+00  1.75D+00
                    CP:  1.48D+00
 E= -3010.54743840412     Delta-E=       -0.000000000065 Rises=F Damp=F
 DIIS: error= 7.14D-08 at cycle  17 NSaved=  17.
 NSaved=17 IEnMin=17 EnMin= -3010.54743840412     IErMin=17 ErrMin= 7.14D-08
 ErrMax= 7.14D-08  0.00D+00 EMaxC= 1.00D-01 BMatC= 1.48D-12 BMatP= 5.07D-12
 IDIUse=1 WtCom= 1.00D+00 WtEn= 0.00D+00
 Coeff-Com:  0.282D-06-0.531D-06 0.244D-05-0.267D-05 0.229D-05-0.253D-04
 Coeff-Com:  0.107D-03 0.432D-03-0.540D-03-0.178D-02-0.473D-03 0.663D-02
 Coeff-Com:  0.267D-01-0.462D-01-0.180D+00 0.166D+00 0.103D+01
 Coeff:      0.282D-06-0.531D-06 0.244D-05-0.267D-05 0.229D-05-0.253D-04
 Coeff:      0.107D-03 0.432D-03-0.540D-03-0.178D-02-0.473D-03 0.663D-02
 Coeff:      0.267D-01-0.462D-01-0.180D+00 0.166D+00 0.103D+01
 Gap=     0.236 Goal=   None    Shift=    0.000
 RMSDP=1.14D-07 MaxDP=1.48D-05 DE=-6.55D-11 OVMax= 3.72D-06

 Cycle  18  Pass 1  IDiag  1:
 RMSU=  2.45D-08    CP:  4.00D-01  1.61D+00  9.64D-01  4.39D-01  1.22D+00
                    CP:  1.32D+00  9.54D-01  1.42D+00  2.20D+00  2.42D+00
                    CP:  1.24D+00  1.70D+00  1.82D+00  1.36D+00  1.85D+00
                    CP:  1.70D+00  1.62D+00
 E= -3010.54743840412     Delta-E=       -0.000000000003 Rises=F Damp=F
 DIIS: error= 2.94D-08 at cycle  18 NSaved=  18.
 NSaved=18 IEnMin=18 EnMin= -3010.54743840412     IErMin=18 ErrMin= 2.94D-08
 ErrMax= 2.94D-08  0.00D+00 EMaxC= 1.00D-01 BMatC= 4.68D-13 BMatP= 1.48D-12
 IDIUse=1 WtCom= 1.00D+00 WtEn= 0.00D+00
 Coeff-Com:  0.693D-08-0.799D-07-0.285D-05 0.999D-06-0.210D-04-0.359D-04
 Coeff-Com:  0.215D-04 0.202D-03 0.645D-03-0.110D-03-0.325D-02-0.296D-02
 Coeff-Com:  0.187D-01 0.159D-01-0.451D-01-0.331D+00 0.292D+00 0.105D+01
 Coeff:      0.693D-08-0.799D-07-0.285D-05 0.999D-06-0.210D-04-0.359D-04
 Coeff:      0.215D-04 0.202D-03 0.645D-03-0.110D-03-0.325D-02-0.296D-02
 Coeff:      0.187D-01 0.159D-01-0.451D-01-0.331D+00 0.292D+00 0.105D+01
 Gap=     0.236 Goal=   None    Shift=    0.000
 RMSDP=7.16D-08 MaxDP=7.32D-06 DE=-2.73D-12 OVMax= 2.60D-06

 Cycle  19  Pass 1  IDiag  1:
 RMSU=  1.09D-08    CP:  4.00D-01  1.61D+00  9.64D-01  4.39D-01  1.22D+00
                    CP:  1.32D+00  9.54D-01  1.42D+00  2.20D+00  2.42D+00
                    CP:  1.24D+00  1.70D+00  1.82D+00  1.36D+00  1.89D+00
                    CP:  1.87D+00  2.12D+00  1.51D+00
 E= -3010.54743840417     Delta-E=       -0.000000000047 Rises=F Damp=F
 DIIS: error= 8.97D-09 at cycle  19 NSaved=  19.
 NSaved=19 IEnMin=19 EnMin= -3010.54743840417     IErMin=19 ErrMin= 8.97D-09
 ErrMax= 8.97D-09  0.00D+00 EMaxC= 1.00D-01 BMatC= 5.04D-14 BMatP= 4.68D-13
 IDIUse=1 WtCom= 1.00D+00 WtEn= 0.00D+00
 Coeff-Com: -0.634D-07 0.109D-06-0.783D-06 0.394D-06-0.114D-05 0.255D-05
 Coeff-Com: -0.172D-04-0.854D-04 0.180D-03 0.373D-03-0.364D-03-0.170D-02
 Coeff-Com: -0.134D-02 0.920D-02 0.269D-01-0.681D-01-0.143D+00 0.185D+00
 Coeff-Com:  0.993D+00
 Coeff:     -0.634D-07 0.109D-06-0.783D-06 0.394D-06-0.114D-05 0.255D-05
 Coeff:     -0.172D-04-0.854D-04 0.180D-03 0.373D-03-0.364D-03-0.170D-02
 Coeff:     -0.134D-02 0.920D-02 0.269D-01-0.681D-01-0.143D+00 0.185D+00
 Coeff:      0.993D+00
 Gap=     0.236 Goal=   None    Shift=    0.000
 RMSDP=1.66D-08 MaxDP=1.38D-06 DE=-4.73D-11 OVMax= 6.54D-07

 Cycle  20  Pass 1  IDiag  1:
 RMSU=  4.88D-09    CP:  4.00D-01  1.61D+00  9.64D-01  4.39D-01  1.22D+00
                    CP:  1.32D+00  9.54D-01  1.42D+00  2.20D+00  2.42D+00
                    CP:  1.24D+00  1.71D+00  1.82D+00  1.36D+00  1.89D+00
                    CP:  1.89D+00  2.26D+00  1.74D+00  1.16D+00
 E= -3010.54743840415     Delta-E=        0.000000000015 Rises=F Damp=F
 DIIS: error= 4.29D-09 at cycle  20 NSaved=  20.
 NSaved=20 IEnMin=19 EnMin= -3010.54743840417     IErMin=20 ErrMin= 4.29D-09
 ErrMax= 4.29D-09  0.00D+00 EMaxC= 1.00D-01 BMatC= 9.51D-15 BMatP= 5.04D-14
 IDIUse=1 WtCom= 1.00D+00 WtEn= 0.00D+00
 Coeff-Com: -0.977D-08 0.247D-07 0.184D-06 0.264D-08 0.167D-05 0.258D-05
 Coeff-Com: -0.689D-05-0.398D-04-0.459D-05 0.847D-04 0.212D-03-0.133D-03
 Coeff-Com: -0.233D-02 0.149D-03 0.124D-01 0.195D-01-0.832D-01-0.774D-01
 Coeff-Com:  0.271D+00 0.860D+00
 Coeff:     -0.977D-08 0.247D-07 0.184D-06 0.264D-08 0.167D-05 0.258D-05
 Coeff:     -0.689D-05-0.398D-04-0.459D-05 0.847D-04 0.212D-03-0.133D-03
 Coeff:     -0.233D-02 0.149D-03 0.124D-01 0.195D-01-0.832D-01-0.774D-01
 Coeff:      0.271D+00 0.860D+00
 Gap=     0.236 Goal=   None    Shift=    0.000
 RMSDP=8.41D-09 MaxDP=7.66D-07 DE= 1.46D-11 OVMax= 2.25D-07

 SCF Done:  E(RwB97XD) =  -3010.54743840     A.U. after   20 cycles
            NFock= 20  Conv=0.84D-08     -V/T= 2.0016
 KE= 3.005822649868D+03 PE=-8.697157434801D+03 EE= 1.909554329643D+03
 Leave Link  502 at Thu May  2 14:19:30 2024, MaxMem=   134217728 cpu:            1245.8 elap:            1246.1
 (Enter /software/gaussian/g16-c01/sse4/g16/l601.exe)
 Copying SCF densities to generalized density rwf, IOpCl= 0 IROHF=0.

 **********************************************************************

            Population analysis using the SCF Density.

 **********************************************************************

 Alpha  occ. eigenvalues -- -483.29115 -62.84103 -56.63827 -56.63221 -56.63202
 Alpha  occ. eigenvalues --  -19.46272 -19.45996 -14.85478 -10.58783 -10.56698
 Alpha  occ. eigenvalues --  -10.56146 -10.56075 -10.53541 -10.52167  -8.99882
 Alpha  occ. eigenvalues --   -6.82644  -6.80659  -6.80601  -2.92527  -2.92013
 Alpha  occ. eigenvalues --   -2.91967  -2.90379  -2.90379  -1.49785  -1.32755
 Alpha  occ. eigenvalues --   -1.21640  -1.12251  -1.11457  -1.03485  -0.99442
 Alpha  occ. eigenvalues --   -0.94575  -0.90026  -0.84637  -0.80547  -0.79847
 Alpha  occ. eigenvalues --   -0.79535  -0.77328  -0.75960  -0.74823  -0.71076
 Alpha  occ. eigenvalues --   -0.67778  -0.66951  -0.62510  -0.58723  -0.57266
 Alpha  occ. eigenvalues --   -0.56447  -0.55761  -0.53652  -0.52775
 Alpha virt. eigenvalues --   -0.29126  -0.20160  -0.14201  -0.13165  -0.12391
 Alpha virt. eigenvalues --   -0.09120  -0.06459  -0.05931  -0.04671  -0.03290
 Alpha virt. eigenvalues --   -0.01909  -0.01282  -0.00590  -0.00110   0.00711
 Alpha virt. eigenvalues --    0.01772   0.02483   0.03667   0.04028   0.04723
 Alpha virt. eigenvalues --    0.05193   0.05968   0.06446   0.06874   0.06990
 Alpha virt. eigenvalues --    0.07922   0.08389   0.09031   0.09597   0.09887
 Alpha virt. eigenvalues --    0.10942   0.11171   0.11849   0.12408   0.12917
 Alpha virt. eigenvalues --    0.13626   0.14475   0.15385   0.15941   0.16333
 Alpha virt. eigenvalues --    0.17433   0.17695   0.18185   0.19921   0.20890
 Alpha virt. eigenvalues --    0.21547   0.22112   0.22411   0.23130   0.24858
 Alpha virt. eigenvalues --    0.26689   0.27605   0.28579   0.31381   0.32132
 Alpha virt. eigenvalues --    0.33612   0.34734   0.35473   0.36305   0.37740
 Alpha virt. eigenvalues --    0.38167   0.38997   0.40236   0.42247   0.43151
 Alpha virt. eigenvalues --    0.44132   0.44728   0.45672   0.46748   0.48486
 Alpha virt. eigenvalues --    0.49411   0.51792   0.51902   0.53095   0.54128
 Alpha virt. eigenvalues --    0.55761   0.57215   0.57526   0.59887   0.60883
 Alpha virt. eigenvalues --    0.62725   0.63293   0.66247   0.68842   0.69719
 Alpha virt. eigenvalues --    0.70511   0.71393   0.73884   0.74659   0.75508
 Alpha virt. eigenvalues --    0.76924   0.77460   0.79714   0.85216   0.86510
 Alpha virt. eigenvalues --    0.87804   0.88421   0.91794   0.94832   0.98483
 Alpha virt. eigenvalues --    1.01213   1.03194   1.04105   1.06347   1.07402
 Alpha virt. eigenvalues --    1.10000   1.12960   1.13494   1.14088   1.17993
 Alpha virt. eigenvalues --    1.21963   1.23713   1.28466   1.34594   1.36809
 Alpha virt. eigenvalues --    1.37672   1.39727   1.44432   1.56004   1.57365
 Alpha virt. eigenvalues --    1.57662   1.60258   1.62060   1.64496   1.66771
 Alpha virt. eigenvalues --    1.68559   1.72176   1.74427   1.76081   1.80169
 Alpha virt. eigenvalues --    1.84716   1.85804   1.87679   1.97260   1.97802
 Alpha virt. eigenvalues --    1.98800   2.03445   2.04155   2.08127   2.10117
 Alpha virt. eigenvalues --    2.14098   2.15567   2.22918   2.24181   2.27289
 Alpha virt. eigenvalues --    2.33925   2.40795   2.42122   2.45243   2.53839
 Alpha virt. eigenvalues --    2.59224   2.63689   2.66451   2.69307   2.71839
 Alpha virt. eigenvalues --    2.73932   2.76584   2.77979   2.80914   2.83044
 Alpha virt. eigenvalues --    2.94280   2.98879   3.01951   3.07136   3.09558
 Alpha virt. eigenvalues --    3.15313   3.16487   3.18558   3.22842   3.26615
 Alpha virt. eigenvalues --    3.27799   3.38371   3.46943   3.50726   3.54869
 Alpha virt. eigenvalues --    3.58318   3.69074   3.74398   3.84459   3.88142
 Alpha virt. eigenvalues --    4.12359   4.13245   4.21582   4.25821   4.44656
 Alpha virt. eigenvalues --    4.46177   4.55509   4.60088   4.93487   4.96628
 Alpha virt. eigenvalues --    5.05059   5.10111   5.62147   6.15252   6.70398
 Alpha virt. eigenvalues --    7.51280   7.53582   7.63627  23.22903  23.61968
 Alpha virt. eigenvalues --   23.73674  23.78691  23.96407  24.02417  35.31686
 Alpha virt. eigenvalues --   47.96283  49.85321  49.93990 289.83882 289.86218
 Alpha virt. eigenvalues --  289.988181020.97407
          Condensed to atoms (all electrons):
               1          2          3          4          5          6
     1  C    8.785261  -3.840240   1.139907  -0.320467   0.289026   0.075352
     2  C   -3.840240  18.848188  -5.127874   0.644252  -0.025968   0.128588
     3  C    1.139907  -5.127874  18.305304  -1.547254   0.023692   0.183014
     4  C   -0.320467   0.644252  -1.547254   6.801148   0.047524  -0.025782
     5  H    0.289026  -0.025968   0.023692   0.047524   0.391454  -0.002677
     6  H    0.075352   0.128588   0.183014  -0.025782  -0.002677   0.362878
     7  H    0.012788  -0.026536   0.020836   0.296991  -0.003426  -0.000010
     8  N   -0.129253   0.153686  -1.549325  -0.012665  -0.000547  -0.037957
     9  O   -0.051577   0.283134  -0.170239  -0.002463  -0.000045  -0.003032
    10  O    0.329051  -0.289481  -0.222111  -0.030103   0.000045   0.025765
    11  C    0.990777  -1.075852   2.319082  -0.526506  -0.032909   0.014014
    12  H   -0.001515   0.014968   0.003161   0.002779   0.000019  -0.000019
    13  C   -1.143720  -3.772313  -7.105888   0.984614   0.027832  -0.015021
    14  H   -0.012861   0.025846   0.046889   0.013275  -0.000036   0.000031
    15  Br  -0.019049  -0.136959  -0.212507   0.045930  -0.000025  -0.000813
               7          8          9         10         11         12
     1  C    0.012788  -0.129253  -0.051577   0.329051   0.990777  -0.001515
     2  C   -0.026536   0.153686   0.283134  -0.289481  -1.075852   0.014968
     3  C    0.020836  -1.549325  -0.170239  -0.222111   2.319082   0.003161
     4  C    0.296991  -0.012665  -0.002463  -0.030103  -0.526506   0.002779
     5  H   -0.003426  -0.000547  -0.000045   0.000045  -0.032909   0.000019
     6  H   -0.000010  -0.037957  -0.003032   0.025765   0.014014  -0.000019
     7  H    0.341729   0.000086  -0.000004   0.000003   0.050596  -0.001887
     8  N    0.000086   7.630616   0.112135   0.140930  -0.181074   0.001001
     9  O   -0.000004   0.112135   7.778681  -0.006083   0.216903   0.000037
    10  O    0.000003   0.140930  -0.006083   7.964309   0.023550  -0.000016
    11  C    0.050596  -0.181074   0.216903   0.023550   8.361095   0.326016
    12  H   -0.001887   0.001001   0.000037  -0.000016   0.326016   0.281681
    13  C   -0.018238   0.999706  -0.279294   0.070494  -4.354172  -0.023951
    14  H   -0.000048  -0.038867   0.013813  -0.002218  -0.054515  -0.003852
    15  Br  -0.000425   0.156771  -0.056522   0.003654   0.104346  -0.002185
              13         14         15
     1  C   -1.143720  -0.012861  -0.019049
     2  C   -3.772313   0.025846  -0.136959
     3  C   -7.105888   0.046889  -0.212507
     4  C    0.984614   0.013275   0.045930
     5  H    0.027832  -0.000036  -0.000025
     6  H   -0.015021   0.000031  -0.000813
     7  H   -0.018238  -0.000048  -0.000425
     8  N    0.999706  -0.038867   0.156771
     9  O   -0.279294   0.013813  -0.056522
    10  O    0.070494  -0.002218   0.003654
    11  C   -4.354172  -0.054515   0.104346
    12  H   -0.023951  -0.003852  -0.002185
    13  C   20.426225   0.301999   0.290257
    14  H    0.301999   0.298946  -0.031831
    15  Br   0.290257  -0.031831  34.572576
 Mulliken charges:
               1
     1  C   -0.103479
     2  C    0.196562
     3  C   -0.106687
     4  C   -0.371272
     5  H    0.286040
     6  H    0.295673
     7  H    0.327545
     8  N   -0.245242
     9  O    0.164557
    10  O   -0.007788
    11  C   -0.181353
    12  H    0.403763
    13  C   -0.388529
    14  H    0.443429
    15  Br   0.286781
 Sum of Mulliken charges =   1.00000
 Mulliken charges with hydrogens summed into heavy atoms:
               1
     1  C    0.182561
     2  C    0.492234
     3  C   -0.106687
     4  C   -0.043727
     8  N   -0.245242
     9  O    0.164557
    10  O   -0.007788
    11  C    0.222411
    13  C    0.054900
    15  Br   0.286781
 Electronic spatial extent (au):  <R**2>=           3943.5890
 Charge=              1.0000 electrons
 Dipole moment (field-independent basis, Debye):
    X=              2.9860    Y=             -4.9057    Z=             -1.3084  Tot=              5.8902
 Quadrupole moment (field-independent basis, Debye-Ang):
   XX=            -67.6515   YY=            -49.3596   ZZ=            -60.7348
   XY=            -11.3284   XZ=             -3.7806   YZ=              4.5759
 Traceless Quadrupole moment (field-independent basis, Debye-Ang):
   XX=             -8.4029   YY=              9.8891   ZZ=             -1.4862
   XY=            -11.3284   XZ=             -3.7806   YZ=              4.5759
 Octapole moment (field-independent basis, Debye-Ang**2):
  XXX=           -514.0117  YYY=             68.1396  ZZZ=             78.5472  XYY=           -132.1803
  XXY=             -6.0489  XXZ=             22.7679  XZZ=           -128.9533  YZZ=              9.7394
  YYZ=             19.5465  XYZ=             12.6554
 Hexadecapole moment (field-independent basis, Debye-Ang**3):
 XXXX=          -3462.2702 YYYY=           -679.6046 ZZZZ=           -382.8833 XXXY=             56.9881
 XXXZ=            178.0271 YYYX=            138.2622 YYYZ=           -152.5825 ZZZX=            157.5337
 ZZZY=           -130.5142 XXYY=           -615.4676 XXZZ=           -516.9011 YYZZ=           -156.8819
 XXYZ=            -29.5312 YYXZ=             35.7539 ZZXY=             12.7784
 N-N= 7.712330168850D+02 E-N=-8.697157435839D+03  KE= 3.005822649868D+03
 No NMR shielding tensors so no spin-rotation constants.
 Leave Link  601 at Thu May  2 14:19:38 2024, MaxMem=   134217728 cpu:               7.3 elap:               7.3
 (Enter /software/gaussian/g16-c01/sse4/g16/l9999.exe)
 Unable to Open any file for archive entry.
 1\1\GINC-BHX0013\SP\RwB97XD\6-311+G(d)\C6H5Br1N1O2(1+)\BWEIGHT\02-May-
 2024\0\\#P wB97XD/6-311+G* NoSymm #P Field=Y+136\\TitleMe\\1,1\C,0,0.5
 193,1.233,-0.0319\C,0,1.9445,1.2692,-0.0367\C,0,2.6204,0.0928,-0.025\C
 ,0,-0.196,0.0301,0.001\H,0,-0.0207,2.1742,-0.0434\H,0,2.4828,2.2089,-0
 .0361\H,0,-1.2777,0.0399,0.0117\N,0,4.0921,0.0959,0.0366\O,0,4.6393,-1
 .0217,0.1446\O,0,4.6649,1.1984,-0.0233\C,0,0.4943,-1.1671,0.021\H,0,-0
 .0325,-2.1149,0.0545\C,0,1.9629,-1.2165,-0.0211\H,0,2.4436,-1.9631,0.6
 151\Br,0,2.173,-1.9491,-1.9062\\Version=ES64L-G16RevC.01\HF=-3010.5474
 384\RMSD=8.409e-09\Dipole=-3.1544174,-0.7019288,0.7344582\Quadrupole=-
 6.2473514,7.3522854,-1.1049341,-8.4223933,-2.8107509,3.4020791\PG=C01 
 [X(C6H5Br1N1O2)]\\@
 The archive entry for this job was punched.


 OLD HORSE! OLD HORSE! WHAT BROUGHT YOU HERE?
 FROM SACARAP' TO PORTLAND PIER
 I'VE CARTED STONE THIS MANY A YEAR;
 TILL, KILLED BY BLOWS AND SORE ABUSE,
 THEY SALTED ME DOWN FOR SAILORS' USE.
 THE SAILORS THEY DO ME DESPISE;
 THEY TURN ME OVER AND DAMN MY EYES;
 CUT OFF MY MEAT, AND SCRAPE MY BONES,
 AND PITCH ME OVER TO DAVY JONES.

    SAILORS' COMPLAINT ABOUT THE BEEF
    SERVED ON SHIPBOARD, CIRCA 1835.
 Job cpu time:       0 days  0 hours 21 minutes 56.4 seconds.
 Elapsed time:       0 days  0 hours 21 minutes 56.7 seconds.
 File lengths (MBytes):  RWF=     40 Int=      0 D2E=      0 Chk=     32 Scr=      1
 Normal termination of Gaussian 16 at Thu May  2 14:19:39 2024.
