[Molden Format]
[Atoms] (Angs)
  C      1    6     -1.82075000      1.21221000      0.00007000
  C      2    6     -0.42782000      1.22011000      0.00011000
  C      3    6      0.24287000      0.00002000     -0.00001000
  C      4    6     -0.42786000     -1.22012000      0.00003000
  C      5    6     -2.51579000      0.00002000      0.00000000
  H      6    1     -2.36155000      2.15093000     -0.00002000
  H      7    1      0.13769000      2.14227000      0.00006000
  H      8    1      0.13768000     -2.14225000     -0.00012000
  H      9    1     -3.59985000     -0.00001000     -0.00023000
  N     10    7      1.70520000      0.00000000     -0.00004000
  O     11    8      2.29572000     -1.10489000      0.00011000
  O     12    8      2.29576000      1.10486000     -0.00013000
  C     13    6     -1.82075000     -1.21220000     -0.00006000
  H     14    1     -2.36162000     -2.15087000     -0.00013000
[GTO]
1    0
S    6    1.000000
   4.56324000E+03    1.96665000E-03 
   6.82024000E+02    1.52306000E-02 
   1.54973000E+02    7.61269000E-02 
   4.44553000E+01    2.60801000E-01 
   1.30290000E+01    6.16462000E-01 
   1.82773000E+00    2.21006000E-01 
SP   3    1.000000
   2.09642000E+01    1.14660000E-01   4.02487000E-02 
   4.80331000E+00    9.19999000E-01   2.37594000E-01 
   1.45933000E+00   -3.03068000E-03   8.15854000E-01 
SP   1    1.000000
   4.83456000E-01    1.00000000E+00   1.00000000E+00 
SP   1    1.000000
   1.45585000E-01    1.00000000E+00   1.00000000E+00 
SP   1    1.000000
   4.38000000E-02    1.00000000E+00   1.00000000E+00 
D    1    1.000000
   6.26000000E-01    1.00000000E+00 

2    0
S    6    1.000000
   4.56324000E+03    1.96665000E-03 
   6.82024000E+02    1.52306000E-02 
   1.54973000E+02    7.61269000E-02 
   4.44553000E+01    2.60801000E-01 
   1.30290000E+01    6.16462000E-01 
   1.82773000E+00    2.21006000E-01 
SP   3    1.000000
   2.09642000E+01    1.14660000E-01   4.02487000E-02 
   4.80331000E+00    9.19999000E-01   2.37594000E-01 
   1.45933000E+00   -3.03068000E-03   8.15854000E-01 
SP   1    1.000000
   4.83456000E-01    1.00000000E+00   1.00000000E+00 
SP   1    1.000000
   1.45585000E-01    1.00000000E+00   1.00000000E+00 
SP   1    1.000000
   4.38000000E-02    1.00000000E+00   1.00000000E+00 
D    1    1.000000
   6.26000000E-01    1.00000000E+00 

3    0
S    6    1.000000
   4.56324000E+03    1.96665000E-03 
   6.82024000E+02    1.52306000E-02 
   1.54973000E+02    7.61269000E-02 
   4.44553000E+01    2.60801000E-01 
   1.30290000E+01    6.16462000E-01 
   1.82773000E+00    2.21006000E-01 
SP   3    1.000000
   2.09642000E+01    1.14660000E-01   4.02487000E-02 
   4.80331000E+00    9.19999000E-01   2.37594000E-01 
   1.45933000E+00   -3.03068000E-03   8.15854000E-01 
SP   1    1.000000
   4.83456000E-01    1.00000000E+00   1.00000000E+00 
SP   1    1.000000
   1.45585000E-01    1.00000000E+00   1.00000000E+00 
SP   1    1.000000
   4.38000000E-02    1.00000000E+00   1.00000000E+00 
D    1    1.000000
   6.26000000E-01    1.00000000E+00 

4    0
S    6    1.000000
   4.56324000E+03    1.96665000E-03 
   6.82024000E+02    1.52306000E-02 
   1.54973000E+02    7.61269000E-02 
   4.44553000E+01    2.60801000E-01 
   1.30290000E+01    6.16462000E-01 
   1.82773000E+00    2.21006000E-01 
SP   3    1.000000
   2.09642000E+01    1.14660000E-01   4.02487000E-02 
   4.80331000E+00    9.19999000E-01   2.37594000E-01 
   1.45933000E+00   -3.03068000E-03   8.15854000E-01 
SP   1    1.000000
   4.83456000E-01    1.00000000E+00   1.00000000E+00 
SP   1    1.000000
   1.45585000E-01    1.00000000E+00   1.00000000E+00 
SP   1    1.000000
   4.38000000E-02    1.00000000E+00   1.00000000E+00 
D    1    1.000000
   6.26000000E-01    1.00000000E+00 

5    0
S    6    1.000000
   4.56324000E+03    1.96665000E-03 
   6.82024000E+02    1.52306000E-02 
   1.54973000E+02    7.61269000E-02 
   4.44553000E+01    2.60801000E-01 
   1.30290000E+01    6.16462000E-01 
   1.82773000E+00    2.21006000E-01 
SP   3    1.000000
   2.09642000E+01    1.14660000E-01   4.02487000E-02 
   4.80331000E+00    9.19999000E-01   2.37594000E-01 
   1.45933000E+00   -3.03068000E-03   8.15854000E-01 
SP   1    1.000000
   4.83456000E-01    1.00000000E+00   1.00000000E+00 
SP   1    1.000000
   1.45585000E-01    1.00000000E+00   1.00000000E+00 
SP   1    1.000000
   4.38000000E-02    1.00000000E+00   1.00000000E+00 
D    1    1.000000
   6.26000000E-01    1.00000000E+00 

6    0
S    3    1.000000
   3.38650000E+01    2.54938000E-02 
   5.09479000E+00    1.90373000E-01 
   1.15879000E+00    8.52161000E-01 
S    1    1.000000
   3.25840000E-01    1.00000000E+00 
S    1    1.000000
   1.02741000E-01    1.00000000E+00 

7    0
S    3    1.000000
   3.38650000E+01    2.54938000E-02 
   5.09479000E+00    1.90373000E-01 
   1.15879000E+00    8.52161000E-01 
S    1    1.000000
   3.25840000E-01    1.00000000E+00 
S    1    1.000000
   1.02741000E-01    1.00000000E+00 

8    0
S    3    1.000000
   3.38650000E+01    2.54938000E-02 
   5.09479000E+00    1.90373000E-01 
   1.15879000E+00    8.52161000E-01 
S    1    1.000000
   3.25840000E-01    1.00000000E+00 
S    1    1.000000
   1.02741000E-01    1.00000000E+00 

9    0
S    3    1.000000
   3.38650000E+01    2.54938000E-02 
   5.09479000E+00    1.90373000E-01 
   1.15879000E+00    8.52161000E-01 
S    1    1.000000
   3.25840000E-01    1.00000000E+00 
S    1    1.000000
   1.02741000E-01    1.00000000E+00 

10    0
S    6    1.000000
   6.29348000E+03    1.96979000E-03 
   9.49044000E+02    1.49613000E-02 
   2.18776000E+02    7.35006000E-02 
   6.36916000E+01    2.48937000E-01 
   1.88282000E+01    6.02460000E-01 
   2.72023000E+00    2.56202000E-01 
SP   3    1.000000
   3.06331000E+01    1.11906000E-01   3.83119000E-02 
   7.02614000E+00    9.21666000E-01   2.37403000E-01 
   2.11205000E+00   -2.56919000E-03   8.17592000E-01 
SP   1    1.000000
   6.84009000E-01    1.00000000E+00   1.00000000E+00 
SP   1    1.000000
   2.00878000E-01    1.00000000E+00   1.00000000E+00 
SP   1    1.000000
   6.39000000E-02    1.00000000E+00   1.00000000E+00 
D    1    1.000000
   9.13000000E-01    1.00000000E+00 

11    0
S    6    1.000000
   8.58850000E+03    1.89515000E-03 
   1.29723000E+03    1.43859000E-02 
   2.99296000E+02    7.07320000E-02 
   8.73771000E+01    2.40001000E-01 
   2.56789000E+01    5.94797000E-01 
   3.74004000E+00    2.80802000E-01 
SP   3    1.000000
   4.21175000E+01    1.13889000E-01   3.65114000E-02 
   9.62837000E+00    9.20811000E-01   2.37153000E-01 
   2.85332000E+00   -3.27447000E-03   8.19702000E-01 
SP   1    1.000000
   9.05661000E-01    1.00000000E+00   1.00000000E+00 
SP   1    1.000000
   2.55611000E-01    1.00000000E+00   1.00000000E+00 
SP   1    1.000000
   8.45000000E-02    1.00000000E+00   1.00000000E+00 
D    1    1.000000
   1.29200000E+00    1.00000000E+00 

12    0
S    6    1.000000
   8.58850000E+03    1.89515000E-03 
   1.29723000E+03    1.43859000E-02 
   2.99296000E+02    7.07320000E-02 
   8.73771000E+01    2.40001000E-01 
   2.56789000E+01    5.94797000E-01 
   3.74004000E+00    2.80802000E-01 
SP   3    1.000000
   4.21175000E+01    1.13889000E-01   3.65114000E-02 
   9.62837000E+00    9.20811000E-01   2.37153000E-01 
   2.85332000E+00   -3.27447000E-03   8.19702000E-01 
SP   1    1.000000
   9.05661000E-01    1.00000000E+00   1.00000000E+00 
SP   1    1.000000
   2.55611000E-01    1.00000000E+00   1.00000000E+00 
SP   1    1.000000
   8.45000000E-02    1.00000000E+00   1.00000000E+00 
D    1    1.000000
   1.29200000E+00    1.00000000E+00 

13    0
S    6    1.000000
   4.56324000E+03    1.96665000E-03 
   6.82024000E+02    1.52306000E-02 
   1.54973000E+02    7.61269000E-02 
   4.44553000E+01    2.60801000E-01 
   1.30290000E+01    6.16462000E-01 
   1.82773000E+00    2.21006000E-01 
SP   3    1.000000
   2.09642000E+01    1.14660000E-01   4.02487000E-02 
   4.80331000E+00    9.19999000E-01   2.37594000E-01 
   1.45933000E+00   -3.03068000E-03   8.15854000E-01 
SP   1    1.000000
   4.83456000E-01    1.00000000E+00   1.00000000E+00 
SP   1    1.000000
   1.45585000E-01    1.00000000E+00   1.00000000E+00 
SP   1    1.000000
   4.38000000E-02    1.00000000E+00   1.00000000E+00 
D    1    1.000000
   6.26000000E-01    1.00000000E+00 

14    0
S    3    1.000000
   3.38650000E+01    2.54938000E-02 
   5.09479000E+00    1.90373000E-01 
   1.15879000E+00    8.52161000E-01 
S    1    1.000000
   3.25840000E-01    1.00000000E+00 
S    1    1.000000
   1.02741000E-01    1.00000000E+00 

[MO]
Sym=X
Ene= -0.293441
Spin=Alpha
Occup=1
     1   -6.245247371690e-07
     2   -9.754905901954e-07
     3    3.804808352927e-06
     4   -1.314829087254e-05
     5   -8.984018088345e-02
     6    2.885808930707e-06
     7    7.482583402440e-06
     8   -2.001504417625e-05
     9   -1.461363098308e-01
    10    2.877440587192e-05
    11    1.881971731760e-05
    12   -3.094489275880e-05
    13   -1.269711645679e-01
    14    7.190001775161e-06
    15    3.321891865576e-05
    16    1.533505855579e-05
    17   -1.001118178123e-02
    18    2.130542843266e-06
    19    1.459100159991e-02
    20    1.365676541318e-02
    21   -1.814457007698e-06
    22    2.507930402627e-07
    23   -5.847139426372e-07
    24   -1.075767733654e-06
    25    2.914781167937e-06
    26    5.039318101448e-06
    27    5.203797711145e-02
    28    5.090057392760e-06
    29    3.171346554125e-06
    30    8.364324901555e-06
    31    8.509856431385e-02
    32   -6.140894304825e-05
    33    1.226155924426e-05
    34    4.484501323540e-05
    35    6.818419144231e-02
    36   -9.029240653653e-05
    37    3.694094414487e-05
    38    2.611082512671e-06
    39    2.541547828544e-03
    40   -2.008237142111e-06
    41    1.881380981937e-02
    42   -1.371641867618e-02
    43    4.503449637704e-07
    44    1.048846846265e-06
    45    3.962249905056e-06
    46    6.480584527566e-06
    47    1.986451016618e-05
    48   -8.733454154102e-06
    49    1.505631908691e-01
    50   -2.210915475531e-05
    51    3.331169521432e-05
    52   -1.442507190687e-05
    53    2.470254773508e-01
    54    5.049566516139e-05
    55   -1.671444710629e-05
    56    1.359155374467e-05
    57    2.288725875616e-01
    58    7.994519328964e-05
    59   -2.511607548159e-05
    60   -1.319426486459e-05
    61    3.489252221352e-02
    62    7.111377130884e-07
    63   -4.894737168296e-04
    64   -1.805641448903e-03
    65    1.295555370020e-06
    66    6.110405911518e-07
    67   -2.198411041009e-06
    68   -3.679302225979e-06
    69    3.016538562644e-06
    70   -3.316710724203e-06
    71    6.861107597276e-02
    72    1.250535224002e-05
    73    4.021661558244e-06
    74   -6.017462815965e-06
    75    1.120923143173e-01
    76   -1.864791705078e-05
    77    2.073372719510e-05
    78   -2.809138205401e-05
    79    9.223637577863e-02
    80   -6.330570716582e-05
    81   -8.263932408807e-06
    82   -3.220309985979e-05
    83    4.122844535689e-03
    84   -6.473177189821e-07
    85    1.713572891188e-02
    86    1.365746420524e-02
    87    1.611338332216e-06
    88    7.818339779383e-07
    89    2.977464180188e-06
    90    4.879584261206e-06
    91    2.557848804853e-05
    92    1.673591099008e-05
    93   -1.498300892360e-01
    94   -1.316531135706e-05
    95    3.989468934173e-05
    96    2.514595385481e-05
    97   -2.440672155061e-01
    98   -4.476789123077e-05
    99    2.275743450021e-05
   100    1.618309425218e-05
   101   -2.120491624816e-01
   102    6.766106417250e-05
   103    1.908485248998e-05
   104    2.691868505187e-05
   105   -2.213352098464e-02
   106    1.607357488275e-06
   107   -7.133185275195e-03
   108   -1.598322877901e-03
   109    3.085557812660e-07
   110    1.527356164992e-06
   111   -5.261973303036e-06
   112   -5.375770780020e-06
   113    1.981606579074e-06
   114    4.650021306580e-06
   115    2.211002476330e-06
   116   -9.226523189060e-06
   117   -2.264473777279e-06
   118   -7.119537074516e-06
   119   -1.169257050800e-05
   120   -2.002803740999e-07
   121   -3.780385332408e-06
   122   -8.527192218299e-06
   123   -1.479902108543e-06
   124   -2.401277194332e-06
   125   -8.916970904868e-06
   126    1.388496116107e-06
   127   -7.935559579716e-03
   128    6.859315585203e-06
   129   -1.431676095353e-05
   130    2.838705963407e-06
   131   -1.210273362123e-02
   132    2.371438658093e-05
   133   -2.193032216093e-06
   134   -8.842935599185e-06
   135   -1.375845751405e-02
   136    1.671546203313e-05
   137    2.983786036962e-06
   138    1.905438094447e-06
   139   -4.483674708687e-02
   140    6.413125432823e-07
   141   -2.043885975811e-02
   142   -4.428507060486e-04
   143    4.089010858629e-06
   144   -9.234469404538e-07
   145    6.484861198376e-07
   146    1.064717437699e-06
   147    2.476941203875e-05
   148   -4.735048949183e-06
   149   -5.359634660795e-02
   150   -3.716493859651e-06
   151    3.703661437685e-05
   152   -7.053755102066e-06
   153   -7.976736071314e-02
   154   -1.064260854158e-05
   155    3.442481135812e-05
   156   -7.729746468333e-06
   157   -7.584318361482e-02
   158    3.134026886435e-06
   159    4.059905361299e-06
   160    1.768699089734e-07
   161    3.338985523360e-03
   162    1.213932822135e-06
   163    1.286007879517e-03
   164   -4.112277100001e-03
   165    1.072771165949e-08
   166    1.314297062124e-06
   167    4.533908352972e-07
   168    7.536517789222e-07
   169    7.585365870540e-06
   170   -4.395510912631e-06
   171   -5.633737636703e-02
   172   -2.628072796687e-06
   173    1.087841581335e-05
   174   -6.541497536367e-06
   175   -8.378890290709e-02
   176   -1.133377516215e-06
   177    9.712679472480e-06
   178   -5.417634661058e-06
   179   -7.975200196156e-02
   180   -1.157981635292e-05
   181    2.811510126578e-06
   182    3.146268823342e-07
   183    2.726178550325e-03
   184   -4.897861201972e-07
   185    1.459245526675e-03
   186    4.283521166561e-03
   187   -4.012157317398e-07
   188   -2.993623246721e-08
   189   -1.679007520429e-06
   190   -2.730788437634e-06
   191    4.345151933697e-06
   192    3.571950379610e-06
   193   -7.364369237980e-02
   194    7.809246746803e-06
   195    7.022278359917e-06
   196    6.986324751875e-06
   197   -1.197124129096e-01
   198    3.614547993596e-05
   199    1.930096163433e-05
   200    1.222170929630e-05
   201   -1.038484519755e-01
   202   -4.868379628379e-06
   203   -1.573177505419e-05
   204    9.558436050370e-06
   205   -7.352216857870e-03
   206   -6.590442140311e-07
   207    1.636621169964e-02
   208   -1.384859742089e-02
   209   -4.590714000473e-06
   210    8.813343141053e-07
   211    2.888922571744e-06
   212    6.175423441489e-06
   213    6.879067401857e-06
Sym=X
Ene= -0.305403
Spin=Alpha
Occup=1
     1   -1.204434304662e-06
     2   -1.942133668124e-06
     3   -1.417166691637e-05
     4    1.514769903131e-06
     5    1.224484375894e-01
     6    5.311714057860e-06
     7   -2.204288651894e-05
     8    2.084461560186e-06
     9    1.998068321964e-01
    10    3.479649659692e-06
    11   -1.469897903187e-05
    12    2.142497041213e-05
    13    1.748588407959e-01
    14   -1.412455427114e-04
    15   -4.399345460660e-05
    16    5.345520397895e-07
    17    2.036866347952e-02
    18    3.379920495957e-07
    19    1.498578961911e-02
    20    2.384552755988e-03
    21   -1.150260819495e-06
    22   -7.054896726370e-07
    23   -1.553910875109e-06
    24   -2.528953118088e-06
    25    8.039851391733e-06
    26   -4.126151791820e-06
    27    1.346099477662e-01
    28    6.401644253005e-06
    29    1.044372017637e-05
    30   -6.479463993803e-06
    31    2.192515205764e-01
    32    2.700429039350e-05
    33    1.964123003862e-05
    34   -2.068088739672e-05
    35    1.948691003861e-01
    36   -4.627357995028e-04
    37   -1.324172387529e-04
    38    8.984318088687e-05
    39    1.271854245337e-02
    40   -1.998449021582e-06
    41   -1.207680454548e-02
    42   -4.165110917452e-04
    43    2.729121230732e-08
    44   -4.405696047982e-07
    45   -5.434504693198e-08
    46   -8.645450469233e-08
    47   -3.750037799889e-06
    48   -4.235305074454e-06
    49    9.572137873617e-03
    50    1.372401812733e-06
    51   -6.071859876448e-06
    52   -6.684686000191e-06
    53    1.570397147065e-02
    54   -4.483878791453e-05
    55    3.612679096495e-06
    56    4.802641128887e-06
    57    1.453861370545e-02
    58   -3.359580633314e-04
    59    4.481446570714e-05
    60    5.175201977953e-04
    61    2.215459568815e-03
    62    2.131261884609e-06
    63   -3.200995102421e-05
    64    2.851371913343e-02
    65    7.385714479326e-08
    66    2.897507799304e-06
    67    4.628732958654e-06
    68    7.612013815568e-06
    69   -3.011064472077e-07
    70    1.090725242325e-05
    71   -1.269349007646e-01
    72   -2.376257690412e-05
    73   -3.480899157394e-07
    74    1.729684461334e-05
    75   -2.067067356211e-01
    76    8.663036767236e-06
    77   -1.743210837713e-05
    78    3.073036484772e-05
    79   -1.846731807411e-01
    80    9.516275258950e-04
    81    1.240565899059e-04
    82    1.957716292865e-04
    83   -1.229813029143e-02
    84    2.948316383225e-06
    85    1.435619516389e-02
    86    1.323793695992e-03
    87   -6.440290277383e-07
    88   -4.655250578039e-07
    89    8.374497376690e-07
    90    1.407166981636e-06
    91    2.473881595030e-06
    92    2.890454238710e-06
    93   -9.477778084861e-03
    94   -5.044497717211e-06
    95    3.777082613028e-06
    96    3.446020234494e-06
    97   -1.543913337034e-02
    98    2.207410342975e-05
    99    2.216110148037e-05
   100    5.005850966280e-06
   101   -1.341747208255e-02
   102    2.413979408523e-04
   103    4.642208365627e-05
   104   -4.539731612235e-05
   105   -1.401456169528e-03
   106    2.239056606008e-06
   107   -4.502756021799e-04
   108    2.518732996298e-02
   109   -1.931923278111e-07
   110   -1.897732510387e-06
   111    1.464267114000e-06
   112    1.270086011293e-07
   113   -8.727745146019e-07
   114   -1.967848890098e-06
   115   -1.914301570288e-06
   116    9.331959482474e-06
   117    1.138414550629e-06
   118    4.029679366879e-06
   119   -3.409765112027e-06
   120   -2.425222178668e-06
   121   -1.282699918220e-06
   122    2.167209046389e-06
   123    4.211091681267e-07
   124    7.107753707562e-07
   125    2.637214955125e-06
   126   -6.461270252074e-07
   127   -4.975728732813e-04
   128   -2.888084217468e-06
   129    4.226878081230e-06
   130   -9.267801914352e-07
   131   -7.582064162333e-04
   132    2.533196789085e-06
   133   -1.645343239980e-06
   134   -3.244652829026e-06
   135   -8.675006297763e-04
   136    3.759516923490e-05
   137   -8.400738637299e-06
   138   -1.374523703813e-04
   139   -2.848549345524e-03
   140   -1.238732861987e-06
   141   -1.298021788961e-03
   142    7.092261550133e-03
   143   -2.461507413010e-06
   144   -2.006276720979e-06
   145   -4.140040982763e-07
   146   -6.898602726041e-07
   147    2.259773398315e-06
   148    1.881148738152e-06
   149   -2.552169504914e-02
   150    2.545092750327e-06
   151    3.109699636331e-06
   152    3.071436938952e-06
   153   -3.752161664326e-02
   154    4.136827781621e-06
   155    5.751264344258e-06
   156    1.570402798357e-07
   157   -3.635800636571e-02
   158   -9.659901949964e-05
   159    1.150788498228e-05
   160   -1.314981678719e-05
   161   -4.726813583226e-03
   162    4.979261789798e-07
   163    1.469718956514e-03
   164   -1.643090703722e-03
   165   -3.696970264093e-07
   166    1.926966661547e-07
   167   -2.243777517368e-07
   168   -3.862181328357e-07
   169   -1.443995109892e-05
   170    9.449143176422e-06
   171    1.854748448505e-02
   172    1.368720099350e-06
   173   -2.129545881972e-05
   174    1.392527937597e-05
   175    2.714594324523e-02
   176   -3.403528725293e-07
   177   -2.080561447173e-05
   178    1.285269398610e-05
   179    2.648425355939e-02
   180    7.696325994248e-05
   181   -8.232945235950e-06
   182   -1.018974180121e-05
   183    5.113538109513e-03
   184    1.962674821004e-07
   185   -1.296013720717e-03
   186   -1.110868222830e-03
   187    9.517304568300e-07
   188    4.334757587809e-07
   189   -2.904477694167e-06
   190   -4.779847205319e-06
   191    8.606951477243e-06
   192    8.611809418531e-06
   193   -1.327869484344e-01
   194    1.598005985946e-05
   195    1.380788806365e-05
   196    1.354213657291e-05
   197   -2.166182359066e-01
   198   -2.391996064376e-05
   199   -7.169316363720e-06
   200   -2.682134714594e-06
   201   -1.894636578533e-01
   202   -2.662581581295e-04
   203    1.563771978257e-05
   204   -8.690646512660e-05
   205   -2.146903713615e-02
   206   -1.456838218567e-06
   207   -1.302290191912e-02
   208    6.451978945896e-04
   209    3.741902229456e-07
   210    1.969665869375e-06
   211    6.907299725767e-07
   212   -1.955715903322e-06
   213   -5.712548470331e-06
Sym=X
Ene= -0.371461
Spin=Alpha
Occup=1
     1   -1.952970441294e-03
     2   -2.982252893019e-03
     3    3.418341956009e-03
     4   -1.235153334094e-01
     5    1.197265767024e-06
     6    1.322023385695e-02
     7    1.157605387672e-02
     8   -1.837156438338e-01
     9    2.835324311393e-06
    10   -5.404102759428e-02
    11    1.494061965003e-04
    12   -1.500078610747e-01
    13    3.353960905800e-07
    14   -2.847631525072e-02
    15   -1.825144157548e-02
    16   -1.207336552454e-02
    17    2.086496922011e-06
    18    2.051020946185e-03
    19   -1.128727531247e-06
    20    2.402224805281e-06
    21    9.592923970358e-03
    22    2.673502705073e-02
    23   -4.331777219883e-03
    24   -6.991065168329e-03
    25   -1.143286675394e-02
    26    8.603865963106e-02
    27   -4.373900263595e-06
    28    1.677959653478e-02
    29   -1.036473303226e-02
    30    1.275184303314e-01
    31   -7.313698757593e-06
    32    4.289328533263e-02
    33   -2.730793713379e-02
    34    1.218166700429e-01
    35   -7.088923756831e-06
    36    5.432682010258e-01
    37    5.241541427765e-02
    38   -6.440947807113e-02
    39   -1.456680773244e-05
    40   -7.190562185599e-04
    41   -5.658418153391e-08
    42   -7.659252953036e-07
    43   -5.377180550302e-03
    44    2.702310419471e-02
    45    3.165639721609e-06
    46    5.322211897848e-06
    47   -3.599380598433e-05
    48   -1.050871800895e-01
    49   -1.509818912044e-05
    50   -1.585695651235e-05
    51   -6.156398196169e-05
    52   -1.470967192380e-01
    53   -2.400215921639e-05
    54   -8.334882530335e-05
    55   -7.351256557492e-05
    56   -5.444124720938e-02
    57   -2.100501210698e-05
    58   -2.948366913976e-05
    59    3.236921816097e-05
    60   -3.582800913447e-01
    61   -2.348551423862e-05
    62    6.712888258113e-07
    63    6.183192178076e-07
    64   -2.000980222049e-06
    65   -3.607810569101e-06
    66    7.727629764891e-03
    67    4.331813979782e-03
    68    6.991234017133e-03
    69    1.142867660462e-02
    70    8.606885702480e-02
    71   -3.705076976502e-06
    72   -1.677979426860e-02
    73    1.035771917575e-02
    74    1.275660907006e-01
    75   -7.313374050432e-06
    76   -4.291271266535e-02
    77    2.734953142550e-02
    78    1.218543921257e-01
    79    1.189142614281e-06
    80   -5.433273511687e-01
    81   -5.241343974972e-02
    82   -6.444070938757e-02
    83    2.380047956687e-05
    84    7.193458758657e-04
    85    1.593534244664e-06
    86   -4.061722104657e-06
    87    5.373250348096e-03
    88    2.702285827224e-02
    89    5.353360066485e-07
    90    8.175318130593e-07
    91   -1.256938128333e-06
    92    1.267075389753e-01
    93    8.095805727737e-06
    94   -3.168951598783e-06
    95   -2.624311064151e-06
    96    1.790810663579e-01
    97    1.202559054480e-05
    98   -7.010607980956e-06
    99   -7.875517045445e-06
   100    1.071365510158e-01
   101    6.901623916215e-06
   102   -1.781317055445e-04
   103   -2.499609716291e-05
   104   -2.370659555283e-02
   105    1.901413617467e-06
   106   -3.872317440625e-07
   107    7.279418830112e-07
   108    4.409989712780e-07
   109    1.171657672167e-06
   110    1.628369049536e-02
   111   -1.021724529617e-01
   112   -1.367989268482e-01
   113   -4.953063426053e-02
   114    7.236694157286e-02
   115    9.970169399795e-02
   116    2.042871866970e-02
   117   -7.238156796287e-02
   118   -9.971661723408e-02
   119   -2.043087566435e-02
   120    4.421509006346e-07
   121    1.625852030572e-06
   122    2.771887859987e-06
   123    1.616217671306e-07
   124    3.135358503194e-07
   125    2.152119688111e-05
   126    7.417344360365e-03
   127   -1.442235806563e-07
   128   -1.019512067203e-06
   129    3.529060992090e-05
   130    1.224029304065e-02
   131   -4.682084685904e-07
   132    9.339032283840e-07
   133   -2.609476108728e-05
   134   -4.081757739829e-02
   135    5.236301008517e-06
   136   -4.383753435527e-05
   137   -6.024532081216e-05
   138    8.704709081332e-02
   139    1.029650696345e-05
   140   -1.826895790636e-06
   141    1.161107410705e-06
   142   -4.835809577355e-06
   143   -1.750790640357e-05
   144    1.425198138791e-02
   145   -2.741571910691e-04
   146   -5.187164903286e-04
   147   -1.707065735545e-02
   148   -3.199762423377e-02
   149    2.959451651366e-05
   150    1.903035365385e-03
   151   -2.562098895625e-02
   152   -4.676308466016e-02
   153    4.362041444189e-05
   154   -1.993759644529e-02
   155   -1.653615906396e-02
   156   -4.890670858455e-02
   157    4.316707832353e-05
   158    3.568384504293e-02
   159   -2.308562496606e-03
   160    2.301782349009e-03
   161   -9.079429063636e-07
   162    4.308008050253e-04
   163   -1.076976950400e-06
   164    2.074725892824e-06
   165    2.302319495603e-03
   166   -2.451112467961e-04
   167    2.757664880139e-04
   168    5.213381909398e-04
   169    1.693988883996e-02
   170   -3.198323424235e-02
   171   -9.573039268334e-06
   172   -1.908893097720e-03
   173    2.542932405421e-02
   174   -4.674111919626e-02
   175   -1.417489253096e-05
   176    1.994477482506e-02
   177    1.635982362330e-02
   178   -4.888913668683e-02
   179   -1.349088097933e-05
   180   -3.561509742365e-02
   181    2.303867327416e-03
   182    2.284573303872e-03
   183   -6.060445506949e-06
   184   -4.321785949153e-04
   185    5.819909167982e-07
   186    5.118774190867e-07
   187   -2.298245022836e-03
   188   -2.390838374762e-04
   189    1.957614681670e-03
   190    2.989726683338e-03
   191   -3.421746987511e-03
   192   -1.235062945654e-01
   193   -1.163039622111e-05
   194   -1.324226918476e-02
   195   -1.157913551823e-02
   196   -1.837020121942e-01
   197   -1.851012912771e-05
   198    5.405377035535e-02
   199   -1.385769990835e-04
   200   -1.500124200719e-01
   201   -1.243235628162e-05
   202    2.874006311950e-02
   203    1.825053257643e-02
   204   -1.200371499457e-02
   205   -8.903230302410e-06
   206   -2.050991679655e-03
   207    2.206689322300e-07
   208    1.165298417839e-06
   209   -9.588788759134e-03
   210    2.673931689197e-02
   211    1.021642973739e-01
   212    1.367909681689e-01
   213    4.952961191497e-02
Sym=X
Ene= -0.437991
Spin=Alpha
Occup=1
     1   -4.689148959684e-03
     2   -7.356531244581e-03
     3    2.029581199624e-02
     4   -1.746718455588e-02
     5    2.214157516543e-06
     6    1.986037646360e-02
     7    2.886053843881e-02
     8   -2.700583492774e-02
     9    2.737577238519e-06
    10    7.243287051036e-02
    11    6.559182854084e-02
    12   -5.374125349650e-03
    13    5.933409181456e-06
    14    4.921992461668e-01
    15    4.994590996230e-01
    16    2.493540322570e-01
    17    4.342903481060e-05
    18    2.641887581726e-04
    19   -4.358575438951e-07
    20   -3.654520817246e-07
    21    1.201912064387e-03
    22    3.531050965607e-03
    23    7.674896311015e-03
    24    1.252094030074e-02
    25   -3.060565203179e-02
    26    1.138816719697e-02
    27   -2.246647722580e-06
    28   -3.737923289112e-02
    29   -5.084537240894e-02
    30    1.404673363199e-02
    31   -3.131522541306e-06
    32   -5.228806818894e-02
    33    5.183157940776e-02
    34   -1.920015667576e-02
    35   -9.784648101207e-06
    36   -2.418291272257e-01
    37    6.510291712693e-01
    38   -2.957789200254e-01
    39   -4.331215389444e-05
    40   -5.099937865333e-05
    41   -7.896416624432e-07
    42   -2.602450895561e-07
    43    5.626442212848e-03
    44    3.451440462298e-03
    45   -3.126772287577e-06
    46   -5.371454114521e-06
    47    1.672524008043e-05
    48   -3.674320776074e-02
    49   -3.854200050435e-06
    50    1.677675767551e-05
    51    2.965909914620e-05
    52   -6.042242226582e-02
    53   -5.271441766365e-06
    54    7.024682128383e-05
    55    4.519819668392e-05
    56   -8.327098176973e-02
    57   -6.124359413044e-06
    58   -2.291242650109e-04
    59    5.835777494619e-06
    60   -5.363287265609e-01
    61   -1.897129177067e-07
    62   -4.778186219301e-07
    63   -8.563331540407e-07
    64   -2.402083851183e-06
    65    3.717509512066e-06
    66    3.693452135245e-03
    67   -7.676913504037e-03
    68   -1.252420623171e-02
    69    3.059300602338e-02
    70    1.138011494820e-02
    71    6.637641449983e-06
    72    3.738881173620e-02
    73    5.082940925954e-02
    74    1.403607362882e-02
    75    1.019104374941e-05
    76    5.231784765450e-02
    77   -5.187818988919e-02
    78   -1.921244532369e-02
    79    8.605580880881e-06
    80    2.422345699327e-01
    81   -6.510365050977e-01
    82   -2.957082767095e-01
    83   -2.628120017770e-05
    84    5.071409378783e-05
    85   -2.052722146120e-06
    86    4.375488321449e-07
    87   -5.625416025120e-03
    88    3.451721839662e-03
    89   -5.012310688065e-07
    90   -7.990932927458e-07
    91    2.383589595917e-06
    92    9.348333011109e-03
    93    6.893294641318e-06
    94    2.250237940539e-06
    95    3.618229019945e-06