[Molden Format]
[Atoms] (Angs)
  C      1    6     -1.82075000      1.21221000      0.00007000
  C      2    6     -0.42782000      1.22011000      0.00011000
  C      3    6      0.24287000      0.00002000     -0.00001000
  C      4    6     -0.42786000     -1.22012000      0.00003000
  C      5    6     -2.51579000      0.00002000      0.00000000
  H      6    1     -2.36155000      2.15093000     -0.00002000
  H      7    1      0.13769000      2.14227000      0.00006000
  H      8    1      0.13768000     -2.14225000     -0.00012000
  H      9    1     -3.59985000     -0.00001000     -0.00023000
  N     10    7      1.70520000      0.00000000     -0.00004000
  O     11    8      2.29572000     -1.10489000      0.00011000
  O     12    8      2.29576000      1.10486000     -0.00013000
  C     13    6     -1.82075000     -1.21220000     -0.00006000
  H     14    1     -2.36162000     -2.15087000     -0.00013000
[GTO]
1    0
S    6    1.000000
   4.56324000E+03    1.96665000E-03 
   6.82024000E+02    1.52306000E-02 
   1.54973000E+02    7.61269000E-02 
   4.44553000E+01    2.60801000E-01 
   1.30290000E+01    6.16462000E-01 
   1.82773000E+00    2.21006000E-01 
SP   3    1.000000
   2.09642000E+01    1.14660000E-01   4.02487000E-02 
   4.80331000E+00    9.19999000E-01   2.37594000E-01 
   1.45933000E+00   -3.03068000E-03   8.15854000E-01 
SP   1    1.000000
   4.83456000E-01    1.00000000E+00   1.00000000E+00 
SP   1    1.000000
   1.45585000E-01    1.00000000E+00   1.00000000E+00 
SP   1    1.000000
   4.38000000E-02    1.00000000E+00   1.00000000E+00 
D    1    1.000000
   6.26000000E-01    1.00000000E+00 

2    0
S    6    1.000000
   4.56324000E+03    1.96665000E-03 
   6.82024000E+02    1.52306000E-02 
   1.54973000E+02    7.61269000E-02 
   4.44553000E+01    2.60801000E-01 
   1.30290000E+01    6.16462000E-01 
   1.82773000E+00    2.21006000E-01 
SP   3    1.000000
   2.09642000E+01    1.14660000E-01   4.02487000E-02 
   4.80331000E+00    9.19999000E-01   2.37594000E-01 
   1.45933000E+00   -3.03068000E-03   8.15854000E-01 
SP   1    1.000000
   4.83456000E-01    1.00000000E+00   1.00000000E+00 
SP   1    1.000000
   1.45585000E-01    1.00000000E+00   1.00000000E+00 
SP   1    1.000000
   4.38000000E-02    1.00000000E+00   1.00000000E+00 
D    1    1.000000
   6.26000000E-01    1.00000000E+00 

3    0
S    6    1.000000
   4.56324000E+03    1.96665000E-03 
   6.82024000E+02    1.52306000E-02 
   1.54973000E+02    7.61269000E-02 
   4.44553000E+01    2.60801000E-01 
   1.30290000E+01    6.16462000E-01 
   1.82773000E+00    2.21006000E-01 
SP   3    1.000000
   2.09642000E+01    1.14660000E-01   4.02487000E-02 
   4.80331000E+00    9.19999000E-01   2.37594000E-01 
   1.45933000E+00   -3.03068000E-03   8.15854000E-01 
SP   1    1.000000
   4.83456000E-01    1.00000000E+00   1.00000000E+00 
SP   1    1.000000
   1.45585000E-01    1.00000000E+00   1.00000000E+00 
SP   1    1.000000
   4.38000000E-02    1.00000000E+00   1.00000000E+00 
D    1    1.000000
   6.26000000E-01    1.00000000E+00 

4    0
S    6    1.000000
   4.56324000E+03    1.96665000E-03 
   6.82024000E+02    1.52306000E-02 
   1.54973000E+02    7.61269000E-02 
   4.44553000E+01    2.60801000E-01 
   1.30290000E+01    6.16462000E-01 
   1.82773000E+00    2.21006000E-01 
SP   3    1.000000
   2.09642000E+01    1.14660000E-01   4.02487000E-02 
   4.80331000E+00    9.19999000E-01   2.37594000E-01 
   1.45933000E+00   -3.03068000E-03   8.15854000E-01 
SP   1    1.000000
   4.83456000E-01    1.00000000E+00   1.00000000E+00 
SP   1    1.000000
   1.45585000E-01    1.00000000E+00   1.00000000E+00 
SP   1    1.000000
   4.38000000E-02    1.00000000E+00   1.00000000E+00 
D    1    1.000000
   6.26000000E-01    1.00000000E+00 

5    0
S    6    1.000000
   4.56324000E+03    1.96665000E-03 
   6.82024000E+02    1.52306000E-02 
   1.54973000E+02    7.61269000E-02 
   4.44553000E+01    2.60801000E-01 
   1.30290000E+01    6.16462000E-01 
   1.82773000E+00    2.21006000E-01 
SP   3    1.000000
   2.09642000E+01    1.14660000E-01   4.02487000E-02 
   4.80331000E+00    9.19999000E-01   2.37594000E-01 
   1.45933000E+00   -3.03068000E-03   8.15854000E-01 
SP   1    1.000000
   4.83456000E-01    1.00000000E+00   1.00000000E+00 
SP   1    1.000000
   1.45585000E-01    1.00000000E+00   1.00000000E+00 
SP   1    1.000000
   4.38000000E-02    1.00000000E+00   1.00000000E+00 
D    1    1.000000
   6.26000000E-01    1.00000000E+00 

6    0
S    3    1.000000
   3.38650000E+01    2.54938000E-02 
   5.09479000E+00    1.90373000E-01 
   1.15879000E+00    8.52161000E-01 
S    1    1.000000
   3.25840000E-01    1.00000000E+00 
S    1    1.000000
   1.02741000E-01    1.00000000E+00 

7    0
S    3    1.000000
   3.38650000E+01    2.54938000E-02 
   5.09479000E+00    1.90373000E-01 
   1.15879000E+00    8.52161000E-01 
S    1    1.000000
   3.25840000E-01    1.00000000E+00 
S    1    1.000000
   1.02741000E-01    1.00000000E+00 

8    0
S    3    1.000000
   3.38650000E+01    2.54938000E-02 
   5.09479000E+00    1.90373000E-01 
   1.15879000E+00    8.52161000E-01 
S    1    1.000000
   3.25840000E-01    1.00000000E+00 
S    1    1.000000
   1.02741000E-01    1.00000000E+00 

9    0
S    3    1.000000
   3.38650000E+01    2.54938000E-02 
   5.09479000E+00    1.90373000E-01 
   1.15879000E+00    8.52161000E-01 
S    1    1.000000
   3.25840000E-01    1.00000000E+00 
S    1    1.000000
   1.02741000E-01    1.00000000E+00 

10    0
S    6    1.000000
   6.29348000E+03    1.96979000E-03 
   9.49044000E+02    1.49613000E-02 
   2.18776000E+02    7.35006000E-02 
   6.36916000E+01    2.48937000E-01 
   1.88282000E+01    6.02460000E-01 
   2.72023000E+00    2.56202000E-01 
SP   3    1.000000
   3.06331000E+01    1.11906000E-01   3.83119000E-02 
   7.02614000E+00    9.21666000E-01   2.37403000E-01 
   2.11205000E+00   -2.56919000E-03   8.17592000E-01 
SP   1    1.000000
   6.84009000E-01    1.00000000E+00   1.00000000E+00 
SP   1    1.000000
   2.00878000E-01    1.00000000E+00   1.00000000E+00 
SP   1    1.000000
   6.39000000E-02    1.00000000E+00   1.00000000E+00 
D    1    1.000000
   9.13000000E-01    1.00000000E+00 

11    0
S    6    1.000000
   8.58850000E+03    1.89515000E-03 
   1.29723000E+03    1.43859000E-02 
   2.99296000E+02    7.07320000E-02 
   8.73771000E+01    2.40001000E-01 
   2.56789000E+01    5.94797000E-01 
   3.74004000E+00    2.80802000E-01 
SP   3    1.000000
   4.21175000E+01    1.13889000E-01   3.65114000E-02 
   9.62837000E+00    9.20811000E-01   2.37153000E-01 
   2.85332000E+00   -3.27447000E-03   8.19702000E-01 
SP   1    1.000000
   9.05661000E-01    1.00000000E+00   1.00000000E+00 
SP   1    1.000000
   2.55611000E-01    1.00000000E+00   1.00000000E+00 
SP   1    1.000000
   8.45000000E-02    1.00000000E+00   1.00000000E+00 
D    1    1.000000
   1.29200000E+00    1.00000000E+00 

12    0
S    6    1.000000
   8.58850000E+03    1.89515000E-03 
   1.29723000E+03    1.43859000E-02 
   2.99296000E+02    7.07320000E-02 
   8.73771000E+01    2.40001000E-01 
   2.56789000E+01    5.94797000E-01 
   3.74004000E+00    2.80802000E-01 
SP   3    1.000000
   4.21175000E+01    1.13889000E-01   3.65114000E-02 
   9.62837000E+00    9.20811000E-01   2.37153000E-01 
   2.85332000E+00   -3.27447000E-03   8.19702000E-01 
SP   1    1.000000
   9.05661000E-01    1.00000000E+00   1.00000000E+00 
SP   1    1.000000
   2.55611000E-01    1.00000000E+00   1.00000000E+00 
SP   1    1.000000
   8.45000000E-02    1.00000000E+00   1.00000000E+00 
D    1    1.000000
   1.29200000E+00    1.00000000E+00 

13    0
S    6    1.000000
   4.56324000E+03    1.96665000E-03 
   6.82024000E+02    1.52306000E-02 
   1.54973000E+02    7.61269000E-02 
   4.44553000E+01    2.60801000E-01 
   1.30290000E+01    6.16462000E-01 
   1.82773000E+00    2.21006000E-01 
SP   3    1.000000
   2.09642000E+01    1.14660000E-01   4.02487000E-02 
   4.80331000E+00    9.19999000E-01   2.37594000E-01 
   1.45933000E+00   -3.03068000E-03   8.15854000E-01 
SP   1    1.000000
   4.83456000E-01    1.00000000E+00   1.00000000E+00 
SP   1    1.000000
   1.45585000E-01    1.00000000E+00   1.00000000E+00 
SP   1    1.000000
   4.38000000E-02    1.00000000E+00   1.00000000E+00 
D    1    1.000000
   6.26000000E-01    1.00000000E+00 

14    0
S    3    1.000000
   3.38650000E+01    2.54938000E-02 
   5.09479000E+00    1.90373000E-01 
   1.15879000E+00    8.52161000E-01 
S    1    1.000000
   3.25840000E-01    1.00000000E+00 
S    1    1.000000
   1.02741000E-01    1.00000000E+00 

[MO]
Sym=X
Ene= -0.058806
Spin=Alpha
Occup=1
     1    5.884876176842e-03
     2    9.337662032036e-03
     3   -4.154989675607e-02
     4    1.259325814063e-01
     5   -1.494377706705e-04
     6   -3.120803387080e-02
     7   -6.615541140923e-02
     8    1.898100522434e-01
     9   -2.448112963674e-04
    10   -7.827669215046e-05
    11   -6.163286253866e-02
    12    1.335665647609e-01
    13   -1.657288080077e-04
    14   -2.498295710675e-01
    15   -2.627664822973e-01
    16   -1.231985455198e-01
    17   -3.005527602557e-05
    18   -2.671611340359e-03
    19   -1.775843375291e-05
    20    7.129591788554e-06
    21   -1.118563166436e-02
    22   -2.061354272880e-02
    23    9.204149273326e-04
    24    1.298780018774e-03
    25    5.286792588302e-02
    26   -2.926037346737e-02
    27   -2.030037588104e-04
    28   -2.017399663811e-03
    29    7.801235298671e-02
    30   -3.948045985814e-02
    31   -3.305343906503e-04
    32   -3.112778831655e-03
    33    1.184210484822e-02
    34   -3.247830295737e-02
    35   -2.340493542368e-04
    36   -2.896856198305e-01
    37   -3.916589422592e-01
    38    2.154849491314e-01
    39    3.060769059734e-05
    40   -5.898657914743e-04
    41    3.633060354290e-06
    42    2.233656138039e-05
    43   -3.117401546900e-03
    44   -1.887544319322e-02
    45    1.324265713512e-04
    46    2.137955848180e-04
    47   -1.990498609416e-04
    48    7.701278638854e-02
    49   -2.160549888088e-04
    50   -6.316633446028e-04
    51   -3.677417828473e-04
    52    1.116533003051e-01
    53   -3.548901835558e-04
    54   -1.692753808551e-03
    55   -6.910552784092e-04
    56    8.811667180298e-02
    57   -2.658631284919e-04
    58    4.827837463624e-04
    59   -2.894597514897e-05
    60    5.760654248913e-01
    61   -3.333830027609e-05
    62   -9.361202331729e-06
    63    1.135070872192e-05
    64   -7.918867724947e-06
    65    1.234007025315e-04
    66   -6.794755721636e-04
    67   -1.227722200381e-03
    68   -1.787526720673e-03
    69   -5.445704567145e-02
    70   -2.894681413894e-02
    71   -1.355144521227e-04
    72    3.394881946557e-03
    73   -8.025568489338e-02
    74   -3.893853290036e-02
    75   -2.227601634329e-04
    76    3.583866012080e-03
    77   -1.291105149011e-02
    78   -3.208066151393e-02
    79   -1.352213284088e-04
    80    2.830626668806e-01
    81    3.934067944086e-01
    82    2.149210959393e-01
    83    1.961155127464e-05
    84    5.847758134115e-04
    85   -9.248460329836e-07
    86   -2.211750020386e-05
    87    3.193056000707e-03
    88   -1.892049547209e-02
    89   -6.891608900121e-05
    90   -1.082253041535e-04
    91   -1.032728308718e-03
    92   -1.011757122538e-01
    93   -9.611195408599e-05
    94    2.434157700978e-04
    95   -1.583256000677e-03
    96   -1.421507027846e-01
    97   -1.560927585142e-04
    98    7.487984160280e-04
    99   -1.260561205918e-03
   100   -9.628144277261e-02
   101   -8.918495767221e-05
   102   -4.326011760532e-03
   103   -9.435021789496e-04
   104   -2.287873794390e-01
   105   -3.657855948463e-06
   106   -2.466704520339e-05
   107   -1.547509661162e-05
   108   -6.934712095000e-06
   109    3.485567326257e-04
   110   -1.895215834635e-02
   111    1.114160701141e-01
   112    1.492405851952e-01
   113    4.998505705044e-02
   114   -1.266788159433e-02
   115   -2.464387302832e-02
   116   -1.718838035481e-02
   117    1.212443835692e-02
   118    2.395080624372e-02
   119    1.696253892471e-02
   120    1.085062812426e-03
   121    1.459661888267e-03
   122    5.632823936098e-04
   123   -9.150778249344e-06
   124   -1.558814817614e-05
   125   -2.486710755814e-04
   126    3.733759762545e-03
   127   -3.693409672873e-05
   128    5.383452320755e-05
   129   -3.487932653964e-04
   130    8.186365885882e-03
   131   -6.127587558767e-05
   132    2.334706410713e-04
   133   -9.090913164564e-04
   134   -2.892622377437e-02
   135   -2.616675356840e-05
   136   -4.107394345800e-04
   137   -9.504724247421e-04
   138   -1.181518599337e-02
   139    5.841943150174e-05
   140    5.254166510755e-06
   141    1.941083969356e-05
   142   -2.278265642270e-05
   143   -2.147808891525e-04
   144    1.177830068604e-02
   145    9.672675798773e-04
   146    1.683457082766e-03
   147   -7.790282553163e-02
   148   -5.770760434849e-02
   149    1.258590633676e-04
   150   -6.260380551719e-03
   151   -1.159399515157e-01
   152   -8.485925075566e-02
   153    1.851809341001e-04
   154   -1.899009453933e-02
   155   -1.072800621047e-01
   156   -8.365458255624e-02
   157    1.889834874316e-04
   158    1.782312822305e-02
   159   -1.172178416567e-02
   160    6.790254804134e-03
   161    3.905415288159e-06
   162   -1.377133040696e-04
   163   -2.677457126023e-06
   164    7.127312946508e-06
   165    5.769780078272e-03
   166   -2.389230708555e-03
   167   -1.034757720174e-03
   168   -1.793156463927e-03
   169    7.645504302487e-02
   170   -5.703358856989e-02
   171   -5.908495444045e-05
   172    6.602893202428e-03
   173    1.138087904889e-01
   174   -8.385830831274e-02
   175   -8.825793538665e-05
   176    1.973318827567e-02
   177    1.053314259377e-01
   178   -8.302566158267e-02
   179   -7.568337702618e-05
   180   -1.668705026065e-02
   181    1.178181162008e-02
   182    6.458091703068e-03
   183   -2.404907866496e-05
   184    1.477284011088e-04
   185    5.147391774444e-06
   186    4.776897096496e-06
   187   -5.662708648965e-03
   188   -2.320042666220e-03
   189   -5.526965019315e-03
   190   -8.769328623008e-03
   191    4.361694186943e-02
   192    1.263465531953e-01
   193   -7.209548207822e-05
   194    2.968934194960e-02
   195    6.919298748231e-02
   196    1.905876686762e-01
   197   -1.179149972018e-04
   198   -1.436040150845e-03
   199    6.379367330398e-02
   200    1.340235250650e-01
   201   -6.706239085878e-05
   202    2.601243283554e-01
   203    2.640398355694e-01
   204   -1.217267558685e-01
   205    7.680278198275e-06
   206    2.704816341116e-03
   207   -1.137946212029e-05
   208   -1.139112135848e-05
   209    1.158922853710e-02
   210   -2.082886816872e-02
   211   -1.129895475654e-01
   212   -1.512174463094e-01
   213   -5.065731122145e-02
Sym=X
Ene= -0.162619
Spin=Alpha
Occup=1
     1   -3.938246035514e-03
     2   -6.221116670697e-03
     3    6.238871521291e-03
     4    6.432417538959e-02
     5    4.689381534803e-04
     6    1.326669343557e-02
     7    4.118577142816e-03
     8    9.569866805976e-02
     9    7.637930948669e-04
    10    9.510182433081e-02
    11    4.560674642019e-02
    12    8.867245179149e-02
    13    5.240353476550e-04
    14    4.063949072751e-01
    15    4.141867927188e-01
    16    2.129638228540e-01
    17    6.640758417925e-05
    18   -1.447416458165e-03
    19    4.512532601253e-05
    20   -4.496212462876e-05
    21   -5.716212207688e-03
    22   -1.261395254190e-02
    23    1.081208220035e-02
    24    1.744444042714e-02
    25   -1.347767424029e-02
    26   -3.079468077147e-02
    27    5.752059837438e-04
    28   -4.914707767268e-02
    29   -2.813996882065e-02
    30   -4.772283742154e-02
    31    9.418246065709e-04
    32   -7.201679316632e-02
    33    6.115910691023e-02
    34   -7.546285854038e-02
    35    6.196990912874e-04
    36   -4.949986010118e-01
    37    4.998982408268e-01
    38   -2.055051258169e-01
    39   -5.397267748807e-05
    40    3.005785508350e-04
    41   -2.032616164943e-05
    42   -6.735272994943e-05
    43    6.978212844447e-03
    44   -1.230939739138e-02
    45    2.789465872216e-05
    46    4.619890302823e-05
    47   -1.147345747525e-04
    48    2.294951263721e-02
    49    6.626306192389e-04
    50   -1.391779261522e-04
    51   -2.033945421484e-04
    52    2.425843890620e-02
    53    1.083248096842e-03
    54   -4.918896486310e-04
    55   -2.859650900847e-04
    56   -3.702300533876e-02
    57    8.442799167621e-04
    58    5.225417588579e-04
    59   -2.513763024629e-05
    60   -2.331648991035e-01
    61    1.445193673914e-04
    62    1.822747381791e-06
    63   -5.990160576783e-05
    64    1.577129305909e-06
    65   -2.035338198289e-05
    66    4.801375170864e-04
    67   -1.082777109706e-02
    68   -1.746919865780e-02
    69    1.352471951074e-02
    70   -3.076602675686e-02
    71    5.568617125920e-04
    72    4.921184834865e-02
    73    2.820586349279e-02
    74   -4.768387995798e-02
    75    9.114196022884e-04
    76    7.205900109736e-02
    77   -6.092165944259e-02
    78   -7.539198906853e-02
    79    5.941399047544e-04
    80    4.936850157241e-01
    81   -4.997449868349e-01
    82   -2.057688518568e-01
    83   -6.216320242479e-05
    84   -3.018868692329e-04
    85   -1.948911239324e-05
    86    6.978719569425e-05
    87   -6.989623336970e-03
    88   -1.232582440250e-02
    89   -5.928920112201e-06
    90   -9.499118739913e-06
    91   -4.780171631424e-05
    92   -6.441792429957e-02
    93    4.089317128357e-04
    94    2.391848928920e-05
    95   -7.474882632282e-05
    96   -9.330261513637e-02
    97    6.687451183015e-04
    98    6.132511310849e-05
    99   -4.277270563696e-05
   100   -3.884863869936e-02
   101    4.263916004191e-04
   102   -8.218411069081e-04
   103   -1.396876884841e-04
   104    3.775217177660e-01
   105   -4.413332409581e-06
   106   -2.062317044098e-06
   107    5.578098028954e-05
   108    1.457214575956e-06
   109    6.366737578486e-06
   110   -7.540655873366e-03
   111    5.328037460375e-02
   112    6.683450712440e-02
   113    2.254217091162e-02
   114   -3.871215882062e-02
   115   -5.143547030622e-02
   116    7.056668034702e-03
   117    3.875188161976e-02
   118    5.148290460955e-02
   119   -7.043519420340e-03
   120    4.507685079160e-05
   121    5.204797234800e-05
   122    1.600063658479e-05
   123   -5.179313445769e-06
   124   -8.036639576923e-06
   125    6.190556866307e-05
   126   -1.353456066486e-02
   127   -1.430759648779e-04
   128    2.286766659503e-05
   129    1.030255305967e-04
   130   -2.621812801445e-02
   131   -2.181205486958e-04
   132    2.230238364294e-05
   133   -1.445785717043e-04
   134    9.800004491150e-02
   135   -2.236131519209e-04
   136   -2.041753108484e-04
   137   -2.533765528232e-04
   138   -1.653902336748e-01
   139   -2.141911377376e-04
   140   -8.262361833790e-06
   141   -7.967679011633e-05
   142   -1.078449340812e-06
   143   -8.449201786717e-05
   144   -3.922100509009e-02
   145   -1.964699926139e-03
   146   -3.162649853025e-03
   147    1.455934832030e-01
   148    1.336706108508e-01
   149   -2.486161330179e-04
   150    1.120643026749e-02
   151    2.167507313291e-01
   152    1.962481169519e-01
   153   -3.709157842297e-04
   154    6.188563594278e-02
   155    1.912500157276e-01
   156    1.966649710874e-01
   157   -3.298209346950e-04
   158   -1.159404837133e-01
   159    2.377685545156e-02
   160   -1.855521768404e-02
   161    5.481174877488e-05
   162   -6.779832344188e-05
   163    8.587957149343e-06
   164   -2.512139509766e-05
   165   -1.247146455635e-02
   166    4.063990088244e-03
   167    1.974056232874e-03
   168    3.177936045718e-03
   169   -1.461965007476e-01
   170    1.337707180734e-01
   171   -2.570293473900e-04
   172   -1.124631445130e-02
   173   -2.176352101601e-01
   174    1.963994738797e-01
   175   -3.843531245562e-04
   176   -6.184909117070e-02
   177   -1.920593174495e-01
   178    1.967733310068e-01
   179   -3.373666377014e-04
   180    1.162614156968e-01
   181   -2.380446982195e-02
   182   -1.862617296303e-02
   183    3.651631484002e-05
   184    6.156213809436e-05
   185    9.513507417725e-06
   186    2.518583127121e-05
   187    1.249542024652e-02
   188    4.090846359768e-03
   189    3.964561771617e-03
   190    6.263030069519e-03
   191   -6.259728655709e-03
   192    6.431194123062e-02
   193    4.570901660202e-04
   194   -1.338423198856e-02
   195   -4.146530980032e-03
   196    9.568426905775e-02
   197    7.456308524826e-04
   198   -9.505897888986e-02
   199   -4.556523080655e-02
   200    8.861921646385e-02
   201    4.981310940681e-04
   202   -4.047887079043e-01
   203   -4.140652920588e-01
   204    2.132807975531e-01
   205    2.104894741733e-05
   206    1.448004005650e-03
   207    4.208952263884e-05
   208    4.327075213247e-05
   209    5.722411533911e-03
   210   -1.261550685376e-02
   211   -5.328226533116e-02
   212   -6.683874486133e-02
   213   -2.255711019519e-02
Sym=X
Ene= -0.227252
Spin=Alpha
Occup=1
     1   -2.244252893988e-05
     2   -3.527615431490e-05
     3    1.245795152824e-04
     4    1.533320623328e-04
     5   -9.591568847208e-02
     6    8.435204939714e-05
     7    1.654803963424e-04
     8    2.218917552715e-04
     9   -1.564082734620e-01
    10    4.966021361826e-04
    11    3.700927312947e-04
    12    2.547240441547e-04
    13   -1.089872148586e-01
    14    2.073324202787e-03
    15    2.571835954217e-03
    16    1.399531800123e-03
    17   -6.810191616808e-03
    18   -2.575867641810e-06
    19   -6.085170917678e-03
    20    9.888010836949e-03
    21   -1.219498455421e-05
    22   -3.213788140635e-05
    23    5.505662893757e-05
    24    8.922280668850e-05
    25   -1.630570965614e-04
    26   -8.294401825915e-05
    27   -9.700740334729e-02
    28   -2.542392296974e-04
    29   -2.817169524730e-04
    30   -1.378109776871e-04
    31   -1.587692454471e-01
    32   -3.999070374318e-04
    33    3.032043609371e-04
    34   -2.965999971754e-04
    35   -1.025149001187e-01
    36   -1.751376338978e-03
    37    3.213585854769e-03
    38   -1.506700343059e-03
    39    5.509358017716e-03
    40    4.449538277700e-06
    41    5.838173037183e-03
    42    1.075508984735e-02
    43    4.283882311346e-05
    44   -3.370783617347e-05
    45   -1.747061771774e-06
    46   -3.081536266659e-06
    47    2.967143410011e-05
    48    2.103888230932e-06
    49   -1.024609968751e-01
    50    8.724251716956e-06
    51    5.009219611259e-05
    52   -4.444249541601e-05
    53   -1.672553548820e-01
    54    9.840014453888e-05
    55    1.194714879745e-05
    56   -3.492439236749e-04
    57   -1.264869464031e-01
    58   -7.599683256396e-04
    59    1.268041127104e-04
    60   -2.012775569569e-03
    61   -1.972238823875e-02
    62   -4.156588101491e-06
    63    1.126513676630e-02
    64    1.534148831569e-07
    65    8.299757468880e-06
    66    7.724464442786e-06
    67   -4.959746489603e-05
    68   -8.048499219291e-05
    69    1.167662860469e-04
    70   -1.023400578233e-04
    71   -9.699944014712e-02
    72    2.332532460553e-04
    73    2.159673867626e-04
    74   -1.662613502725e-04
    75   -1.587536453623e-01
    76    2.980438943514e-04
    77   -3.437869334482e-04
    78   -3.653594492147e-04
    79   -1.025127468578e-01
    80    3.105565574965e-03
    81   -3.326015139671e-03
    82   -1.283237256034e-03
    83    5.494860855098e-03
    84    2.070965823850e-06
    85    5.836954064377e-03
    86   -1.075406978301e-02
    87   -3.731902808099e-05
    88   -3.769277707922e-05
    89   -3.802166262119e-07
    90   -5.123394601649e-07
    91    1.405586243136e-05
    92   -2.040794152256e-04
    93   -9.584160711475e-02
    94    1.637086167726e-06
    95    2.216119033743e-05
    96   -3.016653260147e-04
    97   -1.565357238273e-01
    98   -2.846392578320e-05
    99   -3.911943411064e-06
   100   -6.637404663755e-05
   101   -1.067588742304e-01
   102    5.274700914042e-04
   103    9.830719734868e-05
   104    2.361453609515e-03
   105    1.022140432155e-03
   106    9.674429382338e-07
   107   -1.133211809410e-02
   108   -8.454978340418e-07
   109    6.820853562518e-06
   110   -1.480227344781e-05
   111    1.007037638940e-04
   112    1.115304886715e-04
   113    4.370005358461e-05
   114   -1.647368016504e-04
   115   -2.146466221754e-04
   116    5.629524179714e-05
   117    1.616234092582e-04
   118    2.029730553444e-04
   119   -9.345053115621e-05
   120    6.597168890481e-06
   121    7.419110003807e-06
   122   -7.008703094592e-06
   123   -2.627915816121e-06
   124   -4.247535084078e-06
   125   -2.808891037590e-05
   126   -5.609879220669e-05
   127    3.058123271631e-02
   128    1.217953654134e-05
   129   -4.379760906350e-05
   130   -1.185455526063e-04
   131    4.700506959324e-02
   132    3.112988908841e-05
   133    3.229560225297e-07
   134    5.982179348295e-04
   135    4.362010952513e-02
   136    8.577243259908e-05
   137    2.235175756511e-05
   138   -9.178476109005e-04
   139    3.395935836956e-02
   140    2.047938040339e-06
   141    1.311306598878e-02
   142    2.110524482486e-05
   143    1.543469348682e-05
   144   -2.265581897696e-04
   145   -1.716225536827e-05
   146   -2.771566386835e-05
   147    9.640537201491e-04
   148    8.010160128138e-04
   149    3.946086538208e-02
   150    9.268474517512e-05
   151    1.433098569970e-03
   152    1.176832581478e-03
   153    5.913214837756e-02
   154    3.922928592831e-04
   155    1.272658759483e-03
   156    1.183722536379e-03
   157    5.022600627486e-02
   158   -7.116371371796e-04
   159    1.538294095002e-04
   160   -1.208696937647e-04
   161   -7.470573672304e-03
   162    6.207118731607e-07
   163   -1.801573022574e-03
   164    4.239479632757e-03
   165   -7.752158852113e-05
   166    2.872686178846e-05
   167    1.639668131488e-05
   168    2.644750469440e-05
   169   -8.543485660136e-04
   170    7.895099929767e-04
   171    3.963614243509e-02
   172   -9.020691158255e-05
   173   -1.272765698207e-03
   174    1.159660368858e-03
   175    5.939191003803e-02
   176   -4.008549427155e-04
   177   -1.120471042926e-03
   178    1.169737245703e-03
   179    5.047460012040e-02
   180    6.454659650331e-04
   181   -1.413733016997e-04
   182   -1.097924890175e-04
   183   -7.437183108802e-03
   184    3.650163588233e-07
   185   -1.809310763420e-03
   186   -4.250543238831e-03
   187    7.455576226565e-05
   188    2.432295142407e-05
   189    2.254904287151e-05
   190    3.541677294161e-05
   191   -6.213675960230e-05
   192    1.935908985980e-04
   193   -9.590755288203e-02
   194   -8.399547496484e-05
   195   -7.019453580100e-05
   196    2.868845219489e-04
   197   -1.563960148260e-01
   198   -4.801371994656e-04
   199   -2.968409243022e-04
   200    3.284989145969e-04
   201   -1.089697298279e-01
   202   -3.212334580086e-03
   203   -2.685404892737e-03
   204    1.233916499831e-03
   205   -6.799459103766e-03
   206    1.122593716474e-06
   207   -6.084699802921e-03
   208   -9.887626112292e-03
   209    1.587055077621e-05
   210   -3.833352221727e-05
   211   -1.468592730456e-04
   212   -1.693174334780e-04
   213   -4.436960319288e-05
Sym=X
Ene= -0.323846
Spin=Alpha
Occup=1
     1   -6.900107383982e-05
     2   -8.390263922773e-05
     3   -3.853768943439e-02
     4    2.180463085646e-02
     5   -4.161794197538e-05
     6   -2.200395557036e-03
     7   -5.619634464510e-02
     8    3.481486261983e-02
     9   -6.769873794335e-05
    10    5.929460539389e-02
    11   -1.985877372640e-02
    12    3.798938851505e-02
    13   -4.606178155863e-05
    14    3.357548105752e-01
    15    1.054619309208e-02
    16   -7.214258181485e-02
    17   -1.119302555045e-05
    18   -9.492827825922e-04
    19   -8.971864134301e-08
    20    3.828195278812e-06
    21   -3.587209403036e-03
    22   -8.585544339427e-03
    23    1.507300469117e-03
    24    2.611109682853e-03
    25    3.011446028249e-02
    26   -3.398334040559e-02
    27   -2.523052617261e-05
    28   -8.928744703782e-03
    29    4.023522502047e-02
    30   -4.980474450815e-02
    31   -4.132299086256e-05
    32   -2.015915000756e-02
    33    9.068840743983e-02
    34   -4.687645532739e-02
    35   -2.473423723061e-05
    36   -2.473734829299e-01
    37    1.365826845754e-02
    38    6.018604244356e-02
    39    9.011903161402e-06
    40   -2.882497767048e-05
    41    3.841774703772e-06
    42    2.407250409197e-06
    43   -5.897316824972e-03
    44    1.952827468347e-04
    45    8.676583196365e-03
    46    1.460655974129e-02
    47   -1.034161046308e-01
    48   -1.660780568523e-04
    49   -1.002361715868e-05
    50   -4.499895719058e-02
    51   -1.748710643755e-01
    52   -2.287499669680e-04
    53   -1.642073297624e-05
    54   -2.679025269784e-01
    55   -1.937358076070e-01
    56   -7.824175773965e-05
    57   -9.567699527244e-06
    58    1.935502175251e-01
    59    2.492010853538e-02
    60   -4.841757386606e-04
    61    1.317378755297e-05
    62    2.364754696035e-03
    63    3.851449017572e-06
    64    9.764976039717e-07
    65   -1.786947359594e-02
    66    8.785714211816e-06
    67    1.533976475753e-03
    68    2.653953092726e-03
    69    3.016147612803e-02
    70    3.424739736735e-02
    71   -2.722803824955e-05
    72   -9.040490045970e-03
    73    4.027696860176e-02
    74    5.019771916538e-02
    75   -4.415509498635e-05
    76   -2.037326050536e-02
    77    9.083760358093e-02
    78    4.729080229094e-02
    79   -2.933733073488e-05
    80   -2.495086207909e-01
    81    1.390883044159e-02
    82   -6.022088296011e-02
    83   -1.492832212934e-06
    84   -2.739880274989e-05
    85    4.163650473420e-06
    86   -2.215600959058e-06
    87   -5.876065075645e-03
    88   -9.796353649415e-05
    89    7.550270297415e-03
    90    1.201324484848e-02
    91   -1.367980061509e-03
    92    2.370210101940e-04
    93   -4.734564377888e-05
    94   -3.363549621755e-02
    95   -1.771535170811e-03