[Molden Format]
[Atoms] (Angs)
  C      1    6     -1.82075000      1.21221000      0.00007000
  C      2    6     -0.42782000      1.22011000      0.00011000
  C      3    6      0.24287000      0.00002000     -0.00001000
  C      4    6     -0.42786000     -1.22012000      0.00003000
  C      5    6     -2.51579000      0.00002000      0.00000000
  H      6    1     -2.36155000      2.15093000     -0.00002000
  H      7    1      0.13769000      2.14227000      0.00006000
  H      8    1      0.13768000     -2.14225000     -0.00012000
  H      9    1     -3.59985000     -0.00001000     -0.00023000
  N     10    7      1.70520000      0.00000000     -0.00004000
  O     11    8      2.29572000     -1.10489000      0.00011000
  O     12    8      2.29576000      1.10486000     -0.00013000
  C     13    6     -1.82075000     -1.21220000     -0.00006000
  H     14    1     -2.36162000     -2.15087000     -0.00013000
[GTO]
1    0
S    6    1.000000
   4.56324000E+03    1.96665000E-03 
   6.82024000E+02    1.52306000E-02 
   1.54973000E+02    7.61269000E-02 
   4.44553000E+01    2.60801000E-01 
   1.30290000E+01    6.16462000E-01 
   1.82773000E+00    2.21006000E-01 
SP   3    1.000000
   2.09642000E+01    1.14660000E-01   4.02487000E-02 
   4.80331000E+00    9.19999000E-01   2.37594000E-01 
   1.45933000E+00   -3.03068000E-03   8.15854000E-01 
SP   1    1.000000
   4.83456000E-01    1.00000000E+00   1.00000000E+00 
SP   1    1.000000
   1.45585000E-01    1.00000000E+00   1.00000000E+00 
SP   1    1.000000
   4.38000000E-02    1.00000000E+00   1.00000000E+00 
D    1    1.000000
   6.26000000E-01    1.00000000E+00 

2    0
S    6    1.000000
   4.56324000E+03    1.96665000E-03 
   6.82024000E+02    1.52306000E-02 
   1.54973000E+02    7.61269000E-02 
   4.44553000E+01    2.60801000E-01 
   1.30290000E+01    6.16462000E-01 
   1.82773000E+00    2.21006000E-01 
SP   3    1.000000
   2.09642000E+01    1.14660000E-01   4.02487000E-02 
   4.80331000E+00    9.19999000E-01   2.37594000E-01 
   1.45933000E+00   -3.03068000E-03   8.15854000E-01 
SP   1    1.000000
   4.83456000E-01    1.00000000E+00   1.00000000E+00 
SP   1    1.000000
   1.45585000E-01    1.00000000E+00   1.00000000E+00 
SP   1    1.000000
   4.38000000E-02    1.00000000E+00   1.00000000E+00 
D    1    1.000000
   6.26000000E-01    1.00000000E+00 

3    0
S    6    1.000000
   4.56324000E+03    1.96665000E-03 
   6.82024000E+02    1.52306000E-02 
   1.54973000E+02    7.61269000E-02 
   4.44553000E+01    2.60801000E-01 
   1.30290000E+01    6.16462000E-01 
   1.82773000E+00    2.21006000E-01 
SP   3    1.000000
   2.09642000E+01    1.14660000E-01   4.02487000E-02 
   4.80331000E+00    9.19999000E-01   2.37594000E-01 
   1.45933000E+00   -3.03068000E-03   8.15854000E-01 
SP   1    1.000000
   4.83456000E-01    1.00000000E+00   1.00000000E+00 
SP   1    1.000000
   1.45585000E-01    1.00000000E+00   1.00000000E+00 
SP   1    1.000000
   4.38000000E-02    1.00000000E+00   1.00000000E+00 
D    1    1.000000
   6.26000000E-01    1.00000000E+00 

4    0
S    6    1.000000
   4.56324000E+03    1.96665000E-03 
   6.82024000E+02    1.52306000E-02 
   1.54973000E+02    7.61269000E-02 
   4.44553000E+01    2.60801000E-01 
   1.30290000E+01    6.16462000E-01 
   1.82773000E+00    2.21006000E-01 
SP   3    1.000000
   2.09642000E+01    1.14660000E-01   4.02487000E-02 
   4.80331000E+00    9.19999000E-01   2.37594000E-01 
   1.45933000E+00   -3.03068000E-03   8.15854000E-01 
SP   1    1.000000
   4.83456000E-01    1.00000000E+00   1.00000000E+00 
SP   1    1.000000
   1.45585000E-01    1.00000000E+00   1.00000000E+00 
SP   1    1.000000
   4.38000000E-02    1.00000000E+00   1.00000000E+00 
D    1    1.000000
   6.26000000E-01    1.00000000E+00 

5    0
S    6    1.000000
   4.56324000E+03    1.96665000E-03 
   6.82024000E+02    1.52306000E-02 
   1.54973000E+02    7.61269000E-02 
   4.44553000E+01    2.60801000E-01 
   1.30290000E+01    6.16462000E-01 
   1.82773000E+00    2.21006000E-01 
SP   3    1.000000
   2.09642000E+01    1.14660000E-01   4.02487000E-02 
   4.80331000E+00    9.19999000E-01   2.37594000E-01 
   1.45933000E+00   -3.03068000E-03   8.15854000E-01 
SP   1    1.000000
   4.83456000E-01    1.00000000E+00   1.00000000E+00 
SP   1    1.000000
   1.45585000E-01    1.00000000E+00   1.00000000E+00 
SP   1    1.000000
   4.38000000E-02    1.00000000E+00   1.00000000E+00 
D    1    1.000000
   6.26000000E-01    1.00000000E+00 

6    0
S    3    1.000000
   3.38650000E+01    2.54938000E-02 
   5.09479000E+00    1.90373000E-01 
   1.15879000E+00    8.52161000E-01 
S    1    1.000000
   3.25840000E-01    1.00000000E+00 
S    1    1.000000
   1.02741000E-01    1.00000000E+00 

7    0
S    3    1.000000
   3.38650000E+01    2.54938000E-02 
   5.09479000E+00    1.90373000E-01 
   1.15879000E+00    8.52161000E-01 
S    1    1.000000
   3.25840000E-01    1.00000000E+00 
S    1    1.000000
   1.02741000E-01    1.00000000E+00 

8    0
S    3    1.000000
   3.38650000E+01    2.54938000E-02 
   5.09479000E+00    1.90373000E-01 
   1.15879000E+00    8.52161000E-01 
S    1    1.000000
   3.25840000E-01    1.00000000E+00 
S    1    1.000000
   1.02741000E-01    1.00000000E+00 

9    0
S    3    1.000000
   3.38650000E+01    2.54938000E-02 
   5.09479000E+00    1.90373000E-01 
   1.15879000E+00    8.52161000E-01 
S    1    1.000000
   3.25840000E-01    1.00000000E+00 
S    1    1.000000
   1.02741000E-01    1.00000000E+00 

10    0
S    6    1.000000
   6.29348000E+03    1.96979000E-03 
   9.49044000E+02    1.49613000E-02 
   2.18776000E+02    7.35006000E-02 
   6.36916000E+01    2.48937000E-01 
   1.88282000E+01    6.02460000E-01 
   2.72023000E+00    2.56202000E-01 
SP   3    1.000000
   3.06331000E+01    1.11906000E-01   3.83119000E-02 
   7.02614000E+00    9.21666000E-01   2.37403000E-01 
   2.11205000E+00   -2.56919000E-03   8.17592000E-01 
SP   1    1.000000
   6.84009000E-01    1.00000000E+00   1.00000000E+00 
SP   1    1.000000
   2.00878000E-01    1.00000000E+00   1.00000000E+00 
SP   1    1.000000
   6.39000000E-02    1.00000000E+00   1.00000000E+00 
D    1    1.000000
   9.13000000E-01    1.00000000E+00 

11    0
S    6    1.000000
   8.58850000E+03    1.89515000E-03 
   1.29723000E+03    1.43859000E-02 
   2.99296000E+02    7.07320000E-02 
   8.73771000E+01    2.40001000E-01 
   2.56789000E+01    5.94797000E-01 
   3.74004000E+00    2.80802000E-01 
SP   3    1.000000
   4.21175000E+01    1.13889000E-01   3.65114000E-02 
   9.62837000E+00    9.20811000E-01   2.37153000E-01 
   2.85332000E+00   -3.27447000E-03   8.19702000E-01 
SP   1    1.000000
   9.05661000E-01    1.00000000E+00   1.00000000E+00 
SP   1    1.000000
   2.55611000E-01    1.00000000E+00   1.00000000E+00 
SP   1    1.000000
   8.45000000E-02    1.00000000E+00   1.00000000E+00 
D    1    1.000000
   1.29200000E+00    1.00000000E+00 

12    0
S    6    1.000000
   8.58850000E+03    1.89515000E-03 
   1.29723000E+03    1.43859000E-02 
   2.99296000E+02    7.07320000E-02 
   8.73771000E+01    2.40001000E-01 
   2.56789000E+01    5.94797000E-01 
   3.74004000E+00    2.80802000E-01 
SP   3    1.000000
   4.21175000E+01    1.13889000E-01   3.65114000E-02 
   9.62837000E+00    9.20811000E-01   2.37153000E-01 
   2.85332000E+00   -3.27447000E-03   8.19702000E-01 
SP   1    1.000000
   9.05661000E-01    1.00000000E+00   1.00000000E+00 
SP   1    1.000000
   2.55611000E-01    1.00000000E+00   1.00000000E+00 
SP   1    1.000000
   8.45000000E-02    1.00000000E+00   1.00000000E+00 
D    1    1.000000
   1.29200000E+00    1.00000000E+00 

13    0
S    6    1.000000
   4.56324000E+03    1.96665000E-03 
   6.82024000E+02    1.52306000E-02 
   1.54973000E+02    7.61269000E-02 
   4.44553000E+01    2.60801000E-01 
   1.30290000E+01    6.16462000E-01 
   1.82773000E+00    2.21006000E-01 
SP   3    1.000000
   2.09642000E+01    1.14660000E-01   4.02487000E-02 
   4.80331000E+00    9.19999000E-01   2.37594000E-01 
   1.45933000E+00   -3.03068000E-03   8.15854000E-01 
SP   1    1.000000
   4.83456000E-01    1.00000000E+00   1.00000000E+00 
SP   1    1.000000
   1.45585000E-01    1.00000000E+00   1.00000000E+00 
SP   1    1.000000
   4.38000000E-02    1.00000000E+00   1.00000000E+00 
D    1    1.000000
   6.26000000E-01    1.00000000E+00 

14    0
S    3    1.000000
   3.38650000E+01    2.54938000E-02 
   5.09479000E+00    1.90373000E-01 
   1.15879000E+00    8.52161000E-01 
S    1    1.000000
   3.25840000E-01    1.00000000E+00 
S    1    1.000000
   1.02741000E-01    1.00000000E+00 

[MO]
Sym=X
Ene= -0.143725
Spin=Alpha
Occup=1
     1   -5.504911904886e-04
     2   -8.719412478246e-04
     3   -2.939885726943e-02
     4   -8.567494984955e-02
     5    3.440699266889e-05
     6    6.102170437995e-03
     7   -3.779030124048e-02
     8   -1.256379941102e-01
     9    5.713513880822e-05
    10   -7.818759658533e-02
    11   -5.460076237431e-02
    12   -1.112019061541e-01
    13    5.041620763485e-05
    14   -3.407193592123e-01
    15   -3.190599300796e-01
    16   -1.548078836178e-01
    17   -1.943787497959e-05
    18    9.099152866130e-04
    19   -1.132419381932e-05
    20   -5.842763031645e-06
    21    5.095880688296e-03
    22    1.880809204833e-02
    23   -5.019014738779e-03
    24   -8.278371611210e-03
    25    2.414517558478e-02
    26    6.222028174994e-02
    27   -5.630535994501e-05
    28    2.236209887244e-02
    29    4.382118940837e-02
    30    9.405864074176e-02
    31   -9.288178918095e-05
    32    5.973523980687e-02
    33   -3.992042977712e-02
    34    1.093212038419e-01
    35   -6.962589734006e-05
    36    5.741945425918e-01
    37   -3.569712653075e-01
    38    1.273357501620e-01
    39    1.511930865577e-05
    40   -5.338876877033e-04
    41   -1.076400165139e-05
    42    1.033612788336e-05
    43   -8.663043427291e-03
    44    1.892161249286e-02
    45    5.142204240208e-05
    46    8.553152994130e-05
    47   -4.012004582816e-04
    48   -5.533971498539e-02
    49   -1.283677400712e-04
    50   -2.580766455032e-04
    51   -6.834866509246e-04
    52   -7.205705310731e-02
    53   -2.114289026065e-04
    54   -1.172644816462e-03
    55   -8.139824554611e-04
    56    1.080884650609e-02
    57   -1.675953289691e-04
    58    7.886198804624e-04
    59    1.264446426057e-04
    60    5.633423098806e-02
    61   -4.802079974712e-05
    62    9.064745290483e-06
    63   -5.127201193304e-06
    64   -1.058747093349e-06
    65   -6.021262231327e-05
    66    5.529797753493e-03
    67    5.029487253967e-03
    68    8.296294341712e-03
    69   -2.400156539483e-02
    70    6.248686299063e-02
    71   -4.844112122684e-05
    72   -2.241982471459e-02
    73   -4.363678657293e-02
    74    9.445547115894e-02
    75   -7.956831632366e-05
    76   -5.992704439168e-02
    77    4.058966873194e-02
    78    1.096877536638e-01
    79   -5.707083225452e-05
    80   -5.764296517940e-01
    81    3.571181958389e-01
    82    1.268188824087e-01
    83    3.326930135865e-05
    84    5.356175473134e-04
    85   -9.738343863302e-06
    86   -1.426328091406e-05
    87    8.623939625047e-03
    88    1.891259153475e-02
    89    1.991698000282e-05
    90    3.149148364121e-05
    91   -2.391139367984e-05
    92    1.087419149644e-01
    93    8.719774454781e-05
    94   -9.016285205078e-05
    95   -3.682777870957e-05
    96    1.560689069547e-01
    97    1.412843128600e-04
    98   -3.025988893545e-05
    99   -1.290434816148e-05
   100    7.801493286723e-02
   101    1.209572214674e-04
   102   -1.762238277309e-03
   103   -2.553904434648e-04
   104   -2.880658381926e-01
   105    6.061461772257e-07
   106   -2.265329159885e-06
   107    3.567936051614e-06
   108   -6.903948361087e-07
   109   -1.685578564743e-05
   110    1.031415884634e-02
   111   -5.896984442328e-02
   112   -7.810358571188e-02
   113   -2.996877346100e-02
   114    6.418040974855e-02
   115    8.630292260232e-02
   116    5.509810914390e-03
   117   -6.423885068057e-02
   118   -8.635353269672e-02
   119   -5.502564338422e-03
   120   -1.050968559781e-05
   121   -2.259970786668e-05
   122   -5.320323135914e-06
   123   -1.706848594336e-06
   124   -1.740730393680e-06
   125    2.673610413929e-04
   126    1.402595680148e-02
   127   -9.818667445414e-05
   128    1.733147194189e-06
   129    4.333146820085e-04
   130    2.572303323691e-02
   131   -1.567535520648e-04
   132   -1.356966256868e-05
   133   -2.920966224462e-04
   134   -8.589280997913e-02
   135   -1.001506045100e-04
   136   -4.239540660554e-04
   137   -6.760087157276e-04
   138    1.406089969385e-01
   139    3.298701344001e-05
   140   -2.465719902567e-05
   141    5.559372254925e-06
   142    1.249408487541e-06
   143   -2.214478044585e-04
   144    3.394017252010e-02
   145    3.655728893822e-04
   146    5.493749811526e-04
   147   -1.143630065754e-01
   148   -1.119060854281e-01
   149   -1.167756416247e-05
   150   -2.717695280293e-03
   151   -1.704347385205e-01
   152   -1.641272831655e-01
   153   -2.018557636309e-05
   154   -4.724341201646e-02
   155   -1.484746989842e-01
   156   -1.648750540286e-01
   157    7.465158137093e-06
   158    9.052156140538e-02
   159   -1.830848428423e-02
   160    1.397663317018e-02
   161   -1.296348734943e-05
   162    3.223931013263e-04
   163    4.598720377337e-06
   164   -4.458409451603e-06
   165    1.003289899461e-02
   166   -3.099140655022e-03
   167   -3.648326885538e-04
   168   -5.473600850589e-04
   169    1.127593492638e-01
   170   -1.117215524176e-01
   171   -1.765121201021e-06
   172    2.729209533558e-03
   173    1.680832495255e-01
   174   -1.638482577609e-01
   175   -4.710979451576e-06
   176    4.740881922283e-02
   177    1.463106233995e-01
   178   -1.646555524035e-01
   179    1.797175694153e-05
   180   -8.977890652069e-02
   181    1.824306332728e-02
   182    1.380859001923e-02
   183    1.874530700736e-06
   184   -3.407764009756e-04
   185    3.712225199065e-06
   186    4.223753735226e-06
   187   -9.982946959852e-03
   188   -3.025809403158e-03
   189    5.702512453682e-04
   190    9.034403073465e-04
   191    2.920333959616e-02
   192   -8.577132260405e-02
   193    3.623903047568e-05
   194   -6.204023261892e-03
   195    3.750829110206e-02
   196   -1.257896886626e-01
   197    5.864259572512e-05
   198    7.857032541351e-02
   199    5.456720290431e-02
   200   -1.114340857821e-01
   201    6.006907375754e-05
   202    3.438696674286e-01
   203    3.191785592199e-01
   204   -1.541482470534e-01
   205    1.083260111339e-05
   206   -9.141842541563e-04
   207   -9.029190214009e-06
   208    7.878703167837e-06
   209   -5.106576566380e-03
   210    1.885998829257e-02
   211    5.913381898027e-02
   212    7.831413823038e-02
   213    3.001551959663e-02
Sym=X
Ene= -0.152944
Spin=Alpha
Occup=1
     1    2.758313977433e-03
     2    4.376117308486e-03
     3   -2.956195737443e-02
     4    9.998692476888e-03
     5   -3.348317821401e-07
     6   -1.386077186490e-02
     7   -4.255721165829e-02
     8    1.594114887332e-02
     9   -1.510595588786e-06
    10    4.687087327174e-02
    11   -9.147280794743e-03
    12    2.723604803261e-02
    13    7.869704243109e-06
    14    3.740478198301e-01
    15    1.431151574604e-02
    16   -8.112912344017e-02
    17    2.703311342308e-06
    18   -5.164487086114e-04
    19    8.490384606541e-06
    20    3.929511774962e-06
    21   -2.622370547439e-03
    22   -6.166395703845e-03
    23    1.369857874567e-03
    24    2.337723958538e-03
    25    2.462843971130e-02
    26   -3.112148096099e-02
    27    4.867190642024e-05
    28   -7.771209770391e-03
    29    3.263578668875e-02
    30   -4.577976430763e-02
    31    8.251041454574e-05
    32   -2.008999088270e-02
    33    8.891345033910e-02
    34   -4.314544444536e-02
    35    5.697536403948e-05
    36   -2.683330183312e-01
    37    1.578324572225e-02
    38    6.407379587926e-02
    39   -5.586149278318e-06
    40    9.810057337530e-05
    41    2.392119544274e-06
    42   -5.707741642329e-06
    43   -5.331521995590e-03
    44    1.850404014591e-03
    45    1.263804851938e-02
    46    2.102590415161e-02
    47   -9.984958106965e-02
    48    1.663686751691e-04
    49    6.848105871917e-05
    50   -6.370656572648e-02
    51   -1.698029832643e-01
    52    2.058697405991e-04
    53    1.120935752294e-04
    54   -2.901686539363e-01
    55   -1.999585573057e-01
    56   -1.114116538021e-04
    57    9.779129461356e-05
    58    2.025768323070e-01
    59    3.053973462251e-02
    60   -5.946569836302e-04
    61    3.140866701049e-05
    62    2.181876760811e-03
    63   -3.665258838999e-07
    64    1.417064550526e-06
    65   -1.636954197932e-02
    66   -1.357313442085e-05
    67    1.318516249866e-03
    68    2.253458211672e-03
    69    2.481716030338e-02
    70    3.072044715156e-02
    71    6.484470338041e-06
    72   -7.535181654561e-03
    73    3.298046943167e-02
    74    4.517091906632e-02
    75    8.112270086830e-06
    76   -1.958845752428e-02
    77    8.850876324480e-02
    78    4.236217183150e-02
    79    1.059696687066e-05
    80   -2.637314222489e-01
    81    1.219541374792e-02
    82   -6.544294384058e-02
    83    9.598267604388e-06
    84    9.505407545628e-05
    85    9.916994472317e-06
    86    5.239686770631e-06
    87   -5.397636848009e-03
    88   -1.976514624575e-03
    89    3.492080462651e-03
    90    5.518158409539e-03
    91    1.050035525971e-04
    92   -3.706891310123e-04
    93   -4.674360279782e-05
    94   -1.574824260432e-02
    95   -1.017201521317e-04
    96   -5.344688841632e-04
    97   -7.619041502389e-05
    98   -4.078845352511e-03
    99    4.597258293498e-03
   100   -2.467429034478e-04
   101   -6.825959447356e-05
   102   -4.284686819459e-01
   103   -6.167497169014e-02
   104    1.393895377624e-03
   105   -5.195457871397e-06
   106   -5.701815218128e-04
   107   -2.510918367086e-06
   108    5.195207173482e-06
   109   -5.529806019167e-03
   110   -3.552544037510e-05
   111    2.148587641382e-02
   112    2.768428726671e-02
   113    6.586743151091e-03
   114   -3.029135095986e-03
   115   -1.262395300513e-03
   116    2.451844267872e-03
   117   -2.593090158087e-03
   118   -6.783990148702e-04
   119    2.444483208551e-03
   120   -6.817246274122e-03
   121   -1.197980672425e-02
   122   -4.307870012417e-03
   123   -6.260353406011e-04
   124   -7.616604250227e-04
   125    6.970567031847e-02
   126   -5.465383556744e-05
   127    1.939864824603e-06
   128    1.484003444002e-03
   129    1.125522876779e-01
   130   -1.040389976130e-04
   131    3.202552202512e-06
   132   -3.066065814289e-03
   133   -6.649930523578e-02
   134    3.894525380830e-04
   135    6.335761418421e-07
   136   -1.061859428503e-01
   137   -1.649082286045e-01
   138   -6.307918303460e-04
   139   -2.891809889398e-05
   140   -6.263139772409e-03
   141   -8.918062773801e-06
   142   -3.350957861810e-05
   143   -5.489049463005e-02
   144   -1.503791867839e-04
   145    6.195094874924e-04
   146    1.117729510514e-03
   147   -1.967456437885e-01
   148   -2.035619807225e-02
   149    8.862802234359e-05
   150   -1.219321872123e-03
   151   -2.884527408703e-01
   152   -3.088972058841e-02
   153    1.315339005087e-04
   154    1.656185844287e-02
   155   -2.653503279739e-01
   156   -2.496210497345e-02
   157    1.244427992598e-04
   158    8.979673862604e-02
   159   -8.396338530829e-03
   160    1.996524458226e-02
   161    2.123502809195e-05
   162   -2.408427246584e-03
   163   -2.830361617059e-06
   164    5.576655752505e-06
   165    5.889225142337e-03
   166   -8.948761709911e-03
   167    6.287366162546e-04
   168    1.132494460211e-03
   169   -1.978331032131e-01
   170    2.138602573942e-02
   171   -1.355883604625e-04
   172   -1.275236434339e-03
   173   -2.900725525905e-01
   174    3.240116873471e-02
   175   -2.008724626204e-04
   176    1.610251585341e-02
   177   -2.667688554361e-01
   178    2.648152912528e-02
   179   -1.928427554966e-04
   180    9.064867300426e-02
   181   -8.572311068679e-03
   182   -2.010042786055e-02
   183   -1.851928167251e-05
   184   -2.407037609236e-03
   185    4.357557379741e-06
   186    8.720716613478e-06
   187    5.983733275355e-03
   188    8.978809281144e-03
   189    2.759956689379e-03
   190    4.378633576537e-03
   191   -2.976783517510e-02
   192   -9.407026179083e-03
   193   -5.196778798142e-05
   194   -1.383952232206e-02
   195   -4.281895199975e-02
   196   -1.507403675338e-02
   197   -8.375910413599e-05
   198    4.620009968567e-02
   199   -9.613448148212e-03
   200   -2.644184408786e-02
   201   -7.637270459473e-05
   202    3.708278719747e-01
   203    1.122402902420e-02
   204    8.264237028313e-02
   205   -1.124333642038e-05
   206   -5.096909978657e-04
   207    3.197685403273e-06
   208   -3.504245738036e-06
   209   -2.584398991838e-03
   210    6.040249560984e-03
   211    2.107834478210e-02
   212    2.715335548867e-02
   213    6.385447974340e-03
Sym=X
Ene= -0.348550
Spin=Alpha
Occup=1
     1    1.199901380676e-05
     2    1.902809126156e-05
     3    3.041011065945e-04
     4    5.965825242744e-05
     5    1.257163988792e-01
     6   -4.796965675775e-05
     7    4.366278004994e-04
     8    7.353006124945e-05
     9    2.045689881505e-01
    10   -1.345374477211e-04
    11    2.737468763827e-04
    12    4.216646159781e-05
    13    1.821559614778e-01
    14    4.951831858424e-04
    15   -3.166398305446e-04
    16   -2.966746512394e-04
    17    2.503886055139e-02
    18    4.511451538598e-07
    19    1.369863239783e-02
    20    1.452174113135e-03
    21    6.142925474636e-05
    22    1.522782463177e-05
    23   -2.496348794422e-05
    24   -3.983494136021e-05
    25   -3.067782068524e-04
    26   -4.471485123695e-05
    27    1.270600979639e-01
    28    1.210260549176e-04
    29   -4.365119595987e-04
    30   -8.575620932105e-05
    31    2.083419321279e-01
    32    2.585725129714e-05
    33   -3.065591756365e-04
    34   -7.646228122559e-05
    35    1.806915439134e-01
    36   -1.523697002577e-03
    37   -4.681948919459e-04
    38    4.184032623730e-04
    39    5.392061486117e-03
    40    1.774625969302e-06
    41   -1.362330029996e-02
    42    2.886053787882e-04
    43    2.568091277935e-05
    44   -1.795618740839e-05
    45    3.413010953865e-05
    46    5.533637880066e-05
    47    5.089051194575e-05
    48    2.611514680720e-06
    49   -2.400881869145e-04
    50   -1.556908277316e-04
    51    7.466820151967e-05
    52    3.228113031076e-06
    53   -3.947760515448e-04
    54   -2.423104978472e-04
    55    3.794145217339e-06
    56    2.273201606456e-05
    57   -3.692487818082e-04
    58   -4.547513319302e-04
    59   -6.217160104599e-05
    60    1.409079891465e-03
    61   -5.783969143266e-05
    62    1.850539463807e-06
    63    2.453522392649e-07
    64    2.595695784953e-02
    65    7.326386038465e-05
    66    2.075141735969e-06
    67   -1.756204871876e-05
    68   -2.768073867941e-05
    69   -3.235229938808e-04
    70    4.638549717659e-05
    71   -1.272611130446e-01
    72    8.433369746496e-05
    73   -4.620675028284e-04
    74    8.949190076622e-05
    75   -2.086699220566e-01
    76    3.644730290257e-06
    77   -3.170560422799e-04
    78    9.050570383745e-05
    79   -1.809612279985e-01
    80    9.092863321931e-04
    81    9.358890589059e-04
    82    5.683912665978e-04
    83   -5.403735985652e-03
    84    6.335811492188e-06
    85    1.356496474490e-02
    86    2.446463002618e-04
    87    2.613495227541e-05
    88    1.527892005690e-05
    89    1.126325191521e-05
    90    1.743896311521e-05
    91   -3.804027891676e-04
    92   -8.252029821168e-07
    93    2.574889195391e-04
    94   -6.569913009505e-05
    95   -5.766311949586e-04
    96   -1.265630579544e-06
    97    4.192067434219e-04
    98    1.500868248628e-04
    99   -4.187391990406e-04
   100   -2.754859978035e-06
   101    3.641506205216e-04
   102   -1.608532279127e-04
   103   -9.514078370619e-05
   104   -4.889928211347e-04
   105    3.819856504900e-05
   106   -4.892923607725e-06
   107    1.233503927672e-05
   108    2.467519248311e-02
   109    9.775890813117e-05
   110   -2.605258613418e-06
   111   -1.225268491646e-04
   112   -1.659317363224e-04
   113   -7.538541068333e-05
   114   -1.512988212771e-04
   115   -1.893976243311e-04
   116   -4.761417476597e-05
   117   -1.477259777053e-04
   118   -1.833880896536e-04
   119   -6.376983053536e-05
   120    3.507684501443e-04
   121    4.800035346377e-04
   122    1.829985392798e-04
   123   -2.333755092915e-05
   124   -3.793021380295e-05
   125   -1.481697086772e-04
   126   -2.688293723972e-07
   127    7.225715026664e-06
   128    1.183176705086e-04
   129   -2.197394484268e-04
   130   -3.393247460340e-07
   131    1.075716749467e-05
   132    1.516289583325e-04
   133   -2.136883562612e-04
   134   -6.994903334008e-06
   135    1.592312065886e-05
   136    9.442242031955e-05
   137   -1.030142481234e-04
   138   -1.563801928304e-04
   139    7.255993825231e-05
   140    9.640109060082e-06
   141    3.219925054566e-05
   142   -1.246480855109e-02
   143   -1.142337763633e-05
   144    1.814385676924e-06
   145   -1.027805518180e-05
   146   -1.686192387578e-05
   147   -3.948687876556e-05
   148   -6.586355293915e-05
   149    5.816475291075e-02
   150    5.090542351269e-05
   151   -5.992960748921e-05
   152   -9.681654638024e-05
   153    8.648064333911e-02
   154    7.785904810184e-05
   155   -4.464463395936e-05
   156   -6.394946120751e-05
   157    8.246574085526e-02
   158   -3.648395727225e-05
   159    3.144871298323e-05
   160    1.572215105343e-05
   161    1.059031533665e-02
   162    2.033583319843e-06
   163   -2.089619773663e-03
   164    3.694512577273e-03
   165    8.954241460335e-06
   166   -4.699278611185e-06
   167   -1.004035573304e-05
   168   -1.647759800585e-05
   169   -1.934761279606e-05
   170    5.594255313845e-05
   171   -5.799342828527e-02
   172    4.997027534253e-05
   173   -3.005168108053e-05
   174    8.292240166362e-05
   175   -8.622601001310e-02
   176    7.812087903228e-05
   177   -1.792494956921e-05
   178    4.516152431227e-05
   179   -8.222088950152e-02
   180    1.182920771741e-04
   181    5.999150464344e-06
   182   -2.071302562068e-05
   183   -1.059962690916e-02
   184    2.518767760280e-06
   185    2.085905470270e-03
   186    3.681824582296e-03
   187    7.794971738914e-06
   188    3.853233750641e-06
   189    9.336776227589e-06
   190    1.474150189266e-05
   191    3.329810647376e-04
   192   -4.095072150878e-05
   193   -1.254437736138e-01
   194   -3.367906913316e-05
   195    4.813862578531e-04
   196   -4.443699320637e-05
   197   -2.041252849386e-01
   198   -1.370315326875e-04
   199    3.033456474410e-04
   200   -2.104060648369e-05
   201   -1.817716318522e-01
   202    6.720045187743e-04
   203    5.822006530239e-04
   204   -2.969641450173e-04
   205   -2.501053347486e-02
   206   -1.011729505468e-06
   207   -1.375143305049e-02
   208    1.499715802876e-03
   209    6.370117362797e-05
   210   -1.571563953000e-05
   211   -1.322055139511e-04
   212   -1.826995170177e-04
   213   -8.551714770814e-05
Sym=X
Ene= -0.355433
Spin=Alpha
Occup=1
     1   -4.649469167284e-03
     2   -7.406245365878e-03
     3   -1.121942936469e-01
     4   -2.261613547283e-02
     5    3.427087774067e-04
     6    1.919492323214e-02
     7   -1.616119833754e-01
     8   -2.824800997473e-02
     9    5.592487594934e-04
    10    3.467634715244e-02
    11   -1.084560452463e-01
    12   -1.269887031947e-02
    13    4.968484642714e-04
    14   -3.230446458188e-01
    15   -5.694256630585e-02
    16    1.996278300142e-02
    17    6.209215224460e-05
    18    2.267156758798e-05
    19    3.550615704150e-05
    20    2.610314118432e-06
    21   -2.246914915951e-02
    22   -4.977553923437e-03
    23    8.058616746372e-03
    24    1.279382734438e-02
    25    1.123161077890e-01
    26    1.874942597209e-02
    27    3.446396316984e-04
    28   -3.911435320388e-02
    29    1.605677817897e-01
    30    3.476213213107e-02
    31    5.646664513622e-04
    32    5.950358693764e-03
    33    9.869879640146e-02
    34    2.784332900437e-02
    35    4.950485645710e-04
    36    2.025067276100e-01
    37   -9.703637594241e-02
    38    1.032386089613e-02
    39    1.909403490606e-05
    40   -1.234326543858e-03
    41   -3.844749070107e-05
    42    1.363877400976e-06
    43   -8.820380426571e-03
    44    6.211000724437e-03
    45   -1.333357843809e-02
    46   -2.169332706138e-02
    47   -7.020550387399e-03
    48   -4.032453099690e-05
    49   -9.197277479674e-06
    50    6.162771280588e-02
    51   -7.886039118233e-03
    52   -5.788547803263e-05
    53   -1.458233269737e-05
    54    1.104706341461e-01
    55    2.795339698307e-02
    56   -2.448609621969e-05
    57   -1.499903003586e-05
    58    9.630986426461e-02
    59    3.522244008832e-02
    60   -1.243128078516e-04
    61   -1.601373186459e-06
    62   -2.192522000189e-04
    63    1.664364720101e-06
    64    7.435250924242e-05
    65   -2.442417585390e-02
    66    6.209256812791e-06
    67    8.054884308556e-03
    68    1.278797224689e-02
    69    1.123115002241e-01
    70   -1.867302669545e-02
    71   -3.652782661235e-04
    72   -3.909429383117e-02
    73    1.605552924800e-01
    74   -3.464766787983e-02
    75   -5.980924214371e-04
    76    5.945667013611e-03
    77    9.869608927591e-02
    78   -2.774672039398e-02
    79   -5.226106718543e-04
    80    2.022165561840e-01
    81   -9.712350672367e-02
    82   -1.038837740591e-02
    83   -2.524137879206e-05
    84   -1.233739800984e-03
    85    3.460491870232e-05
    86    1.623285066206e-06
    87   -8.815076945613e-03
    88   -6.194489170831e-03
    89   -4.619455194843e-03
    90   -7.150380233809e-03
    91    1.403784574713e-01
    92    3.460334753116e-05
    93    2.351242405889e-05
    94    2.582282965097e-02
    95    2.128326517669e-01