[Molden Format]
[Atoms] (Angs)
  C      1    6     -1.82075000      1.21221000      0.00007000
  C      2    6     -0.42782000      1.22011000      0.00011000
  C      3    6      0.24287000      0.00002000     -0.00001000
  C      4    6     -0.42786000     -1.22012000      0.00003000
  C      5    6     -2.51579000      0.00002000      0.00000000
  H      6    1     -2.36155000      2.15093000     -0.00002000
  H      7    1      0.13769000      2.14227000      0.00006000
  H      8    1      0.13768000     -2.14225000     -0.00012000
  H      9    1     -3.59985000     -0.00001000     -0.00023000
  N     10    7      1.70520000      0.00000000     -0.00004000
  O     11    8      2.29572000     -1.10489000      0.00011000
  O     12    8      2.29576000      1.10486000     -0.00013000
  C     13    6     -1.82075000     -1.21220000     -0.00006000
  H     14    1     -2.36162000     -2.15087000     -0.00013000
[GTO]
1    0
S    6    1.000000
   4.56324000E+03    1.96665000E-03 
   6.82024000E+02    1.52306000E-02 
   1.54973000E+02    7.61269000E-02 
   4.44553000E+01    2.60801000E-01 
   1.30290000E+01    6.16462000E-01 
   1.82773000E+00    2.21006000E-01 
SP   3    1.000000
   2.09642000E+01    1.14660000E-01   4.02487000E-02 
   4.80331000E+00    9.19999000E-01   2.37594000E-01 
   1.45933000E+00   -3.03068000E-03   8.15854000E-01 
SP   1    1.000000
   4.83456000E-01    1.00000000E+00   1.00000000E+00 
SP   1    1.000000
   1.45585000E-01    1.00000000E+00   1.00000000E+00 
SP   1    1.000000
   4.38000000E-02    1.00000000E+00   1.00000000E+00 
D    1    1.000000
   6.26000000E-01    1.00000000E+00 

2    0
S    6    1.000000
   4.56324000E+03    1.96665000E-03 
   6.82024000E+02    1.52306000E-02 
   1.54973000E+02    7.61269000E-02 
   4.44553000E+01    2.60801000E-01 
   1.30290000E+01    6.16462000E-01 
   1.82773000E+00    2.21006000E-01 
SP   3    1.000000
   2.09642000E+01    1.14660000E-01   4.02487000E-02 
   4.80331000E+00    9.19999000E-01   2.37594000E-01 
   1.45933000E+00   -3.03068000E-03   8.15854000E-01 
SP   1    1.000000
   4.83456000E-01    1.00000000E+00   1.00000000E+00 
SP   1    1.000000
   1.45585000E-01    1.00000000E+00   1.00000000E+00 
SP   1    1.000000
   4.38000000E-02    1.00000000E+00   1.00000000E+00 
D    1    1.000000
   6.26000000E-01    1.00000000E+00 

3    0
S    6    1.000000
   4.56324000E+03    1.96665000E-03 
   6.82024000E+02    1.52306000E-02 
   1.54973000E+02    7.61269000E-02 
   4.44553000E+01    2.60801000E-01 
   1.30290000E+01    6.16462000E-01 
   1.82773000E+00    2.21006000E-01 
SP   3    1.000000
   2.09642000E+01    1.14660000E-01   4.02487000E-02 
   4.80331000E+00    9.19999000E-01   2.37594000E-01 
   1.45933000E+00   -3.03068000E-03   8.15854000E-01 
SP   1    1.000000
   4.83456000E-01    1.00000000E+00   1.00000000E+00 
SP   1    1.000000
   1.45585000E-01    1.00000000E+00   1.00000000E+00 
SP   1    1.000000
   4.38000000E-02    1.00000000E+00   1.00000000E+00 
D    1    1.000000
   6.26000000E-01    1.00000000E+00 

4    0
S    6    1.000000
   4.56324000E+03    1.96665000E-03 
   6.82024000E+02    1.52306000E-02 
   1.54973000E+02    7.61269000E-02 
   4.44553000E+01    2.60801000E-01 
   1.30290000E+01    6.16462000E-01 
   1.82773000E+00    2.21006000E-01 
SP   3    1.000000
   2.09642000E+01    1.14660000E-01   4.02487000E-02 
   4.80331000E+00    9.19999000E-01   2.37594000E-01 
   1.45933000E+00   -3.03068000E-03   8.15854000E-01 
SP   1    1.000000
   4.83456000E-01    1.00000000E+00   1.00000000E+00 
SP   1    1.000000
   1.45585000E-01    1.00000000E+00   1.00000000E+00 
SP   1    1.000000
   4.38000000E-02    1.00000000E+00   1.00000000E+00 
D    1    1.000000
   6.26000000E-01    1.00000000E+00 

5    0
S    6    1.000000
   4.56324000E+03    1.96665000E-03 
   6.82024000E+02    1.52306000E-02 
   1.54973000E+02    7.61269000E-02 
   4.44553000E+01    2.60801000E-01 
   1.30290000E+01    6.16462000E-01 
   1.82773000E+00    2.21006000E-01 
SP   3    1.000000
   2.09642000E+01    1.14660000E-01   4.02487000E-02 
   4.80331000E+00    9.19999000E-01   2.37594000E-01 
   1.45933000E+00   -3.03068000E-03   8.15854000E-01 
SP   1    1.000000
   4.83456000E-01    1.00000000E+00   1.00000000E+00 
SP   1    1.000000
   1.45585000E-01    1.00000000E+00   1.00000000E+00 
SP   1    1.000000
   4.38000000E-02    1.00000000E+00   1.00000000E+00 
D    1    1.000000
   6.26000000E-01    1.00000000E+00 

6    0
S    3    1.000000
   3.38650000E+01    2.54938000E-02 
   5.09479000E+00    1.90373000E-01 
   1.15879000E+00    8.52161000E-01 
S    1    1.000000
   3.25840000E-01    1.00000000E+00 
S    1    1.000000
   1.02741000E-01    1.00000000E+00 

7    0
S    3    1.000000
   3.38650000E+01    2.54938000E-02 
   5.09479000E+00    1.90373000E-01 
   1.15879000E+00    8.52161000E-01 
S    1    1.000000
   3.25840000E-01    1.00000000E+00 
S    1    1.000000
   1.02741000E-01    1.00000000E+00 

8    0
S    3    1.000000
   3.38650000E+01    2.54938000E-02 
   5.09479000E+00    1.90373000E-01 
   1.15879000E+00    8.52161000E-01 
S    1    1.000000
   3.25840000E-01    1.00000000E+00 
S    1    1.000000
   1.02741000E-01    1.00000000E+00 

9    0
S    3    1.000000
   3.38650000E+01    2.54938000E-02 
   5.09479000E+00    1.90373000E-01 
   1.15879000E+00    8.52161000E-01 
S    1    1.000000
   3.25840000E-01    1.00000000E+00 
S    1    1.000000
   1.02741000E-01    1.00000000E+00 

10    0
S    6    1.000000
   6.29348000E+03    1.96979000E-03 
   9.49044000E+02    1.49613000E-02 
   2.18776000E+02    7.35006000E-02 
   6.36916000E+01    2.48937000E-01 
   1.88282000E+01    6.02460000E-01 
   2.72023000E+00    2.56202000E-01 
SP   3    1.000000
   3.06331000E+01    1.11906000E-01   3.83119000E-02 
   7.02614000E+00    9.21666000E-01   2.37403000E-01 
   2.11205000E+00   -2.56919000E-03   8.17592000E-01 
SP   1    1.000000
   6.84009000E-01    1.00000000E+00   1.00000000E+00 
SP   1    1.000000
   2.00878000E-01    1.00000000E+00   1.00000000E+00 
SP   1    1.000000
   6.39000000E-02    1.00000000E+00   1.00000000E+00 
D    1    1.000000
   9.13000000E-01    1.00000000E+00 

11    0
S    6    1.000000
   8.58850000E+03    1.89515000E-03 
   1.29723000E+03    1.43859000E-02 
   2.99296000E+02    7.07320000E-02 
   8.73771000E+01    2.40001000E-01 
   2.56789000E+01    5.94797000E-01 
   3.74004000E+00    2.80802000E-01 
SP   3    1.000000
   4.21175000E+01    1.13889000E-01   3.65114000E-02 
   9.62837000E+00    9.20811000E-01   2.37153000E-01 
   2.85332000E+00   -3.27447000E-03   8.19702000E-01 
SP   1    1.000000
   9.05661000E-01    1.00000000E+00   1.00000000E+00 
SP   1    1.000000
   2.55611000E-01    1.00000000E+00   1.00000000E+00 
SP   1    1.000000
   8.45000000E-02    1.00000000E+00   1.00000000E+00 
D    1    1.000000
   1.29200000E+00    1.00000000E+00 

12    0
S    6    1.000000
   8.58850000E+03    1.89515000E-03 
   1.29723000E+03    1.43859000E-02 
   2.99296000E+02    7.07320000E-02 
   8.73771000E+01    2.40001000E-01 
   2.56789000E+01    5.94797000E-01 
   3.74004000E+00    2.80802000E-01 
SP   3    1.000000
   4.21175000E+01    1.13889000E-01   3.65114000E-02 
   9.62837000E+00    9.20811000E-01   2.37153000E-01 
   2.85332000E+00   -3.27447000E-03   8.19702000E-01 
SP   1    1.000000
   9.05661000E-01    1.00000000E+00   1.00000000E+00 
SP   1    1.000000
   2.55611000E-01    1.00000000E+00   1.00000000E+00 
SP   1    1.000000
   8.45000000E-02    1.00000000E+00   1.00000000E+00 
D    1    1.000000
   1.29200000E+00    1.00000000E+00 

13    0
S    6    1.000000
   4.56324000E+03    1.96665000E-03 
   6.82024000E+02    1.52306000E-02 
   1.54973000E+02    7.61269000E-02 
   4.44553000E+01    2.60801000E-01 
   1.30290000E+01    6.16462000E-01 
   1.82773000E+00    2.21006000E-01 
SP   3    1.000000
   2.09642000E+01    1.14660000E-01   4.02487000E-02 
   4.80331000E+00    9.19999000E-01   2.37594000E-01 
   1.45933000E+00   -3.03068000E-03   8.15854000E-01 
SP   1    1.000000
   4.83456000E-01    1.00000000E+00   1.00000000E+00 
SP   1    1.000000
   1.45585000E-01    1.00000000E+00   1.00000000E+00 
SP   1    1.000000
   4.38000000E-02    1.00000000E+00   1.00000000E+00 
D    1    1.000000
   6.26000000E-01    1.00000000E+00 

14    0
S    3    1.000000
   3.38650000E+01    2.54938000E-02 
   5.09479000E+00    1.90373000E-01 
   1.15879000E+00    8.52161000E-01 
S    1    1.000000
   3.25840000E-01    1.00000000E+00 
S    1    1.000000
   1.02741000E-01    1.00000000E+00 

[MO]
Sym=X
Ene= -0.050835
Spin=Alpha
Occup=1
     1   -2.520726589000e-02
     2   -4.069617177369e-02
     3    4.924109842139e-03
     4    1.096081486792e-01
     5    9.720573080272e-06
     6    1.091175228896e-01
     7    6.780160533231e-04
     8    1.694634873206e-01
     9    1.507077421055e-05
    10    9.782796023141e-02
    11   -7.939145412202e-03
    12    9.771768392002e-02
    13    1.538657494688e-05
    14   -2.354093487197e-01
    15   -5.879010843073e-03
    16    7.878718653916e-02
    17    7.178687411057e-06
    18   -5.121841281239e-03
    19    6.973285882936e-07
    20   -3.664918276303e-06
    21    7.208312253835e-03
    22   -1.636059178434e-02
    23    1.267451043211e-03
    24    1.591150211824e-03
    25   -4.640339244217e-02
    26   -4.650790796420e-02
    27   -3.280627710515e-06
    28   -1.017631329556e-03
    29   -6.931271063051e-02
    30   -7.416987943737e-02
    31   -4.820995112736e-06
    32   -3.739873747453e-02
    33   -6.008223458366e-02
    34   -5.156987012630e-02
    35   -4.341786690598e-06
    36    1.818511251208e-01
    37    2.476201932671e-02
    38   -6.031327105004e-02
    39   -4.544250964208e-06
    40    5.464559712909e-04
    41   -1.817701853413e-06
    42    2.133965345142e-06
    43    2.590750825043e-03
    44   -2.023640966300e-02
    45   -2.634067655972e-02
    46   -4.176258538924e-02
    47   -2.238114330934e-02
    48   -4.353031620824e-03
    49   -1.006272745840e-05
    50    1.184173268498e-01
    51   -2.974900956336e-02
    52   -6.251254749439e-03
    53   -1.708455893849e-05
    54    1.124332015899e-01
    55    6.964063942977e-03
    56    1.816059483353e-04
    57   -2.037266234465e-05
    58   -1.895994888820e-01
    59   -4.152616499252e-02
    60   -2.128902756483e-02
    61   -1.611025446253e-05
    62    5.296688086528e-04
    63   -1.444818005316e-06
    64   -1.355130468394e-06
    65    1.219093745098e-02
    66    2.812589142734e-04
    67    1.086188778152e-03
    68    1.337913614097e-03
    69   -4.594383583484e-02
    70    5.456770786091e-02
    71   -1.182507313019e-07
    72   -2.116042097936e-04
    73   -6.894575256565e-02
    74    8.639525064298e-02
    75   -1.340974330060e-06
    76   -3.532402193291e-02
    77   -5.849335308120e-02
    78    6.137265543897e-02
    79    2.870863507731e-06
    80    1.450465065223e-01
    81    6.083346253588e-03
    82    5.005250581471e-02
    83    7.251718050301e-06
    84    6.290753260717e-04
    85    1.036255495492e-06
    86   -3.301935815202e-06
    87    2.903409598862e-03
    88    2.118266981451e-02
    89    1.864752519076e-02
    90    2.950382289446e-02
    91   -1.187169488887e-01
    92   -1.315199935601e-03
    93    2.714779694619e-06
    94   -8.727284859936e-02
    95   -1.783656003896e-01
    96   -2.013598895220e-03
    97    5.563687288235e-06
    98   -3.877806974482e-02
    99   -1.112470030854e-01
   100   -1.002343469379e-03
   101    1.037108711018e-05
   102    3.332871506665e-01
   103    4.341051086127e-02
   104    3.337860056748e-03
   105   -7.066613393619e-07
   106   -3.061718301713e-03
   107    4.539064620049e-06
   108   -1.718362055864e-07
   109    1.742688147054e-03
   110   -2.615686447445e-04
   111    9.595283169426e-02
   112    1.119874114105e-01
   113    2.047465878316e-02
   114   -6.070180891118e-02
   115   -7.665452832761e-02
   116   -2.429147771446e-02
   117   -6.628719314878e-02
   118   -8.399604236344e-02
   119   -2.514821859352e-02
   120    7.817869106798e-02
   121    1.023055516145e-01
   122    2.676355032216e-02
   123    1.662721576217e-03
   124    2.713595842200e-03
   125   -9.189625882754e-03
   126   -3.367395118905e-03
   127   -1.901230254682e-06
   128   -8.466911062987e-03
   129   -1.365484491687e-02
   130   -5.350809403781e-03
   131   -3.074359080913e-06
   132   -8.833153683933e-03
   133    8.746710459622e-03
   134   -5.582962493069e-03
   135   -1.436782711435e-06
   136    7.281384014499e-02
   137    4.359816721309e-02
   138    3.880410438093e-03
   139    6.113748478709e-06
   140    9.996583961780e-04
   141    1.543772285790e-06
   142   -1.046155959875e-05
   143    6.259384408296e-03
   144    2.570609110247e-05
   145   -2.400670635019e-03
   146   -3.984483528926e-03
   147    2.452058324372e-02
   148    1.716349863637e-03
   149    4.903021782187e-05
   150    1.284638642188e-02
   151    3.551625860657e-02
   152    2.767888471592e-03
   153    7.251994259229e-05
   154    8.542418595105e-03
   155    3.447433690171e-02
   156    1.116028729904e-03
   157    7.025285745346e-05
   158   -2.956675722852e-02
   159   -2.707998159612e-03
   160   -9.866298134245e-03
   161    1.022842510158e-05
   162    6.222087921529e-04
   163   -2.211967945040e-06
   164    2.994141152690e-06
   165   -9.529370761921e-04
   166    7.713999967743e-04
   167   -3.832455768944e-03
   168   -6.302377961033e-03
   169    2.758966027540e-02
   170    2.818265338030e-03
   171   -4.208964608361e-05
   172    1.950124198120e-02
   173    4.000757583273e-02
   174    3.774150552859e-03
   175   -6.228401941026e-05
   176    2.117151591089e-02
   177    3.576563400751e-02
   178    1.638805727388e-03
   179   -5.922530130169e-05
   180   -2.995654970247e-02
   181   -2.795780674038e-03
   182    9.439983480705e-03
   183   -9.488014895110e-06
   184    9.300394804773e-04
   185    2.181695417221e-06
   186    2.755928972657e-06
   187   -8.574351718941e-04
   188   -1.270362703093e-03
   189   -2.551737477137e-02
   190   -4.117580003990e-02
   191    4.533475024558e-03
   192   -1.065533752271e-01
   193    2.596507891065e-06
   194    1.105336662720e-01
   195    2.123438605305e-04
   196   -1.647987469824e-01
   197    4.752638876958e-06
   198    9.869798885047e-02
   199   -7.584921202046e-03
   200   -9.682193512849e-02
   201    4.028614737383e-06
   202   -2.469528591128e-01
   203   -1.394431373028e-02
   204   -7.456786042453e-02
   205   -4.626150190261e-06
   206   -5.046342168443e-03
   207    1.103825066263e-06
   208    1.107552246370e-06
   209    7.340971588516e-03
   210    1.681353879351e-02
   211    9.459886989843e-02
   212    1.102663452517e-01
   213    2.030513113143e-02
Sym=X
Ene= -0.088968
Spin=Alpha
Occup=1
     1    2.505706989210e-05
     2    3.997175305421e-05
     3   -2.023828905617e-05
     4    1.572047667140e-05
     5    1.049835087014e-01
     6   -1.067532809398e-04
     7   -2.759376457094e-05
     8    2.138054495396e-05
     9    1.708379676897e-01
    10   -2.157186656918e-04
    11   -1.195531169642e-04
    12    1.132388335828e-05
    13    1.407225990669e-01
    14   -7.440159400610e-04
    15   -9.229959482535e-04
    16   -5.050122742972e-04
    17    1.022332350597e-02
    18    8.039910567788e-07
    19   -1.299887305405e-02
    20   -1.590273016022e-02
    21    1.064667587100e-06
    22   -2.270867871312e-06
    23   -8.903623816250e-06
    24   -1.439404109259e-05
    25    4.502529186490e-05
    26   -2.747879871073e-05
    27   -2.988031841843e-02
    28    4.349459663899e-05
    29    7.820459399309e-05
    30   -3.860349907219e-05
    31   -4.877911285472e-02
    32    1.609397570740e-04
    33   -1.132829108311e-04
    34   -1.605067264504e-05
    35   -4.728774448786e-02
    36    3.510173966416e-04
    37   -1.216702149797e-03
    38    5.674128859651e-04
    39   -4.711099770038e-03
    40    2.699515788950e-06
    41   -1.877472733259e-02
    42    9.981853244756e-03
    43   -1.098604577893e-05
    44   -4.744313293895e-06
    45   -4.815025803446e-07
    46   -9.271472680793e-07
    47   -1.626772731045e-05
    48    6.381261270825e-05
    49   -1.143698871299e-01
    50    6.343825665890e-06
    51   -2.839306035279e-05
    52    1.054475876323e-04
    53   -1.879052436536e-01
    54   -6.953737311689e-05
    55    2.501433983761e-05
    56    1.170087734299e-04
    57   -1.816547804315e-01
    58    1.583700588059e-04
    59   -9.155624143939e-06
    60    9.873051487124e-04
    61   -2.771757150892e-02
    62    9.871245975914e-08
    63   -2.922957586450e-03
    64   -2.324832100452e-05
    65   -3.246618699732e-06
    66   -6.062980733752e-06
    67    9.174835682953e-06
    68    1.512316275387e-05
    69   -3.520807128495e-05
    70   -3.154630861278e-05
    71   -2.962673509696e-02
    72   -5.087432438976e-05
    73   -6.203406256497e-05
    74   -4.396241585810e-05
    75   -4.835992572659e-02
    76   -4.773342151351e-05
    77    9.177751956527e-05
    78    5.009801430164e-05
    79   -4.694325250659e-02
    80   -6.067509274524e-04
    81    1.215884981930e-03
    82    5.293810626300e-04
    83   -4.723083375962e-03
    84   -2.297392570773e-06
    85   -1.880213852389e-02
    86   -9.980496377105e-03
    87    8.287026274137e-06
    88   -8.141165631614e-06
    89   -5.595989675978e-06
    90   -9.042055550724e-06
    91   -1.328974199055e-05
    92   -5.113527138771e-05
    93    1.698296980550e-01
    94    2.530292791265e-05
    95   -2.159936794984e-05
    96   -7.145910287212e-05
    97    2.767667878912e-01
    98    5.478965858281e-05
    99   -8.477245864922e-06
   100   -7.552723462756e-05
   101    2.320812107638e-01
   102   -2.330574183619e-04
   103   -4.854607916086e-05
   104   -8.355148181743e-04
   105    2.070269021350e-02
   106   -1.602050127528e-06
   107    1.001722782539e-02
   108   -2.282089778405e-05
   109   -1.783636914165e-06
   110   -7.784536723265e-06
   111   -5.235807093226e-06
   112    6.635807797888e-06
   113    6.506047118137e-06
   114   -2.905943824620e-06
   115   -1.552456158481e-06
   116   -2.367763629225e-05
   117    1.554030412076e-05
   118    2.684454914900e-05
   119    5.859235252056e-05
   120   -1.055777359112e-05
   121   -9.855494724620e-06
   122    7.236380593256e-06
   123    1.194389525175e-06
   124    1.921024642327e-06
   125    1.097996168816e-05
   126    5.518929286103e-05
   127   -3.606537858738e-03
   128   -5.068954703147e-06
   129    1.731493749415e-05
   130    9.727188162975e-05
   131   -5.756926499170e-03
   132   -2.635408586260e-05
   133    3.358794475904e-06
   134   -1.186073556149e-04
   135   -2.170297716651e-03
   136   -4.529971370235e-05
   137   -4.074558169785e-06
   138    2.557892652175e-04
   139    3.289126041309e-02
   140   -8.070742907315e-07
   141    1.555539394713e-02
   142    4.416926907417e-05
   143   -5.229466560075e-06
   144    7.342125832035e-05
   145   -3.044331017339e-06
   146   -4.916728262423e-06
   147   -3.070577348919e-04
   148   -2.788584198718e-04
   149    3.940162288358e-02
   150    9.698782701310e-06
   151   -4.570295852029e-04
   152   -4.089281231373e-04
   153    5.844896433247e-02
   154   -4.709162374530e-05
   155   -4.236592436767e-04
   156   -3.881456013769e-04
   157    5.788434283125e-02
   158    2.331631260072e-04
   159   -5.388900158361e-05
   160    4.269167943110e-05
   161   -7.796217139544e-04
   162    3.625299842886e-07
   163   -6.668506327568e-04
   164    2.566079074225e-03
   165    2.545832950483e-05
   166   -7.117701481317e-06
   167    3.359604938239e-06
   168    5.437178528802e-06
   169    2.655135177685e-04
   170   -2.788767903480e-04
   171    3.977995902883e-02
   172   -1.064776267025e-05
   173    3.959276151377e-04
   174   -4.088755387619e-04
   175    5.901014704431e-02
   176    5.240439509312e-05
   177    3.664201565265e-04
   178   -3.900297007897e-04
   179    5.842125431817e-02
   180   -2.085802508740e-04
   181    4.584071141354e-05
   182    3.904129800111e-05
   183   -7.083049256082e-04
   184   -1.223050997415e-06
   185   -6.824767509878e-04
   186   -2.590030830842e-03
   187   -2.472542208131e-05
   188   -5.431101842530e-06
   189   -1.829793916787e-05
   190   -2.905328356520e-05
   191    1.975257988334e-06
   192    1.720671057325e-05
   193    1.052186251993e-01
   194    7.682903759995e-05
   195   -1.350790189395e-06
   196    2.182327341538e-05
   197    1.712194694028e-01
   198    1.229114793876e-04
   199    7.053806611781e-05
   200   -2.074088205263e-05
   201    1.410705969199e-01
   202    1.085975368229e-03
   203    9.400148918974e-04
   204   -4.419883417847e-04
   205    1.028440579756e-02
   206   -6.101206787266e-07
   207   -1.297129100206e-02
   208    1.589949328787e-02
   209    2.814104886604e-06
   210   -6.280063578538e-06
   211   -7.082789879912e-06
   212   -2.386351076891e-05
   213   -2.119055934643e-05
Sym=X
Ene= -0.101618
Spin=Alpha
Occup=1
     1   -7.252755099487e-06
     2   -1.091222741527e-05
     3    1.337569621336e-04
     4    6.838135359596e-05
     5    6.603562698869e-02
     6    2.447981179660e-05
     7    1.853690725145e-04
     8    9.274204391908e-05
     9    1.078173121701e-01
    10    3.181275429021e-04
    11    3.120870609603e-04
    12    1.537869557279e-04
    13    6.769652395308e-02
    14    2.578014666578e-03
    15    2.154221183762e-03
    16    9.654699827651e-04
    17    3.615351395975e-03
    18    1.465932258870e-06
    19    1.081289158931e-02
    20   -5.094097323205e-03
    21   -1.185148089663e-06
    22   -1.842774626055e-05
    23    2.355639025520e-05
    24    3.868255388245e-05
    25   -1.433142335028e-04
    26   -8.972236803677e-05
    27    1.127523929416e-01
    28   -1.138610903545e-04
    29   -2.426181103614e-04
    30   -1.463465213932e-04
    31    1.844960913836e-01
    32   -2.178587224161e-04
    33    2.150434177395e-04
    34   -2.725632613895e-04
    35    1.245013005642e-01
    36   -2.553459347016e-03
    37    2.649353946224e-03
    38   -1.006209302713e-03
    39   -4.266109320419e-03
    40   -3.106946175616e-06
    41    2.189387475594e-04
    42   -1.480606384053e-02
    43    3.313846232008e-05
    44   -2.257225058821e-05
    45    3.113231922137e-06
    46    5.110196557609e-06
    47    1.369067382109e-05
    48   -7.712217884450e-06
    49    1.477779349740e-01
    50   -1.468016358562e-05
    51    2.221446104103e-05
    52   -4.917138335342e-05
    53    2.416879754432e-01
    54   -1.085905648151e-05
    55    4.245173151388e-05
    56   -2.814483700577e-04
    57    1.950807367449e-01
    58    7.002440355691e-04
    59   -1.412762191119e-04
    60   -1.596304462253e-03
    61    3.055138464320e-02
    62    3.396020925922e-06
    63   -1.052775646255e-02
    64    1.361044990682e-05
    65    4.614618973138e-07
    66    8.352318057195e-07
    67   -3.338915150583e-05
    68   -5.458402813113e-05
    69    1.486106589395e-04
    70   -9.729078300156e-05
    71    1.126530771710e-01
    72    1.574462811332e-04
    73    2.513853280094e-04
    74   -1.572676015840e-04
    75    1.843380032129e-01
    76    3.067514404458e-04
    77   -2.396836381319e-04
    78   -2.606235536781e-04
    79    1.243526615905e-01
    80    1.275560422358e-03
    81   -2.514975343090e-03
    82   -1.198995168528e-03
    83   -4.288224424857e-03
    84   -4.085846083061e-06
    85    2.255020782879e-04
    86    1.480561438079e-02
    87   -3.189270347246e-05
    88   -1.992447368577e-05
    89   -1.522837946203e-06
    90   -2.473035534648e-06
    91   -8.948852438073e-06
    92   -1.608215653986e-04
    93    4.412627444387e-02
    94    6.533534003565e-06
    95   -1.401711738462e-05
    96   -2.420392204359e-04
    97    7.226958061927e-02
    98    2.387761331022e-05
    99    2.037593326357e-06
   100   -4.483229270095e-05
   101    3.477789015737e-02
   102   -4.014794831377e-04
   103   -7.991560118408e-05
   104    1.886307289271e-03
   105   -7.928646085236e-03
   106   -3.667575282188e-07
   107    8.604749591242e-03
   108    8.550671198409e-06
   109   -5.137585868003e-07
   110   -4.471761650325e-06
   111    8.428996139398e-06
   112    3.021068184721e-06
   113    6.517323827416e-06
   114   -1.348631677397e-04
   115   -1.723068123911e-04
   116    6.591960158632e-05
   117    1.361928967154e-04
   118    1.771370495917e-04
   119   -3.994370046716e-05
   120    2.945037420703e-06
   121    5.883000966396e-06
   122    1.072268204651e-05
   123   -9.260632538948e-07
   124   -1.548558769701e-06
   125   -2.832804507467e-06
   126   -2.997642215680e-05
   127   -2.559440519263e-02
   128    5.557030589892e-06
   129   -5.056104806093e-06
   130   -7.000744510277e-05
   131   -3.898756958515e-02
   132   -4.183604951541e-06
   133    8.946657433000e-06
   134    4.820180128046e-04
   135   -3.899527123914e-02
   136   -4.445181863619e-05
   137    2.114946761803e-05
   138   -7.046933091304e-04
   139   -4.684053428762e-02
   140    2.871522807935e-07
   141   -1.878086811299e-02
   142    2.158515116507e-05
   143    2.284152930673e-06
   144   -1.801674712615e-04
   145   -1.375304444624e-05
   146   -2.207387862904e-05
   147    7.560411744599e-04
   148    6.168274267448e-04
   149   -5.204537179255e-02
   150    7.290738753874e-05
   151    1.125512369910e-03
   152    9.062064129461e-04
   153   -7.770206607049e-02
   154    3.222205813236e-04
   155    9.904929075832e-04
   156    9.223998758218e-04
   157   -6.959631313908e-02
   158   -5.024467858562e-04
   159    1.188502170242e-04
   160   -8.546330616286e-05
   161    8.082893448328e-03
   162    2.719764528979e-06
   163    1.876736355378e-03
   164   -4.899657711288e-03
   165   -5.997680655141e-05
   166    2.400238990699e-05
   167    1.491432876015e-05
   168    2.397726908843e-05
   169   -7.370306506304e-04
   170    6.167472599842e-04
   171   -5.187569904640e-02
   172   -7.923366506615e-05
   173   -1.097087796873e-03
   174    9.058352884782e-04
   175   -7.745099238683e-02
   176   -3.317095633967e-04
   177   -9.663811243139e-04
   178    9.239041076786e-04
   179   -6.935493702458e-02
   180    5.132435759332e-04
   181   -1.200978225293e-04
   182   -8.681444173740e-05
   183    8.116717857333e-03
   184   -2.144522824796e-06
   185    1.869321669913e-03
   186    4.888918550790e-03
   187    5.959119726823e-05
   188    2.319412793774e-05
   189    7.544582979543e-06
   190    1.138569327314e-05
   191   -1.410993423306e-04
   192    5.879186208005e-05
   193    6.595151335681e-02
   194   -2.423735618467e-05
   195   -1.990340842118e-04
   196    7.741764008744e-05
   197    1.076785948947e-01
   198   -3.630487853990e-04
   199   -3.328788603430e-04
   200    1.305834573284e-04
   201    6.758242815432e-02
   202   -1.581815206796e-03
   203   -2.028340127342e-03
   204    1.089395653973e-03
   205    3.610430464316e-03
   206    1.189803284891e-06
   207    1.080316172818e-02
   208    5.094820368164e-03
   209    1.394615983197e-06
   210   -2.036637942904e-05
   211   -7.441973909534e-06
   212   -1.282382931518e-06
   213   -1.905710136872e-05
Sym=X
Ene= -0.179174
Spin=Alpha
Occup=1
     1   -5.275596461085e-07
     2   -9.014777392481e-07
     3    6.884018674455e-05
     4   -4.494957681908e-06
     5    2.191763243588e-03
     6    4.921182447304e-06
     7    9.886640080513e-05
     8   -1.080240420390e-05
     9    5.041523887819e-03
    10   -3.290033744437e-05
    11    6.614715287826e-05
    12   -1.938931657692e-05
    13   -4.196481187129e-03
    14   -1.714155395967e-04
    15    1.063237140026e-03
    16    7.930249088373e-04
    17   -1.165869385828e-02
    18    7.951211575843e-07
    19    4.098719752727e-04
    20    8.238011027111e-05
    21    1.045475133947e-05
    22    1.103311838526e-05
    23   -4.859809365783e-06
    24   -7.929061199901e-06
    25   -5.929772278595e-05
    26    4.217068128528e-05
    27    6.466337386072e-03
    28    2.344319940275e-05
    29   -8.493792691498e-05
    30    6.097477623739e-05
    31    6.714116133905e-03
    32    3.184283236803e-05
    33   -8.676983031708e-05
    34    4.092768439279e-05
    35    1.943521584062e-02
    36    1.954475669493e-03
    37    1.509724428851e-03
    38   -1.062599423224e-03
    39    1.895098618971e-02
    40   -6.159599946758e-07
    41    1.371167566525e-03
    42    4.930142424014e-04
    43    9.396515448765e-06
    44   -4.075235396421e-06
    45   -1.646082696871e-05
    46   -2.744711576801e-05
    47    1.407791427607e-04
    48   -5.049907605346e-06
    49    3.528241268761e-05
    50    8.639386578497e-05
    51    2.405466491228e-04
    52   -6.027998369897e-06
    53    5.866288774092e-05
    54    3.461003059563e-04
    55    2.511111055443e-04
    56   -3.467634043037e-05
    57    6.879853980434e-05
    58   -8.079829410172e-04
    59   -5.761299875484e-05
    60   -2.333948779147e-03
    61    9.576635564677e-06
    62   -3.038993562505e-06
    63    7.371725712588e-06
    64    6.206872466843e-03
    65    2.705480193239e-05
    66    9.841345474071e-07
    67   -5.339769644129e-06
    68   -8.811032526923e-06
    69   -5.042092536487e-05
    70   -3.996018827305e-05
    71   -6.508926920736e-03
    72    2.765189791989e-05
    73   -6.679165794179e-05
    74   -5.783384303168e-05
    75   -6.784211968728e-03
    76    2.126716137283e-05
    77   -1.490054253435e-04
    78   -5.915524269744e-05
    79   -1.945802732400e-02
    80   -8.761386078122e-04
    81   -1.402764227783e-03
    82   -7.470657807458e-04
    83   -1.893927222825e-02
    84    1.149486675152e-07
    85   -1.340373674977e-03
    86    4.975381867528e-04
    87    7.650966705112e-06
    88    5.342914902069e-06
    89   -5.808399821066e-06
    90   -9.339002776392e-06
    91   -5.401796717808e-05
    92    1.948508303577e-06
    93   -1.572831437014e-04
    94    2.497593080466e-05
    95   -8.255513282129e-05