[Molden Format]
[Atoms] (Angs)
  C      1    6     -1.82075000      1.21221000      0.00007000
  C      2    6     -0.42782000      1.22011000      0.00011000
  C      3    6      0.24287000      0.00002000     -0.00001000
  C      4    6     -0.42786000     -1.22012000      0.00003000
  C      5    6     -2.51579000      0.00002000      0.00000000
  H      6    1     -2.36155000      2.15093000     -0.00002000
  H      7    1      0.13769000      2.14227000      0.00006000
  H      8    1      0.13768000     -2.14225000     -0.00012000
  H      9    1     -3.59985000     -0.00001000     -0.00023000
  N     10    7      1.70520000      0.00000000     -0.00004000
  O     11    8      2.29572000     -1.10489000      0.00011000
  O     12    8      2.29576000      1.10486000     -0.00013000
  C     13    6     -1.82075000     -1.21220000     -0.00006000
  H     14    1     -2.36162000     -2.15087000     -0.00013000
[GTO]
1    0
S    6    1.000000
   4.56324000E+03    1.96665000E-03 
   6.82024000E+02    1.52306000E-02 
   1.54973000E+02    7.61269000E-02 
   4.44553000E+01    2.60801000E-01 
   1.30290000E+01    6.16462000E-01 
   1.82773000E+00    2.21006000E-01 
SP   3    1.000000
   2.09642000E+01    1.14660000E-01   4.02487000E-02 
   4.80331000E+00    9.19999000E-01   2.37594000E-01 
   1.45933000E+00   -3.03068000E-03   8.15854000E-01 
SP   1    1.000000
   4.83456000E-01    1.00000000E+00   1.00000000E+00 
SP   1    1.000000
   1.45585000E-01    1.00000000E+00   1.00000000E+00 
SP   1    1.000000
   4.38000000E-02    1.00000000E+00   1.00000000E+00 
D    1    1.000000
   6.26000000E-01    1.00000000E+00 

2    0
S    6    1.000000
   4.56324000E+03    1.96665000E-03 
   6.82024000E+02    1.52306000E-02 
   1.54973000E+02    7.61269000E-02 
   4.44553000E+01    2.60801000E-01 
   1.30290000E+01    6.16462000E-01 
   1.82773000E+00    2.21006000E-01 
SP   3    1.000000
   2.09642000E+01    1.14660000E-01   4.02487000E-02 
   4.80331000E+00    9.19999000E-01   2.37594000E-01 
   1.45933000E+00   -3.03068000E-03   8.15854000E-01 
SP   1    1.000000
   4.83456000E-01    1.00000000E+00   1.00000000E+00 
SP   1    1.000000
   1.45585000E-01    1.00000000E+00   1.00000000E+00 
SP   1    1.000000
   4.38000000E-02    1.00000000E+00   1.00000000E+00 
D    1    1.000000
   6.26000000E-01    1.00000000E+00 

3    0
S    6    1.000000
   4.56324000E+03    1.96665000E-03 
   6.82024000E+02    1.52306000E-02 
   1.54973000E+02    7.61269000E-02 
   4.44553000E+01    2.60801000E-01 
   1.30290000E+01    6.16462000E-01 
   1.82773000E+00    2.21006000E-01 
SP   3    1.000000
   2.09642000E+01    1.14660000E-01   4.02487000E-02 
   4.80331000E+00    9.19999000E-01   2.37594000E-01 
   1.45933000E+00   -3.03068000E-03   8.15854000E-01 
SP   1    1.000000
   4.83456000E-01    1.00000000E+00   1.00000000E+00 
SP   1    1.000000
   1.45585000E-01    1.00000000E+00   1.00000000E+00 
SP   1    1.000000
   4.38000000E-02    1.00000000E+00   1.00000000E+00 
D    1    1.000000
   6.26000000E-01    1.00000000E+00 

4    0
S    6    1.000000
   4.56324000E+03    1.96665000E-03 
   6.82024000E+02    1.52306000E-02 
   1.54973000E+02    7.61269000E-02 
   4.44553000E+01    2.60801000E-01 
   1.30290000E+01    6.16462000E-01 
   1.82773000E+00    2.21006000E-01 
SP   3    1.000000
   2.09642000E+01    1.14660000E-01   4.02487000E-02 
   4.80331000E+00    9.19999000E-01   2.37594000E-01 
   1.45933000E+00   -3.03068000E-03   8.15854000E-01 
SP   1    1.000000
   4.83456000E-01    1.00000000E+00   1.00000000E+00 
SP   1    1.000000
   1.45585000E-01    1.00000000E+00   1.00000000E+00 
SP   1    1.000000
   4.38000000E-02    1.00000000E+00   1.00000000E+00 
D    1    1.000000
   6.26000000E-01    1.00000000E+00 

5    0
S    6    1.000000
   4.56324000E+03    1.96665000E-03 
   6.82024000E+02    1.52306000E-02 
   1.54973000E+02    7.61269000E-02 
   4.44553000E+01    2.60801000E-01 
   1.30290000E+01    6.16462000E-01 
   1.82773000E+00    2.21006000E-01 
SP   3    1.000000
   2.09642000E+01    1.14660000E-01   4.02487000E-02 
   4.80331000E+00    9.19999000E-01   2.37594000E-01 
   1.45933000E+00   -3.03068000E-03   8.15854000E-01 
SP   1    1.000000
   4.83456000E-01    1.00000000E+00   1.00000000E+00 
SP   1    1.000000
   1.45585000E-01    1.00000000E+00   1.00000000E+00 
SP   1    1.000000
   4.38000000E-02    1.00000000E+00   1.00000000E+00 
D    1    1.000000
   6.26000000E-01    1.00000000E+00 

6    0
S    3    1.000000
   3.38650000E+01    2.54938000E-02 
   5.09479000E+00    1.90373000E-01 
   1.15879000E+00    8.52161000E-01 
S    1    1.000000
   3.25840000E-01    1.00000000E+00 
S    1    1.000000
   1.02741000E-01    1.00000000E+00 

7    0
S    3    1.000000
   3.38650000E+01    2.54938000E-02 
   5.09479000E+00    1.90373000E-01 
   1.15879000E+00    8.52161000E-01 
S    1    1.000000
   3.25840000E-01    1.00000000E+00 
S    1    1.000000
   1.02741000E-01    1.00000000E+00 

8    0
S    3    1.000000
   3.38650000E+01    2.54938000E-02 
   5.09479000E+00    1.90373000E-01 
   1.15879000E+00    8.52161000E-01 
S    1    1.000000
   3.25840000E-01    1.00000000E+00 
S    1    1.000000
   1.02741000E-01    1.00000000E+00 

9    0
S    3    1.000000
   3.38650000E+01    2.54938000E-02 
   5.09479000E+00    1.90373000E-01 
   1.15879000E+00    8.52161000E-01 
S    1    1.000000
   3.25840000E-01    1.00000000E+00 
S    1    1.000000
   1.02741000E-01    1.00000000E+00 

10    0
S    6    1.000000
   6.29348000E+03    1.96979000E-03 
   9.49044000E+02    1.49613000E-02 
   2.18776000E+02    7.35006000E-02 
   6.36916000E+01    2.48937000E-01 
   1.88282000E+01    6.02460000E-01 
   2.72023000E+00    2.56202000E-01 
SP   3    1.000000
   3.06331000E+01    1.11906000E-01   3.83119000E-02 
   7.02614000E+00    9.21666000E-01   2.37403000E-01 
   2.11205000E+00   -2.56919000E-03   8.17592000E-01 
SP   1    1.000000
   6.84009000E-01    1.00000000E+00   1.00000000E+00 
SP   1    1.000000
   2.00878000E-01    1.00000000E+00   1.00000000E+00 
SP   1    1.000000
   6.39000000E-02    1.00000000E+00   1.00000000E+00 
D    1    1.000000
   9.13000000E-01    1.00000000E+00 

11    0
S    6    1.000000
   8.58850000E+03    1.89515000E-03 
   1.29723000E+03    1.43859000E-02 
   2.99296000E+02    7.07320000E-02 
   8.73771000E+01    2.40001000E-01 
   2.56789000E+01    5.94797000E-01 
   3.74004000E+00    2.80802000E-01 
SP   3    1.000000
   4.21175000E+01    1.13889000E-01   3.65114000E-02 
   9.62837000E+00    9.20811000E-01   2.37153000E-01 
   2.85332000E+00   -3.27447000E-03   8.19702000E-01 
SP   1    1.000000
   9.05661000E-01    1.00000000E+00   1.00000000E+00 
SP   1    1.000000
   2.55611000E-01    1.00000000E+00   1.00000000E+00 
SP   1    1.000000
   8.45000000E-02    1.00000000E+00   1.00000000E+00 
D    1    1.000000
   1.29200000E+00    1.00000000E+00 

12    0
S    6    1.000000
   8.58850000E+03    1.89515000E-03 
   1.29723000E+03    1.43859000E-02 
   2.99296000E+02    7.07320000E-02 
   8.73771000E+01    2.40001000E-01 
   2.56789000E+01    5.94797000E-01 
   3.74004000E+00    2.80802000E-01 
SP   3    1.000000
   4.21175000E+01    1.13889000E-01   3.65114000E-02 
   9.62837000E+00    9.20811000E-01   2.37153000E-01 
   2.85332000E+00   -3.27447000E-03   8.19702000E-01 
SP   1    1.000000
   9.05661000E-01    1.00000000E+00   1.00000000E+00 
SP   1    1.000000
   2.55611000E-01    1.00000000E+00   1.00000000E+00 
SP   1    1.000000
   8.45000000E-02    1.00000000E+00   1.00000000E+00 
D    1    1.000000
   1.29200000E+00    1.00000000E+00 

13    0
S    6    1.000000
   4.56324000E+03    1.96665000E-03 
   6.82024000E+02    1.52306000E-02 
   1.54973000E+02    7.61269000E-02 
   4.44553000E+01    2.60801000E-01 
   1.30290000E+01    6.16462000E-01 
   1.82773000E+00    2.21006000E-01 
SP   3    1.000000
   2.09642000E+01    1.14660000E-01   4.02487000E-02 
   4.80331000E+00    9.19999000E-01   2.37594000E-01 
   1.45933000E+00   -3.03068000E-03   8.15854000E-01 
SP   1    1.000000
   4.83456000E-01    1.00000000E+00   1.00000000E+00 
SP   1    1.000000
   1.45585000E-01    1.00000000E+00   1.00000000E+00 
SP   1    1.000000
   4.38000000E-02    1.00000000E+00   1.00000000E+00 
D    1    1.000000
   6.26000000E-01    1.00000000E+00 

14    0
S    3    1.000000
   3.38650000E+01    2.54938000E-02 
   5.09479000E+00    1.90373000E-01 
   1.15879000E+00    8.52161000E-01 
S    1    1.000000
   3.25840000E-01    1.00000000E+00 
S    1    1.000000
   1.02741000E-01    1.00000000E+00 

[MO]
Sym=X
Ene= -0.359083
Spin=Alpha
Occup=1
     1    2.236796450710e-06
     2    3.541652170925e-06
     3    8.324071459390e-06
     4    1.777538763704e-05
     5   -1.437562315137e-01
     6   -1.030640475408e-05
     7    1.322155632999e-05
     8    2.681122250814e-05
     9   -2.344661749872e-01
    10   -6.725173245813e-06
    11    8.280217507563e-07
    12   -6.216962521734e-06
    13   -2.047276973139e-01
    14   -3.677190430863e-06
    15   -1.063849306465e-04
    16   -7.694890796595e-05
    17   -2.212563125203e-02
    18   -7.785528418870e-08
    19   -9.694849085142e-03
    20    1.954077980378e-03
    21   -1.327291896251e-06
    22   -4.240792444307e-06
    23   -7.040381713055e-08
    24   -1.743388642838e-07
    25    3.266904016066e-06
    26   -1.028499503673e-05
    27   -1.115400459984e-01
    28    2.864769444233e-06
    29    6.478620829225e-06
    30   -1.385975466733e-05
    31   -1.814847527655e-01
    32   -3.683635962417e-05
    33   -2.678495661527e-05
    34    2.110431987599e-05
    35   -1.639219353940e-01
    36    3.618902742031e-04
    37   -8.325101923438e-05
    38    2.757708887048e-05
    39   -1.168991312415e-02
    40    1.414543190508e-06
    41    1.721999207668e-02
    42   -3.859394289171e-03
    43   -5.712437256371e-07
    44   -4.263316556572e-06
    45    1.233768266748e-06
    46    2.020667612092e-06
    47    1.040767275409e-05
    48    2.703987281759e-05
    49    3.750046956109e-02
    50   -8.016387688633e-06
    51    1.721115902809e-05
    52    4.031235742128e-05
    53    6.152707403479e-02
    54    6.077428633196e-05
    55   -6.759201836150e-06
    56    3.139793746986e-05
    57    5.698742867753e-02
    58    3.546435422150e-04
    59   -5.058793194009e-05
    60   -2.424949011296e-04
    61    8.693479794823e-03
    62   -1.814651318888e-06
    63   -1.207409872391e-04
    64   -2.770737277403e-02
    65    4.102514519904e-07
    66   -4.747054491857e-06
    67   -3.661868189118e-06
    68   -6.048388733028e-06
    69   -8.744852335661e-06
    70   -2.773550968378e-05
    71    1.416283545284e-01
    72    1.886549969402e-05
    73   -1.369952455499e-05
    74   -4.176648841135e-05
    75    2.306613767301e-01
    76   -2.113467277847e-05
    77    3.300283221068e-05
    78   -5.119600729395e-05
    79    2.039143367622e-01
    80   -8.803021679054e-04
    81    9.741164332595e-05
    82   -8.605814932840e-05
    83    1.334428544491e-02
    84   -3.130382737367e-06
    85   -8.277404665730e-03
    86    2.959562699034e-03
    87    1.867803180114e-06
    88   -4.393493162242e-06
    89   -2.766613114455e-08
    90   -6.339824489734e-08
    91    6.180551001463e-06
    92   -1.909608689718e-05
    93   -3.726405570176e-02
    94    1.354640362386e-06
    95    9.684934593177e-06
    96   -2.508908425543e-05
    97   -6.070135828577e-02
    98   -3.467719242991e-05
    99   -1.335109812561e-05
   100   -2.378259765982e-05
   101   -5.274652100350e-02
   102   -2.085713714261e-04
   103   -3.819691533019e-05
   104   -9.317839288327e-05
   105   -5.508614003598e-03
   106   -1.628716923588e-06
   107   -1.772026406020e-03
   108   -2.437025706101e-02
   109    2.195504847180e-07
   110   -1.136546140101e-06
   111    1.767291571141e-05
   112    2.708847987386e-05
   113    1.184973340255e-05
   114   -6.285443787836e-06
   115   -1.139356258609e-05
   116   -2.023651876658e-05
   117    8.086080774663e-06
   118    8.331624917859e-06
   119    8.422691337298e-06
   120    1.836723860937e-06
   121   -4.710447863175e-07
   122   -4.874843116243e-06
   123   -8.136928670294e-07
   124   -1.347761775232e-06
   125   -5.782575913720e-06
   126    3.565307805755e-06
   127   -1.922663794088e-03
   128    4.669576222552e-06
   129   -9.285897071863e-06
   130    7.182297607756e-06
   131   -2.928641064389e-03
   132    3.897522999988e-06
   133    1.295089118307e-06
   134   -1.896841606928e-05
   135   -3.365579085671e-03
   136   -3.356340208738e-05
   137    9.797504942261e-06
   138    1.543144354396e-04
   139   -1.116543204557e-02
   140    1.629119033388e-06
   141   -5.085903523234e-03
   142   -8.036427044706e-03
   143    4.017801233578e-06
   144    1.025164381354e-05
   145    1.068026162067e-06
   146    1.755680336331e-06
   147   -3.699621573947e-05
   148   -3.767450461351e-05
   149    1.248593668961e-02
   150   -6.552833512934e-06
   151   -5.473089692572e-05
   152   -5.566604817894e-05
   153    1.811336975965e-02
   154   -2.002203141379e-05
   155   -5.282929731319e-05
   156   -5.233108731278e-05
   157    1.791000117306e-02
   158    1.195442449019e-04
   159   -1.662740441855e-05
   160    1.850678192483e-05
   161    6.449485295140e-03
   162   -2.524810371931e-07
   163   -1.207105579449e-03
   164    5.963915364441e-04
   165    3.761956150424e-06
   166   -1.031569902346e-06
   167   -3.349683046480e-07
   168   -5.312656266607e-07
   169    6.074449533226e-05
   170   -4.569287313943e-05
   171   -3.979235706334e-02
   172    1.953984845025e-06
   173    9.001355458334e-05
   174   -6.722009458343e-05
   175   -5.873677586830e-02
   176    1.371362696927e-05
   177    8.354445778188e-05
   178   -6.529698057599e-05
   179   -5.658061648225e-02
   180   -1.022966576677e-04
   181    1.546816218454e-05
   182    1.544136164766e-05
   183   -4.936427669939e-03
   184   -2.627213473568e-07
   185    1.885455104155e-03
   186    2.677669855619e-03
   187   -4.537848004583e-06
   188   -1.731850035485e-06
   189    7.338597227306e-07
   190    1.354790677415e-06
   191   -6.312670070435e-07
   192    1.686605748280e-05
   193    1.031317936649e-01
   194   -5.666722724986e-06
   195   -1.085423111682e-06
   196    2.524049537197e-05
   197    1.684050841181e-01
   198    4.499360668161e-05
   199    3.088591526561e-05
   200    3.088288795290e-05
   201    1.473524109235e-01
   202    3.888266953915e-04
   203    1.381347851432e-04
   204    4.683857523351e-06
   205    1.780693161843e-02
   206    1.585212662049e-06
   207    1.740391362648e-02
   208   -4.886395961692e-03
   209   -3.692781794702e-08
   210   -6.677010343328e-06
   211   -2.070906943256e-05
   212   -2.534918012335e-05
   213   -2.924163735799e-06
Sym=X
Ene= -0.364550
Spin=Alpha
Occup=1
     1    1.830300160687e-06
     2    2.857137989965e-06
     3   -1.622140441529e-06
     4    5.758481356183e-05
     5    4.748172234866e-02
     6   -9.887147430316e-06
     7   -6.170875783600e-06
     8    8.619234802258e-05
     9    7.703104252005e-02
    10   -1.056228237497e-05
    11   -1.556184748524e-05
    12    7.778375659406e-05
    13    6.666204733585e-02
    14    3.211880371863e-05
    15   -3.058369109199e-05
    16   -2.074308928037e-05
    17    3.303431199357e-03
    18   -2.894008853357e-06
    19   -1.851456625047e-02
    20   -1.370248860082e-02
    21   -1.488505869170e-06
    22   -9.871922539800e-06
    23    2.572966399131e-06
    24    4.277803701548e-06
    25    1.275880179130e-07
    26   -3.531892303552e-05
    27   -9.125929845546e-02
    28   -1.264976232133e-05
    29   -5.387601240671e-07
    30   -5.302889233008e-05
    31   -1.489455397339e-01
    32    3.531966413803e-05
    33   -8.642303675115e-06
    34   -8.029210014272e-05
    35   -1.252783006256e-01
    36    2.880542161544e-05
    37   -3.921616732758e-05
    38    6.348540639001e-06
    39   -6.429937146225e-03
    40    2.815910904331e-06
    41   -1.417198873412e-02
    42    1.320281562692e-02
    43    1.305649060577e-06
    44   -1.079306728437e-05
    45   -3.726203072028e-06
    46   -6.090181624963e-06
    47   -1.841285519601e-05
    48    4.881527732529e-05
    49   -1.464665418268e-01
    50    2.041919861366e-05
    51   -3.093653432405e-05
    52    7.085366506393e-05
    53   -2.403042154578e-01
    54   -3.531200678502e-05
    55    1.367518932994e-05
    56    7.609175821155e-06
    57   -2.225044217899e-01
    58    2.978620803453e-05
    59    1.089152535926e-05
    60    1.093187584394e-05
    61   -3.394057842391e-02
    62   -1.330629570484e-06
    63    4.811315751181e-04
    64   -7.105005146099e-03
    65   -1.365438902728e-06
    66   -4.316715970810e-06
    67   -8.555457506248e-07
    68   -1.284792990580e-06
    69   -7.746270058029e-06
    70   -3.154210873847e-05
    71   -2.635036352533e-02
    72    1.148776591450e-06
    73   -8.829102200811e-06
    74   -4.599229847115e-05
    75   -4.327936904075e-02
    76    2.957248301021e-05
    77   -2.266742011534e-05
    78   -2.641263508058e-05
    79   -3.097214593667e-02
    80   -3.337816296732e-05
    81    1.279834013466e-05
    82    5.801646580800e-06
    83   -7.407951433195e-06
    84   -5.513324940545e-07
    85   -2.070594518724e-02
    86   -1.343201058022e-02
    87   -3.193051144461e-06
    88   -1.058067935173e-05
    89   -3.168158541676e-06
    90   -5.198610814988e-06
    91   -2.529844270840e-05
    92   -6.294111115149e-05
    93    1.452144023969e-01
    94    1.440254866837e-05
    95   -3.944998610266e-05
    96   -9.008135708314e-05
    97    2.365478884642e-01
    98    3.603623115855e-05
    99   -2.869648010305e-05
   100   -5.654577294258e-05
   101    2.055831216965e-01
   102   -1.411328908330e-04
   103   -3.274075652654e-05
   104   -2.071613819934e-05
   105    2.148180185128e-02
   106   -2.233794028105e-06
   107    6.897018590168e-03
   108   -6.245833278557e-03
   109   -1.999932481069e-07
   110   -6.905647396621e-06
   111    4.256257390759e-05
   112    5.606579365431e-05
   113    1.682774738003e-05
   114   -3.007349520581e-05
   115   -3.770027760312e-05
   116   -1.983611759875e-06
   117    2.802411598831e-05
   118    4.172291221963e-05
   119    2.003096085777e-05
   120    1.202296274077e-06
   121    4.283645907705e-06
   122    7.469739729108e-06
   123    1.264771184188e-06
   124    2.042154461107e-06
   125    8.173395375143e-06
   126   -3.118050113461e-06
   127    7.478637946151e-03
   128   -5.531391182348e-06
   129    1.312584379337e-05
   130   -5.625720061298e-06
   131    1.138793475271e-02
   132   -2.334012401789e-05
   133    2.425442806874e-06
   134    2.245333366991e-05
   135    1.311623116631e-02
   136   -2.900701264833e-05
   137   -1.215150262590e-06
   138    1.157292999775e-05
   139    4.360199453793e-02
   140   -2.043434749468e-07
   141    1.985631449439e-02
   142   -2.067304245097e-03
   143   -3.396168950041e-06
   144   -2.682522792633e-06
   145   -3.154983128342e-07
   146   -4.935675259138e-07
   147   -2.322161554346e-05
   148    1.181953963023e-05
   149    6.001341625458e-02
   150    1.668258818064e-06
   151   -3.453723069513e-05
   152    1.727308928083e-05
   153    8.916171875173e-02
   154    1.489089630183e-05
   155   -3.559815714434e-05
   156    1.979061883702e-05
   157    8.505394387366e-02
   158    1.745513819748e-05
   159   -7.282099054852e-06
   160    3.875980549938e-06
   161   -1.495258617308e-03
   162   -1.483591254110e-06
   163   -1.720163506477e-03
   164    4.481983683504e-03
   165   -3.652010089620e-07
   166   -1.370153011068e-06
   167   -3.551512665625e-07
   168   -6.089057645801e-07
   169   -6.035833521143e-06
   170    8.901208192313e-06
   171    4.655599834393e-02
   172    2.312602994216e-06
   173   -8.701490509910e-06
   174    1.307481398573e-05
   175    6.937847737337e-02
   176   -5.573382056537e-06
   177   -4.756612259338e-06
   178    1.337088223595e-05
   179    6.587874127462e-02
   180   -1.844811233504e-06
   181   -4.622856185450e-07
   182    2.500920674123e-06
   183   -4.425700906637e-03
   184    5.153905408362e-07
   185   -9.251539610301e-04
   186   -3.639136378044e-03
   187    5.879506759901e-07
   188   -5.201450430572e-08
   189    1.857308234391e-06
   190    3.103952967333e-06
   191   -4.701339797093e-06
   192    3.962054423081e-05
   193    1.107565302263e-01
   194   -7.851408137010e-06
   195   -5.471921394008e-06
   196    5.719711491078e-05
   197    1.802839811402e-01
   198   -4.521602642535e-05
   199   -1.403135428046e-05
   200    4.423081754820e-05
   201    1.568924209394e-01
   202    9.162056442286e-05
   203    2.189062986639e-05
   204    1.284765976610e-05
   205    1.353343150660e-02
   206    1.849196469037e-06
   207   -1.156723400956e-02
   208    1.295052593972e-02
   209    7.835997101345e-06
   210   -1.129513248816e-05
   211   -4.108766314002e-05
   212   -5.633874583959e-05
   213   -2.316844851747e-05
Sym=X
Ene= -0.373049
Spin=Alpha
Occup=1
     1   -2.056817252477e-03
     2   -3.138797820231e-03
     3    4.283429400516e-03
     4   -1.246422546629e-01
     5   -4.919978333811e-06
     6    1.362806805746e-02
     7    1.280583225045e-02
     8   -1.854860150246e-01
     9   -7.380435061354e-06
    10   -4.976128974779e-02
    11    4.071653771741e-03
    12   -1.501836685098e-01
    13   -8.315787645018e-06
    14    2.895300287670e-03
    15    1.318767040138e-02
    16    3.399341513891e-03
    17    2.637766817899e-06
    18    2.090729125635e-03
    19   -9.503693366629e-06
    20   -2.290176366937e-06
    21    9.634631215807e-03
    22    2.691298955343e-02
    23   -3.843632479625e-03
    24   -6.194847906714e-03
    25   -1.271629046568e-02
    26    8.621536886602e-02
    27   -5.621472237089e-05
    28    1.440907914686e-02
    29   -1.263431941060e-02
    30    1.276110453000e-01
    31   -9.171039897502e-05
    32    3.972989651122e-02
    33   -2.331166733550e-02
    34    1.199671985031e-01
    35   -8.063833121959e-05
    36    5.233355432732e-01
    37    9.258789503529e-02
    38   -8.222266489420e-02
    39   -2.178484935732e-05
    40   -7.246878663102e-04
    41   -2.512245151583e-06
    42    3.421307777729e-06
    43   -5.060508505230e-03
    44    2.715861792521e-02
    45    1.308457268117e-05
    46    2.188630137882e-05
    47   -1.286081839436e-04
    48   -1.064452512416e-01
    49   -6.275012913405e-05
    50   -6.674696390244e-05
    51   -2.179393936658e-04
    52   -1.495390485362e-01
    53   -1.021242675180e-04
    54   -3.360969163886e-04
    55   -2.515208295404e-04
    56   -5.946789699932e-02
    57   -9.333344999695e-05
    58    8.400593146612e-05
    59    8.203419216618e-05
    60   -3.886182600123e-01
    61   -3.439875774997e-05
    62    2.390068755568e-06
    63    7.120570016273e-07
    64   -9.371411382124e-06
    65   -1.796966440397e-05
    66    7.955474168021e-03
    67    3.846265515348e-03
    68    6.199546935086e-03
    69    1.275292548971e-02
    70    8.631104107602e-02
    71    1.017497732603e-05
    72   -1.442504927789e-02
    73    1.268045604903e-02
    74    1.277554663730e-01
    75    1.504093908818e-05
    76   -3.979201675158e-02
    77    2.350882300428e-02
    78    1.200882714430e-01
    79    2.391959375806e-05
    80   -5.237583979401e-01
    81   -9.257523166677e-02
    82   -8.235298579474e-02
    83    2.464326008553e-05
    84    7.248180516575e-04
    85   -7.383874524330e-06
    86   -8.461214531948e-06
    87    5.047018938627e-03
    88    2.715435349701e-02
    89    4.011453934348e-06
    90    6.387945691574e-06
    91    1.534358714018e-05
    92    1.273018160918e-01
    93    5.530611491561e-05
    94   -1.881620717382e-05
    95    2.270085407730e-05
    96    1.797349127358e-01
    97    8.891241611707e-05
    98   -1.833681762284e-05
    99    1.096320053920e-05
   100    1.089813166305e-01
   101    7.370275757885e-05
   102   -5.422410296133e-04
   103   -7.445597333562e-05
   104    4.436890092015e-03
   105    1.013475055083e-05
   106   -6.463628293053e-07
   107    2.988401629343e-06
   108   -5.870957446232e-06
   109   -5.029666724632e-06
   110    1.645712657764e-02
   111   -1.033073520438e-01
   112   -1.385219373822e-01
   113   -5.008989020911e-02
   114    7.193973270864e-02
   115    9.925780338892e-02
   116    2.177615975578e-02
   117   -7.196676465965e-02
   118   -9.928187175086e-02
   119   -2.177418618705e-02
   120   -1.914569015481e-05
   121   -2.551684503448e-05
   122   -4.938546929830e-06
   123    2.475715508336e-06
   124    4.148951144494e-06
   125    8.419006840818e-05
   126    6.877733885547e-03
   127    2.181656976957e-06
   128   -1.260916786667e-05
   129    1.364599171031e-04
   130    1.102096739554e-02
   131    3.089813139390e-06
   132   -8.757933690377e-06
   133   -8.221270418539e-05
   134   -3.432866226132e-02
   135    8.731786507689e-06
   136   -1.459566678039e-04
   137   -2.113448551384e-04
   138    7.739476490100e-02
   139    2.469492022218e-05
   140   -6.926977486279e-06
   141    7.877860675932e-06
   142   -8.260208024852e-06
   143   -6.565901864481e-05
   144    1.173479346510e-02
   145   -4.115759278454e-04
   146   -7.383928136538e-04
   147   -6.532852641612e-03
   148   -2.296816147865e-02
   149    5.801001463197e-05
   150    2.695393736025e-03
   151   -9.939548029592e-03
   152   -3.350054996335e-02
   153    8.578164125411e-05
   154   -1.574510828015e-02
   155   -2.575443561160e-03
   156   -3.556468891225e-02
   157    8.333205364318e-05
   158    2.820911455347e-02
   159   -5.899288044250e-04
   160    1.011734990462e-03
   161    1.409885271069e-06
   162    4.498641220144e-04
   163   -2.195760201473e-06
   164    4.036356314301e-06
   165    1.431112785620e-03
   166    6.871359034897e-05
   167    4.165116528263e-04
   168    7.464941724655e-04
   169    6.057806109543e-03
   170   -2.291537210085e-02
   171   -5.578451422267e-06
   172   -2.713033954972e-03
   173    9.243243187537e-03
   174   -3.342026601171e-02
   175   -8.102435755868e-06
   176    1.577444101568e-02
   177    1.933524194539e-03
   178   -3.550085388960e-02
   179   -7.758160675205e-06
   180   -2.797369311924e-02
   181    5.710334793178e-04
   182    9.563838653952e-04
   183   -9.995707869965e-06
   184   -4.551609365962e-04
   185    7.799804342783e-07
   186    5.524972363465e-08
   187   -1.416477790598e-03
   188    8.985830456238e-05
   189    2.064506353810e-03
   190    3.151278897045e-03
   191   -4.336423209034e-03
   192   -1.246329094810e-01
   193    4.597509089438e-05
   194   -1.366771719449e-02
   195   -1.287939188722e-02
   196   -1.854735669142e-01
   197    7.539306901511e-05
   198    4.985632124200e-02
   199   -4.076076097343e-03
   200   -1.502222378421e-01
   201    6.905429739739e-05
   202   -2.028214121453e-03
   203   -1.317431023513e-02
   204    3.612471942159e-03
   205   -2.170058791105e-06
   206   -2.091683267603e-03
   207   -1.143375102699e-06
   208    5.126961204295e-06
   209   -9.637131974975e-03
   210    2.692884393970e-02
   211    1.033270855073e-01
   212    1.385518182337e-01
   213    5.009948316435e-02
Sym=X
Ene= -0.407960
Spin=Alpha
Occup=1
     1    4.471498644696e-03
     2    7.019209686118e-03
     3   -2.007719765605e-02
     4    9.559956399015e-03
     5    3.569434379135e-05
     6   -1.862331496763e-02
     7   -2.813270573298e-02
     8    1.525577598689e-02
     9    5.916967034702e-05
    10   -7.545754269102e-02
    11   -6.546367674464e-02
    12   -4.128126307005e-03
    13    4.784604657196e-05
    14   -4.931232658491e-01
    15   -4.996455715829e-01
    16   -2.495819268875e-01
    17   -3.756811807479e-05
    18   -1.432438733120e-04
    19    2.960507711916e-06
    20    2.099514477796e-08
    21   -5.936127935615e-04
    22   -1.847848071262e-03
    23   -7.928963816866e-03
    24   -1.292235447507e-02
    25    2.975235739091e-02
    26   -6.085533925022e-03
    27    3.164348323177e-05
    28    3.830189627513e-02
    29    4.997174859092e-02
    30   -6.204724654041e-03
    31    5.089409727859e-05
    32    5.481263955854e-02
    33   -5.346311675084e-02
    34    2.666149730700e-02
    35    5.304143512716e-05
    36    2.764754396282e-01
    37   -6.463570447257e-01
    38    2.909796423687e-01
    39    4.565301277600e-05
    40    9.611958535461e-06
    41   -3.700762712826e-06
    42    1.205429154621e-06
    43   -5.938876189617e-03
    44   -1.750335810048e-03
    45    9.010956516601e-06
    46    1.513030961412e-05
    47   -6.355211669336e-05
    48    3.009425503637e-02
    49   -6.622079496667e-06
    50   -4.611592201398e-05
    51   -1.095868743527e-04
    52    5.110159730231e-02
    53   -1.186722071604e-05
    54   -2.039023388744e-04
    55   -1.391876628949e-04
    56    7.965441118557e-02
    57   -9.704420509837e-06
    58    3.472807136963e-04
    59    4.666514890232e-06
    60    5.120663118338e-01
    61   -3.484007640591e-06
    62    1.597849444475e-06
    63    9.200056467959e-07
    64    9.671733348715e-06
    65   -1.192099930676e-05
    66   -3.213292317428e-03
    67    7.932204713355e-03
    68    1.292769523466e-02
    69   -2.971266049376e-02
    70   -6.050951549208e-03
    71   -4.411784867379e-05
    72   -3.831838354065e-02
    73   -4.991946497059e-02
    74   -6.155320722867e-03
    75   -7.125421891936e-05
    76   -5.485870665817e-02
    77    5.359630311945e-02
    78    2.671218643222e-02
    79   -6.235188699343e-05
    80   -2.771385668969e-01
    81    6.463713517288e-01
    82    2.908422032920e-01
    83    2.392024370205e-05
    84   -9.263428715775e-06
    85    4.337544043350e-06
    86   -1.424974538463e-06
    87    5.932525509447e-03
    88   -1.751979674797e-03
    89    1.954066404373e-06
    90    3.100500239540e-06
    91   -4.480211207470e-06
    92   -1.155045416349e-03
    93    3.237339495242e-06
    94   -9.014736320905e-06
    95   -7.045186002139e-06