[Molden Format]
[Atoms] (Angs)
  C      1    6     -1.82075000      1.21221000      0.00007000
  C      2    6     -0.42782000      1.22011000      0.00011000
  C      3    6      0.24287000      0.00002000     -0.00001000
  C      4    6     -0.42786000     -1.22012000      0.00003000
  C      5    6     -2.51579000      0.00002000      0.00000000
  H      6    1     -2.36155000      2.15093000     -0.00002000
  H      7    1      0.13769000      2.14227000      0.00006000
  H      8    1      0.13768000     -2.14225000     -0.00012000
  H      9    1     -3.59985000     -0.00001000     -0.00023000
  N     10    7      1.70520000      0.00000000     -0.00004000
  O     11    8      2.29572000     -1.10489000      0.00011000
  O     12    8      2.29576000      1.10486000     -0.00013000
  C     13    6     -1.82075000     -1.21220000     -0.00006000
  H     14    1     -2.36162000     -2.15087000     -0.00013000
[GTO]
1    0
S    6    1.000000
   4.56324000E+03    1.96665000E-03 
   6.82024000E+02    1.52306000E-02 
   1.54973000E+02    7.61269000E-02 
   4.44553000E+01    2.60801000E-01 
   1.30290000E+01    6.16462000E-01 
   1.82773000E+00    2.21006000E-01 
SP   3    1.000000
   2.09642000E+01    1.14660000E-01   4.02487000E-02 
   4.80331000E+00    9.19999000E-01   2.37594000E-01 
   1.45933000E+00   -3.03068000E-03   8.15854000E-01 
SP   1    1.000000
   4.83456000E-01    1.00000000E+00   1.00000000E+00 
SP   1    1.000000
   1.45585000E-01    1.00000000E+00   1.00000000E+00 
SP   1    1.000000
   4.38000000E-02    1.00000000E+00   1.00000000E+00 
D    1    1.000000
   6.26000000E-01    1.00000000E+00 

2    0
S    6    1.000000
   4.56324000E+03    1.96665000E-03 
   6.82024000E+02    1.52306000E-02 
   1.54973000E+02    7.61269000E-02 
   4.44553000E+01    2.60801000E-01 
   1.30290000E+01    6.16462000E-01 
   1.82773000E+00    2.21006000E-01 
SP   3    1.000000
   2.09642000E+01    1.14660000E-01   4.02487000E-02 
   4.80331000E+00    9.19999000E-01   2.37594000E-01 
   1.45933000E+00   -3.03068000E-03   8.15854000E-01 
SP   1    1.000000
   4.83456000E-01    1.00000000E+00   1.00000000E+00 
SP   1    1.000000
   1.45585000E-01    1.00000000E+00   1.00000000E+00 
SP   1    1.000000
   4.38000000E-02    1.00000000E+00   1.00000000E+00 
D    1    1.000000
   6.26000000E-01    1.00000000E+00 

3    0
S    6    1.000000
   4.56324000E+03    1.96665000E-03 
   6.82024000E+02    1.52306000E-02 
   1.54973000E+02    7.61269000E-02 
   4.44553000E+01    2.60801000E-01 
   1.30290000E+01    6.16462000E-01 
   1.82773000E+00    2.21006000E-01 
SP   3    1.000000
   2.09642000E+01    1.14660000E-01   4.02487000E-02 
   4.80331000E+00    9.19999000E-01   2.37594000E-01 
   1.45933000E+00   -3.03068000E-03   8.15854000E-01 
SP   1    1.000000
   4.83456000E-01    1.00000000E+00   1.00000000E+00 
SP   1    1.000000
   1.45585000E-01    1.00000000E+00   1.00000000E+00 
SP   1    1.000000
   4.38000000E-02    1.00000000E+00   1.00000000E+00 
D    1    1.000000
   6.26000000E-01    1.00000000E+00 

4    0
S    6    1.000000
   4.56324000E+03    1.96665000E-03 
   6.82024000E+02    1.52306000E-02 
   1.54973000E+02    7.61269000E-02 
   4.44553000E+01    2.60801000E-01 
   1.30290000E+01    6.16462000E-01 
   1.82773000E+00    2.21006000E-01 
SP   3    1.000000
   2.09642000E+01    1.14660000E-01   4.02487000E-02 
   4.80331000E+00    9.19999000E-01   2.37594000E-01 
   1.45933000E+00   -3.03068000E-03   8.15854000E-01 
SP   1    1.000000
   4.83456000E-01    1.00000000E+00   1.00000000E+00 
SP   1    1.000000
   1.45585000E-01    1.00000000E+00   1.00000000E+00 
SP   1    1.000000
   4.38000000E-02    1.00000000E+00   1.00000000E+00 
D    1    1.000000
   6.26000000E-01    1.00000000E+00 

5    0
S    6    1.000000
   4.56324000E+03    1.96665000E-03 
   6.82024000E+02    1.52306000E-02 
   1.54973000E+02    7.61269000E-02 
   4.44553000E+01    2.60801000E-01 
   1.30290000E+01    6.16462000E-01 
   1.82773000E+00    2.21006000E-01 
SP   3    1.000000
   2.09642000E+01    1.14660000E-01   4.02487000E-02 
   4.80331000E+00    9.19999000E-01   2.37594000E-01 
   1.45933000E+00   -3.03068000E-03   8.15854000E-01 
SP   1    1.000000
   4.83456000E-01    1.00000000E+00   1.00000000E+00 
SP   1    1.000000
   1.45585000E-01    1.00000000E+00   1.00000000E+00 
SP   1    1.000000
   4.38000000E-02    1.00000000E+00   1.00000000E+00 
D    1    1.000000
   6.26000000E-01    1.00000000E+00 

6    0
S    3    1.000000
   3.38650000E+01    2.54938000E-02 
   5.09479000E+00    1.90373000E-01 
   1.15879000E+00    8.52161000E-01 
S    1    1.000000
   3.25840000E-01    1.00000000E+00 
S    1    1.000000
   1.02741000E-01    1.00000000E+00 

7    0
S    3    1.000000
   3.38650000E+01    2.54938000E-02 
   5.09479000E+00    1.90373000E-01 
   1.15879000E+00    8.52161000E-01 
S    1    1.000000
   3.25840000E-01    1.00000000E+00 
S    1    1.000000
   1.02741000E-01    1.00000000E+00 

8    0
S    3    1.000000
   3.38650000E+01    2.54938000E-02 
   5.09479000E+00    1.90373000E-01 
   1.15879000E+00    8.52161000E-01 
S    1    1.000000
   3.25840000E-01    1.00000000E+00 
S    1    1.000000
   1.02741000E-01    1.00000000E+00 

9    0
S    3    1.000000
   3.38650000E+01    2.54938000E-02 
   5.09479000E+00    1.90373000E-01 
   1.15879000E+00    8.52161000E-01 
S    1    1.000000
   3.25840000E-01    1.00000000E+00 
S    1    1.000000
   1.02741000E-01    1.00000000E+00 

10    0
S    6    1.000000
   6.29348000E+03    1.96979000E-03 
   9.49044000E+02    1.49613000E-02 
   2.18776000E+02    7.35006000E-02 
   6.36916000E+01    2.48937000E-01 
   1.88282000E+01    6.02460000E-01 
   2.72023000E+00    2.56202000E-01 
SP   3    1.000000
   3.06331000E+01    1.11906000E-01   3.83119000E-02 
   7.02614000E+00    9.21666000E-01   2.37403000E-01 
   2.11205000E+00   -2.56919000E-03   8.17592000E-01 
SP   1    1.000000
   6.84009000E-01    1.00000000E+00   1.00000000E+00 
SP   1    1.000000
   2.00878000E-01    1.00000000E+00   1.00000000E+00 
SP   1    1.000000
   6.39000000E-02    1.00000000E+00   1.00000000E+00 
D    1    1.000000
   9.13000000E-01    1.00000000E+00 

11    0
S    6    1.000000
   8.58850000E+03    1.89515000E-03 
   1.29723000E+03    1.43859000E-02 
   2.99296000E+02    7.07320000E-02 
   8.73771000E+01    2.40001000E-01 
   2.56789000E+01    5.94797000E-01 
   3.74004000E+00    2.80802000E-01 
SP   3    1.000000
   4.21175000E+01    1.13889000E-01   3.65114000E-02 
   9.62837000E+00    9.20811000E-01   2.37153000E-01 
   2.85332000E+00   -3.27447000E-03   8.19702000E-01 
SP   1    1.000000
   9.05661000E-01    1.00000000E+00   1.00000000E+00 
SP   1    1.000000
   2.55611000E-01    1.00000000E+00   1.00000000E+00 
SP   1    1.000000
   8.45000000E-02    1.00000000E+00   1.00000000E+00 
D    1    1.000000
   1.29200000E+00    1.00000000E+00 

12    0
S    6    1.000000
   8.58850000E+03    1.89515000E-03 
   1.29723000E+03    1.43859000E-02 
   2.99296000E+02    7.07320000E-02 
   8.73771000E+01    2.40001000E-01 
   2.56789000E+01    5.94797000E-01 
   3.74004000E+00    2.80802000E-01 
SP   3    1.000000
   4.21175000E+01    1.13889000E-01   3.65114000E-02 
   9.62837000E+00    9.20811000E-01   2.37153000E-01 
   2.85332000E+00   -3.27447000E-03   8.19702000E-01 
SP   1    1.000000
   9.05661000E-01    1.00000000E+00   1.00000000E+00 
SP   1    1.000000
   2.55611000E-01    1.00000000E+00   1.00000000E+00 
SP   1    1.000000
   8.45000000E-02    1.00000000E+00   1.00000000E+00 
D    1    1.000000
   1.29200000E+00    1.00000000E+00 

13    0
S    6    1.000000
   4.56324000E+03    1.96665000E-03 
   6.82024000E+02    1.52306000E-02 
   1.54973000E+02    7.61269000E-02 
   4.44553000E+01    2.60801000E-01 
   1.30290000E+01    6.16462000E-01 
   1.82773000E+00    2.21006000E-01 
SP   3    1.000000
   2.09642000E+01    1.14660000E-01   4.02487000E-02 
   4.80331000E+00    9.19999000E-01   2.37594000E-01 
   1.45933000E+00   -3.03068000E-03   8.15854000E-01 
SP   1    1.000000
   4.83456000E-01    1.00000000E+00   1.00000000E+00 
SP   1    1.000000
   1.45585000E-01    1.00000000E+00   1.00000000E+00 
SP   1    1.000000
   4.38000000E-02    1.00000000E+00   1.00000000E+00 
D    1    1.000000
   6.26000000E-01    1.00000000E+00 

14    0
S    3    1.000000
   3.38650000E+01    2.54938000E-02 
   5.09479000E+00    1.90373000E-01 
   1.15879000E+00    8.52161000E-01 
S    1    1.000000
   3.25840000E-01    1.00000000E+00 
S    1    1.000000
   1.02741000E-01    1.00000000E+00 

[MO]
Sym=X
Ene= -0.059404
Spin=Alpha
Occup=1
     1    6.362668357772e-03
     2    9.983092786826e-03
     3   -3.735924631763e-02
     4    1.270946425077e-01
     5   -8.314883954537e-05
     6   -3.257157949052e-02
     7   -6.015272803838e-02
     8    1.912728889669e-01
     9   -1.366846776883e-04
    10   -6.233282257352e-04
    11   -5.753880545235e-02
    12    1.348237507928e-01
    13   -8.193344862161e-05
    14   -2.375688881783e-01
    15   -2.568177419658e-01
    16   -1.215760570506e-01
    17   -2.168933068035e-05
    18   -2.599907940828e-03
    19   -9.650966275648e-06
    20    5.198028632486e-06
    21   -1.073428792340e-02
    22   -2.081139999821e-02
    23    1.496073324204e-03
    24    2.182274311028e-03
    25    4.831563490711e-02
    26   -3.160348516036e-02
    27   -1.206609887624e-04
    28   -4.070407128417e-03
    29    7.116566799210e-02
    30   -4.334068020217e-02
    31   -1.961240934114e-04
    32   -6.471098963646e-03
    33    8.321674031848e-03
    34   -3.577387612766e-02
    35   -1.301303451222e-04
    36   -2.820690059698e-01
    37   -3.820094930504e-01
    38    2.102012846159e-01
    39    3.166893985081e-05
    40   -3.807200537221e-04
    41   -5.700364555726e-07
    42    1.691739274007e-05
    43   -2.673337479797e-03
    44   -1.934364820976e-02
    45    2.317862590335e-04
    46    3.832151813381e-04
    47   -3.903372993023e-04
    48    7.607520194540e-02
    49   -1.606619062987e-04
    50   -1.166959354658e-03
    51   -7.210468830731e-04
    52    1.101177477588e-01
    53   -2.643450404234e-04
    54   -3.707287931049e-03
    55   -1.506329430309e-03
    56    8.790041557575e-02
    57   -1.929487766595e-04
    58    1.281514972249e-03
    59   -6.268920999482e-04
    60    5.593831456943e-01
    61   -2.181043744219e-05
    62   -2.720820564403e-05
    63    6.911228059328e-06
    64    4.644978228386e-07
    65    4.145476231604e-04
    66   -1.000059872941e-03
    67   -2.338528925413e-03
    68   -3.521831957531e-03
    69   -5.303118758485e-02
    70   -3.060325741763e-02
    71   -1.301268538638e-04
    72    7.889966922209e-03
    73   -7.781356263051e-02
    74   -4.159549065571e-02
    75   -2.136101305615e-04
    76    7.780581182861e-03
    77   -1.206635934980e-02
    78   -3.453489358693e-02
    79   -1.430710235797e-04
    80    2.643045788161e-01
    81    3.870393006629e-01
    82    2.089681724011e-01
    83    1.376595040295e-05
    84    3.883577321973e-04
    85    2.433969832973e-06
    86   -1.628839474505e-05
    87    2.889285537317e-03
    88   -1.930859241160e-02
    89   -1.979756145673e-04
    90   -3.133092263531e-04
    91   -3.804247103361e-03
    92   -1.039635989493e-01
    93   -7.513523324576e-05
    94    6.826069476103e-04
    95   -5.836599985874e-03
    96   -1.461756313376e-01
    97   -1.217138388907e-04
    98    2.347759447700e-03
    99   -4.418634030406e-03
   100   -9.858938866925e-02
   101   -7.047044974007e-05
   102   -1.104482337369e-02
   103   -2.615129052363e-03
   104   -2.241288861079e-01
   105   -6.360557087754e-06
   106   -8.938215119528e-05
   107   -1.166459005167e-05
   108    4.446655509058e-07
   109    1.068872727533e-03
   110   -1.901094920972e-02
   111    1.103270929965e-01
   112    1.479692640005e-01
   113    4.967725347990e-02
   114   -1.676351933068e-02
   115   -2.949763362713e-02
   116   -1.837209205136e-02
   117    1.490794545033e-02
   118    2.709381755223e-02
   119    1.756096886972e-02
   120    3.797570369621e-03
   121    5.047729230475e-03
   122    1.827217375797e-03
   123   -8.131764896598e-05
   124   -1.326553362572e-04
   125   -8.666754500469e-04
   126    1.992379965639e-03
   127   -4.937836779261e-05
   128    4.165186052943e-04
   129   -1.246992037425e-03
   130    5.431987375672e-03
   131   -8.037584739196e-05
   132    8.640403757183e-04
   133   -2.365553334503e-03
   134   -3.026611470088e-02
   135   -4.429054831304e-05
   136   -5.748720089968e-04
   137   -2.064256126487e-03
   138   -7.540246135508e-03
   139    4.016351619605e-05
   140    2.444388831138e-05
   141    1.223961307046e-05
   142   -2.018630645926e-05
   143   -4.660536508289e-04
   144    1.151808002451e-02
   145    1.430784012207e-03
   146    2.395142203716e-03
   147   -7.861005723764e-02
   148   -5.609229876514e-02
   149    9.586961222518e-05
   150   -8.217552351483e-03
   151   -1.169346376000e-01
   152   -8.253258885658e-02
   153    1.405598498501e-04
   154   -2.147616331047e-02
   155   -1.077249930942e-01
   156   -8.179568558522e-02
   157    1.486824086945e-04
   158    2.065052704274e-02
   159   -1.175096808713e-02
   160    7.204742289002e-03
   161    5.191311490934e-06
   162   -2.225510225575e-04
   163   -1.310838154427e-06
   164    4.479494539247e-06
   165    5.760861996002e-03
   166   -2.517317208311e-03
   167   -1.600032243375e-03
   168   -2.670416809297e-03
   169    7.549632918290e-02
   170   -5.440598458323e-02
   171   -7.161358537554e-05
   172    9.071756551174e-03
   173    1.123427207129e-01
   174   -8.002920299844e-02
   175   -1.072012465603e-04
   176    2.329050371960e-02
   177    1.035824869227e-01
   178   -8.022067372426e-02
   179   -9.106778571022e-05
   180   -1.818578431950e-02
   181    1.190662393950e-02
   182    6.480595539395e-03
   183   -1.905819499227e-05
   184    2.560131409516e-04
   185    5.493132775272e-06
   186    6.333266077780e-06
   187   -5.499999885946e-03
   188   -2.355934776837e-03
   189   -5.331966392528e-03
   190   -8.345138136476e-03
   191    4.326965587677e-02
   192    1.273721349788e-01
   193   -8.079403715597e-05
   194    2.818252994813e-02
   195    6.879567838120e-02
   196    1.921305662420e-01
   197   -1.321143285073e-04
   198   -3.766177256556e-03
   199    6.363966822225e-02
   200    1.354661698192e-01
   201   -8.995796517773e-05
   202    2.646085709761e-01
   203    2.603702025310e-01
   204   -1.180104312861e-01
   205    3.536984554834e-06
   206    2.685302346133e-03
   207   -1.152610551584e-05
   208   -8.603883478021e-06
   209    1.201017910681e-02
   210   -2.138814260416e-02
   211   -1.142856492104e-01
   212   -1.529974483542e-01
   213   -5.149057839121e-02
Sym=X
Ene= -0.185787
Spin=Alpha
Occup=1
     1   -3.712408759165e-03
     2   -5.883086978876e-03
     3    7.726624653251e-03
     4    6.301985322789e-02
     5    5.905962648432e-04
     6    1.249181754392e-02
     7    6.396643943854e-03
     8    9.364024559238e-02
     9    9.620872506343e-04
    10    9.442424827980e-02
    11    4.712504590404e-02
    12    8.720484325633e-02
    13    6.654408231917e-04
    14    4.119443465175e-01
    15    4.171442183409e-01
    16    2.134650632209e-01
    17    7.539975031795e-05
    18   -1.373768007565e-03
    19    4.841795043218e-05
    20   -5.906552322881e-05
    21   -5.491583686463e-03
    22   -1.241545505116e-02
    23    1.050046155810e-02
    24    1.696055991488e-02
    25   -1.451376500890e-02
    26   -3.080046495119e-02
    27    6.691603573729e-04
    28   -4.785313275652e-02
    29   -2.964306931742e-02
    30   -4.775004293397e-02
    31    1.095721404039e-03
    32   -7.129151170686e-02
    33    6.082933337136e-02
    34   -7.550170269093e-02
    35    7.136483537196e-04
    36   -4.963800379185e-01
    37    5.038430688127e-01
    38   -2.068589260167e-01
    39   -6.191399863253e-05
    40    2.894726831099e-04
    41   -3.010407845689e-05
    42   -7.697431722228e-05
    43    7.031170501840e-03
    44   -1.211508797958e-02
    45    5.950225654664e-05
    46    9.868875369673e-05
    47   -3.654730307142e-04
    48    2.235772207729e-02
    49    7.502104124525e-04
    50   -2.973449024707e-04
    51   -6.323062503722e-04
    52    2.341984653820e-02
    53    1.226029732279e-03
    54   -1.232884353168e-03
    55   -7.859891112334e-04
    56   -3.798112416913e-02
    57    9.424547655873e-04
    58    1.233362583104e-03
    59   -2.421804187445e-05
    60   -2.376925873375e-01
    61    1.603363044679e-04
    62    7.667134661800e-06
    63   -7.219762190815e-05
    64    4.712405285091e-07
    65   -6.002107054382e-05
    66    3.734477345689e-04
    67   -1.052908309825e-02
    68   -1.700506110396e-02
    69    1.464733183510e-02
    70   -3.062935179845e-02
    71    6.603545662793e-04
    72    4.796640352941e-02
    73    2.982260603492e-02
    74   -4.750168212728e-02
    75    1.080739641161e-03
    76    7.130057979623e-02
    77   -6.018962159763e-02
    78   -7.521344985003e-02
    79    7.022343035499e-04
    80    4.932869409331e-01
    81   -5.035290393544e-01
    82   -2.074982241926e-01
    83   -6.857676868204e-05
    84   -2.913448985949e-04
    85   -3.019705083275e-05
    86    7.936206102449e-05
    87   -7.068041581547e-03
    88   -1.213470176128e-02
    89    8.318458837955e-06
    90    1.299831072540e-05
    91   -1.355353284564e-04
    92   -6.435583598302e-02
    93    5.488326913335e-04
    94   -4.216622777165e-05
    95   -2.086413013514e-04
    96   -9.327439720126e-02
    97    8.971001173840e-04
    98    6.908464382620e-05
    99   -1.162487202095e-04
   100   -3.851663684158e-02
   101    5.914780313775e-04
   102   -1.985424027326e-03
   103   -3.223923648275e-04
   104    3.797207779022e-01
   105   -8.422276288494e-07
   106   -4.570662952997e-06
   107    7.018505259225e-05
   108    5.686417362679e-07
   109    3.420292964582e-06
   110   -7.353522400603e-03
   111    5.149413762793e-02
   112    6.457537431485e-02
   113    2.189903345776e-02
   114   -3.872839147584e-02
   115   -5.143798482358e-02
   116    7.153282255914e-03
   117    3.875772161656e-02
   118    5.147678822135e-02
   119   -7.137788465899e-03
   120    9.747665488082e-05
   121    1.120340829785e-04
   122    3.285804513182e-05
   123    2.987034244044e-06
   124    5.452762397342e-06
   125    2.175964061844e-04
   126   -1.352530439812e-02
   127   -1.696952889551e-04
   128   -1.890916853161e-05
   129    3.551682111892e-04
   130   -2.622135396279e-02
   131   -2.587134477163e-04
   132   -2.117874036459e-05
   133   -3.359429667063e-04
   134    9.839779930145e-02
   135   -2.629195215847e-04
   136   -4.811007179606e-04
   137   -6.638731118227e-04
   138   -1.652968563176e-01
   139   -2.436582179726e-04
   140   -2.251997595472e-05
   141   -9.009276029070e-05
   142   -1.964657250581e-06
   143   -2.243498993704e-04
   144   -3.935018620823e-02
   145   -1.984273512395e-03
   146   -3.179338059481e-03
   147    1.459487130812e-01
   148    1.342025380269e-01
   149   -2.755073510988e-04
   150    1.121794024262e-02
   151    2.172925001233e-01
   152    1.970256182500e-01
   153   -4.112926415846e-04
   154    6.215390148834e-02
   155    1.917265440005e-01
   156    1.974979764680e-01
   157   -3.628670672708e-04
   158   -1.158384922907e-01
   159    2.389781303369e-02
   160   -1.858552309146e-02
   161    6.334286819252e-05
   162   -7.022688913353e-05
   163    9.891686474748e-06
   164   -2.835427546869e-05
   165   -1.251385803638e-02
   166    4.072193553386e-03
   167    1.995861712412e-03
   168    3.198429872232e-03
   169   -1.475567967786e-01
   170    1.344467859877e-01
   171   -2.905434485605e-04
   172   -1.125691084139e-02
   173   -2.196507857689e-01
   174    1.973942251943e-01
   175   -4.345239305034e-04
   176   -6.199536354043e-02
   177   -1.938979613104e-01
   178    1.977639871488e-01
   179   -3.797992133892e-04
   180    1.166440545626e-01
   181   -2.397510614240e-02
   182   -1.876178568405e-02
   183    4.365720733861e-05
   184    5.404019149824e-05
   185    1.113308594672e-05
   186    2.883525662693e-05
   187    1.257250751085e-02
   188    4.142987658946e-03
   189    3.754168486960e-03
   190    5.949677908683e-03
   191   -7.851689184287e-03
   192    6.287280505771e-02
   193    5.876519986341e-04
   194   -1.268762945293e-02
   195   -6.577619921054e-03
   196    9.341932626420e-02
   197    9.585084816006e-04
   198   -9.415159572516e-02
   199   -4.709159107512e-02
   200    8.695080874433e-02
   201    6.521988939834e-04
   202   -4.081363946554e-01
   203   -4.169050298721e-01
   204    2.142117013532e-01
   205    3.091278136766e-05
   206    1.370587897431e-03
   207    4.639779474481e-05
   208    5.732368225040e-05
   209    5.503205780234e-03
   210   -1.238658018302e-02
   211   -5.135852948734e-02
   212   -6.441096965414e-02
   213   -2.188592110514e-02
Sym=X
Ene= -0.223432
Spin=Alpha
Occup=1
     1   -2.546106128100e-05
     2   -4.015148127603e-05
     3    1.216486412875e-04
     4    2.634207593892e-04
     5   -9.621641482988e-02
     6    9.210812701174e-05
     7    1.540085258775e-04
     8    3.862484095772e-04
     9   -1.569003736031e-01
    10    6.083739416887e-04
    11    4.050750579853e-04
    12    3.969057799769e-04
    13   -1.093659566029e-01
    14    2.460383732303e-03
    15    2.954750179534e-03
    16    1.596477681930e-03
    17   -6.805336440620e-03
    18   -4.933074585624e-06
    19   -6.033636871570e-03
    20    9.939371005351e-03
    21   -2.221679766030e-05
    22   -5.417587654821e-05
    23    6.701548443936e-05
    24    1.085184356410e-04
    25   -1.645918708301e-04
    26   -1.379307776479e-04
    27   -9.686811967872e-02
    28   -3.079127347375e-04
    29   -2.940347768678e-04
    30   -2.206475129164e-04
    31   -1.585453909795e-01
    32   -4.839305683598e-04
    33    3.773962556573e-04
    34   -4.049261274980e-04
    35   -1.023079245907e-01
    36   -2.391386847880e-03
    37    3.651694668532e-03
    38   -1.669749977319e-03
    39    5.552440027906e-03
    40    4.813185556858e-06
    41    5.879541271161e-03
    42    1.073871858670e-02
    43    5.026013493359e-05
    44   -5.435890368540e-05
    45   -1.188525299531e-06
    46   -2.142824721099e-06
    47    2.354006226693e-05
    48    5.755309298007e-05
    49   -1.023048669031e-01
    50    5.800152390702e-06
    51    3.974748601364e-05
    52    2.581176586455e-05
    53   -1.670122030651e-01
    54    8.366772248998e-05
    55    9.757003484825e-07
    56   -3.609827193732e-04
    57   -1.258404612329e-01
    58   -7.527531197433e-04
    59    1.310282111189e-04
    60   -2.105041263724e-03
    61   -1.973071081875e-02
    62   -4.017656864798e-06
    63    1.114466653787e-02
    64    9.642899768124e-06
    65    6.760951799545e-06
    66    6.116714255662e-06
    67   -6.130518527301e-05
    68   -9.935633207972e-05
    69    1.258526676713e-04
    70   -1.547252655278e-04
    71   -9.692222213559e-02
    72    2.853720378516e-04
    73    2.387872526826e-04
    74   -2.456543854522e-04
    75   -1.586265365646e-01
    76    3.806496863720e-04
    77   -4.034176809232e-04
    78   -4.700383235413e-04
    79   -1.024072213846e-01
    80    3.737961048224e-03
    81   -3.768775914087e-03
    82   -1.452473765569e-03
    83    5.511186584137e-03
    84    1.623781000052e-06
    85    5.882303872180e-03
    86   -1.073694507280e-02
    87   -4.572435099341e-05
    88   -5.891240410219e-05
    89   -2.514313426609e-08
    90    7.341775568779e-08
    91    1.765338587357e-05
    92   -3.118303699523e-04
    93   -9.640281290474e-02
    94    1.027555810004e-07
    95    2.766386607054e-05
    96   -4.560988806972e-04
    97   -1.574479837542e-01
    98   -3.063403872416e-05
    99    4.686796744027e-07
   100   -1.435188371490e-04
   101   -1.075606393870e-01
   102    5.121040770308e-04
   103    9.731171568996e-05
   104    2.715041787342e-03
   105    9.086792827369e-04
   106    1.040066852449e-06
   107   -1.136209130004e-02
   108    4.842469208096e-06
   109    5.680166892776e-06
   110   -2.855810284262e-05
   111    1.947423908596e-04
   112    2.328506983625e-04
   113    8.532560565297e-05
   114   -2.206070435194e-04
   115   -2.905026524830e-04
   116    5.651085696255e-05
   117    2.198386511678e-04
   118    2.820861914420e-04
   119   -9.252891741874e-05
   120    2.813215214125e-06
   121    2.254737235678e-06
   122   -8.839316231990e-06
   123   -2.221548257300e-06
   124   -3.583052436348e-06
   125   -2.293130236037e-05
   126   -7.384825038126e-05
   127    2.883197914094e-02
   128    1.014420279894e-05
   129   -3.564641439145e-05
   130   -1.512160549102e-04
   131    4.422828727067e-02
   132    2.877990852842e-05
   133   -1.585302298385e-06
   134    6.968233077690e-04
   135    4.158513822479e-02
   136    7.880037341202e-05
   137    1.367130657763e-05
   138   -1.099167190650e-03
   139    3.378313420498e-02
   140    1.654974601956e-06
   141    1.295014277218e-02
   142    5.254772140916e-05
   143    1.244383039813e-05
   144   -2.673689700452e-04
   145   -1.816683778344e-05
   146   -2.924936691530e-05
   147    1.090650553846e-03
   148    9.348108043312e-04
   149    3.816652827961e-02
   150    9.886872253360e-05
   151    1.621922603288e-03
   152    1.373079120927e-03
   153    5.717043748234e-02
   154    4.508664013092e-04
   155    1.437431338642e-03
   156    1.379772788931e-03
   157    4.875775234099e-02
   158   -8.264545182026e-04
   159    1.756920016001e-04
   160   -1.378819979526e-04
   161   -7.479555933773e-03
   162    1.939812181743e-07
   163   -1.709514941181e-03
   164    4.074108979450e-03
   165   -8.944022537539e-05
   166    3.188511424504e-05
   167    1.763596414567e-05
   168    2.836179798846e-05
   169   -1.002429572388e-03
   170    9.250639814851e-04
   171    3.859666909208e-02
   172   -9.723206697508e-05
   173   -1.493050384637e-03
   174    1.358600495284e-03
   175    5.780765234938e-02
   176   -4.583220205222e-04
   177   -1.314555760381e-03
   178    1.368004786416e-03
   179    4.936832925398e-02
   180    7.702720161486e-04
   181   -1.645211120993e-04
   182   -1.288640573506e-04
   183   -7.396560478006e-03
   184    5.283432006644e-07
   185   -1.728452954707e-03
   186   -4.101281562217e-03
   187    8.703760033221e-05
   188    2.836168671751e-05
   189    2.551537014679e-05
   190    4.023173320540e-05
   191   -6.710572612917e-05
   192    3.035297268907e-04
   193   -9.626420051919e-02
   194   -9.192069179907e-05
   195   -7.007173742214e-05
   196    4.506243305220e-04
   197   -1.569810172260e-01
   198   -5.846359259546e-04
   199   -3.374274996352e-04
   200    4.681633951434e-04
   201   -1.094199619148e-01
   202   -3.583859204281e-03
   203   -3.071189718929e-03
   204    1.437948724791e-03
   205   -6.790153393808e-03
   206    3.413410844222e-06
   207   -6.039483516976e-03
   208   -9.938278476509e-03
   209    2.458159330391e-05
   210   -5.937367989294e-05
   211   -2.365546867923e-04
   212   -2.849087821621e-04
   213   -8.393459268368e-05
Sym=X
Ene= -0.332841
Spin=Alpha
Occup=1
     1    1.443698560981e-04
     2    2.430458960144e-04
     3   -3.574873911804e-02
     4    2.280135480834e-02
     5   -4.414533491864e-05
     6   -3.031695829653e-03
     7   -5.219982337810e-02
     8    3.616081915949e-02
     9   -7.190144181301e-05
    10    5.812969961161e-02
    11   -1.718267996251e-02
    12    3.856326278744e-02
    13   -5.065212864613e-05
    14    3.428453634452e-01
    15    1.129894139711e-02
    16   -7.277852545211e-02
    17   -1.154129542164e-05
    18   -9.492933697873e-04
    19   -4.284182207265e-07
    20    3.410256572041e-06
    21   -2.889482323892e-03
    22   -8.466902941408e-03
    23    1.399431726081e-03
    24    2.437266399118e-03
    25    2.710597927698e-02
    26   -3.489491578912e-02
    27   -2.753353580746e-05
    28   -8.302503360524e-03
    29    3.593411815249e-02
    30   -5.139680677380e-02
    31   -4.494244628994e-05
    32   -2.061257420103e-02
    33    8.766277481235e-02
    34   -4.793394683789e-02
    35   -3.004575645234e-05
    36   -2.498075782422e-01
    37    1.549088170622e-02
    38    5.973748545896e-02
    39    7.642034398593e-06
    40    3.539837605039e-05
    41    4.295192174496e-06
    42    1.886469323977e-06
    43   -5.724354949284e-03
    44   -7.422980421152e-05
    45    8.755973477227e-03
    46    1.475825586664e-02
    47   -1.036457531958e-01
    48   -3.386199234636e-04
    49   -5.133739695349e-06
    50   -4.545431322360e-02
    51   -1.752477991273e-01
    52   -4.558031807123e-04
    53   -8.454139295497e-06
    54   -2.698551583186e-01
    55   -1.945474413994e-01
    56   -8.705002925078e-05
    57   -3.309485936224e-06
    58    1.889349655816e-01
    59    2.370172336262e-02
    60   -5.463578921718e-04
    61    1.397613801547e-05
    62    2.389534273103e-03
    63    3.295081236796e-06
    64   -6.659405775660e-07
    65   -1.720034790380e-02
    66    1.571070300231e-05
    67    1.477992093702e-03
    68    2.563719281465e-03
    69    2.715429368020e-02
    70    3.546753868517e-02
    71   -1.589897770412e-05
    72   -8.643084453184e-03
    73    3.593226547973e-02
    74    5.225271417822e-02
    75   -2.578141209049e-05
    76   -2.120109760604e-02
    77    8.811475158017e-02
    78    4.890692887949e-02
    79   -1.421538077080e-05
    80   -2.551525406212e-01
    81    1.738703090834e-02
    82   -5.921407884103e-02
    83   -2.808058892538e-07
    84    3.903342169620e-05
    85    3.425684428353e-06
    86   -1.819528415634e-06
    87   -5.666702311002e-03
    88    2.859879518657e-04
    89    7.638251028859e-03
    90    1.213130269279e-02
    91   -6.540940194881e-03
    92    5.260624913067e-04
    93   -4.449623804734e-05
    94   -3.413780238587e-02
    95   -9.667105902908e-03