[Molden Format]
[Atoms] (Angs)
  C      1    6     -1.82075000      1.21221000      0.00007000
  C      2    6     -0.42782000      1.22011000      0.00011000
  C      3    6      0.24287000      0.00002000     -0.00001000
  C      4    6     -0.42786000     -1.22012000      0.00003000
  C      5    6     -2.51579000      0.00002000      0.00000000
  H      6    1     -2.36155000      2.15093000     -0.00002000
  H      7    1      0.13769000      2.14227000      0.00006000
  H      8    1      0.13768000     -2.14225000     -0.00012000
  H      9    1     -3.59985000     -0.00001000     -0.00023000
  N     10    7      1.70520000      0.00000000     -0.00004000
  O     11    8      2.29572000     -1.10489000      0.00011000
  O     12    8      2.29576000      1.10486000     -0.00013000
  C     13    6     -1.82075000     -1.21220000     -0.00006000
  H     14    1     -2.36162000     -2.15087000     -0.00013000
[GTO]
1    0
S    6    1.000000
   4.56324000E+03    1.96665000E-03 
   6.82024000E+02    1.52306000E-02 
   1.54973000E+02    7.61269000E-02 
   4.44553000E+01    2.60801000E-01 
   1.30290000E+01    6.16462000E-01 
   1.82773000E+00    2.21006000E-01 
SP   3    1.000000
   2.09642000E+01    1.14660000E-01   4.02487000E-02 
   4.80331000E+00    9.19999000E-01   2.37594000E-01 
   1.45933000E+00   -3.03068000E-03   8.15854000E-01 
SP   1    1.000000
   4.83456000E-01    1.00000000E+00   1.00000000E+00 
SP   1    1.000000
   1.45585000E-01    1.00000000E+00   1.00000000E+00 
SP   1    1.000000
   4.38000000E-02    1.00000000E+00   1.00000000E+00 
D    1    1.000000
   6.26000000E-01    1.00000000E+00 

2    0
S    6    1.000000
   4.56324000E+03    1.96665000E-03 
   6.82024000E+02    1.52306000E-02 
   1.54973000E+02    7.61269000E-02 
   4.44553000E+01    2.60801000E-01 
   1.30290000E+01    6.16462000E-01 
   1.82773000E+00    2.21006000E-01 
SP   3    1.000000
   2.09642000E+01    1.14660000E-01   4.02487000E-02 
   4.80331000E+00    9.19999000E-01   2.37594000E-01 
   1.45933000E+00   -3.03068000E-03   8.15854000E-01 
SP   1    1.000000
   4.83456000E-01    1.00000000E+00   1.00000000E+00 
SP   1    1.000000
   1.45585000E-01    1.00000000E+00   1.00000000E+00 
SP   1    1.000000
   4.38000000E-02    1.00000000E+00   1.00000000E+00 
D    1    1.000000
   6.26000000E-01    1.00000000E+00 

3    0
S    6    1.000000
   4.56324000E+03    1.96665000E-03 
   6.82024000E+02    1.52306000E-02 
   1.54973000E+02    7.61269000E-02 
   4.44553000E+01    2.60801000E-01 
   1.30290000E+01    6.16462000E-01 
   1.82773000E+00    2.21006000E-01 
SP   3    1.000000
   2.09642000E+01    1.14660000E-01   4.02487000E-02 
   4.80331000E+00    9.19999000E-01   2.37594000E-01 
   1.45933000E+00   -3.03068000E-03   8.15854000E-01 
SP   1    1.000000
   4.83456000E-01    1.00000000E+00   1.00000000E+00 
SP   1    1.000000
   1.45585000E-01    1.00000000E+00   1.00000000E+00 
SP   1    1.000000
   4.38000000E-02    1.00000000E+00   1.00000000E+00 
D    1    1.000000
   6.26000000E-01    1.00000000E+00 

4    0
S    6    1.000000
   4.56324000E+03    1.96665000E-03 
   6.82024000E+02    1.52306000E-02 
   1.54973000E+02    7.61269000E-02 
   4.44553000E+01    2.60801000E-01 
   1.30290000E+01    6.16462000E-01 
   1.82773000E+00    2.21006000E-01 
SP   3    1.000000
   2.09642000E+01    1.14660000E-01   4.02487000E-02 
   4.80331000E+00    9.19999000E-01   2.37594000E-01 
   1.45933000E+00   -3.03068000E-03   8.15854000E-01 
SP   1    1.000000
   4.83456000E-01    1.00000000E+00   1.00000000E+00 
SP   1    1.000000
   1.45585000E-01    1.00000000E+00   1.00000000E+00 
SP   1    1.000000
   4.38000000E-02    1.00000000E+00   1.00000000E+00 
D    1    1.000000
   6.26000000E-01    1.00000000E+00 

5    0
S    6    1.000000
   4.56324000E+03    1.96665000E-03 
   6.82024000E+02    1.52306000E-02 
   1.54973000E+02    7.61269000E-02 
   4.44553000E+01    2.60801000E-01 
   1.30290000E+01    6.16462000E-01 
   1.82773000E+00    2.21006000E-01 
SP   3    1.000000
   2.09642000E+01    1.14660000E-01   4.02487000E-02 
   4.80331000E+00    9.19999000E-01   2.37594000E-01 
   1.45933000E+00   -3.03068000E-03   8.15854000E-01 
SP   1    1.000000
   4.83456000E-01    1.00000000E+00   1.00000000E+00 
SP   1    1.000000
   1.45585000E-01    1.00000000E+00   1.00000000E+00 
SP   1    1.000000
   4.38000000E-02    1.00000000E+00   1.00000000E+00 
D    1    1.000000
   6.26000000E-01    1.00000000E+00 

6    0
S    3    1.000000
   3.38650000E+01    2.54938000E-02 
   5.09479000E+00    1.90373000E-01 
   1.15879000E+00    8.52161000E-01 
S    1    1.000000
   3.25840000E-01    1.00000000E+00 
S    1    1.000000
   1.02741000E-01    1.00000000E+00 

7    0
S    3    1.000000
   3.38650000E+01    2.54938000E-02 
   5.09479000E+00    1.90373000E-01 
   1.15879000E+00    8.52161000E-01 
S    1    1.000000
   3.25840000E-01    1.00000000E+00 
S    1    1.000000
   1.02741000E-01    1.00000000E+00 

8    0
S    3    1.000000
   3.38650000E+01    2.54938000E-02 
   5.09479000E+00    1.90373000E-01 
   1.15879000E+00    8.52161000E-01 
S    1    1.000000
   3.25840000E-01    1.00000000E+00 
S    1    1.000000
   1.02741000E-01    1.00000000E+00 

9    0
S    3    1.000000
   3.38650000E+01    2.54938000E-02 
   5.09479000E+00    1.90373000E-01 
   1.15879000E+00    8.52161000E-01 
S    1    1.000000
   3.25840000E-01    1.00000000E+00 
S    1    1.000000
   1.02741000E-01    1.00000000E+00 

10    0
S    6    1.000000
   6.29348000E+03    1.96979000E-03 
   9.49044000E+02    1.49613000E-02 
   2.18776000E+02    7.35006000E-02 
   6.36916000E+01    2.48937000E-01 
   1.88282000E+01    6.02460000E-01 
   2.72023000E+00    2.56202000E-01 
SP   3    1.000000
   3.06331000E+01    1.11906000E-01   3.83119000E-02 
   7.02614000E+00    9.21666000E-01   2.37403000E-01 
   2.11205000E+00   -2.56919000E-03   8.17592000E-01 
SP   1    1.000000
   6.84009000E-01    1.00000000E+00   1.00000000E+00 
SP   1    1.000000
   2.00878000E-01    1.00000000E+00   1.00000000E+00 
SP   1    1.000000
   6.39000000E-02    1.00000000E+00   1.00000000E+00 
D    1    1.000000
   9.13000000E-01    1.00000000E+00 

11    0
S    6    1.000000
   8.58850000E+03    1.89515000E-03 
   1.29723000E+03    1.43859000E-02 
   2.99296000E+02    7.07320000E-02 
   8.73771000E+01    2.40001000E-01 
   2.56789000E+01    5.94797000E-01 
   3.74004000E+00    2.80802000E-01 
SP   3    1.000000
   4.21175000E+01    1.13889000E-01   3.65114000E-02 
   9.62837000E+00    9.20811000E-01   2.37153000E-01 
   2.85332000E+00   -3.27447000E-03   8.19702000E-01 
SP   1    1.000000
   9.05661000E-01    1.00000000E+00   1.00000000E+00 
SP   1    1.000000
   2.55611000E-01    1.00000000E+00   1.00000000E+00 
SP   1    1.000000
   8.45000000E-02    1.00000000E+00   1.00000000E+00 
D    1    1.000000
   1.29200000E+00    1.00000000E+00 

12    0
S    6    1.000000
   8.58850000E+03    1.89515000E-03 
   1.29723000E+03    1.43859000E-02 
   2.99296000E+02    7.07320000E-02 
   8.73771000E+01    2.40001000E-01 
   2.56789000E+01    5.94797000E-01 
   3.74004000E+00    2.80802000E-01 
SP   3    1.000000
   4.21175000E+01    1.13889000E-01   3.65114000E-02 
   9.62837000E+00    9.20811000E-01   2.37153000E-01 
   2.85332000E+00   -3.27447000E-03   8.19702000E-01 
SP   1    1.000000
   9.05661000E-01    1.00000000E+00   1.00000000E+00 
SP   1    1.000000
   2.55611000E-01    1.00000000E+00   1.00000000E+00 
SP   1    1.000000
   8.45000000E-02    1.00000000E+00   1.00000000E+00 
D    1    1.000000
   1.29200000E+00    1.00000000E+00 

13    0
S    6    1.000000
   4.56324000E+03    1.96665000E-03 
   6.82024000E+02    1.52306000E-02 
   1.54973000E+02    7.61269000E-02 
   4.44553000E+01    2.60801000E-01 
   1.30290000E+01    6.16462000E-01 
   1.82773000E+00    2.21006000E-01 
SP   3    1.000000
   2.09642000E+01    1.14660000E-01   4.02487000E-02 
   4.80331000E+00    9.19999000E-01   2.37594000E-01 
   1.45933000E+00   -3.03068000E-03   8.15854000E-01 
SP   1    1.000000
   4.83456000E-01    1.00000000E+00   1.00000000E+00 
SP   1    1.000000
   1.45585000E-01    1.00000000E+00   1.00000000E+00 
SP   1    1.000000
   4.38000000E-02    1.00000000E+00   1.00000000E+00 
D    1    1.000000
   6.26000000E-01    1.00000000E+00 

14    0
S    3    1.000000
   3.38650000E+01    2.54938000E-02 
   5.09479000E+00    1.90373000E-01 
   1.15879000E+00    8.52161000E-01 
S    1    1.000000
   3.25840000E-01    1.00000000E+00 
S    1    1.000000
   1.02741000E-01    1.00000000E+00 

[MO]
Sym=X
Ene= -0.053871
Spin=Alpha
Occup=1
     1    2.185129222593e-02
     2    3.520678842391e-02
     3   -9.189652875911e-03
     4   -1.089238740987e-01
     5   -2.503576633571e-05
     6   -9.419319080543e-02
     7   -7.197987235213e-03
     8   -1.678181796414e-01
     9   -4.012419194353e-05
    10   -8.716323336068e-02
    11    2.842660894993e-03
    12   -9.615289390559e-02
    13   -3.570957866822e-05
    14    2.239925863249e-01
    15    6.643802354832e-03
    16   -7.472038455227e-02
    17   -7.345536172868e-06
    18    4.496744264069e-03
    19    1.858273516878e-06
    20    6.045456320556e-06
    21   -8.674949151718e-03
    22    1.563906941405e-02
    23   -1.337201746315e-03
    24   -2.074523881188e-03
    25    4.821481815958e-02
    26    4.799695932571e-02
    27    1.203481549817e-05
    28    2.985288935716e-03
    29    7.164912219067e-02
    30    7.675714383281e-02
    31    1.970390783979e-05
    32    3.673308766288e-02
    33    6.237140973381e-02
    34    5.407171445066e-02
    35    1.514736176003e-05
    36   -1.563015478466e-01
    37   -2.096569101825e-02
    38    5.560041989731e-02
    39    2.045984912733e-06
    40   -8.944816947610e-04
    41    4.859198586196e-06
    42   -4.545995073809e-06
    43   -2.634336524695e-03
    44    2.051638030735e-02
    45    2.478612128411e-02
    46    3.931263905097e-02
    47    2.082454611464e-02
    48    1.236040228715e-03
    49    3.587178622084e-05
    50   -1.119076682782e-01
    51    2.737730003766e-02
    52    1.793975891301e-03
    53    5.953756781236e-05
    54   -1.080152974978e-01
    55   -7.621601575427e-03
    56    3.164551494401e-04
    57    5.766463337060e-05
    58    1.881369856709e-01
    59    4.541024174478e-02
    60    4.132703443005e-03
    61    2.124252359176e-05
    62   -7.544231322933e-04
    63    2.300142665714e-06
    64    6.353505914720e-07
    65   -1.291086841883e-02
    66   -2.711235254996e-04
    67   -9.484477929737e-04
    68   -1.464773632814e-03
    69    5.000632161367e-02
    70   -5.120797555410e-02
    71    9.048242633194e-06
    72    1.185324236012e-03
    73    7.438378732212e-02
    74   -8.160689917942e-02
    75    1.536891013446e-05
    76    3.611327186451e-02
    77    6.383591770374e-02
    78   -5.792097320376e-02
    79    1.074471419207e-05
    80   -1.485211782297e-01
    81   -1.617324099767e-02
    82   -5.273175825902e-02
    83   -3.416987367603e-06
    84   -9.396445974923e-04
    85    2.493698588309e-06
    86    5.468892017182e-06
    87   -2.909432818341e-03
    88   -2.097133944171e-02
    89   -2.110826462155e-02
    90   -3.330233932827e-02
    91    1.279506331316e-01
    92   -1.088807542506e-03
    93   -2.877342741678e-05
    94    9.721109202594e-02
    95    1.921752214412e-01
    96   -1.532944249652e-03
    97   -4.812719668355e-05
    98    3.974958875804e-02
    99    1.206658014980e-01
   100   -9.075048367926e-04
   101   -4.687429544680e-05
   102   -3.177293855172e-01
   103   -3.992290330018e-02
   104   -1.201691362527e-03
   105   -2.094076460577e-06
   106    2.660341798042e-03
   107   -6.345778829044e-06
   108    4.064319253208e-07
   109   -3.922148859089e-03
   110    3.462643477755e-05
   111   -9.004929744332e-02
   112   -1.048929955944e-01
   113   -1.887129141697e-02
   114    6.319800313956e-02
   115    7.988399199770e-02
   116    2.471597855260e-02
   117    6.603680365043e-02
   118    8.358406626339e-02
   119    2.558470886175e-02
   120   -8.469300575263e-02
   121   -1.115377445767e-01
   122   -3.076132184479e-02
   123   -1.490070693463e-03
   124   -2.423560105537e-03
   125    1.045378735543e-02
   126    2.025256074939e-04
   127    1.163031619808e-05
   128    7.387670587966e-03
   129    1.554546101763e-02
   130    3.454059095942e-04
   131    1.860070772060e-05
   132    6.650616940121e-03
   133   -7.051910852677e-03
   134    5.041404895200e-04
   135    1.207800103672e-05
   136   -7.901521581998e-02
   137   -4.289052518061e-02
   138    3.413196652597e-04
   139   -1.276703277270e-05
   140   -1.147764767601e-03
   141   -4.206236898499e-06
   142    2.889272852019e-06
   143   -6.293074246056e-03
   144    1.410572137284e-05
   145    2.965323476503e-03
   146    4.892175766980e-03
   147   -2.661906869471e-02
   148    5.624724290353e-04
   149   -2.125344190152e-05
   150   -1.542680315829e-02
   151   -3.858572741147e-02
   152    5.366544957023e-04
   153   -3.115875422205e-05
   154   -1.414132754003e-02
   155   -3.611876468365e-02
   156    3.009833378414e-04
   157   -3.273612557781e-05
   158    3.141319072060e-02
   159    2.273746757459e-03
   160    9.976053322395e-03
   161   -4.092532492435e-06
   162   -7.993091368768e-04
   163    6.294388692692e-07
   164   -8.819011269836e-07
   165    8.924383119084e-04
   166   -9.999896368583e-04
   167    2.993759912058e-03
   168    4.936031749966e-03
   169   -2.618848121094e-02
   170   -1.146767996669e-03
   171    8.250551851135e-06
   172   -1.549849792318e-02
   173   -3.795480307828e-02
   174   -1.396280530881e-03
   175    1.236321642226e-05
   176   -1.472924002027e-02
   177   -3.522945488186e-02
   178   -8.042782978282e-04
   179    9.059586408050e-06
   180    3.014685948080e-02
   181    2.436695787588e-03
   182   -9.739325509539e-03
   183    3.744033125063e-06
   184   -8.048427546214e-04
   185   -1.117686633598e-06
   186   -9.983306392546e-07
   187    8.353663738176e-04
   188    1.017691806619e-03
   189    2.175727732519e-02
   190    3.504675439176e-02
   191   -1.162184991951e-02
   192    1.090029348450e-01
   193   -1.881252377357e-05
   194   -9.378023683120e-02
   195   -1.077836871257e-02
   196    1.677635228936e-01
   197   -3.092312280391e-05
   198   -8.677479085592e-02
   199    9.654197568421e-04
   200    9.662688955339e-02
   201   -2.794668114259e-05
   202    2.246543644165e-01
   203    9.011976080543e-03
   204    7.267525998794e-02
   205   -1.177952602956e-07
   206    4.432860432681e-03
   207    1.292275414769e-06
   208   -3.348294112726e-06
   209   -8.856628966823e-03
   210   -1.599492182534e-02
   211   -8.927452796285e-02
   212   -1.040948030130e-01
   213   -1.890831323816e-02
Sym=X
Ene= -0.083577
Spin=Alpha
Occup=1
     1    1.869726770661e-05
     2    2.979672215495e-05
     3   -1.933667101461e-05
     4   -1.728906896771e-06
     5    1.043513130232e-01
     6   -7.986124883138e-05
     7   -2.715997781573e-05
     8   -4.520942584597e-06
     9    1.698055858673e-01
    10   -1.457821025432e-04
    11   -7.728736144248e-05
    12    9.957674136163e-06
    13    1.400792692683e-01
    14   -2.954115062842e-04
    15   -5.074473265931e-04
    16   -3.064210843657e-04
    17    1.019186315860e-02
    18    2.294700685472e-07
    19   -1.310182780846e-02
    20   -1.585287170408e-02
    21   -1.522160336204e-06
    22   -1.016957598220e-07
    23   -5.375724585993e-06
    24   -8.699455515653e-06
    25    3.916437164050e-05
    26   -1.626131508212e-05
    27   -3.096138302153e-02
    28    2.478842269226e-05
    29    6.417304184090e-05
    30   -2.196152480440e-05
    31   -5.054840930038e-02
    32    1.246809620465e-04
    33   -4.803437359851e-05
    34   -2.984749499989e-05
    35   -4.847775703104e-02
    36    9.972723061393e-05
    37   -6.787191047113e-04
    38    3.346013798212e-04
    39   -4.666792619696e-03
    40    1.764927787580e-06
    41   -1.877851351905e-02
    42    1.012623946825e-02
    43   -6.808961394438e-06
    44   -6.138850650927e-07
    45    3.362915652708e-06
    46    5.203196740601e-06
    47   -1.634528801345e-05
    48    4.927049978394e-05
    49   -1.158141408822e-01
    50   -1.138156907305e-05
    51   -2.970460563149e-05
    52    7.884859440386e-05
    53   -1.902683146708e-01
    54   -9.344043518805e-05
    55    1.784958917151e-05
    56    6.500918329343e-05
    57   -1.835367510572e-01
    58    1.909340829214e-04
    59    1.331413933267e-06
    60    5.542724481650e-04
    61   -2.801980006243e-02
    62   -6.862215074154e-08
    63   -2.829918483991e-03
    64   -2.094106139058e-05
    65   -6.262819530990e-06
    66   -4.672355562303e-06
    67    4.941507644354e-06
    68    8.270376051033e-06
    69   -8.723636340723e-06
    70   -3.492433344254e-05
    71   -3.072705243688e-02
    72   -3.003189487812e-05
    73   -1.771306703416e-05
    74   -5.111651354856e-05
    75   -5.016023827572e-02
    76    7.171717026569e-07
    77    5.542496762809e-05
    78    1.960805927174e-05
    79   -4.816214509998e-02
    80   -4.063298515618e-04
    81    6.691499265108e-04
    82    2.761507936218e-04
    83   -4.682288774441e-03
    84   -1.773101599064e-06
    85   -1.880414382761e-02
    86   -1.012476092975e-02
    87    2.552962132395e-06
    88   -1.123626764318e-05
    89   -9.397323455282e-06
    90   -1.502708593011e-05
    91    9.695021415524e-06
    92   -4.313579849043e-05
    93    1.693969311580e-01
    94    4.265561567087e-05
    95    1.289601121179e-05
    96   -6.127225619233e-05
    97    2.760582094911e-01
    98    6.135832495238e-05
    99    1.346523632323e-05
   100   -5.531717321318e-05
   101    2.317347397358e-01
   102   -2.934381604062e-04
   103   -5.584100035612e-05
   104   -4.629189982361e-04
   105    2.077578272963e-02
   106   -1.209373356391e-06
   107    9.933749541125e-03
   108   -2.098151160078e-05
   109   -2.963337651754e-06
   110   -5.898122934725e-06
   111   -1.179222096556e-05
   112   -5.451558752918e-06
   113    2.303949657054e-06
   114    5.490337975817e-06
   115    9.312518888976e-06
   116   -3.486264235790e-06
   117    3.025164943380e-05
   118    4.517795926846e-05
   119    4.718981746661e-05
   120   -2.605319907194e-05
   121   -3.051495136800e-05
   122    1.134702356365e-06
   123    1.246082406939e-06
   124    2.009952739246e-06
   125    1.521595921216e-05
   126    2.551447240703e-05
   127   -3.481266328920e-03
   128   -5.419429529360e-06
   129    2.383264403785e-05
   130    4.552675682577e-05
   131   -5.573981710079e-03
   132   -2.704120953816e-05
   133    1.172655697552e-06
   134   -6.113519008572e-05
   135   -1.934806220440e-03
   136   -6.269615790688e-05
   137   -1.542400919377e-05
   138    1.365283240025e-04
   139    3.333952366570e-02
   140   -1.205895849608e-06
   141    1.572916597503e-02
   142    4.708727328530e-05
   143   -7.744965161322e-06
   144    3.881934429836e-05
   145   -1.109725455287e-06
   146   -1.789999720101e-06
   147   -1.902881383881e-04
   148   -1.467860222042e-04
   149    3.982023119498e-02
   150    2.819398298197e-06
   151   -2.828445413597e-04
   152   -2.153507418650e-04
   153    5.907187062020e-02
   154   -2.443315739332e-05
   155   -2.623887979777e-04
   156   -2.044263508470e-04
   157    5.846319040078e-02
   158    1.367833710157e-04
   159   -3.149442735148e-05
   160    2.651436683459e-05
   161   -8.594233733684e-04
   162   -6.141580267789e-07
   163   -6.785781894314e-04
   164    2.602326491226e-03
   165    1.409708163366e-05
   166   -5.086761107234e-06
   167    2.312293264165e-06
   168    3.775470525295e-06
   169    1.293042871478e-04
   170   -1.459661406780e-04
   171    4.022151584601e-02
   172   -8.257727266680e-06
   173    1.933924401702e-04
   174   -2.139290682468e-04
   175    5.966700735505e-02
   176    2.666592172503e-05
   177    1.786873541906e-04
   178   -2.052646955374e-04
   179    5.903270902260e-02
   180   -9.659255033158e-05
   181    2.343494321672e-05
   182    1.844499803293e-05
   183   -7.835916095614e-04
   184   -6.419250419380e-07
   185   -6.952600092097e-04
   186   -2.627727272223e-03
   187   -1.277661330508e-05
   188   -2.644218488220e-06
   189   -5.063974484852e-06
   190   -7.790660074615e-06
   191   -6.627158964729e-06
   192    3.637096597384e-05
   193    1.045679146413e-01
   194    2.003645686299e-05
   195   -1.085693981847e-05
   196    5.207291462608e-05
   197    1.701567508273e-01
   198    2.860535435915e-05
   199    2.593876748624e-05
   200    9.030120904271e-06
   201    1.404014977156e-01
   202    7.186540538572e-04
   203    5.255725690497e-04
   204   -2.155072243210e-04
   205    1.025095935085e-02
   206    1.282277607496e-06
   207   -1.307628834547e-02
   208    1.584986130356e-02
   209    1.834588797337e-06
   210   -8.898656123134e-06
   211   -2.800354484055e-05
   212   -4.349885363960e-05
   213   -2.224607000762e-05
Sym=X
Ene= -0.101808
Spin=Alpha
Occup=1
     1   -6.070566549445e-06
     2   -9.423906327039e-06
     3    6.851954481652e-05
     4    4.914078530710e-05
     5    6.706134751421e-02
     6    2.286963293369e-05
     7    9.355800991724e-05
     8    6.910104357068e-05
     9    1.094903927008e-01
    10    1.675598418000e-04
    11    1.573231309829e-04
    12    9.572858937553e-05
    13    6.903035075306e-02
    14    1.572042218526e-03
    15    1.148774336755e-03
    16    4.736918161976e-04
    17    3.675464346308e-03
    18    2.732516784456e-07
    19    1.069403428190e-02
    20   -5.246937768243e-03
    21   -8.480837197797e-07
    22   -1.164685120371e-05
    23    9.533755920998e-06
    24    1.583309407838e-05
    25   -7.506113092391e-05
    26   -5.242626988268e-05
    27    1.125503865289e-01
    28   -4.757294480279e-05
    29   -1.272280150865e-04
    30   -8.481440302570e-05
    31    1.841659743753e-01
    32   -1.054479049161e-04
    33    1.040211213806e-04
    34   -1.506542710168e-04
    35    1.241563254119e-01
    36   -1.637852822774e-03
    37    1.407808905387e-03
    38   -4.758899677480e-04
    39   -4.317331671390e-03
    40   -3.468286641913e-06
    41    5.809635942681e-05
    42   -1.473649482414e-02
    43    1.772683012448e-05
    44   -1.420805813335e-05
    45    3.300125610148e-06
    46    5.433256430456e-06
    47    9.982387520165e-06
    48   -2.137083644272e-06
    49    1.469954578341e-01
    50   -1.562801371146e-05
    51    1.595267338498e-05
    52   -2.350566941169e-05
    53    2.404124822435e-01
    54   -2.009629632359e-05
    55    3.610436689168e-05
    56   -1.319192166624e-04
    57    1.934804079207e-01
    58    7.131996212376e-04
    59   -1.440163308684e-04
    60   -8.281181652822e-04
    61    3.039546845340e-02
    62    3.508791412216e-06
    63   -1.045693383841e-02
    64    1.554973941618e-05
    65    2.686157819707e-07
    66   -5.060921763874e-07
    67   -1.968746223704e-05
    68   -3.223420985855e-05
    69    7.838463821994e-05
    70   -5.660133606475e-05
    71    1.124530860412e-01
    72    9.254606198643e-05
    73    1.329609581166e-04
    74   -9.047572186210e-05
    75    1.840146012173e-01
    76    1.937560565812e-04
    77   -1.268782758616e-04
    78   -1.333304328046e-04
    79    1.240015271318e-01
    80    3.253076278854e-04
    81   -1.267804447038e-03
    82   -6.736005368869e-04
    83   -4.355784027003e-03
    84   -3.709862980663e-06
    85    6.266236004064e-05
    86    1.473647039571e-02
    87   -1.658707538488e-05
    88   -1.080598345005e-05
    89   -7.815936569263e-07
    90   -1.301498623362e-06
    91   -1.317143976712e-05
    92   -9.236056468465e-05
    93    4.576392360227e-02
    94    3.131705692197e-06
    95   -2.036256082544e-05
    96   -1.384836096044e-04
    97    7.493679000598e-02
    98    2.334507005513e-05
    99   -1.896499905728e-06
   100   -3.243042825108e-05
   101    3.702444977867e-02
   102   -4.163581909138e-04
   103   -8.278414295388e-05
   104    9.850084384695e-04
   105   -7.702515544669e-03
   106   -4.540352009194e-07
   107    8.703466945572e-03
   108    8.151326315745e-06
   109   -3.942477619048e-07
   110   -3.423027722580e-06
   111    1.548301254927e-05
   112    1.644763204669e-05
   113    5.949144689713e-06
   114   -7.462168326199e-05
   115   -9.521482412116e-05
   116    3.634620151221e-05
   117    7.325404163875e-05
   118    9.667079790201e-05
   119   -1.109623493811e-05
   120    5.438770133149e-06
   121    9.160021041244e-06
   122    1.185551543060e-05
   123   -8.187870842348e-07
   124   -1.373218568661e-06
   125   -9.595035769646e-07
   126   -2.566865819237e-05
   127   -2.420522977710e-02
   128    5.043327821478e-06
   129   -1.973644558130e-06
   130   -5.202149855575e-05
   131   -3.678131220584e-02
   132   -4.710841773774e-06
   133    6.295992329513e-06
   134    2.351369281789e-04
   135   -3.737274584916e-02
   136   -4.656363712417e-05
   137    1.634492300100e-05
   138   -3.595367625963e-04
   139   -4.651128803781e-02
   140    1.304528913322e-07
   141   -1.855731137466e-02
   142    4.518330390309e-05
   143    4.654952822207e-07
   144   -9.488984462225e-05
   145   -5.003859549154e-06
   146   -7.993428874249e-06
   147    3.879026903900e-04
   148    3.240037291728e-04
   149   -5.096014059077e-02
   150    2.761065415800e-05
   151    5.778867098089e-04
   152    4.758144242264e-04
   153   -7.605803329297e-02
   154    1.497723004321e-04
   155    5.106417275935e-04
   156    4.799153273319e-04
   157   -6.834187664092e-02
   158   -2.515652414376e-04
   159    6.115654924675e-05
   160   -4.266113995757e-05
   161    8.052477901658e-03
   162    1.439016737462e-06
   163    1.806996489649e-03
   164   -4.763338945666e-03
   165   -3.094632242368e-05
   166    1.188902524123e-05
   167    6.088403092282e-06
   168    9.774267050283e-06
   169   -3.818167217396e-04
   170    3.258668933590e-04
   171   -5.059653328062e-02
   172   -3.337501929520e-05
   173   -5.684361204689e-04
   174    4.783578156406e-04
   175   -7.551961945980e-02
   176   -1.571222635666e-04
   177   -5.040020308840e-04
   178    4.835936866393e-04
   179   -6.782513756230e-02
   180    2.676926674999e-04
   181   -6.309067177295e-05
   182   -4.510803491051e-05
   183    8.123834148754e-03
   184   -9.841381878951e-07
   185    1.791207480869e-03
   186    4.740338960762e-03
   187    3.100172936117e-05
   188    1.167073181057e-05
   189    5.583625293683e-06
   190    8.637907008946e-06
   191   -7.579560279482e-05
   192    3.291528093720e-05
   193    6.698265112223e-02
   194   -1.938646986748e-05
   195   -1.074421665457e-04
   196    4.358104538590e-05
   197    1.093591966262e-01
   198   -2.062419150577e-04
   199   -1.776725604392e-04
   200    6.541818436706e-05
   201    6.893060356723e-02
   202   -5.400345188889e-04
   203   -1.019598784550e-03
   204    6.020005474123e-04
   205    3.682376928272e-03
   206    2.135418005444e-06
   207    1.068478383302e-02
   208    5.247627397240e-03
   209    1.700817865104e-06
   210   -1.259865963008e-05
   211   -9.264633559464e-06
   212   -8.624843815405e-06
   213   -1.777659404160e-05
Sym=X
Ene= -0.153134
Spin=Alpha
Occup=1
     1    9.597805364141e-09
     2    1.037355727971e-07
     3    2.653072660844e-05
     4   -1.892319553052e-05
     5    2.346985419488e-03
     6   -2.515555701886e-08
     7    3.892933800888e-05
     8   -3.052180401043e-05
     9    5.294429653457e-03
    10    2.981377156229e-05
    11    5.205139692240e-05
    12   -1.131660017218e-05
    13   -3.961008821608e-03
    14    3.369996479609e-04
    15    1.105703708548e-03
    16    6.990503612734e-04
    17   -1.162687817259e-02
    18    3.341620791909e-07
    19    4.268758376759e-04
    20    8.788371673384e-05
    21    5.872327833857e-06
    22    6.501756069000e-06
    23   -2.873465689832e-06
    24   -4.482154356105e-06
    25   -2.534693933224e-05
    26    1.441509514870e-05
    27    6.613514643652e-03
    28    1.089936015357e-05
    29   -3.969670968120e-05
    30    2.069600015469e-05
    31    6.954336050368e-03
    32    8.828729867702e-06
    33    3.330335675007e-05
    34    2.190217912455e-07
    35    1.966382618176e-02
    36    1.668607786548e-03
    37    1.570441181519e-03
    38   -1.004391741664e-03
    39    1.896747424569e-02
    40   -8.705161099358e-07
    41    1.352153290219e-03
    42    4.994026210080e-04
    43    2.418984926357e-06
    44    3.242245202927e-06
    45    5.591400393127e-07
    46    7.661152830161e-07
    47    1.414191575017e-05
    48   -1.870158178631e-05
    49   -2.183259832191e-05
    50    1.317336384313e-06
    51    2.440695280532e-05
    52   -2.545637231458e-05
    53   -3.468030081451e-05
    54   -3.066278191812e-05
    55   -2.280143392316e-06
    56   -4.562257218026e-05
    57   -4.949914234785e-06
    58   -5.718894336694e-04
    59   -7.909046224408e-06
    60   -2.404296564538e-03
    61   -1.908767847040e-06
    62   -3.070177377116e-07
    63    1.228434644965e-05
    64    6.248181049798e-03
    65    4.639972877927e-06
    66    1.906974113718e-06
    67   -2.259854920427e-06
    68   -3.664212110590e-06
    69   -1.017694718036e-05
    70    8.094650162818e-06
    71   -6.750949512100e-03
    72    1.148483267140e-05
    73   -1.321242741937e-05
    74    1.225845703040e-05
    75   -7.179640009015e-03
    76   -9.175261512345e-06
    77   -2.774726010288e-05
    78    7.546249892772e-06
    79   -1.978950988933e-02
    80   -1.269155615510e-03
    81   -1.420546453486e-03
    82   -8.509732504223e-04
    83   -1.895143601174e-02
    84    1.296359762001e-07
    85   -1.319110328424e-03
    86    4.922787325337e-04
    87    1.234192294021e-06
    88    5.155869614824e-06
    89   -1.046850513296e-06
    90   -1.702296724414e-06
    91   -2.809015129342e-05
    92    2.050031137752e-05
    93   -1.874531110627e-04
    94    3.854334033925e-06
    95   -4.308631840262e-05