[Molden Format]
[Atoms] (Angs)
  C      1    6     -1.82075000      1.21221000      0.00007000
  C      2    6     -0.42782000      1.22011000      0.00011000
  C      3    6      0.24287000      0.00002000     -0.00001000
  C      4    6     -0.42786000     -1.22012000      0.00003000
  C      5    6     -2.51579000      0.00002000      0.00000000
  H      6    1     -2.36155000      2.15093000     -0.00002000
  H      7    1      0.13769000      2.14227000      0.00006000
  H      8    1      0.13768000     -2.14225000     -0.00012000
  H      9    1     -3.59985000     -0.00001000     -0.00023000
  N     10    7      1.70520000      0.00000000     -0.00004000
  O     11    8      2.29572000     -1.10489000      0.00011000
  O     12    8      2.29576000      1.10486000     -0.00013000
  C     13    6     -1.82075000     -1.21220000     -0.00006000
  H     14    1     -2.36162000     -2.15087000     -0.00013000
[GTO]
1    0
S    6    1.000000
   4.56324000E+03    1.96665000E-03 
   6.82024000E+02    1.52306000E-02 
   1.54973000E+02    7.61269000E-02 
   4.44553000E+01    2.60801000E-01 
   1.30290000E+01    6.16462000E-01 
   1.82773000E+00    2.21006000E-01 
SP   3    1.000000
   2.09642000E+01    1.14660000E-01   4.02487000E-02 
   4.80331000E+00    9.19999000E-01   2.37594000E-01 
   1.45933000E+00   -3.03068000E-03   8.15854000E-01 
SP   1    1.000000
   4.83456000E-01    1.00000000E+00   1.00000000E+00 
SP   1    1.000000
   1.45585000E-01    1.00000000E+00   1.00000000E+00 
SP   1    1.000000
   4.38000000E-02    1.00000000E+00   1.00000000E+00 
D    1    1.000000
   6.26000000E-01    1.00000000E+00 

2    0
S    6    1.000000
   4.56324000E+03    1.96665000E-03 
   6.82024000E+02    1.52306000E-02 
   1.54973000E+02    7.61269000E-02 
   4.44553000E+01    2.60801000E-01 
   1.30290000E+01    6.16462000E-01 
   1.82773000E+00    2.21006000E-01 
SP   3    1.000000
   2.09642000E+01    1.14660000E-01   4.02487000E-02 
   4.80331000E+00    9.19999000E-01   2.37594000E-01 
   1.45933000E+00   -3.03068000E-03   8.15854000E-01 
SP   1    1.000000
   4.83456000E-01    1.00000000E+00   1.00000000E+00 
SP   1    1.000000
   1.45585000E-01    1.00000000E+00   1.00000000E+00 
SP   1    1.000000
   4.38000000E-02    1.00000000E+00   1.00000000E+00 
D    1    1.000000
   6.26000000E-01    1.00000000E+00 

3    0
S    6    1.000000
   4.56324000E+03    1.96665000E-03 
   6.82024000E+02    1.52306000E-02 
   1.54973000E+02    7.61269000E-02 
   4.44553000E+01    2.60801000E-01 
   1.30290000E+01    6.16462000E-01 
   1.82773000E+00    2.21006000E-01 
SP   3    1.000000
   2.09642000E+01    1.14660000E-01   4.02487000E-02 
   4.80331000E+00    9.19999000E-01   2.37594000E-01 
   1.45933000E+00   -3.03068000E-03   8.15854000E-01 
SP   1    1.000000
   4.83456000E-01    1.00000000E+00   1.00000000E+00 
SP   1    1.000000
   1.45585000E-01    1.00000000E+00   1.00000000E+00 
SP   1    1.000000
   4.38000000E-02    1.00000000E+00   1.00000000E+00 
D    1    1.000000
   6.26000000E-01    1.00000000E+00 

4    0
S    6    1.000000
   4.56324000E+03    1.96665000E-03 
   6.82024000E+02    1.52306000E-02 
   1.54973000E+02    7.61269000E-02 
   4.44553000E+01    2.60801000E-01 
   1.30290000E+01    6.16462000E-01 
   1.82773000E+00    2.21006000E-01 
SP   3    1.000000
   2.09642000E+01    1.14660000E-01   4.02487000E-02 
   4.80331000E+00    9.19999000E-01   2.37594000E-01 
   1.45933000E+00   -3.03068000E-03   8.15854000E-01 
SP   1    1.000000
   4.83456000E-01    1.00000000E+00   1.00000000E+00 
SP   1    1.000000
   1.45585000E-01    1.00000000E+00   1.00000000E+00 
SP   1    1.000000
   4.38000000E-02    1.00000000E+00   1.00000000E+00 
D    1    1.000000
   6.26000000E-01    1.00000000E+00 

5    0
S    6    1.000000
   4.56324000E+03    1.96665000E-03 
   6.82024000E+02    1.52306000E-02 
   1.54973000E+02    7.61269000E-02 
   4.44553000E+01    2.60801000E-01 
   1.30290000E+01    6.16462000E-01 
   1.82773000E+00    2.21006000E-01 
SP   3    1.000000
   2.09642000E+01    1.14660000E-01   4.02487000E-02 
   4.80331000E+00    9.19999000E-01   2.37594000E-01 
   1.45933000E+00   -3.03068000E-03   8.15854000E-01 
SP   1    1.000000
   4.83456000E-01    1.00000000E+00   1.00000000E+00 
SP   1    1.000000
   1.45585000E-01    1.00000000E+00   1.00000000E+00 
SP   1    1.000000
   4.38000000E-02    1.00000000E+00   1.00000000E+00 
D    1    1.000000
   6.26000000E-01    1.00000000E+00 

6    0
S    3    1.000000
   3.38650000E+01    2.54938000E-02 
   5.09479000E+00    1.90373000E-01 
   1.15879000E+00    8.52161000E-01 
S    1    1.000000
   3.25840000E-01    1.00000000E+00 
S    1    1.000000
   1.02741000E-01    1.00000000E+00 

7    0
S    3    1.000000
   3.38650000E+01    2.54938000E-02 
   5.09479000E+00    1.90373000E-01 
   1.15879000E+00    8.52161000E-01 
S    1    1.000000
   3.25840000E-01    1.00000000E+00 
S    1    1.000000
   1.02741000E-01    1.00000000E+00 

8    0
S    3    1.000000
   3.38650000E+01    2.54938000E-02 
   5.09479000E+00    1.90373000E-01 
   1.15879000E+00    8.52161000E-01 
S    1    1.000000
   3.25840000E-01    1.00000000E+00 
S    1    1.000000
   1.02741000E-01    1.00000000E+00 

9    0
S    3    1.000000
   3.38650000E+01    2.54938000E-02 
   5.09479000E+00    1.90373000E-01 
   1.15879000E+00    8.52161000E-01 
S    1    1.000000
   3.25840000E-01    1.00000000E+00 
S    1    1.000000
   1.02741000E-01    1.00000000E+00 

10    0
S    6    1.000000
   6.29348000E+03    1.96979000E-03 
   9.49044000E+02    1.49613000E-02 
   2.18776000E+02    7.35006000E-02 
   6.36916000E+01    2.48937000E-01 
   1.88282000E+01    6.02460000E-01 
   2.72023000E+00    2.56202000E-01 
SP   3    1.000000
   3.06331000E+01    1.11906000E-01   3.83119000E-02 
   7.02614000E+00    9.21666000E-01   2.37403000E-01 
   2.11205000E+00   -2.56919000E-03   8.17592000E-01 
SP   1    1.000000
   6.84009000E-01    1.00000000E+00   1.00000000E+00 
SP   1    1.000000
   2.00878000E-01    1.00000000E+00   1.00000000E+00 
SP   1    1.000000
   6.39000000E-02    1.00000000E+00   1.00000000E+00 
D    1    1.000000
   9.13000000E-01    1.00000000E+00 

11    0
S    6    1.000000
   8.58850000E+03    1.89515000E-03 
   1.29723000E+03    1.43859000E-02 
   2.99296000E+02    7.07320000E-02 
   8.73771000E+01    2.40001000E-01 
   2.56789000E+01    5.94797000E-01 
   3.74004000E+00    2.80802000E-01 
SP   3    1.000000
   4.21175000E+01    1.13889000E-01   3.65114000E-02 
   9.62837000E+00    9.20811000E-01   2.37153000E-01 
   2.85332000E+00   -3.27447000E-03   8.19702000E-01 
SP   1    1.000000
   9.05661000E-01    1.00000000E+00   1.00000000E+00 
SP   1    1.000000
   2.55611000E-01    1.00000000E+00   1.00000000E+00 
SP   1    1.000000
   8.45000000E-02    1.00000000E+00   1.00000000E+00 
D    1    1.000000
   1.29200000E+00    1.00000000E+00 

12    0
S    6    1.000000
   8.58850000E+03    1.89515000E-03 
   1.29723000E+03    1.43859000E-02 
   2.99296000E+02    7.07320000E-02 
   8.73771000E+01    2.40001000E-01 
   2.56789000E+01    5.94797000E-01 
   3.74004000E+00    2.80802000E-01 
SP   3    1.000000
   4.21175000E+01    1.13889000E-01   3.65114000E-02 
   9.62837000E+00    9.20811000E-01   2.37153000E-01 
   2.85332000E+00   -3.27447000E-03   8.19702000E-01 
SP   1    1.000000
   9.05661000E-01    1.00000000E+00   1.00000000E+00 
SP   1    1.000000
   2.55611000E-01    1.00000000E+00   1.00000000E+00 
SP   1    1.000000
   8.45000000E-02    1.00000000E+00   1.00000000E+00 
D    1    1.000000
   1.29200000E+00    1.00000000E+00 

13    0
S    6    1.000000
   4.56324000E+03    1.96665000E-03 
   6.82024000E+02    1.52306000E-02 
   1.54973000E+02    7.61269000E-02 
   4.44553000E+01    2.60801000E-01 
   1.30290000E+01    6.16462000E-01 
   1.82773000E+00    2.21006000E-01 
SP   3    1.000000
   2.09642000E+01    1.14660000E-01   4.02487000E-02 
   4.80331000E+00    9.19999000E-01   2.37594000E-01 
   1.45933000E+00   -3.03068000E-03   8.15854000E-01 
SP   1    1.000000
   4.83456000E-01    1.00000000E+00   1.00000000E+00 
SP   1    1.000000
   1.45585000E-01    1.00000000E+00   1.00000000E+00 
SP   1    1.000000
   4.38000000E-02    1.00000000E+00   1.00000000E+00 
D    1    1.000000
   6.26000000E-01    1.00000000E+00 

14    0
S    3    1.000000
   3.38650000E+01    2.54938000E-02 
   5.09479000E+00    1.90373000E-01 
   1.15879000E+00    8.52161000E-01 
S    1    1.000000
   3.25840000E-01    1.00000000E+00 
S    1    1.000000
   1.02741000E-01    1.00000000E+00 

[MO]
Sym=X
Ene= -0.046522
Spin=Alpha
Occup=1
     1    3.473624670847e-03
     2    5.315786940746e-03
     3   -9.952201509500e-03
     4    1.286607422707e-01
     5    5.081404734139e-05
     6   -1.944156660017e-02
     7   -2.089804093379e-02
     8    1.917976943641e-01
     9    8.428968754807e-05
    10    3.714174914056e-02
    11   -1.627589268049e-02
    12    1.512371740542e-01
    13    6.373151372169e-05
    14   -7.958387057957e-02
    15   -9.140839700831e-02
    16   -4.232746101915e-02
    17   -3.237268895097e-05
    18   -2.169412549732e-03
    19   -2.439378270765e-05
    20   -1.516654949406e-05
    21   -1.003201167357e-02
    22   -2.671128599409e-02
    23    2.653701393953e-03
    24    4.237476531084e-03
    25    2.046969250472e-02
    26   -7.982199136095e-02
    27   -1.132944697381e-04
    28   -8.963369522885e-03
    29    2.537173796675e-02
    30   -1.174162876534e-01
    31   -1.839604358166e-04
    32   -2.872668061952e-02
    33    1.864684559692e-02
    34   -1.082718512027e-01
    35   -1.320008154977e-04
    36   -5.063355952469e-01
    37   -1.963370858835e-01
    38    1.319705895729e-01
    39    9.949933845749e-06
    40    4.767772498741e-04
    41   -6.373367153584e-06
    42    9.318199965234e-06
    43    3.500872232192e-03
    44   -2.667707178002e-02
    45    3.622458272410e-06
    46    6.002405260957e-06
    47   -1.617348376551e-05
    48    1.067432350453e-01
    49   -4.401673393607e-05
    50   -1.891161784681e-05
    51   -2.720183052850e-05
    52    1.510268710785e-01
    53   -6.286510235935e-05
    54   -7.738866464791e-05
    55   -3.547021777919e-05
    56    6.745127301940e-02
    57   -3.359829900176e-04
    58    1.179846502779e-04
    59    2.322940710269e-06
    60    4.890841970813e-01
    61    4.556499523262e-05
    62    1.045228930944e-07
    63    9.770388061489e-05
    64    7.588040252526e-07
    65   -3.245639989865e-06
    66   -6.822578276071e-03
    67   -2.651119632925e-03
    68   -4.233245222021e-03
    69   -2.045346305277e-02
    70   -7.981011606921e-02
    71   -1.051662215688e-04
    72    8.949694991013e-03
    73   -2.535110657731e-02
    74   -1.174008738836e-01
    75   -1.700721273071e-04
    76    2.870768072330e-02
    77   -1.860260206592e-02
    78   -1.082582117583e-01
    79   -1.266035423034e-04
    80    5.060892679073e-01
    81    1.963544906255e-01
    82    1.319367918698e-01
    83   -2.804344395775e-05
    84   -4.769865370156e-04
    85   -8.258718847363e-06
    86   -5.150027263093e-06
    87   -3.501048610230e-03
    88   -2.668001163145e-02
    89   -1.166802093492e-06
    90   -1.835386473157e-06
    91    1.363891241036e-05
    92   -1.281507508981e-01
    93    1.456931297044e-04
    94    5.664780524457e-06
    95    2.118347882874e-05
    96   -1.806951298787e-01
    97    2.367226623151e-04
    98    8.127175933511e-06
    99    1.877615234822e-05
   100   -1.120776780452e-01
   101    2.453809746091e-04
   102   -7.971430257995e-05
   103   -1.240945807962e-05
   104   -7.447377800095e-02
   105    5.405092353586e-05
   106   -8.421061874539e-08
   107    2.047257900153e-06
   108   -1.256687176992e-06
   109   -3.257440324761e-06
   110   -1.743718168802e-02
   111    1.070482571657e-01
   112    1.438930219144e-01
   113    5.160300728021e-02
   114   -6.394211301728e-02
   115   -8.975206404575e-02
   116   -2.257107894893e-02
   117    6.394238207937e-02
   118    8.975417571290e-02
   119    2.257469322767e-02
   120   -1.054176408615e-05
   121   -1.573973892983e-05
   122   -6.054061548301e-06
   123    5.433506546257e-07
   124    9.048257261794e-07
   125    9.209900174711e-06
   126    4.825375762366e-03
   127    1.289484947105e-03
   128   -2.883199174238e-06
   129    1.505159210411e-05
   130    8.221672769139e-03
   131    2.046052295170e-03
   132   -3.251673513087e-06
   133   -1.891551150106e-05
   134    2.928108226842e-02
   135    1.500526250703e-03
   136   -2.493444151570e-05
   137   -3.805122320934e-05
   138   -6.398891055525e-02
   139    1.046115665233e-04
   140   -1.101334422135e-06
   141    1.078146120251e-04
   142    3.963785385584e-07
   143   -1.177113742770e-05
   144   -4.938904166388e-03
   145    2.986604717479e-05
   146    1.184188684310e-04
   147   -1.301647621234e-02
   148   -4.444204277272e-03
   149    8.215168668908e-04
   150   -1.256216065456e-03
   151   -1.923453981458e-02
   152   -6.647982382446e-03
   153    1.249511202977e-03
   154    1.589075645179e-02
   155   -2.598535858451e-02
   156   -2.707554658934e-04
   157    8.917839795862e-04
   158   -1.225994942458e-02
   159   -3.213981476902e-03
   160    2.026152656865e-03
   161   -1.377223676983e-05
   162   -3.728998875979e-06
   163   -6.271626461477e-05
   164    1.135413880332e-04
   165    6.978545050365e-04
   166   -3.851200748144e-05
   167   -3.044233996857e-05
   168   -1.193176029812e-04
   169    1.293227267558e-02
   170   -4.428741817699e-03
   171    8.234163189718e-04
   172    1.259591042488e-03
   173    1.911103454075e-02
   174   -6.624861048188e-03
   175    1.252328340800e-03
   176   -1.587561712422e-02
   177    2.587135051390e-02
   178   -2.552746621250e-04
   179    8.947622170165e-04
   180    1.230311599877e-02
   181    3.211834556495e-03
   182    2.016082429323e-03
   183   -1.172364611045e-05
   184    3.010562032633e-06
   185   -6.285786942939e-05
   186   -1.136192386639e-04
   187   -6.944675934243e-04
   188   -3.483229302606e-05
   189   -3.476130333384e-03
   190   -5.319751143930e-03
   191    9.938386227528e-03
   192    1.286669857929e-01
   193    7.221541494789e-05
   194    1.945187440431e-02
   195    2.087700279989e-02
   196    1.918071958932e-01
   197    1.196013776280e-04
   198   -3.711043214662e-02
   199    1.627072087562e-02
   200    1.512333745790e-01
   201    8.822604967961e-05
   202    7.978815500605e-02
   203    9.143062459676e-02
   204   -4.230190326128e-02
   205   -9.586491836877e-06
   206    2.168949778095e-03
   207   -2.475712866024e-05
   208    1.142252530399e-05
   209    1.002457631611e-02
   210   -2.671072404983e-02
   211   -1.070395141824e-01
   212   -1.438821824367e-01
   213   -5.160137822490e-02
Sym=X
Ene= -0.079123
Spin=Alpha
Occup=1
     1   -3.541493095375e-05
     2   -9.383763288689e-05
     3    3.305448812217e-02
     4   -1.398141501407e-02
     5   -1.542023364518e-04
     6    2.595090980299e-03
     7    4.809814415466e-02
     8   -2.255385011440e-02
     9   -2.506785880540e-04
    10   -5.615416971119e-02
    11    1.351540725621e-02
    12   -3.182204703578e-02
    13   -2.258767201690e-04
    14   -3.587627315085e-01
    15   -1.431810462600e-02
    16    7.521574949803e-02
    17   -2.332555530432e-05
    18    8.874925192355e-04
    19   -1.327416602518e-05
    20    2.144167862154e-06
    21    3.447373832629e-03
    22    7.737351051299e-03
    23   -2.483040719331e-03
    24   -4.172176570205e-03
    25   -2.415578068196e-02
    26    3.566321879670e-02
    27   -1.359489648295e-04
    28    1.309522967141e-02
    29   -3.140420968272e-02
    30    5.279342542277e-02
    31   -2.236458167489e-04
    32    2.534222999878e-02
    33   -8.715742788158e-02
    34    4.861049293911e-02
    35   -1.881682899848e-04
    36    2.461845048324e-01
    37   -1.821695402762e-02
    38   -5.704007366006e-02
    39   -8.648600480343e-06
    40   -1.271949647875e-04
    41    1.826380778627e-05
    42   -1.796345058937e-06
    43    5.146877910275e-03
    44   -6.719361845970e-04
    45   -1.070593501634e-02
    46   -1.789496917647e-02
    47    1.022701530892e-01
    48    2.173369868332e-05
    49    8.567575315431e-06
    50    5.442899330042e-02
    51    1.733725113839e-01
    52    3.139272976904e-05
    53    1.466864688208e-05
    54    2.815559982611e-01
    55    1.968737710780e-01
    56    2.137544719155e-05
    57    1.170469329851e-05
    58   -1.604218420196e-01
    59   -3.395311724467e-02
    60    1.064645943744e-04
    61   -9.030260345610e-06
    62   -2.326188726271e-03
    63    3.606340187964e-06
    64   -2.737063048307e-05
    65    1.630383987554e-02
    66   -1.983036874098e-06
    67   -2.483792883793e-03
    68   -4.173324741408e-03
    69   -2.416019782353e-02
    70   -3.570094482184e-02
    71    1.344337040619e-04
    72    1.309581796323e-02
    73   -3.140843912566e-02
    74   -5.285105134745e-02
    75    2.207521571358e-04
    76    2.535901684833e-02
    77   -8.714904641505e-02
    78   -4.865760566720e-02
    79    1.939482258604e-04
    80    2.463021393758e-01
    81   -1.808282036382e-02
    82    5.711141328363e-02
    83    5.287696383456e-06
    84   -1.275622608815e-04
    85   -1.161727426501e-05
    86    1.348591974802e-06
    87    5.144382673637e-03
    88    6.596226924592e-04
    89   -5.049842672910e-03
    90   -8.052829366274e-03
    91   -3.164998254920e-03
    92   -2.757010291470e-05
    93   -3.153020882491e-05
    94    2.297322011691e-02
    95   -4.820480432869e-03
    96   -3.896284682200e-05
    97   -5.136845239239e-05
    98    1.178385158702e-02
    99   -8.565657130926e-03
   100   -2.551689622662e-05
   101   -4.069391427678e-05
   102    3.990868802237e-01
   103    5.707724387850e-02
   104   -3.986111394671e-05
   105   -5.232892408259e-06
   106    5.698584594251e-04
   107   -1.133327919164e-06
   108   -2.717659404824e-05
   109    7.340717026598e-03
   110   -2.921159435806e-06
   111   -2.863458804236e-02
   112   -3.640078821447e-02
   113   -8.747960097540e-03
   114    7.648683420480e-03
   115    6.303509576886e-03
   116   -1.617953517538e-03
   117    7.680758338697e-03
   118    6.348285225972e-03
   119   -1.602103411678e-03
   120    1.149577972889e-02
   121    1.785631761200e-02
   122    6.132276373596e-03
   123   -5.180420330634e-03
   124   -8.509425137541e-03
   125   -6.549424827606e-02
   126    1.315730866970e-06
   127    3.699290931636e-05
   128    2.646418891856e-02
   129   -1.056269147594e-01
   130    2.714417615712e-06
   131    5.881321663152e-05
   132    2.712781617177e-02
   133    6.862058439769e-02
   134   -1.550758058838e-07
   135    4.244817142058e-05
   136    1.069999227257e-01
   137    1.641651220428e-01
   138   -4.287996845925e-06
   139    8.218871159467e-06
   140    5.667143305782e-03
   141    1.827076055116e-06
   142    1.562946613113e-05
   143    5.429488692090e-02
   144   -1.222354434328e-06
   145    9.992025725167e-04
   146    1.580472200318e-03
   147    1.935339676570e-01
   148    2.773808526678e-02
   149   -2.460723110861e-05
   150   -7.169113608439e-03
   151    2.838121073245e-01
   152    4.169689609179e-02
   153   -3.604397504141e-05
   154   -2.998888861165e-02
   155    2.630452913966e-01
   156    3.023504661223e-02
   157   -4.171543054781e-05
   158   -9.339489904816e-02
   159    8.816626554408e-03
   160   -2.072680781236e-02
   161   -6.533425161277e-06
   162    1.876391804538e-03
   163   -1.701918759317e-06
   164   -1.594574517536e-08
   165   -6.506709878060e-03
   166    8.316018698350e-03
   167    9.981916216640e-04
   168    1.578784149095e-03
   169    1.935529961911e-01
   170   -2.775851770218e-02
   171    6.796233317162e-05
   172   -7.163492263491e-03
   173    2.838403179240e-01
   174   -4.172726054047e-02
   175    1.018325021808e-04
   176   -2.998495395779e-02
   177    2.630733399766e-01
   178   -3.026261066369e-02
   179    8.725584750097e-05
   180   -9.340677448178e-02
   181    8.820384151431e-03
   182    2.073013069765e-02
   183    6.218466140799e-06
   184    1.876520530815e-03
   185   -2.539363036780e-06
   186   -6.217947319263e-06
   187   -6.508852203151e-03
   188   -8.316070681185e-03
   189   -3.618141784208e-05
   190   -9.499431297628e-05
   191    3.305368648167e-02
   192    1.403038267104e-02
   193    1.189052465466e-04
   194    2.599739111456e-03
   195    4.809884492560e-02
   196    2.262690200153e-02
   197    1.935758884311e-04
   198   -5.616888721600e-02
   199    1.352149112283e-02
   200    3.187850742878e-02
   201    1.713892832585e-04
   202   -3.586852094113e-01
   203   -1.422923787421e-02
   204   -7.525820678782e-02
   205    2.209130809605e-05
   206    8.882117883481e-04
   207    1.634234950726e-05
   208   -5.180929439450e-06
   209    3.450279634529e-03
   210   -7.749340679131e-03
   211   -2.867605231728e-02
   212   -3.645696102416e-02
   213   -8.768444481885e-03
Sym=X
Ene= -0.114921
Spin=Alpha
Occup=1
     1    4.580223060261e-06
     2    7.313823824271e-06
     3   -2.756190484898e-05
     4   -5.135698290198e-05
     5    8.673507793113e-02
     6   -1.624249515783e-05
     7   -3.678452025273e-05
     8   -7.453639040242e-05
     9    1.409693536425e-01
    10   -1.925014576630e-04
    11   -1.224588321476e-04
    12   -7.561464640372e-05
    13    1.216451031799e-01
    14   -1.012894330663e-03
    15   -8.237647055300e-04
    16   -3.620960925889e-04
    17    1.006069530883e-02
    18   -1.066674986408e-06
    19   -1.485784453836e-02
    20   -1.421845339789e-02
    21    7.159459145479e-06
    22    1.295573693010e-05
    23   -1.492672626168e-05
    24   -2.407134251380e-05
    25    3.135123298895e-05
    26    2.871240135125e-05
    27   -5.417785307613e-02
    28    6.797557518943e-05
    29    6.066942416161e-05
    30    4.634879239533e-05
    31   -8.856960393692e-02
    32    1.628099428559e-04
    33   -1.440584255439e-04
    34    6.898343947614e-05
    35   -7.386567959437e-02
    36    1.300057923362e-03
    37   -9.796518674083e-04
    38    3.269493093483e-04
    39   -3.237369476010e-03
    40    2.289706927027e-06
    41   -1.862345440377e-02
    42    1.339232961787e-02
    43   -1.078649376582e-05
    44    1.044072864823e-05
    45   -7.008647151695e-06
    46   -1.154204145339e-05
    47    2.871499356555e-06
    48    3.351783745846e-06
    49   -1.493609534346e-01
    50    3.723593876633e-05
    51    5.697074540957e-06
    52    2.187889388375e-05
    53   -2.454721312688e-01
    54    2.256322456676e-05
    55    6.954629811985e-05
    56    1.108932422796e-04
    57   -2.184079854074e-01
    58   -2.156709349380e-04
    59    4.813914165790e-05
    60    3.803417764089e-04
    61   -3.613904588752e-02
    62   -1.054393288872e-06
    63   -3.631780143010e-03
    64   -2.402679572467e-05
    65    2.062134907097e-06
    66   -7.197264810849e-06
    67    1.678113139641e-05
    68    2.724189073275e-05
    69   -4.507519277350e-05
    70    2.173408862890e-05
    71   -5.395628007311e-02
    72   -8.046812130413e-05
    73   -7.754819584095e-05
    74    3.780092565473e-05
    75   -8.820923365236e-02
    76   -6.389486867064e-05
    77    6.600376579416e-05
    78    1.234766568075e-04
    79   -7.355116829845e-02
    80   -7.349547446906e-04
    81    8.813277126925e-04
    82    4.199885356675e-04
    83   -3.221277316417e-03
    84    8.591438502699e-08
    85   -1.864380051843e-02
    86   -1.339140300631e-02
    87    1.071379700491e-05
    88    1.162058090530e-05
    89   -4.360969124687e-06
    90   -7.089713271559e-06
    91   -2.612406993052e-05
    92    6.000518399537e-05
    93    1.537763460667e-01
    94    1.949978594376e-05
    95   -4.089098767830e-05
    96    8.807817139272e-05
    97    2.505808402202e-01
    98    4.768210975306e-05
    99   -2.302286750778e-05
   100    1.368693713136e-05
   101    2.150855687208e-01
   102    1.168798385961e-04
   103    1.518974348469e-05
   104   -7.125897980385e-04
   105    2.066023441901e-02
   106   -1.667134808381e-06
   107    7.783361094136e-03
   108   -1.919653659327e-05
   109    6.919584578238e-07
   110    5.163562848262e-06
   111   -4.176302619593e-05
   112   -4.995011526953e-05
   113   -1.846738530445e-05
   114    4.281356019239e-05
   115    6.116715051991e-05
   116   -1.777875101729e-05
   117   -4.279631235235e-05
   118   -5.277135081326e-05
   119    3.753052824295e-05
   120    2.010340735558e-06
   121    7.029431955234e-06
   122    9.092573983434e-06
   123   -2.802989979174e-07
   124   -5.041894561864e-07
   125   -3.579072461356e-06
   126   -4.613247615010e-05
   127   -4.104046599190e-02
   128    2.674833122050e-06
   129   -6.127766253255e-06
   130   -6.391928005742e-05
   131   -6.555438472946e-02
   132   -1.840595647406e-05
   133    2.453135621833e-05
   134   -2.369183720287e-04
   135   -4.352980364731e-02
   136    3.218542763491e-06
   137    3.891836910940e-05
   138    3.186690944441e-04
   139    4.070642122422e-02
   140    4.171988556780e-07
   141    1.652493566652e-02
   142    1.683921360280e-07
   143    9.231287680341e-06
   144    6.425837188274e-05
   145    3.864281416674e-06
   146    6.175599320760e-06
   147   -2.804725550390e-04
   148   -1.989881453421e-04
   149    2.446868241561e-02
   150   -2.105167085009e-05
   151   -4.182807059134e-04
   152   -2.925286454640e-04
   153    3.537601034749e-02
   154   -1.535766384755e-04
   155   -3.540286257038e-04
   156   -3.218971278687e-04
   157    4.489608966937e-02
   158    1.774407685704e-04
   159   -4.731037338296e-05
   160    2.723763271039e-05
   161   -2.230062775647e-03
   162   -2.599369032371e-06
   163    9.981730099817e-04
   164   -6.652039488339e-05
   165    2.091268101773e-05
   166   -1.142521128335e-05
   167   -2.776428185417e-06
   168   -4.452537765675e-06
   169    3.438065246641e-04
   170   -2.155209333566e-04
   171    2.448430004198e-02
   172    1.558255739437e-05
   173    5.109015225142e-04
   174   -3.170948263913e-04
   175    3.539969629679e-02
   176    1.421634121562e-04
   177    4.392856663267e-04
   178   -3.419225197394e-04
   179    4.491818200595e-02
   180   -2.123553100363e-04
   181    4.233347032483e-05
   182    3.884442941320e-05
   183   -2.228704729194e-03
   184    3.007880718985e-06
   185    9.982202742461e-04
   186    6.548299319438e-05
   187   -2.406827432000e-05
   188   -1.435895165503e-05
   189   -2.383356481186e-06
   190   -3.819668979560e-06
   191    2.920335185768e-05
   192   -6.421808967364e-05
   193    8.693053895836e-02
   194    7.177460800469e-06
   195    3.611940635399e-05
   196   -9.558462669439e-05
   197    1.412887207983e-01
   198    9.501615410509e-05
   199    8.192738434244e-05
   200   -1.073725171488e-04
   201    1.219238980626e-01
   202    5.555923157114e-04
   203    7.537969507976e-04
   204   -4.180576086989e-04
   205    1.009464740030e-02
   206    1.573519518295e-07
   207   -1.483435393036e-02
   208    1.421570798731e-02
   209    1.219890441459e-07
   210    9.170599635148e-06
   211    3.485397373225e-05
   212    3.738388149482e-05
   213    9.657381918836e-06
Sym=X
Ene= -0.134929
Spin=Alpha
Occup=1
     1    5.292353157873e-06
     2    8.527830071618e-06
     3   -1.492050426477e-05
     4   -6.700464230075e-07
     5   -1.291788408145e-01
     6   -2.536362577181e-05
     7   -1.926004517886e-05
     8   -9.783032289407e-08
     9   -2.105506034002e-01
    10    5.322818758712e-05
    11    1.658879480031e-05
    12   -1.588755204942e-06
    13   -1.854355536500e-01
    14    6.718135018299e-04
    15    2.595296746934e-04
    16    2.170044965765e-05
    17   -2.288458351150e-02
    18   -4.311202929658e-07
    19   -1.413376423410e-02
    20   -1.515125510669e-03
    21   -1.097197836266e-06
    22   -3.206446206343e-06
    23    9.149988863893e-07
    24    1.712425918869e-06
    25    2.013392018922e-05
    26   -1.658345825249e-05
    27   -1.316664533916e-01
    28   -6.462322683697e-06
    29    2.660221948153e-05
    30   -2.290199047528e-05
    31   -2.149788995347e-01
    32   -4.208399187764e-05
    33    9.519449848449e-05
    34   -1.543176519228e-05
    35   -1.896450625690e-01
    36    3.449812763622e-04
    37    4.279159493415e-04
    38   -1.743662642407e-04
    39   -9.985567160356e-03
    40    1.474591514540e-06
    41    1.361257337634e-02
    42   -4.003580749823e-04
    43   -5.749655806046e-06
    44    5.915247538080e-06
    45    1.849209880943e-05
    46    3.028277716495e-05
    47   -1.031538044654e-04
    48   -2.472923146981e-06
    49    1.164678203782e-04
    50   -9.058355334088e-05
    51   -1.770157259714e-04
    52   -3.501158936665e-06
    53    1.920763847822e-04
    54   -2.886596388566e-04
    55   -2.239850472961e-04
    56   -1.757680521194e-05
    57    1.764142294006e-04
    58    5.586852205283e-04
    59   -2.175534020340e-05
    60   -9.128570828986e-04
    61    3.004869571699e-05
    62    5.277485227426e-07
    63    1.443411041275e-06
    64   -2.803708160157e-02
    65   -2.026670593743e-05
    66   -2.022124257950e-06
    67   -7.534450721415e-06
    68   -1.210685545638e-05
    69    3.279032289984e-05
    70    1.658760972144e-05
    71    1.317691348784e-01
    72    3.479512503963e-05
    73    4.528254861536e-05
    74    2.153882556885e-05
    75    2.151462518515e-01
    76   -1.360978159897e-05
    77    1.138955687559e-04
    78    6.726089672965e-06
    79    1.897828631131e-01
    80   -1.476187139228e-03
    81   -3.661388618456e-04
    82   -4.306718145581e-04
    83    9.990809576869e-03
    84   -3.332810659752e-06
    85   -1.358479885047e-02
    86   -3.788803614580e-04
    87   -5.754219653736e-06
    88   -2.696253880948e-06
    89    3.657798389631e-06
    90    5.734952157329e-06
    91    1.099429613784e-06
    92    4.742324570684e-06
    93   -1.273678387417e-04
    94   -1.478781665557e-05
    95    1.591655772706e-06