 Entering Gaussian System, Link 0=g16
 Initial command:
 /software/gaussian/g16-c01/sse4/g16/l1.exe "/local_scratch/24665277/Gau-10685.inp" -scrdir="/local_scratch/24665277/"
 Entering Link 1 = /software/gaussian/g16-c01/sse4/g16/l1.exe PID=     10700.
  
 Copyright (c) 1988-2019, Gaussian, Inc.  All Rights Reserved.
  
 This is part of the Gaussian(R) 16 program.  It is based on
 the Gaussian(R) 09 system (copyright 2009, Gaussian, Inc.),
 the Gaussian(R) 03 system (copyright 2003, Gaussian, Inc.),
 the Gaussian(R) 98 system (copyright 1998, Gaussian, Inc.),
 the Gaussian(R) 94 system (copyright 1995, Gaussian, Inc.),
 the Gaussian 92(TM) system (copyright 1992, Gaussian, Inc.),
 the Gaussian 90(TM) system (copyright 1990, Gaussian, Inc.),
 the Gaussian 88(TM) system (copyright 1988, Gaussian, Inc.),
 the Gaussian 86(TM) system (copyright 1986, Carnegie Mellon
 University), and the Gaussian 82(TM) system (copyright 1983,
 Carnegie Mellon University). Gaussian is a federally registered
 trademark of Gaussian, Inc.
  
 This software contains proprietary and confidential information,
 including trade secrets, belonging to Gaussian, Inc.
  
 This software is provided under written license and may be
 used, copied, transmitted, or stored only in accord with that
 written license.
  
 The following legend is applicable only to US Government
 contracts under FAR:
  
                    RESTRICTED RIGHTS LEGEND
  
 Use, reproduction and disclosure by the US Government is
 subject to restrictions as set forth in subparagraphs (a)
 and (c) of the Commercial Computer Software - Restricted
 Rights clause in FAR 52.227-19.
  
 Gaussian, Inc.
 340 Quinnipiac St., Bldg. 40, Wallingford CT 06492
  
  
 ---------------------------------------------------------------
 Warning -- This program may not be used in any manner that
 competes with the business of Gaussian, Inc. or will provide
 assistance to any competitor of Gaussian, Inc.  The licensee
 of this program is prohibited from giving any competitor of
 Gaussian, Inc. access to this program.  By using this program,
 the user acknowledges that Gaussian, Inc. is engaged in the
 business of creating and licensing software in the field of
 computational chemistry and represents and warrants to the
 licensee that it is not a competitor of Gaussian, Inc. and that
 it will not use this program in any manner prohibited above.
 ---------------------------------------------------------------
  

 Cite this work as:
 Gaussian 16, Revision C.01,
 M. J. Frisch, G. W. Trucks, H. B. Schlegel, G. E. Scuseria, 
 M. A. Robb, J. R. Cheeseman, G. Scalmani, V. Barone, 
 G. A. Petersson, H. Nakatsuji, X. Li, M. Caricato, A. V. Marenich, 
 J. Bloino, B. G. Janesko, R. Gomperts, B. Mennucci, H. P. Hratchian, 
 J. V. Ortiz, A. F. Izmaylov, J. L. Sonnenberg, D. Williams-Young, 
 F. Ding, F. Lipparini, F. Egidi, J. Goings, B. Peng, A. Petrone, 
 T. Henderson, D. Ranasinghe, V. G. Zakrzewski, J. Gao, N. Rega, 
 G. Zheng, W. Liang, M. Hada, M. Ehara, K. Toyota, R. Fukuda, 
 J. Hasegawa, M. Ishida, T. Nakajima, Y. Honda, O. Kitao, H. Nakai, 
 T. Vreven, K. Throssell, J. A. Montgomery, Jr., J. E. Peralta, 
 F. Ogliaro, M. J. Bearpark, J. J. Heyd, E. N. Brothers, K. N. Kudin, 
 V. N. Staroverov, T. A. Keith, R. Kobayashi, J. Normand, 
 K. Raghavachari, A. P. Rendell, J. C. Burant, S. S. Iyengar, 
 J. Tomasi, M. Cossi, J. M. Millam, M. Klene, C. Adamo, R. Cammi, 
 J. W. Ochterski, R. L. Martin, K. Morokuma, O. Farkas, 
 J. B. Foresman, and D. J. Fox, Gaussian, Inc., Wallingford CT, 2019.
 
 ******************************************
 Gaussian 16:  ES64L-G16RevC.01  3-Jul-2019
                 2-May-2024 
 ******************************************
 %chk=geometry.chk
 %mem=1GB
 %nprocshared=12
 Will use up to   12 processors via shared memory.
 ----------------------------------------
 #P wB97XD/6-311+G* NoSymm #P Field=X+136
 ----------------------------------------
 1/38=1,172=1/1;
 2/12=2,15=1,17=6,18=5,40=1/2;
 3/5=4,6=6,7=11,11=2,14=1,15=136,25=1,30=1,74=-58/1,2,3;
 4//1;
 5/5=2,38=5/2;
 6/7=2,8=2,9=2,10=2,28=1/1;
 99/5=1,9=1/99;
 Leave Link    1 at Thu May  2 13:57:35 2024, MaxMem=   134217728 cpu:               1.1 elap:               1.2
 (Enter /software/gaussian/g16-c01/sse4/g16/l101.exe)
 -------
 TitleMe
 -------
 Symbolic Z-matrix:
 Charge =  1 Multiplicity = 1
 C                     0.5193    1.233    -0.0319 
 C                     1.9445    1.2692   -0.0367 
 C                     2.6204    0.0928   -0.025 
 C                    -0.196     0.0301    0.001 
 H                    -0.0207    2.1742   -0.0434 
 H                     2.4828    2.2089   -0.0361 
 H                    -1.2777    0.0399    0.0117 
 N                     4.0921    0.0959    0.0366 
 O                     4.6393   -1.0217    0.1446 
 O                     4.6649    1.1984   -0.0233 
 C                     0.4943   -1.1671    0.021 
 H                    -0.0325   -2.1149    0.0545 
 C                     1.9629   -1.2165   -0.0211 
 H                     2.4436   -1.9631    0.6151 
 Br                    2.173    -1.9491   -1.9062 
 
 ITRead=  0  0  0  0  0  0  0  0  0  0  0  0  0  0  0
 MicOpt= -1 -1 -1 -1 -1 -1 -1 -1 -1 -1 -1 -1 -1 -1 -1
 NAtoms=     15 NQM=       15 NQMF=       0 NMMI=      0 NMMIF=      0
                NMic=       0 NMicF=      0.
                    Isotopes and Nuclear Properties:
 (Nuclear quadrupole moments (NQMom) in fm**2, nuclear magnetic moments (NMagM)
  in nuclear magnetons)

  Atom         1           2           3           4           5           6           7           8           9          10
 IAtWgt=          12          12          12          12           1           1           1          14          16          16
 AtmWgt=  12.0000000  12.0000000  12.0000000  12.0000000   1.0078250   1.0078250   1.0078250  14.0030740  15.9949146  15.9949146
 NucSpn=           0           0           0           0           1           1           1           2           0           0
 AtZEff=  -0.0000000  -0.0000000  -0.0000000  -0.0000000  -0.0000000  -0.0000000  -0.0000000  -0.0000000  -0.0000000  -0.0000000
 NQMom=    0.0000000   0.0000000   0.0000000   0.0000000   0.0000000   0.0000000   0.0000000   2.0440000   0.0000000   0.0000000
 NMagM=    0.0000000   0.0000000   0.0000000   0.0000000   2.7928460   2.7928460   2.7928460   0.4037610   0.0000000   0.0000000
 AtZNuc=   6.0000000   6.0000000   6.0000000   6.0000000   1.0000000   1.0000000   1.0000000   7.0000000   8.0000000   8.0000000

  Atom        11          12          13          14          15
 IAtWgt=          12           1          12           1          79
 AtmWgt=  12.0000000   1.0078250  12.0000000   1.0078250  78.9183361
 NucSpn=           0           1           0           1           3
 AtZEff=  -0.0000000  -0.0000000  -0.0000000  -0.0000000  -0.0000000
 NQMom=    0.0000000   0.0000000   0.0000000   0.0000000  31.3000000
 NMagM=    0.0000000   2.7928460   0.0000000   2.7928460   2.1063990
 AtZNuc=   6.0000000   1.0000000   6.0000000   1.0000000  35.0000000
 Leave Link  101 at Thu May  2 13:57:37 2024, MaxMem=   134217728 cpu:               1.5 elap:               1.8
 (Enter /software/gaussian/g16-c01/sse4/g16/l202.exe)
                          Input orientation:                          
 ---------------------------------------------------------------------
 Center     Atomic      Atomic             Coordinates (Angstroms)
 Number     Number       Type             X           Y           Z
 ---------------------------------------------------------------------
      1          6           0        0.519300    1.233000   -0.031900
      2          6           0        1.944500    1.269200   -0.036700
      3          6           0        2.620400    0.092800   -0.025000
      4          6           0       -0.196000    0.030100    0.001000
      5          1           0       -0.020700    2.174200   -0.043400
      6          1           0        2.482800    2.208900   -0.036100
      7          1           0       -1.277700    0.039900    0.011700
      8          7           0        4.092100    0.095900    0.036600
      9          8           0        4.639300   -1.021700    0.144600
     10          8           0        4.664900    1.198400   -0.023300
     11          6           0        0.494300   -1.167100    0.021000
     12          1           0       -0.032500   -2.114900    0.054500
     13          6           0        1.962900   -1.216500   -0.021100
     14          1           0        2.443600   -1.963100    0.615100
     15         35           0        2.173000   -1.949100   -1.906200
 ---------------------------------------------------------------------
                    Distance matrix (angstroms):
                    1          2          3          4          5
     1  C    0.000000
     2  C    1.425668   0.000000
     3  C    2.390549   1.356796   0.000000
     4  C    1.399895   2.473566   2.817218   0.000000
     5  H    1.085168   2.163581   3.362733   2.151712   0.000000
     6  H    2.192654   1.082960   2.120598   3.453189   2.503751
     7  H    2.157452   3.449071   3.898632   1.081797   2.477564
     8  N    3.750012   2.448304   1.472992   4.288753   4.608780
     9  O    4.699917   3.541615   2.312322   4.950458   5.653735
    10  O    4.145753   2.721354   2.324292   4.999386   4.786171
    11  C    2.400813   2.835836   2.471794   1.382101   3.381369
    12  H    3.394169   3.920329   3.452266   2.151887   4.290233
    13  C    2.843264   2.485817   1.465124   2.493060   3.928360
    14  H    3.786370   3.334922   2.160489   3.364142   4.860416
    15  Br   4.046416   3.728900   2.812194   3.628609   5.028314
                    6          7          8          9         10
     6  H    0.000000
     7  H    4.341452   0.000000
     8  N    2.657047   5.370150   0.000000
     9  O    3.888434   6.012948   1.249048   0.000000
    10  O    2.404752   6.054572   1.243863   2.226587   0.000000
    11  C    3.918516   2.144043   3.813080   4.149391   4.794941
    12  H    5.003018   2.489080   4.679774   4.798846   5.748876
    13  C    3.464662   3.475788   2.501842   2.688591   3.623886
    14  H    4.222698   4.268978   2.700314   2.434893   3.916224
    15  Br   4.569706   4.420610   3.411663   3.338935   4.434144
                   11         12         13         14         15
    11  C    0.000000
    12  H    1.084880   0.000000
    13  C    1.470034   2.189625   0.000000
    14  H    2.187771   2.543302   1.092353   0.000000
    15  Br   2.672762   2.955683   2.033334   2.535818   0.000000
 Symmetry turned off by external request.
 Stoichiometry    C6H5BrNO2(1+)
 Framework group  C1[X(C6H5BrNO2)]
 Deg. of freedom    39
 Full point group                 C1      NOp   1
 Rotational constants (GHZ):           1.1632986           0.9594224           0.5957624
 Leave Link  202 at Thu May  2 13:57:38 2024, MaxMem=   134217728 cpu:               1.2 elap:               1.2
 (Enter /software/gaussian/g16-c01/sse4/g16/l301.exe)
 Standard basis: 6-311+G(d) (5D, 7F)
 Ernie: Thresh=  0.10000D-02 Tol=  0.10000D-05 Strict=F.
 The following finite field(s) will be applied:
 An electric field of              0.0136  0.0000  0.0000
   261 basis functions,   443 primitive gaussians,   273 cartesian basis functions
    49 alpha electrons       49 beta electrons
       nuclear repulsion energy       772.8945969580 Hartrees.
 IExCor= 4639 DFT=T Ex+Corr=wB97XD ExCW=0 ScaHFX=  1.000000
 ScaDFX=  1.000000  1.000000  1.000000  1.000000 ScalE2=  1.000000  1.000000
 IRadAn=      5 IRanWt=     -1 IRanGd=            0 ICorTp=0 IEmpDi=121
 HFx  wShort=  0.000000 wLong=  0.200000 cFull=  0.222036 cShort=  0.000000 cLong=  0.777964
 DFx  wShort=  0.000000 wLong=  0.200000 cFull=  0.000000 cShort=  0.000000 cLong=  1.000000
 NAtoms=   15 NActive=   15 NUniq=   15 SFac= 1.00D+00 NAtFMM=   60 NAOKFM=F Big=F
 Integral buffers will be    131072 words long.
 Raffenetti 2 integral format.
 Two-electron integral symmetry is turned off.
 R6Disp:  Grimme-D2 Dispersion energy=       -0.0080346408 Hartrees.
 Nuclear repulsion after empirical dispersion term =      772.8865623173 Hartrees.
 Leave Link  301 at Thu May  2 13:57:39 2024, MaxMem=   134217728 cpu:               1.1 elap:               1.1
 (Enter /software/gaussian/g16-c01/sse4/g16/l302.exe)
 NPDir=0 NMtPBC=     1 NCelOv=     1 NCel=       1 NClECP=     1 NCelD=      1
         NCelK=      1 NCelE2=     1 NClLst=     1 CellRange=     0.0.
 One-electron integrals computed using PRISM.
 NBasis=   261 RedAO= T EigKep=  2.52D-06  NBF=   261
 NBsUse=   261 1.00D-06 EigRej= -1.00D+00 NBFU=   261
 Precomputing XC quadrature grid using
 IXCGrd= 4 IRadAn=           5 IRanWt=          -1 IRanGd=           0 AccXCQ= 0.00D+00.
 Generated NRdTot=       0 NPtTot=           0 NUsed=           0 NTot=          32
 NSgBfM=   273   273   273   273   273 MxSgAt=    15 MxSgA2=    15.
 Leave Link  302 at Thu May  2 13:58:01 2024, MaxMem=   134217728 cpu:              22.0 elap:              22.1
 (Enter /software/gaussian/g16-c01/sse4/g16/l303.exe)
 DipDrv:  MaxL=1.
 The nuclear repulsion energy is now       778.7154155943 hartrees.
 Leave Link  303 at Thu May  2 13:58:04 2024, MaxMem=   134217728 cpu:               3.3 elap:               3.3
 (Enter /software/gaussian/g16-c01/sse4/g16/l401.exe)
 ExpMin= 3.50D-02 ExpMax= 4.40D+05 ExpMxC= 1.51D+04 IAcc=3 IRadAn=         5 AccDes= 0.00D+00
 Harris functional with IExCor= 4639 and IRadAn=       5 diagonalized for initial guess.
 HarFok:  IExCor= 4639 AccDes= 0.00D+00 IRadAn=         5 IDoV= 1 UseB2=F ITyADJ=14
 ICtDFT=  3500011 ScaDFX=  1.000000  1.000000  1.000000  1.000000
 FoFCou: FMM=F IPFlag=           0 FMFlag=      100000 FMFlg1=           0
         NFxFlg=           0 DoJE=T BraDBF=F KetDBF=T FulRan=T
         wScrn=  0.000000 ICntrl=       500 IOpCl=  0 I1Cent=   200000004 NGrid=           0
         NMat0=    1 NMatS0=      1 NMatT0=    0 NMatD0=    1 NMtDS0=    0 NMtDT0=    0
 Symmetry not used in FoFCou.
 Harris En= -2970.60218953651    
 JPrj=0 DoOrth=F DoCkMO=F.
 Leave Link  401 at Thu May  2 13:58:36 2024, MaxMem=   134217728 cpu:              31.5 elap:              31.5
 (Enter /software/gaussian/g16-c01/sse4/g16/l502.exe)
 Two-electron integral symmetry not used.
 Closed shell SCF:
 Using DIIS extrapolation, IDIIS=  1040.
 NGot=   134217728 LenX=   134063053 LenY=   133988083
 Requested convergence on RMS density matrix=1.00D-08 within 128 cycles.
 Requested convergence on MAX density matrix=1.00D-06.
 Requested convergence on             energy=1.00D-06.
 No special actions if energy rises.
 Fock matrices will be formed incrementally for  20 cycles.

 Cycle   1  Pass 1  IDiag  1:
 FoFJK:  IHMeth= 1 ICntrl=       0 DoSepK=T KAlg= 0 I1Cent=           0 FoldK=F
 IRaf=         1 NMat=       1 IRICut=       1 DoRegI=T DoRafI=F ISym2E= 0 IDoP0=0 IntGTp=1.
 FoFCou: FMM=F IPFlag=           0 FMFlag=      100000 FMFlg1=           0
         NFxFlg=           0 DoJE=T BraDBF=F KetDBF=F FulRan=T
         wScrn=  0.000000 ICntrl=       500 IOpCl=  0 I1Cent=           0 NGrid=           0
         NMat0=    1 NMatS0=      1 NMatT0=    0 NMatD0=    1 NMtDS0=    0 NMtDT0=    0
 Symmetry not used in FoFCou.
 E= -3009.71717180916    
 DIIS: error= 2.90D-01 at cycle   1 NSaved=   1.
 NSaved= 1 IEnMin= 1 EnMin= -3009.71717180916     IErMin= 1 ErrMin= 2.90D-01
 ErrMax= 2.90D-01  0.00D+00 EMaxC= 1.00D-01 BMatC= 1.19D+01 BMatP= 1.19D+01
 IDIUse=3 WtCom= 0.00D+00 WtEn= 1.00D+00
 Coeff-Com:  0.100D+01
 Coeff-En:   0.100D+01
 Coeff:      0.100D+01
 Gap=     0.245 Goal=   None    Shift=    0.000
 GapD=    0.245 DampG=1.000 DampE=0.250 DampFc=0.2500 IDamp=-1.
 Damping current iteration by 2.50D-01
 RMSDP=7.23D-02 MaxDP=7.57D+00              OVMax= 2.66D-01

 Cycle   2  Pass 1  IDiag  1:
 RMSU=  7.44D-03    CP:  8.73D-01
 E= -3009.99854469144     Delta-E=       -0.281372882280 Rises=F Damp=T
 DIIS: error= 2.19D-01 at cycle   2 NSaved=   2.
 NSaved= 2 IEnMin= 2 EnMin= -3009.99854469144     IErMin= 2 ErrMin= 2.19D-01
 ErrMax= 2.19D-01  0.00D+00 EMaxC= 1.00D-01 BMatC= 5.45D+00 BMatP= 1.19D+01
 IDIUse=3 WtCom= 0.00D+00 WtEn= 1.00D+00
 Coeff-Com: -0.184D+01 0.284D+01
 Coeff-En:   0.000D+00 0.100D+01
 Coeff:      0.000D+00 0.100D+01
 Gap=     0.254 Goal=   None    Shift=    0.000
 RMSDP=5.53D-02 MaxDP=6.00D+00 DE=-2.81D-01 OVMax= 6.85D-02

 Cycle   3  Pass 1  IDiag  1:
 RMSU=  5.02D-03    CP:  4.66D-01  3.00D+00
 E= -3010.38027152105     Delta-E=       -0.381726829606 Rises=F Damp=F
 DIIS: error= 6.57D-02 at cycle   3 NSaved=   3.
 NSaved= 3 IEnMin= 3 EnMin= -3010.38027152105     IErMin= 3 ErrMin= 6.57D-02
 ErrMax= 6.57D-02  0.00D+00 EMaxC= 1.00D-01 BMatC= 7.24D-01 BMatP= 5.45D+00
 IDIUse=3 WtCom= 3.43D-01 WtEn= 6.57D-01
 Coeff-Com:  0.270D+01-0.354D+01 0.185D+01
 Coeff-En:   0.184D-01 0.000D+00 0.982D+00
 Coeff:      0.937D+00-0.121D+01 0.128D+01
 Gap=     0.247 Goal=   None    Shift=    0.000
 RMSDP=1.22D-02 MaxDP=7.87D-01 DE=-3.82D-01 OVMax= 7.31D-02

 Cycle   4  Pass 1  IDiag  1:
 RMSU=  6.63D-03    CP:  4.91D-01  2.17D+00  2.27D+00
 E= -3010.47901684458     Delta-E=       -0.098745323532 Rises=F Damp=F
 DIIS: error= 3.93D-02 at cycle   4 NSaved=   4.
 NSaved= 4 IEnMin= 4 EnMin= -3010.47901684458     IErMin= 4 ErrMin= 3.93D-02
 ErrMax= 3.93D-02  0.00D+00 EMaxC= 1.00D-01 BMatC= 2.40D-01 BMatP= 7.24D-01
 IDIUse=3 WtCom= 6.07D-01 WtEn= 3.93D-01
 Coeff-Com: -0.111D+00 0.162D+00 0.315D+00 0.634D+00
 Coeff-En:   0.000D+00 0.000D+00 0.213D+00 0.787D+00
 Coeff:     -0.677D-01 0.984D-01 0.275D+00 0.694D+00
 Gap=     0.255 Goal=   None    Shift=    0.000
 RMSDP=4.99D-03 MaxDP=5.14D-01 DE=-9.87D-02 OVMax= 3.10D-02

 Cycle   5  Pass 1  IDiag  1:
 RMSU=  1.91D-03    CP:  4.61D-01  2.31D+00  2.09D+00  6.60D-01
 E= -3010.52503010794     Delta-E=       -0.046013263361 Rises=F Damp=F
 DIIS: error= 6.52D-03 at cycle   5 NSaved=   5.
 NSaved= 5 IEnMin= 5 EnMin= -3010.52503010794     IErMin= 5 ErrMin= 6.52D-03
 ErrMax= 6.52D-03  0.00D+00 EMaxC= 1.00D-01 BMatC= 7.89D-03 BMatP= 2.40D-01
 IDIUse=3 WtCom= 9.35D-01 WtEn= 6.52D-02
 Coeff-Com: -0.130D+00 0.179D+00 0.912D-01 0.368D+00 0.492D+00
 Coeff-En:   0.000D+00 0.000D+00 0.000D+00 0.000D+00 0.100D+01
 Coeff:     -0.122D+00 0.167D+00 0.853D-01 0.344D+00 0.525D+00
 Gap=     0.247 Goal=   None    Shift=    0.000
 RMSDP=1.30D-03 MaxDP=1.55D-01 DE=-4.60D-02 OVMax= 2.00D-02

 Cycle   6  Pass 1  IDiag  1:
 RMSU=  5.83D-04    CP:  4.66D-01  2.31D+00  2.16D+00  7.89D-01  7.70D-01
 E= -3010.52700149515     Delta-E=       -0.001971387210 Rises=F Damp=F
 DIIS: error= 2.37D-03 at cycle   6 NSaved=   6.
 NSaved= 6 IEnMin= 6 EnMin= -3010.52700149515     IErMin= 6 ErrMin= 2.37D-03
 ErrMax= 2.37D-03  0.00D+00 EMaxC= 1.00D-01 BMatC= 4.98D-04 BMatP= 7.89D-03
 IDIUse=3 WtCom= 9.76D-01 WtEn= 2.37D-02
 Coeff-Com: -0.991D-01 0.133D+00-0.669D-03 0.159D+00 0.354D+00 0.454D+00
 Coeff-En:   0.000D+00 0.000D+00 0.000D+00 0.000D+00 0.762D-01 0.924D+00
 Coeff:     -0.968D-01 0.130D+00-0.653D-03 0.155D+00 0.347D+00 0.465D+00
 Gap=     0.247 Goal=   None    Shift=    0.000
 RMSDP=3.98D-04 MaxDP=3.59D-02 DE=-1.97D-03 OVMax= 6.79D-03

 Cycle   7  Pass 1  IDiag  1:
 RMSU=  2.00D-04    CP:  4.64D-01  2.31D+00  2.16D+00  7.66D-01  8.65D-01
                    CP:  7.43D-01
 E= -3010.52734685585     Delta-E=       -0.000345360693 Rises=F Damp=F
 DIIS: error= 3.02D-04 at cycle   7 NSaved=   7.
 NSaved= 7 IEnMin= 7 EnMin= -3010.52734685585     IErMin= 7 ErrMin= 3.02D-04
 ErrMax= 3.02D-04  0.00D+00 EMaxC= 1.00D-01 BMatC= 1.33D-05 BMatP= 4.98D-04
 IDIUse=3 WtCom= 9.97D-01 WtEn= 3.02D-03
 Coeff-Com: -0.332D-01 0.442D-01-0.126D-01 0.290D-01 0.812D-01 0.172D+00
 Coeff-Com:  0.719D+00
 Coeff-En:   0.000D+00 0.000D+00 0.000D+00 0.000D+00 0.000D+00 0.000D+00
 Coeff-En:   0.100D+01
 Coeff:     -0.331D-01 0.441D-01-0.126D-01 0.289D-01 0.810D-01 0.172D+00
 Coeff:      0.720D+00
 Gap=     0.248 Goal=   None    Shift=    0.000
 RMSDP=1.76D-04 MaxDP=1.45D-02 DE=-3.45D-04 OVMax= 1.40D-03

 Cycle   8  Pass 1  IDiag  1:
 RMSU=  7.55D-05    CP:  4.64D-01  2.29D+00  2.18D+00  7.77D-01  8.98D-01
                    CP:  7.81D-01  1.06D+00
 E= -3010.52736088389     Delta-E=       -0.000014028042 Rises=F Damp=F
 DIIS: error= 1.37D-04 at cycle   8 NSaved=   8.
 NSaved= 8 IEnMin= 8 EnMin= -3010.52736088389     IErMin= 8 ErrMin= 1.37D-04
 ErrMax= 1.37D-04  0.00D+00 EMaxC= 1.00D-01 BMatC= 2.10D-06 BMatP= 1.33D-05
 IDIUse=3 WtCom= 9.99D-01 WtEn= 1.37D-03
 Coeff-Com:  0.518D-02-0.713D-02-0.327D-02-0.132D-01-0.296D-01-0.369D-01
 Coeff-Com:  0.198D+00 0.887D+00
 Coeff-En:   0.000D+00 0.000D+00 0.000D+00 0.000D+00 0.000D+00 0.000D+00
 Coeff-En:   0.000D+00 0.100D+01
 Coeff:      0.517D-02-0.712D-02-0.326D-02-0.132D-01-0.296D-01-0.368D-01
 Coeff:      0.198D+00 0.887D+00
 Gap=     0.248 Goal=   None    Shift=    0.000
 RMSDP=9.04D-05 MaxDP=7.52D-03 DE=-1.40D-05 OVMax= 8.17D-04

 Cycle   9  Pass 1  IDiag  1:
 RMSU=  2.49D-05    CP:  4.64D-01  2.29D+00  2.19D+00  7.82D-01  9.09D-01
                    CP:  8.11D-01  1.27D+00  1.20D+00
 E= -3010.52736392341     Delta-E=       -0.000003039526 Rises=F Damp=F
 DIIS: error= 2.53D-05 at cycle   9 NSaved=   9.
 NSaved= 9 IEnMin= 9 EnMin= -3010.52736392341     IErMin= 9 ErrMin= 2.53D-05
 ErrMax= 2.53D-05  0.00D+00 EMaxC= 1.00D-01 BMatC= 2.21D-07 BMatP= 2.10D-06
 IDIUse=1 WtCom= 1.00D+00 WtEn= 0.00D+00
 Coeff-Com:  0.585D-02-0.786D-02 0.482D-03-0.803D-02-0.182D-01-0.332D-01
 Coeff-Com: -0.364D-01 0.290D+00 0.807D+00
 Coeff:      0.585D-02-0.786D-02 0.482D-03-0.803D-02-0.182D-01-0.332D-01
 Coeff:     -0.364D-01 0.290D+00 0.807D+00
 Gap=     0.248 Goal=   None    Shift=    0.000
 RMSDP=3.24D-05 MaxDP=2.60D-03 DE=-3.04D-06 OVMax= 3.55D-04

 Cycle  10  Pass 1  IDiag  1:
 RMSU=  1.02D-05    CP:  4.64D-01  2.29D+00  2.19D+00  7.82D-01  9.16D-01
                    CP:  8.07D-01  1.32D+00  1.31D+00  1.06D+00
 E= -3010.52736433251     Delta-E=       -0.000000409102 Rises=F Damp=F
 DIIS: error= 1.50D-05 at cycle  10 NSaved=  10.
 NSaved=10 IEnMin=10 EnMin= -3010.52736433251     IErMin=10 ErrMin= 1.50D-05
 ErrMax= 1.50D-05  0.00D+00 EMaxC= 1.00D-01 BMatC= 4.15D-08 BMatP= 2.21D-07
 IDIUse=1 WtCom= 1.00D+00 WtEn= 0.00D+00
 Coeff-Com:  0.508D-03-0.664D-03 0.262D-03-0.553D-03 0.208D-03-0.135D-02
 Coeff-Com: -0.349D-01-0.274D-01 0.216D+00 0.848D+00
 Coeff:      0.508D-03-0.664D-03 0.262D-03-0.553D-03 0.208D-03-0.135D-02
 Coeff:     -0.349D-01-0.274D-01 0.216D+00 0.848D+00
 Gap=     0.248 Goal=   None    Shift=    0.000
 RMSDP=5.72D-06 MaxDP=4.54D-04 DE=-4.09D-07 OVMax= 1.68D-04

 Cycle  11  Pass 1  IDiag  1:
 RMSU=  4.33D-06    CP:  4.64D-01  2.29D+00  2.19D+00  7.81D-01  9.17D-01
                    CP:  8.08D-01  1.31D+00  1.31D+00  1.11D+00  1.19D+00
 E= -3010.52736439439     Delta-E=       -0.000000061874 Rises=F Damp=F
 DIIS: error= 4.46D-06 at cycle  11 NSaved=  11.
 NSaved=11 IEnMin=11 EnMin= -3010.52736439439     IErMin=11 ErrMin= 4.46D-06
 ErrMax= 4.46D-06  0.00D+00 EMaxC= 1.00D-01 BMatC= 2.31D-09 BMatP= 4.15D-08
 IDIUse=1 WtCom= 1.00D+00 WtEn= 0.00D+00
 Coeff-Com: -0.182D-03 0.244D-03 0.290D-04 0.483D-03 0.140D-02 0.270D-02
 Coeff-Com:  0.752D-02-0.174D-01-0.106D+00-0.694D-01 0.118D+01
 Coeff:     -0.182D-03 0.244D-03 0.290D-04 0.483D-03 0.140D-02 0.270D-02
 Coeff:      0.752D-02-0.174D-01-0.106D+00-0.694D-01 0.118D+01
 Gap=     0.248 Goal=   None    Shift=    0.000
 RMSDP=6.28D-06 MaxDP=8.10D-04 DE=-6.19D-08 OVMax= 1.29D-04

 Cycle  12  Pass 1  IDiag  1:
 RMSU=  1.11D-06    CP:  4.64D-01  2.29D+00  2.19D+00  7.81D-01  9.17D-01
                    CP:  8.07D-01  1.31D+00  1.29D+00  1.12D+00  1.39D+00
                    CP:  1.55D+00
 E= -3010.52736440841     Delta-E=       -0.000000014023 Rises=F Damp=F
 DIIS: error= 1.81D-06 at cycle  12 NSaved=  12.
 NSaved=12 IEnMin=12 EnMin= -3010.52736440841     IErMin=12 ErrMin= 1.81D-06
 ErrMax= 1.81D-06  0.00D+00 EMaxC= 1.00D-01 BMatC= 1.04D-09 BMatP= 2.31D-09
 IDIUse=1 WtCom= 1.00D+00 WtEn= 0.00D+00
 Coeff-Com: -0.172D-03 0.228D-03-0.177D-04 0.333D-03 0.538D-03 0.123D-02
 Coeff-Com:  0.914D-02-0.533D-02-0.866D-01-0.178D+00 0.561D+00 0.697D+00
 Coeff:     -0.172D-03 0.228D-03-0.177D-04 0.333D-03 0.538D-03 0.123D-02
 Coeff:      0.914D-02-0.533D-02-0.866D-01-0.178D+00 0.561D+00 0.697D+00
 Gap=     0.248 Goal=   None    Shift=    0.000
 RMSDP=1.85D-06 MaxDP=2.07D-04 DE=-1.40D-08 OVMax= 4.45D-05

 Cycle  13  Pass 1  IDiag  1:
 RMSU=  5.48D-07    CP:  4.64D-01  2.29D+00  2.19D+00  7.81D-01  9.18D-01
                    CP:  8.07D-01  1.31D+00  1.29D+00  1.13D+00  1.46D+00
                    CP:  1.73D+00  1.19D+00
 E= -3010.52736441126     Delta-E=       -0.000000002851 Rises=F Damp=F
 DIIS: error= 7.60D-07 at cycle  13 NSaved=  13.
 NSaved=13 IEnMin=13 EnMin= -3010.52736441126     IErMin=13 ErrMin= 7.60D-07
 ErrMax= 7.60D-07  0.00D+00 EMaxC= 1.00D-01 BMatC= 1.16D-10 BMatP= 1.04D-09
 IDIUse=1 WtCom= 1.00D+00 WtEn= 0.00D+00
 Coeff-Com: -0.962D-05 0.130D-04-0.146D-04-0.659D-04-0.365D-03-0.728D-03
 Coeff-Com: -0.105D-02 0.319D-02 0.213D-01 0.471D-02-0.169D+00-0.492D-01
 Coeff-Com:  0.119D+01
 Coeff:     -0.962D-05 0.130D-04-0.146D-04-0.659D-04-0.365D-03-0.728D-03
 Coeff:     -0.105D-02 0.319D-02 0.213D-01 0.471D-02-0.169D+00-0.492D-01
 Coeff:      0.119D+01
 Gap=     0.248 Goal=   None    Shift=    0.000
 RMSDP=8.35D-07 MaxDP=4.69D-05 DE=-2.85D-09 OVMax= 3.46D-05

 Cycle  14  Pass 1  IDiag  1:
 RMSU=  2.88D-07    CP:  4.64D-01  2.29D+00  2.19D+00  7.81D-01  9.18D-01
                    CP:  8.07D-01  1.31D+00  1.28D+00  1.14D+00  1.47D+00
                    CP:  1.73D+00  1.36D+00  1.71D+00
 E= -3010.52736441203     Delta-E=       -0.000000000771 Rises=F Damp=F
 DIIS: error= 3.03D-07 at cycle  14 NSaved=  14.
 NSaved=14 IEnMin=14 EnMin= -3010.52736441203     IErMin=14 ErrMin= 3.03D-07
 ErrMax= 3.03D-07  0.00D+00 EMaxC= 1.00D-01 BMatC= 3.19D-11 BMatP= 1.16D-10
 IDIUse=1 WtCom= 1.00D+00 WtEn= 0.00D+00
 Coeff-Com:  0.931D-05-0.121D-04-0.482D-05-0.541D-04-0.149D-03-0.310D-03
 Coeff-Com: -0.138D-02 0.136D-02 0.180D-01 0.231D-01-0.126D+00-0.175D+00
 Coeff-Com:  0.312D+00 0.950D+00
 Coeff:      0.931D-05-0.121D-04-0.482D-05-0.541D-04-0.149D-03-0.310D-03
 Coeff:     -0.138D-02 0.136D-02 0.180D-01 0.231D-01-0.126D+00-0.175D+00
 Coeff:      0.312D+00 0.950D+00
 Gap=     0.248 Goal=   None    Shift=    0.000
 RMSDP=5.00D-07 MaxDP=3.01D-05 DE=-7.71D-10 OVMax= 1.67D-05

 Cycle  15  Pass 1  IDiag  1:
 RMSU=  1.14D-07    CP:  4.64D-01  2.29D+00  2.19D+00  7.81D-01  9.18D-01
                    CP:  8.07D-01  1.31D+00  1.28D+00  1.14D+00  1.48D+00
                    CP:  1.73D+00  1.41D+00  2.18D+00  1.38D+00
 E= -3010.52736441225     Delta-E=       -0.000000000211 Rises=F Damp=F
 DIIS: error= 1.00D-07 at cycle  15 NSaved=  15.
 NSaved=15 IEnMin=15 EnMin= -3010.52736441225     IErMin=15 ErrMin= 1.00D-07
 ErrMax= 1.00D-07  0.00D+00 EMaxC= 1.00D-01 BMatC= 4.77D-12 BMatP= 3.19D-11
 IDIUse=1 WtCom= 1.00D+00 WtEn= 0.00D+00
 Coeff-Com:  0.614D-05-0.817D-05 0.201D-05-0.234D-05 0.393D-04 0.810D-04
 Coeff-Com: -0.138D-03-0.478D-03 0.715D-03 0.609D-02 0.727D-02-0.547D-01
 Coeff-Com: -0.143D+00 0.316D+00 0.869D+00
 Coeff:      0.614D-05-0.817D-05 0.201D-05-0.234D-05 0.393D-04 0.810D-04
 Coeff:     -0.138D-03-0.478D-03 0.715D-03 0.609D-02 0.727D-02-0.547D-01
 Coeff:     -0.143D+00 0.316D+00 0.869D+00
 Gap=     0.248 Goal=   None    Shift=    0.000
 RMSDP=2.46D-07 MaxDP=2.33D-05 DE=-2.11D-10 OVMax= 6.15D-06

 Cycle  16  Pass 1  IDiag  1:
 RMSU=  2.87D-08    CP:  4.64D-01  2.29D+00  2.19D+00  7.81D-01  9.18D-01
                    CP:  8.07D-01  1.31D+00  1.28D+00  1.14D+00  1.48D+00
                    CP:  1.72D+00  1.40D+00  2.34D+00  1.63D+00  1.39D+00
 E= -3010.52736441226     Delta-E=       -0.000000000017 Rises=F Damp=F
 DIIS: error= 3.67D-08 at cycle  16 NSaved=  16.
 NSaved=16 IEnMin=16 EnMin= -3010.52736441226     IErMin=16 ErrMin= 3.67D-08
 ErrMax= 3.67D-08  0.00D+00 EMaxC= 1.00D-01 BMatC= 7.51D-13 BMatP= 4.77D-12
 IDIUse=1 WtCom= 1.00D+00 WtEn= 0.00D+00
 Coeff-Com:  0.658D-06-0.898D-06 0.129D-05 0.629D-05 0.288D-04 0.614D-04
 Coeff-Com:  0.133D-03-0.331D-03-0.211D-02-0.819D-03 0.180D-01 0.101D-01
 Coeff-Com: -0.845D-01-0.936D-01 0.182D+00 0.971D+00
 Coeff:      0.658D-06-0.898D-06 0.129D-05 0.629D-05 0.288D-04 0.614D-04
 Coeff:      0.133D-03-0.331D-03-0.211D-02-0.819D-03 0.180D-01 0.101D-01
 Coeff:     -0.845D-01-0.936D-01 0.182D+00 0.971D+00
 Gap=     0.248 Goal=   None    Shift=    0.000
 RMSDP=1.20D-07 MaxDP=1.11D-05 DE=-1.73D-11 OVMax= 2.91D-06

 Cycle  17  Pass 1  IDiag  1:
 RMSU=  1.19D-08    CP:  4.64D-01  2.29D+00  2.19D+00  7.81D-01  9.18D-01
                    CP:  8.07D-01  1.31D+00  1.28D+00  1.14D+00  1.48D+00
                    CP:  1.71D+00  1.40D+00  2.42D+00  1.76D+00  1.67D+00
                    CP:  1.45D+00
 E= -3010.52736441226     Delta-E=        0.000000000003 Rises=F Damp=F
 DIIS: error= 1.92D-08 at cycle  17 NSaved=  17.
 NSaved=17 IEnMin=16 EnMin= -3010.52736441226     IErMin=17 ErrMin= 1.92D-08
 ErrMax= 1.92D-08  0.00D+00 EMaxC= 1.00D-01 BMatC= 1.36D-13 BMatP= 7.51D-13
 IDIUse=1 WtCom= 1.00D+00 WtEn= 0.00D+00
 Coeff-Com: -0.939D-06 0.125D-05-0.483D-07 0.181D-05 0.922D-06 0.344D-05
 Coeff-Com:  0.500D-04 0.102D-05-0.637D-03-0.111D-02 0.260D-02 0.101D-01
 Coeff-Com:  0.261D-02-0.593D-01-0.847D-01 0.268D+00 0.862D+00
 Coeff:     -0.939D-06 0.125D-05-0.483D-07 0.181D-05 0.922D-06 0.344D-05
 Coeff:      0.500D-04 0.102D-05-0.637D-03-0.111D-02 0.260D-02 0.101D-01
 Coeff:      0.261D-02-0.593D-01-0.847D-01 0.268D+00 0.862D+00
 Gap=     0.248 Goal=   None    Shift=    0.000
 RMSDP=1.67D-08 MaxDP=8.72D-07 DE= 2.73D-12 OVMax= 6.26D-07

 Cycle  18  Pass 1  IDiag  1:
 RMSU=  5.61D-09    CP:  4.64D-01  2.29D+00  2.19D+00  7.81D-01  9.18D-01
                    CP:  8.07D-01  1.31D+00  1.28D+00  1.14D+00  1.48D+00
                    CP:  1.71D+00  1.40D+00  2.42D+00  1.78D+00  1.74D+00
                    CP:  1.67D+00  1.29D+00
 E= -3010.52736441225     Delta-E=        0.000000000010 Rises=F Damp=F
 DIIS: error= 1.02D-08 at cycle  18 NSaved=  18.
 NSaved=18 IEnMin=16 EnMin= -3010.52736441226     IErMin=18 ErrMin= 1.02D-08
 ErrMax= 1.02D-08  0.00D+00 EMaxC= 1.00D-01 BMatC= 4.12D-14 BMatP= 1.36D-13
 IDIUse=1 WtCom= 1.00D+00 WtEn= 0.00D+00
 Coeff-Com: -0.112D-06 0.151D-06-0.260D-06-0.135D-05-0.815D-05-0.166D-04
 Coeff-Com: -0.164D-04 0.109D-03 0.279D-03-0.190D-03-0.361D-02 0.302D-02
 Coeff-Com:  0.231D-01-0.650D-02-0.103D+00-0.994D-01 0.419D+00 0.767D+00
 Coeff:     -0.112D-06 0.151D-06-0.260D-06-0.135D-05-0.815D-05-0.166D-04
 Coeff:     -0.164D-04 0.109D-03 0.279D-03-0.190D-03-0.361D-02 0.302D-02
 Coeff:      0.231D-01-0.650D-02-0.103D+00-0.994D-01 0.419D+00 0.767D+00
 Gap=     0.248 Goal=   None    Shift=    0.000
 RMSDP=1.28D-08 MaxDP=1.47D-06 DE= 1.00D-11 OVMax= 2.77D-07

 Cycle  19  Pass 1  IDiag  1:
 RMSU=  2.04D-09    CP:  4.64D-01  2.29D+00  2.19D+00  7.81D-01  9.18D-01
                    CP:  8.07D-01  1.31D+00  1.28D+00  1.14D+00  1.48D+00
                    CP:  1.71D+00  1.40D+00  2.43D+00  1.78D+00  1.78D+00
                    CP:  1.83D+00  1.52D+00  1.06D+00
 E= -3010.52736441230     Delta-E=       -0.000000000054 Rises=F Damp=F
 DIIS: error= 2.14D-09 at cycle  19 NSaved=  19.
 NSaved=19 IEnMin=19 EnMin= -3010.52736441230     IErMin=19 ErrMin= 2.14D-09
 ErrMax= 2.14D-09  0.00D+00 EMaxC= 1.00D-01 BMatC= 2.79D-15 BMatP= 4.12D-14
 IDIUse=1 WtCom= 1.00D+00 WtEn= 0.00D+00
 Large coefficients: NSaved= 19 BigCof=    0.00 CofMax=   10.00 Det=-6.18D-15
 Inversion failed.  Reducing to 18 matrices.
 Large coefficients: NSaved= 18 BigCof=    0.00 CofMax=   10.00 Det=-6.26D-15
 Inversion failed.  Reducing to 17 matrices.
 Coeff-Com: -0.409D-07-0.142D-06-0.142D-06-0.898D-06-0.574D-05 0.993D-06
 Coeff-Com:  0.708D-04 0.136D-03-0.691D-03-0.663D-03 0.935D-03 0.723D-02
 Coeff-Com: -0.163D-02-0.268D-01-0.840D-01 0.723D-01 0.103D+01
 Coeff:     -0.409D-07-0.142D-06-0.142D-06-0.898D-06-0.574D-05 0.993D-06
 Coeff:      0.708D-04 0.136D-03-0.691D-03-0.663D-03 0.935D-03 0.723D-02
 Coeff:     -0.163D-02-0.268D-01-0.840D-01 0.723D-01 0.103D+01
 Gap=     0.248 Goal=   None    Shift=    0.000
 RMSDP=2.63D-09 MaxDP=1.71D-07 DE=-5.37D-11 OVMax= 9.24D-08

 SCF Done:  E(RwB97XD) =  -3010.52736441     A.U. after   19 cycles
            NFock= 19  Conv=0.26D-08     -V/T= 2.0016
 KE= 3.005866893961D+03 PE=-8.705815936332D+03 EE= 1.910706262364D+03
 Leave Link  502 at Thu May  2 14:17:50 2024, MaxMem=   134217728 cpu:            1154.5 elap:            1154.7
 (Enter /software/gaussian/g16-c01/sse4/g16/l601.exe)
 Copying SCF densities to generalized density rwf, IOpCl= 0 IROHF=0.

 **********************************************************************

            Population analysis using the SCF Density.

 **********************************************************************

 Alpha  occ. eigenvalues -- -483.35815 -62.90846 -56.70531 -56.69973 -56.69964
 Alpha  occ. eigenvalues --  -19.54733 -19.54648 -14.93906 -10.64071 -10.62827
 Alpha  occ. eigenvalues --  -10.61027 -10.60438 -10.58690 -10.55739  -9.06659
 Alpha  occ. eigenvalues --   -6.89316  -6.87481  -6.87456  -2.99225  -2.98740
 Alpha  occ. eigenvalues --   -2.98720  -2.97251  -2.97251  -1.58327  -1.41375
 Alpha  occ. eigenvalues --   -1.27087  -1.17599  -1.17046  -1.09528  -1.05584
 Alpha  occ. eigenvalues --   -0.99571  -0.95452  -0.91702  -0.88425  -0.86814
 Alpha  occ. eigenvalues --   -0.85355  -0.82850  -0.81660  -0.80210  -0.76330
 Alpha  occ. eigenvalues --   -0.71852  -0.71557  -0.67556  -0.66049  -0.65437
 Alpha  occ. eigenvalues --   -0.64586  -0.64112  -0.61089  -0.59466
 Alpha virt. eigenvalues --   -0.34694  -0.27048  -0.20420  -0.17984  -0.13992
 Alpha virt. eigenvalues --   -0.11164  -0.10654  -0.10026  -0.08705  -0.07109
 Alpha virt. eigenvalues --   -0.06698  -0.05936  -0.05826  -0.05121  -0.04316
 Alpha virt. eigenvalues --   -0.03920  -0.02873  -0.02393  -0.01788  -0.01255
 Alpha virt. eigenvalues --   -0.00582   0.00627   0.00788   0.02242   0.02448
 Alpha virt. eigenvalues --    0.02841   0.03499   0.03889   0.04189   0.05147
 Alpha virt. eigenvalues --    0.05432   0.06115   0.06983   0.07419   0.07957
 Alpha virt. eigenvalues --    0.08232   0.09092   0.09280   0.10304   0.11538
 Alpha virt. eigenvalues --    0.12388   0.13458   0.13514   0.14054   0.15067
 Alpha virt. eigenvalues --    0.15677   0.15859   0.16944   0.17427   0.18308
 Alpha virt. eigenvalues --    0.19043   0.20057   0.21625   0.22797   0.23956
 Alpha virt. eigenvalues --    0.26432   0.26698   0.26952   0.29266   0.29837
 Alpha virt. eigenvalues --    0.32782   0.33137   0.35802   0.36089   0.38022
 Alpha virt. eigenvalues --    0.39890   0.39975   0.40837   0.41858   0.42965
 Alpha virt. eigenvalues --    0.44235   0.44290   0.46120   0.47495   0.48732
 Alpha virt. eigenvalues --    0.50813   0.51890   0.53184   0.54349   0.55837
 Alpha virt. eigenvalues --    0.58331   0.59099   0.59553   0.62941   0.65150
 Alpha virt. eigenvalues --    0.66994   0.67626   0.68506   0.70402   0.71329
 Alpha virt. eigenvalues --    0.71951   0.73257   0.73618   0.78145   0.78774
 Alpha virt. eigenvalues --    0.81677   0.82805   0.85766   0.89597   0.91337
 Alpha virt. eigenvalues --    0.92717   0.96239   0.98696   1.00550   1.01546
 Alpha virt. eigenvalues --    1.02276   1.05024   1.05717   1.06769   1.11156
 Alpha virt. eigenvalues --    1.13677   1.14960   1.23320   1.29017   1.32157
 Alpha virt. eigenvalues --    1.32775   1.34297   1.38828   1.49334   1.50297
 Alpha virt. eigenvalues --    1.52515   1.52761   1.56732   1.59094   1.61525
 Alpha virt. eigenvalues --    1.62788   1.66510   1.67088   1.71521   1.75050
 Alpha virt. eigenvalues --    1.80471   1.81221   1.82398   1.89952   1.91248
 Alpha virt. eigenvalues --    1.91861   1.96855   1.97922   2.02385   2.04461
 Alpha virt. eigenvalues --    2.08418   2.10441   2.17060   2.18768   2.24344
 Alpha virt. eigenvalues --    2.29401   2.34345   2.35769   2.39537   2.49255
 Alpha virt. eigenvalues --    2.54011   2.58272   2.61823   2.62995   2.64587
 Alpha virt. eigenvalues --    2.66820   2.68398   2.72308   2.72528   2.77638
 Alpha virt. eigenvalues --    2.88491   2.91929   2.95141   3.00855   3.04386
 Alpha virt. eigenvalues --    3.10042   3.12453   3.14353   3.14961   3.18146
 Alpha virt. eigenvalues --    3.23052   3.31487   3.43429   3.44836   3.46792
 Alpha virt. eigenvalues --    3.52198   3.60676   3.65969   3.79513   3.83063
 Alpha virt. eigenvalues --    4.05330   4.06190   4.14720   4.18903   4.36162
 Alpha virt. eigenvalues --    4.39083   4.49532   4.53283   4.84776   4.87548
 Alpha virt. eigenvalues --    4.96420   5.00904   5.53586   6.06448   6.63376
 Alpha virt. eigenvalues --    7.44218   7.46536   7.56686  23.18177  23.57103
 Alpha virt. eigenvalues --   23.67302  23.74436  23.92214  23.97502  35.23274
 Alpha virt. eigenvalues --   47.89499  49.76734  49.85396 289.77150 289.79490
 Alpha virt. eigenvalues --  289.921181020.90695
          Condensed to atoms (all electrons):
               1          2          3          4          5          6
     1  C    7.032091  -1.868341   0.560841   0.035380   0.292170   0.058045
     2  C   -1.868341  16.257204  -3.602864   0.472269  -0.026359   0.227734
     3  C    0.560841  -3.602864  18.426565  -0.990636   0.023676   0.104715
     4  C    0.035380   0.472269  -0.990636   6.213084   0.033399  -0.018755
     5  H    0.292170  -0.026359   0.023676   0.033399   0.300532  -0.001582
     6  H    0.058045   0.227734   0.104715  -0.018755  -0.001582   0.329077
     7  H    0.021444  -0.016676   0.011686   0.302149  -0.001985   0.000006
     8  N   -0.038082  -0.136766  -1.765395   0.000825  -0.000460  -0.031589
     9  O   -0.007135   0.290925  -0.038332  -0.008461  -0.000022  -0.002201
    10  O    0.197173  -0.200311  -0.249236  -0.022600  -0.000042   0.016187
    11  C    0.494810  -0.711649   1.275948  -0.090775  -0.022359   0.010408
    12  H   -0.012071   0.019756   0.000462   0.031130   0.000044  -0.000015
    13  C   -0.653658  -4.734213  -7.436169   0.367793   0.023605  -0.025138
    14  H   -0.000395   0.044112   0.161117  -0.002260  -0.000031   0.000085
    15  Br   0.015311  -0.196629  -0.338199  -0.003536   0.000020  -0.000839
               7          8          9         10         11         12
     1  C    0.021444  -0.038082  -0.007135   0.197173   0.494810  -0.012071
     2  C   -0.016676  -0.136766   0.290925  -0.200311  -0.711649   0.019756
     3  C    0.011686  -1.765395  -0.038332  -0.249236   1.275948   0.000462
     4  C    0.302149   0.000825  -0.008461  -0.022600  -0.090775   0.031130
     5  H   -0.001985  -0.000460  -0.000022  -0.000042  -0.022359   0.000044
     6  H    0.000006  -0.031589  -0.002201   0.016187   0.010408  -0.000015
     7  H    0.284039   0.000123  -0.000005   0.000003   0.023769  -0.001761
     8  N    0.000123   7.404149   0.161116   0.276316  -0.089836  -0.000133
     9  O   -0.000005   0.161116   7.908284  -0.021418   0.160252   0.000145
    10  O    0.000003   0.276316  -0.021418   7.852309   0.012972  -0.000022
    11  C    0.023769  -0.089836   0.160252   0.012972   7.044197   0.315994
    12  H   -0.001761  -0.000133   0.000145  -0.000022   0.315994   0.287880
    13  C   -0.014652   1.330278  -0.432450   0.130162  -2.270336  -0.031174
    14  H   -0.000016  -0.044236   0.012502  -0.001812  -0.047870  -0.003751
    15  Br  -0.000439   0.170266  -0.058487   0.006192   0.053331   0.003508
              13         14         15
     1  C   -0.653658  -0.000395   0.015311
     2  C   -4.734213   0.044112  -0.196629
     3  C   -7.436169   0.161117  -0.338199
     4  C    0.367793  -0.002260  -0.003536
     5  H    0.023605  -0.000031   0.000020
     6  H   -0.025138   0.000085  -0.000839
     7  H   -0.014652  -0.000016  -0.000439
     8  N    1.330278  -0.044236   0.170266
     9  O   -0.432450   0.012502  -0.058487
    10  O    0.130162  -0.001812   0.006192
    11  C   -2.270336  -0.047870   0.053331
    12  H   -0.031174  -0.003751   0.003508
    13  C   19.331634   0.186506   0.510049
    14  H    0.186506   0.350597  -0.049231
    15  Br   0.510049  -0.049231  34.731733
 Mulliken charges:
               1
     1  C   -0.127583
     2  C    0.181809
     3  C   -0.144179
     4  C   -0.319006
     5  H    0.379396
     6  H    0.333861
     7  H    0.392315
     8  N   -0.236575
     9  O    0.035288
    10  O    0.004126
    11  C   -0.158855
    12  H    0.390007
    13  C   -0.282238
    14  H    0.394684
    15  Br   0.156950
 Sum of Mulliken charges =   1.00000
 Mulliken charges with hydrogens summed into heavy atoms:
               1
     1  C    0.251812
     2  C    0.515670
     3  C   -0.144179
     4  C    0.073309
     8  N   -0.236575
     9  O    0.035288
    10  O    0.004126
    11  C    0.231152
    13  C    0.112446
    15  Br   0.156950
 Electronic spatial extent (au):  <R**2>=           3958.1659
 Charge=              1.0000 electrons
 Dipole moment (field-independent basis, Debye):
    X=             -1.0924    Y=             -0.7103    Z=             -0.5645  Tot=              1.4201
 Quadrupole moment (field-independent basis, Debye-Ang):
   XX=            -83.3223   YY=            -51.4260   ZZ=            -62.6040
   XY=             -1.9867   XZ=             -1.4938   YZ=              2.0145
 Traceless Quadrupole moment (field-independent basis, Debye-Ang):
   XX=            -17.5382   YY=             14.3581   ZZ=              3.1801
   XY=             -1.9867   XZ=             -1.4938   YZ=              2.0145
 Octapole moment (field-independent basis, Debye-Ang**2):
  XXX=           -592.7195  YYY=             93.5714  ZZZ=             84.2441  XYY=           -145.5998
  XXY=             27.1094  XXZ=             29.1696  XZZ=           -137.5576  YZZ=             18.3368
  YYZ=             26.7234  XYZ=              5.7141
 Hexadecapole moment (field-independent basis, Debye-Ang**3):
 XXXX=          -3847.6779 YYYY=           -703.8258 ZZZZ=           -398.8276 XXXY=            184.8535
 XXXZ=            195.3144 YYYX=            192.0550 YYYZ=           -174.9908 ZZZX=            174.6397
 ZZZY=           -147.3089 XXYY=           -660.8569 XXZZ=           -545.4097 YYZZ=           -174.0897
 XXYZ=            -49.0968 YYXZ=             55.0105 ZZXY=             34.8717
 N-N= 7.787154155943D+02 E-N=-8.705815936066D+03  KE= 3.005866893961D+03
 No NMR shielding tensors so no spin-rotation constants.
 Leave Link  601 at Thu May  2 14:17:58 2024, MaxMem=   134217728 cpu:               7.4 elap:               7.4
 (Enter /software/gaussian/g16-c01/sse4/g16/l9999.exe)
 Unable to Open any file for archive entry.
 1\1\GINC-BHX0007\SP\RwB97XD\6-311+G(d)\C6H5Br1N1O2(1+)\BWEIGHT\02-May-
 2024\0\\#P wB97XD/6-311+G* NoSymm #P Field=X+136\\TitleMe\\1,1\C,0,0.5
 193,1.233,-0.0319\C,0,1.9445,1.2692,-0.0367\C,0,2.6204,0.0928,-0.025\C
 ,0,-0.196,0.0301,0.001\H,0,-0.0207,2.1742,-0.0434\H,0,2.4828,2.2089,-0
 .0361\H,0,-1.2777,0.0399,0.0117\N,0,4.0921,0.0959,0.0366\O,0,4.6393,-1
 .0217,0.1446\O,0,4.6649,1.1984,-0.0233\C,0,0.4943,-1.1671,0.021\H,0,-0
 .0325,-2.1149,0.0545\C,0,1.9629,-1.2165,-0.0211\H,0,2.4436,-1.9631,0.6
 151\Br,0,2.173,-1.9491,-1.9062\\Version=ES64L-G16RevC.01\HF=-3010.5273
 644\RMSD=2.631e-09\Dipole=-4.7590075,0.9486876,1.0271092\Quadrupole=-1
 3.0392261,10.6748686,2.3643575,-1.4770698,-1.1105845,1.497756\PG=C01 [
 X(C6H5Br1N1O2)]\\@
 The archive entry for this job was punched.


 IT IS BETTER TO THINK YOU ARE HALF DRY THAN TO KNOW YOU
 ARE ALL WET.  -- SNOOPY
 Job cpu time:       0 days  0 hours 20 minutes 24.5 seconds.
 Elapsed time:       0 days  0 hours 20 minutes 25.0 seconds.
 File lengths (MBytes):  RWF=     40 Int=      0 D2E=      0 Chk=     32 Scr=      1
 Normal termination of Gaussian 16 at Thu May  2 14:17:59 2024.
