 Entering Gaussian System, Link 0=g16
 Initial command:
 /software/gaussian/g16-c01/sse4/g16/l1.exe "/local_scratch/24657450/Gau-17773.inp" -scrdir="/local_scratch/24657450/"
 Entering Link 1 = /software/gaussian/g16-c01/sse4/g16/l1.exe PID=     17774.
  
 Copyright (c) 1988-2019, Gaussian, Inc.  All Rights Reserved.
  
 This is part of the Gaussian(R) 16 program.  It is based on
 the Gaussian(R) 09 system (copyright 2009, Gaussian, Inc.),
 the Gaussian(R) 03 system (copyright 2003, Gaussian, Inc.),
 the Gaussian(R) 98 system (copyright 1998, Gaussian, Inc.),
 the Gaussian(R) 94 system (copyright 1995, Gaussian, Inc.),
 the Gaussian 92(TM) system (copyright 1992, Gaussian, Inc.),
 the Gaussian 90(TM) system (copyright 1990, Gaussian, Inc.),
 the Gaussian 88(TM) system (copyright 1988, Gaussian, Inc.),
 the Gaussian 86(TM) system (copyright 1986, Carnegie Mellon
 University), and the Gaussian 82(TM) system (copyright 1983,
 Carnegie Mellon University). Gaussian is a federally registered
 trademark of Gaussian, Inc.
  
 This software contains proprietary and confidential information,
 including trade secrets, belonging to Gaussian, Inc.
  
 This software is provided under written license and may be
 used, copied, transmitted, or stored only in accord with that
 written license.
  
 The following legend is applicable only to US Government
 contracts under FAR:
  
                    RESTRICTED RIGHTS LEGEND
  
 Use, reproduction and disclosure by the US Government is
 subject to restrictions as set forth in subparagraphs (a)
 and (c) of the Commercial Computer Software - Restricted
 Rights clause in FAR 52.227-19.
  
 Gaussian, Inc.
 340 Quinnipiac St., Bldg. 40, Wallingford CT 06492
  
  
 ---------------------------------------------------------------
 Warning -- This program may not be used in any manner that
 competes with the business of Gaussian, Inc. or will provide
 assistance to any competitor of Gaussian, Inc.  The licensee
 of this program is prohibited from giving any competitor of
 Gaussian, Inc. access to this program.  By using this program,
 the user acknowledges that Gaussian, Inc. is engaged in the
 business of creating and licensing software in the field of
 computational chemistry and represents and warrants to the
 licensee that it is not a competitor of Gaussian, Inc. and that
 it will not use this program in any manner prohibited above.
 ---------------------------------------------------------------
  

 Cite this work as:
 Gaussian 16, Revision C.01,
 M. J. Frisch, G. W. Trucks, H. B. Schlegel, G. E. Scuseria, 
 M. A. Robb, J. R. Cheeseman, G. Scalmani, V. Barone, 
 G. A. Petersson, H. Nakatsuji, X. Li, M. Caricato, A. V. Marenich, 
 J. Bloino, B. G. Janesko, R. Gomperts, B. Mennucci, H. P. Hratchian, 
 J. V. Ortiz, A. F. Izmaylov, J. L. Sonnenberg, D. Williams-Young, 
 F. Ding, F. Lipparini, F. Egidi, J. Goings, B. Peng, A. Petrone, 
 T. Henderson, D. Ranasinghe, V. G. Zakrzewski, J. Gao, N. Rega, 
 G. Zheng, W. Liang, M. Hada, M. Ehara, K. Toyota, R. Fukuda, 
 J. Hasegawa, M. Ishida, T. Nakajima, Y. Honda, O. Kitao, H. Nakai, 
 T. Vreven, K. Throssell, J. A. Montgomery, Jr., J. E. Peralta, 
 F. Ogliaro, M. J. Bearpark, J. J. Heyd, E. N. Brothers, K. N. Kudin, 
 V. N. Staroverov, T. A. Keith, R. Kobayashi, J. Normand, 
 K. Raghavachari, A. P. Rendell, J. C. Burant, S. S. Iyengar, 
 J. Tomasi, M. Cossi, J. M. Millam, M. Klene, C. Adamo, R. Cammi, 
 J. W. Ochterski, R. L. Martin, K. Morokuma, O. Farkas, 
 J. B. Foresman, and D. J. Fox, Gaussian, Inc., Wallingford CT, 2019.
 
 ******************************************
 Gaussian 16:  ES64L-G16RevC.01  3-Jul-2019
                 1-May-2024 
 ******************************************
 %chk=geometry.chk
 %mem=9GB
 %nprocshared=12
 Will use up to   12 processors via shared memory.
 ---------------------------------------
 #P wB97XD/6-311+G* NoSymm #P Field=X+87
 ---------------------------------------
 1/38=1,172=1/1;
 2/12=2,15=1,17=6,18=5,40=1/2;
 3/5=4,6=6,7=11,11=2,14=1,15=87,25=1,30=1,74=-58/1,2,3;
 4//1;
 5/5=2,38=5/2;
 6/7=2,8=2,9=2,10=2,28=1/1;
 99/5=1,9=1/99;
 Leave Link    1 at Wed May  1 14:27:46 2024, MaxMem=  1207959552 cpu:               1.0 elap:               1.1
 (Enter /software/gaussian/g16-c01/sse4/g16/l101.exe)
 -------
 TitleMe
 -------
 Symbolic Z-matrix:
 Charge =  1 Multiplicity = 1
 C                     0.0295    1.3397    0.0682 
 C                     1.4348    1.2867    0.0064 
 C                     2.1118    0.0511   -0.0054 
 C                     1.4451   -1.1372    0.0312 
 C                    -0.6879    0.1682    0.11 
 H                    -0.4713    2.2984    0.0781 
 H                     2.0273    2.1965   -0.0322 
 H                     1.9897   -2.0764    0.0232 
 H                    -1.7716    0.1804    0.1582 
 N                     3.5864    0.051    -0.0675 
 O                     4.1471   -1.0597   -0.0881 
 O                     4.145     1.1639   -0.0901 
 C                    -0.0236   -1.1458    0.0835 
 H                    -0.4367   -1.8725    0.7889 
 Br                   -0.5359   -1.8697   -1.7408 
 
 ITRead=  0  0  0  0  0  0  0  0  0  0  0  0  0  0  0
 MicOpt= -1 -1 -1 -1 -1 -1 -1 -1 -1 -1 -1 -1 -1 -1 -1
 NAtoms=     15 NQM=       15 NQMF=       0 NMMI=      0 NMMIF=      0
                NMic=       0 NMicF=      0.
                    Isotopes and Nuclear Properties:
 (Nuclear quadrupole moments (NQMom) in fm**2, nuclear magnetic moments (NMagM)
  in nuclear magnetons)

  Atom         1           2           3           4           5           6           7           8           9          10
 IAtWgt=          12          12          12          12          12           1           1           1           1          14
 AtmWgt=  12.0000000  12.0000000  12.0000000  12.0000000  12.0000000   1.0078250   1.0078250   1.0078250   1.0078250  14.0030740
 NucSpn=           0           0           0           0           0           1           1           1           1           2
 AtZEff=  -0.0000000  -0.0000000  -0.0000000  -0.0000000  -0.0000000  -0.0000000  -0.0000000  -0.0000000  -0.0000000  -0.0000000
 NQMom=    0.0000000   0.0000000   0.0000000   0.0000000   0.0000000   0.0000000   0.0000000   0.0000000   0.0000000   2.0440000
 NMagM=    0.0000000   0.0000000   0.0000000   0.0000000   0.0000000   2.7928460   2.7928460   2.7928460   2.7928460   0.4037610
 AtZNuc=   6.0000000   6.0000000   6.0000000   6.0000000   6.0000000   1.0000000   1.0000000   1.0000000   1.0000000   7.0000000

  Atom        11          12          13          14          15
 IAtWgt=          16          16          12           1          79
 AtmWgt=  15.9949146  15.9949146  12.0000000   1.0078250  78.9183361
 NucSpn=           0           0           0           1           3
 AtZEff=  -0.0000000  -0.0000000  -0.0000000  -0.0000000  -0.0000000
 NQMom=    0.0000000   0.0000000   0.0000000   0.0000000  31.3000000
 NMagM=    0.0000000   0.0000000   0.0000000   2.7928460   2.1063990
 AtZNuc=   8.0000000   8.0000000   6.0000000   1.0000000  35.0000000
 Leave Link  101 at Wed May  1 14:27:48 2024, MaxMem=  1207959552 cpu:               1.4 elap:               1.4
 (Enter /software/gaussian/g16-c01/sse4/g16/l202.exe)
                          Input orientation:                          
 ---------------------------------------------------------------------
 Center     Atomic      Atomic             Coordinates (Angstroms)
 Number     Number       Type             X           Y           Z
 ---------------------------------------------------------------------
      1          6           0        0.029500    1.339700    0.068200
      2          6           0        1.434800    1.286700    0.006400
      3          6           0        2.111800    0.051100   -0.005400
      4          6           0        1.445100   -1.137200    0.031200
      5          6           0       -0.687900    0.168200    0.110000
      6          1           0       -0.471300    2.298400    0.078100
      7          1           0        2.027300    2.196500   -0.032200
      8          1           0        1.989700   -2.076400    0.023200
      9          1           0       -1.771600    0.180400    0.158200
     10          7           0        3.586400    0.051000   -0.067500
     11          8           0        4.147100   -1.059700   -0.088100
     12          8           0        4.145000    1.163900   -0.090100
     13          6           0       -0.023600   -1.145800    0.083500
     14          1           0       -0.436700   -1.872500    0.788900
     15         35           0       -0.535900   -1.869700   -1.740800
 ---------------------------------------------------------------------
                    Distance matrix (angstroms):
                    1          2          3          4          5
     1  C    0.000000
     2  C    1.407656   0.000000
     3  C    2.449874   1.408963   0.000000
     4  C    2.853126   2.424049   1.363043   0.000000
     5  C    1.374344   2.401589   2.804523   2.501993   0.000000
     6  H    1.081667   2.159142   3.424870   3.934226   2.141421
     7  H    2.176095   1.086408   2.147231   3.384750   3.392128
     8  H    3.938800   3.408612   2.131193   1.085702   3.495040
     9  H    2.143837   3.395283   3.888995   3.478413   1.084840
    10  N    3.785591   2.482297   1.475907   2.450862   4.279589
    11  O    4.768247   3.587631   2.320164   2.705743   4.992415
    12  O    4.122294   2.714696   2.319353   3.549540   4.938459
    13  C    2.486114   2.837240   2.449573   1.469656   1.472614
    14  H    3.324903   3.754379   3.290289   2.157764   2.165286
    15  Br   3.727252   4.110867   3.702891   2.756973   2.757100
                    6          7          8          9         10
     6  H    0.000000
     7  H    2.503108   0.000000
     8  H    5.019802   4.273425   0.000000
     9  H    2.486588   4.304945   4.388479   0.000000
    10  N    4.640790   2.652397   2.661486   5.364313   0.000000
    11  O    5.712624   3.885809   2.387560   6.052233   1.244373
    12  O    4.756638   2.356750   3.893289   6.002923   1.245428
    13  C    3.473180   3.923079   2.218790   2.195425   3.806210
    14  H    4.231175   4.827242   2.552506   2.528663   4.540772
    15  Br   4.548146   5.101303   3.087568   3.055498   4.845862
                   11         12         13         14         15
    11  O    0.000000
    12  O    2.223602   0.000000
    13  C    4.175117   4.768865   0.000000
    14  H    4.737193   5.566358   1.093770   0.000000
    15  Br   5.031700   5.817075   2.028436   2.531646   0.000000
 Symmetry turned off by external request.
 Stoichiometry    C6H5BrNO2(1+)
 Framework group  C1[X(C6H5BrNO2)]
 Deg. of freedom    39
 Full point group                 C1      NOp   1
 Rotational constants (GHZ):           1.8252210           0.5518633           0.4576002
 Leave Link  202 at Wed May  1 14:27:49 2024, MaxMem=  1207959552 cpu:               1.1 elap:               1.1
 (Enter /software/gaussian/g16-c01/sse4/g16/l301.exe)
 Standard basis: 6-311+G(d) (5D, 7F)
 Ernie: Thresh=  0.10000D-02 Tol=  0.10000D-05 Strict=F.
 The following finite field(s) will be applied:
 An electric field of              0.0087  0.0000  0.0000
   261 basis functions,   443 primitive gaussians,   273 cartesian basis functions
    49 alpha electrons       49 beta electrons
       nuclear repulsion energy       739.2122215416 Hartrees.
 IExCor= 4639 DFT=T Ex+Corr=wB97XD ExCW=0 ScaHFX=  1.000000
 ScaDFX=  1.000000  1.000000  1.000000  1.000000 ScalE2=  1.000000  1.000000
 IRadAn=      5 IRanWt=     -1 IRanGd=            0 ICorTp=0 IEmpDi=121
 HFx  wShort=  0.000000 wLong=  0.200000 cFull=  0.222036 cShort=  0.000000 cLong=  0.777964
 DFx  wShort=  0.000000 wLong=  0.200000 cFull=  0.000000 cShort=  0.000000 cLong=  1.000000
 NAtoms=   15 NActive=   15 NUniq=   15 SFac= 1.00D+00 NAtFMM=   60 NAOKFM=F Big=F
 Integral buffers will be    131072 words long.
 Raffenetti 2 integral format.
 Two-electron integral symmetry is turned off.
 R6Disp:  Grimme-D2 Dispersion energy=       -0.0077368520 Hartrees.
 Nuclear repulsion after empirical dispersion term =      739.2044846896 Hartrees.
 Leave Link  301 at Wed May  1 14:27:50 2024, MaxMem=  1207959552 cpu:               1.1 elap:               1.1
 (Enter /software/gaussian/g16-c01/sse4/g16/l302.exe)
 NPDir=0 NMtPBC=     1 NCelOv=     1 NCel=       1 NClECP=     1 NCelD=      1
         NCelK=      1 NCelE2=     1 NClLst=     1 CellRange=     0.0.
 One-electron integrals computed using PRISM.
 NBasis=   261 RedAO= T EigKep=  2.35D-06  NBF=   261
 NBsUse=   261 1.00D-06 EigRej= -1.00D+00 NBFU=   261
 Precomputing XC quadrature grid using
 IXCGrd= 4 IRadAn=           5 IRanWt=          -1 IRanGd=           0 AccXCQ= 0.00D+00.
 Generated NRdTot=       0 NPtTot=           0 NUsed=           0 NTot=          32
 NSgBfM=   273   273   273   273   273 MxSgAt=    15 MxSgA2=    15.
 Leave Link  302 at Wed May  1 14:28:12 2024, MaxMem=  1207959552 cpu:              21.5 elap:              21.5
 (Enter /software/gaussian/g16-c01/sse4/g16/l303.exe)
 DipDrv:  MaxL=1.
 The nuclear repulsion energy is now       740.8465850523 hartrees.
 Leave Link  303 at Wed May  1 14:28:15 2024, MaxMem=  1207959552 cpu:               3.2 elap:               3.2
 (Enter /software/gaussian/g16-c01/sse4/g16/l401.exe)
 ExpMin= 3.50D-02 ExpMax= 4.40D+05 ExpMxC= 1.51D+04 IAcc=3 IRadAn=         5 AccDes= 0.00D+00
 Harris functional with IExCor= 4639 and IRadAn=       5 diagonalized for initial guess.
 HarFok:  IExCor= 4639 AccDes= 0.00D+00 IRadAn=         5 IDoV= 1 UseB2=F ITyADJ=14
 ICtDFT=  3500011 ScaDFX=  1.000000  1.000000  1.000000  1.000000
 FoFCou: FMM=F IPFlag=           0 FMFlag=      100000 FMFlg1=           0
         NFxFlg=           0 DoJE=T BraDBF=F KetDBF=T FulRan=T
         wScrn=  0.000000 ICntrl=       500 IOpCl=  0 I1Cent=   200000004 NGrid=           0
         NMat0=    1 NMatS0=      1 NMatT0=    0 NMatD0=    1 NMtDS0=    0 NMtDT0=    0
 Symmetry not used in FoFCou.
 Harris En= -2970.60624651970    
 JPrj=0 DoOrth=F DoCkMO=F.
 Leave Link  401 at Wed May  1 14:28:46 2024, MaxMem=  1207959552 cpu:              30.0 elap:              30.0
 (Enter /software/gaussian/g16-c01/sse4/g16/l502.exe)
 Two-electron integral symmetry not used.
 Closed shell SCF:
 Using DIIS extrapolation, IDIIS=  1040.
 NGot=  1207959552 LenX=  1207804877 LenY=  1207729907
 Requested convergence on RMS density matrix=1.00D-08 within 128 cycles.
 Requested convergence on MAX density matrix=1.00D-06.
 Requested convergence on             energy=1.00D-06.
 No special actions if energy rises.
 Fock matrices will be formed incrementally for  20 cycles.

 Cycle   1  Pass 1  IDiag  1:
 FoFJK:  IHMeth= 1 ICntrl=       0 DoSepK=T KAlg= 0 I1Cent=           0 FoldK=F
 IRaf=         1 NMat=       1 IRICut=       1 DoRegI=T DoRafI=F ISym2E= 0 IDoP0=0 IntGTp=1.
 FoFCou: FMM=F IPFlag=           0 FMFlag=      100000 FMFlg1=           0
         NFxFlg=           0 DoJE=T BraDBF=F KetDBF=F FulRan=T
         wScrn=  0.000000 ICntrl=       500 IOpCl=  0 I1Cent=           0 NGrid=           0
         NMat0=    1 NMatS0=      1 NMatT0=    0 NMatD0=    1 NMtDS0=    0 NMtDT0=    0
 Symmetry not used in FoFCou.
 E= -3009.73470963810    
 DIIS: error= 3.20D-01 at cycle   1 NSaved=   1.
 NSaved= 1 IEnMin= 1 EnMin= -3009.73470963810     IErMin= 1 ErrMin= 3.20D-01
 ErrMax= 3.20D-01  0.00D+00 EMaxC= 1.00D-01 BMatC= 1.19D+01 BMatP= 1.19D+01
 IDIUse=3 WtCom= 0.00D+00 WtEn= 1.00D+00
 Coeff-Com:  0.100D+01
 Coeff-En:   0.100D+01
 Coeff:      0.100D+01
 Gap=     0.286 Goal=   None    Shift=    0.000
 GapD=    0.286 DampG=1.000 DampE=0.250 DampFc=0.2500 IDamp=-1.
 Damping current iteration by 2.50D-01
 RMSDP=4.71D-02 MaxDP=4.49D+00              OVMax= 2.61D-01

 Cycle   2  Pass 1  IDiag  1:
 RMSU=  4.12D-03    CP:  8.85D-01
 E= -3010.01686114170     Delta-E=       -0.282151503603 Rises=F Damp=T
 DIIS: error= 2.25D-01 at cycle   2 NSaved=   2.
 NSaved= 2 IEnMin= 2 EnMin= -3010.01686114170     IErMin= 2 ErrMin= 2.25D-01
 ErrMax= 2.25D-01  0.00D+00 EMaxC= 1.00D-01 BMatC= 5.45D+00 BMatP= 1.19D+01
 IDIUse=3 WtCom= 0.00D+00 WtEn= 1.00D+00
 Coeff-Com: -0.183D+01 0.283D+01
 Coeff-En:   0.000D+00 0.100D+01
 Coeff:      0.000D+00 0.100D+01
 Gap=     0.288 Goal=   None    Shift=    0.000
 RMSDP=3.67D-02 MaxDP=3.44D+00 DE=-2.82D-01 OVMax= 6.99D-02

 Cycle   3  Pass 1  IDiag  1:
 RMSU=  4.24D-03    CP:  5.19D-01  3.00D+00
 E= -3010.39246517856     Delta-E=       -0.375604036858 Rises=F Damp=F
 DIIS: error= 6.59D-02 at cycle   3 NSaved=   3.
 NSaved= 3 IEnMin= 3 EnMin= -3010.39246517856     IErMin= 3 ErrMin= 6.59D-02
 ErrMax= 6.59D-02  0.00D+00 EMaxC= 1.00D-01 BMatC= 7.38D-01 BMatP= 5.45D+00
 IDIUse=3 WtCom= 3.41D-01 WtEn= 6.59D-01
 Coeff-Com:  0.276D+01-0.363D+01 0.187D+01
 Coeff-En:   0.295D-01 0.000D+00 0.971D+00
 Coeff:      0.961D+00-0.124D+01 0.128D+01
 Gap=     0.260 Goal=   None    Shift=    0.000
 RMSDP=7.93D-03 MaxDP=4.47D-01 DE=-3.76D-01 OVMax= 7.25D-02

 Cycle   4  Pass 1  IDiag  1:
 RMSU=  5.06D-03    CP:  5.31D-01  2.35D+00  2.02D+00
 E= -3010.49620600298     Delta-E=       -0.103740824427 Rises=F Damp=F
 DIIS: error= 3.82D-02 at cycle   4 NSaved=   4.
 NSaved= 4 IEnMin= 4 EnMin= -3010.49620600298     IErMin= 4 ErrMin= 3.82D-02
 ErrMax= 3.82D-02  0.00D+00 EMaxC= 1.00D-01 BMatC= 2.30D-01 BMatP= 7.38D-01
 IDIUse=3 WtCom= 6.18D-01 WtEn= 3.82D-01
 Coeff-Com: -0.227D+00 0.316D+00 0.247D+00 0.665D+00
 Coeff-En:   0.000D+00 0.000D+00 0.199D+00 0.801D+00
 Coeff:     -0.140D+00 0.195D+00 0.228D+00 0.717D+00
 Gap=     0.263 Goal=   None    Shift=    0.000
 RMSDP=3.26D-03 MaxDP=2.53D-01 DE=-1.04D-01 OVMax= 2.98D-02

 Cycle   5  Pass 1  IDiag  1:
 RMSU=  1.31D-03    CP:  5.05D-01  2.71D+00  1.89D+00  9.10D-01
 E= -3010.54112264308     Delta-E=       -0.044916640098 Rises=F Damp=F
 DIIS: error= 6.72D-03 at cycle   5 NSaved=   5.
 NSaved= 5 IEnMin= 5 EnMin= -3010.54112264308     IErMin= 5 ErrMin= 6.72D-03
 ErrMax= 6.72D-03  0.00D+00 EMaxC= 1.00D-01 BMatC= 7.02D-03 BMatP= 2.30D-01
 IDIUse=3 WtCom= 9.33D-01 WtEn= 6.72D-02
 Coeff-Com: -0.138D+00 0.187D+00 0.324D-01 0.309D+00 0.610D+00
 Coeff-En:   0.000D+00 0.000D+00 0.000D+00 0.000D+00 0.100D+01
 Coeff:     -0.129D+00 0.174D+00 0.303D-01 0.288D+00 0.636D+00
 Gap=     0.252 Goal=   None    Shift=    0.000
 RMSDP=5.96D-04 MaxDP=4.79D-02 DE=-4.49D-02 OVMax= 1.05D-02

 Cycle   6  Pass 1  IDiag  1:
 RMSU=  4.42D-04    CP:  5.04D-01  2.68D+00  1.90D+00  9.04D-01  7.19D-01
 E= -3010.54253680560     Delta-E=       -0.001414162518 Rises=F Damp=F
 DIIS: error= 9.47D-04 at cycle   6 NSaved=   6.
 NSaved= 6 IEnMin= 6 EnMin= -3010.54253680560     IErMin= 6 ErrMin= 9.47D-04
 ErrMax= 9.47D-04  0.00D+00 EMaxC= 1.00D-01 BMatC= 1.14D-04 BMatP= 7.02D-03
 IDIUse=3 WtCom= 9.91D-01 WtEn= 9.47D-03
 Coeff-Com: -0.801D-01 0.108D+00-0.745D-02 0.129D+00 0.341D+00 0.510D+00
 Coeff-En:   0.000D+00 0.000D+00 0.000D+00 0.000D+00 0.000D+00 0.100D+01
 Coeff:     -0.793D-01 0.106D+00-0.738D-02 0.128D+00 0.338D+00 0.514D+00
 Gap=     0.252 Goal=   None    Shift=    0.000
 RMSDP=1.99D-04 MaxDP=1.23D-02 DE=-1.41D-03 OVMax= 3.26D-03

 Cycle   7  Pass 1  IDiag  1:
 RMSU=  9.03D-05    CP:  5.04D-01  2.68D+00  1.92D+00  9.15D-01  8.11D-01
                    CP:  8.11D-01
 E= -3010.54261825114     Delta-E=       -0.000081445542 Rises=F Damp=F
 DIIS: error= 4.87D-04 at cycle   7 NSaved=   7.
 NSaved= 7 IEnMin= 7 EnMin= -3010.54261825114     IErMin= 7 ErrMin= 4.87D-04
 ErrMax= 4.87D-04  0.00D+00 EMaxC= 1.00D-01 BMatC= 2.13D-05 BMatP= 1.14D-04
 IDIUse=3 WtCom= 9.95D-01 WtEn= 4.87D-03
 Coeff-Com: -0.316D-01 0.421D-01-0.121D-01 0.315D-01 0.104D+00 0.315D+00
 Coeff-Com:  0.551D+00
 Coeff-En:   0.000D+00 0.000D+00 0.000D+00 0.000D+00 0.000D+00 0.382D-01
 Coeff-En:   0.962D+00
 Coeff:     -0.315D-01 0.419D-01-0.121D-01 0.314D-01 0.104D+00 0.314D+00
 Coeff:      0.553D+00
 Gap=     0.253 Goal=   None    Shift=    0.000
 RMSDP=8.17D-05 MaxDP=4.61D-03 DE=-8.14D-05 OVMax= 1.63D-03

 Cycle   8  Pass 1  IDiag  1:
 RMSU=  4.99D-05    CP:  5.04D-01  2.67D+00  1.93D+00  9.22D-01  8.35D-01
                    CP:  8.25D-01  9.38D-01
 E= -3010.54263472969     Delta-E=       -0.000016478550 Rises=F Damp=F
 DIIS: error= 1.29D-04 at cycle   8 NSaved=   8.
 NSaved= 8 IEnMin= 8 EnMin= -3010.54263472969     IErMin= 8 ErrMin= 1.29D-04
 ErrMax= 1.29D-04  0.00D+00 EMaxC= 1.00D-01 BMatC= 2.32D-06 BMatP= 2.13D-05
 IDIUse=3 WtCom= 9.99D-01 WtEn= 1.29D-03
 Coeff-Com:  0.610D-02-0.837D-02-0.284D-02-0.154D-01-0.374D-01-0.341D-02
 Coeff-Com:  0.212D+00 0.849D+00
 Coeff-En:   0.000D+00 0.000D+00 0.000D+00 0.000D+00 0.000D+00 0.000D+00
 Coeff-En:   0.000D+00 0.100D+01
 Coeff:      0.609D-02-0.836D-02-0.284D-02-0.154D-01-0.374D-01-0.341D-02
 Coeff:      0.212D+00 0.850D+00
 Gap=     0.253 Goal=   None    Shift=    0.000
 RMSDP=4.78D-05 MaxDP=3.13D-03 DE=-1.65D-05 OVMax= 7.49D-04

 Cycle   9  Pass 1  IDiag  1:
 RMSU=  1.89D-05    CP:  5.04D-01  2.67D+00  1.93D+00  9.24D-01  8.36D-01
                    CP:  8.85D-01  1.13D+00  1.16D+00
 E= -3010.54263799158     Delta-E=       -0.000003261887 Rises=F Damp=F
 DIIS: error= 2.02D-05 at cycle   9 NSaved=   9.
 NSaved= 9 IEnMin= 9 EnMin= -3010.54263799158     IErMin= 9 ErrMin= 2.02D-05
 ErrMax= 2.02D-05  0.00D+00 EMaxC= 1.00D-01 BMatC= 1.99D-07 BMatP= 2.32D-06
 IDIUse=1 WtCom= 1.00D+00 WtEn= 0.00D+00
 Coeff-Com:  0.669D-02-0.899D-02 0.635D-03-0.984D-02-0.242D-01-0.389D-01
 Coeff-Com: -0.379D-02 0.268D+00 0.811D+00
 Coeff:      0.669D-02-0.899D-02 0.635D-03-0.984D-02-0.242D-01-0.389D-01
 Coeff:     -0.379D-02 0.268D+00 0.811D+00
 Gap=     0.253 Goal=   None    Shift=    0.000
 RMSDP=1.57D-05 MaxDP=7.37D-04 DE=-3.26D-06 OVMax= 4.30D-04

 Cycle  10  Pass 1  IDiag  1:
 RMSU=  7.30D-06    CP:  5.04D-01  2.67D+00  1.93D+00  9.25D-01  8.41D-01
                    CP:  8.96D-01  1.19D+00  1.27D+00  1.13D+00
 E= -3010.54263844807     Delta-E=       -0.000000456494 Rises=F Damp=F
 DIIS: error= 1.69D-05 at cycle  10 NSaved=  10.
 NSaved=10 IEnMin=10 EnMin= -3010.54263844807     IErMin=10 ErrMin= 1.69D-05
 ErrMax= 1.69D-05  0.00D+00 EMaxC= 1.00D-01 BMatC= 5.29D-08 BMatP= 1.99D-07
 IDIUse=1 WtCom= 1.00D+00 WtEn= 0.00D+00
 Coeff-Com:  0.868D-03-0.115D-02 0.328D-03-0.871D-03 0.145D-03-0.577D-02
 Coeff-Com: -0.282D-01-0.493D-01 0.260D+00 0.824D+00
 Coeff:      0.868D-03-0.115D-02 0.328D-03-0.871D-03 0.145D-03-0.577D-02
 Coeff:     -0.282D-01-0.493D-01 0.260D+00 0.824D+00
 Gap=     0.253 Goal=   None    Shift=    0.000
 RMSDP=7.73D-06 MaxDP=5.09D-04 DE=-4.56D-07 OVMax= 1.80D-04

 Cycle  11  Pass 1  IDiag  1:
 RMSU=  3.38D-06    CP:  5.04D-01  2.67D+00  1.93D+00  9.24D-01  8.40D-01
                    CP:  9.03D-01  1.19D+00  1.26D+00  1.28D+00  1.08D+00
 E= -3010.54263853799     Delta-E=       -0.000000089915 Rises=F Damp=F
 DIIS: error= 5.45D-06 at cycle  11 NSaved=  11.
 NSaved=11 IEnMin=11 EnMin= -3010.54263853799     IErMin=11 ErrMin= 5.45D-06
 ErrMax= 5.45D-06  0.00D+00 EMaxC= 1.00D-01 BMatC= 3.62D-09 BMatP= 5.29D-08
 IDIUse=1 WtCom= 1.00D+00 WtEn= 0.00D+00
 Coeff-Com: -0.233D-03 0.312D-03 0.210D-04 0.680D-03 0.264D-02 0.586D-02
 Coeff-Com:  0.343D-02-0.289D-01-0.905D-01-0.349D-01 0.114D+01
 Coeff:     -0.233D-03 0.312D-03 0.210D-04 0.680D-03 0.264D-02 0.586D-02
 Coeff:      0.343D-02-0.289D-01-0.905D-01-0.349D-01 0.114D+01
 Gap=     0.253 Goal=   None    Shift=    0.000
 RMSDP=4.15D-06 MaxDP=2.08D-04 DE=-8.99D-08 OVMax= 1.46D-04

 Cycle  12  Pass 1  IDiag  1:
 RMSU=  1.09D-06    CP:  5.04D-01  2.67D+00  1.93D+00  9.24D-01  8.40D-01
                    CP:  9.07D-01  1.18D+00  1.26D+00  1.36D+00  1.30D+00
                    CP:  1.37D+00
 E= -3010.54263856194     Delta-E=       -0.000000023949 Rises=F Damp=F
 DIIS: error= 1.81D-06 at cycle  12 NSaved=  12.
 NSaved=12 IEnMin=12 EnMin= -3010.54263856194     IErMin=12 ErrMin= 1.81D-06
 ErrMax= 1.81D-06  0.00D+00 EMaxC= 1.00D-01 BMatC= 1.88D-09 BMatP= 3.62D-09
 IDIUse=1 WtCom= 1.00D+00 WtEn= 0.00D+00
 Coeff-Com: -0.245D-03 0.325D-03-0.332D-04 0.478D-03 0.102D-02 0.379D-02
 Coeff-Com:  0.729D-02-0.620D-02-0.101D+00-0.217D+00 0.582D+00 0.730D+00
 Coeff:     -0.245D-03 0.325D-03-0.332D-04 0.478D-03 0.102D-02 0.379D-02
 Coeff:      0.729D-02-0.620D-02-0.101D+00-0.217D+00 0.582D+00 0.730D+00
 Gap=     0.253 Goal=   None    Shift=    0.000
 RMSDP=2.24D-06 MaxDP=9.79D-05 DE=-2.39D-08 OVMax= 6.65D-05

 Cycle  13  Pass 1  IDiag  1:
 RMSU=  6.01D-07    CP:  5.04D-01  2.67D+00  1.93D+00  9.24D-01  8.39D-01
                    CP:  9.10D-01  1.18D+00  1.25D+00  1.39D+00  1.38D+00
                    CP:  1.72D+00  1.25D+00
 E= -3010.54263856845     Delta-E=       -0.000000006511 Rises=F Damp=F
 DIIS: error= 6.28D-07 at cycle  13 NSaved=  13.
 NSaved=13 IEnMin=13 EnMin= -3010.54263856845     IErMin=13 ErrMin= 6.28D-07
 ErrMax= 6.28D-07  0.00D+00 EMaxC= 1.00D-01 BMatC= 1.98D-10 BMatP= 1.88D-09
 IDIUse=1 WtCom= 1.00D+00 WtEn= 0.00D+00
 Coeff-Com: -0.651D-06 0.109D-05-0.105D-04-0.114D-03-0.712D-03-0.145D-02
 Coeff-Com: -0.792D-03 0.591D-02 0.239D-01-0.376D-02-0.177D+00-0.482D-01
 Coeff-Com:  0.120D+01
 Coeff:     -0.651D-06 0.109D-05-0.105D-04-0.114D-03-0.712D-03-0.145D-02
 Coeff:     -0.792D-03 0.591D-02 0.239D-01-0.376D-02-0.177D+00-0.482D-01
 Coeff:      0.120D+01
 Gap=     0.253 Goal=   None    Shift=    0.000
 RMSDP=6.35D-07 MaxDP=2.22D-05 DE=-6.51D-09 OVMax= 4.35D-05

 Cycle  14  Pass 1  IDiag  1:
 RMSU=  2.69D-07    CP:  5.04D-01  2.67D+00  1.93D+00  9.24D-01  8.39D-01
                    CP:  9.10D-01  1.18D+00  1.25D+00  1.40D+00  1.40D+00
                    CP:  1.83D+00  1.46D+00  1.43D+00
 E= -3010.54263856982     Delta-E=       -0.000000001374 Rises=F Damp=F
 DIIS: error= 3.98D-07 at cycle  14 NSaved=  14.
 NSaved=14 IEnMin=14 EnMin= -3010.54263856982     IErMin=14 ErrMin= 3.98D-07
 ErrMax= 3.98D-07  0.00D+00 EMaxC= 1.00D-01 BMatC= 4.55D-11 BMatP= 1.98D-10
 IDIUse=1 WtCom= 1.00D+00 WtEn= 0.00D+00
 Coeff-Com:  0.214D-04-0.283D-04-0.258D-05-0.900D-04-0.322D-03-0.915D-03
 Coeff-Com: -0.125D-02 0.268D-02 0.228D-01 0.276D-01-0.144D+00-0.156D+00
 Coeff-Com:  0.402D+00 0.846D+00
 Coeff:      0.214D-04-0.283D-04-0.258D-05-0.900D-04-0.322D-03-0.915D-03
 Coeff:     -0.125D-02 0.268D-02 0.228D-01 0.276D-01-0.144D+00-0.156D+00
 Coeff:      0.402D+00 0.846D+00
 Gap=     0.253 Goal=   None    Shift=    0.000
 RMSDP=3.40D-07 MaxDP=1.41D-05 DE=-1.37D-09 OVMax= 1.87D-05

 Cycle  15  Pass 1  IDiag  1:
 RMSU=  9.36D-08    CP:  5.04D-01  2.67D+00  1.93D+00  9.24D-01  8.39D-01
                    CP:  9.10D-01  1.18D+00  1.25D+00  1.40D+00  1.40D+00
                    CP:  1.88D+00  1.53D+00  1.65D+00  1.19D+00
 E= -3010.54263857008     Delta-E=       -0.000000000261 Rises=F Damp=F
 DIIS: error= 1.66D-07 at cycle  15 NSaved=  15.
 NSaved=15 IEnMin=15 EnMin= -3010.54263857008     IErMin=15 ErrMin= 1.66D-07
 ErrMax= 1.66D-07  0.00D+00 EMaxC= 1.00D-01 BMatC= 1.11D-11 BMatP= 4.55D-11
 IDIUse=1 WtCom= 1.00D+00 WtEn= 0.00D+00
 Coeff-Com:  0.116D-04-0.156D-04 0.184D-05-0.204D-05 0.961D-04 0.120D-03
 Coeff-Com: -0.145D-03-0.765D-03 0.998D-03 0.854D-02 0.178D-02-0.465D-01
 Coeff-Com: -0.176D+00 0.328D+00 0.884D+00
 Coeff:      0.116D-04-0.156D-04 0.184D-05-0.204D-05 0.961D-04 0.120D-03
 Coeff:     -0.145D-03-0.765D-03 0.998D-03 0.854D-02 0.178D-02-0.465D-01
 Coeff:     -0.176D+00 0.328D+00 0.884D+00
 Gap=     0.253 Goal=   None    Shift=    0.000
 RMSDP=1.70D-07 MaxDP=7.18D-06 DE=-2.61D-10 OVMax= 9.13D-06

 Cycle  16  Pass 1  IDiag  1:
 RMSU=  4.65D-08    CP:  5.04D-01  2.67D+00  1.93D+00  9.24D-01  8.39D-01
                    CP:  9.10D-01  1.18D+00  1.25D+00  1.40D+00  1.40D+00
                    CP:  1.90D+00  1.54D+00  1.79D+00  1.42D+00  1.29D+00
 E= -3010.54263857011     Delta-E=       -0.000000000023 Rises=F Damp=F
 DIIS: error= 6.55D-08 at cycle  16 NSaved=  16.
 NSaved=16 IEnMin=16 EnMin= -3010.54263857011     IErMin=16 ErrMin= 6.55D-08
 ErrMax= 6.55D-08  0.00D+00 EMaxC= 1.00D-01 BMatC= 1.04D-12 BMatP= 1.11D-11
 IDIUse=1 WtCom= 1.00D+00 WtEn= 0.00D+00
 Coeff-Com:  0.751D-06-0.104D-05 0.109D-05 0.108D-04 0.681D-04 0.157D-03
 Coeff-Com:  0.106D-03-0.640D-03-0.267D-02-0.780D-03 0.202D-01 0.778D-02
 Coeff-Com: -0.102D+00-0.870D-02 0.212D+00 0.875D+00
 Coeff:      0.751D-06-0.104D-05 0.109D-05 0.108D-04 0.681D-04 0.157D-03
 Coeff:      0.106D-03-0.640D-03-0.267D-02-0.780D-03 0.202D-01 0.778D-02
 Coeff:     -0.102D+00-0.870D-02 0.212D+00 0.875D+00
 Gap=     0.253 Goal=   None    Shift=    0.000
 RMSDP=4.37D-08 MaxDP=1.60D-06 DE=-2.27D-11 OVMax= 2.55D-06

 Cycle  17  Pass 1  IDiag  1:
 RMSU=  1.34D-08    CP:  5.04D-01  2.67D+00  1.93D+00  9.24D-01  8.39D-01
                    CP:  9.10D-01  1.18D+00  1.25D+00  1.40D+00  1.40D+00
                    CP:  1.91D+00  1.53D+00  1.80D+00  1.48D+00  1.53D+00
                    CP:  1.20D+00
 E= -3010.54263857012     Delta-E=       -0.000000000017 Rises=F Damp=F
 DIIS: error= 2.58D-08 at cycle  17 NSaved=  17.
 NSaved=17 IEnMin=17 EnMin= -3010.54263857012     IErMin=17 ErrMin= 2.58D-08
 ErrMax= 2.58D-08  0.00D+00 EMaxC= 1.00D-01 BMatC= 2.00D-13 BMatP= 1.04D-12
 IDIUse=1 WtCom= 1.00D+00 WtEn= 0.00D+00
 Coeff-Com: -0.839D-06 0.112D-05 0.883D-07 0.883D-06-0.673D-05 0.243D-05
 Coeff-Com:  0.408D-04 0.453D-04-0.540D-03-0.127D-02 0.254D-02 0.848D-02
 Coeff-Com:  0.655D-02-0.548D-01-0.122D+00 0.201D+00 0.960D+00
 Coeff:     -0.839D-06 0.112D-05 0.883D-07 0.883D-06-0.673D-05 0.243D-05
 Coeff:      0.408D-04 0.453D-04-0.540D-03-0.127D-02 0.254D-02 0.848D-02
 Coeff:      0.655D-02-0.548D-01-0.122D+00 0.201D+00 0.960D+00
 Gap=     0.253 Goal=   None    Shift=    0.000
 RMSDP=2.74D-08 MaxDP=1.26D-06 DE=-1.73D-11 OVMax= 1.38D-06

 Cycle  18  Pass 1  IDiag  1:
 RMSU=  6.26D-09    CP:  5.04D-01  2.67D+00  1.93D+00  9.24D-01  8.39D-01
                    CP:  9.11D-01  1.18D+00  1.25D+00  1.40D+00  1.40D+00
                    CP:  1.91D+00  1.53D+00  1.82D+00  1.51D+00  1.61D+00
                    CP:  1.45D+00  1.39D+00
 E= -3010.54263857012     Delta-E=        0.000000000000 Rises=F Damp=F
 DIIS: error= 9.30D-09 at cycle  18 NSaved=  18.
 NSaved=18 IEnMin=17 EnMin= -3010.54263857012     IErMin=18 ErrMin= 9.30D-09
 ErrMax= 9.30D-09  0.00D+00 EMaxC= 1.00D-01 BMatC= 4.31D-14 BMatP= 2.00D-13
 IDIUse=1 WtCom= 1.00D+00 WtEn= 0.00D+00
 Coeff-Com: -0.297D-07 0.431D-07-0.120D-06-0.207D-05-0.148D-04-0.283D-04
 Coeff-Com: -0.568D-05 0.140D-03 0.322D-03-0.342D-03-0.301D-02 0.128D-02
 Coeff-Com:  0.231D-01-0.118D-01-0.742D-01-0.120D+00 0.268D+00 0.917D+00
 Coeff:     -0.297D-07 0.431D-07-0.120D-06-0.207D-05-0.148D-04-0.283D-04
 Coeff:     -0.568D-05 0.140D-03 0.322D-03-0.342D-03-0.301D-02 0.128D-02
 Coeff:      0.231D-01-0.118D-01-0.742D-01-0.120D+00 0.268D+00 0.917D+00
 Gap=     0.253 Goal=   None    Shift=    0.000
 RMSDP=1.07D-08 MaxDP=6.63D-07 DE= 0.00D+00 OVMax= 3.75D-07

 Cycle  19  Pass 1  IDiag  1:
 RMSU=  2.37D-09    CP:  5.04D-01  2.67D+00  1.93D+00  9.24D-01  8.39D-01
                    CP:  9.11D-01  1.18D+00  1.25D+00  1.40D+00  1.40D+00
                    CP:  1.91D+00  1.53D+00  1.83D+00  1.51D+00  1.64D+00
                    CP:  1.53D+00  1.69D+00  1.37D+00
 E= -3010.54263857013     Delta-E=       -0.000000000004 Rises=F Damp=F
 DIIS: error= 3.77D-09 at cycle  19 NSaved=  19.
 NSaved=19 IEnMin=19 EnMin= -3010.54263857013     IErMin=19 ErrMin= 3.77D-09
 ErrMax= 3.77D-09  0.00D+00 EMaxC= 1.00D-01 BMatC= 3.72D-15 BMatP= 4.31D-14
 IDIUse=1 WtCom= 1.00D+00 WtEn= 0.00D+00
 Large coefficients: NSaved= 19 BigCof=    0.00 CofMax=   10.00 Det=-1.33D-14
 Inversion failed.  Reducing to 18 matrices.
 Coeff-Com:  0.142D-08-0.365D-07-0.197D-06-0.422D-06-0.319D-05-0.808D-05
 Coeff-Com: -0.915D-06 0.115D-03 0.168D-03-0.658D-03-0.844D-03 0.170D-02
 Coeff-Com:  0.328D-02 0.546D-02-0.338D-01-0.781D-01 0.701D-01 0.103D+01
 Coeff:      0.142D-08-0.365D-07-0.197D-06-0.422D-06-0.319D-05-0.808D-05
 Coeff:     -0.915D-06 0.115D-03 0.168D-03-0.658D-03-0.844D-03 0.170D-02
 Coeff:      0.328D-02 0.546D-02-0.338D-01-0.781D-01 0.701D-01 0.103D+01
 Gap=     0.253 Goal=   None    Shift=    0.000
 RMSDP=3.81D-09 MaxDP=1.82D-07 DE=-3.64D-12 OVMax= 1.75D-07

 SCF Done:  E(RwB97XD) =  -3010.54263857     A.U. after   19 cycles
            NFock= 19  Conv=0.38D-08     -V/T= 2.0016
 KE= 3.005846476978D+03 PE=-8.633658611758D+03 EE= 1.876422911157D+03
 Leave Link  502 at Wed May  1 14:46:37 2024, MaxMem=  1207959552 cpu:            1071.7 elap:            1071.9
 (Enter /software/gaussian/g16-c01/sse4/g16/l601.exe)
 Copying SCF densities to generalized density rwf, IOpCl= 0 IROHF=0.

 **********************************************************************

            Population analysis using the SCF Density.

 **********************************************************************

 Alpha  occ. eigenvalues -- -483.31694 -62.86706 -56.66410 -56.65824 -56.65819
 Alpha  occ. eigenvalues --  -19.50150 -19.50072 -14.89523 -10.59119 -10.58832
 Alpha  occ. eigenvalues --  -10.58739 -10.58571 -10.57451 -10.53594  -9.02503
 Alpha  occ. eigenvalues --   -6.85210  -6.83293  -6.83272  -2.95108  -2.94601
 Alpha  occ. eigenvalues --   -2.94582  -2.93049  -2.93049  -1.53892  -1.36919
 Alpha  occ. eigenvalues --   -1.23928  -1.15504  -1.12833  -1.05226  -1.03164
 Alpha  occ. eigenvalues --   -0.96516  -0.92473  -0.87990  -0.83947  -0.82968
 Alpha  occ. eigenvalues --   -0.82828  -0.79567  -0.79165  -0.76949  -0.73336
 Alpha  occ. eigenvalues --   -0.70114  -0.68536  -0.64821  -0.61469  -0.61140
 Alpha  occ. eigenvalues --   -0.60568  -0.60025  -0.56634  -0.55783
 Alpha virt. eigenvalues --   -0.30514  -0.24563  -0.16494  -0.14924  -0.10127
 Alpha virt. eigenvalues --   -0.07557  -0.07155  -0.06010  -0.05828  -0.04197
 Alpha virt. eigenvalues --   -0.03347  -0.02843  -0.02416  -0.00877  -0.00446
 Alpha virt. eigenvalues --   -0.00285   0.00403   0.01022   0.01824   0.01932
 Alpha virt. eigenvalues --    0.02912   0.03721   0.03913   0.04287   0.04495
 Alpha virt. eigenvalues --    0.05301   0.05995   0.06196   0.07981   0.08214
 Alpha virt. eigenvalues --    0.08848   0.09140   0.09268   0.10075   0.10274
 Alpha virt. eigenvalues --    0.10855   0.10969   0.12136   0.13552   0.14125
 Alpha virt. eigenvalues --    0.15115   0.15791   0.16165   0.16596   0.16833
 Alpha virt. eigenvalues --    0.18448   0.18939   0.19392   0.20115   0.20559
 Alpha virt. eigenvalues --    0.21391   0.22955   0.25607   0.28093   0.29327
 Alpha virt. eigenvalues --    0.29850   0.31314   0.32210   0.32935   0.33702
 Alpha virt. eigenvalues --    0.35912   0.36582   0.37867   0.39591   0.40966
 Alpha virt. eigenvalues --    0.41372   0.41895   0.42421   0.44627   0.45286
 Alpha virt. eigenvalues --    0.46190   0.49302   0.49485   0.50557   0.51891
 Alpha virt. eigenvalues --    0.52718   0.53787   0.55489   0.55985   0.57821
 Alpha virt. eigenvalues --    0.60713   0.61355   0.63517   0.66259   0.67259
 Alpha virt. eigenvalues --    0.68877   0.69519   0.72106   0.72601   0.73210
 Alpha virt. eigenvalues --    0.73659   0.76490   0.77824   0.81733   0.82710
 Alpha virt. eigenvalues --    0.84969   0.85518   0.89976   0.91231   0.94892
 Alpha virt. eigenvalues --    0.95399   0.98963   1.02441   1.03277   1.04985
 Alpha virt. eigenvalues --    1.06227   1.07691   1.08483   1.08704   1.10472
 Alpha virt. eigenvalues --    1.17686   1.21906   1.24362   1.31765   1.35111
 Alpha virt. eigenvalues --    1.35619   1.36730   1.44008   1.52579   1.54719
 Alpha virt. eigenvalues --    1.55616   1.55841   1.59124   1.60390   1.65157
 Alpha virt. eigenvalues --    1.67005   1.68511   1.71496   1.72481   1.77625
 Alpha virt. eigenvalues --    1.80314   1.83990   1.85430   1.92610   1.94615
 Alpha virt. eigenvalues --    1.96275   2.00157   2.01872   2.05913   2.06889
 Alpha virt. eigenvalues --    2.08348   2.13498   2.18653   2.20410   2.28381
 Alpha virt. eigenvalues --    2.35034   2.38595   2.41021   2.42110   2.51097
 Alpha virt. eigenvalues --    2.55559   2.61468   2.64376   2.66141   2.68229
 Alpha virt. eigenvalues --    2.69793   2.72613   2.75272   2.76891   2.80533
 Alpha virt. eigenvalues --    2.92355   2.95006   2.96622   3.04450   3.07015
 Alpha virt. eigenvalues --    3.11071   3.13403   3.17760   3.20097   3.22791
 Alpha virt. eigenvalues --    3.22978   3.36307   3.46534   3.48762   3.51195
 Alpha virt. eigenvalues --    3.54419   3.65911   3.69870   3.80854   3.85791
 Alpha virt. eigenvalues --    4.08532   4.08758   4.16154   4.21417   4.39889
 Alpha virt. eigenvalues --    4.42204   4.55477   4.56904   4.88672   4.91296
 Alpha virt. eigenvalues --    4.99967   5.04133   5.58548   6.11293   6.64228
 Alpha virt. eigenvalues --    7.47220   7.48786   7.58518  23.20114  23.60022
 Alpha virt. eigenvalues --   23.68852  23.78202  23.94831  23.99976  35.28445
 Alpha virt. eigenvalues --   47.90739  49.81254  49.90064 289.80053 289.81720
 Alpha virt. eigenvalues --  289.941511020.91139
          Condensed to atoms (all electrons):
               1          2          3          4          5          6
     1  C    8.492535  -2.272330   0.449093  -1.423158  -0.728185   0.303691
     2  C   -2.272330  12.997473  -2.114580  -2.725757   1.046250  -0.016156
     3  C    0.449093  -2.114580  12.834879  -2.681267  -1.347403   0.019044
     4  C   -1.423158  -2.725757  -2.681267  13.708507   1.248018   0.010035
     5  C   -0.728185   1.046250  -1.347403   1.248018   7.342982   0.025712
     6  H    0.303691  -0.016156   0.019044   0.010035   0.025712   0.319354
     7  H    0.058038   0.246957   0.081097  -0.033226  -0.021256  -0.001832
     8  H    0.001157  -0.010660   0.061534   0.270034  -0.008441   0.000002
     9  H    0.022031  -0.004283  -0.000201  -0.004394   0.321025  -0.001882
    10  N   -0.105875   0.321773  -0.923395   0.273589   0.038560  -0.000520
    11  O    0.021047  -0.031340  -0.256291  -0.037521  -0.052074  -0.000018
    12  O    0.269629  -0.042972  -0.279583  -0.042750  -0.043150  -0.000023
    13  C    1.452059  -1.926948   0.827219  -2.839302  -1.863475  -0.008942
    14  H   -0.000481  -0.013625   0.010196  -0.051385  -0.061948  -0.000058
    15  Br   0.059885  -0.000406   0.058119   0.085991   0.071059  -0.000391
               7          8          9         10         11         12
     1  C    0.058038   0.001157   0.022031  -0.105875   0.021047   0.269629
     2  C    0.246957  -0.010660  -0.004283   0.321773  -0.031340  -0.042972
     3  C    0.081097   0.061534  -0.000201  -0.923395  -0.256291  -0.279583
     4  C   -0.033226   0.270034  -0.004394   0.273589  -0.037521  -0.042750
     5  C   -0.021256  -0.008441   0.321025   0.038560  -0.052074  -0.043150
     6  H   -0.001832   0.000002  -0.001882  -0.000520  -0.000018  -0.000023
     7  H    0.316761   0.000011   0.000015  -0.026814  -0.001523   0.017817
     8  H    0.000011   0.310661   0.000119  -0.023466   0.018465  -0.000928
     9  H    0.000015   0.000119   0.291980   0.000438   0.000003   0.000005
    10  N   -0.026814  -0.023466   0.000438   7.215735   0.246090   0.212938
    11  O   -0.001523   0.018465   0.000003   0.246090   7.850583  -0.012234
    12  O    0.017817  -0.000928   0.000005   0.212938  -0.012234   7.885295
    13  C    0.013747   0.025540  -0.009845  -0.125916   0.262109   0.045208
    14  H   -0.000014  -0.004837  -0.004651  -0.000994  -0.000178  -0.000069
    15  Br  -0.000195  -0.000210   0.000935   0.001943   0.000777   0.001952
              13         14         15
     1  C    1.452059  -0.000481   0.059885
     2  C   -1.926948  -0.013625  -0.000406
     3  C    0.827219   0.010196   0.058119
     4  C   -2.839302  -0.051385   0.085991
     5  C   -1.863475  -0.061948   0.071059
     6  H   -0.008942  -0.000058  -0.000391
     7  H    0.013747  -0.000014  -0.000195
     8  H    0.025540  -0.004837  -0.000210
     9  H   -0.009845  -0.004651   0.000935
    10  N   -0.125916  -0.000994   0.001943
    11  O    0.262109  -0.000178   0.000777
    12  O    0.045208  -0.000069   0.001952
    13  C   10.277856   0.417983  -0.092539
    14  H    0.417983   0.329408  -0.037721
    15  Br  -0.092539  -0.037721  34.627352
 Mulliken charges:
               1
     1  C   -0.599137
     2  C    0.546604
     3  C   -0.738463
     4  C    0.242587
     5  C    0.032326
     6  H    0.351984
     7  H    0.350418
     8  H    0.361019
     9  H    0.388707
    10  N   -0.104086
    11  O   -0.007896
    12  O   -0.011135
    13  C   -0.454753
    14  H    0.418374
    15  Br   0.223451
 Sum of Mulliken charges =   1.00000
 Mulliken charges with hydrogens summed into heavy atoms:
               1
     1  C   -0.247153
     2  C    0.897022
     3  C   -0.738463
     4  C    0.603606
     5  C    0.421033
    10  N   -0.104086
    11  O   -0.007896
    12  O   -0.011135
    13  C   -0.036379
    15  Br   0.223451
 Electronic spatial extent (au):  <R**2>=           2802.3337
 Charge=              1.0000 electrons
 Dipole moment (field-independent basis, Debye):
    X=             -3.4416    Y=             -0.8863    Z=             -0.2363  Tot=              3.5617
 Quadrupole moment (field-independent basis, Debye-Ang):
   XX=            -77.4652   YY=            -51.7223   ZZ=            -61.9939
   XY=              1.7023   XZ=              1.7798   YZ=              2.2714
 Traceless Quadrupole moment (field-independent basis, Debye-Ang):
   XX=            -13.7381   YY=             12.0048   ZZ=              1.7332
   XY=              1.7023   XZ=              1.7798   YZ=              2.2714
 Octapole moment (field-independent basis, Debye-Ang**2):
  XXX=           -335.6295  YYY=             85.4501  ZZZ=             75.6620  XYY=            -82.2768
  XXY=             28.8463  XXZ=             32.0285  XZZ=            -81.0605  YZZ=             14.6776
  YYZ=             23.9866  XYZ=             -4.6174
 Hexadecapole moment (field-independent basis, Debye-Ang**3):
 XXXX=          -2435.0395 YYYY=           -671.8423 ZZZZ=           -342.6036 XXXY=            -68.1174
 XXXZ=            -17.1942 YYYX=            -56.7921 YYYZ=           -151.2562 ZZZX=            -14.7111
 ZZZY=           -131.6046 XXYY=           -467.9563 XXZZ=           -372.6083 YYZZ=           -159.6923
 XXYZ=            -52.9406 YYXZ=              0.9334 ZZXY=             -5.9640
 N-N= 7.408465850523D+02 E-N=-8.633658610941D+03  KE= 3.005846476978D+03
 No NMR shielding tensors so no spin-rotation constants.
 Leave Link  601 at Wed May  1 14:46:45 2024, MaxMem=  1207959552 cpu:               7.6 elap:               7.6
 (Enter /software/gaussian/g16-c01/sse4/g16/l9999.exe)
 Unable to Open any file for archive entry.
 1\1\GINC-BHX0022\SP\RwB97XD\6-311+G(d)\C6H5Br1N1O2(1+)\BWEIGHT\01-May-
 2024\0\\#P wB97XD/6-311+G* NoSymm #P Field=X+87\\TitleMe\\1,1\C,0,0.02
 95,1.3397,0.0682\C,0,1.4348,1.2867,0.0064\C,0,2.1118,0.0511,-0.0054\C,
 0,1.4451,-1.1372,0.0312\C,0,-0.6879,0.1682,0.11\H,0,-0.4713,2.2984,0.0
 781\H,0,2.0273,2.1965,-0.0322\H,0,1.9897,-2.0764,0.0232\H,0,-1.7716,0.
 1804,0.1582\N,0,3.5864,0.051,-0.0675\O,0,4.1471,-1.0597,-0.0881\O,0,4.
 145,1.1639,-0.0901\C,0,-0.0236,-1.1458,0.0835\H,0,-0.4367,-1.8725,0.78
 89\Br,0,-0.5359,-1.8697,-1.7408\\Version=ES64L-G16RevC.01\HF=-3010.542
 6386\RMSD=3.811e-09\Dipole=-3.2605573,0.7993836,1.0532024\Quadrupole=-
 10.2139147,8.925308,1.2886066,1.2656279,1.323211,1.6887234\PG=C01 [X(C
 6H5Br1N1O2)]\\@
 The archive entry for this job was punched.


 MAN IS A SINGULAR CREATURE.  HE HAS A SET OF GIFTS
 WHICH MAKE HIM UNIQUE AMONG THE ANIMALS: SO THAT, 
 UNLIKE THEM, HE IS NOT A FIGURE IN THE LANDSCAPE --
 HE IS A SHAPER OF THE LANDSCAPE.

                       -- JACOB BRONOWSKI
 Job cpu time:       0 days  0 hours 18 minutes 59.5 seconds.
 Elapsed time:       0 days  0 hours 18 minutes 59.7 seconds.
 File lengths (MBytes):  RWF=     40 Int=      0 D2E=      0 Chk=     32 Scr=      1
 Normal termination of Gaussian 16 at Wed May  1 14:46:46 2024.
