 Entering Gaussian System, Link 0=g16
 Initial command:
 /software/gaussian/g16-c01/sse4/g16/l1.exe "/local_scratch/24657584/Gau-11446.inp" -scrdir="/local_scratch/24657584/"
 Entering Link 1 = /software/gaussian/g16-c01/sse4/g16/l1.exe PID=     11473.
  
 Copyright (c) 1988-2019, Gaussian, Inc.  All Rights Reserved.
  
 This is part of the Gaussian(R) 16 program.  It is based on
 the Gaussian(R) 09 system (copyright 2009, Gaussian, Inc.),
 the Gaussian(R) 03 system (copyright 2003, Gaussian, Inc.),
 the Gaussian(R) 98 system (copyright 1998, Gaussian, Inc.),
 the Gaussian(R) 94 system (copyright 1995, Gaussian, Inc.),
 the Gaussian 92(TM) system (copyright 1992, Gaussian, Inc.),
 the Gaussian 90(TM) system (copyright 1990, Gaussian, Inc.),
 the Gaussian 88(TM) system (copyright 1988, Gaussian, Inc.),
 the Gaussian 86(TM) system (copyright 1986, Carnegie Mellon
 University), and the Gaussian 82(TM) system (copyright 1983,
 Carnegie Mellon University). Gaussian is a federally registered
 trademark of Gaussian, Inc.
  
 This software contains proprietary and confidential information,
 including trade secrets, belonging to Gaussian, Inc.
  
 This software is provided under written license and may be
 used, copied, transmitted, or stored only in accord with that
 written license.
  
 The following legend is applicable only to US Government
 contracts under FAR:
  
                    RESTRICTED RIGHTS LEGEND
  
 Use, reproduction and disclosure by the US Government is
 subject to restrictions as set forth in subparagraphs (a)
 and (c) of the Commercial Computer Software - Restricted
 Rights clause in FAR 52.227-19.
  
 Gaussian, Inc.
 340 Quinnipiac St., Bldg. 40, Wallingford CT 06492
  
  
 ---------------------------------------------------------------
 Warning -- This program may not be used in any manner that
 competes with the business of Gaussian, Inc. or will provide
 assistance to any competitor of Gaussian, Inc.  The licensee
 of this program is prohibited from giving any competitor of
 Gaussian, Inc. access to this program.  By using this program,
 the user acknowledges that Gaussian, Inc. is engaged in the
 business of creating and licensing software in the field of
 computational chemistry and represents and warrants to the
 licensee that it is not a competitor of Gaussian, Inc. and that
 it will not use this program in any manner prohibited above.
 ---------------------------------------------------------------
  

 Cite this work as:
 Gaussian 16, Revision C.01,
 M. J. Frisch, G. W. Trucks, H. B. Schlegel, G. E. Scuseria, 
 M. A. Robb, J. R. Cheeseman, G. Scalmani, V. Barone, 
 G. A. Petersson, H. Nakatsuji, X. Li, M. Caricato, A. V. Marenich, 
 J. Bloino, B. G. Janesko, R. Gomperts, B. Mennucci, H. P. Hratchian, 
 J. V. Ortiz, A. F. Izmaylov, J. L. Sonnenberg, D. Williams-Young, 
 F. Ding, F. Lipparini, F. Egidi, J. Goings, B. Peng, A. Petrone, 
 T. Henderson, D. Ranasinghe, V. G. Zakrzewski, J. Gao, N. Rega, 
 G. Zheng, W. Liang, M. Hada, M. Ehara, K. Toyota, R. Fukuda, 
 J. Hasegawa, M. Ishida, T. Nakajima, Y. Honda, O. Kitao, H. Nakai, 
 T. Vreven, K. Throssell, J. A. Montgomery, Jr., J. E. Peralta, 
 F. Ogliaro, M. J. Bearpark, J. J. Heyd, E. N. Brothers, K. N. Kudin, 
 V. N. Staroverov, T. A. Keith, R. Kobayashi, J. Normand, 
 K. Raghavachari, A. P. Rendell, J. C. Burant, S. S. Iyengar, 
 J. Tomasi, M. Cossi, J. M. Millam, M. Klene, C. Adamo, R. Cammi, 
 J. W. Ochterski, R. L. Martin, K. Morokuma, O. Farkas, 
 J. B. Foresman, and D. J. Fox, Gaussian, Inc., Wallingford CT, 2019.
 
 ******************************************
 Gaussian 16:  ES64L-G16RevC.01  3-Jul-2019
                 1-May-2024 
 ******************************************
 %chk=geometry.chk
 %mem=9GB
 %nprocshared=12
 Will use up to   12 processors via shared memory.
 ----------------------------------------
 #P wB97XD/6-311+G* NoSymm #P Field=Z+223
 ----------------------------------------
 1/38=1,172=1/1;
 2/12=2,15=1,17=6,18=5,40=1/2;
 3/5=4,6=6,7=11,11=2,14=3,15=223,25=1,30=1,74=-58/1,2,3;
 4//1;
 5/5=2,38=5/2;
 6/7=2,8=2,9=2,10=2,28=1/1;
 99/5=1,9=1/99;
 Leave Link    1 at Wed May  1 15:11:07 2024, MaxMem=  1207959552 cpu:               2.1 elap:               2.1
 (Enter /software/gaussian/g16-c01/sse4/g16/l101.exe)
 -------
 TitleMe
 -------
 Symbolic Z-matrix:
 Charge =  1 Multiplicity = 1
 C                     0.0295    1.3397    0.0682 
 C                     1.4348    1.2867    0.0064 
 C                     2.1118    0.0511   -0.0054 
 C                     1.4451   -1.1372    0.0312 
 C                    -0.6879    0.1682    0.11 
 H                    -0.4713    2.2984    0.0781 
 H                     2.0273    2.1965   -0.0322 
 H                     1.9897   -2.0764    0.0232 
 H                    -1.7716    0.1804    0.1582 
 N                     3.5864    0.051    -0.0675 
 O                     4.1471   -1.0597   -0.0881 
 O                     4.145     1.1639   -0.0901 
 C                    -0.0236   -1.1458    0.0835 
 H                    -0.4367   -1.8725    0.7889 
 Br                   -0.5359   -1.8697   -1.7408 
 
 ITRead=  0  0  0  0  0  0  0  0  0  0  0  0  0  0  0
 MicOpt= -1 -1 -1 -1 -1 -1 -1 -1 -1 -1 -1 -1 -1 -1 -1
 NAtoms=     15 NQM=       15 NQMF=       0 NMMI=      0 NMMIF=      0
                NMic=       0 NMicF=      0.
                    Isotopes and Nuclear Properties:
 (Nuclear quadrupole moments (NQMom) in fm**2, nuclear magnetic moments (NMagM)
  in nuclear magnetons)

  Atom         1           2           3           4           5           6           7           8           9          10
 IAtWgt=          12          12          12          12          12           1           1           1           1          14
 AtmWgt=  12.0000000  12.0000000  12.0000000  12.0000000  12.0000000   1.0078250   1.0078250   1.0078250   1.0078250  14.0030740
 NucSpn=           0           0           0           0           0           1           1           1           1           2
 AtZEff=  -0.0000000  -0.0000000  -0.0000000  -0.0000000  -0.0000000  -0.0000000  -0.0000000  -0.0000000  -0.0000000  -0.0000000
 NQMom=    0.0000000   0.0000000   0.0000000   0.0000000   0.0000000   0.0000000   0.0000000   0.0000000   0.0000000   2.0440000
 NMagM=    0.0000000   0.0000000   0.0000000   0.0000000   0.0000000   2.7928460   2.7928460   2.7928460   2.7928460   0.4037610
 AtZNuc=   6.0000000   6.0000000   6.0000000   6.0000000   6.0000000   1.0000000   1.0000000   1.0000000   1.0000000   7.0000000

  Atom        11          12          13          14          15
 IAtWgt=          16          16          12           1          79
 AtmWgt=  15.9949146  15.9949146  12.0000000   1.0078250  78.9183361
 NucSpn=           0           0           0           1           3
 AtZEff=  -0.0000000  -0.0000000  -0.0000000  -0.0000000  -0.0000000
 NQMom=    0.0000000   0.0000000   0.0000000   0.0000000  31.3000000
 NMagM=    0.0000000   0.0000000   0.0000000   2.7928460   2.1063990
 AtZNuc=   8.0000000   8.0000000   6.0000000   1.0000000  35.0000000
 Leave Link  101 at Wed May  1 15:11:09 2024, MaxMem=  1207959552 cpu:               1.4 elap:               1.4
 (Enter /software/gaussian/g16-c01/sse4/g16/l202.exe)
                          Input orientation:                          
 ---------------------------------------------------------------------
 Center     Atomic      Atomic             Coordinates (Angstroms)
 Number     Number       Type             X           Y           Z
 ---------------------------------------------------------------------
      1          6           0        0.029500    1.339700    0.068200
      2          6           0        1.434800    1.286700    0.006400
      3          6           0        2.111800    0.051100   -0.005400
      4          6           0        1.445100   -1.137200    0.031200
      5          6           0       -0.687900    0.168200    0.110000
      6          1           0       -0.471300    2.298400    0.078100
      7          1           0        2.027300    2.196500   -0.032200
      8          1           0        1.989700   -2.076400    0.023200
      9          1           0       -1.771600    0.180400    0.158200
     10          7           0        3.586400    0.051000   -0.067500
     11          8           0        4.147100   -1.059700   -0.088100
     12          8           0        4.145000    1.163900   -0.090100
     13          6           0       -0.023600   -1.145800    0.083500
     14          1           0       -0.436700   -1.872500    0.788900
     15         35           0       -0.535900   -1.869700   -1.740800
 ---------------------------------------------------------------------
                    Distance matrix (angstroms):
                    1          2          3          4          5
     1  C    0.000000
     2  C    1.407656   0.000000
     3  C    2.449874   1.408963   0.000000
     4  C    2.853126   2.424049   1.363043   0.000000
     5  C    1.374344   2.401589   2.804523   2.501993   0.000000
     6  H    1.081667   2.159142   3.424870   3.934226   2.141421
     7  H    2.176095   1.086408   2.147231   3.384750   3.392128
     8  H    3.938800   3.408612   2.131193   1.085702   3.495040
     9  H    2.143837   3.395283   3.888995   3.478413   1.084840
    10  N    3.785591   2.482297   1.475907   2.450862   4.279589
    11  O    4.768247   3.587631   2.320164   2.705743   4.992415
    12  O    4.122294   2.714696   2.319353   3.549540   4.938459
    13  C    2.486114   2.837240   2.449573   1.469656   1.472614
    14  H    3.324903   3.754379   3.290289   2.157764   2.165286
    15  Br   3.727252   4.110867   3.702891   2.756973   2.757100
                    6          7          8          9         10
     6  H    0.000000
     7  H    2.503108   0.000000
     8  H    5.019802   4.273425   0.000000
     9  H    2.486588   4.304945   4.388479   0.000000
    10  N    4.640790   2.652397   2.661486   5.364313   0.000000
    11  O    5.712624   3.885809   2.387560   6.052233   1.244373
    12  O    4.756638   2.356750   3.893289   6.002923   1.245428
    13  C    3.473180   3.923079   2.218790   2.195425   3.806210
    14  H    4.231175   4.827242   2.552506   2.528663   4.540772
    15  Br   4.548146   5.101303   3.087568   3.055498   4.845862
                   11         12         13         14         15
    11  O    0.000000
    12  O    2.223602   0.000000
    13  C    4.175117   4.768865   0.000000
    14  H    4.737193   5.566358   1.093770   0.000000
    15  Br   5.031700   5.817075   2.028436   2.531646   0.000000
 Symmetry turned off by external request.
 Stoichiometry    C6H5BrNO2(1+)
 Framework group  C1[X(C6H5BrNO2)]
 Deg. of freedom    39
 Full point group                 C1      NOp   1
 Rotational constants (GHZ):           1.8252210           0.5518633           0.4576002
 Leave Link  202 at Wed May  1 15:11:10 2024, MaxMem=  1207959552 cpu:               1.1 elap:               1.1
 (Enter /software/gaussian/g16-c01/sse4/g16/l301.exe)
 Standard basis: 6-311+G(d) (5D, 7F)
 Ernie: Thresh=  0.10000D-02 Tol=  0.10000D-05 Strict=F.
 The following finite field(s) will be applied:
 An electric field of              0.0000  0.0000  0.0223
   261 basis functions,   443 primitive gaussians,   273 cartesian basis functions
    49 alpha electrons       49 beta electrons
       nuclear repulsion energy       739.2122215416 Hartrees.
 IExCor= 4639 DFT=T Ex+Corr=wB97XD ExCW=0 ScaHFX=  1.000000
 ScaDFX=  1.000000  1.000000  1.000000  1.000000 ScalE2=  1.000000  1.000000
 IRadAn=      5 IRanWt=     -1 IRanGd=            0 ICorTp=0 IEmpDi=121
 HFx  wShort=  0.000000 wLong=  0.200000 cFull=  0.222036 cShort=  0.000000 cLong=  0.777964
 DFx  wShort=  0.000000 wLong=  0.200000 cFull=  0.000000 cShort=  0.000000 cLong=  1.000000
 NAtoms=   15 NActive=   15 NUniq=   15 SFac= 1.00D+00 NAtFMM=   60 NAOKFM=F Big=F
 Integral buffers will be    131072 words long.
 Raffenetti 2 integral format.
 Two-electron integral symmetry is turned off.
 R6Disp:  Grimme-D2 Dispersion energy=       -0.0077368520 Hartrees.
 Nuclear repulsion after empirical dispersion term =      739.2044846896 Hartrees.
 Leave Link  301 at Wed May  1 15:11:11 2024, MaxMem=  1207959552 cpu:               1.0 elap:               1.0
 (Enter /software/gaussian/g16-c01/sse4/g16/l302.exe)
 NPDir=0 NMtPBC=     1 NCelOv=     1 NCel=       1 NClECP=     1 NCelD=      1
         NCelK=      1 NCelE2=     1 NClLst=     1 CellRange=     0.0.
 One-electron integrals computed using PRISM.
 NBasis=   261 RedAO= T EigKep=  2.35D-06  NBF=   261
 NBsUse=   261 1.00D-06 EigRej= -1.00D+00 NBFU=   261
 Precomputing XC quadrature grid using
 IXCGrd= 4 IRadAn=           5 IRanWt=          -1 IRanGd=           0 AccXCQ= 0.00D+00.
 Generated NRdTot=       0 NPtTot=           0 NUsed=           0 NTot=          32
 NSgBfM=   273   273   273   273   273 MxSgAt=    15 MxSgA2=    15.
 Leave Link  302 at Wed May  1 15:11:32 2024, MaxMem=  1207959552 cpu:              21.7 elap:              21.7
 (Enter /software/gaussian/g16-c01/sse4/g16/l303.exe)
 DipDrv:  MaxL=1.
 The nuclear repulsion energy is now       736.6740715834 hartrees.
 Leave Link  303 at Wed May  1 15:11:35 2024, MaxMem=  1207959552 cpu:               3.1 elap:               3.1
 (Enter /software/gaussian/g16-c01/sse4/g16/l401.exe)
 ExpMin= 3.50D-02 ExpMax= 4.40D+05 ExpMxC= 1.51D+04 IAcc=3 IRadAn=         5 AccDes= 0.00D+00
 Harris functional with IExCor= 4639 and IRadAn=       5 diagonalized for initial guess.
 HarFok:  IExCor= 4639 AccDes= 0.00D+00 IRadAn=         5 IDoV= 1 UseB2=F ITyADJ=14
 ICtDFT=  3500011 ScaDFX=  1.000000  1.000000  1.000000  1.000000
 FoFCou: FMM=F IPFlag=           0 FMFlag=      100000 FMFlg1=           0
         NFxFlg=           0 DoJE=T BraDBF=F KetDBF=T FulRan=T
         wScrn=  0.000000 ICntrl=       500 IOpCl=  0 I1Cent=   200000004 NGrid=           0
         NMat0=    1 NMatS0=      1 NMatT0=    0 NMatD0=    1 NMtDS0=    0 NMtDT0=    0
 Symmetry not used in FoFCou.
 Harris En= -2970.63103201775    
 JPrj=0 DoOrth=F DoCkMO=F.
 Leave Link  401 at Wed May  1 15:12:06 2024, MaxMem=  1207959552 cpu:              30.3 elap:              30.3
 (Enter /software/gaussian/g16-c01/sse4/g16/l502.exe)
 Two-electron integral symmetry not used.
 Closed shell SCF:
 Using DIIS extrapolation, IDIIS=  1040.
 NGot=  1207959552 LenX=  1207804877 LenY=  1207729907
 Requested convergence on RMS density matrix=1.00D-08 within 128 cycles.
 Requested convergence on MAX density matrix=1.00D-06.
 Requested convergence on             energy=1.00D-06.
 No special actions if energy rises.
 Fock matrices will be formed incrementally for  20 cycles.

 Cycle   1  Pass 1  IDiag  1:
 FoFJK:  IHMeth= 1 ICntrl=       0 DoSepK=T KAlg= 0 I1Cent=           0 FoldK=F
 IRaf=         1 NMat=       1 IRICut=       1 DoRegI=T DoRafI=F ISym2E= 0 IDoP0=0 IntGTp=1.
 FoFCou: FMM=F IPFlag=           0 FMFlag=      100000 FMFlg1=           0
         NFxFlg=           0 DoJE=T BraDBF=F KetDBF=F FulRan=T
         wScrn=  0.000000 ICntrl=       500 IOpCl=  0 I1Cent=           0 NGrid=           0
         NMat0=    1 NMatS0=      1 NMatT0=    0 NMatD0=    1 NMtDS0=    0 NMtDT0=    0
 Symmetry not used in FoFCou.
 E= -3009.66491021772    
 DIIS: error= 3.21D-01 at cycle   1 NSaved=   1.
 NSaved= 1 IEnMin= 1 EnMin= -3009.66491021772     IErMin= 1 ErrMin= 3.21D-01
 ErrMax= 3.21D-01  0.00D+00 EMaxC= 1.00D-01 BMatC= 1.21D+01 BMatP= 1.21D+01
 IDIUse=3 WtCom= 0.00D+00 WtEn= 1.00D+00
 Coeff-Com:  0.100D+01
 Coeff-En:   0.100D+01
 Coeff:      0.100D+01
 Gap=     0.333 Goal=   None    Shift=    0.000
 GapD=    0.333 DampG=1.000 DampE=0.250 DampFc=0.2500 IDamp=-1.
 Damping current iteration by 2.50D-01
 RMSDP=1.62D-01 MaxDP=2.26D+01              OVMax= 2.54D-01

 Cycle   2  Pass 1  IDiag  1:
 RMSU=  7.27D-03    CP:  8.14D-01
 E= -3009.97785072706     Delta-E=       -0.312940509340 Rises=F Damp=T
 DIIS: error= 2.25D-01 at cycle   2 NSaved=   2.
 NSaved= 2 IEnMin= 2 EnMin= -3009.97785072706     IErMin= 2 ErrMin= 2.25D-01
 ErrMax= 2.25D-01  0.00D+00 EMaxC= 1.00D-01 BMatC= 5.47D+00 BMatP= 1.21D+01
 IDIUse=3 WtCom= 0.00D+00 WtEn= 1.00D+00
 Coeff-Com: -0.179D+01 0.279D+01
 Coeff-En:   0.000D+00 0.100D+01
 Coeff:      0.000D+00 0.100D+01
 Gap=     0.287 Goal=   None    Shift=    0.000
 RMSDP=1.21D-01 MaxDP=1.69D+01 DE=-3.13D-01 OVMax= 6.12D-02

 Cycle   3  Pass 1  IDiag  1:
 RMSU=  6.04D-03    CP:  2.53D-01  3.00D+00
 E= -3010.37703811989     Delta-E=       -0.399187392831 Rises=F Damp=F
 DIIS: error= 6.70D-02 at cycle   3 NSaved=   3.
 NSaved= 3 IEnMin= 3 EnMin= -3010.37703811989     IErMin= 3 ErrMin= 6.70D-02
 ErrMax= 6.70D-02  0.00D+00 EMaxC= 1.00D-01 BMatC= 7.87D-01 BMatP= 5.47D+00
 IDIUse=3 WtCom= 3.30D-01 WtEn= 6.70D-01
 Coeff-Com:  0.264D+01-0.347D+01 0.183D+01
 Coeff-En:   0.575D-01 0.000D+00 0.942D+00
 Coeff:      0.911D+00-0.115D+01 0.124D+01
 Gap=     0.288 Goal=   None    Shift=    0.000
 RMSDP=9.21D-03 MaxDP=7.42D-01 DE=-3.99D-01 OVMax= 1.11D-01

 Cycle   4  Pass 1  IDiag  1:
 RMSU=  7.24D-03    CP:  2.78D-01  3.00D+00  1.27D+00
 E= -3010.50301578396     Delta-E=       -0.125977664070 Rises=F Damp=F
 DIIS: error= 3.69D-02 at cycle   4 NSaved=   4.
 NSaved= 4 IEnMin= 4 EnMin= -3010.50301578396     IErMin= 4 ErrMin= 3.69D-02
 ErrMax= 3.69D-02  0.00D+00 EMaxC= 1.00D-01 BMatC= 2.22D-01 BMatP= 7.87D-01
 IDIUse=3 WtCom= 6.31D-01 WtEn= 3.69D-01
 Coeff-Com: -0.307D+00 0.423D+00 0.190D+00 0.695D+00
 Coeff-En:   0.000D+00 0.000D+00 0.179D+00 0.821D+00
 Coeff:     -0.194D+00 0.267D+00 0.186D+00 0.741D+00
 Gap=     0.251 Goal=   None    Shift=    0.000
 RMSDP=7.01D-03 MaxDP=9.65D-01 DE=-1.26D-01 OVMax= 4.81D-02

 Cycle   5  Pass 1  IDiag  1:
 RMSU=  2.03D-03    CP:  2.48D-01  3.00D+00  1.22D+00  7.16D-01
 E= -3010.55046322380     Delta-E=       -0.047447439842 Rises=F Damp=F
 DIIS: error= 7.01D-03 at cycle   5 NSaved=   5.
 NSaved= 5 IEnMin= 5 EnMin= -3010.55046322380     IErMin= 5 ErrMin= 7.01D-03
 ErrMax= 7.01D-03  0.00D+00 EMaxC= 1.00D-01 BMatC= 8.07D-03 BMatP= 2.22D-01
 IDIUse=3 WtCom= 9.30D-01 WtEn= 7.01D-02
 Coeff-Com: -0.184D+00 0.248D+00 0.153D-01 0.346D+00 0.574D+00
 Coeff-En:   0.000D+00 0.000D+00 0.000D+00 0.000D+00 0.100D+01
 Coeff:     -0.171D+00 0.231D+00 0.142D-01 0.322D+00 0.604D+00
 Gap=     0.236 Goal=   None    Shift=    0.000
 RMSDP=6.89D-04 MaxDP=4.54D-02 DE=-4.74D-02 OVMax= 1.40D-02

 Cycle   6  Pass 1  IDiag  1:
 RMSU=  4.71D-04    CP:  2.47D-01  3.00D+00  1.25D+00  7.58D-01  8.84D-01
 E= -3010.55238684173     Delta-E=       -0.001923617930 Rises=F Damp=F
 DIIS: error= 8.86D-04 at cycle   6 NSaved=   6.
 NSaved= 6 IEnMin= 6 EnMin= -3010.55238684173     IErMin= 6 ErrMin= 8.86D-04
 ErrMax= 8.86D-04  0.00D+00 EMaxC= 1.00D-01 BMatC= 1.11D-04 BMatP= 8.07D-03
 IDIUse=3 WtCom= 9.91D-01 WtEn= 8.86D-03
 Coeff-Com: -0.944D-01 0.127D+00-0.148D-01 0.135D+00 0.299D+00 0.548D+00
 Coeff-En:   0.000D+00 0.000D+00 0.000D+00 0.000D+00 0.000D+00 0.100D+01
 Coeff:     -0.935D-01 0.126D+00-0.147D-01 0.134D+00 0.297D+00 0.552D+00
 Gap=     0.237 Goal=   None    Shift=    0.000
 RMSDP=2.76D-04 MaxDP=3.63D-02 DE=-1.92D-03 OVMax= 5.25D-03

 Cycle   7  Pass 1  IDiag  1:
 RMSU=  1.53D-04    CP:  2.46D-01  3.00D+00  1.25D+00  7.54D-01  9.57D-01
                    CP:  9.96D-01
 E= -3010.55250180518     Delta-E=       -0.000114963451 Rises=F Damp=F
 DIIS: error= 5.02D-04 at cycle   7 NSaved=   7.
 NSaved= 7 IEnMin= 7 EnMin= -3010.55250180518     IErMin= 7 ErrMin= 5.02D-04
 ErrMax= 5.02D-04  0.00D+00 EMaxC= 1.00D-01 BMatC= 3.04D-05 BMatP= 1.11D-04
 IDIUse=3 WtCom= 9.95D-01 WtEn= 5.02D-03
 Coeff-Com: -0.308D-01 0.408D-01-0.152D-01 0.216D-01 0.666D-01 0.334D+00
 Coeff-Com:  0.583D+00
 Coeff-En:   0.000D+00 0.000D+00 0.000D+00 0.000D+00 0.000D+00 0.000D+00
 Coeff-En:   0.100D+01
 Coeff:     -0.306D-01 0.406D-01-0.151D-01 0.214D-01 0.663D-01 0.332D+00
 Coeff:      0.585D+00
 Gap=     0.238 Goal=   None    Shift=    0.000
 RMSDP=1.43D-04 MaxDP=1.68D-02 DE=-1.15D-04 OVMax= 4.13D-03

 Cycle   8  Pass 1  IDiag  1:
 RMSU=  6.84D-05    CP:  2.46D-01  3.00D+00  1.25D+00  7.57D-01  9.94D-01
                    CP:  1.15D+00  1.17D+00
 E= -3010.55254602782     Delta-E=       -0.000044222637 Rises=F Damp=F
 DIIS: error= 1.96D-04 at cycle   8 NSaved=   8.
 NSaved= 8 IEnMin= 8 EnMin= -3010.55254602782     IErMin= 8 ErrMin= 1.96D-04
 ErrMax= 1.96D-04  0.00D+00 EMaxC= 1.00D-01 BMatC= 5.96D-06 BMatP= 3.04D-05
 IDIUse=3 WtCom= 9.98D-01 WtEn= 1.96D-03
 Coeff-Com:  0.118D-01-0.161D-01-0.369D-02-0.281D-01-0.616D-01-0.273D-01
 Coeff-Com:  0.284D+00 0.841D+00
 Coeff-En:   0.000D+00 0.000D+00 0.000D+00 0.000D+00 0.000D+00 0.000D+00
 Coeff-En:   0.000D+00 0.100D+01
 Coeff:      0.117D-01-0.160D-01-0.368D-02-0.280D-01-0.614D-01-0.272D-01
 Coeff:      0.284D+00 0.841D+00
 Gap=     0.237 Goal=   None    Shift=    0.000
 RMSDP=1.25D-04 MaxDP=1.21D-02 DE=-4.42D-05 OVMax= 4.35D-03

 Cycle   9  Pass 1  IDiag  1:
 RMSU=  3.48D-05    CP:  2.46D-01  3.00D+00  1.26D+00  7.57D-01  1.01D+00
                    CP:  1.31D+00  1.62D+00  1.35D+00
 E= -3010.55256899087     Delta-E=       -0.000022963057 Rises=F Damp=F
 DIIS: error= 4.87D-05 at cycle   9 NSaved=   9.
 NSaved= 9 IEnMin= 9 EnMin= -3010.55256899087     IErMin= 9 ErrMin= 4.87D-05
 ErrMax= 4.87D-05  0.00D+00 EMaxC= 1.00D-01 BMatC= 9.43D-07 BMatP= 5.96D-06
 IDIUse=1 WtCom= 1.00D+00 WtEn= 0.00D+00
 Coeff-Com:  0.825D-02-0.110D-01 0.222D-02-0.110D-01-0.283D-01-0.839D-01
 Coeff-Com: -0.929D-01 0.202D+00 0.101D+01
 Coeff:      0.825D-02-0.110D-01 0.222D-02-0.110D-01-0.283D-01-0.839D-01
 Coeff:     -0.929D-01 0.202D+00 0.101D+01
 Gap=     0.237 Goal=   None    Shift=    0.000
 RMSDP=5.52D-05 MaxDP=4.00D-03 DE=-2.30D-05 OVMax= 3.57D-03

 Cycle  10  Pass 1  IDiag  1:
 RMSU=  2.38D-05    CP:  2.46D-01  3.00D+00  1.26D+00  7.57D-01  1.02D+00
                    CP:  1.38D+00  1.74D+00  1.57D+00  1.52D+00
 E= -3010.55257650268     Delta-E=       -0.000007511809 Rises=F Damp=F
 DIIS: error= 2.10D-05 at cycle  10 NSaved=  10.
 NSaved=10 IEnMin=10 EnMin= -3010.55257650268     IErMin=10 ErrMin= 2.10D-05
 ErrMax= 2.10D-05  0.00D+00 EMaxC= 1.00D-01 BMatC= 2.36D-07 BMatP= 9.43D-07
 IDIUse=1 WtCom= 1.00D+00 WtEn= 0.00D+00
 Coeff-Com: -0.158D-02 0.219D-02 0.764D-03 0.344D-02 0.769D-02-0.590D-02
 Coeff-Com: -0.722D-01-0.115D+00 0.234D+00 0.946D+00
 Coeff:     -0.158D-02 0.219D-02 0.764D-03 0.344D-02 0.769D-02-0.590D-02
 Coeff:     -0.722D-01-0.115D+00 0.234D+00 0.946D+00
 Gap=     0.237 Goal=   None    Shift=    0.000
 RMSDP=4.18D-05 MaxDP=5.28D-03 DE=-7.51D-06 OVMax= 1.63D-03

 Cycle  11  Pass 1  IDiag  1:
 RMSU=  8.79D-06    CP:  2.46D-01  3.00D+00  1.25D+00  7.56D-01  1.02D+00
                    CP:  1.39D+00  1.73D+00  1.60D+00  1.91D+00  1.48D+00
 E= -3010.55257809412     Delta-E=       -0.000001591440 Rises=F Damp=F
 DIIS: error= 1.27D-05 at cycle  11 NSaved=  11.
 NSaved=11 IEnMin=11 EnMin= -3010.55257809412     IErMin=11 ErrMin= 1.27D-05
 ErrMax= 1.27D-05  0.00D+00 EMaxC= 1.00D-01 BMatC= 5.56D-08 BMatP= 2.36D-07
 IDIUse=1 WtCom= 1.00D+00 WtEn= 0.00D+00
 Coeff-Com: -0.152D-02 0.203D-02-0.217D-03 0.308D-02 0.890D-02 0.253D-01
 Coeff-Com:  0.220D-01-0.861D-01-0.304D+00 0.168D+00 0.116D+01
 Coeff:     -0.152D-02 0.203D-02-0.217D-03 0.308D-02 0.890D-02 0.253D-01
 Coeff:      0.220D-01-0.861D-01-0.304D+00 0.168D+00 0.116D+01
 Gap=     0.237 Goal=   None    Shift=    0.000
 RMSDP=2.40D-05 MaxDP=2.79D-03 DE=-1.59D-06 OVMax= 1.27D-03

 Cycle  12  Pass 1  IDiag  1:
 RMSU=  4.06D-06    CP:  2.46D-01  3.00D+00  1.25D+00  7.56D-01  1.02D+00
                    CP:  1.39D+00  1.71D+00  1.59D+00  2.17D+00  1.94D+00
                    CP:  1.39D+00
 E= -3010.55257860508     Delta-E=       -0.000000510960 Rises=F Damp=F
 DIIS: error= 4.32D-06 at cycle  12 NSaved=  12.
 NSaved=12 IEnMin=12 EnMin= -3010.55257860508     IErMin=12 ErrMin= 4.32D-06
 ErrMax= 4.32D-06  0.00D+00 EMaxC= 1.00D-01 BMatC= 1.30D-08 BMatP= 5.56D-08
 IDIUse=1 WtCom= 1.00D+00 WtEn= 0.00D+00
 Coeff-Com: -0.457D-03 0.601D-03-0.158D-03 0.864D-03 0.206D-02 0.985D-02
 Coeff-Com:  0.165D-01-0.222D-01-0.149D+00-0.420D-01 0.504D+00 0.680D+00
 Coeff:     -0.457D-03 0.601D-03-0.158D-03 0.864D-03 0.206D-02 0.985D-02
 Coeff:      0.165D-01-0.222D-01-0.149D+00-0.420D-01 0.504D+00 0.680D+00
 Gap=     0.237 Goal=   None    Shift=    0.000
 RMSDP=3.94D-06 MaxDP=3.91D-04 DE=-5.11D-07 OVMax= 2.46D-04

 Cycle  13  Pass 1  IDiag  1:
 RMSU=  2.36D-06    CP:  2.46D-01  3.00D+00  1.25D+00  7.56D-01  1.02D+00
                    CP:  1.39D+00  1.71D+00  1.60D+00  2.19D+00  2.01D+00
                    CP:  1.58D+00  1.13D+00
 E= -3010.55257864065     Delta-E=       -0.000000035568 Rises=F Damp=F
 DIIS: error= 2.49D-06 at cycle  13 NSaved=  13.
 NSaved=13 IEnMin=13 EnMin= -3010.55257864065     IErMin=13 ErrMin= 2.49D-06
 ErrMax= 2.49D-06  0.00D+00 EMaxC= 1.00D-01 BMatC= 1.43D-09 BMatP= 1.30D-08
 IDIUse=1 WtCom= 1.00D+00 WtEn= 0.00D+00
 Coeff-Com:  0.964D-04-0.128D-03-0.186D-04-0.449D-03-0.190D-02-0.452D-02
 Coeff-Com: -0.245D-02 0.149D-01 0.478D-01-0.558D-01-0.175D+00 0.122D+00
 Coeff-Com:  0.106D+01
 Coeff:      0.964D-04-0.128D-03-0.186D-04-0.449D-03-0.190D-02-0.452D-02
 Coeff:     -0.245D-02 0.149D-01 0.478D-01-0.558D-01-0.175D+00 0.122D+00
 Coeff:      0.106D+01
 Gap=     0.237 Goal=   None    Shift=    0.000
 RMSDP=2.20D-06 MaxDP=1.15D-04 DE=-3.56D-08 OVMax= 1.25D-04

 Cycle  14  Pass 1  IDiag  1:
 RMSU=  5.91D-07    CP:  2.46D-01  3.00D+00  1.25D+00  7.56D-01  1.02D+00
                    CP:  1.39D+00  1.71D+00  1.60D+00  2.19D+00  2.02D+00
                    CP:  1.66D+00  1.42D+00  1.33D+00
 E= -3010.55257864832     Delta-E=       -0.000000007669 Rises=F Damp=F
 DIIS: error= 1.02D-06 at cycle  14 NSaved=  14.
 NSaved=14 IEnMin=14 EnMin= -3010.55257864832     IErMin=14 ErrMin= 1.02D-06
 ErrMax= 1.02D-06  0.00D+00 EMaxC= 1.00D-01 BMatC= 1.91D-10 BMatP= 1.43D-09
 IDIUse=1 WtCom= 1.00D+00 WtEn= 0.00D+00
 Coeff-Com:  0.840D-04-0.112D-03 0.104D-04-0.185D-03-0.448D-03-0.158D-02
 Coeff-Com: -0.189D-02 0.499D-02 0.246D-01-0.832D-02-0.883D-01-0.512D-01
 Coeff-Com:  0.259D+00 0.864D+00
 Coeff:      0.840D-04-0.112D-03 0.104D-04-0.185D-03-0.448D-03-0.158D-02
 Coeff:     -0.189D-02 0.499D-02 0.246D-01-0.832D-02-0.883D-01-0.512D-01
 Coeff:      0.259D+00 0.864D+00
 Gap=     0.237 Goal=   None    Shift=    0.000
 RMSDP=7.32D-07 MaxDP=6.61D-05 DE=-7.67D-09 OVMax= 2.15D-05

 Cycle  15  Pass 1  IDiag  1:
 RMSU=  2.70D-07    CP:  2.46D-01  3.00D+00  1.25D+00  7.56D-01  1.02D+00
                    CP:  1.39D+00  1.71D+00  1.60D+00  2.18D+00  2.02D+00
                    CP:  1.67D+00  1.50D+00  1.51D+00  1.27D+00
 E= -3010.55257864893     Delta-E=       -0.000000000612 Rises=F Damp=F
 DIIS: error= 4.07D-07 at cycle  15 NSaved=  15.
 NSaved=15 IEnMin=15 EnMin= -3010.55257864893     IErMin=15 ErrMin= 4.07D-07
 ErrMax= 4.07D-07  0.00D+00 EMaxC= 1.00D-01 BMatC= 3.92D-11 BMatP= 1.91D-10
 IDIUse=1 WtCom= 1.00D+00 WtEn= 0.00D+00
 Coeff-Com:  0.266D-04-0.355D-04 0.695D-05-0.121D-04 0.130D-03 0.143D-03
 Coeff-Com: -0.309D-03-0.464D-03 0.240D-02 0.521D-02-0.965D-02-0.394D-01
 Coeff-Com: -0.455D-01 0.348D+00 0.740D+00
 Coeff:      0.266D-04-0.355D-04 0.695D-05-0.121D-04 0.130D-03 0.143D-03
 Coeff:     -0.309D-03-0.464D-03 0.240D-02 0.521D-02-0.965D-02-0.394D-01
 Coeff:     -0.455D-01 0.348D+00 0.740D+00
 Gap=     0.237 Goal=   None    Shift=    0.000
 RMSDP=2.21D-07 MaxDP=1.50D-05 DE=-6.12D-10 OVMax= 7.36D-06

 Cycle  16  Pass 1  IDiag  1:
 RMSU=  8.57D-08    CP:  2.46D-01  3.00D+00  1.25D+00  7.56D-01  1.02D+00
                    CP:  1.39D+00  1.71D+00  1.60D+00  2.18D+00  2.02D+00
                    CP:  1.67D+00  1.52D+00  1.56D+00  1.44D+00  1.06D+00
 E= -3010.55257864902     Delta-E=       -0.000000000090 Rises=F Damp=F
 DIIS: error= 1.39D-07 at cycle  16 NSaved=  16.
 NSaved=16 IEnMin=16 EnMin= -3010.55257864902     IErMin=16 ErrMin= 1.39D-07
 ErrMax= 1.39D-07  0.00D+00 EMaxC= 1.00D-01 BMatC= 3.60D-12 BMatP= 3.92D-11
 IDIUse=1 WtCom= 1.00D+00 WtEn= 0.00D+00
 Coeff-Com: -0.242D-05 0.318D-05 0.984D-06 0.199D-04 0.943D-04 0.283D-03
 Coeff-Com:  0.184D-03-0.962D-03-0.296D-02 0.355D-02 0.993D-02-0.485D-02
 Coeff-Com: -0.548D-01-0.409D-01 0.175D+00 0.915D+00
 Coeff:     -0.242D-05 0.318D-05 0.984D-06 0.199D-04 0.943D-04 0.283D-03
 Coeff:      0.184D-03-0.962D-03-0.296D-02 0.355D-02 0.993D-02-0.485D-02
 Coeff:     -0.548D-01-0.409D-01 0.175D+00 0.915D+00
 Gap=     0.237 Goal=   None    Shift=    0.000
 RMSDP=1.09D-07 MaxDP=6.48D-06 DE=-9.00D-11 OVMax= 3.59D-06

 Cycle  17  Pass 1  IDiag  1:
 RMSU=  2.78D-08    CP:  2.46D-01  3.00D+00  1.25D+00  7.56D-01  1.02D+00
                    CP:  1.39D+00  1.71D+00  1.60D+00  2.18D+00  2.02D+00
                    CP:  1.67D+00  1.53D+00  1.58D+00  1.51D+00  1.25D+00
                    CP:  1.13D+00
 E= -3010.55257864901     Delta-E=        0.000000000010 Rises=F Damp=F
 DIIS: error= 5.43D-08 at cycle  17 NSaved=  17.
 NSaved=17 IEnMin=16 EnMin= -3010.55257864902     IErMin=17 ErrMin= 5.43D-08
 ErrMax= 5.43D-08  0.00D+00 EMaxC= 1.00D-01 BMatC= 4.07D-13 BMatP= 3.60D-12
 IDIUse=1 WtCom= 1.00D+00 WtEn= 0.00D+00
 Coeff-Com: -0.237D-05 0.316D-05-0.369D-06 0.324D-05-0.101D-06 0.332D-04
 Coeff-Com:  0.723D-04-0.783D-04-0.657D-03 0.103D-03 0.221D-02 0.313D-02
 Coeff-Com: -0.339D-02-0.356D-01-0.606D-01 0.167D+00 0.928D+00
 Coeff:     -0.237D-05 0.316D-05-0.369D-06 0.324D-05-0.101D-06 0.332D-04
 Coeff:      0.723D-04-0.783D-04-0.657D-03 0.103D-03 0.221D-02 0.313D-02
 Coeff:     -0.339D-02-0.356D-01-0.606D-01 0.167D+00 0.928D+00
 Gap=     0.237 Goal=   None    Shift=    0.000
 RMSDP=3.85D-08 MaxDP=3.30D-06 DE= 1.05D-11 OVMax= 9.49D-07

 Cycle  18  Pass 1  IDiag  1:
 RMSU=  1.09D-08    CP:  2.46D-01  3.00D+00  1.25D+00  7.56D-01  1.02D+00
                    CP:  1.39D+00  1.71D+00  1.60D+00  2.18D+00  2.02D+00
                    CP:  1.66D+00  1.53D+00  1.59D+00  1.52D+00  1.31D+00
                    CP:  1.26D+00  1.36D+00
 E= -3010.55257864906     Delta-E=       -0.000000000047 Rises=F Damp=F
 DIIS: error= 1.39D-08 at cycle  18 NSaved=  18.
 NSaved=18 IEnMin=18 EnMin= -3010.55257864906     IErMin=18 ErrMin= 1.39D-08
 ErrMax= 1.39D-08  0.00D+00 EMaxC= 1.00D-01 BMatC= 1.03D-13 BMatP= 4.07D-13
 IDIUse=1 WtCom= 1.00D+00 WtEn= 0.00D+00
 Coeff-Com:  0.159D-06-0.216D-06-0.116D-06-0.242D-05-0.157D-04-0.310D-04
 Coeff-Com:  0.354D-05 0.107D-03 0.161D-03-0.489D-03-0.546D-03 0.213D-02
 Coeff-Com:  0.660D-02-0.748D-02-0.546D-01-0.739D-01 0.361D+00 0.767D+00
 Coeff:      0.159D-06-0.216D-06-0.116D-06-0.242D-05-0.157D-04-0.310D-04
 Coeff:      0.354D-05 0.107D-03 0.161D-03-0.489D-03-0.546D-03 0.213D-02
 Coeff:      0.660D-02-0.748D-02-0.546D-01-0.739D-01 0.361D+00 0.767D+00
 Gap=     0.237 Goal=   None    Shift=    0.000
 RMSDP=9.80D-09 MaxDP=4.76D-07 DE=-4.68D-11 OVMax= 2.22D-07

 SCF Done:  E(RwB97XD) =  -3010.55257865     A.U. after   18 cycles
            NFock= 18  Conv=0.98D-08     -V/T= 2.0016
 KE= 3.005813371866D+03 PE=-8.628791279393D+03 EE= 1.875751257294D+03
 Leave Link  502 at Wed May  1 15:29:36 2024, MaxMem=  1207959552 cpu:            1049.5 elap:            1049.7
 (Enter /software/gaussian/g16-c01/sse4/g16/l601.exe)
 Copying SCF densities to generalized density rwf, IOpCl= 0 IROHF=0.

 **********************************************************************

            Population analysis using the SCF Density.

 **********************************************************************

 Alpha  occ. eigenvalues -- -483.27987 -62.82952 -56.62706 -56.62049 -56.62048
 Alpha  occ. eigenvalues --  -19.44886 -19.44831 -14.84378 -10.56591 -10.56152
 Alpha  occ. eigenvalues --  -10.56031 -10.55792 -10.55628 -10.51939  -8.98714
 Alpha  occ. eigenvalues --   -6.81552  -6.79421  -6.79413  -2.91417  -2.90854
 Alpha  occ. eigenvalues --   -2.90845  -2.89143  -2.89142  -1.48642  -1.31624
 Alpha  occ. eigenvalues --   -1.21333  -1.12485  -1.10459  -1.01586  -0.99939
 Alpha  occ. eigenvalues --   -0.94067  -0.89786  -0.84258  -0.79763  -0.79470
 Alpha  occ. eigenvalues --   -0.78924  -0.77304  -0.75058  -0.74802  -0.70558
 Alpha  occ. eigenvalues --   -0.68135  -0.66411  -0.61688  -0.58456  -0.56056
 Alpha  occ. eigenvalues --   -0.55163  -0.54616  -0.52374  -0.51767
 Alpha virt. eigenvalues --   -0.28032  -0.20367  -0.14827  -0.13535  -0.11142
 Alpha virt. eigenvalues --   -0.10042  -0.09613  -0.06516  -0.05688  -0.04985
 Alpha virt. eigenvalues --   -0.02817  -0.01494  -0.00549   0.00527   0.00804
 Alpha virt. eigenvalues --    0.02372   0.02578   0.03791   0.03898   0.04847
 Alpha virt. eigenvalues --    0.05577   0.06298   0.07174   0.07369   0.07630
 Alpha virt. eigenvalues --    0.08547   0.08864   0.09534   0.11164   0.11367
 Alpha virt. eigenvalues --    0.11820   0.12379   0.12834   0.13606   0.13974
 Alpha virt. eigenvalues --    0.15526   0.16045   0.16434   0.17097   0.17275
 Alpha virt. eigenvalues --    0.17813   0.18508   0.18680   0.19478   0.20601
 Alpha virt. eigenvalues --    0.20939   0.22502   0.22788   0.23546   0.26202
 Alpha virt. eigenvalues --    0.26541   0.28839   0.29757   0.32043   0.34407
 Alpha virt. eigenvalues --    0.34985   0.35215   0.36072   0.38258   0.38369
 Alpha virt. eigenvalues --    0.39219   0.39914   0.41186   0.42002   0.43567
 Alpha virt. eigenvalues --    0.44588   0.45048   0.45703   0.47029   0.48526
 Alpha virt. eigenvalues --    0.49240   0.51606   0.52577   0.53775   0.54348
 Alpha virt. eigenvalues --    0.55503   0.56770   0.57301   0.58560   0.60489
 Alpha virt. eigenvalues --    0.62470   0.63534   0.65703   0.68493   0.70023
 Alpha virt. eigenvalues --    0.71189   0.73257   0.73717   0.74535   0.75238
 Alpha virt. eigenvalues --    0.76202   0.80251   0.81043   0.85785   0.86374
 Alpha virt. eigenvalues --    0.88110   0.89173   0.92757   0.94578   0.99800
 Alpha virt. eigenvalues --    1.00722   1.02204   1.05837   1.06358   1.07700
 Alpha virt. eigenvalues --    1.10676   1.11710   1.13152   1.13585   1.15213
 Alpha virt. eigenvalues --    1.22975   1.25414   1.27656   1.34025   1.37504
 Alpha virt. eigenvalues --    1.37855   1.39219   1.46585   1.55416   1.58130
 Alpha virt. eigenvalues --    1.59529   1.59838   1.61625   1.63402   1.67474
 Alpha virt. eigenvalues --    1.70146   1.70970   1.74572   1.76244   1.80088
 Alpha virt. eigenvalues --    1.82109   1.86411   1.88541   1.96523   1.98780
 Alpha virt. eigenvalues --    2.00275   2.03959   2.05039   2.08572   2.09617
 Alpha virt. eigenvalues --    2.11383   2.15922   2.21327   2.23591   2.30174
 Alpha virt. eigenvalues --    2.38408   2.42113   2.43222   2.44423   2.53496
 Alpha virt. eigenvalues --    2.57542   2.64022   2.67107   2.69192   2.72693
 Alpha virt. eigenvalues --    2.74365   2.77485   2.78325   2.82040   2.82978
 Alpha virt. eigenvalues --    2.94793   2.97454   3.01613   3.06708   3.10039
 Alpha virt. eigenvalues --    3.13926   3.15962   3.19999   3.24674   3.25242
 Alpha virt. eigenvalues --    3.28317   3.40101   3.48598   3.52244   3.55508
 Alpha virt. eigenvalues --    3.57861   3.70908   3.75104   3.83248   3.88304
 Alpha virt. eigenvalues --    4.12594   4.12799   4.19972   4.25250   4.45310
 Alpha virt. eigenvalues --    4.45982   4.58615   4.60903   4.94161   4.96820
 Alpha virt. eigenvalues --    5.05473   5.09640   5.63801   6.16727   6.68132
 Alpha virt. eigenvalues --    7.51329   7.52874   7.62449  23.22461  23.62347
 Alpha virt. eigenvalues --   23.71121  23.80678  23.97057  24.02472  35.33580
 Alpha virt. eigenvalues --   47.94523  49.86530  49.95340 289.83794 289.85461
 Alpha virt. eigenvalues --  289.978541020.94859
          Condensed to atoms (all electrons):
               1          2          3          4          5          6
     1  C    8.925710  -1.812056  -0.457349  -1.171060  -0.731018   0.306330
     2  C   -1.812056  13.307733  -1.295955  -4.388849   0.700846  -0.021439
     3  C   -0.457349  -1.295955  13.980017  -4.160505  -0.828518   0.034917
     4  C   -1.171060  -4.388849  -4.160505  18.500556   0.720999   0.001810
     5  C   -0.731018   0.700846  -0.828518   0.720999   7.926728   0.010519
     6  H    0.306330  -0.021439   0.034917   0.001810   0.010519   0.340041
     7  H    0.063051   0.225838   0.081097  -0.029727  -0.024715  -0.001598
     8  H    0.007261  -0.008600   0.081753   0.205501  -0.023923   0.000002
     9  H    0.038378  -0.028256   0.003300  -0.005412   0.290287  -0.002310
    10  N   -0.109446   0.365907  -1.054459   0.321829  -0.009678  -0.000766
    11  O    0.024448  -0.001545  -0.222486  -0.134811  -0.058785  -0.000026
    12  O    0.295369  -0.173675  -0.243000   0.046789  -0.048158   0.000103
    13  C    1.158885  -1.318257   0.725034  -4.133377  -1.847130   0.001729
    14  H   -0.034517   0.009410  -0.004251   0.021180   0.032479  -0.000016
    15  Br   0.037026   0.009718   0.047946  -0.047910  -0.036657   0.000035
               7          8          9         10         11         12
     1  C    0.063051   0.007261   0.038378  -0.109446   0.024448   0.295369
     2  C    0.225838  -0.008600  -0.028256   0.365907  -0.001545  -0.173675
     3  C    0.081097   0.081753   0.003300  -1.054459  -0.222486  -0.243000
     4  C   -0.029727   0.205501  -0.005412   0.321829  -0.134811   0.046789
     5  C   -0.024715  -0.023923   0.290287  -0.009678  -0.058785  -0.048158
     6  H   -0.001598   0.000002  -0.002310  -0.000766  -0.000026   0.000103
     7  H    0.301321   0.000028   0.000075  -0.026907  -0.001486   0.021644
     8  H    0.000028   0.304544   0.000193  -0.025396   0.023971  -0.000893
     9  H    0.000075   0.000193   0.341631   0.000582  -0.000025   0.000017
    10  N   -0.026907  -0.025396   0.000582   7.445458   0.177337   0.126217
    11  O   -0.001486   0.023971  -0.000025   0.177337   7.850549  -0.007599
    12  O    0.021644  -0.000893   0.000017   0.126217  -0.007599   7.902117
    13  C    0.022846   0.066552   0.019765  -0.098156   0.314106   0.045343
    14  H   -0.000067  -0.008827  -0.010039  -0.001354  -0.000031   0.000017
    15  Br   0.000436   0.007200   0.006167   0.003306   0.001871   0.003491
              13         14         15
     1  C    1.158885  -0.034517   0.037026
     2  C   -1.318257   0.009410   0.009718
     3  C    0.725034  -0.004251   0.047946
     4  C   -4.133377   0.021180  -0.047910
     5  C   -1.847130   0.032479  -0.036657
     6  H    0.001729  -0.000016   0.000035
     7  H    0.022846  -0.000067   0.000436
     8  H    0.066552  -0.008827   0.007200
     9  H    0.019765  -0.010039   0.006167
    10  N   -0.098156  -0.001354   0.003306
    11  O    0.314106  -0.000031   0.001871
    12  O    0.045343   0.000017   0.003491
    13  C   11.048884   0.250841   0.196403
    14  H    0.250841   0.477685  -0.057571
    15  Br   0.196403  -0.057571  34.447836
 Mulliken charges:
               1
     1  C   -0.541012
     2  C    0.429182
     3  C   -0.687543
     4  C    0.252985
     5  C   -0.073275
     6  H    0.330669
     7  H    0.368166
     8  H    0.370631
     9  H    0.345647
    10  N   -0.114475
    11  O    0.034511
    12  O    0.032219
    13  C   -0.453469
    14  H    0.325059
    15  Br   0.380704
 Sum of Mulliken charges =   1.00000
 Mulliken charges with hydrogens summed into heavy atoms:
               1
     1  C   -0.210343
     2  C    0.797349
     3  C   -0.687543
     4  C    0.623616
     5  C    0.272372
    10  N   -0.114475
    11  O    0.034511
    12  O    0.032219
    13  C   -0.128410
    15  Br   0.380704
 Electronic spatial extent (au):  <R**2>=           2795.3494
 Charge=              1.0000 electrons
 Dipole moment (field-independent basis, Debye):
    X=             -1.3789    Y=             -1.4617    Z=             -3.9324  Tot=              4.4160
 Quadrupole moment (field-independent basis, Debye-Ang):
   XX=            -72.0568   YY=            -50.8611   ZZ=            -58.8693
   XY=              1.9482   XZ=             -0.6982   YZ=              4.9630
 Traceless Quadrupole moment (field-independent basis, Debye-Ang):
   XX=            -11.4610   YY=              9.7346   ZZ=              1.7264
   XY=              1.9482   XZ=             -0.6982   YZ=              4.9630
 Octapole moment (field-independent basis, Debye-Ang**2):
  XXX=           -303.6714  YYY=             81.5882  ZZZ=             59.9929  XYY=            -78.4013
  XXY=             29.0251  XXZ=             19.1565  XZZ=            -80.9011  YZZ=              7.5613
  YYZ=             13.4407  XYZ=             -5.6558
 Hexadecapole moment (field-independent basis, Debye-Ang**3):
 XXXX=          -2294.2091 YYYY=           -665.0249 ZZZZ=           -313.3237 XXXY=            -65.8817
 XXXZ=            -57.6863 YYYX=            -55.5397 YYYZ=           -135.3317 ZZZX=            -15.8254
 ZZZY=           -111.0085 XXYY=           -456.6102 XXZZ=           -366.7103 YYZZ=           -144.9530
 XXYZ=            -51.5690 YYXZ=             -1.7917 ZZXY=             -3.4805
 N-N= 7.366740715834D+02 E-N=-8.628791280175D+03  KE= 3.005813371866D+03
 No NMR shielding tensors so no spin-rotation constants.
 Leave Link  601 at Wed May  1 15:29:43 2024, MaxMem=  1207959552 cpu:               7.2 elap:               7.2
 (Enter /software/gaussian/g16-c01/sse4/g16/l9999.exe)
 Unable to Open any file for archive entry.
 1\1\GINC-BHX0030\SP\RwB97XD\6-311+G(d)\C6H5Br1N1O2(1+)\BWEIGHT\01-May-
 2024\0\\#P wB97XD/6-311+G* NoSymm #P Field=Z+223\\TitleMe\\1,1\C,0,0.0
 295,1.3397,0.0682\C,0,1.4348,1.2867,0.0064\C,0,2.1118,0.0511,-0.0054\C
 ,0,1.4451,-1.1372,0.0312\C,0,-0.6879,0.1682,0.11\H,0,-0.4713,2.2984,0.
 0781\H,0,2.0273,2.1965,-0.0322\H,0,1.9897,-2.0764,0.0232\H,0,-1.7716,0
 .1804,0.1582\N,0,3.5864,0.051,-0.0675\O,0,4.1471,-1.0597,-0.0881\O,0,4
 .145,1.1639,-0.0901\C,0,-0.0236,-1.1458,0.0835\H,0,-0.4367,-1.8725,0.7
 889\Br,0,-0.5359,-1.8697,-1.7408\\Version=ES64L-G16RevC.01\HF=-3010.55
 25786\RMSD=9.802e-09\Dipole=-2.4490379,0.5730165,-0.4009311\Quadrupole
 =-8.5209951,7.2374688,1.2835263,1.4484554,-0.5190911,3.6898949\PG=C01 
 [X(C6H5Br1N1O2)]\\@
 The archive entry for this job was punched.


 SUCCESS IS COUNTED SWEETEST
 BY THOSE WHO NE'ER SUCCEED.
 TO COMPREHEND NECTAR
 REQUIRES SOREST NEED.
           EMILY DICKINSON
 Job cpu time:       0 days  0 hours 18 minutes 38.3 seconds.
 Elapsed time:       0 days  0 hours 18 minutes 38.5 seconds.
 File lengths (MBytes):  RWF=     40 Int=      0 D2E=      0 Chk=     32 Scr=      1
 Normal termination of Gaussian 16 at Wed May  1 15:29:44 2024.
