 Entering Gaussian System, Link 0=g16
 Initial command:
 /software/gaussian/g16-a03/l1.exe "/local_scratch/6484775/Gau-23829.inp" -scrdir="/local_scratch/6484775/"
 Entering Link 1 = /software/gaussian/g16-a03/l1.exe PID=     23837.
  
 Copyright (c) 1988,1990,1992,1993,1995,1998,2003,2009,2016,
            Gaussian, Inc.  All Rights Reserved.
  
 This is part of the Gaussian(R) 16 program.  It is based on
 the Gaussian(R) 09 system (copyright 2009, Gaussian, Inc.),
 the Gaussian(R) 03 system (copyright 2003, Gaussian, Inc.),
 the Gaussian(R) 98 system (copyright 1998, Gaussian, Inc.),
 the Gaussian(R) 94 system (copyright 1995, Gaussian, Inc.),
 the Gaussian 92(TM) system (copyright 1992, Gaussian, Inc.),
 the Gaussian 90(TM) system (copyright 1990, Gaussian, Inc.),
 the Gaussian 88(TM) system (copyright 1988, Gaussian, Inc.),
 the Gaussian 86(TM) system (copyright 1986, Carnegie Mellon
 University), and the Gaussian 82(TM) system (copyright 1983,
 Carnegie Mellon University). Gaussian is a federally registered
 trademark of Gaussian, Inc.
  
 This software contains proprietary and confidential information,
 including trade secrets, belonging to Gaussian, Inc.
  
 This software is provided under written license and may be
 used, copied, transmitted, or stored only in accord with that
 written license.
  
 The following legend is applicable only to US Government
 contracts under FAR:
  
                    RESTRICTED RIGHTS LEGEND
  
 Use, reproduction and disclosure by the US Government is
 subject to restrictions as set forth in subparagraphs (a)
 and (c) of the Commercial Computer Software - Restricted
 Rights clause in FAR 52.227-19.
  
 Gaussian, Inc.
 340 Quinnipiac St., Bldg. 40, Wallingford CT 06492
  
  
 ---------------------------------------------------------------
 Warning -- This program may not be used in any manner that
 competes with the business of Gaussian, Inc. or will provide
 assistance to any competitor of Gaussian, Inc.  The licensee
 of this program is prohibited from giving any competitor of
 Gaussian, Inc. access to this program.  By using this program,
 the user acknowledges that Gaussian, Inc. is engaged in the
 business of creating and licensing software in the field of
 computational chemistry and represents and warrants to the
 licensee that it is not a competitor of Gaussian, Inc. and that
 it will not use this program in any manner prohibited above.
 ---------------------------------------------------------------
  

 Cite this work as:
 Gaussian 16, Revision A.03,
 M. J. Frisch, G. W. Trucks, H. B. Schlegel, G. E. Scuseria, 
 M. A. Robb, J. R. Cheeseman, G. Scalmani, V. Barone, 
 G. A. Petersson, H. Nakatsuji, X. Li, M. Caricato, A. V. Marenich, 
 J. Bloino, B. G. Janesko, R. Gomperts, B. Mennucci, H. P. Hratchian, 
 J. V. Ortiz, A. F. Izmaylov, J. L. Sonnenberg, D. Williams-Young, 
 F. Ding, F. Lipparini, F. Egidi, J. Goings, B. Peng, A. Petrone, 
 T. Henderson, D. Ranasinghe, V. G. Zakrzewski, J. Gao, N. Rega, 
 G. Zheng, W. Liang, M. Hada, M. Ehara, K. Toyota, R. Fukuda, 
 J. Hasegawa, M. Ishida, T. Nakajima, Y. Honda, O. Kitao, H. Nakai, 
 T. Vreven, K. Throssell, J. A. Montgomery, Jr., J. E. Peralta, 
 F. Ogliaro, M. J. Bearpark, J. J. Heyd, E. N. Brothers, K. N. Kudin, 
 V. N. Staroverov, T. A. Keith, R. Kobayashi, J. Normand, 
 K. Raghavachari, A. P. Rendell, J. C. Burant, S. S. Iyengar, 
 J. Tomasi, M. Cossi, J. M. Millam, M. Klene, C. Adamo, R. Cammi, 
 J. W. Ochterski, R. L. Martin, K. Morokuma, O. Farkas, 
 J. B. Foresman, and D. J. Fox, Gaussian, Inc., Wallingford CT, 2016.
 
 ******************************************
 Gaussian 16:  ES64L-G16RevA.03 25-Dec-2016
                17-Sep-2021 
 ******************************************
 %chk=geometry.chk
 %mem=2GB
 %nprocshared=1
 Will use up to    1 processors via shared memory.
 --------------------------------------------------------------------
 #p B3LYP/6-311+G** #p TD=(singlets,nstates=30)IOp(6/8=3) IOp(9/40=4)
 --------------------------------------------------------------------
 1/38=1,172=1/1;
 2/12=2,17=6,18=5,40=1/2;
 3/5=4,6=6,7=111,11=9,25=1,30=1,74=-5/1,2,3,8;
 4//1;
 5/5=2,38=5/2;
 8/6=1,10=2,108=30/1;
 9/40=4,41=30,42=1,48=1,70=2/14;
 6/7=2,8=3,9=2,10=2/1;
 99/5=1,9=1/99;
 Leave Link    1 at Fri Sep 17 10:51:56 2021, MaxMem=   268435456 cpu:               0.0 elap:               0.7
 (Enter /software/gaussian/g16-a03/l101.exe)
 ------------------------------
 Scan Step 44, Bond Length 0.72
 ------------------------------
 Symbolic Z-matrix:
 Charge =  0 Multiplicity = 1
 C                     0.        0.       -0.52736 
 H                     0.        0.93726  -1.11871 
 H                     0.       -0.93726  -1.11871 
 O                     0.        0.        0.19264 
 
 ITRead=  0  0  0  0
 MicOpt= -1 -1 -1 -1
 NAtoms=      4 NQM=        4 NQMF=       0 NMMI=      0 NMMIF=      0
                NMic=       0 NMicF=      0.
                    Isotopes and Nuclear Properties:
 (Nuclear quadrupole moments (NQMom) in fm**2, nuclear magnetic moments (NMagM)
  in nuclear magnetons)

  Atom         1           2           3           4
 IAtWgt=          12           1           1          16
 AtmWgt=  12.0000000   1.0078250   1.0078250  15.9949146
 NucSpn=           0           1           1           0
 AtZEff=  -0.0000000  -0.0000000  -0.0000000  -0.0000000
 NQMom=    0.0000000   0.0000000   0.0000000   0.0000000
 NMagM=    0.0000000   2.7928460   2.7928460   0.0000000
 AtZNuc=   6.0000000   1.0000000   1.0000000   8.0000000
 Leave Link  101 at Fri Sep 17 10:51:56 2021, MaxMem=   268435456 cpu:               0.1 elap:               0.1
 (Enter /software/gaussian/g16-a03/l202.exe)
                          Input orientation:                          
 ---------------------------------------------------------------------
 Center     Atomic      Atomic             Coordinates (Angstroms)
 Number     Number       Type             X           Y           Z
 ---------------------------------------------------------------------
      1          6           0        0.000000    0.000000   -0.527360
      2          1           0        0.000000    0.937260   -1.118710
      3          1           0        0.000000   -0.937260   -1.118710
      4          8           0        0.000000    0.000000    0.192640
 ---------------------------------------------------------------------
                    Distance matrix (angstroms):
                    1          2          3          4
     1  C    0.000000
     2  H    1.108220   0.000000
     3  H    1.108220   1.874520   0.000000
     4  O    0.720000   1.611861   1.611861   0.000000
 Stoichiometry    CH2O
 Framework group  C2V[C2(CO),SGV(H2)]
 Deg. of freedom     3
 Full point group                 C2V     NOp   4
 Largest Abelian subgroup         C2V     NOp   4
 Largest concise Abelian subgroup C2      NOp   2
                         Standard orientation:                         
 ---------------------------------------------------------------------
 Center     Atomic      Atomic             Coordinates (Angstroms)
 Number     Number       Type             X           Y           Z
 ---------------------------------------------------------------------
      1          6           0        0.000000    0.000000   -0.286081
      2          1           0        0.000000    0.937260   -0.877431
      3          1           0       -0.000000   -0.937260   -0.877431
      4          8           0        0.000000   -0.000000    0.433919
 ---------------------------------------------------------------------
 Rotational constants (GHZ):         285.4183527          92.8189917          70.0413222
 Leave Link  202 at Fri Sep 17 10:51:56 2021, MaxMem=   268435456 cpu:               0.0 elap:               0.0
 (Enter /software/gaussian/g16-a03/l301.exe)
 Standard basis: 6-311+G(d,p) (5D, 7F)
 Ernie: Thresh=  0.10000D-02 Tol=  0.10000D-05 Strict=F.
 There are    29 symmetry adapted cartesian basis functions of A1  symmetry.
 There are     3 symmetry adapted cartesian basis functions of A2  symmetry.
 There are    11 symmetry adapted cartesian basis functions of B1  symmetry.
 There are    15 symmetry adapted cartesian basis functions of B2  symmetry.
 There are    27 symmetry adapted basis functions of A1  symmetry.
 There are     3 symmetry adapted basis functions of A2  symmetry.
 There are    11 symmetry adapted basis functions of B1  symmetry.
 There are    15 symmetry adapted basis functions of B2  symmetry.
    56 basis functions,    88 primitive gaussians,    58 cartesian basis functions
     8 alpha electrons        8 beta electrons
       nuclear repulsion energy        46.5436382328 Hartrees.
 IExCor=  402 DFT=T Ex+Corr=B3LYP ExCW=0 ScaHFX=  0.200000
 ScaDFX=  0.800000  0.720000  1.000000  0.810000 ScalE2=  1.000000  1.000000
 IRadAn=      5 IRanWt=     -1 IRanGd=            0 ICorTp=0 IEmpDi=  4
 NAtoms=    4 NActive=    4 NUniq=    3 SFac= 1.78D+00 NAtFMM=   60 NAOKFM=F Big=F
 Integral buffers will be    131072 words long.
 Regular integral format.
 Two-electron integral symmetry is turned on.
 Leave Link  301 at Fri Sep 17 10:51:56 2021, MaxMem=   268435456 cpu:               0.0 elap:               0.1
 (Enter /software/gaussian/g16-a03/l302.exe)
 NPDir=0 NMtPBC=     1 NCelOv=     1 NCel=       1 NClECP=     1 NCelD=      1
         NCelK=      1 NCelE2=     1 NClLst=     1 CellRange=     0.0.
 One-electron integrals computed using PRISM.
 One-electron integral symmetry used in STVInt
 NBasis=    56 RedAO= T EigKep=  5.98D-04  NBF=    27     3    11    15
 NBsUse=    56 1.00D-06 EigRej= -1.00D+00 NBFU=    27     3    11    15
 Precomputing XC quadrature grid using
 IXCGrd= 4 IRadAn=           5 IRanWt=          -1 IRanGd=           0 AccXCQ= 0.00D+00.
 Generated NRdTot=       0 NPtTot=           0 NUsed=           0 NTot=          32
 NSgBfM=    58    58    58    58    58 MxSgAt=     4 MxSgA2=     4.
 Leave Link  302 at Fri Sep 17 10:51:56 2021, MaxMem=   268435456 cpu:               0.1 elap:               0.1
 (Enter /software/gaussian/g16-a03/l303.exe)
 DipDrv:  MaxL=1.
 Leave Link  303 at Fri Sep 17 10:51:57 2021, MaxMem=   268435456 cpu:               0.0 elap:               0.0
 (Enter /software/gaussian/g16-a03/l308.exe)
 Leave Link  308 at Fri Sep 17 10:51:57 2021, MaxMem=   268435456 cpu:               0.0 elap:               0.0
 (Enter /software/gaussian/g16-a03/l401.exe)
 ExpMin= 4.38D-02 ExpMax= 8.59D+03 ExpMxC= 1.30D+03 IAcc=3 IRadAn=         5 AccDes= 0.00D+00
 Harris functional with IExCor=  402 and IRadAn=       5 diagonalized for initial guess.
 HarFok:  IExCor=  402 AccDes= 0.00D+00 IRadAn=         5 IDoV= 1 UseB2=F ITyADJ=14
 ICtDFT=  3500011 ScaDFX=  1.000000  1.000000  1.000000  1.000000
 FoFCou: FMM=F IPFlag=           0 FMFlag=      100000 FMFlg1=           0
         NFxFlg=           0 DoJE=T BraDBF=F KetDBF=T FulRan=T
         wScrn=  0.000000 ICntrl=       500 IOpCl=  0 I1Cent=   200000004 NGrid=           0
         NMat0=    1 NMatS0=      1 NMatT0=    0 NMatD0=    1 NMtDS0=    0 NMtDT0=    0
 Petite list used in FoFCou.
 Harris En= -113.534029861616    
 JPrj=0 DoOrth=F DoCkMO=F.
 Initial guess orbital symmetries:
       Occupied  (A1) (A1) (A1) (B2) (B1) (A1) (A1) (B2)
       Virtual   (B1) (A1) (B2) (A1) (B1) (A1) (A1) (B2) (B1) (B2)
                 (A1) (A1) (A1) (B1) (B2) (B2) (A1) (A2) (A1) (B1)
                 (B2) (A1) (A1) (B2) (B1) (A1) (A2) (B2) (B1) (A1)
                 (A1) (B2) (B1) (A1) (B2) (A1) (A2) (A1) (B2) (B1)
                 (A1) (B2) (A1) (B1) (B2) (A1) (A1) (A1)
 The electronic state of the initial guess is 1-A1.
 Leave Link  401 at Fri Sep 17 10:51:57 2021, MaxMem=   268435456 cpu:               0.3 elap:               0.3
 (Enter /software/gaussian/g16-a03/l502.exe)
 Keep R1 ints in memory in symmetry-blocked form, NReq=2159909.
 FoFCou: FMM=F IPFlag=           0 FMFlag=           0 FMFlg1=           0
         NFxFlg=           0 DoJE=F BraDBF=F KetDBF=F FulRan=T
         wScrn=  0.000000 ICntrl=       600 IOpCl=  0 I1Cent=           0 NGrid=           0
         NMat0=    1 NMatS0=   1596 NMatT0=    0 NMatD0=    1 NMtDS0=    0 NMtDT0=    0
 Petite list used in FoFCou.
 Closed shell SCF:
 Using DIIS extrapolation, IDIIS=  1040.
 NGot=   268435456 LenX=   268074384 LenY=   268070579
 Requested convergence on RMS density matrix=1.00D-08 within 128 cycles.
 Requested convergence on MAX density matrix=1.00D-06.
 Requested convergence on             energy=1.00D-06.
 No special actions if energy rises.

 Cycle   1  Pass 1  IDiag  1:
 E= -112.953839373566    
 DIIS: error= 1.15D-01 at cycle   1 NSaved=   1.
 NSaved= 1 IEnMin= 1 EnMin= -112.953839373566     IErMin= 1 ErrMin= 1.15D-01
 ErrMax= 1.15D-01  0.00D+00 EMaxC= 1.00D-01 BMatC= 5.41D-01 BMatP= 5.41D-01
 IDIUse=3 WtCom= 0.00D+00 WtEn= 1.00D+00
 Coeff-Com:  0.100D+01
 Coeff-En:   0.100D+01
 Coeff:      0.100D+01
 Gap=     0.116 Goal=   None    Shift=    0.000
 GapD=    0.116 DampG=1.000 DampE=0.250 DampFc=0.2500 IDamp=-1.
 Damping current iteration by 2.50D-01
 RMSDP=2.02D-02 MaxDP=3.24D-01              OVMax= 3.61D-01

 Cycle   2  Pass 1  IDiag  1:
 E= -113.060822310741     Delta-E=       -0.106982937175 Rises=F Damp=T
 DIIS: error= 5.81D-02 at cycle   2 NSaved=   2.
 NSaved= 2 IEnMin= 2 EnMin= -113.060822310741     IErMin= 2 ErrMin= 5.81D-02
 ErrMax= 5.81D-02  0.00D+00 EMaxC= 1.00D-01 BMatC= 1.38D-01 BMatP= 5.41D-01
 IDIUse=3 WtCom= 4.19D-01 WtEn= 5.81D-01
 Coeff-Com: -0.966D+00 0.197D+01
 Coeff-En:   0.000D+00 0.100D+01
 Coeff:     -0.405D+00 0.140D+01
 Gap=     0.205 Goal=   None    Shift=    0.000
 RMSDP=6.50D-03 MaxDP=1.36D-01 DE=-1.07D-01 OVMax= 1.65D-01

 Cycle   3  Pass 1  IDiag  1:
 E= -113.240320332413     Delta-E=       -0.179498021672 Rises=F Damp=F
 DIIS: error= 2.01D-02 at cycle   3 NSaved=   3.
 NSaved= 3 IEnMin= 3 EnMin= -113.240320332413     IErMin= 3 ErrMin= 2.01D-02
 ErrMax= 2.01D-02  0.00D+00 EMaxC= 1.00D-01 BMatC= 2.18D-02 BMatP= 1.38D-01
 IDIUse=3 WtCom= 7.99D-01 WtEn= 2.01D-01
 Coeff-Com:  0.133D+00 0.528D-01 0.815D+00
 Coeff-En:   0.000D+00 0.000D+00 0.100D+01
 Coeff:      0.106D+00 0.422D-01 0.852D+00
 Gap=     0.229 Goal=   None    Shift=    0.000
 RMSDP=2.55D-03 MaxDP=3.55D-02 DE=-1.79D-01 OVMax= 4.50D-02

 Cycle   4  Pass 1  IDiag  1:
 E= -113.252742704862     Delta-E=       -0.012422372449 Rises=F Damp=F
 DIIS: error= 5.50D-03 at cycle   4 NSaved=   4.
 NSaved= 4 IEnMin= 4 EnMin= -113.252742704862     IErMin= 4 ErrMin= 5.50D-03
 ErrMax= 5.50D-03  0.00D+00 EMaxC= 1.00D-01 BMatC= 1.50D-03 BMatP= 2.18D-02
 IDIUse=3 WtCom= 9.45D-01 WtEn= 5.50D-02
 Coeff-Com:  0.143D-01-0.777D-02 0.244D+00 0.750D+00
 Coeff-En:   0.000D+00 0.000D+00 0.000D+00 0.100D+01
 Coeff:      0.135D-01-0.734D-02 0.230D+00 0.764D+00
 Gap=     0.221 Goal=   None    Shift=    0.000
 RMSDP=6.70D-04 MaxDP=9.04D-03 DE=-1.24D-02 OVMax= 1.40D-02

 Cycle   5  Pass 1  IDiag  1:
 E= -113.253852636458     Delta-E=       -0.001109931596 Rises=F Damp=F
 DIIS: error= 6.57D-04 at cycle   5 NSaved=   5.
 NSaved= 5 IEnMin= 5 EnMin= -113.253852636458     IErMin= 5 ErrMin= 6.57D-04
 ErrMax= 6.57D-04  0.00D+00 EMaxC= 1.00D-01 BMatC= 2.04D-05 BMatP= 1.50D-03
 IDIUse=3 WtCom= 9.93D-01 WtEn= 6.57D-03
 Coeff-Com: -0.392D-02 0.294D-02 0.166D-01 0.193D+00 0.791D+00
 Coeff-En:   0.000D+00 0.000D+00 0.000D+00 0.000D+00 0.100D+01
 Coeff:     -0.389D-02 0.292D-02 0.165D-01 0.192D+00 0.793D+00
 Gap=     0.222 Goal=   None    Shift=    0.000
 RMSDP=8.51D-05 MaxDP=1.19D-03 DE=-1.11D-03 OVMax= 1.56D-03

 Cycle   6  Pass 1  IDiag  1:
 E= -113.253870928869     Delta-E=       -0.000018292411 Rises=F Damp=F
 DIIS: error= 1.74D-05 at cycle   6 NSaved=   6.
 NSaved= 6 IEnMin= 6 EnMin= -113.253870928869     IErMin= 6 ErrMin= 1.74D-05
 ErrMax= 1.74D-05  0.00D+00 EMaxC= 1.00D-01 BMatC= 1.40D-08 BMatP= 2.04D-05
 IDIUse=1 WtCom= 1.00D+00 WtEn= 0.00D+00
 Coeff-Com: -0.853D-03 0.102D-02-0.504D-03 0.596D-02 0.340D-01 0.960D+00
 Coeff:     -0.853D-03 0.102D-02-0.504D-03 0.596D-02 0.340D-01 0.960D+00
 Gap=     0.222 Goal=   None    Shift=    0.000
 RMSDP=1.99D-06 MaxDP=3.08D-05 DE=-1.83D-05 OVMax= 7.26D-05

 Cycle   7  Pass 1  IDiag  1:
 E= -113.253870939846     Delta-E=       -0.000000010977 Rises=F Damp=F
 DIIS: error= 5.37D-06 at cycle   7 NSaved=   7.
 NSaved= 7 IEnMin= 7 EnMin= -113.253870939846     IErMin= 7 ErrMin= 5.37D-06
 ErrMax= 5.37D-06  0.00D+00 EMaxC= 1.00D-01 BMatC= 1.18D-09 BMatP= 1.40D-08
 IDIUse=1 WtCom= 1.00D+00 WtEn= 0.00D+00
 Coeff-Com: -0.146D-03 0.218D-03-0.301D-03-0.224D-02-0.881D-02 0.416D-01
 Coeff-Com:  0.970D+00
 Coeff:     -0.146D-03 0.218D-03-0.301D-03-0.224D-02-0.881D-02 0.416D-01
 Coeff:      0.970D+00
 Gap=     0.222 Goal=   None    Shift=    0.000
 RMSDP=5.30D-07 MaxDP=6.12D-06 DE=-1.10D-08 OVMax= 1.59D-05

 Cycle   8  Pass 1  IDiag  1:
 E= -113.253870940711     Delta-E=       -0.000000000865 Rises=F Damp=F
 DIIS: error= 6.39D-07 at cycle   8 NSaved=   8.
 NSaved= 8 IEnMin= 8 EnMin= -113.253870940711     IErMin= 8 ErrMin= 6.39D-07
 ErrMax= 6.39D-07  0.00D+00 EMaxC= 1.00D-01 BMatC= 1.68D-11 BMatP= 1.18D-09
 IDIUse=1 WtCom= 1.00D+00 WtEn= 0.00D+00
 Coeff-Com:  0.394D-05-0.498D-05-0.114D-04-0.191D-03-0.389D-03-0.103D-01
 Coeff-Com: -0.772D-03 0.101D+01
 Coeff:      0.394D-05-0.498D-05-0.114D-04-0.191D-03-0.389D-03-0.103D-01
 Coeff:     -0.772D-03 0.101D+01
 Gap=     0.222 Goal=   None    Shift=    0.000
 RMSDP=7.18D-08 MaxDP=8.78D-07 DE=-8.65D-10 OVMax= 2.86D-06

 Cycle   9  Pass 1  IDiag  1:
 E= -113.253870940727     Delta-E=       -0.000000000016 Rises=F Damp=F
 DIIS: error= 4.93D-08 at cycle   9 NSaved=   9.
 NSaved= 9 IEnMin= 9 EnMin= -113.253870940727     IErMin= 9 ErrMin= 4.93D-08
 ErrMax= 4.93D-08  0.00D+00 EMaxC= 1.00D-01 BMatC= 7.76D-14 BMatP= 1.68D-11
 IDIUse=1 WtCom= 1.00D+00 WtEn= 0.00D+00
 Coeff-Com:  0.109D-05-0.120D-05 0.187D-06-0.767D-05-0.117D-04-0.146D-02
 Coeff-Com: -0.102D-01 0.133D+00 0.879D+00
 Coeff:      0.109D-05-0.120D-05 0.187D-06-0.767D-05-0.117D-04-0.146D-02
 Coeff:     -0.102D-01 0.133D+00 0.879D+00
 Gap=     0.222 Goal=   None    Shift=    0.000
 RMSDP=1.06D-08 MaxDP=1.45D-07 DE=-1.59D-11 OVMax= 1.53D-07

 Cycle  10  Pass 1  IDiag  1:
 E= -113.253870940727     Delta-E=        0.000000000000 Rises=F Damp=F
 DIIS: error= 2.96D-09 at cycle  10 NSaved=  10.
 NSaved=10 IEnMin= 9 EnMin= -113.253870940727     IErMin=10 ErrMin= 2.96D-09
 ErrMax= 2.96D-09  0.00D+00 EMaxC= 1.00D-01 BMatC= 3.09D-16 BMatP= 7.76D-14
 IDIUse=1 WtCom= 1.00D+00 WtEn= 0.00D+00
 Coeff-Com: -0.676D-07 0.877D-07 0.207D-06 0.256D-05 0.442D-05 0.991D-04
 Coeff-Com:  0.183D-03-0.991D-02-0.331D-01 0.104D+01
 Coeff:     -0.676D-07 0.877D-07 0.207D-06 0.256D-05 0.442D-05 0.991D-04
 Coeff:      0.183D-03-0.991D-02-0.331D-01 0.104D+01
 Gap=     0.222 Goal=   None    Shift=    0.000
 RMSDP=1.20D-09 MaxDP=1.87D-08 DE= 2.84D-13 OVMax= 2.23D-08

 SCF Done:  E(RB3LYP) =  -113.253870941     A.U. after   10 cycles
            NFock= 10  Conv=0.12D-08     -V/T= 1.9458
 KE= 1.197386246489D+02 PE=-3.632311398534D+02 EE= 8.369500603097D+01
 Leave Link  502 at Fri Sep 17 10:51:59 2021, MaxMem=   268435456 cpu:               1.7 elap:               2.0
 (Enter /software/gaussian/g16-a03/l801.exe)
 DoSCS=F DFT=T ScalE2(SS,OS)=  1.000000  1.000000
 ExpMin= 4.38D-02 ExpMax= 8.59D+03 ExpMxC= 1.30D+03 IAcc=3 IRadAn=         5 AccDes= 0.00D+00
 HarFok:  IExCor=  205 AccDes= 0.00D+00 IRadAn=         5 IDoV=-2 UseB2=F ITyADJ=14
 ICtDFT= 12500011 ScaDFX=  1.000000  1.000000  1.000000  1.000000
 Largest valence mixing into a core orbital is  3.05D-04
 Largest core mixing into a valence orbital is  1.01D-04
 Range of M.O.s used for correlation:     3    56
 NBasis=    56 NAE=     8 NBE=     8 NFC=     2 NFV=     0
 NROrb=     54 NOA=     6 NOB=     6 NVA=    48 NVB=    48

 **** Warning!!: The largest alpha MO coefficient is  0.15359911D+02

 Leave Link  801 at Fri Sep 17 10:51:59 2021, MaxMem=   268435456 cpu:               0.2 elap:               0.2
 (Enter /software/gaussian/g16-a03/l914.exe)
 RHF ground state
 Keep R1, R2, and R3 ints in memory in symmetry-blocked form, NReq=6042848.
 FoFCou: FMM=F IPFlag=           0 FMFlag=           0 FMFlg1=           0
         NFxFlg=           0 DoJE=F BraDBF=F KetDBF=F FulRan=T
         wScrn=  0.000000 ICntrl=       600 IOpCl=  0 I1Cent=           0 NGrid=           0
         NMat0=    1 NMatS0=   1596 NMatT0=    0 NMatD0=    1 NMtDS0=    0 NMtDT0=    0
 Petite list used in FoFCou.
 MDV=   268435456 DFT=T DoStab=F Mixed=T DoRPA=T DoScal=F NonHer=T
 Making orbital integer symmetry assigments:
 Orbital symmetries:
       Occupied  (A1) (A1) (A1) (B2) (B1) (A1) (A1) (B2)
       Virtual   (A1) (B1) (B2) (A1) (B1) (A1) (A1) (B2) (B1) (A1)
                 (B2) (A1) (A1) (B1) (B2) (B2) (A1) (A1) (B1) (A2)
                 (B2) (A1) (A1) (B2) (B1) (A1) (A2) (B2) (B1) (A1)
                 (A1) (B2) (B1) (A1) (B2) (A1) (A2) (A1) (B2) (B1)
                 (A1) (B2) (A1) (B1) (B2) (A1) (A1) (A1)
   120 initial guesses have been made.
 Convergence on wavefunction:    0.001000000000000
 Davidson Disk Diagonalization:  ConvIn= 1.00D-03 SkipCon=T Conv= 1.00D-03.
 Max sub-space:  1728 roots to seek:   120 dimension of matrix:          576
 Iteration     1 Dimension   120 NMult     0 NNew    120
 CISAX will form   120 AO SS matrices at one time.
 NMat=   120 NSing=   120 JSym2X=-1.
 New state      3 was old state      4
 New state      4 was old state      3
 New state      6 was old state      7
 New state      7 was old state      6
 New state     12 was old state     14
 New state     13 was old state     12
 New state     14 was old state     13
 New state     15 was old state     16
 New state     16 was old state     15
 New state     19 was old state     20
 New state     20 was old state     19
 New state     23 was old state     24
 New state     24 was old state     27
 New state     25 was old state     23
 New state     27 was old state     29
 New state     29 was old state     30
 New state     30 was old state     31
 Excitation Energies [eV] at current iteration:
 Root      1 :     5.058006526417702
 Root      2 :     5.327665635556581
 Root      3 :     5.944989885330583
 Root      4 :     6.101329969967691
 Root      5 :     7.941761889618475
 Root      6 :     9.194076398189338
 Root      7 :     9.636247679772266
 Root      8 :     9.862808311157330
 Root      9 :    10.387200263490480
 Root     10 :    11.209011370811430
 Root     11 :    12.245369905386550
 Root     12 :    14.183197045455440
 Root     13 :    14.225968408194910
 Root     14 :    14.575151287710180
 Root     15 :    15.169117002631330
 Root     16 :    15.221655689964670
 Root     17 :    15.402443198579830
 Root     18 :    15.456824673383850
 Root     19 :    16.036531935700550
 Root     20 :    16.040178696382090
 Root     21 :    17.294740300036550
 Root     22 :    17.649818724138010
 Root     23 :    18.278390502493740
 Root     24 :    18.372354761497620
 Root     25 :    18.509076031594320
 Root     26 :    18.694179838154740
 Root     27 :    18.750693244560510
 Root     28 :    19.069267641144590
 Root     29 :    19.252055354341720
 Root     30 :    19.307734808740390
 Root     31 :    19.345957194908110
 Root     32 :    19.364091595989840
 Root     33 :    19.437009958434560
 Root     34 :    19.467919204785430
 Root     35 :    19.598782921025680
 Root     36 :    19.619190651701440
 Root     37 :    19.899648952769250
 Root     38 :    20.042849113754960
 Root     39 :    20.364156287286180
 Root     40 :    20.371290658132020
 Root     41 :    20.592195514713120
 Root     42 :    20.680448755448040
 Root     43 :    21.046713460865400
 Root     44 :    21.318655247275500
 Root     45 :    21.823229568724920
 Root     46 :    21.911578573923040
 Root     47 :    22.057153455613260
 Root     48 :    22.119263192765050
 Root     49 :    22.687356486367250
 Root     50 :    22.815469297198530
 Root     51 :    23.060151857787710
 Root     52 :    23.547540415978570
 Root     53 :    23.640764665175560
 Root     54 :    23.720028982892740
 Root     55 :    24.017543051924270
 Root     56 :    24.058428120764360
 Root     57 :    24.351618536637440
 Root     58 :    24.473055850851010
 Root     59 :    24.601687799103220
 Root     60 :    24.872300930358500
 Root     61 :    25.430083837905750
 Root     62 :    25.496104151677060
 Root     63 :    27.060249817107740
 Root     64 :    27.463933299373790
 Root     65 :    27.680448255596010
 Root     66 :    28.844148709250210
 Root     67 :    28.868920786931520
 Root     68 :    28.922914890289890
 Root     69 :    28.944073060180740
 Root     70 :    29.292492908474930
 Root     71 :    29.838373673472780
 Root     72 :    29.960356702641680
 Root     73 :    30.710213019570460
 Root     74 :    31.110813831297300
 Root     75 :    32.138493893299750
 Root     76 :    32.345704052996750
 Root     77 :    32.488679980030990
 Root     78 :    32.517737410542380
 Root     79 :    32.952051214241380
 Root     80 :    32.956223217543300
 Root     81 :    33.156789082786110
 Root     82 :    33.326707593776690
 Root     83 :    33.442933595011790
 Root     84 :    34.218041105485130
 Root     85 :    35.067144104672830
 Root     86 :    35.273532580973640
 Root     87 :    35.805458013237680
 Root     88 :    35.816828712502730
 Root     89 :    36.276972958101770
 Root     90 :    36.387796478611310
 Root     91 :    37.228385317460760
 Root     92 :    38.048312515541840
 Root     93 :    38.186193105859420
 Root     94 :    38.685950798739860
 Root     95 :    39.225119405567700
 Root     96 :    39.252634212908550
 Root     97 :    39.550470612744050
 Root     98 :    39.782375218903470
 Root     99 :    39.915854500404040
 Root    100 :    40.058741116474950
 Root    101 :    40.128372870854380
 Root    102 :    40.143890857800300
 Root    103 :    40.805012380996530
 Root    104 :    40.930247311752550
 Root    105 :    40.950594265875710
 Root    106 :    41.311042475689790
 Root    107 :    41.392868276172090
 Root    108 :    41.493273456024320
 Root    109 :    41.688447411942620
 Root    110 :    41.956536358509410
 Root    111 :    42.931614580607790
 Root    112 :    43.874841418453530
 Root    113 :    44.155312939881680
 Root    114 :    44.287901886554290
 Root    115 :    44.518173144936360
 Root    116 :    44.648848630513950
 Root    117 :    44.742269713787320
 Root    118 :    44.929643508697420
 Root    119 :    45.452027346509690
 Root    120 :    47.898843459376910
 Iteration     2 Dimension   180 NMult   120 NNew     60
 CISAX will form    60 AO SS matrices at one time.
 NMat=    60 NSing=    60 JSym2X=-1.
 Root      1 not converged, maximum delta is    0.002357925704055
 Root      2 not converged, maximum delta is    0.003783479559165
 Root      3 not converged, maximum delta is    0.003387641045461
 Root      4 not converged, maximum delta is    0.005461148022828
 Root      5 not converged, maximum delta is    0.004530321098826
 Root      6 not converged, maximum delta is    0.009327883547256
 Root      7 not converged, maximum delta is    0.009184896721195
 Root      8 not converged, maximum delta is    0.002927241141898
 Root      9 not converged, maximum delta is    0.003287598229854
 Root     10 not converged, maximum delta is    0.002530243761275
 Root     11 not converged, maximum delta is    0.006943824469742
 Root     12 not converged, maximum delta is    0.010428881885672
 Root     13 not converged, maximum delta is    0.011320112383206
 Root     14 not converged, maximum delta is    0.009726875799015
 Root     15 not converged, maximum delta is    0.007336311663755
 Root     16 not converged, maximum delta is    0.005782769663367
 Root     17 not converged, maximum delta is    0.009285458020083
 Root     18 not converged, maximum delta is    0.012688432281670
 New state     19 was old state     20
 Root     19 not converged, maximum delta is    0.007377648961126
 New state     20 was old state     19
 Root     20 not converged, maximum delta is    0.006044402253918
 Root     21 not converged, maximum delta is    0.029228716827886
 Root     22 not converged, maximum delta is    0.002808638166742
 Root     23 not converged, maximum delta is    0.096958841779997
 Root     24 not converged, maximum delta is    0.012324929156304
 Root     25 not converged, maximum delta is    0.105636911961431
 Root     26 not converged, maximum delta is    0.009740322144823
 Root     27 not converged, maximum delta is    0.003235682077637
 Root     28 not converged, maximum delta is    0.015354086244291
 Root     29 not converged, maximum delta is    0.164800814054775
 Root     30 not converged, maximum delta is    0.008281842097063
 Excitation Energies [eV] at current iteration:
 Root      1 :     5.055014272991521   Change is   -0.002992253426181
 Root      2 :     5.324102403481432   Change is   -0.003563232075149
 Root      3 :     5.941139428823871   Change is   -0.003850456506711
 Root      4 :     6.095141085598497   Change is   -0.006188884369194
 Root      5 :     7.935464658362528   Change is   -0.006297231255947
 Root      6 :     9.186383883513974   Change is   -0.007692514675364
 Root      7 :     9.622633991024339   Change is   -0.013613688747927
 Root      8 :     9.853710374795321   Change is   -0.009097936362010
 Root      9 :    10.384454671070660   Change is   -0.002745592419815
 Root     10 :    11.204053014409460   Change is   -0.004958356401969
 Root     11 :    12.230909867649810   Change is   -0.014460037736732
 Root     12 :    14.168739540755050   Change is   -0.014457504700394
 Root     13 :    14.206490341565600   Change is   -0.019478066629312
 Root     14 :    14.561916882928620   Change is   -0.013234404781559
 Root     15 :    15.152552557172680   Change is   -0.016564445458645
 Root     16 :    15.209775228053880   Change is   -0.011880461910795
 Root     17 :    15.384444664750220   Change is   -0.017998533829604
 Root     18 :    15.436350788296050   Change is   -0.020473885087801
 Root     19 :    16.027705078949590   Change is   -0.012473617432499
 Root     20 :    16.029786975793640   Change is   -0.006744959906906
 Root     21 :    17.203890349309490   Change is   -0.090849950727066
 Root     22 :    17.646066666200610   Change is   -0.003752057937399
 Root     23 :    18.259426610091220   Change is   -0.018963892402517
 Root     24 :    18.365674651818480   Change is   -0.006680109679138
 Root     25 :    18.428939964566640   Change is   -0.080136067027684
 Root     26 :    18.673936243669700   Change is   -0.020243594485029
 Root     27 :    18.747315264689170   Change is   -0.003377979871338
 Root     28 :    19.038952252729070   Change is   -0.030315388415521
 Root     29 :    19.227352560087610   Change is   -0.024702794254106
 Root     30 :    19.307346861762330   Change is   -0.000387946978061
 Iteration     3 Dimension   240 NMult   180 NNew     60
 CISAX will form    60 AO SS matrices at one time.
 NMat=    60 NSing=    60 JSym2X=-1.
 Root      1 has converged.
 Root      2 has converged.
 Root      3 has converged.
 Root      4 has converged.
 Root      5 has converged.
 Root      6 has converged.
 Root      7 has converged.
 Root      8 has converged.
 Root      9 has converged.
 Root     10 has converged.
 Root     11 has converged.
 Root     12 has converged.
 Root     13 has converged.
 Root     14 has converged.
 Root     15 has converged.
 Root     16 has converged.
 Root     17 has converged.
 Root     18 has converged.
 Root     19 has converged.
 Root     20 has converged.
 Root     21 has converged.
 Root     22 has converged.
 Root     23 has converged.
 Root     24 has converged.
 Root     25 has converged.
 Root     26 has converged.
 Root     27 has converged.
 Root     28 has converged.
 Root     29 has converged.
 Root     30 has converged.
 Excitation Energies [eV] at current iteration:
 Root      1 :     5.055013434501242   Change is   -0.000000838490278
 Root      2 :     5.324101220948606   Change is   -0.000001182532826
 Root      3 :     5.941137540698247   Change is   -0.000001888125623
 Root      4 :     6.095139155467654   Change is   -0.000001930130844
 Root      5 :     7.935461701247032   Change is   -0.000002957115496
 Root      6 :     9.186382197426166   Change is   -0.000001686087808
 Root      7 :     9.622628460311226   Change is   -0.000005530713112
 Root      8 :     9.853701750075386   Change is   -0.000008624719935
 Root      9 :    10.384451768218080   Change is   -0.000002902852582
 Root     10 :    11.204046150329000   Change is   -0.000006864080459
 Root     11 :    12.230888489541060   Change is   -0.000021378108758
 Root     12 :    14.168718787093170   Change is   -0.000020753661876
 Root     13 :    14.206456930716680   Change is   -0.000033410848920
 Root     14 :    14.561861080194460   Change is   -0.000055802734160
 Root     15 :    15.152513131757370   Change is   -0.000039425415316
 Root     16 :    15.209750325014800   Change is   -0.000024903039083
 Root     17 :    15.384405446422380   Change is   -0.000039218327846
 Root     18 :    15.436299650895390   Change is   -0.000051137400658
 Root     19 :    16.027690070075440   Change is   -0.000015008874147
 Root     20 :    16.029775841793170   Change is   -0.000011134000476
 Root     21 :    17.203381760489670   Change is   -0.000508588819813
 Root     22 :    17.646057278258340   Change is   -0.000009387942265
 Root     23 :    18.259335004009460   Change is   -0.000091606081753
 Root     24 :    18.365658283335330   Change is   -0.000016368483155
 Root     25 :    18.428609632686540   Change is   -0.000330331880102
 Root     26 :    18.673892740480380   Change is   -0.000043503189322
 Root     27 :    18.747305529767260   Change is   -0.000009734921908
 Root     28 :    19.038852608371950   Change is   -0.000099644357112
 Root     29 :    19.227312683173420   Change is   -0.000039876914190
 Root     30 :    19.307346114472160   Change is   -0.000000747290164
 Convergence achieved on expansion vectors.
 ***********************************************************************
 Excited states from <AA,BB:AA,BB> singles matrix:
 ***********************************************************************
 
 1PDM for each excited state written to RWF  633
 Ground to excited state transition densities written to RWF  633
 Ground to excited state transition electric dipole moments (Au):
       state          X           Y           Z        Dip. S.      Osc.
         1        -0.0000      0.9656     -0.0000      0.9324      0.1155
         2        -0.0000      0.0000      0.0000      0.0000      0.0000
         3         0.0000      0.4628      0.0000      0.2142      0.0312
         4         0.0000     -0.0000      0.3275      0.1073      0.0160
         5         0.0000      0.0000     -0.0000      0.0000      0.0000
         6         0.0000     -0.6370     -0.0000      0.4058      0.0913
         7         0.0000     -1.2395     -0.0000      1.5362      0.3622
         8         0.0000      0.0000     -0.0947      0.0090      0.0022
         9        -0.0000     -0.0000      0.0000      0.0000      0.0000
        10         0.0000      0.3850     -0.0000      0.1482      0.0407
        11         0.0000     -0.0000      0.9374      0.8786      0.2633
        12        -0.0000     -0.1967     -0.0000      0.0387      0.0134
        13        -0.0000     -0.0000      0.2260      0.0511      0.0178
        14        -0.0135     -0.0000      0.0000      0.0002      0.0001
        15         0.0000     -0.3189     -0.0000      0.1017      0.0377
        16         0.0000      0.0000     -0.2414      0.0583      0.0217
        17        -0.0000      0.0000      0.0238      0.0006      0.0002
        18        -0.5583      0.0000      0.0000      0.3117      0.1179
        19        -0.0000     -0.1323     -0.0000      0.0175      0.0069
        20         0.0000      0.0000     -0.5648      0.3189      0.1253
        21         0.5125      0.0000      0.0000      0.2627      0.1107
        22         0.0000      0.0000     -0.1294      0.0168      0.0072
        23         0.4093     -0.0000      0.0000      0.1675      0.0749
        24        -0.0000     -0.0000      0.4468      0.1996      0.0898
        25        -0.2271      0.0000     -0.0000      0.0516      0.0233
        26         0.0000      0.0000      0.1834      0.0336      0.0154
        27        -0.0000     -0.3406     -0.0000      0.1160      0.0533
        28         0.0000      0.0000      0.1764      0.0311      0.0145
        29        -0.0000      0.0545      0.0000      0.0030      0.0014
        30        -0.0000      0.0000      0.0000      0.0000      0.0000
 Ground to excited state transition velocity dipole moments (Au):
       state          X           Y           Z        Dip. S.      Osc.
         1         0.0000     -0.1706     -0.0000      0.0291      0.1045
         2         0.0000     -0.0000     -0.0000      0.0000      0.0000
         3        -0.0000     -0.0988     -0.0000      0.0098      0.0298
         4         0.0000      0.0000     -0.0708      0.0050      0.0149
         5        -0.0000     -0.0000      0.0000      0.0000      0.0000
         6        -0.0000      0.2351     -0.0000      0.0553      0.1092
         7         0.0000      0.4142      0.0000      0.1716      0.3235
         8        -0.0000     -0.0000      0.0292      0.0009      0.0016
         9        -0.0000      0.0000     -0.0000      0.0000      0.0000
        10        -0.0000     -0.1532      0.0000      0.0235      0.0380
        11         0.0000     -0.0000     -0.4114      0.1692      0.2510
        12         0.0000      0.0730      0.0000      0.0053      0.0068
        13         0.0000      0.0000     -0.1156      0.0134      0.0171
        14        -0.0056      0.0000      0.0000      0.0000      0.0000
        15        -0.0000      0.1758      0.0000      0.0309      0.0370
        16         0.0000     -0.0000      0.1370      0.0188      0.0224
        17         0.0000      0.0000     -0.0078      0.0001      0.0001
        18         0.3091      0.0000     -0.0000      0.0955      0.1123
        19         0.0000      0.0835      0.0000      0.0070      0.0079
        20        -0.0000     -0.0000      0.3247      0.1054      0.1193
        21        -0.3286     -0.0000     -0.0000      0.1080      0.1139
        22        -0.0000     -0.0000      0.0826      0.0068      0.0070
        23        -0.2883      0.0000     -0.0000      0.0831      0.0826
        24         0.0000     -0.0000     -0.2990      0.0894      0.0883
        25         0.1591     -0.0000      0.0000      0.0253      0.0249
        26        -0.0000     -0.0000     -0.1394      0.0194      0.0189
        27         0.0000      0.2358      0.0000      0.0556      0.0538
        28        -0.0000     -0.0000     -0.1226      0.0150      0.0143
        29         0.0000     -0.0239     -0.0000      0.0006      0.0005
        30         0.0000     -0.0000      0.0000      0.0000      0.0000
 Ground to excited state transition magnetic dipole moments (Au):
       state          X           Y           Z
         1        -0.4354      0.0000      0.0000
         2        -0.0000      0.0000     -0.9803
         3         0.7889     -0.0000     -0.0000
         4        -0.0000      0.0000     -0.0000
         5        -0.0000     -0.0000     -0.8714
         6        -0.1793      0.0000      0.0000
         7         1.2477     -0.0000     -0.0000
         8        -0.0000     -0.0000     -0.0000
         9         0.0000     -0.0000     -0.4085
        10         0.1384      0.0000     -0.0000
        11         0.0000      0.0000      0.0000
        12         1.4565     -0.0000      0.0000
        13         0.0000     -0.0000      0.0000
        14         0.0000     -0.1495     -0.0000
        15        -0.3087     -0.0000     -0.0000
        16         0.0000      0.0000      0.0000
        17        -0.0000     -0.0000     -0.0000
        18         0.0000     -0.6175     -0.0000
        19        -0.1005      0.0000      0.0000
        20         0.0000     -0.0000     -0.0000
        21         0.0000     -0.9315     -0.0000
        22        -0.0000      0.0000     -0.0000
        23         0.0000      0.4599     -0.0000
        24        -0.0000     -0.0000     -0.0000
        25         0.0000     -0.3627     -0.0000
        26         0.0000      0.0000      0.0000
        27        -0.2739     -0.0000      0.0000
        28        -0.0000      0.0000     -0.0000
        29        -0.0474      0.0000      0.0000
        30         0.0000     -0.0000      0.0016
 Ground to excited state transition velocity quadrupole moments (Au):
       state          XX          YY          ZZ          XY          XZ          YZ
         1         0.0000     -0.0000     -0.0000     -0.0000      0.0000      0.4075
         2         0.0000      0.0000      0.0000      0.3361      0.0000      0.0000
         3         0.0000      0.0000     -0.0000      0.0000     -0.0000      0.4162
         4         0.2602      0.7726      0.1290     -0.0000      0.0000     -0.0000
         5        -0.0000     -0.0000     -0.0000      0.0494     -0.0000     -0.0000
         6        -0.0000     -0.0000     -0.0000      0.0000      0.0000     -0.7802
         7         0.0000     -0.0000      0.0000     -0.0000      0.0000     -0.6429
         8        -0.2317     -0.6115     -0.5726     -0.0000     -0.0000      0.0000
         9         0.0000      0.0000      0.0000     -0.1760     -0.0000     -0.0000
        10        -0.0000     -0.0000     -0.0000     -0.0000      0.0000      0.0712
        11         0.0047      0.9759      0.8775     -0.0000      0.0000     -0.0000
        12         0.0000      0.0000      0.0000     -0.0000     -0.0000     -0.2052
        13        -0.1037     -0.1218     -0.3063      0.0000      0.0000     -0.0000
        14        -0.0000      0.0000      0.0000      0.0000      0.1137     -0.0000
        15        -0.0000     -0.0000      0.0000      0.0000     -0.0000      0.2776
        16        -0.2342     -0.4534      0.0145     -0.0000      0.0000     -0.0000
        17         0.4205      0.6818      0.6900      0.0000     -0.0000      0.0000
        18        -0.0000     -0.0000     -0.0000      0.0000     -0.6120     -0.0000
        19        -0.0000     -0.0000     -0.0000     -0.0000     -0.0000      0.0112
        20        -0.1467     -0.2522     -1.0982      0.0000     -0.0000     -0.0000
        21        -0.0000      0.0000     -0.0000      0.0000     -0.6641     -0.0000
        22        -0.1024     -0.1624      0.1644      0.0000      0.0000     -0.0000
        23        -0.0000      0.0000     -0.0000      0.0000      0.3010     -0.0000
        24         0.0939      0.2349     -0.9739      0.0000     -0.0000      0.0000
        25        -0.0000     -0.0000      0.0000      0.0000     -0.3841     -0.0000
        26        -0.6861      1.1039      0.5397     -0.0000      0.0000     -0.0000
        27        -0.0000      0.0000      0.0000     -0.0000      0.0000      0.5673
        28         0.5377      0.4814      0.1380      0.0000      0.0000      0.0000
        29         0.0000     -0.0000     -0.0000     -0.0000      0.0000     -0.2950
        30        -0.0000      0.0000      0.0000      0.2718     -0.0000      0.0000
 <0|del|b> * <b|rxdel|0> + <0|del|b> * <b|delr+rdel|0>
 Rotatory Strengths (R) in cgs (10**-40 erg-esu-cm/Gauss)
       state          XX          YY          ZZ    R(velocity)    E-M Angle
         1         0.0000     -0.0000     -0.0000     -0.0000       90.00
         2         0.0000      0.0000     -0.0000      0.0000       90.00
         3         0.0000     -0.0000     -0.0000     -0.0000       90.00
         4         0.0000      0.0000     -0.0000      0.0000       90.00
         5        -0.0000     -0.0000      0.0000     -0.0000       90.00
         6         0.0000      0.0000     -0.0000      0.0000       90.00
         7        -0.0000      0.0000      0.0000      0.0000       90.00
         8        -0.0000     -0.0000      0.0000     -0.0000       90.00
         9         0.0000      0.0000     -0.0000      0.0000       90.00
        10        -0.0000     -0.0000     -0.0000     -0.0000       90.00
        11         0.0000     -0.0000     -0.0000     -0.0000       90.00
        12         0.0000      0.0000      0.0000      0.0000       90.00
        13        -0.0000      0.0000      0.0000     -0.0000       90.00
        14        -0.0000     -0.0000     -0.0000     -0.0000       90.00
        15        -0.0000      0.0000     -0.0000     -0.0000       90.00
        16        -0.0000      0.0000     -0.0000      0.0000       90.00
        17        -0.0000      0.0000     -0.0000      0.0000       90.00
        18        -0.0000     -0.0000     -0.0000     -0.0000       90.00
        19         0.0000     -0.0000     -0.0000     -0.0000       90.00
        20         0.0000     -0.0000     -0.0000     -0.0000       90.00
        21         0.0000      0.0000     -0.0000      0.0000       90.00
        22         0.0000     -0.0000     -0.0000     -0.0000       90.00
        23         0.0000      0.0000     -0.0000     -0.0000       90.00
        24        -0.0000      0.0000     -0.0000      0.0000       90.00
        25        -0.0000     -0.0000      0.0000      0.0000       90.00
        26         0.0000     -0.0000     -0.0000     -0.0000       90.00
        27        -0.0000      0.0000     -0.0000     -0.0000       90.00
        28        -0.0000      0.0000      0.0000      0.0000       90.00
        29         0.0000     -0.0000      0.0000     -0.0000       90.00
        30         0.0000     -0.0000      0.0000      0.0000       90.00
 1/2[<0|r|b>*<b|rxdel|0> + (<0|rxdel|b>*<b|r|0>)*]
 Rotatory Strengths (R) in cgs (10**-40 erg-esu-cm/Gauss)
       state          XX          YY          ZZ     R(length)
         1        -0.0000     -0.0000      0.0000     -0.0000
         2        -0.0000     -0.0000      0.0000      0.0000
         3        -0.0000      0.0000      0.0000      0.0000
         4         0.0000      0.0000      0.0000      0.0000
         5         0.0000      0.0000     -0.0000     -0.0000
         6         0.0000      0.0000      0.0000      0.0000
         7        -0.0000     -0.0000     -0.0000     -0.0000
         8         0.0000      0.0000     -0.0000     -0.0000
         9         0.0000     -0.0000      0.0000      0.0000
        10        -0.0000     -0.0000     -0.0000     -0.0000
        11        -0.0000      0.0000     -0.0000     -0.0000
        12         0.0000     -0.0000      0.0000      0.0000
        13         0.0000     -0.0000     -0.0000     -0.0000
        14         0.0000     -0.0000      0.0000      0.0000
        15         0.0000     -0.0000     -0.0000     -0.0000
        16        -0.0000     -0.0000      0.0000      0.0000
        17        -0.0000      0.0000      0.0000      0.0000
        18         0.0000      0.0000      0.0000      0.0000
        19        -0.0000      0.0000      0.0000     -0.0000
        20        -0.0000      0.0000     -0.0000     -0.0000
        21        -0.0000      0.0000      0.0000     -0.0000
        22         0.0000     -0.0000     -0.0000     -0.0000
        23        -0.0000      0.0000      0.0000     -0.0000
        24        -0.0000     -0.0000      0.0000      0.0000
        25         0.0000      0.0000     -0.0000      0.0000
        26        -0.0000     -0.0000     -0.0000     -0.0000
        27        -0.0000     -0.0000      0.0000     -0.0000
        28         0.0000     -0.0000      0.0000      0.0000
        29        -0.0000     -0.0000     -0.0000     -0.0000
        30         0.0000      0.0000     -0.0000     -0.0000
  1/2[<0|del|b>*<b|r|0> + (<0|r|b>*<b|del|0>)*] (Au)
       state          X           Y           Z        Dip. S.   Osc.(frdel)
         1        -0.0000     -0.1647      0.0000      0.1647      0.1098
         2        -0.0000     -0.0000     -0.0000      0.0000      0.0000
         3        -0.0000     -0.0457     -0.0000      0.0457      0.0305
         4         0.0000     -0.0000     -0.0232      0.0232      0.0154
         5        -0.0000     -0.0000     -0.0000      0.0000      0.0000
         6        -0.0000     -0.1498      0.0000      0.1498      0.0999
         7         0.0000     -0.5134     -0.0000      0.5134      0.3423
         8        -0.0000     -0.0000     -0.0028      0.0028      0.0018
         9         0.0000     -0.0000     -0.0000      0.0000      0.0000
        10        -0.0000     -0.0590     -0.0000      0.0590      0.0393
        11         0.0000      0.0000     -0.3856      0.3856      0.2571
        12        -0.0000     -0.0144     -0.0000      0.0144      0.0096
        13        -0.0000     -0.0000     -0.0261      0.0261      0.0174
        14         0.0001     -0.0000      0.0000     -0.0001     -0.0000
        15        -0.0000     -0.0561     -0.0000      0.0561      0.0374
        16         0.0000     -0.0000     -0.0331      0.0331      0.0220
        17        -0.0000      0.0000     -0.0002      0.0002      0.0001
        18        -0.1726      0.0000     -0.0000      0.1726      0.1150
        19        -0.0000     -0.0110     -0.0000      0.0110      0.0074
        20        -0.0000     -0.0000     -0.1834      0.1834      0.1222
        21        -0.1684     -0.0000     -0.0000      0.1684      0.1123
        22        -0.0000     -0.0000     -0.0107      0.0107      0.0071
        23        -0.1180     -0.0000     -0.0000      0.1180      0.0787
        24        -0.0000      0.0000     -0.1336      0.1336      0.0891
        25        -0.0361     -0.0000     -0.0000      0.0361      0.0241
        26        -0.0000     -0.0000     -0.0256      0.0256      0.0170
        27        -0.0000     -0.0803     -0.0000      0.0803      0.0535
        28        -0.0000     -0.0000     -0.0216      0.0216      0.0144
        29        -0.0000     -0.0013     -0.0000      0.0013      0.0009
        30        -0.0000     -0.0000      0.0000      0.0000      0.0000

 Excitation energies and oscillator strengths:
 
 Excited State   1:      Singlet-B2     5.0550 eV  245.27 nm  f=0.1155  <S**2>=0.000
       3 -> 11         0.00075
       3 -> 16         0.00052
       3 -> 19         0.00079
       3 -> 23         0.00033
       3 -> 24        -0.00099
       3 -> 29        -0.00021
       3 -> 32        -0.00014
       3 -> 40         0.00017
       3 -> 43         0.00020
       3 -> 50        -0.00012
       3 -> 53         0.00014
       4 ->  9        -0.00289
       4 -> 12         0.00367
       4 -> 14         0.00384
       4 -> 15         0.00158
       4 -> 18         0.00313
       4 -> 20         0.00193
       4 -> 21         0.00186
       4 -> 25         0.00151
       4 -> 26        -0.00079
       4 -> 30         0.00013
       4 -> 31         0.00169
       4 -> 34         0.00038
       4 -> 38        -0.00072
       4 -> 42        -0.00051
       4 -> 44        -0.00034
       4 -> 46        -0.00076
       4 -> 49         0.00022
       5 -> 28         0.00165
       5 -> 35         0.00070
       5 -> 45         0.00083
       6 -> 11        -0.00622
       6 -> 16         0.00285
       6 -> 19         0.00060
       6 -> 23        -0.00133
       6 -> 24        -0.00466
       6 -> 29        -0.00082
       6 -> 32        -0.00092
       6 -> 36         0.00045
       6 -> 43         0.00024
       6 -> 47         0.00024
       7 -> 11         0.00646
       7 -> 16         0.00379
       7 -> 19         0.00282
       7 -> 23        -0.00037
       7 -> 24        -0.00123
       7 -> 29         0.00083
       7 -> 32         0.00063
       7 -> 36        -0.00065
       7 -> 43        -0.00043
       7 -> 47         0.00044
       7 -> 50         0.00045
       7 -> 53        -0.00011
       8 ->  9         0.70561
       8 -> 12        -0.00016
       8 -> 14         0.04199
       8 -> 15        -0.00799
       8 -> 18        -0.02172
       8 -> 20         0.00575
       8 -> 21         0.00978
       8 -> 25        -0.00026
       8 -> 26        -0.00012
       8 -> 30         0.00237
       8 -> 31        -0.00265
       8 -> 34        -0.00115
       8 -> 38        -0.00111
       8 -> 39         0.00022
       8 -> 42        -0.00072
       8 -> 44         0.00025
       8 -> 46         0.00085
       8 -> 49        -0.00030
       8 -> 51         0.00011
       3 <- 11         0.00030
       3 <- 16         0.00019
       3 <- 19         0.00052
       3 <- 23         0.00024
       3 <- 24        -0.00075
       3 <- 29        -0.00019
       3 <- 32        -0.00016
       3 <- 40         0.00017
       3 <- 43         0.00019
       3 <- 53         0.00015
       4 <-  9        -0.00144
       4 <- 12        -0.00024
       4 <- 14         0.00314
       4 <- 15         0.00186
       4 <- 18         0.00070
       4 <- 20         0.00104
       4 <- 21         0.00138
       4 <- 25         0.00136
       4 <- 26        -0.00130
       4 <- 31         0.00068
       4 <- 34         0.00026
       4 <- 38        -0.00046
       4 <- 39         0.00016
       4 <- 42        -0.00043
       4 <- 44        -0.00026
       4 <- 46        -0.00068
       4 <- 49         0.00016
       5 <- 28         0.00135
       5 <- 35         0.00057
       5 <- 45         0.00070
       6 <- 11        -0.00081
       6 <- 16         0.00268
       6 <- 19         0.00122
       6 <- 23        -0.00048
       6 <- 24        -0.00347
       6 <- 29        -0.00045
       6 <- 32        -0.00077
       6 <- 36         0.00043
       6 <- 43         0.00014
       6 <- 47         0.00021
       6 <- 50         0.00011
       7 <- 11         0.00129
       7 <- 16         0.00188
       7 <- 19         0.00027
       7 <- 23        -0.00013
       7 <- 24        -0.00029
       7 <- 29         0.00137
       7 <- 32         0.00047
       7 <- 36        -0.00036
       7 <- 43        -0.00030
       7 <- 47         0.00046
       7 <- 50         0.00052
       8 <-  9        -0.00722
       8 <- 12        -0.00459
       8 <- 14         0.01835
       8 <- 15         0.00527
       8 <- 18         0.00148
       8 <- 20         0.00028
       8 <- 21         0.00496
       8 <- 25         0.00314
       8 <- 26         0.00029
       8 <- 30         0.00157
       8 <- 31        -0.00163
       8 <- 34        -0.00144
       8 <- 38        -0.00106
       8 <- 39         0.00018
       8 <- 42        -0.00058
       8 <- 46         0.00071
       8 <- 49        -0.00023
 This state for optimization and/or second-order correction.
 Total Energy, E(TD-HF/TD-DFT) =  -113.068102615    
 Copying the excited state density for this state as the 1-particle RhoCI density.
 
 Excited State   2:      Singlet-A2     5.3241 eV  232.87 nm  f=0.0000  <S**2>=0.000
       3 -> 28        -0.00197
       3 -> 35        -0.00130
       3 -> 45        -0.00051
       4 -> 10        -0.00123
       4 -> 13        -0.00219
       4 -> 17        -0.00428
       4 -> 22         0.00214
       4 -> 27        -0.00234
       4 -> 33        -0.00020
       4 -> 37        -0.00180
       4 -> 41        -0.00021
       4 -> 48        -0.00013
       4 -> 52        -0.00034
       5 -> 11         0.00034
       5 -> 19         0.00037
       5 -> 23        -0.00107
       5 -> 24        -0.00017
       5 -> 29        -0.00013
       5 -> 32        -0.00014
       5 -> 36        -0.00036
       5 -> 43        -0.00040
       5 -> 47        -0.00042
       5 -> 50         0.00019
       5 -> 53        -0.00012
       6 -> 28        -0.00357
       6 -> 35         0.00052
       6 -> 45         0.00014
       7 -> 28         0.00069
       7 -> 35        -0.00021
       7 -> 45        -0.00056
       8 -> 10         0.70523
       8 -> 13         0.04299
       8 -> 17         0.02895
       8 -> 22         0.00188
       8 -> 27         0.00227
       8 -> 33         0.00317
       8 -> 37        -0.00209
       8 -> 41         0.00014
       8 -> 48         0.00012
       8 -> 52         0.00044
       3 <- 28        -0.00159
       3 <- 35        -0.00113
       3 <- 45        -0.00050
       4 <- 10        -0.00017
       4 <- 13        -0.00085
       4 <- 17        -0.00067
       4 <- 27        -0.00030
       4 <- 33         0.00082
       4 <- 37        -0.00095
       4 <- 41        -0.00028
       5 <- 11         0.00069
       5 <- 16        -0.00066
       5 <- 19         0.00180
       5 <- 23        -0.00177
       5 <- 24        -0.00138
       5 <- 29        -0.00137
       5 <- 32         0.00031
       5 <- 36        -0.00091
       5 <- 43        -0.00048
       5 <- 47        -0.00039
       5 <- 53        -0.00032
       6 <- 28        -0.00354
       6 <- 35         0.00065
       6 <- 45         0.00014
       7 <- 28         0.00079
       7 <- 35        -0.00023
       7 <- 45        -0.00053
       8 <- 10         0.00017
       8 <- 13        -0.00638
       8 <- 17        -0.00557
       8 <- 22         0.00020
       8 <- 27        -0.00044
       8 <- 33         0.00304
       8 <- 37        -0.00170
       8 <- 41         0.00014
       8 <- 52         0.00015
 
 Excited State   3:      Singlet-B2     5.9411 eV  208.69 nm  f=0.0312  <S**2>=0.000
       3 -> 11        -0.00012
       3 -> 16         0.00050
       3 -> 19        -0.00024
       3 -> 23         0.00027
       3 -> 24        -0.00039
       3 -> 29         0.00051
       3 -> 32         0.00013
       3 -> 36        -0.00023
       3 -> 43        -0.00024
       3 -> 47         0.00016
       3 -> 50         0.00013
       3 -> 53        -0.00016
       4 ->  9         0.00239
       4 -> 12         0.00035
       4 -> 14         0.00152
       4 -> 15         0.00290
       4 -> 18        -0.00174
       4 -> 20        -0.00036
       4 -> 21         0.00133
       4 -> 25         0.00083
       4 -> 26         0.00076
       4 -> 30         0.00198
       4 -> 31        -0.00117
       4 -> 34        -0.00013
       4 -> 38         0.00017
       4 -> 39        -0.00096
       4 -> 42         0.00036
       4 -> 46         0.00057
       4 -> 49        -0.00016
       4 -> 51        -0.00010
       5 -> 28        -0.00098
       5 -> 35        -0.00127
       5 -> 45        -0.00076
       6 -> 11         0.00028
       6 -> 16         0.00451
       6 -> 19        -0.00109
       6 -> 23        -0.00028
       6 -> 24        -0.00287
       6 -> 29        -0.00178
       6 -> 32         0.00046
       6 -> 36         0.00048
       6 -> 40        -0.00040
       6 -> 43         0.00026
       6 -> 47        -0.00017
       6 -> 50        -0.00017
       7 -> 11        -0.00264
       7 -> 16        -0.00317
       7 -> 19        -0.00179
       7 -> 23         0.00099
       7 -> 24         0.00255
       7 -> 29         0.00049
       7 -> 32        -0.00037
       7 -> 36         0.00076
       7 -> 40        -0.00016
       7 -> 43         0.00031
       7 -> 47        -0.00063
       7 -> 50        -0.00039
       7 -> 53         0.00017
       8 ->  9        -0.00067
       8 -> 12         0.70584
       8 -> 14         0.02760
       8 -> 15         0.02682
       8 -> 18         0.01036
       8 -> 20         0.01581
       8 -> 21         0.00498
       8 -> 25        -0.00080
       8 -> 26         0.00152
       8 -> 30         0.00237
       8 -> 34        -0.00030
       8 -> 38        -0.00018
       8 -> 39         0.00135
       8 -> 42        -0.00088
       8 -> 46        -0.00055
       8 -> 49         0.00018
       8 -> 54        -0.00015
       3 <- 16         0.00050
       3 <- 23         0.00012
       3 <- 24        -0.00044
       3 <- 29         0.00033
       3 <- 32         0.00013
       3 <- 36        -0.00025
       3 <- 43        -0.00021
       3 <- 47         0.00012
       3 <- 53        -0.00022
       4 <-  9        -0.00127
       4 <- 14         0.00142
       4 <- 15         0.00070
       4 <- 18         0.00063
       4 <- 20        -0.00043
       4 <- 21         0.00091
       4 <- 25         0.00096
       4 <- 26         0.00076
       4 <- 30         0.00138
       4 <- 31        -0.00037
       4 <- 34        -0.00065
       4 <- 38         0.00012
       4 <- 39        -0.00072
       4 <- 42         0.00036
       4 <- 46         0.00055
       5 <- 28        -0.00056
       5 <- 35        -0.00109
       5 <- 45        -0.00067
       6 <- 11        -0.00026
       6 <- 16         0.00102
       6 <- 19         0.00060
       6 <- 23        -0.00079
       6 <- 24        -0.00197
       6 <- 29        -0.00118
       6 <- 32         0.00061
       6 <- 36         0.00054
       6 <- 40        -0.00036
       6 <- 43         0.00017
       6 <- 47        -0.00015
       7 <- 11        -0.00023
       7 <- 16        -0.00112
       7 <- 19        -0.00050
       7 <- 23         0.00047
       7 <- 24         0.00125
       7 <- 29        -0.00015
       7 <- 32        -0.00024
       7 <- 36         0.00038
       7 <- 40        -0.00011
       7 <- 43         0.00021
       7 <- 47        -0.00055
       7 <- 50        -0.00045
       8 <-  9        -0.00423
       8 <- 12         0.00127
       8 <- 14         0.01003
       8 <- 15         0.00363
       8 <- 18        -0.00123
       8 <- 20        -0.00282
       8 <- 21         0.00327
       8 <- 25         0.00064
       8 <- 26        -0.00022
       8 <- 30         0.00210
       8 <- 39         0.00113
       8 <- 42        -0.00077
       8 <- 46        -0.00045
 
 Excited State   4:      Singlet-A1     6.0951 eV  203.41 nm  f=0.0160  <S**2>=0.000
       3 ->  9         0.00122
       3 -> 12        -0.00056
       3 -> 14         0.00016
       3 -> 15        -0.00066
       3 -> 18        -0.00142
       3 -> 21         0.00067
       3 -> 25        -0.00050
       3 -> 26        -0.00024
       3 -> 30        -0.00087
       3 -> 31        -0.00052
       3 -> 34         0.00034
       3 -> 38         0.00032
       3 -> 39         0.00032
       3 -> 46        -0.00012
       3 -> 51         0.00020
       3 -> 54        -0.00016
       4 -> 11        -0.00644
       4 -> 16        -0.00707
       4 -> 19        -0.00469
       4 -> 23        -0.00211
       4 -> 24         0.00336
       4 -> 29        -0.00054
       4 -> 32         0.00010
       4 -> 36        -0.00104
       4 -> 43         0.00028
       4 -> 50         0.00025
       5 -> 10        -0.00428
       5 -> 13         0.00302
       5 -> 17        -0.00379
       5 -> 22        -0.00339
       5 -> 27        -0.00102
       5 -> 33        -0.00092
       5 -> 37        -0.00058
       5 -> 41        -0.00020
       5 -> 48         0.00028
       6 ->  9         0.00995
       6 -> 12         0.00847
       6 -> 14        -0.00509
       6 -> 15        -0.00420
       6 -> 18        -0.00550
       6 -> 20         0.00601
       6 -> 21         0.00034
       6 -> 25        -0.00635
       6 -> 26         0.00110
       6 -> 30         0.00045
       6 -> 31         0.00137
       6 -> 34         0.00177
       6 -> 38         0.00102
       6 -> 39        -0.00123
       6 -> 44         0.00052
       6 -> 49         0.00046
       7 ->  9         0.00910
       7 -> 12        -0.01031
       7 -> 14         0.00075
       7 -> 15         0.00327
       7 -> 18        -0.00791
       7 -> 20        -0.00229
       7 -> 25         0.00087
       7 -> 26        -0.00200
       7 -> 30         0.00016
       7 -> 31        -0.00156
       7 -> 34         0.00046
       7 -> 38        -0.00024
       7 -> 39         0.00030
       7 -> 44        -0.00021
       7 -> 51        -0.00020
       8 -> 11         0.70495
       8 -> 16         0.04981
       8 -> 19        -0.01664
       8 -> 23         0.00014
       8 -> 24        -0.00473
       8 -> 29         0.00413
       8 -> 32         0.00181
       8 -> 36        -0.00306
       8 -> 40         0.00029
       8 -> 43         0.00177
       8 -> 47        -0.00076
       8 -> 50         0.00013
       3 <-  9         0.00062
       3 <- 12        -0.00026
       3 <- 14         0.00011
       3 <- 15        -0.00039
       3 <- 18        -0.00088
       3 <- 21         0.00040
       3 <- 25        -0.00041
       3 <- 26        -0.00020
       3 <- 30        -0.00061
       3 <- 31        -0.00031
       3 <- 34         0.00030
       3 <- 38         0.00023
       3 <- 39         0.00027
       3 <- 46        -0.00016
       3 <- 51         0.00017
       3 <- 54        -0.00014
       4 <- 11        -0.00249
       4 <- 16        -0.00275
       4 <- 19        -0.00260
       4 <- 23        -0.00156
       4 <- 24         0.00180
       4 <- 29        -0.00026
       4 <- 32         0.00019
       4 <- 36        -0.00087
       4 <- 43         0.00025
       4 <- 50         0.00022
       5 <- 10        -0.00217
       5 <- 13         0.00160
       5 <- 17        -0.00217
       5 <- 22        -0.00227
       5 <- 27        -0.00072
       5 <- 33        -0.00075
       5 <- 37        -0.00049
       5 <- 41        -0.00017
       5 <- 48         0.00025
       6 <-  9         0.00781
       6 <- 12         0.00391
       6 <- 14        -0.00398
       6 <- 15        -0.00349
       6 <- 18        -0.00305
       6 <- 20         0.00340
       6 <- 21         0.00108
       6 <- 25        -0.00417
       6 <- 26         0.00063
       6 <- 30        -0.00011
       6 <- 31         0.00110
       6 <- 34         0.00127
       6 <- 38         0.00106
       6 <- 39        -0.00097
       6 <- 44         0.00053
       6 <- 49         0.00037
       7 <-  9         0.00172
       7 <- 12        -0.00392
       7 <- 14         0.00112
       7 <- 15         0.00225
       7 <- 18        -0.00370
       7 <- 20        -0.00104
       7 <- 21        -0.00016
       7 <- 25         0.00060
       7 <- 26        -0.00123
       7 <- 30         0.00024
       7 <- 31        -0.00122
       7 <- 34         0.00031
       7 <- 38        -0.00022
       7 <- 39         0.00012
       7 <- 44        -0.00022
       7 <- 46         0.00010
       7 <- 51        -0.00019
       8 <- 11        -0.00758
       8 <- 16         0.00488
       8 <- 19        -0.01450
       8 <- 23        -0.00343
       8 <- 24        -0.00099
       8 <- 29         0.00274
       8 <- 32         0.00159
       8 <- 36        -0.00238
       8 <- 43         0.00141
       8 <- 47        -0.00076
       8 <- 50         0.00013
 
 Excited State   5:      Singlet-A2     7.9355 eV  156.24 nm  f=0.0000  <S**2>=0.000
       3 -> 28        -0.00267
       3 -> 35        -0.00187
       3 -> 45        -0.00070
       4 -> 10        -0.00188
       4 -> 13        -0.00896
       4 -> 17        -0.00112
       4 -> 22         0.00348
       4 -> 27        -0.00077
       4 -> 33        -0.00144
       4 -> 37        -0.00297
       4 -> 41        -0.00013
       4 -> 52        -0.00043
       5 -> 16         0.00093
       5 -> 19         0.00043
       5 -> 23        -0.00164
       5 -> 24        -0.00052
       5 -> 29         0.00016
       5 -> 32        -0.00012
       5 -> 36        -0.00050
       5 -> 43        -0.00063
       5 -> 47        -0.00053
       5 -> 50         0.00012
       5 -> 53        -0.00017
       6 -> 28        -0.00291
       6 -> 35         0.00078
       7 -> 28         0.00054
       7 -> 35        -0.00031
       7 -> 45        -0.00073
       8 -> 10        -0.04468
       8 -> 13         0.70390
       8 -> 17         0.04463
       8 -> 22        -0.02210
       8 -> 27         0.00301
       8 -> 33         0.00271
       8 -> 37        -0.00273
       8 -> 52         0.00048
       3 <- 28        -0.00181
       3 <- 35        -0.00154
       3 <- 45        -0.00077
       4 <- 10        -0.00033
       4 <- 13        -0.00083
       4 <- 17        -0.00025
       4 <- 22         0.00012
       4 <- 27        -0.00016
       4 <- 33         0.00065
       4 <- 37        -0.00111
       4 <- 41        -0.00035
       4 <- 52        -0.00014
       5 <- 11        -0.00030
       5 <- 16         0.00031
       5 <- 19         0.00081
       5 <- 23        -0.00234
       5 <- 24        -0.00163
       5 <- 29        -0.00043
       5 <- 32         0.00069
       5 <- 36        -0.00139
       5 <- 43        -0.00082
       5 <- 47        -0.00024
       5 <- 53        -0.00038
       6 <- 28        -0.00322
       6 <- 35         0.00048
       6 <- 45         0.00015
       7 <- 28         0.00060
       7 <- 45        -0.00046
       8 <- 10        -0.00634
       8 <- 13        -0.00415
       8 <- 17        -0.00340
       8 <- 22         0.00075
       8 <- 27        -0.00046
       8 <- 33         0.00289
       8 <- 37        -0.00174
       8 <- 41         0.00017
       8 <- 52         0.00019
 
 Excited State   6:      Singlet-B2     9.1864 eV  134.97 nm  f=0.0913  <S**2>=0.000
       3 -> 11         0.00038
       3 -> 16        -0.00072
       3 -> 19         0.00080
       3 -> 23        -0.00038
       3 -> 24         0.00023
       3 -> 29        -0.00063
       3 -> 32         0.00052
       3 -> 36         0.00011
       3 -> 40        -0.00039
       3 -> 43        -0.00026
       3 -> 47        -0.00019
       4 ->  9         0.00343
       4 -> 12        -0.00410
       4 -> 14        -0.00847
       4 -> 15         0.00024
       4 -> 18        -0.00169
       4 -> 20        -0.00531
       4 -> 21        -0.00715
       4 -> 25        -0.00241
       4 -> 26        -0.00031
       4 -> 30         0.00240
       4 -> 34        -0.00061
       4 -> 38        -0.00091
       4 -> 39         0.00088
       4 -> 44        -0.00019
       4 -> 46         0.00020
       4 -> 51         0.00022
       4 -> 54         0.00017
       5 -> 28        -0.00367
       5 -> 45         0.00033
       6 -> 11         0.01286
       6 -> 16        -0.00805
       6 -> 19         0.00875
       6 -> 23         0.00303
       6 -> 24         0.00882
       6 -> 29         0.00085
       6 -> 32        -0.00273
       6 -> 36         0.00274
       6 -> 40         0.00016
       6 -> 43        -0.00116
       6 -> 47         0.00020
       6 -> 50         0.00011
       7 -> 11        -0.00612
       7 -> 16        -0.00102
       7 -> 19        -0.00308
       7 -> 23         0.00037
       7 -> 24        -0.00126
       7 -> 29        -0.00054
       7 -> 32         0.00026
       7 -> 36        -0.00062
       7 -> 43         0.00041
       7 -> 47         0.00013
       8 ->  9        -0.03623
       8 -> 12        -0.00194
       8 -> 14         0.51740
       8 -> 15        -0.47959
       8 -> 18         0.00073
       8 -> 20        -0.01600
       8 -> 21        -0.03162
       8 -> 25        -0.01204
       8 -> 26         0.00361
       8 -> 30        -0.00385
       8 -> 31         0.00265
       8 -> 34         0.00201
       8 -> 38        -0.00270
       8 -> 39         0.00170
       8 -> 42         0.00193
       8 -> 44        -0.00182
       8 -> 46         0.00017
       8 -> 49        -0.00046
       8 -> 51         0.00014
       3 <- 11         0.00010
       3 <- 16        -0.00028
       3 <- 19         0.00022
       3 <- 23        -0.00030
       3 <- 24         0.00037
       3 <- 29        -0.00015
       3 <- 32         0.00033
       3 <- 36         0.00015
       3 <- 40        -0.00033
       3 <- 43        -0.00026
       3 <- 47        -0.00017
       4 <-  9         0.00108
       4 <- 12        -0.00042
       4 <- 14        -0.00398
       4 <- 15        -0.00168
       4 <- 18        -0.00030
       4 <- 20        -0.00266
       4 <- 21        -0.00382
       4 <- 25        -0.00136
       4 <- 26         0.00077
       4 <- 30         0.00126
       4 <- 31        -0.00029
       4 <- 38        -0.00082
       4 <- 39         0.00056
       4 <- 44        -0.00029
       5 <- 28        -0.00279
       5 <- 35         0.00027
       5 <- 45         0.00043
       6 <- 11         0.00373
       6 <- 16        -0.00289
       6 <- 19         0.00247
       6 <- 23         0.00304
       6 <- 24         0.00502
       6 <- 29         0.00024
       6 <- 32        -0.00145
       6 <- 36         0.00180
       6 <- 40         0.00023
       6 <- 43        -0.00094
       6 <- 47         0.00023
       6 <- 53        -0.00010
       7 <- 11        -0.00123
       7 <- 16        -0.00066
       7 <- 19        -0.00031
       7 <- 23        -0.00055
       7 <- 24        -0.00087
       7 <- 29        -0.00087
       7 <- 36        -0.00044
       7 <- 43         0.00033
       8 <-  9         0.01148
       8 <- 12         0.00628
       8 <- 14        -0.02259
       8 <- 15        -0.00706
       8 <- 18         0.00063
       8 <- 20        -0.00119
       8 <- 21        -0.01645
       8 <- 25        -0.00380
       8 <- 26         0.00018
       8 <- 30        -0.00228
       8 <- 31         0.00081
       8 <- 34         0.00106
       8 <- 38        -0.00182
       8 <- 39         0.00104
       8 <- 42         0.00143
       8 <- 44        -0.00105
       8 <- 46         0.00011
       8 <- 49        -0.00038
       8 <- 51         0.00013
 
 Excited State   7:      Singlet-B2     9.6226 eV  128.85 nm  f=0.3622  <S**2>=0.000
       3 -> 11         0.00011
       3 -> 16        -0.00127
       3 -> 19         0.00089
       3 -> 23        -0.00182
       3 -> 24         0.00041
       3 -> 29        -0.00133
       3 -> 32         0.00110
       3 -> 36        -0.00057
       3 -> 40        -0.00064
       3 -> 43        -0.00082
       4 ->  9         0.00416
       4 -> 12        -0.00148
       4 -> 14        -0.01236
       4 -> 15        -0.01008
       4 -> 18        -0.00253
       4 -> 20        -0.01069
       4 -> 21        -0.00790
       4 -> 25        -0.00408
       4 -> 26         0.00395
       4 -> 30         0.00411
       4 -> 31        -0.00304
       4 -> 34        -0.00037
       4 -> 38        -0.00065
       4 -> 39         0.00071
       4 -> 42         0.00011
       4 -> 44         0.00033
       4 -> 46        -0.00010
       4 -> 51        -0.00024
       5 -> 28        -0.00675
       5 -> 35        -0.00112
       5 -> 45         0.00019
       6 -> 11         0.01995
       6 -> 16        -0.00846
       6 -> 19         0.00946
       6 -> 23         0.00772
       6 -> 24         0.01246
       6 -> 29        -0.00026
       6 -> 32        -0.00101
       6 -> 36         0.00292
       6 -> 40        -0.00034
       6 -> 43        -0.00164
       6 -> 50         0.00020
       7 -> 11        -0.01385
       7 -> 16        -0.00639
       7 -> 19        -0.00623
       7 -> 23        -0.00393
       7 -> 24         0.00073
       7 -> 29        -0.00236
       7 -> 32        -0.00058
       7 -> 36        -0.00071
       7 -> 40         0.00031
       7 -> 43         0.00044
       7 -> 47         0.00011
       8 ->  9        -0.02158
       8 -> 12        -0.03906
       8 -> 14         0.47620
       8 -> 15         0.51780
       8 -> 18         0.03230
       8 -> 20        -0.00189
       8 -> 21        -0.05403
       8 -> 25        -0.00441
       8 -> 26        -0.00380
       8 -> 30        -0.00441
       8 -> 31         0.00492
       8 -> 34         0.00278
       8 -> 38        -0.00156
       8 -> 39         0.00329
       8 -> 42         0.00294
       8 -> 44        -0.00141
       8 -> 46        -0.00026
       8 -> 49        -0.00033
       3 <- 11         0.00025
       3 <- 16        -0.00074
       3 <- 19         0.00078
       3 <- 23        -0.00103
       3 <- 29        -0.00107
       3 <- 32         0.00080
       3 <- 36        -0.00046
       3 <- 40        -0.00049
       3 <- 43        -0.00065
       3 <- 47        -0.00010
       4 <-  9         0.00230
       4 <- 12        -0.00110
       4 <- 14        -0.00620
       4 <- 15        -0.00344
       4 <- 18        -0.00170
       4 <- 20        -0.00518
       4 <- 21        -0.00459
       4 <- 25        -0.00264
       4 <- 26         0.00203
       4 <- 30         0.00292
       4 <- 31        -0.00159
       4 <- 34         0.00028
       4 <- 38        -0.00045
       4 <- 39         0.00037
       4 <- 42         0.00015
       5 <- 28        -0.00456
       5 <- 35        -0.00068
       5 <- 45         0.00024
       6 <- 11         0.00429
       6 <- 16        -0.00459
       6 <- 19         0.00162
       6 <- 23         0.00340
       6 <- 24         0.00812
       6 <- 29         0.00024
       6 <- 32         0.00013
       6 <- 36         0.00222
       6 <- 40        -0.00012
       6 <- 43        -0.00123
       6 <- 47         0.00011
       7 <- 11        -0.00275
       7 <- 16        -0.00104
       7 <- 19        -0.00188
       7 <- 23        -0.00122
       7 <- 29        -0.00106
       7 <- 32        -0.00075
       7 <- 36        -0.00045
       7 <- 40         0.00021
       7 <- 43         0.00032
       7 <- 47         0.00012
       8 <-  9         0.01871
       8 <- 12         0.01111
       8 <- 14        -0.03522
       8 <- 15        -0.00867
       8 <- 18         0.00111
       8 <- 20        -0.00445
       8 <- 21        -0.02072
       8 <- 25        -0.00646
       8 <- 26         0.00093
       8 <- 30        -0.00207
       8 <- 31         0.00288
       8 <- 34         0.00192
       8 <- 38        -0.00060
       8 <- 39         0.00205
       8 <- 42         0.00222
       8 <- 44        -0.00096
       8 <- 49        -0.00030
 
 Excited State   8:      Singlet-A1     9.8537 eV  125.82 nm  f=0.0022  <S**2>=0.000
       3 ->  9        -0.00012
       3 -> 12         0.00035
       3 -> 14        -0.00094
       3 -> 15         0.00097
       3 -> 18         0.00055
       3 -> 20         0.00075
       3 -> 21        -0.00118
       3 -> 25         0.00093
       3 -> 34        -0.00167
       3 -> 38         0.00012
       3 -> 39         0.00020
       3 -> 42         0.00052
       3 -> 44         0.00010
       3 -> 46         0.00053
       3 -> 49         0.00054
       3 -> 51         0.00062
       3 -> 54        -0.00037
       4 -> 11         0.00084
       4 -> 16         0.00107
       4 -> 19         0.00135
       4 -> 23         0.00271
       4 -> 24        -0.00101
       4 -> 29         0.00070
       4 -> 32         0.00080
       4 -> 36         0.00048
       4 -> 40        -0.00033
       4 -> 43        -0.00079
       4 -> 47         0.00074
       4 -> 50         0.00074
       4 -> 53         0.00021
       5 -> 10         0.00836
       5 -> 13        -0.00136
       5 -> 17         0.00796
       5 -> 22         0.00186
       5 -> 27         0.00505
       5 -> 33         0.00039
       5 -> 37        -0.00046
       5 -> 48         0.00125
       5 -> 52         0.00059
       6 ->  9        -0.01394
       6 -> 12         0.00103
       6 -> 14        -0.00051
       6 -> 15         0.00379
       6 -> 18         0.00807
       6 -> 20        -0.00701
       6 -> 21        -0.00375
       6 -> 25         0.00086
       6 -> 26         0.00168
       6 -> 30         0.00189
       6 -> 34         0.00099
       6 -> 38        -0.00176
       6 -> 39         0.00037
       6 -> 44        -0.00059
       6 -> 46         0.00019
       6 -> 49        -0.00014
       6 -> 51        -0.00059
       7 ->  9        -0.00831
       7 -> 12         0.00645
       7 -> 14         0.00101
       7 -> 15        -0.01038
       7 -> 18         0.00631
       7 -> 20         0.00018
       7 -> 21         0.00310
       7 -> 25         0.00049
       7 -> 26         0.00802
       7 -> 30        -0.00137
       7 -> 31         0.00134
       7 -> 34        -0.00116
       7 -> 39        -0.00063
       7 -> 44        -0.00045
       7 -> 46         0.00084
[...]
  48        5S          0.00181   0.00000  -0.02369  -0.03114  -0.00767
  49        5PX         0.00000   0.00000   0.00000   0.00000   0.00000
  50        5PY         0.00000  -0.00000  -0.05210  -0.08763  -0.10018
  51        5PZ        -0.00007  -0.00000   0.00494   0.00715   0.00022
  52        6D 0       -0.00034  -0.00000  -0.00300  -0.00523   0.00116
  53        6D+1       -0.00000   0.00000   0.00000  -0.00000  -0.00000
  54        6D-1       -0.00000   0.00000  -0.00142   0.00042   0.01024
  55        6D+2       -0.00001  -0.00000  -0.00022  -0.00035  -0.00002
  56        6D-2       -0.00000  -0.00000  -0.00000  -0.00000   0.00000
                          26        27        28        29        30
  26        4PX         0.00009
  27        4PY        -0.00000   0.00161
  28        4PZ         0.00000  -0.00070   0.00053
  29 3   H  1S          0.00000  -0.00481  -0.00031   0.08704
  30        2S          0.00000  -0.00692  -0.00050   0.13199   0.20439
  31        3S          0.00000  -0.00258  -0.00017   0.10408   0.17360
  32        4PX         0.00009   0.00000   0.00000  -0.00000  -0.00000
  33        4PY         0.00000  -0.00087  -0.00005   0.00641   0.00819
  34        4PZ        -0.00000   0.00005  -0.00031   0.00395   0.00514
  35 4   O  1S          0.00000  -0.00165  -0.00054   0.00475   0.00795
  36        2S          0.00000  -0.00322  -0.00041   0.00845   0.01414
  37        2PX         0.00359   0.00000  -0.00000  -0.00000  -0.00000
  38        2PY         0.00000  -0.00738   0.00656   0.02799   0.06080
  39        2PZ         0.00000  -0.00757   0.00011   0.00778   0.01963
  40        3S         -0.00000   0.01113  -0.00051  -0.02867  -0.04681
  41        3PX         0.00498   0.00000  -0.00000  -0.00000  -0.00000
  42        3PY         0.00000  -0.01020   0.00890   0.04535   0.09512
  43        3PZ         0.00000  -0.00983   0.00010   0.00945   0.02483
  44        4S         -0.00000   0.00869  -0.00154  -0.04017  -0.05441
  45        4PX         0.00263   0.00000  -0.00000  -0.00000  -0.00000
  46        4PY         0.00000  -0.00599   0.00416   0.07192   0.13127
  47        4PZ         0.00000  -0.00516   0.00006   0.00425   0.01226
  48        5S         -0.00000   0.00469  -0.00126  -0.02369  -0.03114
  49        5PX        -0.00017   0.00000   0.00000  -0.00000  -0.00000
  50        5PY         0.00000  -0.00046  -0.00078   0.05210   0.08763
  51        5PZ         0.00000  -0.00140   0.00025   0.00494   0.00715
  52        6D 0       -0.00000   0.00141  -0.00012  -0.00300  -0.00523
  53        6D+1       -0.00077  -0.00000   0.00000  -0.00000   0.00000
  54        6D-1       -0.00000   0.00145  -0.00145   0.00142  -0.00042
  55        6D+2        0.00000   0.00008  -0.00001  -0.00022  -0.00035
  56        6D-2       -0.00000   0.00000   0.00000  -0.00000  -0.00000
                          31        32        33        34        35
  31        3S          0.19835
  32        4PX         0.00000   0.00009
  33        4PY        -0.00096  -0.00000   0.00161
  34        4PZ         0.00098  -0.00000   0.00070   0.00053
  35 4   O  1S          0.00341  -0.00000   0.00165  -0.00054   0.64121
  36        2S          0.00459  -0.00000   0.00322  -0.00041   0.57370
  37        2PX        -0.00000   0.00359   0.00000   0.00000   0.00000
  38        2PY         0.11725   0.00000  -0.00738  -0.00656  -0.00000
  39        2PZ        -0.01547  -0.00000   0.00757   0.00011   0.00736
  40        3S         -0.01008   0.00000  -0.01113  -0.00051  -0.11889
  41        3PX        -0.00000   0.00498   0.00000   0.00000   0.00000
  42        3PY         0.17429   0.00000  -0.01020  -0.00890  -0.00000
  43        3PZ        -0.02077  -0.00000   0.00983   0.00010   0.00067
  44        4S         -0.02323   0.00000  -0.00869  -0.00154  -0.11534
  45        4PX        -0.00000   0.00263   0.00000   0.00000   0.00000
  46        4PY         0.18591   0.00000  -0.00599  -0.00416   0.00000
  47        4PZ        -0.01279  -0.00000   0.00516   0.00006  -0.01140
  48        5S         -0.00767   0.00000  -0.00469  -0.00126  -0.02103
  49        5PX        -0.00000  -0.00017   0.00000  -0.00000   0.00000
  50        5PY         0.10018   0.00000  -0.00046   0.00078  -0.00000
  51        5PZ         0.00022  -0.00000   0.00140   0.00025   0.00475
  52        6D 0        0.00116   0.00000  -0.00141  -0.00012  -0.00189
  53        6D+1        0.00000  -0.00077  -0.00000  -0.00000   0.00000
  54        6D-1       -0.01024  -0.00000   0.00145   0.00145   0.00000
  55        6D+2       -0.00002   0.00000  -0.00008  -0.00001  -0.00042
  56        6D-2        0.00000   0.00000   0.00000   0.00000  -0.00000
                          36        37        38        39        40
  36        2S          0.53297
  37        2PX         0.00000   0.13894
  38        2PY        -0.00000  -0.00000   0.18444
  39        2PZ         0.01425   0.00000   0.00000   0.23998
  40        3S         -0.22179   0.00000   0.00000  -0.05098   0.69983
  41        3PX         0.00000   0.19283  -0.00000   0.00000   0.00000
  42        3PY        -0.00000  -0.00000   0.26016  -0.00000   0.00000
  43        3PZ         0.01011   0.00000   0.00000   0.31814  -0.06200
  44        4S         -0.20399   0.00000   0.00000   0.10355   0.61246
  45        4PX         0.00000   0.10196  -0.00000   0.00000   0.00000
  46        4PY         0.00000  -0.00000   0.18927  -0.00000  -0.00000
  47        4PZ        -0.01197   0.00000   0.00000   0.18460   0.00883
  48        5S         -0.04014   0.00000   0.00000   0.01291   0.13064
  49        5PX         0.00000  -0.00650  -0.00000   0.00000   0.00000
  50        5PY        -0.00000  -0.00000   0.05199  -0.00000   0.00000
  51        5PZ         0.00806   0.00000   0.00000   0.01547  -0.02386
  52        6D 0       -0.00581  -0.00000  -0.00000  -0.02790   0.02510
  53        6D+1        0.00000  -0.02975   0.00000   0.00000  -0.00000
  54        6D-1        0.00000   0.00000  -0.03058   0.00000  -0.00000
  55        6D+2       -0.00088  -0.00000  -0.00000  -0.00080   0.00302
  56        6D-2        0.00000   0.00000   0.00000  -0.00000   0.00000
                          41        42        43        44        45
  41        3PX         0.26760
  42        3PY        -0.00000   0.36762
  43        3PZ         0.00000   0.00000   0.42194
  44        4S          0.00000   0.00000   0.14294   0.64112
  45        4PX         0.14150  -0.00000   0.00000   0.00000   0.07482
  46        4PY        -0.00000   0.27180  -0.00000  -0.00000  -0.00000
  47        4PZ         0.00000   0.00000   0.24525   0.12390   0.00000
  48        5S          0.00000   0.00000   0.01861   0.14052   0.00000
  49        5PX        -0.00902  -0.00000   0.00000   0.00000  -0.00477
  50        5PY        -0.00000   0.07827  -0.00000   0.00000  -0.00000
  51        5PZ         0.00000   0.00000   0.02025  -0.01462   0.00000
  52        6D 0       -0.00000  -0.00000  -0.03679   0.00639  -0.00000
  53        6D+1       -0.04129  -0.00000   0.00000  -0.00000  -0.02183
  54        6D-1       -0.00000  -0.04246   0.00000  -0.00000   0.00000
  55        6D+2       -0.00000  -0.00000  -0.00103   0.00233  -0.00000
  56        6D-2        0.00000   0.00000  -0.00000   0.00000   0.00000
                          46        47        48        49        50
  46        4PY         0.22977
  47        4PZ         0.00000   0.14553
  48        5S          0.00000   0.01913   0.03882
  49        5PX        -0.00000   0.00000   0.00000   0.00030
  50        5PY         0.08972  -0.00000   0.00000  -0.00000   0.05188
  51        5PZ         0.00000   0.01047  -0.00552   0.00000   0.00000
  52        6D 0       -0.00000  -0.02009   0.00310  -0.00000  -0.00000
  53        6D+1        0.00000   0.00000  -0.00000   0.00139   0.00000
  54        6D-1       -0.02639   0.00000  -0.00000   0.00000  -0.00352
  55        6D+2       -0.00000  -0.00041   0.00056  -0.00000  -0.00000
  56        6D-2        0.00000   0.00000   0.00000  -0.00000   0.00000
                          51        52        53        54        55
  51        5PZ         0.00207
  52        6D 0       -0.00254   0.00393
  53        6D+1        0.00000   0.00000   0.00637
  54        6D-1        0.00000   0.00000   0.00000   0.00577
  55        6D+2       -0.00015   0.00018  -0.00000   0.00000   0.00002
  56        6D-2       -0.00000   0.00000  -0.00000   0.00000  -0.00000
                          56
  56        6D-2        0.00000
          Condensed to atoms (all electrons):
               1          2          3          4
     1  C    4.696147   0.521247   0.521247  -0.076138
     2  H    0.521247   1.030196  -0.229610  -0.244454
     3  H    0.521247  -0.229610   1.030196  -0.244454
     4  O   -0.076138  -0.244454  -0.244454   8.747786
 Mulliken charges:
               1
     1  C    0.337497
     2  H   -0.077379
     3  H   -0.077379
     4  O   -0.182740
 Sum of Mulliken charges =  -0.00000
 Mulliken charges with hydrogens summed into heavy atoms:
               1
     1  C    0.182740
     4  O   -0.182740
 Electronic spatial extent (au):  <R**2>=             46.5615
 Charge=             -0.0000 electrons
 Dipole moment (field-independent basis, Debye):
    X=              0.0000    Y=              0.0000    Z=              0.7957  Tot=              0.7957
 Quadrupole moment (field-independent basis, Debye-Ang):
   XX=            -10.3321   YY=            -13.3009   ZZ=            -13.5656
   XY=             -0.0000   XZ=             -0.0000   YZ=              0.0000
 Traceless Quadrupole moment (field-independent basis, Debye-Ang):
   XX=              2.0675   YY=             -0.9014   ZZ=             -1.1661
   XY=             -0.0000   XZ=             -0.0000   YZ=              0.0000
 Octapole moment (field-independent basis, Debye-Ang**2):
  XXX=              0.0000  YYY=              0.0000  ZZZ=              5.8132  XYY=              0.0000
  XXY=              0.0000  XXZ=              1.7912  XZZ=              0.0000  YZZ=             -0.0000
  YYZ=              4.5495  XYZ=              0.0000
 Hexadecapole moment (field-independent basis, Debye-Ang**3):
 XXXX=             -8.6927 YYYY=            -31.4304 ZZZZ=            -34.1585 XXXY=             -0.0000
 XXXZ=             -0.0000 YYYX=             -0.0000 YYYZ=              0.0000 ZZZX=             -0.0000
 ZZZY=             -0.0000 XXYY=             -6.4548 XXZZ=             -6.8452 YYZZ=            -12.8786
 XXYZ=             -0.0000 YYXZ=             -0.0000 ZZXY=             -0.0000
 N-N= 4.654363823281D+01 E-N=-3.632311399620D+02  KE= 1.197386246489D+02
 Symmetry A1   KE= 1.078383833801D+02
 Symmetry A2   KE= 1.117476839819D-35
 Symmetry B1   KE= 4.783532262667D+00
 Symmetry B2   KE= 7.116709006119D+00
 Leave Link  601 at Fri Sep 17 10:52:23 2021, MaxMem=   268435456 cpu:               0.0 elap:               0.0
 (Enter /software/gaussian/g16-a03/l9999.exe)
 Electronic transition elements 
                 1             2             3             4             5 
      1  -0.113068D+03 -0.113058D+03 -0.113036D+03 -0.113030D+03 -0.112962D+03
      2   0.000000D+00  0.000000D+00  0.000000D+00  0.000000D+00  0.000000D+00
      3   0.965634D+00  0.000000D+00  0.462774D+00  0.000000D+00  0.000000D+00
      4   0.000000D+00  0.000000D+00  0.000000D+00  0.327509D+00  0.000000D+00
      5   0.000000D+00  0.000000D+00  0.000000D+00  0.000000D+00  0.000000D+00
      6  -0.170613D+00  0.000000D+00 -0.987850D-01  0.000000D+00  0.000000D+00
      7   0.000000D+00  0.000000D+00  0.000000D+00 -0.707523D-01  0.000000D+00
      8  -0.435369D+00  0.000000D+00  0.788865D+00  0.000000D+00  0.000000D+00
      9   0.000000D+00  0.000000D+00  0.000000D+00  0.000000D+00  0.000000D+00
     10   0.000000D+00 -0.980334D+00  0.000000D+00  0.000000D+00 -0.871402D+00
     11   0.000000D+00  0.000000D+00  0.000000D+00  0.260167D+00  0.000000D+00
     12   0.000000D+00  0.000000D+00  0.000000D+00  0.772620D+00  0.000000D+00
     13   0.000000D+00  0.000000D+00  0.000000D+00  0.128974D+00  0.000000D+00
     14   0.000000D+00  0.336134D+00  0.000000D+00  0.000000D+00  0.493574D-01
     15   0.000000D+00  0.000000D+00  0.000000D+00  0.000000D+00  0.000000D+00
     16   0.407535D+00  0.000000D+00  0.416156D+00  0.000000D+00  0.000000D+00
                 6             7             8             9            10 
      1  -0.112916D+03 -0.112900D+03 -0.112892D+03 -0.112872D+03 -0.112842D+03
      2   0.000000D+00  0.000000D+00  0.000000D+00  0.000000D+00  0.000000D+00
      3  -0.637028D+00 -0.123946D+01  0.000000D+00  0.000000D+00  0.384964D+00
      4   0.000000D+00  0.000000D+00 -0.947190D-01  0.000000D+00  0.000000D+00
      5   0.000000D+00  0.000000D+00  0.000000D+00  0.000000D+00  0.000000D+00
      6   0.235118D+00  0.414244D+00  0.000000D+00  0.000000D+00 -0.153190D+00
      7   0.000000D+00  0.000000D+00  0.291818D-01  0.000000D+00  0.000000D+00
      8  -0.179301D+00  0.124773D+01  0.000000D+00  0.000000D+00  0.138407D+00
      9   0.000000D+00  0.000000D+00  0.000000D+00  0.000000D+00  0.000000D+00
     10   0.000000D+00  0.000000D+00  0.000000D+00 -0.408486D+00  0.000000D+00
     11   0.000000D+00  0.000000D+00 -0.231663D+00  0.000000D+00  0.000000D+00
     12   0.000000D+00  0.000000D+00 -0.611506D+00  0.000000D+00  0.000000D+00
     13   0.000000D+00  0.000000D+00 -0.572634D+00  0.000000D+00  0.000000D+00
     14   0.000000D+00  0.000000D+00  0.000000D+00 -0.175969D+00  0.000000D+00
     15   0.000000D+00  0.000000D+00  0.000000D+00  0.000000D+00  0.000000D+00
     16  -0.780169D+00 -0.642862D+00  0.000000D+00  0.000000D+00  0.712446D-01
                11            12            13            14            15 
      1  -0.112804D+03 -0.112733D+03 -0.112732D+03 -0.112719D+03 -0.112697D+03
      2   0.000000D+00  0.000000D+00  0.000000D+00 -0.134562D-01  0.000000D+00
      3   0.000000D+00 -0.196746D+00  0.000000D+00  0.000000D+00 -0.318861D+00
      4   0.937362D+00  0.000000D+00  0.225954D+00  0.000000D+00  0.000000D+00
      5   0.000000D+00  0.000000D+00  0.000000D+00 -0.555584D-02  0.000000D+00
      6   0.000000D+00  0.729667D-01  0.000000D+00  0.000000D+00  0.175820D+00
      7  -0.411354D+00  0.000000D+00 -0.115634D+00  0.000000D+00  0.000000D+00
      8   0.000000D+00  0.145645D+01  0.000000D+00  0.000000D+00 -0.308720D+00
      9   0.000000D+00  0.000000D+00  0.000000D+00 -0.149512D+00  0.000000D+00
     10   0.000000D+00  0.000000D+00  0.000000D+00  0.000000D+00  0.000000D+00
     11   0.473230D-02  0.000000D+00 -0.103684D+00  0.000000D+00  0.000000D+00
     12   0.975896D+00  0.000000D+00 -0.121826D+00  0.000000D+00  0.000000D+00
     13   0.877501D+00  0.000000D+00 -0.306337D+00  0.000000D+00  0.000000D+00
     14   0.000000D+00  0.000000D+00  0.000000D+00  0.000000D+00  0.000000D+00
     15   0.000000D+00  0.000000D+00  0.000000D+00  0.113704D+00  0.000000D+00
     16   0.000000D+00 -0.205236D+00  0.000000D+00  0.000000D+00  0.277573D+00
                16            17            18            19            20 
      1  -0.112695D+03 -0.112689D+03 -0.112687D+03 -0.112665D+03 -0.112665D+03
      2   0.000000D+00  0.000000D+00 -0.558320D+00  0.000000D+00  0.000000D+00
      3   0.000000D+00  0.000000D+00  0.000000D+00 -0.132254D+00  0.000000D+00
      4  -0.241390D+00  0.238018D-01  0.000000D+00  0.000000D+00 -0.564753D+00
      5   0.000000D+00  0.000000D+00  0.309077D+00  0.000000D+00  0.000000D+00
      6   0.000000D+00  0.000000D+00  0.000000D+00  0.834519D-01  0.000000D+00
      7   0.136987D+00 -0.779582D-02  0.000000D+00  0.000000D+00  0.324693D+00
      8   0.000000D+00  0.000000D+00  0.000000D+00 -0.100530D+00  0.000000D+00
      9   0.000000D+00  0.000000D+00 -0.617530D+00  0.000000D+00  0.000000D+00
     10   0.000000D+00  0.000000D+00  0.000000D+00  0.000000D+00  0.000000D+00
     11  -0.234202D+00  0.420522D+00  0.000000D+00  0.000000D+00 -0.146721D+00
     12  -0.453406D+00  0.681783D+00  0.000000D+00  0.000000D+00 -0.252205D+00
     13   0.144550D-01  0.690022D+00  0.000000D+00  0.000000D+00 -0.109819D+01
     14   0.000000D+00  0.000000D+00  0.000000D+00  0.000000D+00  0.000000D+00
     15   0.000000D+00  0.000000D+00 -0.611988D+00  0.000000D+00  0.000000D+00
     16   0.000000D+00  0.000000D+00  0.000000D+00  0.112067D-01  0.000000D+00
                21            22            23            24            25 
      1  -0.112622D+03 -0.112605D+03 -0.112583D+03 -0.112579D+03 -0.112577D+03
      2   0.512510D+00  0.000000D+00  0.409257D+00  0.000000D+00 -0.227130D+00
      3   0.000000D+00  0.000000D+00  0.000000D+00  0.000000D+00  0.000000D+00
      4   0.000000D+00 -0.129422D+00  0.000000D+00  0.446773D+00  0.000000D+00
      5  -0.328642D+00  0.000000D+00 -0.288322D+00  0.000000D+00  0.159114D+00
      6   0.000000D+00  0.000000D+00  0.000000D+00  0.000000D+00  0.000000D+00
      7   0.000000D+00  0.825599D-01  0.000000D+00 -0.299006D+00  0.000000D+00
      8   0.000000D+00  0.000000D+00  0.000000D+00  0.000000D+00  0.000000D+00
      9  -0.931501D+00  0.000000D+00  0.459868D+00  0.000000D+00 -0.362692D+00
     10   0.000000D+00  0.000000D+00  0.000000D+00  0.000000D+00  0.000000D+00
     11   0.000000D+00 -0.102440D+00  0.000000D+00  0.939012D-01  0.000000D+00
     12   0.000000D+00 -0.162406D+00  0.000000D+00  0.234856D+00  0.000000D+00
     13   0.000000D+00  0.164387D+00  0.000000D+00 -0.973898D+00  0.000000D+00
     14   0.000000D+00  0.000000D+00  0.000000D+00  0.000000D+00  0.000000D+00
     15  -0.664080D+00  0.000000D+00  0.300974D+00  0.000000D+00 -0.384131D+00
     16   0.000000D+00  0.000000D+00  0.000000D+00  0.000000D+00  0.000000D+00
                26            27            28            29            30 
      1  -0.112568D+03 -0.112565D+03 -0.112554D+03 -0.112547D+03 -0.112544D+03
      2   0.000000D+00  0.000000D+00  0.000000D+00  0.000000D+00  0.000000D+00
      3   0.000000D+00 -0.340573D+00  0.000000D+00  0.544542D-01  0.000000D+00
      4   0.183429D+00  0.000000D+00  0.176357D+00  0.000000D+00  0.000000D+00
      5   0.000000D+00  0.000000D+00  0.000000D+00  0.000000D+00  0.000000D+00
      6   0.000000D+00  0.235836D+00  0.000000D+00 -0.238514D-01  0.000000D+00
      7  -0.139389D+00  0.000000D+00 -0.122574D+00  0.000000D+00  0.000000D+00
      8   0.000000D+00 -0.273947D+00  0.000000D+00 -0.474275D-01  0.000000D+00
      9   0.000000D+00  0.000000D+00  0.000000D+00  0.000000D+00  0.000000D+00
     10   0.000000D+00  0.000000D+00  0.000000D+00  0.000000D+00  0.159447D-02
     11  -0.686071D+00  0.000000D+00  0.537689D+00  0.000000D+00  0.000000D+00
     12   0.110392D+01  0.000000D+00  0.481446D+00  0.000000D+00  0.000000D+00
     13   0.539716D+00  0.000000D+00  0.138038D+00  0.000000D+00  0.000000D+00
     14   0.000000D+00  0.000000D+00  0.000000D+00  0.000000D+00  0.271751D+00
     15   0.000000D+00  0.000000D+00  0.000000D+00  0.000000D+00  0.000000D+00
     16   0.000000D+00  0.567328D+00  0.000000D+00 -0.294992D+00  0.000000D+00

 Test job not archived.
 1\1\GINC-BHD0004\SP\RB3LYP TD-FC\6-311+G(d,p)\C1H2O1\BWEIGHT\17-Sep-20
 21\0\\#p B3LYP/6-311+G** #p TD=(singlets,nstates=30)IOp(6/8=3) IOp(9/4
 0=4)\\Scan Step 44, Bond Length 0.72\\0,1\C,0,0.,0.,-0.52736\H,0,0.,0.
 93726,-1.11871\H,0,0.,-0.93726,-1.11871\O,0,0.,0.,0.19264\\Version=ES6
 4L-G16RevA.03\State=1-A1\HF=-113.2538709\RMSD=1.200e-09\PG=C02V [C2(C1
 O1),SGV(H2)]\\@


 WE ARE REACHING THE STAGE WHERE THE PROBLEMS WE MUST SOLVE ARE 
 GOING TO BECOME INSOLUBLE WITHOUT COMPUTERS.
 I DO NOT FEAR COMPUTERS.  I FEAR THE LACK OF THEM.

                                   -- ISSAC ASIMOV
 Job cpu time:       0 days  0 hours  0 minutes 26.9 seconds.
 Elapsed time:       0 days  0 hours  0 minutes 27.8 seconds.
 File lengths (MBytes):  RWF=     79 Int=      0 D2E=      0 Chk=     32 Scr=      1
 Normal termination of Gaussian 16 at Fri Sep 17 10:52:23 2021.
