 Entering Gaussian System, Link 0=g16
 Initial command:
 /software/gaussian/g16-a03/l1.exe "/local_scratch/6484869/Gau-15647.inp" -scrdir="/local_scratch/6484869/"
 Entering Link 1 = /software/gaussian/g16-a03/l1.exe PID=     15652.
  
 Copyright (c) 1988,1990,1992,1993,1995,1998,2003,2009,2016,
            Gaussian, Inc.  All Rights Reserved.
  
 This is part of the Gaussian(R) 16 program.  It is based on
 the Gaussian(R) 09 system (copyright 2009, Gaussian, Inc.),
 the Gaussian(R) 03 system (copyright 2003, Gaussian, Inc.),
 the Gaussian(R) 98 system (copyright 1998, Gaussian, Inc.),
 the Gaussian(R) 94 system (copyright 1995, Gaussian, Inc.),
 the Gaussian 92(TM) system (copyright 1992, Gaussian, Inc.),
 the Gaussian 90(TM) system (copyright 1990, Gaussian, Inc.),
 the Gaussian 88(TM) system (copyright 1988, Gaussian, Inc.),
 the Gaussian 86(TM) system (copyright 1986, Carnegie Mellon
 University), and the Gaussian 82(TM) system (copyright 1983,
 Carnegie Mellon University). Gaussian is a federally registered
 trademark of Gaussian, Inc.
  
 This software contains proprietary and confidential information,
 including trade secrets, belonging to Gaussian, Inc.
  
 This software is provided under written license and may be
 used, copied, transmitted, or stored only in accord with that
 written license.
  
 The following legend is applicable only to US Government
 contracts under FAR:
  
                    RESTRICTED RIGHTS LEGEND
  
 Use, reproduction and disclosure by the US Government is
 subject to restrictions as set forth in subparagraphs (a)
 and (c) of the Commercial Computer Software - Restricted
 Rights clause in FAR 52.227-19.
  
 Gaussian, Inc.
 340 Quinnipiac St., Bldg. 40, Wallingford CT 06492
  
  
 ---------------------------------------------------------------
 Warning -- This program may not be used in any manner that
 competes with the business of Gaussian, Inc. or will provide
 assistance to any competitor of Gaussian, Inc.  The licensee
 of this program is prohibited from giving any competitor of
 Gaussian, Inc. access to this program.  By using this program,
 the user acknowledges that Gaussian, Inc. is engaged in the
 business of creating and licensing software in the field of
 computational chemistry and represents and warrants to the
 licensee that it is not a competitor of Gaussian, Inc. and that
 it will not use this program in any manner prohibited above.
 ---------------------------------------------------------------
  

 Cite this work as:
 Gaussian 16, Revision A.03,
 M. J. Frisch, G. W. Trucks, H. B. Schlegel, G. E. Scuseria, 
 M. A. Robb, J. R. Cheeseman, G. Scalmani, V. Barone, 
 G. A. Petersson, H. Nakatsuji, X. Li, M. Caricato, A. V. Marenich, 
 J. Bloino, B. G. Janesko, R. Gomperts, B. Mennucci, H. P. Hratchian, 
 J. V. Ortiz, A. F. Izmaylov, J. L. Sonnenberg, D. Williams-Young, 
 F. Ding, F. Lipparini, F. Egidi, J. Goings, B. Peng, A. Petrone, 
 T. Henderson, D. Ranasinghe, V. G. Zakrzewski, J. Gao, N. Rega, 
 G. Zheng, W. Liang, M. Hada, M. Ehara, K. Toyota, R. Fukuda, 
 J. Hasegawa, M. Ishida, T. Nakajima, Y. Honda, O. Kitao, H. Nakai, 
 T. Vreven, K. Throssell, J. A. Montgomery, Jr., J. E. Peralta, 
 F. Ogliaro, M. J. Bearpark, J. J. Heyd, E. N. Brothers, K. N. Kudin, 
 V. N. Staroverov, T. A. Keith, R. Kobayashi, J. Normand, 
 K. Raghavachari, A. P. Rendell, J. C. Burant, S. S. Iyengar, 
 J. Tomasi, M. Cossi, J. M. Millam, M. Klene, C. Adamo, R. Cammi, 
 J. W. Ochterski, R. L. Martin, K. Morokuma, O. Farkas, 
 J. B. Foresman, and D. J. Fox, Gaussian, Inc., Wallingford CT, 2016.
 
 ******************************************
 Gaussian 16:  ES64L-G16RevA.03 25-Dec-2016
                17-Sep-2021 
 ******************************************
 %chk=geometry.chk
 %mem=2GB
 %nprocshared=1
 Will use up to    1 processors via shared memory.
 --------------------------------------------------------------------
 #p B3LYP/6-311+G** #p TD=(singlets,nstates=30)IOp(6/8=3) IOp(9/40=4)
 --------------------------------------------------------------------
 1/38=1,172=1/1;
 2/12=2,17=6,18=5,40=1/2;
 3/5=4,6=6,7=111,11=9,25=1,30=1,74=-5/1,2,3,8;
 4//1;
 5/5=2,38=5/2;
 8/6=1,10=2,108=30/1;
 9/40=4,41=30,42=1,48=1,70=2/14;
 6/7=2,8=3,9=2,10=2/1;
 99/5=1,9=1/99;
 Leave Link    1 at Fri Sep 17 10:52:14 2021, MaxMem=   268435456 cpu:               0.0 elap:               0.2
 (Enter /software/gaussian/g16-a03/l101.exe)
 -------------------------------
 Scan Step 138, Bond Length 1.19
 -------------------------------
 Symbolic Z-matrix:
 Charge =  0 Multiplicity = 1
 C                     0.        0.       -0.52736 
 H                     0.        0.93726  -1.11871 
 H                     0.       -0.93726  -1.11871 
 O                     0.        0.        0.66264 
 
 ITRead=  0  0  0  0
 MicOpt= -1 -1 -1 -1
 NAtoms=      4 NQM=        4 NQMF=       0 NMMI=      0 NMMIF=      0
                NMic=       0 NMicF=      0.
                    Isotopes and Nuclear Properties:
 (Nuclear quadrupole moments (NQMom) in fm**2, nuclear magnetic moments (NMagM)
  in nuclear magnetons)

  Atom         1           2           3           4
 IAtWgt=          12           1           1          16
 AtmWgt=  12.0000000   1.0078250   1.0078250  15.9949146
 NucSpn=           0           1           1           0
 AtZEff=  -0.0000000  -0.0000000  -0.0000000  -0.0000000
 NQMom=    0.0000000   0.0000000   0.0000000   0.0000000
 NMagM=    0.0000000   2.7928460   2.7928460   0.0000000
 AtZNuc=   6.0000000   1.0000000   1.0000000   8.0000000
 Leave Link  101 at Fri Sep 17 10:52:15 2021, MaxMem=   268435456 cpu:               0.1 elap:               0.1
 (Enter /software/gaussian/g16-a03/l202.exe)
                          Input orientation:                          
 ---------------------------------------------------------------------
 Center     Atomic      Atomic             Coordinates (Angstroms)
 Number     Number       Type             X           Y           Z
 ---------------------------------------------------------------------
      1          6           0        0.000000    0.000000   -0.527360
      2          1           0        0.000000    0.937260   -1.118710
      3          1           0        0.000000   -0.937260   -1.118710
      4          8           0        0.000000    0.000000    0.662640
 ---------------------------------------------------------------------
                    Distance matrix (angstroms):
                    1          2          3          4
     1  C    0.000000
     2  H    1.108220   0.000000
     3  H    1.108220   1.874520   0.000000
     4  O    1.190000   2.012875   2.012875   0.000000
 Stoichiometry    CH2O
 Framework group  C2V[C2(CO),SGV(H2)]
 Deg. of freedom     3
 Full point group                 C2V     NOp   4
 Largest Abelian subgroup         C2V     NOp   4
 Largest concise Abelian subgroup C2      NOp   2
                         Standard orientation:                         
 ---------------------------------------------------------------------
 Center     Atomic      Atomic             Coordinates (Angstroms)
 Number     Number       Type             X           Y           Z
 ---------------------------------------------------------------------
      1          6           0        0.000000    0.000000   -0.521081
      2          1           0        0.000000    0.937260   -1.112431
      3          1           0       -0.000000   -0.937260   -1.112431
      4          8           0        0.000000   -0.000000    0.668919
 ---------------------------------------------------------------------
 Rotational constants (GHZ):         285.4183527          39.6444976          34.8094751
 Leave Link  202 at Fri Sep 17 10:52:15 2021, MaxMem=   268435456 cpu:               0.0 elap:               0.0
 (Enter /software/gaussian/g16-a03/l301.exe)
 Standard basis: 6-311+G(d,p) (5D, 7F)
 Ernie: Thresh=  0.10000D-02 Tol=  0.10000D-05 Strict=F.
 There are    29 symmetry adapted cartesian basis functions of A1  symmetry.
 There are     3 symmetry adapted cartesian basis functions of A2  symmetry.
 There are    11 symmetry adapted cartesian basis functions of B1  symmetry.
 There are    15 symmetry adapted cartesian basis functions of B2  symmetry.
 There are    27 symmetry adapted basis functions of A1  symmetry.
 There are     3 symmetry adapted basis functions of A2  symmetry.
 There are    11 symmetry adapted basis functions of B1  symmetry.
 There are    15 symmetry adapted basis functions of B2  symmetry.
    56 basis functions,    88 primitive gaussians,    58 cartesian basis functions
     8 alpha electrons        8 beta electrons
       nuclear repulsion energy        31.5636278921 Hartrees.
 IExCor=  402 DFT=T Ex+Corr=B3LYP ExCW=0 ScaHFX=  0.200000
 ScaDFX=  0.800000  0.720000  1.000000  0.810000 ScalE2=  1.000000  1.000000
 IRadAn=      5 IRanWt=     -1 IRanGd=            0 ICorTp=0 IEmpDi=  4
 NAtoms=    4 NActive=    4 NUniq=    3 SFac= 1.78D+00 NAtFMM=   60 NAOKFM=F Big=F
 Integral buffers will be    131072 words long.
 Regular integral format.
 Two-electron integral symmetry is turned on.
 Leave Link  301 at Fri Sep 17 10:52:15 2021, MaxMem=   268435456 cpu:               0.0 elap:               0.1
 (Enter /software/gaussian/g16-a03/l302.exe)
 NPDir=0 NMtPBC=     1 NCelOv=     1 NCel=       1 NClECP=     1 NCelD=      1
         NCelK=      1 NCelE2=     1 NClLst=     1 CellRange=     0.0.
 One-electron integrals computed using PRISM.
 One-electron integral symmetry used in STVInt
 NBasis=    56 RedAO= T EigKep=  3.83D-03  NBF=    27     3    11    15
 NBsUse=    56 1.00D-06 EigRej= -1.00D+00 NBFU=    27     3    11    15
 Precomputing XC quadrature grid using
 IXCGrd= 4 IRadAn=           5 IRanWt=          -1 IRanGd=           0 AccXCQ= 0.00D+00.
 Generated NRdTot=       0 NPtTot=           0 NUsed=           0 NTot=          32
 NSgBfM=    58    58    58    58    58 MxSgAt=     4 MxSgA2=     4.
 Leave Link  302 at Fri Sep 17 10:52:15 2021, MaxMem=   268435456 cpu:               0.1 elap:               0.1
 (Enter /software/gaussian/g16-a03/l303.exe)
 DipDrv:  MaxL=1.
 Leave Link  303 at Fri Sep 17 10:52:16 2021, MaxMem=   268435456 cpu:               0.0 elap:               0.0
 (Enter /software/gaussian/g16-a03/l308.exe)
 Leave Link  308 at Fri Sep 17 10:52:16 2021, MaxMem=   268435456 cpu:               0.0 elap:               0.0
 (Enter /software/gaussian/g16-a03/l401.exe)
 ExpMin= 4.38D-02 ExpMax= 8.59D+03 ExpMxC= 1.30D+03 IAcc=3 IRadAn=         5 AccDes= 0.00D+00
 Harris functional with IExCor=  402 and IRadAn=       5 diagonalized for initial guess.
 HarFok:  IExCor=  402 AccDes= 0.00D+00 IRadAn=         5 IDoV= 1 UseB2=F ITyADJ=14
 ICtDFT=  3500011 ScaDFX=  1.000000  1.000000  1.000000  1.000000
 FoFCou: FMM=F IPFlag=           0 FMFlag=      100000 FMFlg1=           0
         NFxFlg=           0 DoJE=T BraDBF=F KetDBF=T FulRan=T
         wScrn=  0.000000 ICntrl=       500 IOpCl=  0 I1Cent=   200000004 NGrid=           0
         NMat0=    1 NMatS0=      1 NMatT0=    0 NMatD0=    1 NMtDS0=    0 NMtDT0=    0
 Petite list used in FoFCou.
 Harris En= -114.553048840979    
 JPrj=0 DoOrth=F DoCkMO=F.
 Initial guess orbital symmetries:
       Occupied  (A1) (A1) (A1) (A1) (B2) (A1) (B1) (B2)
       Virtual   (B1) (A1) (A1) (B2) (B1) (A1) (B2) (A1) (B1) (B2)
                 (A1) (A1) (A1) (B2) (B1) (A1) (B2) (A1) (A1) (A2)
                 (B1) (B2) (B1) (A1) (B2) (A1) (B2) (A1) (B1) (A2)
                 (A1) (B2) (A1) (B2) (B1) (A1) (A2) (A1) (B1) (A1)
                 (B2) (B2) (A1) (B1) (B2) (A1) (A1) (A1)
 The electronic state of the initial guess is 1-A1.
 Leave Link  401 at Fri Sep 17 10:52:16 2021, MaxMem=   268435456 cpu:               0.3 elap:               0.3
 (Enter /software/gaussian/g16-a03/l502.exe)
 Keep R1 ints in memory in symmetry-blocked form, NReq=2159909.
 FoFCou: FMM=F IPFlag=           0 FMFlag=           0 FMFlg1=           0
         NFxFlg=           0 DoJE=F BraDBF=F KetDBF=F FulRan=T
         wScrn=  0.000000 ICntrl=       600 IOpCl=  0 I1Cent=           0 NGrid=           0
         NMat0=    1 NMatS0=   1596 NMatT0=    0 NMatD0=    1 NMtDS0=    0 NMtDT0=    0
 Petite list used in FoFCou.
 Closed shell SCF:
 Using DIIS extrapolation, IDIIS=  1040.
 NGot=   268435456 LenX=   268074384 LenY=   268070579
 Requested convergence on RMS density matrix=1.00D-08 within 128 cycles.
 Requested convergence on MAX density matrix=1.00D-06.
 Requested convergence on             energy=1.00D-06.
 No special actions if energy rises.

 Cycle   1  Pass 1  IDiag  1:
 E= -114.485362818743    
 DIIS: error= 4.39D-02 at cycle   1 NSaved=   1.
 NSaved= 1 IEnMin= 1 EnMin= -114.485362818743     IErMin= 1 ErrMin= 4.39D-02
 ErrMax= 4.39D-02  0.00D+00 EMaxC= 1.00D-01 BMatC= 8.04D-02 BMatP= 8.04D-02
 IDIUse=3 WtCom= 5.61D-01 WtEn= 4.39D-01
 Coeff-Com:  0.100D+01
 Coeff-En:   0.100D+01
 Coeff:      0.100D+01
 Gap=     0.175 Goal=   None    Shift=    0.000
 GapD=    0.175 DampG=1.000 DampE=0.500 DampFc=0.5000 IDamp=-1.
 Damping current iteration by 5.00D-01
 RMSDP=1.01D-02 MaxDP=9.61D-02              OVMax= 2.73D-01

 Cycle   2  Pass 1  IDiag  1:
 E= -114.483273074508     Delta-E=        0.002089744235 Rises=F Damp=T
 DIIS: error= 2.96D-02 at cycle   2 NSaved=   2.
 NSaved= 2 IEnMin= 1 EnMin= -114.485362818743     IErMin= 2 ErrMin= 2.96D-02
 ErrMax= 2.96D-02  0.00D+00 EMaxC= 1.00D-01 BMatC= 2.33D-02 BMatP= 8.04D-02
 IDIUse=3 WtCom= 7.04D-01 WtEn= 2.96D-01
 Coeff-Com:  0.324D+00 0.676D+00
 Coeff-En:   0.513D+00 0.487D+00
 Coeff:      0.380D+00 0.620D+00
 Gap=     0.222 Goal=   None    Shift=    0.000
 RMSDP=2.17D-03 MaxDP=2.62D-02 DE= 2.09D-03 OVMax= 2.02D-01

 Cycle   3  Pass 1  IDiag  1:
 E= -114.538961900850     Delta-E=       -0.055688826342 Rises=F Damp=F
 DIIS: error= 9.40D-03 at cycle   3 NSaved=   3.
 NSaved= 3 IEnMin= 3 EnMin= -114.538961900850     IErMin= 3 ErrMin= 9.40D-03
 ErrMax= 9.40D-03  0.00D+00 EMaxC= 1.00D-01 BMatC= 2.64D-03 BMatP= 2.33D-02
 IDIUse=3 WtCom= 9.06D-01 WtEn= 9.40D-02
 Coeff-Com:  0.111D+00 0.261D+00 0.627D+00
 Coeff-En:   0.000D+00 0.000D+00 0.100D+01
 Coeff:      0.101D+00 0.237D+00 0.662D+00
 Gap=     0.218 Goal=   None    Shift=    0.000
 RMSDP=7.81D-04 MaxDP=1.90D-02 DE=-5.57D-02 OVMax= 2.56D-02

 Cycle   4  Pass 1  IDiag  1:
 E= -114.541182238783     Delta-E=       -0.002220337933 Rises=F Damp=F
 DIIS: error= 3.72D-03 at cycle   4 NSaved=   4.
 NSaved= 4 IEnMin= 4 EnMin= -114.541182238783     IErMin= 4 ErrMin= 3.72D-03
 ErrMax= 3.72D-03  0.00D+00 EMaxC= 1.00D-01 BMatC= 3.91D-04 BMatP= 2.64D-03
 IDIUse=3 WtCom= 9.63D-01 WtEn= 3.72D-02
 Coeff-Com:  0.970D-02 0.175D-01 0.285D+00 0.687D+00
 Coeff-En:   0.000D+00 0.000D+00 0.630D-01 0.937D+00
 Coeff:      0.934D-02 0.168D-01 0.277D+00 0.697D+00
 Gap=     0.220 Goal=   None    Shift=    0.000
 RMSDP=2.35D-04 MaxDP=5.49D-03 DE=-2.22D-03 OVMax= 5.92D-03

 Cycle   5  Pass 1  IDiag  1:
 E= -114.541536099414     Delta-E=       -0.000353860631 Rises=F Damp=F
 DIIS: error= 3.33D-04 at cycle   5 NSaved=   5.
 NSaved= 5 IEnMin= 5 EnMin= -114.541536099414     IErMin= 5 ErrMin= 3.33D-04
 ErrMax= 3.33D-04  0.00D+00 EMaxC= 1.00D-01 BMatC= 3.49D-06 BMatP= 3.91D-04
 IDIUse=3 WtCom= 9.97D-01 WtEn= 3.33D-03
 Coeff-Com:  0.164D-02-0.606D-02 0.482D-01 0.154D+00 0.802D+00
 Coeff-En:   0.000D+00 0.000D+00 0.000D+00 0.000D+00 0.100D+01
 Coeff:      0.163D-02-0.604D-02 0.480D-01 0.153D+00 0.803D+00
 Gap=     0.220 Goal=   None    Shift=    0.000
 RMSDP=2.74D-05 MaxDP=2.24D-04 DE=-3.54D-04 OVMax= 5.89D-04

 Cycle   6  Pass 1  IDiag  1:
 E= -114.541539166757     Delta-E=       -0.000003067343 Rises=F Damp=F
 DIIS: error= 4.44D-05 at cycle   6 NSaved=   6.
 NSaved= 6 IEnMin= 6 EnMin= -114.541539166757     IErMin= 6 ErrMin= 4.44D-05
 ErrMax= 4.44D-05  0.00D+00 EMaxC= 1.00D-01 BMatC= 4.68D-08 BMatP= 3.49D-06
 IDIUse=1 WtCom= 1.00D+00 WtEn= 0.00D+00
 Coeff-Com:  0.291D-03-0.947D-03-0.570D-03-0.174D-02 0.160D-02 0.100D+01
 Coeff:      0.291D-03-0.947D-03-0.570D-03-0.174D-02 0.160D-02 0.100D+01
 Gap=     0.220 Goal=   None    Shift=    0.000
 RMSDP=4.40D-06 MaxDP=4.08D-05 DE=-3.07D-06 OVMax= 8.16D-05

 Cycle   7  Pass 1  IDiag  1:
 E= -114.541539205467     Delta-E=       -0.000000038711 Rises=F Damp=F
 DIIS: error= 2.10D-06 at cycle   7 NSaved=   7.
 NSaved= 7 IEnMin= 7 EnMin= -114.541539205467     IErMin= 7 ErrMin= 2.10D-06
 ErrMax= 2.10D-06  0.00D+00 EMaxC= 1.00D-01 BMatC= 2.26D-10 BMatP= 4.68D-08
 IDIUse=1 WtCom= 1.00D+00 WtEn= 0.00D+00
 Coeff-Com:  0.447D-05-0.310D-05-0.399D-03-0.188D-02-0.116D-01 0.862D-01
 Coeff-Com:  0.928D+00
 Coeff:      0.447D-05-0.310D-05-0.399D-03-0.188D-02-0.116D-01 0.862D-01
 Coeff:      0.928D+00
 Gap=     0.220 Goal=   None    Shift=    0.000
 RMSDP=2.17D-07 MaxDP=3.28D-06 DE=-3.87D-08 OVMax= 5.76D-06

 Cycle   8  Pass 1  IDiag  1:
 E= -114.541539205655     Delta-E=       -0.000000000188 Rises=F Damp=F
 DIIS: error= 1.02D-06 at cycle   8 NSaved=   8.
 NSaved= 8 IEnMin= 8 EnMin= -114.541539205655     IErMin= 8 ErrMin= 1.02D-06
 ErrMax= 1.02D-06  0.00D+00 EMaxC= 1.00D-01 BMatC= 2.55D-11 BMatP= 2.26D-10
 IDIUse=1 WtCom= 1.00D+00 WtEn= 0.00D+00
 Coeff-Com:  0.145D-05 0.123D-05 0.172D-04-0.117D-03-0.703D-03-0.115D-01
 Coeff-Com:  0.758D-01 0.936D+00
 Coeff:      0.145D-05 0.123D-05 0.172D-04-0.117D-03-0.703D-03-0.115D-01
 Coeff:      0.758D-01 0.936D+00
 Gap=     0.220 Goal=   None    Shift=    0.000
 RMSDP=9.13D-08 MaxDP=7.74D-07 DE=-1.88D-10 OVMax= 1.42D-06

 Cycle   9  Pass 1  IDiag  1:
 E= -114.541539205676     Delta-E=       -0.000000000021 Rises=F Damp=F
 DIIS: error= 5.39D-08 at cycle   9 NSaved=   9.
 NSaved= 9 IEnMin= 9 EnMin= -114.541539205676     IErMin= 9 ErrMin= 5.39D-08
 ErrMax= 5.39D-08  0.00D+00 EMaxC= 1.00D-01 BMatC= 1.44D-13 BMatP= 2.55D-11
 IDIUse=1 WtCom= 1.00D+00 WtEn= 0.00D+00
 Coeff-Com:  0.361D-06-0.297D-06 0.423D-05-0.792D-06 0.649D-04-0.232D-02
 Coeff-Com: -0.341D-02 0.724D-01 0.933D+00
 Coeff:      0.361D-06-0.297D-06 0.423D-05-0.792D-06 0.649D-04-0.232D-02
 Coeff:     -0.341D-02 0.724D-01 0.933D+00
 Gap=     0.220 Goal=   None    Shift=    0.000
 RMSDP=4.38D-09 MaxDP=7.11D-08 DE=-2.08D-11 OVMax= 7.17D-08

 SCF Done:  E(RB3LYP) =  -114.541539206     A.U. after    9 cycles
            NFock=  9  Conv=0.44D-08     -V/T= 2.0032
 KE= 1.141817180459D+02 PE=-3.321722193190D+02 EE= 7.188533417541D+01
 Leave Link  502 at Fri Sep 17 10:52:18 2021, MaxMem=   268435456 cpu:               1.6 elap:               2.0
 (Enter /software/gaussian/g16-a03/l801.exe)
 DoSCS=F DFT=T ScalE2(SS,OS)=  1.000000  1.000000
 ExpMin= 4.38D-02 ExpMax= 8.59D+03 ExpMxC= 1.30D+03 IAcc=3 IRadAn=         5 AccDes= 0.00D+00
 HarFok:  IExCor=  205 AccDes= 0.00D+00 IRadAn=         5 IDoV=-2 UseB2=F ITyADJ=14
 ICtDFT= 12500011 ScaDFX=  1.000000  1.000000  1.000000  1.000000
 Largest valence mixing into a core orbital is  4.60D-05
 Largest core mixing into a valence orbital is  9.52D-06
 Range of M.O.s used for correlation:     3    56
 NBasis=    56 NAE=     8 NBE=     8 NFC=     2 NFV=     0
 NROrb=     54 NOA=     6 NOB=     6 NVA=    48 NVB=    48
 Leave Link  801 at Fri Sep 17 10:52:18 2021, MaxMem=   268435456 cpu:               0.2 elap:               0.2
 (Enter /software/gaussian/g16-a03/l914.exe)
 RHF ground state
 Keep R1, R2, and R3 ints in memory in symmetry-blocked form, NReq=6042848.
 FoFCou: FMM=F IPFlag=           0 FMFlag=           0 FMFlg1=           0
         NFxFlg=           0 DoJE=F BraDBF=F KetDBF=F FulRan=T
         wScrn=  0.000000 ICntrl=       600 IOpCl=  0 I1Cent=           0 NGrid=           0
         NMat0=    1 NMatS0=   1596 NMatT0=    0 NMatD0=    1 NMtDS0=    0 NMtDT0=    0
 Petite list used in FoFCou.
 MDV=   268435456 DFT=T DoStab=F Mixed=T DoRPA=T DoScal=F NonHer=T
 Making orbital integer symmetry assigments:
 Orbital symmetries:
       Occupied  (A1) (A1) (A1) (A1) (B2) (A1) (B1) (B2)
       Virtual   (B1) (A1) (A1) (B2) (B1) (A1) (B2) (A1) (B1) (B2)
                 (A1) (A1) (A1) (B2) (B1) (A1) (B2) (A1) (A2) (A1)
                 (B1) (B2) (B1) (A1) (B2) (A1) (B2) (A1) (B1) (A2)
                 (A1) (B2) (A1) (B2) (A1) (B1) (A2) (A1) (B1) (A1)
                 (B2) (B2) (A1) (B1) (B2) (A1) (A1) (A1)
   120 initial guesses have been made.
 Convergence on wavefunction:    0.001000000000000
 Davidson Disk Diagonalization:  ConvIn= 1.00D-03 SkipCon=T Conv= 1.00D-03.
 Max sub-space:  1728 roots to seek:   120 dimension of matrix:          576
 Iteration     1 Dimension   120 NMult     0 NNew    120
 CISAX will form   120 AO SS matrices at one time.
 NMat=   120 NSing=   120 JSym2X=-1.
 New state      6 was old state      7
 New state      7 was old state      6
 New state      8 was old state     10
 New state      9 was old state      8
 New state     10 was old state      9
 New state     11 was old state     14
 New state     12 was old state     11
 New state     14 was old state     15
 New state     15 was old state     16
 New state     16 was old state     17
 New state     17 was old state     12
 New state     24 was old state     25
 New state     25 was old state     24
 New state     28 was old state     30
 New state     29 was old state     31
 New state     30 was old state     29
 Excitation Energies [eV] at current iteration:
 Root      1 :     4.044475708256110
 Root      2 :     6.838052716143433
 Root      3 :     7.631393727894356
 Root      4 :     7.817349213069018
 Root      5 :     8.321238815970132
 Root      6 :     9.310800453464671
 Root      7 :     9.728917605596559
 Root      8 :    10.247523391182420
 Root      9 :    10.343388487128390
 Root     10 :    10.544247272360360
 Root     11 :    11.364080244170120
 Root     12 :    11.413861497775390
 Root     13 :    11.490896691493270
 Root     14 :    11.871546064125630
 Root     15 :    12.253047030086120
 Root     16 :    12.269893828088920
 Root     17 :    12.525034721833550
 Root     18 :    12.720139766030320
 Root     19 :    12.888859718568560
 Root     20 :    12.901919194208690
 Root     21 :    12.993240373316580
 Root     22 :    13.419758473328360
 Root     23 :    13.680818623969950
 Root     24 :    13.704982111038720
 Root     25 :    13.914193828427530
 Root     26 :    14.260684315525780
 Root     27 :    14.474445677377840
 Root     28 :    14.862309185319100
 Root     29 :    14.977087636256170
 Root     30 :    15.146897505431370
 Root     31 :    15.249824810542770
 Root     32 :    15.646065417625580
 Root     33 :    16.164992610274950
 Root     34 :    16.248869889731260
 Root     35 :    16.379727214565020
 Root     36 :    16.503706917407820
 Root     37 :    16.812162876506940
 Root     38 :    16.978278110313980
 Root     39 :    17.247824859469830
 Root     40 :    17.523055004746750
 Root     41 :    17.634757712920300
 Root     42 :    17.709029319079830
 Root     43 :    17.716104398209340
 Root     44 :    17.889030986714980
 Root     45 :    17.957099134223090
 Root     46 :    18.314450807403890
 Root     47 :    18.642689053267320
 Root     48 :    18.774008996574860
 Root     49 :    18.937554797681270
 Root     50 :    19.143542895439590
 Root     51 :    19.336724664940420
 Root     52 :    19.563507330882630
 Root     53 :    19.889479081715510
 Root     54 :    20.072546882853700
 Root     55 :    20.371471824919840
 Root     56 :    21.230021413419310
 Root     57 :    21.465829952175020
 Root     58 :    21.583523526970880
 Root     59 :    21.706670255138210
 Root     60 :    22.409143350868180
 Root     61 :    22.495029481014680
 Root     62 :    22.604373154004680
 Root     63 :    22.722681639008230
 Root     64 :    22.946159253910630
 Root     65 :    23.100237865262810
 Root     66 :    23.810331126106190
 Root     67 :    24.140949304187950
 Root     68 :    24.230705936773660
 Root     69 :    24.748254360469080
 Root     70 :    24.980517193908840
 Root     71 :    25.316642912059410
 Root     72 :    25.451752939080880
 Root     73 :    25.811373384119550
 Root     74 :    26.013455266266810
 Root     75 :    26.105129658944070
 Root     76 :    26.504828634133660
 Root     77 :    26.646108431026380
 Root     78 :    27.975758184449890
 Root     79 :    28.181414022147900
 Root     80 :    28.470553374242330
 Root     81 :    28.651744779244930
 Root     82 :    28.693348263298490
 Root     83 :    29.023339442462530
 Root     84 :    29.481858324056070
 Root     85 :    29.638853680983870
 Root     86 :    29.650985817825600
 Root     87 :    29.676748116096720
 Root     88 :    30.204499646345560
 Root     89 :    30.610717894528280
 Root     90 :    31.797971211036740
 Root     91 :    31.869639042030180
 Root     92 :    32.877468615645920
 Root     93 :    33.111772636734990
 Root     94 :    33.274354297337900
 Root     95 :    33.307279733198830
 Root     96 :    33.437104085907140
 Root     97 :    33.613149630792590
 Root     98 :    33.982567743628980
 Root     99 :    34.331062246548850
 Root    100 :    34.394447490381320
 Root    101 :    34.629139363091550
 Root    102 :    34.949596174043750
 Root    103 :    35.457388826363800
 Root    104 :    36.032603470675070
 Root    105 :    36.943357905568830
 Root    106 :    37.330152099288550
 Root    107 :    37.419340082860810
 Root    108 :    38.001289897209670
 Root    109 :    38.161625574644650
 Root    110 :    38.489912989726230
 Root    111 :    38.946618035243430
 Root    112 :    39.083452426069300
 Root    113 :    39.808131905750290
 Root    114 :    40.076408794021680
 Root    115 :    40.124781846950180
 Root    116 :    40.547651221119850
 Root    117 :    40.548459686806660
 Root    118 :    40.691828257419900
 Root    119 :    40.759176437083570
 Root    120 :    45.516520494979360
 Iteration     2 Dimension   180 NMult   120 NNew     60
 CISAX will form    60 AO SS matrices at one time.
 NMat=    60 NSing=    60 JSym2X=-1.
 Root      1 not converged, maximum delta is    0.005187925328675
 Root      2 not converged, maximum delta is    0.002094885444135
 Root      3 not converged, maximum delta is    0.003292106264888
 Root      4 not converged, maximum delta is    0.002947335194685
 Root      5 not converged, maximum delta is    0.001510329206172
 Root      6 not converged, maximum delta is    0.012660820666674
 Root      7 not converged, maximum delta is    0.019301825727381
 Root      8 not converged, maximum delta is    0.009999697701806
 Root      9 not converged, maximum delta is    0.004456944914181
 Root     10 not converged, maximum delta is    0.001897696600715
 Root     11 not converged, maximum delta is    0.001853272125913
 Root     12 not converged, maximum delta is    0.004324880308383
 Root     13 not converged, maximum delta is    0.001880175829218
 Root     14 not converged, maximum delta is    0.015739453342386
 Root     15 not converged, maximum delta is    0.036574018489456
 Root     16 not converged, maximum delta is    0.001532407188344
 Root     17 not converged, maximum delta is    0.047005388906713
 Root     18 not converged, maximum delta is    0.023397307682910
 Root     19 not converged, maximum delta is    0.009698675506618
 Root     20 not converged, maximum delta is    0.026650253397611
 Root     21 not converged, maximum delta is    0.010038398938949
 Root     22 not converged, maximum delta is    0.005202581385621
 Root     23 not converged, maximum delta is    0.004114841880476
 Root     24 not converged, maximum delta is    0.005770947414994
 Root     25 not converged, maximum delta is    0.005170566467102
 Root     26 not converged, maximum delta is    0.010694776988026
 Root     27 not converged, maximum delta is    0.001843989560236
 Root     28 not converged, maximum delta is    0.004535471069899
 Root     29 not converged, maximum delta is    0.060646737399691
 Root     30 not converged, maximum delta is    0.005235814576106
 Excitation Energies [eV] at current iteration:
 Root      1 :     4.031504045064550   Change is   -0.012971663191560
 Root      2 :     6.836093019096786   Change is   -0.001959697046647
 Root      3 :     7.624245804525787   Change is   -0.007147923368569
 Root      4 :     7.814859959893901   Change is   -0.002489253175117
 Root      5 :     8.320717880183091   Change is   -0.000520935787041
 Root      6 :     9.242706902178238   Change is   -0.068093551286432
 Root      7 :     9.650478450197909   Change is   -0.078439155398649
 Root      8 :    10.234878866337060   Change is   -0.012644524845364
 Root      9 :    10.333243530750480   Change is   -0.010144956377912
 Root     10 :    10.543377058425970   Change is   -0.000870213934381
 Root     11 :    11.361805516139320   Change is   -0.002274728030802
 Root     12 :    11.408012256469790   Change is   -0.005849241305595
 Root     13 :    11.490346146648310   Change is   -0.000550544844963
 Root     14 :    11.859776358018270   Change is   -0.011769706107353
 Root     15 :    12.234513158525670   Change is   -0.018533871560452
 Root     16 :    12.269066764442990   Change is   -0.000827063645931
 Root     17 :    12.474356980127240   Change is   -0.050677741706318
 Root     18 :    12.709416842311400   Change is   -0.010722923718925
 Root     19 :    12.884723741697740   Change is   -0.004135976870811
 Root     20 :    12.885814645568710   Change is   -0.016104548639981
 Root     21 :    12.988409633510520   Change is   -0.004830739806060
 Root     22 :    13.416746101069040   Change is   -0.003012372259314
 Root     23 :    13.677221714081760   Change is   -0.003596909888189
 Root     24 :    13.685178134366480   Change is   -0.019803976672249
 Root     25 :    13.907980449404180   Change is   -0.006213379023352
 Root     26 :    14.243795353792850   Change is   -0.016888961732927
 Root     27 :    14.473801058680710   Change is   -0.000644618697127
 Root     28 :    14.859595998182890   Change is   -0.002713187136206
 Root     29 :    14.947289701956370   Change is   -0.029797934299796
 Root     30 :    15.140313246466830   Change is   -0.006584258964540
 Iteration     3 Dimension   236 NMult   180 NNew     56
 CISAX will form    56 AO SS matrices at one time.
 NMat=    56 NSing=    56 JSym2X=-1.
 Root      1 has converged.
 Root      2 has converged.
 Root      3 has converged.
 Root      4 has converged.
 Root      5 has converged.
 Root      6 has converged.
 Root      7 has converged.
 Root      8 has converged.
 Root      9 has converged.
 Root     10 has converged.
 Root     11 has converged.
 Root     12 has converged.
 Root     13 has converged.
 Root     14 has converged.
 Root     15 has converged.
 Root     16 has converged.
 Root     17 has converged.
 Root     18 has converged.
 Root     19 has converged.
 Root     20 has converged.
 Root     21 has converged.
 Root     22 has converged.
 Root     23 has converged.
 Root     24 has converged.
 Root     25 has converged.
 Root     26 has converged.
 Root     27 has converged.
 Root     28 has converged.
 Root     29 has converged.
 Root     30 has converged.
 Excitation Energies [eV] at current iteration:
 Root      1 :     4.031502562620151   Change is   -0.000001482444400
 Root      2 :     6.836091629238366   Change is   -0.000001389858420
 Root      3 :     7.624241958856113   Change is   -0.000003845669674
 Root      4 :     7.814858002110157   Change is   -0.000001957783744
 Root      5 :     8.320717826423026   Change is   -0.000000053760065
 Root      6 :     9.242587344503965   Change is   -0.000119557674274
 Root      7 :     9.650391533604136   Change is   -0.000086916593773
 Root      8 :    10.234867525747560   Change is   -0.000011340589505
 Root      9 :    10.333237762357780   Change is   -0.000005768392703
 Root     10 :    10.543376147213840   Change is   -0.000000911212135
 Root     11 :    11.361802476143040   Change is   -0.000003039996284
 Root     12 :    11.408001884263600   Change is   -0.000010372206195
 Root     13 :    11.490345812338890   Change is   -0.000000334309412
 Root     14 :    11.859742954973240   Change is   -0.000033403045034
 Root     15 :    12.234479959624470   Change is   -0.000033198901195
 Root     16 :    12.269066218835300   Change is   -0.000000545607689
 Root     17 :    12.474255793224620   Change is   -0.000101186902612
 Root     18 :    12.709375269429040   Change is   -0.000041572882361
 Root     19 :    12.884716919206120   Change is   -0.000006822491623
 Root     20 :    12.885773644926960   Change is   -0.000041000641746
 Root     21 :    12.988397484208160   Change is   -0.000012149302362
 Root     22 :    13.416739210447990   Change is   -0.000006890621052
 Root     23 :    13.677212773549800   Change is   -0.000008940531960
 Root     24 :    13.685151501564660   Change is   -0.000026632801811
 Root     25 :    13.907973968002000   Change is   -0.000006481402179
 Root     26 :    14.243767426255130   Change is   -0.000027927537724
 Root     27 :    14.473800030976300   Change is   -0.000001027704405
 Root     28 :    14.859590363843600   Change is   -0.000005634339290
 Root     29 :    14.947233416218180   Change is   -0.000056285738194
 Root     30 :    15.140296909708730   Change is   -0.000016336758098
 Convergence achieved on expansion vectors.
 ***********************************************************************
 Excited states from <AA,BB:AA,BB> singles matrix:
 ***********************************************************************
 
 1PDM for each excited state written to RWF  633
 Ground to excited state transition densities written to RWF  633
 Ground to excited state transition electric dipole moments (Au):
       state          X           Y           Z        Dip. S.      Osc.
         1         0.0000      0.0000     -0.0000      0.0000      0.0000
         2        -0.0000      0.4439      0.0000      0.1971      0.0330
         3        -0.0000      0.3643     -0.0000      0.1327      0.0248
         4        -0.0000      0.0000     -0.5089      0.2590      0.0496
         5         0.0000      0.0000     -0.0000      0.0000      0.0000
         6         0.0605      0.0000     -0.0000      0.0037      0.0008
         7         0.0000      0.0000      0.7060      0.4984      0.1178
         8         0.0000      0.0000      0.0000      0.0000      0.0000
         9        -0.0000      0.6983     -0.0000      0.4876      0.1234
        10        -0.4016     -0.0000      0.0000      0.1613      0.0417
        11         0.0000     -0.0408     -0.0000      0.0017      0.0005
        12         0.3811      0.0000     -0.0000      0.1453      0.0406
        13         0.0000      0.0000     -0.0000      0.0000      0.0000
        14         0.0000      0.0000     -0.2750      0.0756      0.0220
        15         0.0000      0.0000     -0.2804      0.0786      0.0236
        16        -0.0000     -0.0000      0.0000      0.0000      0.0000
        17        -0.0000     -0.0000     -0.9587      0.9191      0.2809
        18        -0.0000     -0.0000      0.4904      0.2405      0.0749
        19         0.0000     -0.3741     -0.0000      0.1400      0.0442
        20        -0.0000     -0.0000     -0.6985      0.4879      0.1540
        21        -0.0000     -0.5715      0.0000      0.3266      0.1039
        22        -0.2445      0.0000      0.0000      0.0598      0.0196
        23         0.1734     -0.0000      0.0000      0.0301      0.0101
        24        -0.0000     -0.3100     -0.0000      0.0961      0.0322
        25        -0.0000      0.2682      0.0000      0.0720      0.0245
        26        -0.0000     -0.0000     -0.0102      0.0001      0.0000
        27         0.0000      0.0000      0.0000      0.0000      0.0000
        28         0.0000     -0.0000      0.0000      0.0000      0.0000
        29        -0.2503      0.0000      0.0000      0.0627      0.0229
        30         0.0000      0.0000      0.2051      0.0421      0.0156
 Ground to excited state transition velocity dipole moments (Au):
       state          X           Y           Z        Dip. S.      Osc.
         1        -0.0000     -0.0000     -0.0000      0.0000      0.0000
         2         0.0000     -0.1122      0.0000      0.0126      0.0334
         3         0.0000     -0.1069     -0.0000      0.0114      0.0272
         4        -0.0000     -0.0000      0.1424      0.0203      0.0471
         5        -0.0000     -0.0000      0.0000      0.0000      0.0000
         6        -0.0326     -0.0000      0.0000      0.0011      0.0021
         7        -0.0000     -0.0000     -0.2400      0.0576      0.1083
         8        -0.0000     -0.0000     -0.0000      0.0000      0.0000
         9         0.0000     -0.2642     -0.0000      0.0698      0.1225
        10         0.1592      0.0000     -0.0000      0.0253      0.0436
        11        -0.0000     -0.0089     -0.0000      0.0001      0.0001
        12        -0.1688     -0.0000      0.0000      0.0285      0.0453
        13        -0.0000      0.0000      0.0000      0.0000      0.0000
        14        -0.0000     -0.0000      0.1186      0.0141      0.0215
        15        -0.0000      0.0000      0.1318      0.0174      0.0258
        16        -0.0000      0.0000     -0.0000      0.0000      0.0000
        17         0.0000      0.0000      0.4360      0.1901      0.2764
        18         0.0000      0.0000     -0.2387      0.0570      0.0813
        19        -0.0000      0.1750      0.0000      0.0306      0.0431
        20         0.0000      0.0000      0.3269      0.1069      0.1505
        21         0.0000      0.2696     -0.0000      0.0727      0.1015
        22         0.1144     -0.0000     -0.0000      0.0131      0.0177
        23        -0.0671      0.0000     -0.0000      0.0045      0.0060
        24         0.0000      0.1666      0.0000      0.0277      0.0368
        25         0.0000     -0.1394     -0.0000      0.0194      0.0253
        26         0.0000     -0.0000      0.0126      0.0002      0.0002
        27        -0.0000      0.0000     -0.0000      0.0000      0.0000
        28        -0.0000     -0.0000     -0.0000      0.0000      0.0000
        29         0.1429     -0.0000     -0.0000      0.0204      0.0248
        30        -0.0000      0.0000     -0.1138      0.0130      0.0155
 Ground to excited state transition magnetic dipole moments (Au):
       state          X           Y           Z
         1        -0.0000     -0.0000      1.2314
         2        -0.4308     -0.0000     -0.0000
         3         0.7200      0.0000      0.0000
         4        -0.0000      0.0000     -0.0000
         5         0.0000      0.0000     -0.0521
         6        -0.0000     -1.5363     -0.0000
         7         0.0000     -0.0000      0.0000
         8        -0.0000      0.0000     -0.6474
         9        -0.8532      0.0000      0.0000
        10         0.0000     -0.0192     -0.0000
        11         0.5797      0.0000      0.0000
        12        -0.0000      0.0482     -0.0000
        13         0.0000      0.0000      0.0410
        14         0.0000     -0.0000      0.0000
        15        -0.0000     -0.0000     -0.0000
        16         0.0000      0.0000      0.0108
        17         0.0000      0.0000      0.0000
        18         0.0000      0.0000     -0.0000
        19        -0.2282      0.0000      0.0000
        20         0.0000      0.0000     -0.0000
        21         0.3432      0.0000     -0.0000
        22        -0.0000      0.3849      0.0000
        23        -0.0000     -0.1845     -0.0000
        24        -0.6710      0.0000      0.0000
        25        -0.4382     -0.0000     -0.0000
        26         0.0000      0.0000      0.0000
        27        -0.0000     -0.0000      0.0473
        28        -0.0000      0.0000      0.0008
        29        -0.0000     -0.3057      0.0000
        30        -0.0000      0.0000      0.0000
 Ground to excited state transition velocity quadrupole moments (Au):
       state          XX          YY          ZZ          XY          XZ          YZ
         1         0.0000      0.0000      0.0000     -0.1025     -0.0000      0.0000
         2         0.0000      0.0000     -0.0000      0.0000     -0.0000      0.5066
         3        -0.0000     -0.0000     -0.0000     -0.0000     -0.0000      0.0337
         4        -0.0666     -0.3687     -0.2593      0.0000      0.0000     -0.0000
         5         0.0000      0.0000     -0.0000     -0.0897      0.0000      0.0000
         6         0.0000      0.0000      0.0000      0.0000     -0.3649      0.0000
         7         0.2682     -0.0870     -0.2984     -0.0000     -0.0000     -0.0000
         8        -0.0000     -0.0000     -0.0000      0.2278      0.0000      0.0000
         9         0.0000     -0.0000      0.0000     -0.0000      0.0000      0.5979
        10         0.0000     -0.0000     -0.0000      0.0000     -0.1002      0.0000
        11         0.0000     -0.0000     -0.0000     -0.0000     -0.0000      0.3345
        12         0.0000     -0.0000      0.0000     -0.0000     -0.2845     -0.0000
        13         0.0000      0.0000     -0.0000      0.2780     -0.0000     -0.0000
        14        -0.0255     -0.2103      0.0121      0.0000      0.0000     -0.0000
        15         0.6875     -0.0925      0.0355     -0.0000     -0.0000      0.0000
        16        -0.0000      0.0000      0.0000      0.3189      0.0000     -0.0000
        17        -0.2626     -0.8532     -0.8134     -0.0000      0.0000     -0.0000
        18        -0.0594      0.1262      0.2203     -0.0000      0.0000     -0.0000
        19         0.0000      0.0000      0.0000     -0.0000      0.0000     -0.1479
        20         0.2898      0.4583      0.1900      0.0000      0.0000     -0.0000
        21        -0.0000     -0.0000     -0.0000     -0.0000      0.0000     -0.5727
        22        -0.0000     -0.0000     -0.0000      0.0000      0.0526      0.0000
        23        -0.0000     -0.0000     -0.0000     -0.0000      0.0143      0.0000
        24        -0.0000      0.0000      0.0000     -0.0000     -0.0000      0.2222
        25         0.0000     -0.0000     -0.0000      0.0000     -0.0000     -0.3075
        26         0.3346      0.9758      0.1974     -0.0000      0.0000     -0.0000
        27        -0.0000     -0.0000     -0.0000      0.3275     -0.0000     -0.0000
        28         0.0000      0.0000      0.0000     -0.1946      0.0000      0.0000
        29        -0.0000      0.0000     -0.0000     -0.0000     -0.1634      0.0000
        30        -0.1830      0.4649     -0.1304     -0.0000      0.0000     -0.0000
 <0|del|b> * <b|rxdel|0> + <0|del|b> * <b|delr+rdel|0>
 Rotatory Strengths (R) in cgs (10**-40 erg-esu-cm/Gauss)
       state          XX          YY          ZZ    R(velocity)    E-M Angle
         1        -0.0000     -0.0000      0.0000     -0.0000       90.00
         2        -0.0000      0.0000     -0.0000     -0.0000       90.00
         3        -0.0000      0.0000     -0.0000     -0.0000       90.00
         4         0.0000     -0.0000     -0.0000     -0.0000       90.00
         5        -0.0000      0.0000      0.0000     -0.0000       90.00
         6         0.0000     -0.0000      0.0000      0.0000       90.00
         7         0.0000     -0.0000     -0.0000     -0.0000       90.00
         8         0.0000      0.0000      0.0000      0.0000       90.00
         9        -0.0000     -0.0000     -0.0000     -0.0000       90.00
        10         0.0000      0.0000      0.0000      0.0000       90.00
        11        -0.0000     -0.0000     -0.0000     -0.0000       90.00
        12        -0.0000      0.0000      0.0000      0.0000       90.00
        13         0.0000     -0.0000     -0.0000      0.0000       90.00
        14         0.0000     -0.0000     -0.0000      0.0000       90.00
        15        -0.0000      0.0000      0.0000     -0.0000       90.00
        16        -0.0000      0.0000      0.0000     -0.0000       90.00
        17        -0.0000      0.0000      0.0000      0.0000       90.00
        18         0.0000     -0.0000      0.0000      0.0000       90.00
        19         0.0000      0.0000      0.0000      0.0000       90.00
        20        -0.0000     -0.0000      0.0000     -0.0000       90.00
        21         0.0000     -0.0000      0.0000      0.0000       90.00
        22        -0.0000     -0.0000     -0.0000     -0.0000       90.00
        23        -0.0000      0.0000      0.0000      0.0000       90.00
        24         0.0000     -0.0000     -0.0000     -0.0000       90.00
        25        -0.0000     -0.0000      0.0000     -0.0000       90.00
        26        -0.0000      0.0000      0.0000      0.0000       90.00
        27        -0.0000      0.0000      0.0000     -0.0000       90.00
        28         0.0000     -0.0000     -0.0000     -0.0000       90.00
        29         0.0000      0.0000      0.0000      0.0000       90.00
        30         0.0000     -0.0000      0.0000     -0.0000       90.00
 1/2[<0|r|b>*<b|rxdel|0> + (<0|rxdel|b>*<b|r|0>)*]
 Rotatory Strengths (R) in cgs (10**-40 erg-esu-cm/Gauss)
       state          XX          YY          ZZ     R(length)
         1         0.0000      0.0000      0.0000      0.0000
         2        -0.0000      0.0000      0.0000      0.0000
         3         0.0000     -0.0000      0.0000     -0.0000
         4        -0.0000     -0.0000     -0.0000     -0.0000
         5        -0.0000     -0.0000     -0.0000     -0.0000
         6         0.0000      0.0000     -0.0000      0.0000
         7        -0.0000      0.0000     -0.0000     -0.0000
         8         0.0000     -0.0000      0.0000      0.0000
         9        -0.0000     -0.0000      0.0000     -0.0000
        10         0.0000     -0.0000      0.0000      0.0000
        11        -0.0000      0.0000      0.0000     -0.0000
        12         0.0000     -0.0000     -0.0000      0.0000
        13        -0.0000     -0.0000      0.0000      0.0000
        14        -0.0000      0.0000      0.0000      0.0000
        15         0.0000      0.0000     -0.0000     -0.0000
        16         0.0000      0.0000     -0.0000     -0.0000
        17         0.0000      0.0000      0.0000      0.0000
        18         0.0000      0.0000      0.0000      0.0000
        19         0.0000      0.0000      0.0000      0.0000
        20         0.0000      0.0000     -0.0000     -0.0000
        21         0.0000      0.0000      0.0000      0.0000
        22        -0.0000     -0.0000     -0.0000     -0.0000
        23         0.0000     -0.0000      0.0000      0.0000
        24        -0.0000      0.0000      0.0000     -0.0000
        25        -0.0000      0.0000      0.0000     -0.0000
        26         0.0000      0.0000      0.0000      0.0000
        27         0.0000      0.0000     -0.0000     -0.0000
        28         0.0000      0.0000     -0.0000     -0.0000
        29        -0.0000      0.0000     -0.0000      0.0000
        30         0.0000     -0.0000     -0.0000     -0.0000
  1/2[<0|del|b>*<b|r|0> + (<0|r|b>*<b|del|0>)*] (Au)
       state          X           Y           Z        Dip. S.   Osc.(frdel)
         1        -0.0000     -0.0000      0.0000      0.0000      0.0000
         2        -0.0000     -0.0498      0.0000      0.0498      0.0332
         3        -0.0000     -0.0390      0.0000      0.0390      0.0260
         4         0.0000     -0.0000     -0.0725      0.0725      0.0483
         5        -0.0000     -0.0000     -0.0000      0.0000      0.0000
         6        -0.0020     -0.0000     -0.0000      0.0020      0.0013
         7        -0.0000     -0.0000     -0.1694      0.1694      0.1130
         8        -0.0000     -0.0000     -0.0000      0.0000      0.0000
         9        -0.0000     -0.1845      0.0000      0.1845      0.1230
        10        -0.0639     -0.0000     -0.0000      0.0639      0.0426
        11        -0.0000      0.0004      0.0000     -0.0004     -0.0002
        12        -0.0643     -0.0000     -0.0000      0.0643      0.0429
        13        -0.0000      0.0000     -0.0000      0.0000      0.0000
        14        -0.0000     -0.0000     -0.0326      0.0326      0.0217
        15        -0.0000      0.0000     -0.0370      0.0370      0.0246
        16         0.0000     -0.0000     -0.0000      0.0000      0.0000
        17        -0.0000     -0.0000     -0.4180      0.4180      0.2786
        18        -0.0000     -0.0000     -0.1171      0.1171      0.0780
        19        -0.0000     -0.0655     -0.0000      0.0655      0.0436
        20        -0.0000     -0.0000     -0.2284      0.2284      0.1522
        21        -0.0000     -0.1541     -0.0000      0.1541      0.1027
        22        -0.0280     -0.0000     -0.0000      0.0280      0.0186
        23        -0.0116     -0.0000     -0.0000      0.0116      0.0078
        24        -0.0000     -0.0516     -0.0000      0.0516      0.0344
        25        -0.0000     -0.0374     -0.0000      0.0374      0.0249
        26        -0.0000      0.0000     -0.0001      0.0001      0.0001
        27        -0.0000      0.0000     -0.0000      0.0000      0.0000
        28        -0.0000      0.0000     -0.0000      0.0000      0.0000
        29        -0.0358     -0.0000     -0.0000      0.0358      0.0239
        30        -0.0000      0.0000     -0.0233      0.0233      0.0156

 Excitation energies and oscillator strengths:
 
 Excited State   1:      Singlet-A2     4.0315 eV  307.54 nm  f=0.0000  <S**2>=0.000
       3 -> 27         0.00255
       3 -> 38         0.00215
       3 -> 45         0.00241
       4 -> 27         0.00202
       4 -> 38        -0.00058
       4 -> 45        -0.00127
       5 ->  9         0.02121
       5 -> 13        -0.00370
       5 -> 17         0.00575
       5 -> 23        -0.00047
       5 -> 29         0.00433
       5 -> 31         0.00244
       5 -> 37         0.00353
       5 -> 44         0.00064
       5 -> 47         0.00015
       5 -> 52         0.00079
       6 -> 38        -0.00081
       6 -> 45         0.00177
       7 -> 12        -0.00062
       7 -> 15         0.00268
       7 -> 18        -0.00267
       7 -> 22         0.00083
       7 -> 25         0.00142
       7 -> 30        -0.00089
       7 -> 33         0.00043
       7 -> 35        -0.00030
       7 -> 40        -0.00027
       7 -> 49         0.00039
       7 -> 50         0.00031
       7 -> 53         0.00046
       8 ->  9         0.70510
       8 -> 13        -0.04719
       8 -> 17         0.02328
       8 -> 23        -0.01067
       8 -> 29         0.00878
       8 -> 31         0.00279
       8 -> 37        -0.00028
       8 -> 44        -0.00014
       8 -> 47        -0.00024
       8 -> 52         0.00164
       3 <- 27         0.00167
       3 <- 38         0.00179
       3 <- 45         0.00250
       4 <- 27         0.00284
       4 <- 45        -0.00109
       5 <-  9        -0.00035
       5 <- 13        -0.00084
       5 <- 17        -0.00096
       5 <- 23         0.00055
       5 <- 29        -0.00064
       5 <- 31        -0.00094
       5 <- 37         0.00167
       5 <- 44         0.00027
       5 <- 47         0.00016
       5 <- 52         0.00021
       6 <- 27         0.00051
       6 <- 38        -0.00073
       6 <- 45         0.00138
       7 <- 12        -0.00083
       7 <- 15        -0.00695
       7 <- 22         0.00724
       7 <- 25        -0.00023
       7 <- 30         0.00325
       7 <- 33        -0.00133
       7 <- 35        -0.00244
       7 <- 40        -0.00100
       7 <- 42         0.00012
       7 <- 49         0.00020
       7 <- 50         0.00020
       7 <- 53         0.00126
       8 <-  9        -0.02309
       8 <- 13         0.00333
       8 <- 17        -0.00423
       8 <- 23         0.00080
       8 <- 29        -0.00088
       8 <- 31         0.00096
       8 <- 37        -0.00154
       8 <- 52         0.00047
 This state for optimization and/or second-order correction.
 Total Energy, E(TD-HF/TD-DFT) =  -114.393384213    
 Copying the excited state density for this state as the 1-particle RhoCI density.
 
 Excited State   2:      Singlet-B2     6.8361 eV  181.37 nm  f=0.0330  <S**2>=0.000
       3 -> 12         0.00145
       3 -> 15         0.00072
       3 -> 18         0.00116
       3 -> 22        -0.00030
       3 -> 25         0.00130
       3 -> 30        -0.00010
       3 -> 33         0.00018
       3 -> 35         0.00037
       4 -> 12        -0.00337
       4 -> 15         0.00174
       4 -> 18         0.00213
       4 -> 22        -0.00334
       4 -> 25         0.00345
       4 -> 30         0.00026
       4 -> 33        -0.00056
       4 -> 35        -0.00065
       4 -> 40        -0.00047
       4 -> 42        -0.00010
       5 -> 10        -0.00613
       5 -> 11        -0.00893
       5 -> 14         0.00699
       5 -> 16        -0.00091
       5 -> 19         0.00090
       5 -> 20         0.00188
       5 -> 21         0.00568
       5 -> 26         0.00257
       5 -> 28         0.00133
       5 -> 32         0.00080
       5 -> 34        -0.00102
       5 -> 36        -0.00022
       5 -> 39        -0.00031
       5 -> 41        -0.00031
       5 -> 43        -0.00055
       5 -> 46        -0.00038
       5 -> 54         0.00011
       6 -> 12         0.00026
       6 -> 15         0.00150
       6 -> 18         0.00235
       6 -> 22        -0.00259
       6 -> 25         0.00126
       6 -> 30        -0.00049
       6 -> 33        -0.00020
       6 -> 35        -0.00031
       6 -> 40         0.00017
       6 -> 42        -0.00020
       6 -> 49         0.00046
       6 -> 50        -0.00036
       7 -> 27         0.00023
       7 -> 38        -0.00052
       7 -> 45         0.00048
       8 -> 10         0.70330
       8 -> 11        -0.06824
       8 -> 14         0.01181
       8 -> 16        -0.00678
       8 -> 19         0.01266
       8 -> 20         0.01374
       8 -> 21        -0.00329
       8 -> 24         0.00028
       8 -> 26         0.00227
       8 -> 28         0.00069
       8 -> 32        -0.00096
       8 -> 34         0.00144
       8 -> 36         0.00042
       8 -> 39         0.00040
       8 -> 41        -0.00017
       8 -> 43         0.00063
       8 -> 46        -0.00067
       8 -> 48        -0.00013
       8 -> 54         0.00018
       3 <- 12         0.00036
       3 <- 15         0.00054
       3 <- 18         0.00045
       3 <- 22        -0.00044
       3 <- 25         0.00077
       3 <- 30        -0.00011
       3 <- 33         0.00015
       3 <- 35         0.00034
       4 <- 12         0.00072
       4 <- 15         0.00188
       4 <- 18         0.00207
       4 <- 22        -0.00205
       4 <- 25         0.00238
       4 <- 30         0.00019
       4 <- 33        -0.00034
       4 <- 35        -0.00038
       4 <- 40        -0.00015
       4 <- 42        -0.00023
       4 <- 50        -0.00011
       5 <- 10         0.00241
       5 <- 11        -0.00025
       5 <- 14         0.00490
       5 <- 16        -0.00080
       5 <- 19         0.00020
       5 <- 20         0.00075
       5 <- 21         0.00219
       5 <- 24         0.00184
       5 <- 26         0.00156
       5 <- 28         0.00022
       5 <- 32         0.00053
       5 <- 34        -0.00098
       5 <- 36        -0.00030
       5 <- 39        -0.00017
       5 <- 41        -0.00012
       5 <- 43        -0.00041
       5 <- 46        -0.00033
       6 <- 12         0.00015
       6 <- 18         0.00126
       6 <- 22        -0.00077
       6 <- 25         0.00044
       6 <- 30         0.00030
       6 <- 33        -0.00027
       6 <- 35        -0.00042
       6 <- 40         0.00016
       6 <- 42        -0.00019
       6 <- 49         0.00038
       6 <- 50        -0.00036
       6 <- 53         0.00013
       7 <- 27         0.00019
       7 <- 38        -0.00039
       7 <- 45         0.00043
       8 <- 10        -0.00190
       8 <- 11        -0.00053
       8 <- 14        -0.00588
       8 <- 16        -0.00033
       8 <- 19        -0.00021
       8 <- 20        -0.00052
       8 <- 21        -0.00208
       8 <- 24        -0.00240
       8 <- 26        -0.00060
       8 <- 28        -0.00060
       8 <- 32        -0.00111
       8 <- 34         0.00044
       8 <- 36         0.00038
       8 <- 39         0.00032
       8 <- 43         0.00044
       8 <- 46        -0.00044
 
 Excited State   3:      Singlet-B2     7.6242 eV  162.62 nm  f=0.0248  <S**2>=0.000
       3 -> 12        -0.00029
       3 -> 15        -0.00077
       3 -> 18         0.00081
       3 -> 22         0.00039
       3 -> 25         0.00018
       3 -> 30         0.00204
       3 -> 33         0.00013
       3 -> 35         0.00045
       3 -> 40         0.00042
       3 -> 49         0.00043
       3 -> 50        -0.00023
       4 -> 12         0.00280
       4 -> 18         0.00253
       4 -> 22        -0.00150
       4 -> 25         0.00305
       4 -> 30        -0.00121
       4 -> 33         0.00051
       4 -> 35         0.00052
       4 -> 42        -0.00014
       4 -> 49         0.00024
       5 -> 10        -0.00732
       5 -> 14         0.00822
       5 -> 16        -0.00712
       5 -> 19        -0.00259
       5 -> 20        -0.00436
       5 -> 21         0.00139
       5 -> 24         0.00118
       5 -> 26         0.00080
       5 -> 28         0.00163
       5 -> 32         0.00018
       5 -> 34        -0.00121
       5 -> 36        -0.00023
       5 -> 39         0.00041
       5 -> 41        -0.00076
       5 -> 43         0.00012
       5 -> 46         0.00087
       5 -> 51        -0.00041
       6 -> 12        -0.00312
       6 -> 15        -0.00180
       6 -> 18        -0.00096
       6 -> 22         0.00132
       6 -> 25         0.00015
       6 -> 30         0.00094
       6 -> 33        -0.00053
       6 -> 35        -0.00149
       6 -> 40        -0.00102
       6 -> 49        -0.00108
       6 -> 50         0.00049
       6 -> 53         0.00011
       7 -> 38        -0.00096
       7 -> 45        -0.00172
       8 -> 10         0.06871
       8 -> 11         0.70284
       8 -> 14        -0.00693
       8 -> 16         0.01145
       8 -> 19        -0.02913
       8 -> 20         0.00759
       8 -> 21        -0.00276
       8 -> 24         0.00048
       8 -> 26        -0.00142
       8 -> 28         0.00089
       8 -> 32        -0.00024
       8 -> 34        -0.00018
       8 -> 39        -0.00020
       8 -> 41        -0.00125
       8 -> 43         0.00029
       8 -> 46         0.00184
       8 -> 48         0.00010
       8 -> 51        -0.00094
       8 -> 54        -0.00012
       3 <- 12         0.00034
       3 <- 15        -0.00024
       3 <- 18         0.00089
       3 <- 25         0.00032
       3 <- 30         0.00116
       3 <- 33         0.00024
       3 <- 35         0.00050
       3 <- 40         0.00038
       3 <- 49         0.00036
       3 <- 50        -0.00015
       3 <- 53        -0.00027
       4 <- 12         0.00034
       4 <- 15         0.00072
       4 <- 18         0.00063
       4 <- 22        -0.00115
       4 <- 25         0.00126
       4 <- 30        -0.00058
       4 <- 33         0.00046
       4 <- 35         0.00018
       4 <- 42        -0.00015
       4 <- 49         0.00018
       4 <- 50        -0.00013
       5 <- 10         0.00127
       5 <- 11        -0.00114
       5 <- 14         0.00255
       5 <- 16        -0.00043
       5 <- 19         0.00104
       5 <- 20        -0.00044
       5 <- 21         0.00077
       5 <- 24         0.00133
       5 <- 26        -0.00012
       5 <- 28         0.00073
       5 <- 32         0.00106
       5 <- 34        -0.00022
       5 <- 36         0.00016
       5 <- 39         0.00012
       5 <- 41        -0.00079
       5 <- 46         0.00081
       5 <- 48         0.00014
       5 <- 51        -0.00031
       6 <- 12        -0.00032
       6 <- 15        -0.00065
       6 <- 22         0.00068
       6 <- 25        -0.00010
       6 <- 30         0.00068
       6 <- 33        -0.00038
       6 <- 35        -0.00120
       6 <- 40        -0.00077
       6 <- 49        -0.00088
       6 <- 50         0.00039
       7 <- 27         0.00018
       7 <- 38        -0.00076
       7 <- 45        -0.00145
       8 <- 10        -0.00069
       8 <- 11        -0.00073
       8 <- 14        -0.00376
       8 <- 16         0.00047
       8 <- 19         0.00406
       8 <- 20        -0.00103
       8 <- 21        -0.00203
       8 <- 24         0.00034
       8 <- 26        -0.00168
       8 <- 28         0.00024
       8 <- 32         0.00113
       8 <- 34         0.00128
       8 <- 39        -0.00052
       8 <- 41        -0.00110
       8 <- 43         0.00015
       8 <- 46         0.00146
       8 <- 48         0.00022
       8 <- 51        -0.00064
 
 Excited State   4:      Singlet-A1     7.8149 eV  158.65 nm  f=0.0496  <S**2>=0.000
       3 -> 10         0.00193
       3 -> 11        -0.00084
       3 -> 14         0.00090
       3 -> 16        -0.00015
       3 -> 19        -0.00018
       3 -> 20         0.00187
       3 -> 21         0.00082
       3 -> 24        -0.00065
       3 -> 26         0.00119
       3 -> 28         0.00095
       3 -> 34        -0.00064
       3 -> 36        -0.00020
       3 -> 41        -0.00021
       3 -> 46         0.00014
       3 -> 48         0.00030
       3 -> 51        -0.00021
       3 -> 54        -0.00019
       4 -> 10         0.00485
       4 -> 11         0.00577
       4 -> 14         0.00488
       4 -> 16         0.00041
       4 -> 19         0.00026
       4 -> 20         0.00401
       4 -> 21         0.00068
       4 -> 24         0.00713
       4 -> 26         0.00170
       4 -> 28        -0.00038
       4 -> 32         0.00065
       4 -> 43         0.00016
       4 -> 46        -0.00021
       4 -> 51        -0.00015
       5 -> 12         0.00630
       5 -> 15         0.00226
       5 -> 18         0.01044
       5 -> 22        -0.00221
       5 -> 25         0.00536
       5 -> 30        -0.00016
       5 -> 33        -0.00016
       5 -> 35        -0.00076
       5 -> 50         0.00024
       5 -> 53        -0.00013
       6 -> 10         0.01220
       6 -> 11        -0.00263
       6 -> 14         0.00439
       6 -> 16         0.00088
       6 -> 19         0.00233
       6 -> 20         0.00394
       6 -> 21         0.00058
       6 -> 24         0.00363
       6 -> 28        -0.00185
       6 -> 32         0.00044
       6 -> 39         0.00011
       6 -> 43         0.00013
       6 -> 48        -0.00066
       6 -> 51         0.00021
       6 -> 54        -0.00010
       7 ->  9         0.01909
       7 -> 13         0.01052
       7 -> 17         0.00249
       7 -> 23         0.00523
       7 -> 29        -0.00055
       7 -> 31         0.00090
       7 -> 37         0.00058
       7 -> 44         0.00065
       7 -> 47        -0.00034
       7 -> 52        -0.00011
       8 -> 12         0.70575
       8 -> 15        -0.00778
       8 -> 18         0.03019
       8 -> 22         0.00425
       8 -> 25         0.00374
       8 -> 30         0.00015
       8 -> 33         0.00158
       8 -> 35         0.00198
       8 -> 40        -0.00058
       8 -> 42         0.00020
       8 -> 49        -0.00043
       8 -> 50         0.00028
       8 -> 53        -0.00023
       3 <- 10         0.00062
       3 <- 14         0.00049
       3 <- 19        -0.00025
       3 <- 20         0.00085
       3 <- 21         0.00057
       3 <- 24        -0.00012
       3 <- 26         0.00077
       3 <- 28         0.00063
       3 <- 32        -0.00020
       3 <- 34        -0.00043
       3 <- 36        -0.00015
       3 <- 41        -0.00014
       3 <- 46         0.00023
       3 <- 48         0.00025
       3 <- 51        -0.00018
       3 <- 54        -0.00017
       4 <- 10         0.00425
       4 <- 11         0.00133
       4 <- 14         0.00360
       4 <- 16        -0.00016
       4 <- 19         0.00012
       4 <- 20         0.00230
       4 <- 21         0.00017
       4 <- 24         0.00388
       4 <- 26         0.00106
       4 <- 32         0.00077
       4 <- 34        -0.00045
       4 <- 39        -0.00016
       4 <- 43         0.00011
       4 <- 46        -0.00017
       4 <- 51        -0.00014
       5 <- 12         0.00272
       5 <- 15         0.00257
       5 <- 18         0.00366
       5 <- 22        -0.00079
       5 <- 25         0.00290
       5 <- 30        -0.00014
       5 <- 33        -0.00034
       5 <- 35        -0.00070
       5 <- 50         0.00014
       5 <- 53        -0.00012
       6 <- 10         0.00302
       6 <- 14         0.00170
       6 <- 16         0.00025
       6 <- 19         0.00064
       6 <- 20         0.00184
       6 <- 24         0.00179
       6 <- 26         0.00020
       6 <- 28        -0.00119
       6 <- 32         0.00042
       6 <- 34        -0.00013
       6 <- 41         0.00013
       6 <- 46        -0.00013
       6 <- 48        -0.00055
       6 <- 51         0.00024
       7 <-  9         0.00034
       7 <- 13         0.00235
       7 <- 17         0.00054
       7 <- 23         0.00264
       7 <- 29        -0.00046
       7 <- 31         0.00062
       7 <- 37         0.00045
       7 <- 44         0.00054
       7 <- 47        -0.00029
       7 <- 52        -0.00010
       8 <- 12        -0.00088
       8 <- 15        -0.00562
       8 <- 18        -0.00185
       8 <- 22         0.00069
       8 <- 25        -0.00172
       8 <- 30        -0.00063
       8 <- 33         0.00068
       8 <- 35         0.00086
       8 <- 40        -0.00058
       8 <- 42         0.00019
       8 <- 49        -0.00045
       8 <- 50         0.00020
       8 <- 53        -0.00024
 
 Excited State   5:      Singlet-A2     8.3207 eV  149.01 nm  f=0.0000  <S**2>=0.000
       3 -> 27        -0.00047
       3 -> 38        -0.00042
       3 -> 45        -0.00023
       4 -> 27         0.00020
       4 -> 38         0.00048
       5 ->  9        -0.00621
       5 -> 13        -0.00438
       5 -> 17         0.00658
       5 -> 23        -0.00198
       5 -> 29        -0.00015
       5 -> 31        -0.00146
       5 -> 37        -0.00096
       5 -> 44        -0.00020
       6 -> 27         0.00023
       6 -> 38         0.00029
       6 -> 45        -0.00023
       7 -> 12        -0.00028
       7 -> 15        -0.00187
       7 -> 18         0.00201
       7 -> 22        -0.00069
       7 -> 35         0.00013
       7 -> 40         0.00011
       8 ->  9         0.04688
       8 -> 13         0.70500
       8 -> 17         0.01953
       8 -> 23         0.01690
       8 -> 29         0.00020
       8 -> 31        -0.00157
       8 -> 37        -0.00033
       8 -> 47         0.00017
       3 <- 27        -0.00014
       3 <- 38        -0.00027
       3 <- 45        -0.00031
       4 <- 27        -0.00011
       5 <-  9        -0.00032
       5 <- 13        -0.00033
       5 <- 17         0.00053
       5 <- 37        -0.00020
       6 <- 38         0.00019
       7 <- 12        -0.00061
       7 <- 15        -0.00099
       7 <- 18         0.00074
       7 <- 22        -0.00096
       7 <- 25        -0.00042
       7 <- 30         0.00022
       7 <- 33         0.00037
       7 <- 35         0.00060
       7 <- 40         0.00036
       8 <-  9         0.00179
       8 <- 13         0.00132
       8 <- 17         0.00024
       8 <- 23        -0.00016
       8 <- 37         0.00013
 
 Excited State   6:      Singlet-B1     9.2426 eV  134.14 nm  f=0.0008  <S**2>=0.000
       3 ->  9        -0.03240
       3 -> 13         0.00642
       3 -> 17        -0.00747
       3 -> 23         0.00472
       3 -> 29        -0.00304
       3 -> 44         0.00074
       3 -> 52         0.00112
       4 ->  9         0.01697
       4 -> 13        -0.00283
       4 -> 17         0.00109
       4 -> 23        -0.00247
       4 -> 29        -0.00014
       4 -> 31         0.00287
       4 -> 37        -0.00030
       4 -> 44        -0.00016
       4 -> 47        -0.00168
       4 -> 52        -0.00102
       5 -> 27        -0.00195
       5 -> 38         0.00231
       5 -> 45         0.00352
       6 ->  9         0.70422
       6 -> 13        -0.04353
       6 -> 17         0.02498
       6 -> 23        -0.01251
       6 -> 29         0.00920
       6 -> 31        -0.00303
       6 -> 37        -0.00258
       6 -> 44        -0.00342
       6 -> 47         0.00586
       6 -> 52         0.00202
       7 -> 10         0.00465
       7 -> 11         0.01545
       7 -> 14         0.00186
       7 -> 16        -0.01336
       7 -> 19        -0.00502
       7 -> 20         0.00368
       7 -> 21         0.00468
       7 -> 24        -0.00416
       7 -> 26         0.00505
       7 -> 28        -0.00392
       7 -> 32         0.00120
       7 -> 34        -0.00044
       7 -> 36        -0.00167
       7 -> 39         0.00062
       7 -> 41        -0.00259
       7 -> 43         0.00113
       7 -> 46         0.00520
       7 -> 48        -0.00215
       7 -> 51         0.00107
       7 -> 54         0.00050
       8 -> 27         0.00415
       8 -> 38         0.00131
       8 -> 45         0.00687
       3 <-  9        -0.00984
       3 <- 13         0.00139
       3 <- 17        -0.00336
       3 <- 23         0.00095
       3 <- 29        -0.00168
       3 <- 31        -0.00014
       3 <- 37        -0.00022
       3 <- 47         0.00025
       3 <- 52         0.00093
       4 <-  9         0.00456
       4 <- 17         0.00245
       4 <- 23        -0.00041
       4 <- 29         0.00206
       4 <- 31         0.00304
       4 <- 37         0.00042
       4 <- 44         0.00018
       4 <- 47        -0.00144
       4 <- 52        -0.00054
       5 <- 27        -0.00179
       5 <- 38         0.00173
       5 <- 45         0.00306
       6 <-  9        -0.02036
       6 <- 13         0.00432
       6 <- 17        -0.00315
       6 <- 23         0.00137
       6 <- 29        -0.00121
       6 <- 31        -0.00357
       6 <- 37        -0.00283
       6 <- 44        -0.00210
       6 <- 47         0.00500
       6 <- 52         0.00070
       7 <- 10         0.00121
       7 <- 11         0.00175
       7 <- 14         0.00027
       7 <- 16        -0.00012
       7 <- 19        -0.00238
       7 <- 20         0.00693
       7 <- 21         0.00623
       7 <- 24        -0.00717
       7 <- 26         0.00595
       7 <- 28         0.00163
       7 <- 32         0.00139
       7 <- 34         0.00127
       7 <- 36        -0.00259
       7 <- 39         0.00077
       7 <- 41        -0.00182
       7 <- 43         0.00113
       7 <- 46         0.00455
       7 <- 48        -0.00167
       7 <- 51         0.00069
       7 <- 54         0.00094
       8 <- 27         0.00318
       8 <- 38         0.00118
       8 <- 45         0.00586
 
 Excited State   7:      Singlet-A1     9.6504 eV  128.48 nm  f=0.1178  <S**2>=0.000
       3 -> 10         0.00325
       3 -> 11         0.01007
       3 -> 14         0.00433
       3 -> 16        -0.00123
       3 -> 19        -0.01370
       3 -> 20         0.01032
       3 -> 21         0.00770
       3 -> 24        -0.00819
       3 -> 26         0.01158
       3 -> 28         0.00520
       3 -> 32        -0.00383
       3 -> 34        -0.00291
       3 -> 36        -0.00337
       3 -> 39         0.00190
       3 -> 41         0.00033
       3 -> 43         0.00117
       3 -> 46         0.00171
       3 -> 51        -0.00050
       3 -> 54         0.00020
       4 -> 10         0.03964
       4 -> 11        -0.01280
       4 -> 14         0.02110
       4 -> 16        -0.00171
       4 -> 19         0.01440
       4 -> 20         0.00654
       4 -> 21         0.00295
       4 -> 24         0.01079
       4 -> 26         0.00517
       4 -> 28         0.00033
       4 -> 32         0.00188
       4 -> 34         0.00322
       4 -> 36         0.00113
       4 -> 39        -0.00012
       4 -> 46        -0.00106
       4 -> 48         0.00115
       4 -> 51         0.00021
       5 -> 12         0.04845
       5 -> 15         0.05126
       5 -> 18         0.00793
       5 -> 22        -0.00757
       5 -> 25         0.01829
       5 -> 30        -0.00590
       5 -> 33        -0.00173
       5 -> 35         0.00065
       5 -> 40        -0.00137
       5 -> 42         0.00092
       5 -> 49         0.00032
       5 -> 50        -0.00026
       5 -> 53        -0.00057
       6 -> 10        -0.01403
       6 -> 11        -0.01164
       6 -> 14         0.00072
       6 -> 16        -0.02493
       6 -> 19         0.01488
       6 -> 20        -0.04271
       6 -> 21        -0.02580
       6 -> 24         0.03043
       6 -> 26        -0.01811
       6 -> 28        -0.01406
       6 -> 34        -0.00391
       6 -> 36         0.00373
       6 -> 39        -0.00038
       6 -> 41        -0.00166
       6 -> 43        -0.00012
       6 -> 46         0.00103
       6 -> 48        -0.00157
       6 -> 51         0.00056
       7 ->  9         0.64850
       7 -> 13         0.05710
       7 -> 17        -0.02474
       7 -> 23         0.01410
       7 -> 29        -0.00568
       7 -> 31        -0.00086
       7 -> 37        -0.00029
       7 -> 44        -0.00025
       7 -> 47         0.00036
       7 -> 52         0.00099
       8 -> 12        -0.01550
       8 -> 15         0.25250
       8 -> 18        -0.01978
       8 -> 22        -0.05892
       8 -> 25         0.00779
       8 -> 30        -0.01324
       8 -> 33         0.00778
       8 -> 35         0.00943
       8 -> 40         0.00336
       8 -> 42        -0.00050
       8 -> 49         0.00046
       8 -> 50         0.00059
       8 -> 53        -0.00112
       3 <- 10         0.00128
       3 <- 11         0.00516
       3 <- 14         0.00298
       3 <- 19        -0.00783
       3 <- 20         0.00622
       3 <- 21         0.00585
       3 <- 24        -0.00579
       3 <- 26         0.00758
       3 <- 28         0.00354
       3 <- 32        -0.00307
       3 <- 34        -0.00152
       3 <- 36        -0.00239
       3 <- 39         0.00139
       3 <- 41         0.00013
       3 <- 43         0.00103
       3 <- 46         0.00187
       3 <- 48        -0.00034
       3 <- 51        -0.00046
       3 <- 54         0.00018
       4 <- 10         0.01013
       4 <- 11        -0.00344
       4 <- 14         0.00673
       4 <- 16        -0.00085
       4 <- 19         0.00617
       4 <- 20         0.00293
       4 <- 21         0.00114
       4 <- 24         0.00549
       4 <- 26         0.00331
       4 <- 28        -0.00019
       4 <- 32         0.00213
       4 <- 34         0.00187
       4 <- 36         0.00061
       4 <- 41        -0.00030
       4 <- 46        -0.00049
       4 <- 48         0.00109
       4 <- 51         0.00036
       5 <- 12         0.00894
       5 <- 15         0.01415
       5 <- 18         0.00316
       5 <- 22        -0.00333
       5 <- 25         0.00841
       5 <- 30        -0.00303
       5 <- 33        -0.00116
       5 <- 35         0.00011
       5 <- 40        -0.00113
       5 <- 42         0.00067
       5 <- 49         0.00024
       5 <- 50        -0.00025
       5 <- 53        -0.00046
       6 <- 10        -0.00172
       6 <- 11        -0.00152
       6 <- 14         0.00025
       6 <- 16        -0.00589
       6 <- 19         0.00452
       6 <- 20        -0.01470
       6 <- 21        -0.01055
       6 <- 24         0.01431
       6 <- 26        -0.00994
       6 <- 28        -0.00794
       6 <- 34        -0.00268
       6 <- 36         0.00255
       6 <- 39        -0.00023
       6 <- 41        -0.00108
       6 <- 43        -0.00011
       6 <- 46         0.00053
       6 <- 48        -0.00128
       6 <- 51         0.00039
       7 <-  9        -0.06234
       7 <- 13         0.01530
       7 <- 17        -0.01174
       7 <- 23         0.00956
       7 <- 29        -0.00543
       7 <- 31        -0.00167
       7 <- 37        -0.00046
       7 <- 44         0.00013
       7 <- 47        -0.00011
       7 <- 52         0.00077
       8 <- 12         0.00080
       8 <- 15         0.01971
       8 <- 18        -0.00229
       8 <- 22        -0.01719
       8 <- 25         0.00171
       8 <- 30        -0.00667
       8 <- 33         0.00459
       8 <- 35         0.00590
       8 <- 40         0.00241
       8 <- 42        -0.00039
       8 <- 49         0.00025
       8 <- 50         0.00043
       8 <- 53        -0.00094
 
 Excited State   8:      Singlet-A2    10.2349 eV  121.14 nm  f=0.0000  <S**2>=0.000
       3 -> 27        -0.00071
       3 -> 38        -0.00034
       3 -> 45         0.00074
       4 -> 27        -0.00573
       4 -> 38         0.00056
       4 -> 45        -0.00082
       5 ->  9         0.70335
       5 -> 13        -0.05238
       5 -> 17         0.01721
       5 -> 23        -0.01513
       5 -> 29         0.00385
       5 -> 31         0.00080
       5 -> 37        -0.00449
       5 -> 44        -0.00186
       5 -> 52         0.00054
       6 -> 27        -0.00154
       6 -> 38         0.00165
       6 -> 45         0.00086
       7 -> 12         0.02043
       7 -> 15         0.01499
       7 -> 18         0.00183
       7 -> 22        -0.00553
       7 -> 25         0.00150
       7 -> 30        -0.00133
       7 -> 35         0.00085
       7 -> 40         0.00024
       7 -> 42        -0.00023
       7 -> 49        -0.00048
       7 -> 50        -0.00050
       7 -> 53         0.00017
       8 ->  9        -0.02218
       8 -> 13         0.00634
       8 -> 17         0.02919
       8 -> 23         0.00169
       8 -> 29         0.00397
       8 -> 37         0.00444
       8 -> 44         0.00035
       8 -> 47         0.00015
       8 -> 52         0.00076
       3 <- 27        -0.00130
       3 <- 38        -0.00049
       3 <- 45         0.00099
       4 <- 27        -0.00415
       4 <- 38         0.00069
       4 <- 45        -0.00025
       5 <-  9        -0.00860
       5 <- 13         0.00225
       5 <- 17        -0.00121
       5 <- 23         0.00029
       5 <- 29         0.00011
       5 <- 31         0.00208
       5 <- 37        -0.00258
       5 <- 44        -0.00032
       5 <- 47        -0.00026
       5 <- 52         0.00017
       6 <- 27        -0.00150
       6 <- 38         0.00108
       6 <- 45         0.00056
       7 <- 12        -0.00146
       7 <- 15        -0.00224
       7 <- 22        -0.00116
       7 <- 25        -0.00216
       7 <- 30         0.00113
       7 <- 33         0.00036
       7 <- 35         0.00053
       7 <- 40         0.00049
       7 <- 42        -0.00048
       7 <- 49        -0.00061
       7 <- 50        -0.00058
       7 <- 53         0.00053
       8 <-  9         0.00035
       8 <- 13        -0.00041
       8 <- 17        -0.00147
       8 <- 23         0.00088
       8 <- 29        -0.00209
       8 <- 31        -0.00302
       8 <- 37         0.00160
       8 <- 44        -0.00012
       8 <- 47         0.00014
       8 <- 52         0.00014
 
 Excited State   9:      Singlet-B2    10.3332 eV  119.99 nm  f=0.1234  <S**2>=0.000
       3 -> 12        -0.00011
       3 -> 15        -0.00185
       3 -> 18         0.00129
       3 -> 22         0.00130
       3 -> 25         0.00113
       3 -> 30         0.00147
       3 -> 33        -0.00051
       3 -> 35         0.00032
       3 -> 40        -0.00021
       3 -> 42         0.00029
       3 -> 49         0.00040
       3 -> 50        -0.00017
       3 -> 53        -0.00015
       4 -> 12        -0.00455
       4 -> 15         0.00420
       4 -> 18         0.00366
       4 -> 22        -0.01362
       4 -> 25         0.00651
       4 -> 30         0.00019
       4 -> 33         0.00227
       4 -> 35         0.00214
       4 -> 40        -0.00212
       4 -> 42         0.00043
       4 -> 49         0.00031
       5 -> 10         0.02248
[...]
  46        4PY         0.00000   0.00000  -0.04033  -0.09107  -0.12623
  47        4PZ        -0.00203   0.00000   0.01125   0.01801   0.00816
  48        5S         -0.00089   0.00000   0.00285   0.00573   0.00423
  49        5PX         0.00000   0.00000   0.00000   0.00000   0.00000
  50        5PY         0.00000   0.00000  -0.02185  -0.03950  -0.03675
  51        5PZ        -0.00029   0.00000   0.00293   0.00386   0.00064
  52        6D 0        0.00028   0.00000  -0.00099  -0.00175  -0.00104
  53        6D+1        0.00000   0.00000   0.00000   0.00000   0.00000
  54        6D-1        0.00000   0.00000  -0.00262  -0.00260   0.00244
  55        6D+2        0.00002   0.00000  -0.00007  -0.00009  -0.00001
  56        6D-2        0.00000   0.00000   0.00000   0.00000   0.00000
                          26        27        28        29        30
  26        4PX         0.00022
  27        4PY         0.00000   0.00113
  28        4PZ         0.00000  -0.00047   0.00040
  29 3   H  1S          0.00000  -0.00239  -0.00196   0.08087
  30        2S          0.00000  -0.00291  -0.00315   0.11811   0.17728
  31        3S          0.00000  -0.00039  -0.00165   0.05174   0.08945
  32        4PX         0.00022   0.00000   0.00000   0.00000   0.00000
  33        4PY         0.00000  -0.00054  -0.00007   0.00775   0.01004
  34        4PZ         0.00000   0.00007  -0.00013   0.00436   0.00599
  35 4   O  1S          0.00000  -0.00031  -0.00087   0.00258   0.00242
  36        2S          0.00000  -0.00074  -0.00092   0.00439   0.00475
  37        2PX         0.00490   0.00000   0.00000   0.00000   0.00000
  38        2PY         0.00000  -0.00392   0.00181   0.02248   0.05751
  39        2PZ         0.00000  -0.00179  -0.00270   0.01137   0.01927
  40        3S          0.00000   0.00313   0.00098  -0.01461  -0.01786
  41        3PX         0.00723   0.00000   0.00000   0.00000   0.00000
  42        3PY         0.00000  -0.00575   0.00269   0.03191   0.08243
  43        3PZ         0.00000  -0.00251  -0.00381   0.01599   0.02707
  44        4S          0.00000   0.00188  -0.00139  -0.00783  -0.00581
  45        4PX         0.00578   0.00000   0.00000   0.00000   0.00000
  46        4PY         0.00000  -0.00422   0.00147   0.04033   0.09107
  47        4PZ         0.00000  -0.00174  -0.00190   0.01125   0.01801
  48        5S          0.00000  -0.00040  -0.00130   0.00285   0.00573
  49        5PX         0.00044   0.00000   0.00000   0.00000   0.00000
  50        5PY         0.00000   0.00000  -0.00065   0.02185   0.03950
  51        5PZ         0.00000  -0.00048   0.00006   0.00293   0.00386
  52        6D 0        0.00000   0.00016   0.00032  -0.00099  -0.00175
  53        6D+1       -0.00052   0.00000   0.00000   0.00000   0.00000
  54        6D-1        0.00000   0.00049  -0.00039   0.00262   0.00260
  55        6D+2        0.00000   0.00002   0.00001  -0.00007  -0.00009
  56        6D-2       -0.00000   0.00000   0.00000   0.00000   0.00000
                          31        32        33        34        35
  31        3S          0.07451
  32        4PX         0.00000   0.00022
  33        4PY         0.00120   0.00000   0.00113
  34        4PZ         0.00162   0.00000   0.00047   0.00040
  35 4   O  1S          0.00105   0.00000   0.00031  -0.00087   0.63971
  36        2S          0.00122   0.00000   0.00074  -0.00092   0.56910
  37        2PX         0.00000   0.00490   0.00000   0.00000   0.00000
  38        2PY         0.09207   0.00000  -0.00392  -0.00181   0.00000
  39        2PZ         0.01012   0.00000   0.00179  -0.00270  -0.01090
  40        3S         -0.00197   0.00000  -0.00313   0.00098  -0.13403
  41        3PX         0.00000   0.00723   0.00000   0.00000   0.00000
  42        3PY         0.13323   0.00000  -0.00575  -0.00269   0.00000
  43        3PZ         0.01424   0.00000   0.00251  -0.00381  -0.01381
  44        4S          0.00513   0.00000  -0.00188  -0.00139  -0.13188
  45        4PX         0.00000   0.00578   0.00000   0.00000   0.00000
  46        4PY         0.12623   0.00000  -0.00422  -0.00147   0.00000
  47        4PZ         0.00816   0.00000   0.00174  -0.00190  -0.01336
  48        5S          0.00423   0.00000   0.00040  -0.00130  -0.00218
  49        5PX         0.00000   0.00044   0.00000   0.00000   0.00000
  50        5PY         0.03675   0.00000   0.00000   0.00065   0.00000
  51        5PZ         0.00064   0.00000   0.00048   0.00006  -0.00053
  52        6D 0       -0.00104   0.00000  -0.00016   0.00032  -0.00087
  53        6D+1        0.00000  -0.00052   0.00000   0.00000   0.00000
  54        6D-1       -0.00244   0.00000   0.00049   0.00039   0.00000
  55        6D+2       -0.00001   0.00000  -0.00002   0.00001  -0.00068
  56        6D-2        0.00000   0.00000   0.00000   0.00000   0.00000
                          36        37        38        39        40
  36        2S          0.52346
  37        2PX         0.00000   0.11160
  38        2PY         0.00000   0.00000   0.18233
  39        2PZ        -0.01706   0.00000   0.00000   0.14009
  40        3S         -0.22646   0.00000   0.00000   0.05070   0.69741
  41        3PX         0.00000   0.16464   0.00000   0.00000   0.00000
  42        3PY         0.00000   0.00000   0.26497   0.00000   0.00000
  43        3PZ        -0.02208   0.00000   0.00000   0.19664   0.06744
  44        4S         -0.20585   0.00000   0.00000   0.14117   0.58217
  45        4PX         0.00000   0.13151   0.00000   0.00000   0.00000
  46        4PY         0.00000   0.00000   0.23260   0.00000   0.00000
  47        4PZ        -0.02239   0.00000   0.00000   0.11057   0.07008
  48        5S         -0.00669   0.00000   0.00000   0.06273   0.03128
  49        5PX         0.00000   0.00995   0.00000   0.00000   0.00000
  50        5PY         0.00000   0.00000   0.04922   0.00000   0.00000
  51        5PZ        -0.00102   0.00000   0.00000   0.00439   0.00354
  52        6D 0       -0.00175  -0.00000  -0.00000  -0.01392   0.00603
  53        6D+1        0.00000  -0.01184   0.00000   0.00000  -0.00000
  54        6D-1        0.00000   0.00000  -0.01072   0.00000  -0.00000
  55        6D+2       -0.00112   0.00000   0.00000   0.00021   0.00335
  56        6D-2        0.00000   0.00000   0.00000   0.00000   0.00000
                          41        42        43        44        45
  41        3PX         0.24288
  42        3PY         0.00000   0.38508
  43        3PZ         0.00000   0.00000   0.27606
  44        4S          0.00000   0.00000   0.19521   0.55896
  45        4PX         0.19401   0.00000   0.00000   0.00000   0.15498
  46        4PY         0.00000   0.33784   0.00000   0.00000   0.00000
  47        4PZ         0.00000   0.00000   0.15505   0.13439   0.00000
  48        5S          0.00000   0.00000   0.08805   0.07004   0.00000
  49        5PX         0.01467   0.00000   0.00000   0.00000   0.01172
  50        5PY         0.00000   0.07128   0.00000   0.00000   0.00000
  51        5PZ         0.00000   0.00000   0.00612   0.00555   0.00000
  52        6D 0       -0.00000  -0.00000  -0.01960  -0.00543  -0.00000
  53        6D+1       -0.01747   0.00000   0.00000   0.00000  -0.01395
  54        6D-1        0.00000  -0.01564   0.00000   0.00000   0.00000
  55        6D+2        0.00000   0.00000   0.00028   0.00277   0.00000
  56        6D-2        0.00000   0.00000   0.00000   0.00000   0.00000
                          46        47        48        49        50
  46        4PY         0.29962
  47        4PZ         0.00000   0.08895
  48        5S          0.00000   0.04972   0.02846
  49        5PX         0.00000   0.00000   0.00000   0.00089
  50        5PY         0.06670   0.00000   0.00000   0.00000   0.01858
  51        5PZ         0.00000   0.00381   0.00177   0.00000   0.00000
  52        6D 0       -0.00000  -0.01045  -0.00614  -0.00000  -0.00000
  53        6D+1        0.00000   0.00000   0.00000  -0.00106   0.00000
  54        6D-1       -0.01270   0.00000   0.00000   0.00000  -0.00157
  55        6D+2        0.00000   0.00031   0.00014   0.00000   0.00000
  56        6D-2        0.00000   0.00000   0.00000   0.00000   0.00000
                          51        52        53        54        55
  51        5PZ         0.00039
  52        6D 0       -0.00036   0.00157
  53        6D+1        0.00000   0.00000   0.00126
  54        6D-1        0.00000   0.00000   0.00000   0.00096
  55        6D+2        0.00002   0.00003   0.00000   0.00000   0.00002
  56        6D-2        0.00000   0.00000   0.00000   0.00000   0.00000
                          56
  56        6D-2        0.00000
          Condensed to atoms (all electrons):
               1          2          3          4
     1  C    4.809284   0.385729   0.385729   0.397162
     2  H    0.385729   0.681080  -0.103737  -0.071358
     3  H    0.385729  -0.103737   0.681080  -0.071358
     4  O    0.397162  -0.071358  -0.071358   7.984221
 Mulliken charges:
               1
     1  C    0.022095
     2  H    0.108286
     3  H    0.108286
     4  O   -0.238668
 Sum of Mulliken charges =  -0.00000
 Mulliken charges with hydrogens summed into heavy atoms:
               1
     1  C    0.238668
     4  O   -0.238668
 Electronic spatial extent (au):  <R**2>=             60.4283
 Charge=             -0.0000 electrons
 Dipole moment (field-independent basis, Debye):
    X=             -0.0000    Y=              0.0000    Z=             -2.4217  Tot=              2.4217
 Quadrupole moment (field-independent basis, Debye-Ang):
   XX=            -11.7128   YY=            -11.7469   ZZ=            -12.4729
   XY=              0.0000   XZ=              0.0000   YZ=             -0.0000
 Traceless Quadrupole moment (field-independent basis, Debye-Ang):
   XX=              0.2648   YY=              0.2306   ZZ=             -0.4954
   XY=              0.0000   XZ=              0.0000   YZ=             -0.0000
 Octapole moment (field-independent basis, Debye-Ang**2):
  XXX=              0.0000  YYY=             -0.0000  ZZZ=              0.3531  XYY=              0.0000
  XXY=             -0.0000  XXZ=              0.6841  XZZ=              0.0000  YZZ=             -0.0000
  YYZ=             -0.4411  XYZ=             -0.0000
 Hexadecapole moment (field-independent basis, Debye-Ang**3):
 XXXX=            -10.6078 YYYY=            -19.1322 ZZZZ=            -46.6115 XXXY=             -0.0000
 XXXZ=             -0.0000 YYYX=             -0.0000 YYYZ=              0.0000 ZZZX=             -0.0000
 ZZZY=              0.0000 XXYY=             -5.2525 XXZZ=             -9.5200 YYZZ=            -10.7842
 XXYZ=              0.0000 YYXZ=             -0.0000 ZZXY=             -0.0000
 N-N= 3.156362789208D+01 E-N=-3.321722196708D+02  KE= 1.141817180459D+02
 Symmetry A1   KE= 1.037013175909D+02
 Symmetry A2   KE= 9.444322611734D-36
 Symmetry B1   KE= 3.702950785825D+00
 Symmetry B2   KE= 6.777449669106D+00
 Leave Link  601 at Fri Sep 17 10:52:42 2021, MaxMem=   268435456 cpu:               0.0 elap:               0.0
 (Enter /software/gaussian/g16-a03/l9999.exe)
 Electronic transition elements 
                 1             2             3             4             5 
      1  -0.114393D+03 -0.114290D+03 -0.114261D+03 -0.114254D+03 -0.114236D+03
      2   0.000000D+00  0.000000D+00  0.000000D+00  0.000000D+00  0.000000D+00
      3   0.000000D+00  0.443914D+00  0.364325D+00  0.000000D+00  0.000000D+00
      4   0.000000D+00  0.000000D+00  0.000000D+00 -0.508933D+00  0.000000D+00
      5   0.000000D+00  0.000000D+00  0.000000D+00  0.000000D+00  0.000000D+00
      6   0.000000D+00 -0.112200D+00 -0.106936D+00  0.000000D+00  0.000000D+00
      7   0.000000D+00  0.000000D+00  0.000000D+00  0.142384D+00  0.000000D+00
      8   0.000000D+00 -0.430753D+00  0.719956D+00  0.000000D+00  0.000000D+00
      9   0.000000D+00  0.000000D+00  0.000000D+00  0.000000D+00  0.000000D+00
     10   0.123137D+01  0.000000D+00  0.000000D+00  0.000000D+00 -0.520522D-01
     11   0.000000D+00  0.000000D+00  0.000000D+00 -0.665948D-01  0.000000D+00
     12   0.000000D+00  0.000000D+00  0.000000D+00 -0.368718D+00  0.000000D+00
     13   0.000000D+00  0.000000D+00  0.000000D+00 -0.259313D+00  0.000000D+00
     14  -0.102452D+00  0.000000D+00  0.000000D+00  0.000000D+00 -0.897409D-01
     15   0.000000D+00  0.000000D+00  0.000000D+00  0.000000D+00  0.000000D+00
     16   0.000000D+00  0.506580D+00  0.337024D-01  0.000000D+00  0.000000D+00
                 6             7             8             9            10 
      1  -0.114202D+03 -0.114187D+03 -0.114165D+03 -0.114162D+03 -0.114154D+03
      2   0.605371D-01  0.000000D+00  0.000000D+00  0.000000D+00 -0.401560D+00
      3   0.000000D+00  0.000000D+00  0.000000D+00  0.698262D+00  0.000000D+00
      4   0.000000D+00  0.705957D+00  0.000000D+00  0.000000D+00  0.000000D+00
      5  -0.326452D-01  0.000000D+00  0.000000D+00  0.000000D+00  0.159153D+00
      6   0.000000D+00  0.000000D+00  0.000000D+00 -0.264175D+00  0.000000D+00
      7   0.000000D+00 -0.240020D+00  0.000000D+00  0.000000D+00  0.000000D+00
      8   0.000000D+00  0.000000D+00  0.000000D+00 -0.853194D+00  0.000000D+00
      9  -0.153628D+01  0.000000D+00  0.000000D+00  0.000000D+00 -0.192035D-01
     10   0.000000D+00  0.000000D+00 -0.647369D+00  0.000000D+00  0.000000D+00
     11   0.000000D+00  0.268202D+00  0.000000D+00  0.000000D+00  0.000000D+00
     12   0.000000D+00 -0.869947D-01  0.000000D+00  0.000000D+00  0.000000D+00
     13   0.000000D+00 -0.298436D+00  0.000000D+00  0.000000D+00  0.000000D+00
     14   0.000000D+00  0.000000D+00  0.227759D+00  0.000000D+00  0.000000D+00
     15  -0.364929D+00  0.000000D+00  0.000000D+00  0.000000D+00 -0.100222D+00
     16   0.000000D+00  0.000000D+00  0.000000D+00  0.597860D+00  0.000000D+00
                11            12            13            14            15 
      1  -0.114124D+03 -0.114122D+03 -0.114119D+03 -0.114106D+03 -0.114092D+03
      2   0.000000D+00  0.381132D+00  0.000000D+00  0.000000D+00  0.000000D+00
      3  -0.408094D-01  0.000000D+00  0.000000D+00  0.000000D+00  0.000000D+00
      4   0.000000D+00  0.000000D+00  0.000000D+00 -0.275011D+00 -0.280431D+00
      5   0.000000D+00 -0.168807D+00  0.000000D+00  0.000000D+00  0.000000D+00
      6  -0.891907D-02  0.000000D+00  0.000000D+00  0.000000D+00  0.000000D+00
      7   0.000000D+00  0.000000D+00  0.000000D+00  0.118612D+00  0.131807D+00
      8   0.579743D+00  0.000000D+00  0.000000D+00  0.000000D+00  0.000000D+00
      9   0.000000D+00  0.481598D-01  0.000000D+00  0.000000D+00  0.000000D+00
     10   0.000000D+00  0.000000D+00  0.410322D-01  0.000000D+00  0.000000D+00
     11   0.000000D+00  0.000000D+00  0.000000D+00 -0.254774D-01  0.687540D+00
     12   0.000000D+00  0.000000D+00  0.000000D+00 -0.210342D+00 -0.925156D-01
     13   0.000000D+00  0.000000D+00  0.000000D+00  0.120571D-01  0.355331D-01
     14   0.000000D+00  0.000000D+00  0.278032D+00  0.000000D+00  0.000000D+00
     15   0.000000D+00 -0.284475D+00  0.000000D+00  0.000000D+00  0.000000D+00
     16   0.334502D+00  0.000000D+00  0.000000D+00  0.000000D+00  0.000000D+00
                16            17            18            19            20 
      1  -0.114091D+03 -0.114083D+03 -0.114074D+03 -0.114068D+03 -0.114068D+03
      2   0.000000D+00  0.000000D+00  0.000000D+00  0.000000D+00  0.000000D+00
      3   0.000000D+00  0.000000D+00  0.000000D+00 -0.374119D+00  0.000000D+00
      4   0.000000D+00 -0.958710D+00  0.490435D+00  0.000000D+00 -0.698499D+00
      5   0.000000D+00  0.000000D+00  0.000000D+00  0.000000D+00  0.000000D+00
      6   0.000000D+00  0.000000D+00  0.000000D+00  0.174996D+00  0.000000D+00
      7   0.000000D+00  0.435968D+00 -0.238688D+00  0.000000D+00  0.326927D+00
      8   0.000000D+00  0.000000D+00  0.000000D+00 -0.228230D+00  0.000000D+00
      9   0.000000D+00  0.000000D+00  0.000000D+00  0.000000D+00  0.000000D+00
     10   0.108123D-01  0.000000D+00  0.000000D+00  0.000000D+00  0.000000D+00
     11   0.000000D+00 -0.262604D+00 -0.594391D-01  0.000000D+00  0.289839D+00
     12   0.000000D+00 -0.853188D+00  0.126223D+00  0.000000D+00  0.458258D+00
     13   0.000000D+00 -0.813420D+00  0.220344D+00  0.000000D+00  0.190008D+00
     14   0.318890D+00  0.000000D+00  0.000000D+00  0.000000D+00  0.000000D+00
     15   0.000000D+00  0.000000D+00  0.000000D+00  0.000000D+00  0.000000D+00
     16   0.000000D+00  0.000000D+00  0.000000D+00 -0.147914D+00  0.000000D+00
                21            22            23            24            25 
      1  -0.114064D+03 -0.114048D+03 -0.114039D+03 -0.114039D+03 -0.114030D+03
      2   0.000000D+00 -0.244482D+00  0.173446D+00  0.000000D+00  0.000000D+00
      3  -0.571471D+00  0.000000D+00  0.000000D+00 -0.309958D+00  0.268236D+00
      4   0.000000D+00  0.000000D+00  0.000000D+00  0.000000D+00  0.000000D+00
      5   0.000000D+00  0.114397D+00 -0.670504D-01  0.000000D+00  0.000000D+00
      6   0.269629D+00  0.000000D+00  0.000000D+00  0.166564D+00 -0.139389D+00
      7   0.000000D+00  0.000000D+00  0.000000D+00  0.000000D+00  0.000000D+00
      8   0.343211D+00  0.000000D+00  0.000000D+00 -0.671005D+00 -0.438171D+00
      9   0.000000D+00  0.384900D+00 -0.184531D+00  0.000000D+00  0.000000D+00
     10   0.000000D+00  0.000000D+00  0.000000D+00  0.000000D+00  0.000000D+00
     11   0.000000D+00  0.000000D+00  0.000000D+00  0.000000D+00  0.000000D+00
     12   0.000000D+00  0.000000D+00  0.000000D+00  0.000000D+00  0.000000D+00
     13   0.000000D+00  0.000000D+00  0.000000D+00  0.000000D+00  0.000000D+00
     14   0.000000D+00  0.000000D+00  0.000000D+00  0.000000D+00  0.000000D+00
     15   0.000000D+00  0.525972D-01  0.142709D-01  0.000000D+00  0.000000D+00
     16  -0.572664D+00  0.000000D+00  0.000000D+00  0.222162D+00 -0.307470D+00
                26            27            28            29            30 
      1  -0.114018D+03 -0.114010D+03 -0.113995D+03 -0.113992D+03 -0.113985D+03
      2   0.000000D+00  0.000000D+00  0.000000D+00 -0.250321D+00  0.000000D+00
      3   0.000000D+00  0.000000D+00  0.000000D+00  0.000000D+00  0.000000D+00
      4  -0.102459D-01  0.000000D+00  0.000000D+00  0.000000D+00  0.205080D+00
      5   0.000000D+00  0.000000D+00  0.000000D+00  0.142933D+00  0.000000D+00
      6   0.000000D+00  0.000000D+00  0.000000D+00  0.000000D+00  0.000000D+00
      7   0.125553D-01  0.000000D+00  0.000000D+00  0.000000D+00 -0.113802D+00
      8   0.000000D+00  0.000000D+00  0.000000D+00  0.000000D+00  0.000000D+00
      9   0.000000D+00  0.000000D+00  0.000000D+00 -0.305707D+00  0.000000D+00
     10   0.000000D+00  0.472795D-01  0.795523D-03  0.000000D+00  0.000000D+00
     11   0.334622D+00  0.000000D+00  0.000000D+00  0.000000D+00 -0.183016D+00
     12   0.975764D+00  0.000000D+00  0.000000D+00  0.000000D+00  0.464907D+00
     13   0.197436D+00  0.000000D+00  0.000000D+00  0.000000D+00 -0.130450D+00
     14   0.000000D+00  0.327492D+00 -0.194564D+00  0.000000D+00  0.000000D+00
     15   0.000000D+00  0.000000D+00  0.000000D+00 -0.163359D+00  0.000000D+00
     16   0.000000D+00  0.000000D+00  0.000000D+00  0.000000D+00  0.000000D+00

 Test job not archived.
 1\1\GINC-BHD0012\SP\RB3LYP TD-FC\6-311+G(d,p)\C1H2O1\BWEIGHT\17-Sep-20
 21\0\\#p B3LYP/6-311+G** #p TD=(singlets,nstates=30)IOp(6/8=3) IOp(9/4
 0=4)\\Scan Step 138, Bond Length 1.19\\0,1\C,0,0.,0.,-0.52736\H,0,0.,0
 .93726,-1.11871\H,0,0.,-0.93726,-1.11871\O,0,0.,0.,0.66264\\Version=ES
 64L-G16RevA.03\State=1-A1\HF=-114.5415392\RMSD=4.378e-09\PG=C02V [C2(C
 1O1),SGV(H2)]\\@


 A warm smile is the universal language of kindness.
                             -- William Arthur Ward
 Job cpu time:       0 days  0 hours  0 minutes 26.1 seconds.
 Elapsed time:       0 days  0 hours  0 minutes 26.7 seconds.
 File lengths (MBytes):  RWF=     79 Int=      0 D2E=      0 Chk=     32 Scr=      1
 Normal termination of Gaussian 16 at Fri Sep 17 10:52:42 2021.
