 Entering Gaussian System, Link 0=g16
 Initial command:
 /software/gaussian/g16-c01/sse4/g16/l1.exe "/local_scratch/24657541/Gau-10401.inp" -scrdir="/local_scratch/24657541/"
 Entering Link 1 = /software/gaussian/g16-c01/sse4/g16/l1.exe PID=     10403.
  
 Copyright (c) 1988-2019, Gaussian, Inc.  All Rights Reserved.
  
 This is part of the Gaussian(R) 16 program.  It is based on
 the Gaussian(R) 09 system (copyright 2009, Gaussian, Inc.),
 the Gaussian(R) 03 system (copyright 2003, Gaussian, Inc.),
 the Gaussian(R) 98 system (copyright 1998, Gaussian, Inc.),
 the Gaussian(R) 94 system (copyright 1995, Gaussian, Inc.),
 the Gaussian 92(TM) system (copyright 1992, Gaussian, Inc.),
 the Gaussian 90(TM) system (copyright 1990, Gaussian, Inc.),
 the Gaussian 88(TM) system (copyright 1988, Gaussian, Inc.),
 the Gaussian 86(TM) system (copyright 1986, Carnegie Mellon
 University), and the Gaussian 82(TM) system (copyright 1983,
 Carnegie Mellon University). Gaussian is a federally registered
 trademark of Gaussian, Inc.
  
 This software contains proprietary and confidential information,
 including trade secrets, belonging to Gaussian, Inc.
  
 This software is provided under written license and may be
 used, copied, transmitted, or stored only in accord with that
 written license.
  
 The following legend is applicable only to US Government
 contracts under FAR:
  
                    RESTRICTED RIGHTS LEGEND
  
 Use, reproduction and disclosure by the US Government is
 subject to restrictions as set forth in subparagraphs (a)
 and (c) of the Commercial Computer Software - Restricted
 Rights clause in FAR 52.227-19.
  
 Gaussian, Inc.
 340 Quinnipiac St., Bldg. 40, Wallingford CT 06492
  
  
 ---------------------------------------------------------------
 Warning -- This program may not be used in any manner that
 competes with the business of Gaussian, Inc. or will provide
 assistance to any competitor of Gaussian, Inc.  The licensee
 of this program is prohibited from giving any competitor of
 Gaussian, Inc. access to this program.  By using this program,
 the user acknowledges that Gaussian, Inc. is engaged in the
 business of creating and licensing software in the field of
 computational chemistry and represents and warrants to the
 licensee that it is not a competitor of Gaussian, Inc. and that
 it will not use this program in any manner prohibited above.
 ---------------------------------------------------------------
  

 Cite this work as:
 Gaussian 16, Revision C.01,
 M. J. Frisch, G. W. Trucks, H. B. Schlegel, G. E. Scuseria, 
 M. A. Robb, J. R. Cheeseman, G. Scalmani, V. Barone, 
 G. A. Petersson, H. Nakatsuji, X. Li, M. Caricato, A. V. Marenich, 
 J. Bloino, B. G. Janesko, R. Gomperts, B. Mennucci, H. P. Hratchian, 
 J. V. Ortiz, A. F. Izmaylov, J. L. Sonnenberg, D. Williams-Young, 
 F. Ding, F. Lipparini, F. Egidi, J. Goings, B. Peng, A. Petrone, 
 T. Henderson, D. Ranasinghe, V. G. Zakrzewski, J. Gao, N. Rega, 
 G. Zheng, W. Liang, M. Hada, M. Ehara, K. Toyota, R. Fukuda, 
 J. Hasegawa, M. Ishida, T. Nakajima, Y. Honda, O. Kitao, H. Nakai, 
 T. Vreven, K. Throssell, J. A. Montgomery, Jr., J. E. Peralta, 
 F. Ogliaro, M. J. Bearpark, J. J. Heyd, E. N. Brothers, K. N. Kudin, 
 V. N. Staroverov, T. A. Keith, R. Kobayashi, J. Normand, 
 K. Raghavachari, A. P. Rendell, J. C. Burant, S. S. Iyengar, 
 J. Tomasi, M. Cossi, J. M. Millam, M. Klene, C. Adamo, R. Cammi, 
 J. W. Ochterski, R. L. Martin, K. Morokuma, O. Farkas, 
 J. B. Foresman, and D. J. Fox, Gaussian, Inc., Wallingford CT, 2019.
 
 ******************************************
 Gaussian 16:  ES64L-G16RevC.01  3-Jul-2019
                 1-May-2024 
 ******************************************
 %chk=geometry.chk
 %mem=9GB
 %nprocshared=12
 Will use up to   12 processors via shared memory.
 ----------------------------------------
 #P wB97XD/6-311+G* NoSymm #P Field=Z-194
 ----------------------------------------
 1/38=1,172=1/1;
 2/12=2,15=1,17=6,18=5,40=1/2;
 3/5=4,6=6,7=11,11=2,14=3,15=-194,25=1,30=1,74=-58/1,2,3;
 4//1;
 5/5=2,38=5/2;
 6/7=2,8=2,9=2,10=2,28=1/1;
 99/5=1,9=1/99;
 Leave Link    1 at Wed May  1 14:58:59 2024, MaxMem=  1207959552 cpu:               1.6 elap:               1.6
 (Enter /software/gaussian/g16-c01/sse4/g16/l101.exe)
 -------
 TitleMe
 -------
 Symbolic Z-matrix:
 Charge =  1 Multiplicity = 1
 C                     0.0295    1.3397    0.0682 
 C                     1.4348    1.2867    0.0064 
 C                     2.1118    0.0511   -0.0054 
 C                     1.4451   -1.1372    0.0312 
 C                    -0.6879    0.1682    0.11 
 H                    -0.4713    2.2984    0.0781 
 H                     2.0273    2.1965   -0.0322 
 H                     1.9897   -2.0764    0.0232 
 H                    -1.7716    0.1804    0.1582 
 N                     3.5864    0.051    -0.0675 
 O                     4.1471   -1.0597   -0.0881 
 O                     4.145     1.1639   -0.0901 
 C                    -0.0236   -1.1458    0.0835 
 H                    -0.4367   -1.8725    0.7889 
 Br                   -0.5359   -1.8697   -1.7408 
 
 ITRead=  0  0  0  0  0  0  0  0  0  0  0  0  0  0  0
 MicOpt= -1 -1 -1 -1 -1 -1 -1 -1 -1 -1 -1 -1 -1 -1 -1
 NAtoms=     15 NQM=       15 NQMF=       0 NMMI=      0 NMMIF=      0
                NMic=       0 NMicF=      0.
                    Isotopes and Nuclear Properties:
 (Nuclear quadrupole moments (NQMom) in fm**2, nuclear magnetic moments (NMagM)
  in nuclear magnetons)

  Atom         1           2           3           4           5           6           7           8           9          10
 IAtWgt=          12          12          12          12          12           1           1           1           1          14
 AtmWgt=  12.0000000  12.0000000  12.0000000  12.0000000  12.0000000   1.0078250   1.0078250   1.0078250   1.0078250  14.0030740
 NucSpn=           0           0           0           0           0           1           1           1           1           2
 AtZEff=  -0.0000000  -0.0000000  -0.0000000  -0.0000000  -0.0000000  -0.0000000  -0.0000000  -0.0000000  -0.0000000  -0.0000000
 NQMom=    0.0000000   0.0000000   0.0000000   0.0000000   0.0000000   0.0000000   0.0000000   0.0000000   0.0000000   2.0440000
 NMagM=    0.0000000   0.0000000   0.0000000   0.0000000   0.0000000   2.7928460   2.7928460   2.7928460   2.7928460   0.4037610
 AtZNuc=   6.0000000   6.0000000   6.0000000   6.0000000   6.0000000   1.0000000   1.0000000   1.0000000   1.0000000   7.0000000

  Atom        11          12          13          14          15
 IAtWgt=          16          16          12           1          79
 AtmWgt=  15.9949146  15.9949146  12.0000000   1.0078250  78.9183361
 NucSpn=           0           0           0           1           3
 AtZEff=  -0.0000000  -0.0000000  -0.0000000  -0.0000000  -0.0000000
 NQMom=    0.0000000   0.0000000   0.0000000   0.0000000  31.3000000
 NMagM=    0.0000000   0.0000000   0.0000000   2.7928460   2.1063990
 AtZNuc=   8.0000000   8.0000000   6.0000000   1.0000000  35.0000000
 Leave Link  101 at Wed May  1 14:59:01 2024, MaxMem=  1207959552 cpu:               1.5 elap:               1.5
 (Enter /software/gaussian/g16-c01/sse4/g16/l202.exe)
                          Input orientation:                          
 ---------------------------------------------------------------------
 Center     Atomic      Atomic             Coordinates (Angstroms)
 Number     Number       Type             X           Y           Z
 ---------------------------------------------------------------------
      1          6           0        0.029500    1.339700    0.068200
      2          6           0        1.434800    1.286700    0.006400
      3          6           0        2.111800    0.051100   -0.005400
      4          6           0        1.445100   -1.137200    0.031200
      5          6           0       -0.687900    0.168200    0.110000
      6          1           0       -0.471300    2.298400    0.078100
      7          1           0        2.027300    2.196500   -0.032200
      8          1           0        1.989700   -2.076400    0.023200
      9          1           0       -1.771600    0.180400    0.158200
     10          7           0        3.586400    0.051000   -0.067500
     11          8           0        4.147100   -1.059700   -0.088100
     12          8           0        4.145000    1.163900   -0.090100
     13          6           0       -0.023600   -1.145800    0.083500
     14          1           0       -0.436700   -1.872500    0.788900
     15         35           0       -0.535900   -1.869700   -1.740800
 ---------------------------------------------------------------------
                    Distance matrix (angstroms):
                    1          2          3          4          5
     1  C    0.000000
     2  C    1.407656   0.000000
     3  C    2.449874   1.408963   0.000000
     4  C    2.853126   2.424049   1.363043   0.000000
     5  C    1.374344   2.401589   2.804523   2.501993   0.000000
     6  H    1.081667   2.159142   3.424870   3.934226   2.141421
     7  H    2.176095   1.086408   2.147231   3.384750   3.392128
     8  H    3.938800   3.408612   2.131193   1.085702   3.495040
     9  H    2.143837   3.395283   3.888995   3.478413   1.084840
    10  N    3.785591   2.482297   1.475907   2.450862   4.279589
    11  O    4.768247   3.587631   2.320164   2.705743   4.992415
    12  O    4.122294   2.714696   2.319353   3.549540   4.938459
    13  C    2.486114   2.837240   2.449573   1.469656   1.472614
    14  H    3.324903   3.754379   3.290289   2.157764   2.165286
    15  Br   3.727252   4.110867   3.702891   2.756973   2.757100
                    6          7          8          9         10
     6  H    0.000000
     7  H    2.503108   0.000000
     8  H    5.019802   4.273425   0.000000
     9  H    2.486588   4.304945   4.388479   0.000000
    10  N    4.640790   2.652397   2.661486   5.364313   0.000000
    11  O    5.712624   3.885809   2.387560   6.052233   1.244373
    12  O    4.756638   2.356750   3.893289   6.002923   1.245428
    13  C    3.473180   3.923079   2.218790   2.195425   3.806210
    14  H    4.231175   4.827242   2.552506   2.528663   4.540772
    15  Br   4.548146   5.101303   3.087568   3.055498   4.845862
                   11         12         13         14         15
    11  O    0.000000
    12  O    2.223602   0.000000
    13  C    4.175117   4.768865   0.000000
    14  H    4.737193   5.566358   1.093770   0.000000
    15  Br   5.031700   5.817075   2.028436   2.531646   0.000000
 Symmetry turned off by external request.
 Stoichiometry    C6H5BrNO2(1+)
 Framework group  C1[X(C6H5BrNO2)]
 Deg. of freedom    39
 Full point group                 C1      NOp   1
 Rotational constants (GHZ):           1.8252210           0.5518633           0.4576002
 Leave Link  202 at Wed May  1 14:59:02 2024, MaxMem=  1207959552 cpu:               1.4 elap:               1.4
 (Enter /software/gaussian/g16-c01/sse4/g16/l301.exe)
 Standard basis: 6-311+G(d) (5D, 7F)
 Ernie: Thresh=  0.10000D-02 Tol=  0.10000D-05 Strict=F.
 The following finite field(s) will be applied:
 An electric field of              0.0000  0.0000 -0.0194
   261 basis functions,   443 primitive gaussians,   273 cartesian basis functions
    49 alpha electrons       49 beta electrons
       nuclear repulsion energy       739.2122215416 Hartrees.
 IExCor= 4639 DFT=T Ex+Corr=wB97XD ExCW=0 ScaHFX=  1.000000
 ScaDFX=  1.000000  1.000000  1.000000  1.000000 ScalE2=  1.000000  1.000000
 IRadAn=      5 IRanWt=     -1 IRanGd=            0 ICorTp=0 IEmpDi=121
 HFx  wShort=  0.000000 wLong=  0.200000 cFull=  0.222036 cShort=  0.000000 cLong=  0.777964
 DFx  wShort=  0.000000 wLong=  0.200000 cFull=  0.000000 cShort=  0.000000 cLong=  1.000000
 NAtoms=   15 NActive=   15 NUniq=   15 SFac= 1.00D+00 NAtFMM=   60 NAOKFM=F Big=F
 Integral buffers will be    131072 words long.
 Raffenetti 2 integral format.
 Two-electron integral symmetry is turned off.
 R6Disp:  Grimme-D2 Dispersion energy=       -0.0077368520 Hartrees.
 Nuclear repulsion after empirical dispersion term =      739.2044846896 Hartrees.
 Leave Link  301 at Wed May  1 14:59:03 2024, MaxMem=  1207959552 cpu:               1.0 elap:               1.0
 (Enter /software/gaussian/g16-c01/sse4/g16/l302.exe)
 NPDir=0 NMtPBC=     1 NCelOv=     1 NCel=       1 NClECP=     1 NCelD=      1
         NCelK=      1 NCelE2=     1 NClLst=     1 CellRange=     0.0.
 One-electron integrals computed using PRISM.
 NBasis=   261 RedAO= T EigKep=  2.35D-06  NBF=   261
 NBsUse=   261 1.00D-06 EigRej= -1.00D+00 NBFU=   261
 Precomputing XC quadrature grid using
 IXCGrd= 4 IRadAn=           5 IRanWt=          -1 IRanGd=           0 AccXCQ= 0.00D+00.
 Generated NRdTot=       0 NPtTot=           0 NUsed=           0 NTot=          32
 NSgBfM=   273   273   273   273   273 MxSgAt=    15 MxSgA2=    15.
 Leave Link  302 at Wed May  1 14:59:25 2024, MaxMem=  1207959552 cpu:              21.9 elap:              21.9
 (Enter /software/gaussian/g16-c01/sse4/g16/l303.exe)
 DipDrv:  MaxL=1.
 The nuclear repulsion energy is now       741.4058306205 hartrees.
 Leave Link  303 at Wed May  1 14:59:28 2024, MaxMem=  1207959552 cpu:               3.3 elap:               3.3
 (Enter /software/gaussian/g16-c01/sse4/g16/l401.exe)
 ExpMin= 3.50D-02 ExpMax= 4.40D+05 ExpMxC= 1.51D+04 IAcc=3 IRadAn=         5 AccDes= 0.00D+00
 Harris functional with IExCor= 4639 and IRadAn=       5 diagonalized for initial guess.
 HarFok:  IExCor= 4639 AccDes= 0.00D+00 IRadAn=         5 IDoV= 1 UseB2=F ITyADJ=14
 ICtDFT=  3500011 ScaDFX=  1.000000  1.000000  1.000000  1.000000
 FoFCou: FMM=F IPFlag=           0 FMFlag=      100000 FMFlg1=           0
         NFxFlg=           0 DoJE=T BraDBF=F KetDBF=T FulRan=T
         wScrn=  0.000000 ICntrl=       500 IOpCl=  0 I1Cent=   200000004 NGrid=           0
         NMat0=    1 NMatS0=      1 NMatT0=    0 NMatD0=    1 NMtDS0=    0 NMtDT0=    0
 Symmetry not used in FoFCou.
 Harris En= -2970.63569954017    
 JPrj=0 DoOrth=F DoCkMO=F.
 Leave Link  401 at Wed May  1 14:59:59 2024, MaxMem=  1207959552 cpu:              30.4 elap:              30.4
 (Enter /software/gaussian/g16-c01/sse4/g16/l502.exe)
 Two-electron integral symmetry not used.
 Closed shell SCF:
 Using DIIS extrapolation, IDIIS=  1040.
 NGot=  1207959552 LenX=  1207804877 LenY=  1207729907
 Requested convergence on RMS density matrix=1.00D-08 within 128 cycles.
 Requested convergence on MAX density matrix=1.00D-06.
 Requested convergence on             energy=1.00D-06.
 No special actions if energy rises.
 Fock matrices will be formed incrementally for  20 cycles.

 Cycle   1  Pass 1  IDiag  1:
 FoFJK:  IHMeth= 1 ICntrl=       0 DoSepK=T KAlg= 0 I1Cent=           0 FoldK=F
 IRaf=         1 NMat=       1 IRICut=       1 DoRegI=T DoRafI=F ISym2E= 0 IDoP0=0 IntGTp=1.
 FoFCou: FMM=F IPFlag=           0 FMFlag=      100000 FMFlg1=           0
         NFxFlg=           0 DoJE=T BraDBF=F KetDBF=F FulRan=T
         wScrn=  0.000000 ICntrl=       500 IOpCl=  0 I1Cent=           0 NGrid=           0
         NMat0=    1 NMatS0=      1 NMatT0=    0 NMatD0=    1 NMtDS0=    0 NMtDT0=    0
 Symmetry not used in FoFCou.
 E= -3009.69716073051    
 DIIS: error= 3.20D-01 at cycle   1 NSaved=   1.
 NSaved= 1 IEnMin= 1 EnMin= -3009.69716073051     IErMin= 1 ErrMin= 3.20D-01
 ErrMax= 3.20D-01  0.00D+00 EMaxC= 1.00D-01 BMatC= 1.19D+01 BMatP= 1.19D+01
 IDIUse=3 WtCom= 0.00D+00 WtEn= 1.00D+00
 Coeff-Com:  0.100D+01
 Coeff-En:   0.100D+01
 Coeff:      0.100D+01
 Gap=     0.427 Goal=   None    Shift=    0.000
 GapD=    0.427 DampG=2.000 DampE=0.250 DampFc=0.5000 IDamp=-1.
 Damping current iteration by 5.00D-01
 RMSDP=6.59D-02 MaxDP=6.32D+00              OVMax= 2.59D-01

 Cycle   2  Pass 1  IDiag  1:
 RMSU=  1.19D-02    CP:  7.30D-01
 E= -3010.13760754984     Delta-E=       -0.440446819332 Rises=F Damp=T
 DIIS: error= 1.42D-01 at cycle   2 NSaved=   2.
 NSaved= 2 IEnMin= 2 EnMin= -3010.13760754984     IErMin= 2 ErrMin= 1.42D-01
 ErrMax= 1.42D-01  0.00D+00 EMaxC= 1.00D-01 BMatC= 1.76D+00 BMatP= 1.19D+01
 IDIUse=3 WtCom= 0.00D+00 WtEn= 1.00D+00
 Coeff-Com: -0.434D+00 0.143D+01
 Coeff-En:   0.000D+00 0.100D+01
 Coeff:      0.000D+00 0.100D+01
 Gap=     0.361 Goal=   None    Shift=    0.000
 RMSDP=3.24D-02 MaxDP=3.19D+00 DE=-4.40D-01 OVMax= 1.39D-01

 Cycle   3  Pass 1  IDiag  1:
 RMSU=  6.89D-03    CP:  4.58D-01  1.58D+00
 E= -3010.52969669434     Delta-E=       -0.392089144495 Rises=F Damp=F
 DIIS: error= 1.12D-02 at cycle   3 NSaved=   3.
 NSaved= 3 IEnMin= 3 EnMin= -3010.52969669434     IErMin= 3 ErrMin= 1.12D-02
 ErrMax= 1.12D-02  0.00D+00 EMaxC= 1.00D-01 BMatC= 4.54D-02 BMatP= 1.76D+00
 IDIUse=3 WtCom= 8.88D-01 WtEn= 1.12D-01
 Coeff-Com:  0.416D-01-0.152D-01 0.974D+00
 Coeff-En:   0.000D+00 0.000D+00 0.100D+01
 Coeff:      0.369D-01-0.135D-01 0.977D+00
 Gap=     0.273 Goal=   None    Shift=    0.000
 RMSDP=4.49D-03 MaxDP=3.04D-01 DE=-3.92D-01 OVMax= 7.21D-02

 Cycle   4  Pass 1  IDiag  1:
 RMSU=  3.07D-03    CP:  4.87D-01  1.55D+00  1.00D+00
 E= -3010.51622441413     Delta-E=        0.013472280209 Rises=F Damp=F
 DIIS: error= 1.88D-02 at cycle   4 NSaved=   4.
 NSaved= 4 IEnMin= 3 EnMin= -3010.52969669434     IErMin= 3 ErrMin= 1.12D-02
 ErrMax= 1.88D-02  0.00D+00 EMaxC= 1.00D-01 BMatC= 5.08D-02 BMatP= 4.54D-02
 IDIUse=2 WtCom= 0.00D+00 WtEn= 1.00D+00
 Coeff-En:   0.000D+00 0.000D+00 0.629D+00 0.371D+00
 Coeff:      0.000D+00 0.000D+00 0.629D+00 0.371D+00
 Gap=     0.250 Goal=   None    Shift=    0.000
 RMSDP=2.93D-03 MaxDP=2.23D-01 DE= 1.35D-02 OVMax= 4.12D-02

 Cycle   5  Pass 1  IDiag  1:
 RMSU=  1.18D-03    CP:  4.71D-01  1.47D+00  1.20D+00  6.44D-01
 E= -3010.54705999338     Delta-E=       -0.030835579246 Rises=F Damp=F
 DIIS: error= 4.35D-03 at cycle   5 NSaved=   5.
 NSaved= 5 IEnMin= 5 EnMin= -3010.54705999338     IErMin= 5 ErrMin= 4.35D-03
 ErrMax= 4.35D-03  0.00D+00 EMaxC= 1.00D-01 BMatC= 3.24D-03 BMatP= 4.54D-02
 IDIUse=3 WtCom= 9.56D-01 WtEn= 4.35D-02
 Coeff-Com: -0.786D-02 0.224D-01 0.212D+00 0.106D+00 0.668D+00
 Coeff-En:   0.000D+00 0.000D+00 0.000D+00 0.000D+00 0.100D+01
 Coeff:     -0.751D-02 0.215D-01 0.203D+00 0.101D+00 0.682D+00
 Gap=     0.254 Goal=   None    Shift=    0.000
 RMSDP=6.71D-04 MaxDP=6.45D-02 DE=-3.08D-02 OVMax= 1.13D-02

 Cycle   6  Pass 1  IDiag  1:
 RMSU=  3.45D-04    CP:  4.66D-01  1.49D+00  1.19D+00  6.13D-01  9.80D-01
 E= -3010.54779032365     Delta-E=       -0.000730330273 Rises=F Damp=F
 DIIS: error= 1.66D-03 at cycle   6 NSaved=   6.
 NSaved= 6 IEnMin= 6 EnMin= -3010.54779032365     IErMin= 6 ErrMin= 1.66D-03
 ErrMax= 1.66D-03  0.00D+00 EMaxC= 1.00D-01 BMatC= 2.35D-04 BMatP= 3.24D-03
 IDIUse=3 WtCom= 9.83D-01 WtEn= 1.66D-02
 Coeff-Com: -0.133D-01 0.273D-01 0.162D-01-0.238D-01 0.465D+00 0.529D+00
 Coeff-En:   0.000D+00 0.000D+00 0.000D+00 0.000D+00 0.000D+00 0.100D+01
 Coeff:     -0.131D-01 0.269D-01 0.159D-01-0.234D-01 0.457D+00 0.536D+00
 Gap=     0.254 Goal=   None    Shift=    0.000
 RMSDP=2.00D-04 MaxDP=1.08D-02 DE=-7.30D-04 OVMax= 6.87D-03

 Cycle   7  Pass 1  IDiag  1:
 RMSU=  1.67D-04    CP:  4.66D-01  1.49D+00  1.20D+00  6.25D-01  1.06D+00
                    CP:  9.74D-01
 E= -3010.54797140422     Delta-E=       -0.000181080572 Rises=F Damp=F
 DIIS: error= 2.97D-04 at cycle   7 NSaved=   7.
 NSaved= 7 IEnMin= 7 EnMin= -3010.54797140422     IErMin= 7 ErrMin= 2.97D-04
 ErrMax= 2.97D-04  0.00D+00 EMaxC= 1.00D-01 BMatC= 1.50D-05 BMatP= 2.35D-04
 IDIUse=3 WtCom= 9.97D-01 WtEn= 2.97D-03
 Coeff-Com: -0.510D-02 0.928D-02-0.323D-01-0.318D-01 0.104D+00 0.251D+00
 Coeff-Com:  0.706D+00
 Coeff-En:   0.000D+00 0.000D+00 0.000D+00 0.000D+00 0.000D+00 0.000D+00
 Coeff-En:   0.100D+01
 Coeff:     -0.509D-02 0.926D-02-0.322D-01-0.317D-01 0.103D+00 0.250D+00
 Coeff:      0.707D+00
 Gap=     0.253 Goal=   None    Shift=    0.000
 RMSDP=1.58D-04 MaxDP=1.12D-02 DE=-1.81D-04 OVMax= 3.50D-03

 Cycle   8  Pass 1  IDiag  1:
 RMSU=  6.75D-05    CP:  4.66D-01  1.48D+00  1.20D+00  6.36D-01  1.14D+00
                    CP:  1.05D+00  9.40D-01
 E= -3010.54799875413     Delta-E=       -0.000027349906 Rises=F Damp=F
 DIIS: error= 1.03D-04 at cycle   8 NSaved=   8.
 NSaved= 8 IEnMin= 8 EnMin= -3010.54799875413     IErMin= 8 ErrMin= 1.03D-04
 ErrMax= 1.03D-04  0.00D+00 EMaxC= 1.00D-01 BMatC= 1.27D-06 BMatP= 1.50D-05
 IDIUse=3 WtCom= 9.99D-01 WtEn= 1.03D-03
 Coeff-Com:  0.887D-03-0.212D-02-0.974D-02-0.318D-02-0.441D-01-0.333D-01
 Coeff-Com:  0.142D+00 0.950D+00
 Coeff-En:   0.000D+00 0.000D+00 0.000D+00 0.000D+00 0.000D+00 0.000D+00
 Coeff-En:   0.000D+00 0.100D+01
 Coeff:      0.886D-03-0.212D-02-0.973D-02-0.317D-02-0.441D-01-0.333D-01
 Coeff:      0.142D+00 0.950D+00
 Gap=     0.253 Goal=   None    Shift=    0.000
 RMSDP=5.85D-05 MaxDP=4.00D-03 DE=-2.73D-05 OVMax= 2.46D-03

 Cycle   9  Pass 1  IDiag  1:
 RMSU=  2.78D-05    CP:  4.67D-01  1.48D+00  1.20D+00  6.37D-01  1.14D+00
                    CP:  1.13D+00  1.12D+00  1.17D+00
 E= -3010.54800483799     Delta-E=       -0.000006083864 Rises=F Damp=F
 DIIS: error= 4.53D-05 at cycle   9 NSaved=   9.
 NSaved= 9 IEnMin= 9 EnMin= -3010.54800483799     IErMin= 9 ErrMin= 4.53D-05
 ErrMax= 4.53D-05  0.00D+00 EMaxC= 1.00D-01 BMatC= 2.91D-07 BMatP= 1.27D-06
 IDIUse=1 WtCom= 1.00D+00 WtEn= 0.00D+00
 Coeff-Com:  0.121D-02-0.237D-02 0.239D-02 0.459D-02-0.345D-01-0.588D-01
 Coeff-Com: -0.774D-01 0.365D+00 0.799D+00
 Coeff:      0.121D-02-0.237D-02 0.239D-02 0.459D-02-0.345D-01-0.588D-01
 Coeff:     -0.774D-01 0.365D+00 0.799D+00
 Gap=     0.253 Goal=   None    Shift=    0.000
 RMSDP=1.97D-05 MaxDP=7.60D-04 DE=-6.08D-06 OVMax= 1.10D-03

 Cycle  10  Pass 1  IDiag  1:
 RMSU=  8.85D-06    CP:  4.67D-01  1.48D+00  1.20D+00  6.37D-01  1.14D+00
                    CP:  1.14D+00  1.15D+00  1.34D+00  1.29D+00
 E= -3010.54800599790     Delta-E=       -0.000001159910 Rises=F Damp=F
 DIIS: error= 1.56D-05 at cycle  10 NSaved=  10.
 NSaved=10 IEnMin=10 EnMin= -3010.54800599790     IErMin=10 ErrMin= 1.56D-05
 ErrMax= 1.56D-05  0.00D+00 EMaxC= 1.00D-01 BMatC= 3.69D-08 BMatP= 2.91D-07
 IDIUse=1 WtCom= 1.00D+00 WtEn= 0.00D+00
 Coeff-Com:  0.306D-04 0.441D-06 0.168D-02 0.103D-02 0.545D-03-0.509D-02
 Coeff-Com: -0.360D-01-0.613D-01 0.175D+00 0.924D+00
 Coeff:      0.306D-04 0.441D-06 0.168D-02 0.103D-02 0.545D-03-0.509D-02
 Coeff:     -0.360D-01-0.613D-01 0.175D+00 0.924D+00
 Gap=     0.253 Goal=   None    Shift=    0.000
 RMSDP=1.42D-05 MaxDP=1.00D-03 DE=-1.16D-06 OVMax= 4.28D-04

 Cycle  11  Pass 1  IDiag  1:
 RMSU=  5.41D-06    CP:  4.67D-01  1.48D+00  1.20D+00  6.36D-01  1.13D+00
                    CP:  1.14D+00  1.15D+00  1.42D+00  1.56D+00  1.20D+00
 E= -3010.54800615571     Delta-E=       -0.000000157811 Rises=F Damp=F
 DIIS: error= 5.75D-06 at cycle  11 NSaved=  11.
 NSaved=11 IEnMin=11 EnMin= -3010.54800615571     IErMin=11 ErrMin= 5.75D-06
 ErrMax= 5.75D-06  0.00D+00 EMaxC= 1.00D-01 BMatC= 8.20D-09 BMatP= 3.69D-08
 IDIUse=1 WtCom= 1.00D+00 WtEn= 0.00D+00
 Coeff-Com: -0.224D-03 0.463D-03 0.225D-03-0.474D-03 0.707D-02 0.908D-02
 Coeff-Com:  0.485D-03-0.974D-01-0.830D-01 0.367D+00 0.797D+00
 Coeff:     -0.224D-03 0.463D-03 0.225D-03-0.474D-03 0.707D-02 0.908D-02
 Coeff:      0.485D-03-0.974D-01-0.830D-01 0.367D+00 0.797D+00
 Gap=     0.253 Goal=   None    Shift=    0.000
 RMSDP=5.78D-06 MaxDP=3.90D-04 DE=-1.58D-07 OVMax= 1.58D-04

 Cycle  12  Pass 1  IDiag  1:
 RMSU=  1.64D-06    CP:  4.67D-01  1.48D+00  1.20D+00  6.35D-01  1.13D+00
                    CP:  1.14D+00  1.15D+00  1.45D+00  1.67D+00  1.40D+00
                    CP:  1.37D+00
 E= -3010.54800618107     Delta-E=       -0.000000025354 Rises=F Damp=F
 DIIS: error= 1.74D-06 at cycle  12 NSaved=  12.
 NSaved=12 IEnMin=12 EnMin= -3010.54800618107     IErMin=12 ErrMin= 1.74D-06
 ErrMax= 1.74D-06  0.00D+00 EMaxC= 1.00D-01 BMatC= 1.07D-09 BMatP= 8.20D-09
 IDIUse=1 WtCom= 1.00D+00 WtEn= 0.00D+00
 Coeff-Com: -0.629D-04 0.123D-03-0.847D-04-0.204D-03 0.204D-02 0.304D-02
 Coeff-Com:  0.494D-02-0.250D-01-0.493D-01 0.439D-02 0.276D+00 0.784D+00
 Coeff:     -0.629D-04 0.123D-03-0.847D-04-0.204D-03 0.204D-02 0.304D-02
 Coeff:      0.494D-02-0.250D-01-0.493D-01 0.439D-02 0.276D+00 0.784D+00
 Gap=     0.253 Goal=   None    Shift=    0.000
 RMSDP=1.60D-06 MaxDP=9.86D-05 DE=-2.54D-08 OVMax= 3.92D-05

 Cycle  13  Pass 1  IDiag  1:
 RMSU=  4.24D-07    CP:  4.67D-01  1.48D+00  1.20D+00  6.35D-01  1.13D+00
                    CP:  1.14D+00  1.15D+00  1.45D+00  1.70D+00  1.46D+00
                    CP:  1.52D+00  1.03D+00
 E= -3010.54800618339     Delta-E=       -0.000000002319 Rises=F Damp=F
 DIIS: error= 4.01D-07 at cycle  13 NSaved=  13.
 NSaved=13 IEnMin=13 EnMin= -3010.54800618339     IErMin=13 ErrMin= 4.01D-07
 ErrMax= 4.01D-07  0.00D+00 EMaxC= 1.00D-01 BMatC= 9.43D-11 BMatP= 1.07D-09
 IDIUse=1 WtCom= 1.00D+00 WtEn= 0.00D+00
 Coeff-Com:  0.870D-05-0.193D-04-0.331D-04 0.157D-04-0.232D-03-0.294D-03
 Coeff-Com:  0.992D-03 0.241D-02-0.145D-02-0.239D-01-0.202D-01 0.164D+00
 Coeff-Com:  0.879D+00
 Coeff:      0.870D-05-0.193D-04-0.331D-04 0.157D-04-0.232D-03-0.294D-03
 Coeff:      0.992D-03 0.241D-02-0.145D-02-0.239D-01-0.202D-01 0.164D+00
 Coeff:      0.879D+00
 Gap=     0.253 Goal=   None    Shift=    0.000
 RMSDP=6.99D-07 MaxDP=5.23D-05 DE=-2.32D-09 OVMax= 1.02D-05

 Cycle  14  Pass 1  IDiag  1:
 RMSU=  2.64D-07    CP:  4.67D-01  1.48D+00  1.20D+00  6.35D-01  1.13D+00
                    CP:  1.14D+00  1.14D+00  1.45D+00  1.71D+00  1.46D+00
                    CP:  1.59D+00  1.19D+00  1.16D+00
 E= -3010.54800618360     Delta-E=       -0.000000000217 Rises=F Damp=F
 DIIS: error= 2.44D-07 at cycle  14 NSaved=  14.
 NSaved=14 IEnMin=14 EnMin= -3010.54800618360     IErMin=14 ErrMin= 2.44D-07
 ErrMax= 2.44D-07  0.00D+00 EMaxC= 1.00D-01 BMatC= 2.14D-11 BMatP= 9.43D-11
 IDIUse=1 WtCom= 1.00D+00 WtEn= 0.00D+00
 Coeff-Com:  0.101D-04-0.205D-04-0.514D-05 0.283D-04-0.354D-03-0.501D-03
 Coeff-Com: -0.411D-03 0.449D-02 0.785D-02-0.735D-02-0.603D-01-0.883D-01
 Coeff-Com:  0.314D+00 0.831D+00
 Coeff:      0.101D-04-0.205D-04-0.514D-05 0.283D-04-0.354D-03-0.501D-03
 Coeff:     -0.411D-03 0.449D-02 0.785D-02-0.735D-02-0.603D-01-0.883D-01
 Coeff:      0.314D+00 0.831D+00
 Gap=     0.253 Goal=   None    Shift=    0.000
 RMSDP=2.84D-07 MaxDP=2.28D-05 DE=-2.17D-10 OVMax= 6.03D-06

 Cycle  15  Pass 1  IDiag  1:
 RMSU=  8.49D-08    CP:  4.67D-01  1.48D+00  1.20D+00  6.35D-01  1.13D+00
                    CP:  1.14D+00  1.14D+00  1.45D+00  1.71D+00  1.46D+00
                    CP:  1.61D+00  1.25D+00  1.32D+00  1.23D+00
 E= -3010.54800618369     Delta-E=       -0.000000000084 Rises=F Damp=F
 DIIS: error= 6.90D-08 at cycle  15 NSaved=  15.
 NSaved=15 IEnMin=15 EnMin= -3010.54800618369     IErMin=15 ErrMin= 6.90D-08
 ErrMax= 6.90D-08  0.00D+00 EMaxC= 1.00D-01 BMatC= 2.37D-12 BMatP= 2.14D-11
 IDIUse=1 WtCom= 1.00D+00 WtEn= 0.00D+00
 Coeff-Com: -0.565D-07 0.289D-06 0.494D-06-0.494D-06-0.265D-04-0.460D-04
 Coeff-Com: -0.216D-03 0.652D-03 0.196D-02 0.146D-02-0.122D-01-0.425D-01
 Coeff-Com: -0.380D-01 0.176D+00 0.913D+00
 Coeff:     -0.565D-07 0.289D-06 0.494D-06-0.494D-06-0.265D-04-0.460D-04
 Coeff:     -0.216D-03 0.652D-03 0.196D-02 0.146D-02-0.122D-01-0.425D-01
 Coeff:     -0.380D-01 0.176D+00 0.913D+00
 Gap=     0.253 Goal=   None    Shift=    0.000
 RMSDP=9.77D-08 MaxDP=7.71D-06 DE=-8.37D-11 OVMax= 2.73D-06

 Cycle  16  Pass 1  IDiag  1:
 RMSU=  4.05D-08    CP:  4.67D-01  1.48D+00  1.20D+00  6.35D-01  1.13D+00
                    CP:  1.14D+00  1.14D+00  1.45D+00  1.71D+00  1.47D+00
                    CP:  1.62D+00  1.27D+00  1.38D+00  1.34D+00  1.13D+00
 E= -3010.54800618368     Delta-E=        0.000000000007 Rises=F Damp=F
 DIIS: error= 3.50D-08 at cycle  16 NSaved=  16.
 NSaved=16 IEnMin=15 EnMin= -3010.54800618369     IErMin=16 ErrMin= 3.50D-08
 ErrMax= 3.50D-08  0.00D+00 EMaxC= 1.00D-01 BMatC= 3.61D-13 BMatP= 2.37D-12
 IDIUse=1 WtCom= 1.00D+00 WtEn= 0.00D+00
 Coeff-Com: -0.106D-05 0.221D-05 0.185D-05-0.283D-05 0.363D-04 0.448D-04
 Coeff-Com: -0.133D-04-0.408D-03-0.546D-03 0.154D-02 0.526D-02 0.192D-02
 Coeff-Com: -0.474D-01-0.715D-01 0.146D+00 0.965D+00
 Coeff:     -0.106D-05 0.221D-05 0.185D-05-0.283D-05 0.363D-04 0.448D-04
 Coeff:     -0.133D-04-0.408D-03-0.546D-03 0.154D-02 0.526D-02 0.192D-02
 Coeff:     -0.474D-01-0.715D-01 0.146D+00 0.965D+00
 Gap=     0.253 Goal=   None    Shift=    0.000
 RMSDP=4.05D-08 MaxDP=2.37D-06 DE= 7.28D-12 OVMax= 1.37D-06

 Cycle  17  Pass 1  IDiag  1:
 RMSU=  1.07D-08    CP:  4.67D-01  1.48D+00  1.20D+00  6.35D-01  1.13D+00
                    CP:  1.14D+00  1.14D+00  1.45D+00  1.71D+00  1.47D+00
                    CP:  1.63D+00  1.27D+00  1.40D+00  1.39D+00  1.32D+00
                    CP:  1.28D+00
 E= -3010.54800618370     Delta-E=       -0.000000000021 Rises=F Damp=F
 DIIS: error= 1.53D-08 at cycle  17 NSaved=  17.
 NSaved=17 IEnMin=17 EnMin= -3010.54800618370     IErMin=17 ErrMin= 1.53D-08
 ErrMax= 1.53D-08  0.00D+00 EMaxC= 1.00D-01 BMatC= 1.15D-13 BMatP= 3.61D-13
 IDIUse=1 WtCom= 1.00D+00 WtEn= 0.00D+00
 Coeff-Com: -0.312D-06 0.623D-06 0.862D-06-0.717D-06 0.183D-04 0.245D-04
 Coeff-Com:  0.363D-04-0.301D-03-0.636D-03 0.342D-03 0.461D-02 0.903D-02
 Coeff-Com: -0.102D-01-0.607D-01-0.176D+00 0.368D+00 0.865D+00
 Coeff:     -0.312D-06 0.623D-06 0.862D-06-0.717D-06 0.183D-04 0.245D-04
 Coeff:      0.363D-04-0.301D-03-0.636D-03 0.342D-03 0.461D-02 0.903D-02
 Coeff:     -0.102D-01-0.607D-01-0.176D+00 0.368D+00 0.865D+00
 Gap=     0.253 Goal=   None    Shift=    0.000
 RMSDP=2.04D-08 MaxDP=1.05D-06 DE=-2.14D-11 OVMax= 7.04D-07

 Cycle  18  Pass 1  IDiag  1:
 RMSU=  4.83D-09    CP:  4.67D-01  1.48D+00  1.20D+00  6.35D-01  1.13D+00
                    CP:  1.14D+00  1.14D+00  1.45D+00  1.71D+00  1.47D+00
                    CP:  1.63D+00  1.27D+00  1.41D+00  1.42D+00  1.36D+00
                    CP:  1.54D+00  1.19D+00
 E= -3010.54800618369     Delta-E=        0.000000000011 Rises=F Damp=F
 DIIS: error= 5.35D-09 at cycle  18 NSaved=  18.
 NSaved=18 IEnMin=17 EnMin= -3010.54800618370     IErMin=18 ErrMin= 5.35D-09
 ErrMax= 5.35D-09  0.00D+00 EMaxC= 1.00D-01 BMatC= 7.40D-15 BMatP= 1.15D-13
 IDIUse=1 WtCom= 1.00D+00 WtEn= 0.00D+00
 Coeff-Com:  0.166D-06-0.342D-06-0.190D-07 0.531D-06-0.443D-05-0.478D-05
 Coeff-Com:  0.210D-05 0.369D-04 0.289D-04-0.226D-03-0.224D-03 0.456D-03
 Coeff-Com:  0.583D-02 0.596D-02-0.500D-01-0.707D-01 0.934D-01 0.102D+01
 Coeff:      0.166D-06-0.342D-06-0.190D-07 0.531D-06-0.443D-05-0.478D-05
 Coeff:      0.210D-05 0.369D-04 0.289D-04-0.226D-03-0.224D-03 0.456D-03
 Coeff:      0.583D-02 0.596D-02-0.500D-01-0.707D-01 0.934D-01 0.102D+01
 Gap=     0.253 Goal=   None    Shift=    0.000
 RMSDP=7.05D-09 MaxDP=4.11D-07 DE= 1.09D-11 OVMax= 1.81D-07

 SCF Done:  E(RwB97XD) =  -3010.54800618     A.U. after   18 cycles
            NFock= 18  Conv=0.71D-08     -V/T= 2.0016
 KE= 3.005858467197D+03 PE=-8.634769601200D+03 EE= 1.876957297199D+03
 Leave Link  502 at Wed May  1 15:17:24 2024, MaxMem=  1207959552 cpu:            1045.4 elap:            1045.4
 (Enter /software/gaussian/g16-c01/sse4/g16/l601.exe)
 Copying SCF densities to generalized density rwf, IOpCl= 0 IROHF=0.

 **********************************************************************

            Population analysis using the SCF Density.

 **********************************************************************

 Alpha  occ. eigenvalues -- -483.34330 -62.89397 -56.69030 -56.68541 -56.68540
 Alpha  occ. eigenvalues --  -19.46545 -19.46454 -14.86035 -10.59788 -10.58477
 Alpha  occ. eigenvalues --  -10.58006 -10.57826 -10.57513 -10.53649  -9.05232
 Alpha  occ. eigenvalues --   -6.87747  -6.86127  -6.86118  -2.97690  -2.97255
 Alpha  occ. eigenvalues --   -2.97246  -2.95949  -2.95949  -1.50281  -1.33253
 Alpha  occ. eigenvalues --   -1.23625  -1.15518  -1.12636  -1.06741  -1.01765
 Alpha  occ. eigenvalues --   -0.96417  -0.91741  -0.85927  -0.81515  -0.81323
 Alpha  occ. eigenvalues --   -0.80660  -0.78971  -0.76784  -0.76672  -0.73843
 Alpha  occ. eigenvalues --   -0.70161  -0.68366  -0.65098  -0.62240  -0.60042
 Alpha  occ. eigenvalues --   -0.57775  -0.57452  -0.56706  -0.56231
 Alpha virt. eigenvalues --   -0.30937  -0.22014  -0.18392  -0.15828  -0.14486
 Alpha virt. eigenvalues --   -0.11858  -0.10616  -0.08535  -0.07111  -0.06699
 Alpha virt. eigenvalues --   -0.04864  -0.04126  -0.03295  -0.02350  -0.01946
 Alpha virt. eigenvalues --   -0.00872   0.00168   0.01086   0.01356   0.02679
 Alpha virt. eigenvalues --    0.04139   0.04805   0.05565   0.05714   0.06374
 Alpha virt. eigenvalues --    0.07121   0.07938   0.08000   0.08259   0.09140
 Alpha virt. eigenvalues --    0.10310   0.10951   0.11468   0.11998   0.12680
 Alpha virt. eigenvalues --    0.12796   0.13575   0.14283   0.15039   0.15762
 Alpha virt. eigenvalues --    0.16413   0.17086   0.17988   0.18875   0.18985
 Alpha virt. eigenvalues --    0.20371   0.20614   0.21051   0.22006   0.24319
 Alpha virt. eigenvalues --    0.25122   0.25828   0.26879   0.27761   0.27871
 Alpha virt. eigenvalues --    0.29717   0.31920   0.33553   0.34288   0.35800
 Alpha virt. eigenvalues --    0.37114   0.37565   0.37766   0.39678   0.40307
 Alpha virt. eigenvalues --    0.42337   0.43139   0.44233   0.46284   0.46808
 Alpha virt. eigenvalues --    0.47665   0.48360   0.49237   0.51313   0.52972
 Alpha virt. eigenvalues --    0.53429   0.54380   0.55604   0.56758   0.58809
 Alpha virt. eigenvalues --    0.60353   0.61508   0.62844   0.65229   0.67921
 Alpha virt. eigenvalues --    0.69711   0.70872   0.72234   0.72461   0.73422
 Alpha virt. eigenvalues --    0.73850   0.78831   0.78980   0.81084   0.84027
 Alpha virt. eigenvalues --    0.85163   0.87233   0.91245   0.91974   0.97660
 Alpha virt. eigenvalues --    0.99000   1.00254   1.03660   1.04724   1.05759
 Alpha virt. eigenvalues --    1.07987   1.10534   1.11233   1.11793   1.13621
 Alpha virt. eigenvalues --    1.21434   1.23903   1.26125   1.32139   1.35725
 Alpha virt. eigenvalues --    1.36135   1.37069   1.44001   1.53591   1.56354
 Alpha virt. eigenvalues --    1.57722   1.57952   1.59884   1.61613   1.65376
 Alpha virt. eigenvalues --    1.68373   1.68711   1.72736   1.74619   1.78225
 Alpha virt. eigenvalues --    1.80315   1.84746   1.86348   1.90095   1.92328
 Alpha virt. eigenvalues --    1.96590   2.02111   2.02758   2.04898   2.06963
 Alpha virt. eigenvalues --    2.08555   2.13812   2.19673   2.21983   2.28776
 Alpha virt. eigenvalues --    2.37004   2.40438   2.42084   2.42839   2.51703
 Alpha virt. eigenvalues --    2.56033   2.62297   2.65303   2.67452   2.71033
 Alpha virt. eigenvalues --    2.72677   2.75795   2.76632   2.80227   2.80827
 Alpha virt. eigenvalues --    2.92436   2.95394   2.99993   3.04625   3.08054
 Alpha virt. eigenvalues --    3.12277   3.14144   3.18346   3.22963   3.23585
 Alpha virt. eigenvalues --    3.26695   3.38405   3.46904   3.50472   3.53698
 Alpha virt. eigenvalues --    3.56097   3.69251   3.73455   3.81308   3.86240
 Alpha virt. eigenvalues --    4.05437   4.05689   4.13497   4.18657   4.39574
 Alpha virt. eigenvalues --    4.43698   4.56476   4.59164   4.92548   4.95219
 Alpha virt. eigenvalues --    5.03859   5.08025   5.62158   6.15113   6.61316
 Alpha virt. eigenvalues --    7.44072   7.45677   7.55651  23.20333  23.60422
 Alpha virt. eigenvalues --   23.68155  23.78489  23.95201  24.00522  35.31924
 Alpha virt. eigenvalues --   47.88010  49.84891  49.93702 289.77372 289.79042
 Alpha virt. eigenvalues --  289.915281020.88488
          Condensed to atoms (all electrons):
               1          2          3          4          5          6
     1  C    9.072737  -2.906245   0.650755  -1.928583  -0.858046   0.328456
     2  C   -2.906245  14.441085  -2.818530  -2.229808   1.417262  -0.026964
     3  C    0.650755  -2.818530  13.428282  -2.908830  -1.697595   0.026291
     4  C   -1.928583  -2.229808  -2.908830  14.794320   1.550096   0.018109
     5  C   -0.858046   1.417262  -1.697595   1.550096   7.984860   0.001499
     6  H    0.328456  -0.026964   0.026291   0.018109   0.001499   0.327945
     7  H    0.065075   0.220586   0.086275  -0.027368  -0.018739  -0.001648
     8  H    0.005691  -0.015057   0.075303   0.246578  -0.021630  -0.000003
     9  H    0.025687  -0.017682   0.009108  -0.011220   0.310790  -0.002012
    10  N   -0.173606   0.373188  -1.089721   0.458817   0.044296  -0.000693
    11  O    0.011632   0.002759  -0.217177  -0.083436  -0.047720  -0.000044
    12  O    0.329782  -0.083427  -0.220907  -0.095564  -0.047263   0.000028
    13  C    1.913523  -2.811560   1.334388  -4.128400  -2.674435  -0.013252
    14  H   -0.007693   0.004668  -0.002197  -0.073082  -0.026227  -0.000018
    15  Br   0.088180  -0.125919   0.076382   0.111373   0.021478  -0.000596
               7          8          9         10         11         12
     1  C    0.065075   0.005691   0.025687  -0.173606   0.011632   0.329782
     2  C    0.220586  -0.015057  -0.017682   0.373188   0.002759  -0.083427
     3  C    0.086275   0.075303   0.009108  -1.089721  -0.217177  -0.220907
     4  C   -0.027368   0.246578  -0.011220   0.458817  -0.083436  -0.095564
     5  C   -0.018739  -0.021630   0.310790   0.044296  -0.047720  -0.047263
     6  H   -0.001648  -0.000003  -0.002012  -0.000693  -0.000044   0.000028
     7  H    0.299169  -0.000014   0.000015  -0.028243  -0.001499   0.022821
     8  H   -0.000014   0.285961   0.000057  -0.025439   0.020798  -0.000438
     9  H    0.000015   0.000057   0.312291   0.000234   0.000018   0.000010
    10  N   -0.028243  -0.025439   0.000234   7.477641   0.135980   0.124769
    11  O   -0.001499   0.020798   0.000018   0.135980   7.871362  -0.001317
    12  O    0.022821  -0.000438   0.000010   0.124769  -0.001317   7.891768
    13  C    0.013667   0.051013   0.018648  -0.194945   0.276989   0.046790
    14  H   -0.000009  -0.002016  -0.003456   0.000973  -0.000446  -0.000129
    15  Br  -0.000077  -0.001890  -0.002830   0.004720  -0.002498   0.002761
              13         14         15
     1  C    1.913523  -0.007693   0.088180
     2  C   -2.811560   0.004668  -0.125919
     3  C    1.334388  -0.002197   0.076382
     4  C   -4.128400  -0.073082   0.111373
     5  C   -2.674435  -0.026227   0.021478
     6  H   -0.013252  -0.000018  -0.000596
     7  H    0.013667  -0.000009  -0.000077
     8  H    0.051013  -0.002016  -0.001890
     9  H    0.018648  -0.003456  -0.002830
    10  N   -0.194945   0.000973   0.004720
    11  O    0.276989  -0.000446  -0.002498
    12  O    0.046790  -0.000129   0.002761
    13  C   12.324674   0.400045  -0.086634
    14  H    0.400045   0.260379  -0.021417
    15  Br  -0.086634  -0.021417  34.943190
 Mulliken charges:
               1
     1  C   -0.617344
     2  C    0.575645
     3  C   -0.731826
     4  C    0.306999
     5  C    0.061373
     6  H    0.342901
     7  H    0.369989
     8  H    0.381086
     9  H    0.360341
    10  N   -0.107968
    11  O    0.034598
    12  O    0.030318
    13  C   -0.470511
    14  H    0.470624
    15  Br  -0.006223
 Sum of Mulliken charges =   1.00000
 Mulliken charges with hydrogens summed into heavy atoms:
               1
     1  C   -0.274443
     2  C    0.945634
     3  C   -0.731826
     4  C    0.688084
     5  C    0.421714
    10  N   -0.107968
    11  O    0.034598
    12  O    0.030318
    13  C    0.000112
    15  Br  -0.006223
 Electronic spatial extent (au):  <R**2>=           2801.6167
 Charge=              1.0000 electrons
 Dipole moment (field-independent basis, Debye):
    X=             -0.3574    Y=              0.1280    Z=              3.3437  Tot=              3.3652
 Quadrupole moment (field-independent basis, Debye-Ang):
   XX=            -70.6145   YY=            -53.0219   ZZ=            -66.5806
   XY=              0.7849   XZ=              2.6518   YZ=             -1.2171
 Traceless Quadrupole moment (field-independent basis, Debye-Ang):
   XX=             -7.2088   YY=             10.3838   ZZ=             -3.1749
   XY=              0.7849   XZ=              2.6518   YZ=             -1.2171
 Octapole moment (field-independent basis, Debye-Ang**2):
  XXX=           -295.7154  YYY=             92.8383  ZZZ=             93.4507  XYY=            -74.2722
  XXY=             31.0181  XXZ=             43.5517  XZZ=            -76.0693  YZZ=             24.0841
  YYZ=             35.6638  XYZ=             -1.4357
 Hexadecapole moment (field-independent basis, Debye-Ang**3):
 XXXX=          -2266.9733 YYYY=           -688.2505 ZZZZ=           -385.5058 XXXY=            -70.5072
 XXXZ=              9.1876 YYYX=            -63.0343 YYYZ=           -173.1868 ZZZX=            -20.8453
 ZZZY=           -158.7179 XXYY=           -456.3602 XXZZ=           -375.9512 YYZZ=           -181.1908
 XXYZ=            -57.3422 YYXZ=             -2.3321 ZZXY=            -13.0487
 N-N= 7.414058306205D+02 E-N=-8.634769601726D+03  KE= 3.005858467197D+03
 No NMR shielding tensors so no spin-rotation constants.
 Leave Link  601 at Wed May  1 15:17:32 2024, MaxMem=  1207959552 cpu:               7.4 elap:               7.4
 (Enter /software/gaussian/g16-c01/sse4/g16/l9999.exe)
 Unable to Open any file for archive entry.
 1\1\GINC-BHX0002\SP\RwB97XD\6-311+G(d)\C6H5Br1N1O2(1+)\BWEIGHT\01-May-
 2024\0\\#P wB97XD/6-311+G* NoSymm #P Field=Z-194\\TitleMe\\1,1\C,0,0.0
 295,1.3397,0.0682\C,0,1.4348,1.2867,0.0064\C,0,2.1118,0.0511,-0.0054\C
 ,0,1.4451,-1.1372,0.0312\C,0,-0.6879,0.1682,0.11\H,0,-0.4713,2.2984,0.
 0781\H,0,2.0273,2.1965,-0.0322\H,0,1.9897,-2.0764,0.0232\H,0,-1.7716,0
 .1804,0.1582\N,0,3.5864,0.051,-0.0675\O,0,4.1471,-1.0597,-0.0881\O,0,4
 .145,1.1639,-0.0901\C,0,-0.0236,-1.1458,0.0835\H,0,-0.4367,-1.8725,0.7
 889\Br,0,-0.5359,-1.8697,-1.7408\\Version=ES64L-G16RevC.01\HF=-3010.54
 80062\RMSD=7.051e-09\Dipole=-2.04714,1.1984545,2.4616957\Quadrupole=-5
 .3595795,7.7200744,-2.3604949,0.5835487,1.9715336,-0.9048929\PG=C01 [X
 (C6H5Br1N1O2)]\\@
 The archive entry for this job was punched.


 "TIGER, TIGER BURNING BRIGHT
 IN THE FOREST OF THE NIGHT.
 WHAT IMMORTAL HAND OR EYE
 CAN FRAME THY FEARFUL SYMMETRYE?"
                     - WILLIAM BLAKE
 Job cpu time:       0 days  0 hours 18 minutes 34.7 seconds.
 Elapsed time:       0 days  0 hours 18 minutes 34.7 seconds.
 File lengths (MBytes):  RWF=     40 Int=      0 D2E=      0 Chk=     32 Scr=      1
 Normal termination of Gaussian 16 at Wed May  1 15:17:32 2024.
