 Entering Gaussian System, Link 0=g16
 Initial command:
 /software/gaussian/g16-c01/sse4/g16/l1.exe "/local_scratch/24657576/Gau-28396.inp" -scrdir="/local_scratch/24657576/"
 Entering Link 1 = /software/gaussian/g16-c01/sse4/g16/l1.exe PID=     28398.
  
 Copyright (c) 1988-2019, Gaussian, Inc.  All Rights Reserved.
  
 This is part of the Gaussian(R) 16 program.  It is based on
 the Gaussian(R) 09 system (copyright 2009, Gaussian, Inc.),
 the Gaussian(R) 03 system (copyright 2003, Gaussian, Inc.),
 the Gaussian(R) 98 system (copyright 1998, Gaussian, Inc.),
 the Gaussian(R) 94 system (copyright 1995, Gaussian, Inc.),
 the Gaussian 92(TM) system (copyright 1992, Gaussian, Inc.),
 the Gaussian 90(TM) system (copyright 1990, Gaussian, Inc.),
 the Gaussian 88(TM) system (copyright 1988, Gaussian, Inc.),
 the Gaussian 86(TM) system (copyright 1986, Carnegie Mellon
 University), and the Gaussian 82(TM) system (copyright 1983,
 Carnegie Mellon University). Gaussian is a federally registered
 trademark of Gaussian, Inc.
  
 This software contains proprietary and confidential information,
 including trade secrets, belonging to Gaussian, Inc.
  
 This software is provided under written license and may be
 used, copied, transmitted, or stored only in accord with that
 written license.
  
 The following legend is applicable only to US Government
 contracts under FAR:
  
                    RESTRICTED RIGHTS LEGEND
  
 Use, reproduction and disclosure by the US Government is
 subject to restrictions as set forth in subparagraphs (a)
 and (c) of the Commercial Computer Software - Restricted
 Rights clause in FAR 52.227-19.
  
 Gaussian, Inc.
 340 Quinnipiac St., Bldg. 40, Wallingford CT 06492
  
  
 ---------------------------------------------------------------
 Warning -- This program may not be used in any manner that
 competes with the business of Gaussian, Inc. or will provide
 assistance to any competitor of Gaussian, Inc.  The licensee
 of this program is prohibited from giving any competitor of
 Gaussian, Inc. access to this program.  By using this program,
 the user acknowledges that Gaussian, Inc. is engaged in the
 business of creating and licensing software in the field of
 computational chemistry and represents and warrants to the
 licensee that it is not a competitor of Gaussian, Inc. and that
 it will not use this program in any manner prohibited above.
 ---------------------------------------------------------------
  

 Cite this work as:
 Gaussian 16, Revision C.01,
 M. J. Frisch, G. W. Trucks, H. B. Schlegel, G. E. Scuseria, 
 M. A. Robb, J. R. Cheeseman, G. Scalmani, V. Barone, 
 G. A. Petersson, H. Nakatsuji, X. Li, M. Caricato, A. V. Marenich, 
 J. Bloino, B. G. Janesko, R. Gomperts, B. Mennucci, H. P. Hratchian, 
 J. V. Ortiz, A. F. Izmaylov, J. L. Sonnenberg, D. Williams-Young, 
 F. Ding, F. Lipparini, F. Egidi, J. Goings, B. Peng, A. Petrone, 
 T. Henderson, D. Ranasinghe, V. G. Zakrzewski, J. Gao, N. Rega, 
 G. Zheng, W. Liang, M. Hada, M. Ehara, K. Toyota, R. Fukuda, 
 J. Hasegawa, M. Ishida, T. Nakajima, Y. Honda, O. Kitao, H. Nakai, 
 T. Vreven, K. Throssell, J. A. Montgomery, Jr., J. E. Peralta, 
 F. Ogliaro, M. J. Bearpark, J. J. Heyd, E. N. Brothers, K. N. Kudin, 
 V. N. Staroverov, T. A. Keith, R. Kobayashi, J. Normand, 
 K. Raghavachari, A. P. Rendell, J. C. Burant, S. S. Iyengar, 
 J. Tomasi, M. Cossi, J. M. Millam, M. Klene, C. Adamo, R. Cammi, 
 J. W. Ochterski, R. L. Martin, K. Morokuma, O. Farkas, 
 J. B. Foresman, and D. J. Fox, Gaussian, Inc., Wallingford CT, 2019.
 
 ******************************************
 Gaussian 16:  ES64L-G16RevC.01  3-Jul-2019
                 1-May-2024 
 ******************************************
 %chk=geometry.chk
 %mem=9GB
 %nprocshared=12
 Will use up to   12 processors via shared memory.
 ----------------------------------------
 #P wB97XD/6-311+G* NoSymm #P Field=Z+145
 ----------------------------------------
 1/38=1,172=1/1;
 2/12=2,15=1,17=6,18=5,40=1/2;
 3/5=4,6=6,7=11,11=2,14=3,15=145,25=1,30=1,74=-58/1,2,3;
 4//1;
 5/5=2,38=5/2;
 6/7=2,8=2,9=2,10=2,28=1/1;
 99/5=1,9=1/99;
 Leave Link    1 at Wed May  1 15:08:03 2024, MaxMem=  1207959552 cpu:               1.4 elap:               1.4
 (Enter /software/gaussian/g16-c01/sse4/g16/l101.exe)
 -------
 TitleMe
 -------
 Symbolic Z-matrix:
 Charge =  1 Multiplicity = 1
 C                     0.0295    1.3397    0.0682 
 C                     1.4348    1.2867    0.0064 
 C                     2.1118    0.0511   -0.0054 
 C                     1.4451   -1.1372    0.0312 
 C                    -0.6879    0.1682    0.11 
 H                    -0.4713    2.2984    0.0781 
 H                     2.0273    2.1965   -0.0322 
 H                     1.9897   -2.0764    0.0232 
 H                    -1.7716    0.1804    0.1582 
 N                     3.5864    0.051    -0.0675 
 O                     4.1471   -1.0597   -0.0881 
 O                     4.145     1.1639   -0.0901 
 C                    -0.0236   -1.1458    0.0835 
 H                    -0.4367   -1.8725    0.7889 
 Br                   -0.5359   -1.8697   -1.7408 
 
 ITRead=  0  0  0  0  0  0  0  0  0  0  0  0  0  0  0
 MicOpt= -1 -1 -1 -1 -1 -1 -1 -1 -1 -1 -1 -1 -1 -1 -1
 NAtoms=     15 NQM=       15 NQMF=       0 NMMI=      0 NMMIF=      0
                NMic=       0 NMicF=      0.
                    Isotopes and Nuclear Properties:
 (Nuclear quadrupole moments (NQMom) in fm**2, nuclear magnetic moments (NMagM)
  in nuclear magnetons)

  Atom         1           2           3           4           5           6           7           8           9          10
 IAtWgt=          12          12          12          12          12           1           1           1           1          14
 AtmWgt=  12.0000000  12.0000000  12.0000000  12.0000000  12.0000000   1.0078250   1.0078250   1.0078250   1.0078250  14.0030740
 NucSpn=           0           0           0           0           0           1           1           1           1           2
 AtZEff=  -0.0000000  -0.0000000  -0.0000000  -0.0000000  -0.0000000  -0.0000000  -0.0000000  -0.0000000  -0.0000000  -0.0000000
 NQMom=    0.0000000   0.0000000   0.0000000   0.0000000   0.0000000   0.0000000   0.0000000   0.0000000   0.0000000   2.0440000
 NMagM=    0.0000000   0.0000000   0.0000000   0.0000000   0.0000000   2.7928460   2.7928460   2.7928460   2.7928460   0.4037610
 AtZNuc=   6.0000000   6.0000000   6.0000000   6.0000000   6.0000000   1.0000000   1.0000000   1.0000000   1.0000000   7.0000000

  Atom        11          12          13          14          15
 IAtWgt=          16          16          12           1          79
 AtmWgt=  15.9949146  15.9949146  12.0000000   1.0078250  78.9183361
 NucSpn=           0           0           0           1           3
 AtZEff=  -0.0000000  -0.0000000  -0.0000000  -0.0000000  -0.0000000
 NQMom=    0.0000000   0.0000000   0.0000000   0.0000000  31.3000000
 NMagM=    0.0000000   0.0000000   0.0000000   2.7928460   2.1063990
 AtZNuc=   8.0000000   8.0000000   6.0000000   1.0000000  35.0000000
 Leave Link  101 at Wed May  1 15:08:04 2024, MaxMem=  1207959552 cpu:               1.4 elap:               1.4
 (Enter /software/gaussian/g16-c01/sse4/g16/l202.exe)
                          Input orientation:                          
 ---------------------------------------------------------------------
 Center     Atomic      Atomic             Coordinates (Angstroms)
 Number     Number       Type             X           Y           Z
 ---------------------------------------------------------------------
      1          6           0        0.029500    1.339700    0.068200
      2          6           0        1.434800    1.286700    0.006400
      3          6           0        2.111800    0.051100   -0.005400
      4          6           0        1.445100   -1.137200    0.031200
      5          6           0       -0.687900    0.168200    0.110000
      6          1           0       -0.471300    2.298400    0.078100
      7          1           0        2.027300    2.196500   -0.032200
      8          1           0        1.989700   -2.076400    0.023200
      9          1           0       -1.771600    0.180400    0.158200
     10          7           0        3.586400    0.051000   -0.067500
     11          8           0        4.147100   -1.059700   -0.088100
     12          8           0        4.145000    1.163900   -0.090100
     13          6           0       -0.023600   -1.145800    0.083500
     14          1           0       -0.436700   -1.872500    0.788900
     15         35           0       -0.535900   -1.869700   -1.740800
 ---------------------------------------------------------------------
                    Distance matrix (angstroms):
                    1          2          3          4          5
     1  C    0.000000
     2  C    1.407656   0.000000
     3  C    2.449874   1.408963   0.000000
     4  C    2.853126   2.424049   1.363043   0.000000
     5  C    1.374344   2.401589   2.804523   2.501993   0.000000
     6  H    1.081667   2.159142   3.424870   3.934226   2.141421
     7  H    2.176095   1.086408   2.147231   3.384750   3.392128
     8  H    3.938800   3.408612   2.131193   1.085702   3.495040
     9  H    2.143837   3.395283   3.888995   3.478413   1.084840
    10  N    3.785591   2.482297   1.475907   2.450862   4.279589
    11  O    4.768247   3.587631   2.320164   2.705743   4.992415
    12  O    4.122294   2.714696   2.319353   3.549540   4.938459
    13  C    2.486114   2.837240   2.449573   1.469656   1.472614
    14  H    3.324903   3.754379   3.290289   2.157764   2.165286
    15  Br   3.727252   4.110867   3.702891   2.756973   2.757100
                    6          7          8          9         10
     6  H    0.000000
     7  H    2.503108   0.000000
     8  H    5.019802   4.273425   0.000000
     9  H    2.486588   4.304945   4.388479   0.000000
    10  N    4.640790   2.652397   2.661486   5.364313   0.000000
    11  O    5.712624   3.885809   2.387560   6.052233   1.244373
    12  O    4.756638   2.356750   3.893289   6.002923   1.245428
    13  C    3.473180   3.923079   2.218790   2.195425   3.806210
    14  H    4.231175   4.827242   2.552506   2.528663   4.540772
    15  Br   4.548146   5.101303   3.087568   3.055498   4.845862
                   11         12         13         14         15
    11  O    0.000000
    12  O    2.223602   0.000000
    13  C    4.175117   4.768865   0.000000
    14  H    4.737193   5.566358   1.093770   0.000000
    15  Br   5.031700   5.817075   2.028436   2.531646   0.000000
 Symmetry turned off by external request.
 Stoichiometry    C6H5BrNO2(1+)
 Framework group  C1[X(C6H5BrNO2)]
 Deg. of freedom    39
 Full point group                 C1      NOp   1
 Rotational constants (GHZ):           1.8252210           0.5518633           0.4576002
 Leave Link  202 at Wed May  1 15:08:06 2024, MaxMem=  1207959552 cpu:               1.3 elap:               1.3
 (Enter /software/gaussian/g16-c01/sse4/g16/l301.exe)
 Standard basis: 6-311+G(d) (5D, 7F)
 Ernie: Thresh=  0.10000D-02 Tol=  0.10000D-05 Strict=F.
 The following finite field(s) will be applied:
 An electric field of              0.0000  0.0000  0.0145
   261 basis functions,   443 primitive gaussians,   273 cartesian basis functions
    49 alpha electrons       49 beta electrons
       nuclear repulsion energy       739.2122215416 Hartrees.
 IExCor= 4639 DFT=T Ex+Corr=wB97XD ExCW=0 ScaHFX=  1.000000
 ScaDFX=  1.000000  1.000000  1.000000  1.000000 ScalE2=  1.000000  1.000000
 IRadAn=      5 IRanWt=     -1 IRanGd=            0 ICorTp=0 IEmpDi=121
 HFx  wShort=  0.000000 wLong=  0.200000 cFull=  0.222036 cShort=  0.000000 cLong=  0.777964
 DFx  wShort=  0.000000 wLong=  0.200000 cFull=  0.000000 cShort=  0.000000 cLong=  1.000000
 NAtoms=   15 NActive=   15 NUniq=   15 SFac= 1.00D+00 NAtFMM=   60 NAOKFM=F Big=F
 Integral buffers will be    131072 words long.
 Raffenetti 2 integral format.
 Two-electron integral symmetry is turned off.
 R6Disp:  Grimme-D2 Dispersion energy=       -0.0077368520 Hartrees.
 Nuclear repulsion after empirical dispersion term =      739.2044846896 Hartrees.
 Leave Link  301 at Wed May  1 15:08:07 2024, MaxMem=  1207959552 cpu:               1.0 elap:               1.0
 (Enter /software/gaussian/g16-c01/sse4/g16/l302.exe)
 NPDir=0 NMtPBC=     1 NCelOv=     1 NCel=       1 NClECP=     1 NCelD=      1
         NCelK=      1 NCelE2=     1 NClLst=     1 CellRange=     0.0.
 One-electron integrals computed using PRISM.
 NBasis=   261 RedAO= T EigKep=  2.35D-06  NBF=   261
 NBsUse=   261 1.00D-06 EigRej= -1.00D+00 NBFU=   261
 Precomputing XC quadrature grid using
 IXCGrd= 4 IRadAn=           5 IRanWt=          -1 IRanGd=           0 AccXCQ= 0.00D+00.
 Generated NRdTot=       0 NPtTot=           0 NUsed=           0 NTot=          32
 NSgBfM=   273   273   273   273   273 MxSgAt=    15 MxSgA2=    15.
 Leave Link  302 at Wed May  1 15:08:28 2024, MaxMem=  1207959552 cpu:              21.3 elap:              21.3
 (Enter /software/gaussian/g16-c01/sse4/g16/l303.exe)
 DipDrv:  MaxL=1.
 The nuclear repulsion energy is now       737.5591488134 hartrees.
 Leave Link  303 at Wed May  1 15:08:31 2024, MaxMem=  1207959552 cpu:               3.2 elap:               3.2
 (Enter /software/gaussian/g16-c01/sse4/g16/l401.exe)
 ExpMin= 3.50D-02 ExpMax= 4.40D+05 ExpMxC= 1.51D+04 IAcc=3 IRadAn=         5 AccDes= 0.00D+00
 Harris functional with IExCor= 4639 and IRadAn=       5 diagonalized for initial guess.
 HarFok:  IExCor= 4639 AccDes= 0.00D+00 IRadAn=         5 IDoV= 1 UseB2=F ITyADJ=14
 ICtDFT=  3500011 ScaDFX=  1.000000  1.000000  1.000000  1.000000
 FoFCou: FMM=F IPFlag=           0 FMFlag=      100000 FMFlg1=           0
         NFxFlg=           0 DoJE=T BraDBF=F KetDBF=T FulRan=T
         wScrn=  0.000000 ICntrl=       500 IOpCl=  0 I1Cent=   200000004 NGrid=           0
         NMat0=    1 NMatS0=      1 NMatT0=    0 NMatD0=    1 NMtDS0=    0 NMtDT0=    0
 Symmetry not used in FoFCou.
 Harris En= -2970.60807307010    
 JPrj=0 DoOrth=F DoCkMO=F.
 Leave Link  401 at Wed May  1 15:09:01 2024, MaxMem=  1207959552 cpu:              30.0 elap:              30.0
 (Enter /software/gaussian/g16-c01/sse4/g16/l502.exe)
 Two-electron integral symmetry not used.
 Closed shell SCF:
 Using DIIS extrapolation, IDIIS=  1040.
 NGot=  1207959552 LenX=  1207804877 LenY=  1207729907
 Requested convergence on RMS density matrix=1.00D-08 within 128 cycles.
 Requested convergence on MAX density matrix=1.00D-06.
 Requested convergence on             energy=1.00D-06.
 No special actions if energy rises.
 Fock matrices will be formed incrementally for  20 cycles.

 Cycle   1  Pass 1  IDiag  1:
 FoFJK:  IHMeth= 1 ICntrl=       0 DoSepK=T KAlg= 0 I1Cent=           0 FoldK=F
 IRaf=         1 NMat=       1 IRICut=       1 DoRegI=T DoRafI=F ISym2E= 0 IDoP0=0 IntGTp=1.
 FoFCou: FMM=F IPFlag=           0 FMFlag=      100000 FMFlg1=           0
         NFxFlg=           0 DoJE=T BraDBF=F KetDBF=F FulRan=T
         wScrn=  0.000000 ICntrl=       500 IOpCl=  0 I1Cent=           0 NGrid=           0
         NMat0=    1 NMatS0=      1 NMatT0=    0 NMatD0=    1 NMtDS0=    0 NMtDT0=    0
 Symmetry not used in FoFCou.
 E= -3009.70410804722    
 DIIS: error= 3.21D-01 at cycle   1 NSaved=   1.
 NSaved= 1 IEnMin= 1 EnMin= -3009.70410804722     IErMin= 1 ErrMin= 3.21D-01
 ErrMax= 3.21D-01  0.00D+00 EMaxC= 1.00D-01 BMatC= 1.20D+01 BMatP= 1.20D+01
 IDIUse=3 WtCom= 0.00D+00 WtEn= 1.00D+00
 Coeff-Com:  0.100D+01
 Coeff-En:   0.100D+01
 Coeff:      0.100D+01
 Gap=     0.329 Goal=   None    Shift=    0.000
 GapD=    0.329 DampG=1.000 DampE=0.250 DampFc=0.2500 IDamp=-1.
 Damping current iteration by 2.50D-01
 RMSDP=8.54D-02 MaxDP=1.16D+01              OVMax= 2.54D-01

 Cycle   2  Pass 1  IDiag  1:
 RMSU=  5.76D-03    CP:  8.47D-01
 E= -3009.99849308993     Delta-E=       -0.294385042714 Rises=F Damp=T
 DIIS: error= 2.25D-01 at cycle   2 NSaved=   2.
 NSaved= 2 IEnMin= 2 EnMin= -3009.99849308993     IErMin= 2 ErrMin= 2.25D-01
 ErrMax= 2.25D-01  0.00D+00 EMaxC= 1.00D-01 BMatC= 5.46D+00 BMatP= 1.20D+01
 IDIUse=3 WtCom= 0.00D+00 WtEn= 1.00D+00
 Coeff-Com: -0.182D+01 0.282D+01
 Coeff-En:   0.000D+00 0.100D+01
 Coeff:      0.000D+00 0.100D+01
 Gap=     0.293 Goal=   None    Shift=    0.000
 RMSDP=6.45D-02 MaxDP=8.78D+00 DE=-2.94D-01 OVMax= 6.62D-02

 Cycle   3  Pass 1  IDiag  1:
 RMSU=  4.84D-03    CP:  3.81D-01  3.00D+00
 E= -3010.38239345752     Delta-E=       -0.383900367582 Rises=F Damp=F
 DIIS: error= 6.63D-02 at cycle   3 NSaved=   3.
 NSaved= 3 IEnMin= 3 EnMin= -3010.38239345752     IErMin= 3 ErrMin= 6.63D-02
 ErrMax= 6.63D-02  0.00D+00 EMaxC= 1.00D-01 BMatC= 7.58D-01 BMatP= 5.46D+00
 IDIUse=3 WtCom= 3.37D-01 WtEn= 6.63D-01
 Coeff-Com:  0.271D+01-0.357D+01 0.185D+01
 Coeff-En:   0.431D-01 0.000D+00 0.957D+00
 Coeff:      0.942D+00-0.120D+01 0.126D+01
 Gap=     0.270 Goal=   None    Shift=    0.000
 RMSDP=8.48D-03 MaxDP=5.52D-01 DE=-3.84D-01 OVMax= 8.53D-02

 Cycle   4  Pass 1  IDiag  1:
 RMSU=  6.06D-03    CP:  4.10D-01  2.68D+00  1.52D+00
 E= -3010.49579731940     Delta-E=       -0.113403861888 Rises=F Damp=F
 DIIS: error= 3.75D-02 at cycle   4 NSaved=   4.
 NSaved= 4 IEnMin= 4 EnMin= -3010.49579731940     IErMin= 4 ErrMin= 3.75D-02
 ErrMax= 3.75D-02  0.00D+00 EMaxC= 1.00D-01 BMatC= 2.24D-01 BMatP= 7.58D-01
 IDIUse=3 WtCom= 6.25D-01 WtEn= 3.75D-01
 Coeff-Com: -0.249D+00 0.345D+00 0.228D+00 0.676D+00
 Coeff-En:   0.000D+00 0.000D+00 0.186D+00 0.814D+00
 Coeff:     -0.156D+00 0.216D+00 0.212D+00 0.728D+00
 Gap=     0.256 Goal=   None    Shift=    0.000
 RMSDP=4.88D-03 MaxDP=6.01D-01 DE=-1.13D-01 OVMax= 3.54D-02

 Cycle   5  Pass 1  IDiag  1:
 RMSU=  1.64D-03    CP:  3.78D-01  2.89D+00  1.39D+00  8.51D-01
 E= -3010.54094253303     Delta-E=       -0.045145213630 Rises=F Damp=F
 DIIS: error= 6.92D-03 at cycle   5 NSaved=   5.
 NSaved= 5 IEnMin= 5 EnMin= -3010.54094253303     IErMin= 5 ErrMin= 6.92D-03
 ErrMax= 6.92D-03  0.00D+00 EMaxC= 1.00D-01 BMatC= 7.51D-03 BMatP= 2.24D-01
 IDIUse=3 WtCom= 9.31D-01 WtEn= 6.92D-02
 Coeff-Com: -0.156D+00 0.210D+00 0.209D-01 0.320D+00 0.605D+00
 Coeff-En:   0.000D+00 0.000D+00 0.000D+00 0.000D+00 0.100D+01
 Coeff:     -0.145D+00 0.196D+00 0.194D-01 0.298D+00 0.632D+00
 Gap=     0.243 Goal=   None    Shift=    0.000
 RMSDP=5.47D-04 MaxDP=3.50D-02 DE=-4.51D-02 OVMax= 1.20D-02

 Cycle   6  Pass 1  IDiag  1:
 RMSU=  3.97D-04    CP:  3.77D-01  2.89D+00  1.42D+00  8.72D-01  8.39D-01
 E= -3010.54256196968     Delta-E=       -0.001619436645 Rises=F Damp=F
 DIIS: error= 3.19D-04 at cycle   6 NSaved=   6.
 NSaved= 6 IEnMin= 6 EnMin= -3010.54256196968     IErMin= 6 ErrMin= 3.19D-04
 ErrMax= 3.19D-04  0.00D+00 EMaxC= 1.00D-01 BMatC= 5.41D-05 BMatP= 7.51D-03
 IDIUse=3 WtCom= 9.97D-01 WtEn= 3.19D-03
 Coeff-Com: -0.701D-01 0.938D-01-0.166D-01 0.887D-01 0.243D+00 0.662D+00
 Coeff-En:   0.000D+00 0.000D+00 0.000D+00 0.000D+00 0.000D+00 0.100D+01
 Coeff:     -0.698D-01 0.935D-01-0.165D-01 0.884D-01 0.242D+00 0.663D+00
 Gap=     0.245 Goal=   None    Shift=    0.000
 RMSDP=1.74D-04 MaxDP=1.34D-02 DE=-1.62D-03 OVMax= 3.35D-03

 Cycle   7  Pass 1  IDiag  1:
 RMSU=  9.26D-05    CP:  3.76D-01  2.88D+00  1.42D+00  8.76D-01  9.11D-01
                    CP:  9.85D-01
 E= -3010.54262549685     Delta-E=       -0.000063527172 Rises=F Damp=F
 DIIS: error= 1.94D-04 at cycle   7 NSaved=   7.
 NSaved= 7 IEnMin= 7 EnMin= -3010.54262549685     IErMin= 7 ErrMin= 1.94D-04
 ErrMax= 1.94D-04  0.00D+00 EMaxC= 1.00D-01 BMatC= 6.45D-06 BMatP= 5.41D-05
 IDIUse=3 WtCom= 9.98D-01 WtEn= 1.94D-03
 Coeff-Com: -0.349D-02 0.434D-02-0.770D-02-0.973D-02-0.167D-01 0.131D+00
 Coeff-Com:  0.902D+00
 Coeff-En:   0.000D+00 0.000D+00 0.000D+00 0.000D+00 0.000D+00 0.000D+00
 Coeff-En:   0.100D+01
 Coeff:     -0.348D-02 0.433D-02-0.769D-02-0.971D-02-0.166D-01 0.131D+00
 Coeff:      0.902D+00
 Gap=     0.245 Goal=   None    Shift=    0.000
 RMSDP=1.02D-04 MaxDP=8.21D-03 DE=-6.35D-05 OVMax= 2.23D-03

 Cycle   8  Pass 1  IDiag  1:
 RMSU=  4.36D-05    CP:  3.76D-01  2.88D+00  1.43D+00  8.80D-01  9.22D-01
                    CP:  1.16D+00  1.56D+00
 E= -3010.54263919331     Delta-E=       -0.000013696459 Rises=F Damp=F
 DIIS: error= 6.97D-05 at cycle   8 NSaved=   8.
 NSaved= 8 IEnMin= 8 EnMin= -3010.54263919331     IErMin= 8 ErrMin= 6.97D-05
 ErrMax= 6.97D-05  0.00D+00 EMaxC= 1.00D-01 BMatC= 6.69D-07 BMatP= 6.45D-06
 IDIUse=1 WtCom= 1.00D+00 WtEn= 0.00D+00
 Coeff-Com:  0.113D-01-0.152D-01 0.714D-03-0.181D-01-0.463D-01-0.847D-01
 Coeff-Com:  0.223D+00 0.929D+00
 Coeff:      0.113D-01-0.152D-01 0.714D-03-0.181D-01-0.463D-01-0.847D-01
 Coeff:      0.223D+00 0.929D+00
 Gap=     0.245 Goal=   None    Shift=    0.000
 RMSDP=4.88D-05 MaxDP=3.56D-03 DE=-1.37D-05 OVMax= 1.56D-03

 Cycle   9  Pass 1  IDiag  1:
 RMSU=  1.49D-05    CP:  3.76D-01  2.88D+00  1.43D+00  8.80D-01  9.31D-01
                    CP:  1.24D+00  1.83D+00  1.27D+00
 E= -3010.54264283089     Delta-E=       -0.000003637581 Rises=F Damp=F
 DIIS: error= 2.41D-05 at cycle   9 NSaved=   9.
 NSaved= 9 IEnMin= 9 EnMin= -3010.54264283089     IErMin= 9 ErrMin= 2.41D-05
 ErrMax= 2.41D-05  0.00D+00 EMaxC= 1.00D-01 BMatC= 1.89D-07 BMatP= 6.69D-07
 IDIUse=1 WtCom= 1.00D+00 WtEn= 0.00D+00
 Coeff-Com:  0.126D-02-0.164D-02 0.724D-03-0.136D-02-0.262D-02-0.293D-01
 Coeff-Com: -0.106D+00 0.210D+00 0.929D+00
 Coeff:      0.126D-02-0.164D-02 0.724D-03-0.136D-02-0.262D-02-0.293D-01
 Coeff:     -0.106D+00 0.210D+00 0.929D+00
 Gap=     0.245 Goal=   None    Shift=    0.000
 RMSDP=2.11D-05 MaxDP=2.07D-03 DE=-3.64D-06 OVMax= 8.77D-04

 Cycle  10  Pass 1  IDiag  1:
 RMSU=  8.47D-06    CP:  3.76D-01  2.88D+00  1.43D+00  8.80D-01  9.32D-01
                    CP:  1.26D+00  1.86D+00  1.42D+00  1.29D+00
 E= -3010.54264359361     Delta-E=       -0.000000762718 Rises=F Damp=F
 DIIS: error= 8.71D-06 at cycle  10 NSaved=  10.
 NSaved=10 IEnMin=10 EnMin= -3010.54264359361     IErMin=10 ErrMin= 8.71D-06
 ErrMax= 8.71D-06  0.00D+00 EMaxC= 1.00D-01 BMatC= 2.73D-08 BMatP= 1.89D-07
 IDIUse=1 WtCom= 1.00D+00 WtEn= 0.00D+00
 Coeff-Com: -0.909D-03 0.123D-02 0.106D-03 0.201D-02 0.659D-02 0.113D-01
 Coeff-Com: -0.416D-01-0.125D+00 0.113D+00 0.103D+01
 Coeff:     -0.909D-03 0.123D-02 0.106D-03 0.201D-02 0.659D-02 0.113D-01
 Coeff:     -0.416D-01-0.125D+00 0.113D+00 0.103D+01
 Gap=     0.245 Goal=   None    Shift=    0.000
 RMSDP=1.02D-05 MaxDP=8.92D-04 DE=-7.63D-07 OVMax= 5.34D-04

 Cycle  11  Pass 1  IDiag  1:
 RMSU=  3.69D-06    CP:  3.76D-01  2.88D+00  1.43D+00  8.79D-01  9.32D-01
                    CP:  1.27D+00  1.86D+00  1.49D+00  1.56D+00  1.37D+00
 E= -3010.54264378921     Delta-E=       -0.000000195598 Rises=F Damp=F
 DIIS: error= 5.62D-06 at cycle  11 NSaved=  11.
 NSaved=11 IEnMin=11 EnMin= -3010.54264378921     IErMin=11 ErrMin= 5.62D-06
 ErrMax= 5.62D-06  0.00D+00 EMaxC= 1.00D-01 BMatC= 1.42D-08 BMatP= 2.73D-08
 IDIUse=1 WtCom= 1.00D+00 WtEn= 0.00D+00
 Coeff-Com: -0.671D-03 0.892D-03-0.105D-03 0.132D-02 0.364D-02 0.146D-01
 Coeff-Com:  0.131D-01-0.135D+00-0.238D+00 0.585D+00 0.755D+00
 Coeff:     -0.671D-03 0.892D-03-0.105D-03 0.132D-02 0.364D-02 0.146D-01
 Coeff:      0.131D-01-0.135D+00-0.238D+00 0.585D+00 0.755D+00
 Gap=     0.245 Goal=   None    Shift=    0.000
 RMSDP=4.82D-06 MaxDP=5.18D-04 DE=-1.96D-07 OVMax= 3.23D-04

 Cycle  12  Pass 1  IDiag  1:
 RMSU=  1.74D-06    CP:  3.76D-01  2.88D+00  1.43D+00  8.79D-01  9.32D-01
                    CP:  1.27D+00  1.85D+00  1.50D+00  1.67D+00  1.64D+00
                    CP:  9.88D-01
 E= -3010.54264384569     Delta-E=       -0.000000056488 Rises=F Damp=F
 DIIS: error= 6.09D-06 at cycle  12 NSaved=  12.
 NSaved=12 IEnMin=12 EnMin= -3010.54264384569     IErMin=11 ErrMin= 5.62D-06
 ErrMax= 6.09D-06  0.00D+00 EMaxC= 1.00D-01 BMatC= 3.93D-09 BMatP= 1.42D-08
 IDIUse=1 WtCom= 1.00D+00 WtEn= 0.00D+00
 Coeff-Com: -0.319D-03 0.422D-03-0.803D-04 0.521D-03 0.964D-03 0.637D-02
 Coeff-Com:  0.128D-01-0.597D-01-0.155D+00 0.206D+00 0.430D+00 0.558D+00
 Coeff:     -0.319D-03 0.422D-03-0.803D-04 0.521D-03 0.964D-03 0.637D-02
 Coeff:      0.128D-01-0.597D-01-0.155D+00 0.206D+00 0.430D+00 0.558D+00
 Gap=     0.245 Goal=   None    Shift=    0.000
 RMSDP=1.05D-06 MaxDP=4.65D-05 DE=-5.65D-08 OVMax= 8.70D-05

 Cycle  13  Pass 1  IDiag  1:
 RMSU=  7.33D-07    CP:  3.76D-01  2.88D+00  1.43D+00  8.79D-01  9.32D-01
                    CP:  1.27D+00  1.85D+00  1.50D+00  1.68D+00  1.69D+00
                    CP:  1.09D+00  1.16D+00
 E= -3010.54264385356     Delta-E=       -0.000000007868 Rises=F Damp=F
 DIIS: error= 3.00D-06 at cycle  13 NSaved=  13.
 NSaved=13 IEnMin=13 EnMin= -3010.54264385356     IErMin=13 ErrMin= 3.00D-06
 ErrMax= 3.00D-06  0.00D+00 EMaxC= 1.00D-01 BMatC= 1.02D-09 BMatP= 3.93D-09
 IDIUse=1 WtCom= 1.00D+00 WtEn= 0.00D+00
 Coeff-Com:  0.293D-04-0.386D-04-0.172D-04-0.254D-03-0.127D-02-0.349D-02
 Coeff-Com:  0.250D-03 0.311D-01 0.240D-01-0.167D+00-0.124D+00 0.342D+00
 Coeff-Com:  0.898D+00
 Coeff:      0.293D-04-0.386D-04-0.172D-04-0.254D-03-0.127D-02-0.349D-02
 Coeff:      0.250D-03 0.311D-01 0.240D-01-0.167D+00-0.124D+00 0.342D+00
 Coeff:      0.898D+00
 Gap=     0.245 Goal=   None    Shift=    0.000
 RMSDP=9.87D-07 MaxDP=3.44D-05 DE=-7.87D-09 OVMax= 8.94D-05

 Cycle  14  Pass 1  IDiag  1:
 RMSU=  3.65D-07    CP:  3.76D-01  2.88D+00  1.43D+00  8.79D-01  9.32D-01
                    CP:  1.28D+00  1.85D+00  1.51D+00  1.69D+00  1.71D+00
                    CP:  1.18D+00  1.53D+00  1.11D+00
 E= -3010.54264385752     Delta-E=       -0.000000003955 Rises=F Damp=F
 DIIS: error= 7.19D-07 at cycle  14 NSaved=  14.
 NSaved=14 IEnMin=14 EnMin= -3010.54264385752     IErMin=14 ErrMin= 7.19D-07
 ErrMax= 7.19D-07  0.00D+00 EMaxC= 1.00D-01 BMatC= 9.40D-11 BMatP= 1.02D-09
 IDIUse=1 WtCom= 1.00D+00 WtEn= 0.00D+00
 Coeff-Com:  0.544D-04-0.722D-04 0.258D-05-0.139D-03-0.391D-03-0.160D-02
 Coeff-Com: -0.159D-02 0.167D-01 0.284D-01-0.747D-01-0.102D+00 0.957D-02
 Coeff-Com:  0.274D+00 0.852D+00
 Coeff:      0.544D-04-0.722D-04 0.258D-05-0.139D-03-0.391D-03-0.160D-02
 Coeff:     -0.159D-02 0.167D-01 0.284D-01-0.747D-01-0.102D+00 0.957D-02
 Coeff:      0.274D+00 0.852D+00
 Gap=     0.245 Goal=   None    Shift=    0.000
 RMSDP=3.97D-07 MaxDP=2.16D-05 DE=-3.96D-09 OVMax= 2.31D-05

 Cycle  15  Pass 1  IDiag  1:
 RMSU=  1.69D-07    CP:  3.76D-01  2.88D+00  1.43D+00  8.79D-01  9.32D-01
                    CP:  1.28D+00  1.85D+00  1.50D+00  1.69D+00  1.70D+00
                    CP:  1.19D+00  1.67D+00  1.29D+00  1.24D+00
 E= -3010.54264385790     Delta-E=       -0.000000000385 Rises=F Damp=F
 DIIS: error= 2.81D-07 at cycle  15 NSaved=  15.
 NSaved=15 IEnMin=15 EnMin= -3010.54264385790     IErMin=15 ErrMin= 2.81D-07
 ErrMax= 2.81D-07  0.00D+00 EMaxC= 1.00D-01 BMatC= 2.26D-11 BMatP= 9.40D-11
 IDIUse=1 WtCom= 1.00D+00 WtEn= 0.00D+00
 Coeff-Com:  0.176D-04-0.235D-04 0.335D-05-0.186D-05 0.144D-03 0.231D-03
 Coeff-Com: -0.636D-03-0.477D-03 0.561D-02 0.494D-02-0.150D-01-0.632D-01
 Coeff-Com: -0.573D-01 0.357D+00 0.769D+00
 Coeff:      0.176D-04-0.235D-04 0.335D-05-0.186D-05 0.144D-03 0.231D-03
 Coeff:     -0.636D-03-0.477D-03 0.561D-02 0.494D-02-0.150D-01-0.632D-01
 Coeff:     -0.573D-01 0.357D+00 0.769D+00
 Gap=     0.245 Goal=   None    Shift=    0.000
 RMSDP=1.29D-07 MaxDP=6.16D-06 DE=-3.85D-10 OVMax= 6.63D-06

 Cycle  16  Pass 1  IDiag  1:
 RMSU=  6.10D-08    CP:  3.76D-01  2.88D+00  1.43D+00  8.79D-01  9.32D-01
                    CP:  1.28D+00  1.85D+00  1.51D+00  1.69D+00  1.70D+00
                    CP:  1.19D+00  1.70D+00  1.35D+00  1.46D+00  1.09D+00
 E= -3010.54264385794     Delta-E=       -0.000000000034 Rises=F Damp=F
 DIIS: error= 1.06D-07 at cycle  16 NSaved=  16.
 NSaved=16 IEnMin=16 EnMin= -3010.54264385794     IErMin=16 ErrMin= 1.06D-07
 ErrMax= 1.06D-07  0.00D+00 EMaxC= 1.00D-01 BMatC= 1.80D-12 BMatP= 2.26D-11
 IDIUse=1 WtCom= 1.00D+00 WtEn= 0.00D+00
 Coeff-Com:  0.432D-06-0.631D-06 0.119D-05 0.136D-04 0.810D-04 0.258D-03
 Coeff-Com: -0.298D-04-0.232D-02-0.142D-02 0.108D-01 0.824D-02-0.209D-01
 Coeff-Com: -0.518D-01-0.205D-01 0.164D+00 0.914D+00
 Coeff:      0.432D-06-0.631D-06 0.119D-05 0.136D-04 0.810D-04 0.258D-03
 Coeff:     -0.298D-04-0.232D-02-0.142D-02 0.108D-01 0.824D-02-0.209D-01
 Coeff:     -0.518D-01-0.205D-01 0.164D+00 0.914D+00
 Gap=     0.245 Goal=   None    Shift=    0.000
 RMSDP=6.64D-08 MaxDP=3.88D-06 DE=-3.37D-11 OVMax= 2.76D-06

 Cycle  17  Pass 1  IDiag  1:
 RMSU=  1.89D-08    CP:  3.76D-01  2.88D+00  1.43D+00  8.79D-01  9.32D-01
                    CP:  1.28D+00  1.85D+00  1.50D+00  1.69D+00  1.70D+00
                    CP:  1.20D+00  1.71D+00  1.36D+00  1.52D+00  1.28D+00
                    CP:  1.15D+00
 E= -3010.54264385795     Delta-E=       -0.000000000016 Rises=F Damp=F
 DIIS: error= 4.73D-08 at cycle  17 NSaved=  17.
 NSaved=17 IEnMin=17 EnMin= -3010.54264385795     IErMin=17 ErrMin= 4.73D-08
 ErrMax= 4.73D-08  0.00D+00 EMaxC= 1.00D-01 BMatC= 2.90D-13 BMatP= 1.80D-12
 IDIUse=1 WtCom= 1.00D+00 WtEn= 0.00D+00
 Coeff-Com: -0.191D-05 0.255D-05-0.113D-06 0.292D-05 0.708D-06 0.346D-04
 Coeff-Com:  0.857D-04-0.454D-03-0.834D-03 0.166D-02 0.354D-02 0.239D-02
 Coeff-Com: -0.431D-02-0.438D-01-0.676D-01 0.249D+00 0.861D+00
 Coeff:     -0.191D-05 0.255D-05-0.113D-06 0.292D-05 0.708D-06 0.346D-04
 Coeff:      0.857D-04-0.454D-03-0.834D-03 0.166D-02 0.354D-02 0.239D-02
 Coeff:     -0.431D-02-0.438D-01-0.676D-01 0.249D+00 0.861D+00
 Gap=     0.245 Goal=   None    Shift=    0.000
 RMSDP=2.14D-08 MaxDP=1.68D-06 DE=-1.64D-11 OVMax= 8.85D-07

 Cycle  18  Pass 1  IDiag  1:
 RMSU=  6.12D-09    CP:  3.76D-01  2.88D+00  1.43D+00  8.79D-01  9.32D-01
                    CP:  1.28D+00  1.85D+00  1.50D+00  1.69D+00  1.70D+00
                    CP:  1.20D+00  1.71D+00  1.36D+00  1.54D+00  1.33D+00
                    CP:  1.28D+00  1.28D+00
 E= -3010.54264385797     Delta-E=       -0.000000000020 Rises=F Damp=F
 DIIS: error= 1.06D-08 at cycle  18 NSaved=  18.
 NSaved=18 IEnMin=18 EnMin= -3010.54264385797     IErMin=18 ErrMin= 1.06D-08
 ErrMax= 1.06D-08  0.00D+00 EMaxC= 1.00D-01 BMatC= 5.78D-14 BMatP= 2.90D-13
 IDIUse=1 WtCom= 1.00D+00 WtEn= 0.00D+00
 Coeff-Com: -0.449D-07 0.616D-07-0.107D-06-0.193D-05-0.141D-04-0.307D-04
 Coeff-Com:  0.406D-04 0.210D-03-0.844D-04-0.124D-02 0.753D-04 0.418D-02
 Coeff-Com:  0.738D-02-0.994D-02-0.544D-01-0.723D-01 0.301D+00 0.825D+00
 Coeff:     -0.449D-07 0.616D-07-0.107D-06-0.193D-05-0.141D-04-0.307D-04
 Coeff:      0.406D-04 0.210D-03-0.844D-04-0.124D-02 0.753D-04 0.418D-02
 Coeff:      0.738D-02-0.994D-02-0.544D-01-0.723D-01 0.301D+00 0.825D+00
 Gap=     0.245 Goal=   None    Shift=    0.000
 RMSDP=8.65D-09 MaxDP=4.37D-07 DE=-2.00D-11 OVMax= 2.41D-07

 SCF Done:  E(RwB97XD) =  -3010.54264386     A.U. after   18 cycles
            NFock= 18  Conv=0.87D-08     -V/T= 2.0016
 KE= 3.005832130147D+03 PE=-8.630002681999D+03 EE= 1.876068759181D+03
 Leave Link  502 at Wed May  1 15:25:47 2024, MaxMem=  1207959552 cpu:            1006.2 elap:            1006.3
 (Enter /software/gaussian/g16-c01/sse4/g16/l601.exe)
 Copying SCF densities to generalized density rwf, IOpCl= 0 IROHF=0.

 **********************************************************************

            Population analysis using the SCF Density.

 **********************************************************************

 Alpha  occ. eigenvalues -- -483.28986 -62.83974 -56.63706 -56.63080 -56.63078
 Alpha  occ. eigenvalues --  -19.45128 -19.45068 -14.84628 -10.57060 -10.56524
 Alpha  occ. eigenvalues --  -10.56327 -10.56107 -10.55909 -10.52180  -8.99754
 Alpha  occ. eigenvalues --   -6.82535  -6.80497  -6.80485  -2.92415  -2.91875
 Alpha  occ. eigenvalues --   -2.91864  -2.90235  -2.90234  -1.48893  -1.31872
 Alpha  occ. eigenvalues --   -1.21677  -1.12901  -1.10805  -1.02457  -1.00219
 Alpha  occ. eigenvalues --   -0.94451  -0.90085  -0.84511  -0.80001  -0.79776
 Alpha  occ. eigenvalues --   -0.79197  -0.77540  -0.75317  -0.75082  -0.71027
 Alpha  occ. eigenvalues --   -0.68451  -0.66695  -0.62285  -0.58867  -0.56324
 Alpha  occ. eigenvalues --   -0.55413  -0.54878  -0.53667  -0.52934
 Alpha virt. eigenvalues --   -0.28464  -0.20573  -0.14446  -0.12653  -0.10638
 Alpha virt. eigenvalues --   -0.08079  -0.07636  -0.05727  -0.04144  -0.03710
 Alpha virt. eigenvalues --   -0.02360  -0.01036  -0.00436   0.00719   0.01239
 Alpha virt. eigenvalues --    0.01604   0.02865   0.03855   0.04031   0.04526
 Alpha virt. eigenvalues --    0.05399   0.05763   0.06327   0.07056   0.07476
 Alpha virt. eigenvalues --    0.07921   0.08474   0.09007   0.09853   0.10881
 Alpha virt. eigenvalues --    0.11460   0.11830   0.12184   0.12369   0.13125
 Alpha virt. eigenvalues --    0.13784   0.14870   0.15286   0.15756   0.16485
 Alpha virt. eigenvalues --    0.17274   0.18002   0.18494   0.18877   0.19411
 Alpha virt. eigenvalues --    0.20332   0.21910   0.22222   0.22776   0.25577
 Alpha virt. eigenvalues --    0.25891   0.28436   0.29204   0.31293   0.34055
 Alpha virt. eigenvalues --    0.34548   0.34867   0.35522   0.36949   0.37265
 Alpha virt. eigenvalues --    0.38530   0.38848   0.40358   0.41203   0.43327
 Alpha virt. eigenvalues --    0.43604   0.44689   0.44892   0.46746   0.48193
 Alpha virt. eigenvalues --    0.48616   0.51274   0.52098   0.53235   0.54127
 Alpha virt. eigenvalues --    0.55115   0.56192   0.57113   0.58007   0.60183
 Alpha virt. eigenvalues --    0.62100   0.63145   0.65188   0.68009   0.69561
 Alpha virt. eigenvalues --    0.70879   0.73003   0.73266   0.74109   0.74934
 Alpha virt. eigenvalues --    0.75648   0.79966   0.80715   0.84891   0.86016
 Alpha virt. eigenvalues --    0.87561   0.88793   0.92480   0.94105   0.99437
 Alpha virt. eigenvalues --    1.00373   1.01868   1.05517   1.06054   1.07365
 Alpha virt. eigenvalues --    1.10196   1.11511   1.12823   1.13247   1.14932
 Alpha virt. eigenvalues --    1.22717   1.25163   1.27399   1.33733   1.37226
 Alpha virt. eigenvalues --    1.37584   1.38868   1.46153   1.55126   1.57846
 Alpha virt. eigenvalues --    1.59238   1.59538   1.61340   1.63120   1.67144
 Alpha virt. eigenvalues --    1.69865   1.70609   1.74289   1.75982   1.79795
 Alpha virt. eigenvalues --    1.81841   1.86151   1.88214   1.95659   1.97749
 Alpha virt. eigenvalues --    1.99352   2.03667   2.04684   2.08123   2.09140
 Alpha virt. eigenvalues --    2.10745   2.15580   2.21074   2.23341   2.29956
 Alpha virt. eigenvalues --    2.38198   2.41855   2.43053   2.44168   2.53212
 Alpha virt. eigenvalues --    2.57311   2.63750   2.66824   2.68918   2.72434
 Alpha virt. eigenvalues --    2.74102   2.77223   2.78061   2.81772   2.82629
 Alpha virt. eigenvalues --    2.94421   2.97142   3.01360   3.06392   3.09728
 Alpha virt. eigenvalues --    3.13675   3.15678   3.19745   3.24406   3.24984
 Alpha virt. eigenvalues --    3.28065   3.39837   3.48334   3.51966   3.55229
 Alpha virt. eigenvalues --    3.57587   3.70653   3.74837   3.82946   3.87984
 Alpha virt. eigenvalues --    4.11421   4.11637   4.18918   4.24174   4.44926
 Alpha virt. eigenvalues --    4.45070   4.58282   4.60631   4.93909   4.96571
 Alpha virt. eigenvalues --    5.05223   5.09391   5.63548   6.16478   6.67017
 Alpha virt. eigenvalues --    7.50133   7.51688   7.61332  23.22139  23.62057
 Alpha virt. eigenvalues --   23.70681  23.80331  23.96783  24.02177  35.33330
 Alpha virt. eigenvalues --   47.93484  49.86290  49.95100 289.82778 289.84446
 Alpha virt. eigenvalues --  289.968561020.93853
          Condensed to atoms (all electrons):
               1          2          3          4          5          6
     1  C    8.838044  -1.953412  -0.191873  -1.317704  -0.654581   0.305424
     2  C   -1.953412  12.766180  -1.382162  -3.533505   0.619300  -0.016273
     3  C   -0.191873  -1.382162  13.445239  -3.661338  -0.975975   0.028938
     4  C   -1.317704  -3.533505  -3.661338  16.586634   0.957060   0.004536
     5  C   -0.654581   0.619300  -0.975975   0.957060   7.587350   0.014369
     6  H    0.305424  -0.016273   0.028938   0.004536   0.014369   0.339179
     7  H    0.065997   0.230045   0.077894  -0.032093  -0.022621  -0.001729
     8  H    0.005518  -0.009350   0.076714   0.224964  -0.021964   0.000003
     9  H    0.036887  -0.021090   0.002821  -0.006116   0.297004  -0.002374
    10  N   -0.120500   0.349252  -0.962993   0.295030  -0.001774  -0.000692
    11  O    0.019485  -0.045743  -0.248704  -0.063163  -0.058821  -0.000021
    12  O    0.308488  -0.100696  -0.268395  -0.017622  -0.044890   0.000059
    13  C    1.196645  -1.386153   0.711581  -3.667467  -1.660456  -0.002101
    14  H   -0.023288   0.001653   0.000887  -0.016740   0.009303  -0.000042
    15  Br   0.036881   0.019540   0.044992  -0.017080   0.001844  -0.000143
               7          8          9         10         11         12
     1  C    0.065997   0.005518   0.036887  -0.120500   0.019485   0.308488
     2  C    0.230045  -0.009350  -0.021090   0.349252  -0.045743  -0.100696
     3  C    0.077894   0.076714   0.002821  -0.962993  -0.248704  -0.268395
     4  C   -0.032093   0.224964  -0.006116   0.295030  -0.063163  -0.017622
     5  C   -0.022621  -0.021964   0.297004  -0.001774  -0.058821  -0.044890
     6  H   -0.001729   0.000003  -0.002374  -0.000692  -0.000021   0.000059
     7  H    0.301668   0.000016   0.000046  -0.025934  -0.001490   0.021871
     8  H    0.000016   0.301194   0.000159  -0.024149   0.023576  -0.000941
     9  H    0.000046   0.000159   0.336551   0.000517  -0.000012   0.000011
    10  N   -0.025934  -0.024149   0.000517   7.383548   0.190665   0.143362
    11  O   -0.001490   0.023576  -0.000012   0.190665   7.839460  -0.003134
    12  O    0.021871  -0.000941   0.000011   0.143362  -0.003134   7.886595
    13  C    0.019412   0.054253   0.012573  -0.117852   0.314124   0.042640
    14  H   -0.000044  -0.006905  -0.008202  -0.001017  -0.000118  -0.000012
    15  Br   0.000225   0.005886   0.004571   0.003787   0.001448   0.002797
              13         14         15
     1  C    1.196645  -0.023288   0.036881
     2  C   -1.386153   0.001653   0.019540
     3  C    0.711581   0.000887   0.044992
     4  C   -3.667467  -0.016740  -0.017080
     5  C   -1.660456   0.009303   0.001844
     6  H   -0.002101  -0.000042  -0.000143
     7  H    0.019412  -0.000044   0.000225
     8  H    0.054253  -0.006905   0.005886
     9  H    0.012573  -0.008202   0.004571
    10  N   -0.117852  -0.001017   0.003787
    11  O    0.314124  -0.000118   0.001448
    12  O    0.042640  -0.000012   0.002797
    13  C   10.512066   0.319549   0.111361
    14  H    0.319549   0.425341  -0.053219
    15  Br   0.111361  -0.053219  34.528375
 Mulliken charges:
               1
     1  C   -0.552009
     2  C    0.462415
     3  C   -0.697626
     4  C    0.264605
     5  C   -0.045148
     6  H    0.330868
     7  H    0.366737
     8  H    0.371024
     9  H    0.346656
    10  N   -0.111250
    11  O    0.032450
    12  O    0.029867
    13  C   -0.460173
    14  H    0.352851
    15  Br   0.308734
 Sum of Mulliken charges =   1.00000
 Mulliken charges with hydrogens summed into heavy atoms:
               1
     1  C   -0.221141
     2  C    0.829152
     3  C   -0.697626
     4  C    0.635629
     5  C    0.301508
    10  N   -0.111250
    11  O    0.032450
    12  O    0.029867
    13  C   -0.107322
    15  Br   0.308734
 Electronic spatial extent (au):  <R**2>=           2796.3293
 Charge=              1.0000 electrons
 Dipole moment (field-independent basis, Debye):
    X=             -1.1844    Y=             -1.1467    Z=             -2.5468  Tot=              3.0338
 Quadrupole moment (field-independent basis, Debye-Ang):
   XX=            -71.7636   YY=            -51.2517   ZZ=            -60.0899
   XY=              1.7129   XZ=             -0.0565   YZ=              3.8048
 Traceless Quadrupole moment (field-independent basis, Debye-Ang):
   XX=            -10.7285   YY=              9.7834   ZZ=              0.9451
   XY=              1.7129   XZ=             -0.0565   YZ=              3.8048
 Octapole moment (field-independent basis, Debye-Ang**2):
  XXX=           -302.2334  YYY=             83.7066  ZZZ=             66.0024  XYY=            -77.5758
  XXY=             29.3687  XXZ=             23.7712  XZZ=            -79.8882  YZZ=             10.5574
  YYZ=             17.6546  XYZ=             -4.8552
 Hexadecapole moment (field-independent basis, Debye-Ang**3):
 XXXX=          -2288.8379 YYYY=           -668.8593 ZZZZ=           -324.2887 XXXY=            -66.7777
 XXXZ=            -44.8842 YYYX=            -56.9920 YYYZ=           -142.2635 ZZZX=            -16.5432
 ZZZY=           -119.2759 XXYY=           -456.3474 XXZZ=           -367.6140 YYZZ=           -151.0110
 XXYZ=            -52.5845 YYXZ=             -1.8521 ZZXY=             -5.2128
 N-N= 7.375591488134D+02 E-N=-8.630002684116D+03  KE= 3.005832130147D+03
 No NMR shielding tensors so no spin-rotation constants.
 Leave Link  601 at Wed May  1 15:25:55 2024, MaxMem=  1207959552 cpu:               7.4 elap:               7.4
 (Enter /software/gaussian/g16-c01/sse4/g16/l9999.exe)
 Unable to Open any file for archive entry.
 1\1\GINC-BHX0011\SP\RwB97XD\6-311+G(d)\C6H5Br1N1O2(1+)\BWEIGHT\01-May-
 2024\0\\#P wB97XD/6-311+G* NoSymm #P Field=Z+145\\TitleMe\\1,1\C,0,0.0
 295,1.3397,0.0682\C,0,1.4348,1.2867,0.0064\C,0,2.1118,0.0511,-0.0054\C
 ,0,1.4451,-1.1372,0.0312\C,0,-0.6879,0.1682,0.11\H,0,-0.4713,2.2984,0.
 0781\H,0,2.0273,2.1965,-0.0322\H,0,1.9897,-2.0764,0.0232\H,0,-1.7716,0
 .1804,0.1582\N,0,3.5864,0.051,-0.0675\O,0,4.1471,-1.0597,-0.0881\O,0,4
 .145,1.1639,-0.0901\C,0,-0.0236,-1.1458,0.0835\H,0,-0.4367,-1.8725,0.7
 889\Br,0,-0.5359,-1.8697,-1.7408\\Version=ES64L-G16RevC.01\HF=-3010.54
 26439\RMSD=8.650e-09\Dipole=-2.3725277,0.6969262,0.1441879\Quadrupole=
 -7.9763836,7.2737056,0.702678,1.2734806,-0.0420145,2.8287964\PG=C01 [X
 (C6H5Br1N1O2)]\\@
 The archive entry for this job was punched.


 MUD THROWN IS GROUND LOST -- FROM A TEA BAG
 Job cpu time:       0 days  0 hours 17 minutes 53.9 seconds.
 Elapsed time:       0 days  0 hours 17 minutes 54.1 seconds.
 File lengths (MBytes):  RWF=     40 Int=      0 D2E=      0 Chk=     32 Scr=      1
 Normal termination of Gaussian 16 at Wed May  1 15:25:56 2024.
