 Entering Gaussian System, Link 0=g16
 Initial command:
 /software/gaussian/g16-c01/sse4/g16/l1.exe "/local_scratch/24657509/Gau-26156.inp" -scrdir="/local_scratch/24657509/"
 Entering Link 1 = /software/gaussian/g16-c01/sse4/g16/l1.exe PID=     26164.
  
 Copyright (c) 1988-2019, Gaussian, Inc.  All Rights Reserved.
  
 This is part of the Gaussian(R) 16 program.  It is based on
 the Gaussian(R) 09 system (copyright 2009, Gaussian, Inc.),
 the Gaussian(R) 03 system (copyright 2003, Gaussian, Inc.),
 the Gaussian(R) 98 system (copyright 1998, Gaussian, Inc.),
 the Gaussian(R) 94 system (copyright 1995, Gaussian, Inc.),
 the Gaussian 92(TM) system (copyright 1992, Gaussian, Inc.),
 the Gaussian 90(TM) system (copyright 1990, Gaussian, Inc.),
 the Gaussian 88(TM) system (copyright 1988, Gaussian, Inc.),
 the Gaussian 86(TM) system (copyright 1986, Carnegie Mellon
 University), and the Gaussian 82(TM) system (copyright 1983,
 Carnegie Mellon University). Gaussian is a federally registered
 trademark of Gaussian, Inc.
  
 This software contains proprietary and confidential information,
 including trade secrets, belonging to Gaussian, Inc.
  
 This software is provided under written license and may be
 used, copied, transmitted, or stored only in accord with that
 written license.
  
 The following legend is applicable only to US Government
 contracts under FAR:
  
                    RESTRICTED RIGHTS LEGEND
  
 Use, reproduction and disclosure by the US Government is
 subject to restrictions as set forth in subparagraphs (a)
 and (c) of the Commercial Computer Software - Restricted
 Rights clause in FAR 52.227-19.
  
 Gaussian, Inc.
 340 Quinnipiac St., Bldg. 40, Wallingford CT 06492
  
  
 ---------------------------------------------------------------
 Warning -- This program may not be used in any manner that
 competes with the business of Gaussian, Inc. or will provide
 assistance to any competitor of Gaussian, Inc.  The licensee
 of this program is prohibited from giving any competitor of
 Gaussian, Inc. access to this program.  By using this program,
 the user acknowledges that Gaussian, Inc. is engaged in the
 business of creating and licensing software in the field of
 computational chemistry and represents and warrants to the
 licensee that it is not a competitor of Gaussian, Inc. and that
 it will not use this program in any manner prohibited above.
 ---------------------------------------------------------------
  

 Cite this work as:
 Gaussian 16, Revision C.01,
 M. J. Frisch, G. W. Trucks, H. B. Schlegel, G. E. Scuseria, 
 M. A. Robb, J. R. Cheeseman, G. Scalmani, V. Barone, 
 G. A. Petersson, H. Nakatsuji, X. Li, M. Caricato, A. V. Marenich, 
 J. Bloino, B. G. Janesko, R. Gomperts, B. Mennucci, H. P. Hratchian, 
 J. V. Ortiz, A. F. Izmaylov, J. L. Sonnenberg, D. Williams-Young, 
 F. Ding, F. Lipparini, F. Egidi, J. Goings, B. Peng, A. Petrone, 
 T. Henderson, D. Ranasinghe, V. G. Zakrzewski, J. Gao, N. Rega, 
 G. Zheng, W. Liang, M. Hada, M. Ehara, K. Toyota, R. Fukuda, 
 J. Hasegawa, M. Ishida, T. Nakajima, Y. Honda, O. Kitao, H. Nakai, 
 T. Vreven, K. Throssell, J. A. Montgomery, Jr., J. E. Peralta, 
 F. Ogliaro, M. J. Bearpark, J. J. Heyd, E. N. Brothers, K. N. Kudin, 
 V. N. Staroverov, T. A. Keith, R. Kobayashi, J. Normand, 
 K. Raghavachari, A. P. Rendell, J. C. Burant, S. S. Iyengar, 
 J. Tomasi, M. Cossi, J. M. Millam, M. Klene, C. Adamo, R. Cammi, 
 J. W. Ochterski, R. L. Martin, K. Morokuma, O. Farkas, 
 J. B. Foresman, and D. J. Fox, Gaussian, Inc., Wallingford CT, 2019.
 
 ******************************************
 Gaussian 16:  ES64L-G16RevC.01  3-Jul-2019
                 1-May-2024 
 ******************************************
 %chk=geometry.chk
 %mem=9GB
 %nprocshared=12
 Will use up to   12 processors via shared memory.
 ---------------------------------------
 #P wB97XD/6-311+G* NoSymm #P Field=Y+77
 ---------------------------------------
 1/38=1,172=1/1;
 2/12=2,15=1,17=6,18=5,40=1/2;
 3/5=4,6=6,7=11,11=2,14=2,15=77,25=1,30=1,74=-58/1,2,3;
 4//1;
 5/5=2,38=5/2;
 6/7=2,8=2,9=2,10=2,28=1/1;
 99/5=1,9=1/99;
 Leave Link    1 at Wed May  1 14:48:54 2024, MaxMem=  1207959552 cpu:               1.1 elap:               1.1
 (Enter /software/gaussian/g16-c01/sse4/g16/l101.exe)
 -------
 TitleMe
 -------
 Symbolic Z-matrix:
 Charge =  1 Multiplicity = 1
 C                     0.0295    1.3397    0.0682 
 C                     1.4348    1.2867    0.0064 
 C                     2.1118    0.0511   -0.0054 
 C                     1.4451   -1.1372    0.0312 
 C                    -0.6879    0.1682    0.11 
 H                    -0.4713    2.2984    0.0781 
 H                     2.0273    2.1965   -0.0322 
 H                     1.9897   -2.0764    0.0232 
 H                    -1.7716    0.1804    0.1582 
 N                     3.5864    0.051    -0.0675 
 O                     4.1471   -1.0597   -0.0881 
 O                     4.145     1.1639   -0.0901 
 C                    -0.0236   -1.1458    0.0835 
 H                    -0.4367   -1.8725    0.7889 
 Br                   -0.5359   -1.8697   -1.7408 
 
 ITRead=  0  0  0  0  0  0  0  0  0  0  0  0  0  0  0
 MicOpt= -1 -1 -1 -1 -1 -1 -1 -1 -1 -1 -1 -1 -1 -1 -1
 NAtoms=     15 NQM=       15 NQMF=       0 NMMI=      0 NMMIF=      0
                NMic=       0 NMicF=      0.
                    Isotopes and Nuclear Properties:
 (Nuclear quadrupole moments (NQMom) in fm**2, nuclear magnetic moments (NMagM)
  in nuclear magnetons)

  Atom         1           2           3           4           5           6           7           8           9          10
 IAtWgt=          12          12          12          12          12           1           1           1           1          14
 AtmWgt=  12.0000000  12.0000000  12.0000000  12.0000000  12.0000000   1.0078250   1.0078250   1.0078250   1.0078250  14.0030740
 NucSpn=           0           0           0           0           0           1           1           1           1           2
 AtZEff=  -0.0000000  -0.0000000  -0.0000000  -0.0000000  -0.0000000  -0.0000000  -0.0000000  -0.0000000  -0.0000000  -0.0000000
 NQMom=    0.0000000   0.0000000   0.0000000   0.0000000   0.0000000   0.0000000   0.0000000   0.0000000   0.0000000   2.0440000
 NMagM=    0.0000000   0.0000000   0.0000000   0.0000000   0.0000000   2.7928460   2.7928460   2.7928460   2.7928460   0.4037610
 AtZNuc=   6.0000000   6.0000000   6.0000000   6.0000000   6.0000000   1.0000000   1.0000000   1.0000000   1.0000000   7.0000000

  Atom        11          12          13          14          15
 IAtWgt=          16          16          12           1          79
 AtmWgt=  15.9949146  15.9949146  12.0000000   1.0078250  78.9183361
 NucSpn=           0           0           0           1           3
 AtZEff=  -0.0000000  -0.0000000  -0.0000000  -0.0000000  -0.0000000
 NQMom=    0.0000000   0.0000000   0.0000000   0.0000000  31.3000000
 NMagM=    0.0000000   0.0000000   0.0000000   2.7928460   2.1063990
 AtZNuc=   8.0000000   8.0000000   6.0000000   1.0000000  35.0000000
 Leave Link  101 at Wed May  1 14:48:55 2024, MaxMem=  1207959552 cpu:               1.4 elap:               1.4
 (Enter /software/gaussian/g16-c01/sse4/g16/l202.exe)
                          Input orientation:                          
 ---------------------------------------------------------------------
 Center     Atomic      Atomic             Coordinates (Angstroms)
 Number     Number       Type             X           Y           Z
 ---------------------------------------------------------------------
      1          6           0        0.029500    1.339700    0.068200
      2          6           0        1.434800    1.286700    0.006400
      3          6           0        2.111800    0.051100   -0.005400
      4          6           0        1.445100   -1.137200    0.031200
      5          6           0       -0.687900    0.168200    0.110000
      6          1           0       -0.471300    2.298400    0.078100
      7          1           0        2.027300    2.196500   -0.032200
      8          1           0        1.989700   -2.076400    0.023200
      9          1           0       -1.771600    0.180400    0.158200
     10          7           0        3.586400    0.051000   -0.067500
     11          8           0        4.147100   -1.059700   -0.088100
     12          8           0        4.145000    1.163900   -0.090100
     13          6           0       -0.023600   -1.145800    0.083500
     14          1           0       -0.436700   -1.872500    0.788900
     15         35           0       -0.535900   -1.869700   -1.740800
 ---------------------------------------------------------------------
                    Distance matrix (angstroms):
                    1          2          3          4          5
     1  C    0.000000
     2  C    1.407656   0.000000
     3  C    2.449874   1.408963   0.000000
     4  C    2.853126   2.424049   1.363043   0.000000
     5  C    1.374344   2.401589   2.804523   2.501993   0.000000
     6  H    1.081667   2.159142   3.424870   3.934226   2.141421
     7  H    2.176095   1.086408   2.147231   3.384750   3.392128
     8  H    3.938800   3.408612   2.131193   1.085702   3.495040
     9  H    2.143837   3.395283   3.888995   3.478413   1.084840
    10  N    3.785591   2.482297   1.475907   2.450862   4.279589
    11  O    4.768247   3.587631   2.320164   2.705743   4.992415
    12  O    4.122294   2.714696   2.319353   3.549540   4.938459
    13  C    2.486114   2.837240   2.449573   1.469656   1.472614
    14  H    3.324903   3.754379   3.290289   2.157764   2.165286
    15  Br   3.727252   4.110867   3.702891   2.756973   2.757100
                    6          7          8          9         10
     6  H    0.000000
     7  H    2.503108   0.000000
     8  H    5.019802   4.273425   0.000000
     9  H    2.486588   4.304945   4.388479   0.000000
    10  N    4.640790   2.652397   2.661486   5.364313   0.000000
    11  O    5.712624   3.885809   2.387560   6.052233   1.244373
    12  O    4.756638   2.356750   3.893289   6.002923   1.245428
    13  C    3.473180   3.923079   2.218790   2.195425   3.806210
    14  H    4.231175   4.827242   2.552506   2.528663   4.540772
    15  Br   4.548146   5.101303   3.087568   3.055498   4.845862
                   11         12         13         14         15
    11  O    0.000000
    12  O    2.223602   0.000000
    13  C    4.175117   4.768865   0.000000
    14  H    4.737193   5.566358   1.093770   0.000000
    15  Br   5.031700   5.817075   2.028436   2.531646   0.000000
 Symmetry turned off by external request.
 Stoichiometry    C6H5BrNO2(1+)
 Framework group  C1[X(C6H5BrNO2)]
 Deg. of freedom    39
 Full point group                 C1      NOp   1
 Rotational constants (GHZ):           1.8252210           0.5518633           0.4576002
 Leave Link  202 at Wed May  1 14:48:57 2024, MaxMem=  1207959552 cpu:               1.1 elap:               1.1
 (Enter /software/gaussian/g16-c01/sse4/g16/l301.exe)
 Standard basis: 6-311+G(d) (5D, 7F)
 Ernie: Thresh=  0.10000D-02 Tol=  0.10000D-05 Strict=F.
 The following finite field(s) will be applied:
 An electric field of              0.0000  0.0077  0.0000
   261 basis functions,   443 primitive gaussians,   273 cartesian basis functions
    49 alpha electrons       49 beta electrons
       nuclear repulsion energy       739.2122215416 Hartrees.
 IExCor= 4639 DFT=T Ex+Corr=wB97XD ExCW=0 ScaHFX=  1.000000
 ScaDFX=  1.000000  1.000000  1.000000  1.000000 ScalE2=  1.000000  1.000000
 IRadAn=      5 IRanWt=     -1 IRanGd=            0 ICorTp=0 IEmpDi=121
 HFx  wShort=  0.000000 wLong=  0.200000 cFull=  0.222036 cShort=  0.000000 cLong=  0.777964
 DFx  wShort=  0.000000 wLong=  0.200000 cFull=  0.000000 cShort=  0.000000 cLong=  1.000000
 NAtoms=   15 NActive=   15 NUniq=   15 SFac= 1.00D+00 NAtFMM=   60 NAOKFM=F Big=F
 Integral buffers will be    131072 words long.
 Raffenetti 2 integral format.
 Two-electron integral symmetry is turned off.
 R6Disp:  Grimme-D2 Dispersion energy=       -0.0077368520 Hartrees.
 Nuclear repulsion after empirical dispersion term =      739.2044846896 Hartrees.
 Leave Link  301 at Wed May  1 14:48:57 2024, MaxMem=  1207959552 cpu:               0.9 elap:               0.8
 (Enter /software/gaussian/g16-c01/sse4/g16/l302.exe)
 NPDir=0 NMtPBC=     1 NCelOv=     1 NCel=       1 NClECP=     1 NCelD=      1
         NCelK=      1 NCelE2=     1 NClLst=     1 CellRange=     0.0.
 One-electron integrals computed using PRISM.
 NBasis=   261 RedAO= T EigKep=  2.35D-06  NBF=   261
 NBsUse=   261 1.00D-06 EigRej= -1.00D+00 NBFU=   261
 Precomputing XC quadrature grid using
 IXCGrd= 4 IRadAn=           5 IRanWt=          -1 IRanGd=           0 AccXCQ= 0.00D+00.
 Generated NRdTot=       0 NPtTot=           0 NUsed=           0 NTot=          32
 NSgBfM=   273   273   273   273   273 MxSgAt=    15 MxSgA2=    15.
 Leave Link  302 at Wed May  1 14:49:18 2024, MaxMem=  1207959552 cpu:              21.0 elap:              21.0
 (Enter /software/gaussian/g16-c01/sse4/g16/l303.exe)
 DipDrv:  MaxL=1.
 The nuclear repulsion energy is now       738.3293024246 hartrees.
 Leave Link  303 at Wed May  1 14:49:22 2024, MaxMem=  1207959552 cpu:               3.2 elap:               3.2
 (Enter /software/gaussian/g16-c01/sse4/g16/l401.exe)
 ExpMin= 3.50D-02 ExpMax= 4.40D+05 ExpMxC= 1.51D+04 IAcc=3 IRadAn=         5 AccDes= 0.00D+00
 Harris functional with IExCor= 4639 and IRadAn=       5 diagonalized for initial guess.
 HarFok:  IExCor= 4639 AccDes= 0.00D+00 IRadAn=         5 IDoV= 1 UseB2=F ITyADJ=14
 ICtDFT=  3500011 ScaDFX=  1.000000  1.000000  1.000000  1.000000
 FoFCou: FMM=F IPFlag=           0 FMFlag=      100000 FMFlg1=           0
         NFxFlg=           0 DoJE=T BraDBF=F KetDBF=T FulRan=T
         wScrn=  0.000000 ICntrl=       500 IOpCl=  0 I1Cent=   200000004 NGrid=           0
         NMat0=    1 NMatS0=      1 NMatT0=    0 NMatD0=    1 NMtDS0=    0 NMtDT0=    0
 Symmetry not used in FoFCou.
 Harris En= -2970.60677087978    
 JPrj=0 DoOrth=F DoCkMO=F.
 Leave Link  401 at Wed May  1 14:49:51 2024, MaxMem=  1207959552 cpu:              29.5 elap:              29.5
 (Enter /software/gaussian/g16-c01/sse4/g16/l502.exe)
 Two-electron integral symmetry not used.
 Closed shell SCF:
 Using DIIS extrapolation, IDIIS=  1040.
 NGot=  1207959552 LenX=  1207804877 LenY=  1207729907
 Requested convergence on RMS density matrix=1.00D-08 within 128 cycles.
 Requested convergence on MAX density matrix=1.00D-06.
 Requested convergence on             energy=1.00D-06.
 No special actions if energy rises.
 Fock matrices will be formed incrementally for  20 cycles.

 Cycle   1  Pass 1  IDiag  1:
 FoFJK:  IHMeth= 1 ICntrl=       0 DoSepK=T KAlg= 0 I1Cent=           0 FoldK=F
 IRaf=         1 NMat=       1 IRICut=       1 DoRegI=T DoRafI=F ISym2E= 0 IDoP0=0 IntGTp=1.
 FoFCou: FMM=F IPFlag=           0 FMFlag=      100000 FMFlg1=           0
         NFxFlg=           0 DoJE=T BraDBF=F KetDBF=F FulRan=T
         wScrn=  0.000000 ICntrl=       500 IOpCl=  0 I1Cent=           0 NGrid=           0
         NMat0=    1 NMatS0=      1 NMatT0=    0 NMatD0=    1 NMtDS0=    0 NMtDT0=    0
 Symmetry not used in FoFCou.
 E= -3009.70433872982    
 DIIS: error= 3.20D-01 at cycle   1 NSaved=   1.
 NSaved= 1 IEnMin= 1 EnMin= -3009.70433872982     IErMin= 1 ErrMin= 3.20D-01
 ErrMax= 3.20D-01  0.00D+00 EMaxC= 1.00D-01 BMatC= 1.20D+01 BMatP= 1.20D+01
 IDIUse=3 WtCom= 0.00D+00 WtEn= 1.00D+00
 Coeff-Com:  0.100D+01
 Coeff-En:   0.100D+01
 Coeff:      0.100D+01
 Gap=     0.357 Goal=   None    Shift=    0.000
 GapD=    0.357 DampG=1.000 DampE=0.250 DampFc=0.2500 IDamp=-1.
 Damping current iteration by 2.50D-01
 RMSDP=5.14D-02 MaxDP=5.45D+00              OVMax= 2.46D-01

 Cycle   2  Pass 1  IDiag  1:
 RMSU=  4.48D-03    CP:  8.82D-01
 E= -3009.99654700438     Delta-E=       -0.292208274562 Rises=F Damp=T
 DIIS: error= 2.25D-01 at cycle   2 NSaved=   2.
 NSaved= 2 IEnMin= 2 EnMin= -3009.99654700438     IErMin= 2 ErrMin= 2.25D-01
 ErrMax= 2.25D-01  0.00D+00 EMaxC= 1.00D-01 BMatC= 5.46D+00 BMatP= 1.20D+01
 IDIUse=3 WtCom= 0.00D+00 WtEn= 1.00D+00
 Coeff-Com: -0.182D+01 0.282D+01
 Coeff-En:   0.000D+00 0.100D+01
 Coeff:      0.000D+00 0.100D+01
 Gap=     0.286 Goal=   None    Shift=    0.000
 RMSDP=3.95D-02 MaxDP=4.09D+00 DE=-2.92D-01 OVMax= 7.57D-02

 Cycle   3  Pass 1  IDiag  1:
 RMSU=  4.70D-03    CP:  5.15D-01  3.00D+00
 E= -3010.38455094655     Delta-E=       -0.388003942166 Rises=F Damp=F
 DIIS: error= 6.60D-02 at cycle   3 NSaved=   3.
 NSaved= 3 IEnMin= 3 EnMin= -3010.38455094655     IErMin= 3 ErrMin= 6.60D-02
 ErrMax= 6.60D-02  0.00D+00 EMaxC= 1.00D-01 BMatC= 7.44D-01 BMatP= 5.46D+00
 IDIUse=3 WtCom= 3.40D-01 WtEn= 6.60D-01
 Coeff-Com:  0.249D+01-0.325D+01 0.176D+01
 Coeff-En:   0.336D-01 0.000D+00 0.966D+00
 Coeff:      0.869D+00-0.111D+01 0.124D+01
 Gap=     0.278 Goal=   None    Shift=    0.000
 RMSDP=8.20D-03 MaxDP=4.43D-01 DE=-3.88D-01 OVMax= 7.84D-02

 Cycle   4  Pass 1  IDiag  1:
 RMSU=  6.27D-03    CP:  5.42D-01  2.73D+00  1.78D+00
 E= -3010.48523735708     Delta-E=       -0.100686410533 Rises=F Damp=F
 DIIS: error= 3.86D-02 at cycle   4 NSaved=   4.
 NSaved= 4 IEnMin= 4 EnMin= -3010.48523735708     IErMin= 4 ErrMin= 3.86D-02
 ErrMax= 3.86D-02  0.00D+00 EMaxC= 1.00D-01 BMatC= 2.46D-01 BMatP= 7.44D-01
 IDIUse=3 WtCom= 6.14D-01 WtEn= 3.86D-01
 Coeff-Com:  0.359D+00-0.463D+00 0.560D+00 0.543D+00
 Coeff-En:   0.000D+00 0.000D+00 0.223D+00 0.777D+00
 Coeff:      0.220D+00-0.284D+00 0.430D+00 0.633D+00
 Gap=     0.268 Goal=   None    Shift=    0.000
 RMSDP=4.13D-03 MaxDP=3.13D-01 DE=-1.01D-01 OVMax= 6.60D-02

 Cycle   5  Pass 1  IDiag  1:
 RMSU=  2.05D-03    CP:  5.13D-01  3.00D+00  1.70D+00  7.52D-01
 E= -3010.53158258469     Delta-E=       -0.046345227603 Rises=F Damp=F
 DIIS: error= 1.19D-02 at cycle   5 NSaved=   5.
 NSaved= 5 IEnMin= 5 EnMin= -3010.53158258469     IErMin= 5 ErrMin= 1.19D-02
 ErrMax= 1.19D-02  0.00D+00 EMaxC= 1.00D-01 BMatC= 1.57D-02 BMatP= 2.46D-01
 IDIUse=3 WtCom= 8.81D-01 WtEn= 1.19D-01
 Coeff-Com: -0.689D-01 0.977D-01 0.147D+00 0.385D+00 0.439D+00
 Coeff-En:   0.000D+00 0.000D+00 0.000D+00 0.396D-01 0.960D+00
 Coeff:     -0.607D-01 0.861D-01 0.129D+00 0.344D+00 0.501D+00
 Gap=     0.272 Goal=   None    Shift=    0.000
 RMSDP=1.32D-03 MaxDP=7.19D-02 DE=-4.63D-02 OVMax= 4.71D-02

 Cycle   6  Pass 1  IDiag  1:
 RMSU=  6.45D-04    CP:  5.08D-01  3.00D+00  1.71D+00  8.39D-01  5.76D-01
 E= -3010.53954646435     Delta-E=       -0.007963879662 Rises=F Damp=F
 DIIS: error= 3.09D-03 at cycle   6 NSaved=   6.
 NSaved= 6 IEnMin= 6 EnMin= -3010.53954646435     IErMin= 6 ErrMin= 3.09D-03
 ErrMax= 3.09D-03  0.00D+00 EMaxC= 1.00D-01 BMatC= 1.31D-03 BMatP= 1.57D-02
 IDIUse=3 WtCom= 9.69D-01 WtEn= 3.09D-02
 Coeff-Com: -0.902D-01 0.122D+00 0.251D-02 0.144D+00 0.322D+00 0.500D+00
 Coeff-En:   0.000D+00 0.000D+00 0.000D+00 0.000D+00 0.790D-01 0.921D+00
 Coeff:     -0.874D-01 0.118D+00 0.243D-02 0.139D+00 0.315D+00 0.513D+00
 Gap=     0.249 Goal=   None    Shift=    0.000
 RMSDP=3.78D-04 MaxDP=1.78D-02 DE=-7.96D-03 OVMax= 1.09D-02

 Cycle   7  Pass 1  IDiag  1:
 RMSU=  2.90D-04    CP:  5.09D-01  3.00D+00  1.71D+00  8.16D-01  6.57D-01
                    CP:  8.48D-01
 E= -3010.54044429694     Delta-E=       -0.000897832591 Rises=F Damp=F
 DIIS: error= 2.95D-04 at cycle   7 NSaved=   7.
 NSaved= 7 IEnMin= 7 EnMin= -3010.54044429694     IErMin= 7 ErrMin= 2.95D-04
 ErrMax= 2.95D-04  0.00D+00 EMaxC= 1.00D-01 BMatC= 1.80D-05 BMatP= 1.31D-03
 IDIUse=3 WtCom= 9.97D-01 WtEn= 2.95D-03
 Coeff-Com: -0.337D-01 0.449D-01-0.116D-01 0.283D-01 0.743D-01 0.168D+00
 Coeff-Com:  0.730D+00
 Coeff-En:   0.000D+00 0.000D+00 0.000D+00 0.000D+00 0.000D+00 0.000D+00
 Coeff-En:   0.100D+01
 Coeff:     -0.336D-01 0.448D-01-0.116D-01 0.282D-01 0.741D-01 0.168D+00
 Coeff:      0.730D+00
 Gap=     0.251 Goal=   None    Shift=    0.000
 RMSDP=1.70D-04 MaxDP=1.18D-02 DE=-8.98D-04 OVMax= 2.64D-03

 Cycle   8  Pass 1  IDiag  1:
 RMSU=  1.12D-04    CP:  5.08D-01  3.00D+00  1.72D+00  8.27D-01  6.81D-01
                    CP:  9.12D-01  9.12D-01
 E= -3010.54046870493     Delta-E=       -0.000024407989 Rises=F Damp=F
 DIIS: error= 1.52D-04 at cycle   8 NSaved=   8.
 NSaved= 8 IEnMin= 8 EnMin= -3010.54046870493     IErMin= 8 ErrMin= 1.52D-04
 ErrMax= 1.52D-04  0.00D+00 EMaxC= 1.00D-01 BMatC= 3.04D-06 BMatP= 1.80D-05
 IDIUse=3 WtCom= 9.98D-01 WtEn= 1.52D-03
 Coeff-Com:  0.469D-02-0.650D-02-0.381D-02-0.134D-01-0.338D-01-0.513D-01
 Coeff-Com:  0.209D+00 0.895D+00
 Coeff-En:   0.000D+00 0.000D+00 0.000D+00 0.000D+00 0.000D+00 0.000D+00
 Coeff-En:   0.000D+00 0.100D+01
 Coeff:      0.468D-02-0.649D-02-0.380D-02-0.134D-01-0.338D-01-0.512D-01
 Coeff:      0.209D+00 0.895D+00
 Gap=     0.250 Goal=   None    Shift=    0.000
 RMSDP=7.89D-05 MaxDP=3.89D-03 DE=-2.44D-05 OVMax= 1.95D-03

 Cycle   9  Pass 1  IDiag  1:
 RMSU=  2.58D-05    CP:  5.08D-01  3.00D+00  1.72D+00  8.30D-01  6.85D-01
                    CP:  9.47D-01  1.12D+00  1.20D+00
 E= -3010.54047562777     Delta-E=       -0.000006922843 Rises=F Damp=F
 DIIS: error= 4.92D-05 at cycle   9 NSaved=   9.
 NSaved= 9 IEnMin= 9 EnMin= -3010.54047562777     IErMin= 9 ErrMin= 4.92D-05
 ErrMax= 4.92D-05  0.00D+00 EMaxC= 1.00D-01 BMatC= 2.61D-07 BMatP= 3.04D-06
 IDIUse=1 WtCom= 1.00D+00 WtEn= 0.00D+00
 Coeff-Com:  0.536D-02-0.720D-02 0.489D-03-0.697D-02-0.161D-01-0.317D-01
 Coeff-Com: -0.483D-01 0.188D+00 0.916D+00
 Coeff:      0.536D-02-0.720D-02 0.489D-03-0.697D-02-0.161D-01-0.317D-01
 Coeff:     -0.483D-01 0.188D+00 0.916D+00
 Gap=     0.250 Goal=   None    Shift=    0.000
 RMSDP=2.71D-05 MaxDP=2.16D-03 DE=-6.92D-06 OVMax= 9.82D-04

 Cycle  10  Pass 1  IDiag  1:
 RMSU=  1.19D-05    CP:  5.08D-01  3.00D+00  1.72D+00  8.30D-01  6.86D-01
                    CP:  9.56D-01  1.17D+00  1.31D+00  1.20D+00
 E= -3010.54047685751     Delta-E=       -0.000001229735 Rises=F Damp=F
 DIIS: error= 1.67D-05 at cycle  10 NSaved=  10.
 NSaved=10 IEnMin=10 EnMin= -3010.54047685751     IErMin=10 ErrMin= 1.67D-05
 ErrMax= 1.67D-05  0.00D+00 EMaxC= 1.00D-01 BMatC= 7.43D-08 BMatP= 2.61D-07
 IDIUse=1 WtCom= 1.00D+00 WtEn= 0.00D+00
 Coeff-Com: -0.605D-06 0.315D-04 0.447D-03 0.520D-03 0.366D-02 0.540D-02
 Coeff-Com: -0.472D-01-0.119D+00 0.251D+00 0.906D+00
 Coeff:     -0.605D-06 0.315D-04 0.447D-03 0.520D-03 0.366D-02 0.540D-02
 Coeff:     -0.472D-01-0.119D+00 0.251D+00 0.906D+00
 Gap=     0.250 Goal=   None    Shift=    0.000
 RMSDP=1.33D-05 MaxDP=8.82D-04 DE=-1.23D-06 OVMax= 4.13D-04

 Cycle  11  Pass 1  IDiag  1:
 RMSU=  5.49D-06    CP:  5.08D-01  3.00D+00  1.72D+00  8.30D-01  6.86D-01
                    CP:  9.58D-01  1.19D+00  1.30D+00  1.32D+00  1.30D+00
 E= -3010.54047713149     Delta-E=       -0.000000273988 Rises=F Damp=F
 DIIS: error= 5.41D-06 at cycle  11 NSaved=  11.
 NSaved=11 IEnMin=11 EnMin= -3010.54047713149     IErMin=11 ErrMin= 5.41D-06
 ErrMax= 5.41D-06  0.00D+00 EMaxC= 1.00D-01 BMatC= 9.30D-09 BMatP= 7.43D-08
 IDIUse=1 WtCom= 1.00D+00 WtEn= 0.00D+00
 Coeff-Com: -0.422D-03 0.571D-03 0.958D-04 0.824D-03 0.206D-02 0.411D-02
 Coeff-Com:  0.347D-03-0.330D-01-0.108D+00 0.105D+00 0.103D+01
 Coeff:     -0.422D-03 0.571D-03 0.958D-04 0.824D-03 0.206D-02 0.411D-02
 Coeff:      0.347D-03-0.330D-01-0.108D+00 0.105D+00 0.103D+01
 Gap=     0.250 Goal=   None    Shift=    0.000
 RMSDP=8.73D-06 MaxDP=6.12D-04 DE=-2.74D-07 OVMax= 2.25D-04

 Cycle  12  Pass 1  IDiag  1:
 RMSU=  2.14D-06    CP:  5.08D-01  3.00D+00  1.72D+00  8.30D-01  6.84D-01
                    CP:  9.57D-01  1.19D+00  1.28D+00  1.34D+00  1.72D+00
                    CP:  1.44D+00
 E= -3010.54047719055     Delta-E=       -0.000000059055 Rises=F Damp=F
 DIIS: error= 3.04D-06 at cycle  12 NSaved=  12.
 NSaved=12 IEnMin=12 EnMin= -3010.54047719055     IErMin=12 ErrMin= 3.04D-06
 ErrMax= 3.04D-06  0.00D+00 EMaxC= 1.00D-01 BMatC= 3.13D-09 BMatP= 9.30D-09
 IDIUse=1 WtCom= 1.00D+00 WtEn= 0.00D+00
 Coeff-Com: -0.171D-03 0.225D-03-0.404D-04 0.286D-03-0.690D-04 0.232D-03
 Coeff-Com:  0.128D-01 0.169D-01-0.120D+00-0.177D+00 0.472D+00 0.794D+00
 Coeff:     -0.171D-03 0.225D-03-0.404D-04 0.286D-03-0.690D-04 0.232D-03
 Coeff:      0.128D-01 0.169D-01-0.120D+00-0.177D+00 0.472D+00 0.794D+00
 Gap=     0.250 Goal=   None    Shift=    0.000
 RMSDP=3.60D-06 MaxDP=1.89D-04 DE=-5.91D-08 OVMax= 1.39D-04

 Cycle  13  Pass 1  IDiag  1:
 RMSU=  8.57D-07    CP:  5.08D-01  3.00D+00  1.72D+00  8.30D-01  6.84D-01
                    CP:  9.57D-01  1.20D+00  1.27D+00  1.34D+00  1.86D+00
                    CP:  1.67D+00  1.18D+00
 E= -3010.54047720603     Delta-E=       -0.000000015477 Rises=F Damp=F
 DIIS: error= 8.96D-07 at cycle  13 NSaved=  13.
 NSaved=13 IEnMin=13 EnMin= -3010.54047720603     IErMin=13 ErrMin= 8.96D-07
 ErrMax= 8.96D-07  0.00D+00 EMaxC= 1.00D-01 BMatC= 4.49D-10 BMatP= 3.13D-09
 IDIUse=1 WtCom= 1.00D+00 WtEn= 0.00D+00
 Coeff-Com:  0.873D-05-0.124D-04-0.284D-04-0.844D-04-0.273D-03-0.697D-03
 Coeff-Com: -0.588D-03 0.318D-02 0.177D-01 0.943D-03-0.208D+00 0.357D-01
 Coeff-Com:  0.115D+01
 Coeff:      0.873D-05-0.124D-04-0.284D-04-0.844D-04-0.273D-03-0.697D-03
 Coeff:     -0.588D-03 0.318D-02 0.177D-01 0.943D-03-0.208D+00 0.357D-01
 Coeff:      0.115D+01
 Gap=     0.250 Goal=   None    Shift=    0.000
 RMSDP=1.60D-06 MaxDP=1.17D-04 DE=-1.55D-08 OVMax= 7.30D-05

 Cycle  14  Pass 1  IDiag  1:
 RMSU=  4.35D-07    CP:  5.08D-01  3.00D+00  1.72D+00  8.30D-01  6.83D-01
                    CP:  9.57D-01  1.20D+00  1.28D+00  1.33D+00  1.94D+00
                    CP:  1.77D+00  1.53D+00  1.48D+00
 E= -3010.54047720947     Delta-E=       -0.000000003442 Rises=F Damp=F
 DIIS: error= 4.76D-07 at cycle  14 NSaved=  14.
 NSaved=14 IEnMin=14 EnMin= -3010.54047720947     IErMin=14 ErrMin= 4.76D-07
 ErrMax= 4.76D-07  0.00D+00 EMaxC= 1.00D-01 BMatC= 1.10D-10 BMatP= 4.49D-10
 IDIUse=1 WtCom= 1.00D+00 WtEn= 0.00D+00
 Coeff-Com:  0.247D-04-0.326D-04-0.954D-05-0.877D-04-0.802D-04-0.281D-03
 Coeff-Com: -0.264D-02-0.208D-02 0.304D-01 0.366D-01-0.190D+00-0.139D+00
 Coeff-Com:  0.454D+00 0.813D+00
 Coeff:      0.247D-04-0.326D-04-0.954D-05-0.877D-04-0.802D-04-0.281D-03
 Coeff:     -0.264D-02-0.208D-02 0.304D-01 0.366D-01-0.190D+00-0.139D+00
 Coeff:      0.454D+00 0.813D+00
 Gap=     0.250 Goal=   None    Shift=    0.000
 RMSDP=7.69D-07 MaxDP=6.54D-05 DE=-3.44D-09 OVMax= 3.01D-05

 Cycle  15  Pass 1  IDiag  1:
 RMSU=  1.46D-07    CP:  5.08D-01  3.00D+00  1.72D+00  8.30D-01  6.83D-01
                    CP:  9.56D-01  1.20D+00  1.28D+00  1.33D+00  1.97D+00
                    CP:  1.79D+00  1.69D+00  1.76D+00  1.16D+00
 E= -3010.54047721010     Delta-E=       -0.000000000632 Rises=F Damp=F
 DIIS: error= 2.79D-07 at cycle  15 NSaved=  15.
 NSaved=15 IEnMin=15 EnMin= -3010.54047721010     IErMin=15 ErrMin= 2.79D-07
 ErrMax= 2.79D-07  0.00D+00 EMaxC= 1.00D-01 BMatC= 1.49D-11 BMatP= 1.10D-10
 IDIUse=1 WtCom= 1.00D+00 WtEn= 0.00D+00
 Coeff-Com:  0.102D-04-0.135D-04 0.438D-05-0.776D-05 0.286D-04 0.948D-04
 Coeff-Com: -0.270D-03-0.603D-03 0.190D-02 0.684D-02 0.999D-02-0.305D-01
 Coeff-Com: -0.166D+00 0.176D+00 0.100D+01
 Coeff:      0.102D-04-0.135D-04 0.438D-05-0.776D-05 0.286D-04 0.948D-04
 Coeff:     -0.270D-03-0.603D-03 0.190D-02 0.684D-02 0.999D-02-0.305D-01
 Coeff:     -0.166D+00 0.176D+00 0.100D+01
 Gap=     0.250 Goal=   None    Shift=    0.000
 RMSDP=2.77D-07 MaxDP=2.11D-05 DE=-6.32D-10 OVMax= 1.14D-05

 Cycle  16  Pass 1  IDiag  1:
 RMSU=  7.48D-08    CP:  5.08D-01  3.00D+00  1.72D+00  8.30D-01  6.83D-01
                    CP:  9.56D-01  1.20D+00  1.28D+00  1.33D+00  1.98D+00
                    CP:  1.79D+00  1.74D+00  1.90D+00  1.29D+00  1.47D+00
 E= -3010.54047721020     Delta-E=       -0.000000000098 Rises=F Damp=F
 DIIS: error= 5.70D-08 at cycle  16 NSaved=  16.
 NSaved=16 IEnMin=16 EnMin= -3010.54047721020     IErMin=16 ErrMin= 5.70D-08
 ErrMax= 5.70D-08  0.00D+00 EMaxC= 1.00D-01 BMatC= 2.43D-12 BMatP= 1.49D-11
 IDIUse=1 WtCom= 1.00D+00 WtEn= 0.00D+00
 Coeff-Com:  0.375D-05-0.504D-05 0.326D-05 0.508D-05 0.166D-04 0.626D-04
 Coeff-Com:  0.198D-03-0.646D-04-0.318D-02-0.219D-02 0.240D-01 0.363D-02
 Coeff-Com: -0.101D+00-0.421D-01 0.261D+00 0.859D+00
 Coeff:      0.375D-05-0.504D-05 0.326D-05 0.508D-05 0.166D-04 0.626D-04
 Coeff:      0.198D-03-0.646D-04-0.318D-02-0.219D-02 0.240D-01 0.363D-02
 Coeff:     -0.101D+00-0.421D-01 0.261D+00 0.859D+00
 Gap=     0.250 Goal=   None    Shift=    0.000
 RMSDP=1.07D-07 MaxDP=9.58D-06 DE=-9.82D-11 OVMax= 4.41D-06

 Cycle  17  Pass 1  IDiag  1:
 RMSU=  2.15D-08    CP:  5.08D-01  3.00D+00  1.72D+00  8.30D-01  6.83D-01
                    CP:  9.56D-01  1.20D+00  1.28D+00  1.33D+00  1.99D+00
                    CP:  1.80D+00  1.76D+00  1.92D+00  1.35D+00  1.68D+00
                    CP:  9.83D-01
 E= -3010.54047721022     Delta-E=       -0.000000000025 Rises=F Damp=F
 DIIS: error= 5.10D-08 at cycle  17 NSaved=  17.
 NSaved=17 IEnMin=17 EnMin= -3010.54047721022     IErMin=17 ErrMin= 5.10D-08
 ErrMax= 5.10D-08  0.00D+00 EMaxC= 1.00D-01 BMatC= 4.71D-13 BMatP= 2.43D-12
 IDIUse=1 WtCom= 1.00D+00 WtEn= 0.00D+00
 Coeff-Com: -0.862D-06 0.113D-05 0.930D-07 0.303D-05 0.313D-05 0.933D-05
 Coeff-Com:  0.108D-03 0.829D-04-0.118D-02-0.150D-02 0.584D-02 0.520D-02
 Coeff-Com:  0.125D-02-0.418D-01-0.106D+00 0.281D+00 0.857D+00
 Coeff:     -0.862D-06 0.113D-05 0.930D-07 0.303D-05 0.313D-05 0.933D-05
 Coeff:      0.108D-03 0.829D-04-0.118D-02-0.150D-02 0.584D-02 0.520D-02
 Coeff:      0.125D-02-0.418D-01-0.106D+00 0.281D+00 0.857D+00
 Gap=     0.250 Goal=   None    Shift=    0.000
 RMSDP=2.47D-08 MaxDP=1.63D-06 DE=-2.46D-11 OVMax= 1.03D-06

 Cycle  18  Pass 1  IDiag  1:
 RMSU=  9.79D-09    CP:  5.08D-01  3.00D+00  1.72D+00  8.30D-01  6.83D-01
                    CP:  9.56D-01  1.20D+00  1.28D+00  1.33D+00  1.99D+00
                    CP:  1.80D+00  1.76D+00  1.93D+00  1.36D+00  1.73D+00
                    CP:  1.11D+00  1.26D+00
 E= -3010.54047721022     Delta-E=        0.000000000009 Rises=F Damp=F
 DIIS: error= 9.19D-09 at cycle  18 NSaved=  18.
 NSaved=18 IEnMin=17 EnMin= -3010.54047721022     IErMin=18 ErrMin= 9.19D-09
 ErrMax= 9.19D-09  0.00D+00 EMaxC= 1.00D-01 BMatC= 6.27D-14 BMatP= 4.71D-13
 IDIUse=1 WtCom= 1.00D+00 WtEn= 0.00D+00
 Coeff-Com: -0.204D-06 0.272D-06-0.411D-06-0.977D-06-0.344D-05-0.112D-04
 Coeff-Com: -0.197D-04 0.361D-04 0.356D-03 0.154D-04-0.334D-02-0.104D-03
 Coeff-Com:  0.200D-01-0.983D-03-0.710D-01-0.905D-01 0.177D+00 0.969D+00
 Coeff:     -0.204D-06 0.272D-06-0.411D-06-0.977D-06-0.344D-05-0.112D-04
 Coeff:     -0.197D-04 0.361D-04 0.356D-03 0.154D-04-0.334D-02-0.104D-03
 Coeff:      0.200D-01-0.983D-03-0.710D-01-0.905D-01 0.177D+00 0.969D+00
 Gap=     0.250 Goal=   None    Shift=    0.000
 RMSDP=1.32D-08 MaxDP=5.59D-07 DE= 9.09D-12 OVMax= 5.20D-07

 Cycle  19  Pass 1  IDiag  1:
 RMSU=  3.60D-09    CP:  5.08D-01  3.00D+00  1.72D+00  8.30D-01  6.83D-01
                    CP:  9.56D-01  1.20D+00  1.28D+00  1.33D+00  1.99D+00
                    CP:  1.80D+00  1.77D+00  1.93D+00  1.36D+00  1.75D+00
                    CP:  1.12D+00  1.49D+00  1.34D+00
 E= -3010.54047721023     Delta-E=       -0.000000000014 Rises=F Damp=F
 DIIS: error= 4.11D-09 at cycle  19 NSaved=  19.
 NSaved=19 IEnMin=19 EnMin= -3010.54047721023     IErMin=19 ErrMin= 4.11D-09
 ErrMax= 4.11D-09  0.00D+00 EMaxC= 1.00D-01 BMatC= 6.32D-15 BMatP= 6.27D-14
 IDIUse=1 WtCom= 1.00D+00 WtEn= 0.00D+00
 Large coefficients: NSaved= 19 BigCof=    0.00 CofMax=   10.00 Det=-1.36D-14
 Inversion failed.  Reducing to 18 matrices.
 Large coefficients: NSaved= 18 BigCof=    0.00 CofMax=   10.00 Det=-1.36D-14
 Inversion failed.  Reducing to 17 matrices.
 Coeff-Com: -0.280D-07-0.147D-06 0.790D-07-0.287D-06-0.102D-04-0.144D-04
 Coeff-Com:  0.103D-03 0.138D-03-0.435D-03-0.287D-03-0.650D-03 0.279D-02
 Coeff-Com:  0.111D-01-0.175D-01-0.862D-01-0.791D-01 0.117D+01
 Coeff:     -0.280D-07-0.147D-06 0.790D-07-0.287D-06-0.102D-04-0.144D-04
 Coeff:      0.103D-03 0.138D-03-0.435D-03-0.287D-03-0.650D-03 0.279D-02
 Coeff:      0.111D-01-0.175D-01-0.862D-01-0.791D-01 0.117D+01
 Gap=     0.250 Goal=   None    Shift=    0.000
 RMSDP=4.90D-09 MaxDP=2.46D-07 DE=-1.36D-11 OVMax= 2.65D-07

 SCF Done:  E(RwB97XD) =  -3010.54047721     A.U. after   19 cycles
            NFock= 19  Conv=0.49D-08     -V/T= 2.0016
 KE= 3.005839498896D+03 PE=-8.630937762300D+03 EE= 1.876228483769D+03
 Leave Link  502 at Wed May  1 15:07:35 2024, MaxMem=  1207959552 cpu:            1063.9 elap:            1064.1
 (Enter /software/gaussian/g16-c01/sse4/g16/l601.exe)
 Copying SCF densities to generalized density rwf, IOpCl= 0 IROHF=0.

 **********************************************************************

            Population analysis using the SCF Density.

 **********************************************************************

 Alpha  occ. eigenvalues -- -483.29924 -62.84934 -56.64641 -56.64050 -56.64047
 Alpha  occ. eigenvalues --  -19.45494 -19.45436 -14.84987 -10.57368 -10.57067
 Alpha  occ. eigenvalues --  -10.56627 -10.56444 -10.56267 -10.53051  -9.00729
 Alpha  occ. eigenvalues --   -6.83443  -6.81513  -6.81496  -2.93339  -2.92827
 Alpha  occ. eigenvalues --   -2.92813  -2.91269  -2.91269  -1.49259  -1.32241
 Alpha  occ. eigenvalues --   -1.22079  -1.13310  -1.11385  -1.03291  -1.00635
 Alpha  occ. eigenvalues --   -0.94875  -0.90489  -0.84946  -0.80392  -0.80174
 Alpha  occ. eigenvalues --   -0.79569  -0.77737  -0.75688  -0.75456  -0.71662
 Alpha  occ. eigenvalues --   -0.68869  -0.67159  -0.63118  -0.59388  -0.56755
 Alpha  occ. eigenvalues --   -0.55799  -0.55230  -0.54793  -0.54015
 Alpha virt. eigenvalues --   -0.28982  -0.20819  -0.14988  -0.12661  -0.10273
 Alpha virt. eigenvalues --   -0.06999  -0.06268  -0.04835  -0.04470  -0.03091
 Alpha virt. eigenvalues --   -0.01779  -0.01583  -0.00766  -0.00177   0.00687
 Alpha virt. eigenvalues --    0.01669   0.02803   0.02971   0.03737   0.03992
 Alpha virt. eigenvalues --    0.04627   0.05083   0.05617   0.06128   0.06765
 Alpha virt. eigenvalues --    0.07287   0.07740   0.07917   0.09015   0.09684
 Alpha virt. eigenvalues --    0.10299   0.11146   0.11378   0.12466   0.12876
 Alpha virt. eigenvalues --    0.13341   0.13614   0.14290   0.15724   0.16030
 Alpha virt. eigenvalues --    0.16738   0.17113   0.18262   0.18580   0.19793
 Alpha virt. eigenvalues --    0.20635   0.21462   0.21850   0.22702   0.24866
 Alpha virt. eigenvalues --    0.25750   0.28150   0.28470   0.30974   0.32845
 Alpha virt. eigenvalues --    0.33479   0.33939   0.35311   0.35644   0.36740
 Alpha virt. eigenvalues --    0.37496   0.37830   0.39786   0.41475   0.42307
 Alpha virt. eigenvalues --    0.43321   0.43772   0.44729   0.46670   0.47559
 Alpha virt. eigenvalues --    0.48138   0.50923   0.51411   0.52731   0.53650
 Alpha virt. eigenvalues --    0.55094   0.55778   0.57390   0.57959   0.58979
 Alpha virt. eigenvalues --    0.61528   0.63109   0.65203   0.67494   0.69299
 Alpha virt. eigenvalues --    0.70592   0.71894   0.72384   0.73779   0.74040
 Alpha virt. eigenvalues --    0.75262   0.79381   0.80535   0.84117   0.85632
 Alpha virt. eigenvalues --    0.86921   0.88233   0.92302   0.93554   0.98875
 Alpha virt. eigenvalues --    1.00018   1.01222   1.05182   1.05668   1.07014
 Alpha virt. eigenvalues --    1.09728   1.11100   1.12235   1.12801   1.14712
 Alpha virt. eigenvalues --    1.22362   1.24893   1.27113   1.33218   1.36852
 Alpha virt. eigenvalues --    1.37202   1.38747   1.45737   1.54761   1.57452
 Alpha virt. eigenvalues --    1.58829   1.59268   1.60924   1.62896   1.66774
 Alpha virt. eigenvalues --    1.69510   1.70246   1.73792   1.75631   1.79341
 Alpha virt. eigenvalues --    1.81579   1.85560   1.87698   1.94684   1.96790
 Alpha virt. eigenvalues --    1.98574   2.03281   2.04241   2.07690   2.08689
 Alpha virt. eigenvalues --    2.10487   2.15095   2.20518   2.22852   2.28852
 Alpha virt. eigenvalues --    2.37926   2.41661   2.43099   2.44196   2.52748
 Alpha virt. eigenvalues --    2.56984   2.63293   2.66407   2.68561   2.71930
 Alpha virt. eigenvalues --    2.73907   2.76884   2.77627   2.81348   2.82251
 Alpha virt. eigenvalues --    2.94072   2.96925   3.01012   3.06387   3.09340
 Alpha virt. eigenvalues --    3.13268   3.14876   3.19088   3.23851   3.24773
 Alpha virt. eigenvalues --    3.27693   3.39451   3.47594   3.51528   3.54943
 Alpha virt. eigenvalues --    3.57285   3.70309   3.74463   3.82485   3.87581
 Alpha virt. eigenvalues --    4.10327   4.10547   4.17935   4.23197   4.43982
 Alpha virt. eigenvalues --    4.44690   4.57872   4.60236   4.93510   4.96217
 Alpha virt. eigenvalues --    5.04834   5.09024   5.63176   6.16108   6.66015
 Alpha virt. eigenvalues --    7.49001   7.50580   7.60300  23.21656  23.61635
 Alpha virt. eigenvalues --   23.70599  23.79641  23.96199  24.01742  35.32971
 Alpha virt. eigenvalues --   47.92513  49.85923  49.94731 289.81825 289.83492
 Alpha virt. eigenvalues --  289.959211020.92910
          Condensed to atoms (all electrons):
               1          2          3          4          5          6
     1  C    9.300337  -2.846929   0.414206  -1.837709  -0.605410   0.305228
     2  C   -2.846929  13.713781  -2.118042  -2.111206   0.706288  -0.016048
     3  C    0.414206  -2.118042  13.739418  -3.779112  -1.460597   0.021579
     4  C   -1.837709  -2.111206  -3.779112  15.201087   1.580967   0.013365
     5  C   -0.605410   0.706288  -1.460597   1.580967   7.544016   0.024792
     6  H    0.305228  -0.016048   0.021579   0.013365   0.024792   0.368179
     7  H    0.081446   0.208602   0.100351  -0.040595  -0.024270  -0.002340
     8  H    0.002130  -0.002503   0.056973   0.268812  -0.016137  -0.000000
     9  H    0.020551  -0.008020   0.001580   0.001502   0.307882  -0.002504
    10  N   -0.193347   0.395735  -0.956507   0.344043   0.019888  -0.000680
    11  O    0.002419  -0.057310  -0.268335   0.018662  -0.052438  -0.000022
    12  O    0.356827  -0.076921  -0.278027  -0.093410  -0.046565   0.000023
    13  C    1.549887  -2.319368   1.182657  -3.824913  -2.018724  -0.012006
    14  H   -0.007346  -0.014871   0.014691  -0.110731  -0.028358  -0.000070
    15  Br   0.048413  -0.012410   0.089586   0.052058   0.092381  -0.000399
               7          8          9         10         11         12
     1  C    0.081446   0.002130   0.020551  -0.193347   0.002419   0.356827
     2  C    0.208602  -0.002503  -0.008020   0.395735  -0.057310  -0.076921
     3  C    0.100351   0.056973   0.001580  -0.956507  -0.268335  -0.278027
     4  C   -0.040595   0.268812   0.001502   0.344043   0.018662  -0.093410
     5  C   -0.024270  -0.016137   0.307882   0.019888  -0.052438  -0.046565
     6  H   -0.002340  -0.000000  -0.002504  -0.000680  -0.000022   0.000023
     7  H    0.327199  -0.000002  -0.000000  -0.029430  -0.001743   0.024928
     8  H   -0.000002   0.274664   0.000114  -0.021293   0.020496  -0.000670
     9  H   -0.000000   0.000114   0.332025   0.000426   0.000007   0.000006
    10  N   -0.029430  -0.021293   0.000426   7.357437   0.218349   0.122091
    11  O   -0.001743   0.020496   0.000007   0.218349   7.767770   0.000300
    12  O    0.024928  -0.000670   0.000006   0.122091   0.000300   7.953503
    13  C    0.018669   0.020457   0.004648  -0.152219   0.281143   0.051813
    14  H   -0.000016  -0.003495  -0.005740  -0.000224  -0.000318  -0.000063
    15  Br  -0.000128   0.001801  -0.001184   0.000849   0.000589   0.001995
              13         14         15
     1  C    1.549887  -0.007346   0.048413
     2  C   -2.319368  -0.014871  -0.012410
     3  C    1.182657   0.014691   0.089586
     4  C   -3.824913  -0.110731   0.052058
     5  C   -2.018724  -0.028358   0.092381
     6  H   -0.012006  -0.000070  -0.000399
     7  H    0.018669  -0.000016  -0.000128
     8  H    0.020457  -0.003495   0.001801
     9  H    0.004648  -0.005740  -0.001184
    10  N   -0.152219  -0.000224   0.000849
    11  O    0.281143  -0.000318   0.000589
    12  O    0.051813  -0.000063   0.001995
    13  C   11.349901   0.445748  -0.089872
    14  H    0.445748   0.322224  -0.034918
    15  Br  -0.089872  -0.034918  34.623543
 Mulliken charges:
               1
     1  C   -0.590703
     2  C    0.559221
     3  C   -0.760421
     4  C    0.317180
     5  C   -0.023716
     6  H    0.300904
     7  H    0.337330
     8  H    0.398654
     9  H    0.348706
    10  N   -0.105119
    11  O    0.070431
    12  O   -0.015828
    13  C   -0.487821
    14  H    0.423487
    15  Br   0.227696
 Sum of Mulliken charges =   1.00000
 Mulliken charges with hydrogens summed into heavy atoms:
               1
     1  C   -0.289799
     2  C    0.896551
     3  C   -0.760421
     4  C    0.715834
     5  C    0.324990
    10  N   -0.105119
    11  O    0.070431
    12  O   -0.015828
    13  C   -0.064334
    15  Br   0.227696
 Electronic spatial extent (au):  <R**2>=           2797.5338
 Charge=              1.0000 electrons
 Dipole moment (field-independent basis, Debye):
    X=             -1.0817    Y=             -2.8050    Z=             -0.3152  Tot=              3.0228
 Quadrupole moment (field-independent basis, Debye-Ang):
   XX=            -71.6539   YY=            -51.0823   ZZ=            -61.9891
   XY=             -1.1694   XZ=              1.3614   YZ=              2.6782
 Traceless Quadrupole moment (field-independent basis, Debye-Ang):
   XX=            -10.0788   YY=             10.4928   ZZ=             -0.4140
   XY=             -1.1694   XZ=              1.3614   YZ=              2.6782
 Octapole moment (field-independent basis, Debye-Ang**2):
  XXX=           -301.8802  YYY=             74.3948  ZZZ=             75.4096  XYY=            -77.7519
  XXY=             18.1961  XXZ=             31.9373  XZZ=            -78.8414  YZZ=             12.6062
  YYZ=             22.3316  XYZ=             -3.8777
 Hexadecapole moment (field-independent basis, Debye-Ang**3):
 XXXX=          -2288.1826 YYYY=           -665.8979 ZZZZ=           -342.4996 XXXY=           -109.4865
 XXXZ=            -20.6111 YYYX=            -67.3043 YYYZ=           -146.2609 ZZZX=            -16.7954
 ZZZY=           -129.4290 XXYY=           -457.0914 XXZZ=           -369.8733 YYZZ=           -156.5497
 XXYZ=            -52.6957 YYXZ=             -0.1107 ZZXY=             -8.7032
 N-N= 7.383293024246D+02 E-N=-8.630937761673D+03  KE= 3.005839498896D+03
 No NMR shielding tensors so no spin-rotation constants.
 Leave Link  601 at Wed May  1 15:07:43 2024, MaxMem=  1207959552 cpu:               7.4 elap:               7.4
 (Enter /software/gaussian/g16-c01/sse4/g16/l9999.exe)
 Unable to Open any file for archive entry.
 1\1\GINC-BHX0011\SP\RwB97XD\6-311+G(d)\C6H5Br1N1O2(1+)\BWEIGHT\01-May-
 2024\0\\#P wB97XD/6-311+G* NoSymm #P Field=Y+77\\TitleMe\\1,1\C,0,0.02
 95,1.3397,0.0682\C,0,1.4348,1.2867,0.0064\C,0,2.1118,0.0511,-0.0054\C,
 0,1.4451,-1.1372,0.0312\C,0,-0.6879,0.1682,0.11\H,0,-0.4713,2.2984,0.0
 781\H,0,2.0273,2.1965,-0.0322\H,0,1.9897,-2.0764,0.0232\H,0,-1.7716,0.
 1804,0.1582\N,0,3.5864,0.051,-0.0675\O,0,4.1471,-1.0597,-0.0881\O,0,4.
 145,1.1639,-0.0901\C,0,-0.0236,-1.1458,0.0835\H,0,-0.4367,-1.8725,0.78
 89\Br,0,-0.5359,-1.8697,-1.7408\\Version=ES64L-G16RevC.01\HF=-3010.540
 4772\RMSD=4.905e-09\Dipole=-2.3321075,0.0445242,1.0221634\Quadrupole=-
 7.4933584,7.8011571,-0.3077987,-0.8694313,1.0121746,1.9911755\PG=C01 [
 X(C6H5Br1N1O2)]\\@
 The archive entry for this job was punched.


 THE LENGTH OF A MEETING IS PROPORTIONAL TO THE
 SQUARE OF THE PARTICIPANTS.
 Job cpu time:       0 days  0 hours 18 minutes 50.3 seconds.
 Elapsed time:       0 days  0 hours 18 minutes 50.4 seconds.
 File lengths (MBytes):  RWF=     40 Int=      0 D2E=      0 Chk=     32 Scr=      1
 Normal termination of Gaussian 16 at Wed May  1 15:07:43 2024.
