 Entering Gaussian System, Link 0=g16
 Initial command:
 /software/gaussian/g16-c01/sse4/g16/l1.exe "/local_scratch/24665358/Gau-29462.inp" -scrdir="/local_scratch/24665358/"
 Entering Link 1 = /software/gaussian/g16-c01/sse4/g16/l1.exe PID=     29504.
  
 Copyright (c) 1988-2019, Gaussian, Inc.  All Rights Reserved.
  
 This is part of the Gaussian(R) 16 program.  It is based on
 the Gaussian(R) 09 system (copyright 2009, Gaussian, Inc.),
 the Gaussian(R) 03 system (copyright 2003, Gaussian, Inc.),
 the Gaussian(R) 98 system (copyright 1998, Gaussian, Inc.),
 the Gaussian(R) 94 system (copyright 1995, Gaussian, Inc.),
 the Gaussian 92(TM) system (copyright 1992, Gaussian, Inc.),
 the Gaussian 90(TM) system (copyright 1990, Gaussian, Inc.),
 the Gaussian 88(TM) system (copyright 1988, Gaussian, Inc.),
 the Gaussian 86(TM) system (copyright 1986, Carnegie Mellon
 University), and the Gaussian 82(TM) system (copyright 1983,
 Carnegie Mellon University). Gaussian is a federally registered
 trademark of Gaussian, Inc.
  
 This software contains proprietary and confidential information,
 including trade secrets, belonging to Gaussian, Inc.
  
 This software is provided under written license and may be
 used, copied, transmitted, or stored only in accord with that
 written license.
  
 The following legend is applicable only to US Government
 contracts under FAR:
  
                    RESTRICTED RIGHTS LEGEND
  
 Use, reproduction and disclosure by the US Government is
 subject to restrictions as set forth in subparagraphs (a)
 and (c) of the Commercial Computer Software - Restricted
 Rights clause in FAR 52.227-19.
  
 Gaussian, Inc.
 340 Quinnipiac St., Bldg. 40, Wallingford CT 06492
  
  
 ---------------------------------------------------------------
 Warning -- This program may not be used in any manner that
 competes with the business of Gaussian, Inc. or will provide
 assistance to any competitor of Gaussian, Inc.  The licensee
 of this program is prohibited from giving any competitor of
 Gaussian, Inc. access to this program.  By using this program,
 the user acknowledges that Gaussian, Inc. is engaged in the
 business of creating and licensing software in the field of
 computational chemistry and represents and warrants to the
 licensee that it is not a competitor of Gaussian, Inc. and that
 it will not use this program in any manner prohibited above.
 ---------------------------------------------------------------
  

 Cite this work as:
 Gaussian 16, Revision C.01,
 M. J. Frisch, G. W. Trucks, H. B. Schlegel, G. E. Scuseria, 
 M. A. Robb, J. R. Cheeseman, G. Scalmani, V. Barone, 
 G. A. Petersson, H. Nakatsuji, X. Li, M. Caricato, A. V. Marenich, 
 J. Bloino, B. G. Janesko, R. Gomperts, B. Mennucci, H. P. Hratchian, 
 J. V. Ortiz, A. F. Izmaylov, J. L. Sonnenberg, D. Williams-Young, 
 F. Ding, F. Lipparini, F. Egidi, J. Goings, B. Peng, A. Petrone, 
 T. Henderson, D. Ranasinghe, V. G. Zakrzewski, J. Gao, N. Rega, 
 G. Zheng, W. Liang, M. Hada, M. Ehara, K. Toyota, R. Fukuda, 
 J. Hasegawa, M. Ishida, T. Nakajima, Y. Honda, O. Kitao, H. Nakai, 
 T. Vreven, K. Throssell, J. A. Montgomery, Jr., J. E. Peralta, 
 F. Ogliaro, M. J. Bearpark, J. J. Heyd, E. N. Brothers, K. N. Kudin, 
 V. N. Staroverov, T. A. Keith, R. Kobayashi, J. Normand, 
 K. Raghavachari, A. P. Rendell, J. C. Burant, S. S. Iyengar, 
 J. Tomasi, M. Cossi, J. M. Millam, M. Klene, C. Adamo, R. Cammi, 
 J. W. Ochterski, R. L. Martin, K. Morokuma, O. Farkas, 
 J. B. Foresman, and D. J. Fox, Gaussian, Inc., Wallingford CT, 2019.
 
 ******************************************
 Gaussian 16:  ES64L-G16RevC.01  3-Jul-2019
                 2-May-2024 
 ******************************************
 %chk=geometry.chk
 %mem=1GB
 %nprocshared=12
 Will use up to   12 processors via shared memory.
 ----------------------------------------
 #P wB97XD/6-311+G* NoSymm #P Field=Z-243
 ----------------------------------------
 1/38=1,172=1/1;
 2/12=2,15=1,17=6,18=5,40=1/2;
 3/5=4,6=6,7=11,11=2,14=3,15=-243,25=1,30=1,74=-58/1,2,3;
 4//1;
 5/5=2,38=5/2;
 6/7=2,8=2,9=2,10=2,28=1/1;
 99/5=1,9=1/99;
 Leave Link    1 at Thu May  2 13:58:19 2024, MaxMem=   134217728 cpu:               2.3 elap:               2.3
 (Enter /software/gaussian/g16-c01/sse4/g16/l101.exe)
 -------
 TitleMe
 -------
 Symbolic Z-matrix:
 Charge =  1 Multiplicity = 1
 C                     0.5193    1.233    -0.0319 
 C                     1.9445    1.2692   -0.0367 
 C                     2.6204    0.0928   -0.025 
 C                    -0.196     0.0301    0.001 
 H                    -0.0207    2.1742   -0.0434 
 H                     2.4828    2.2089   -0.0361 
 H                    -1.2777    0.0399    0.0117 
 N                     4.0921    0.0959    0.0366 
 O                     4.6393   -1.0217    0.1446 
 O                     4.6649    1.1984   -0.0233 
 C                     0.4943   -1.1671    0.021 
 H                    -0.0325   -2.1149    0.0545 
 C                     1.9629   -1.2165   -0.0211 
 H                     2.4436   -1.9631    0.6151 
 Br                    2.173    -1.9491   -1.9062 
 
 ITRead=  0  0  0  0  0  0  0  0  0  0  0  0  0  0  0
 MicOpt= -1 -1 -1 -1 -1 -1 -1 -1 -1 -1 -1 -1 -1 -1 -1
 NAtoms=     15 NQM=       15 NQMF=       0 NMMI=      0 NMMIF=      0
                NMic=       0 NMicF=      0.
                    Isotopes and Nuclear Properties:
 (Nuclear quadrupole moments (NQMom) in fm**2, nuclear magnetic moments (NMagM)
  in nuclear magnetons)

  Atom         1           2           3           4           5           6           7           8           9          10
 IAtWgt=          12          12          12          12           1           1           1          14          16          16
 AtmWgt=  12.0000000  12.0000000  12.0000000  12.0000000   1.0078250   1.0078250   1.0078250  14.0030740  15.9949146  15.9949146
 NucSpn=           0           0           0           0           1           1           1           2           0           0
 AtZEff=  -0.0000000  -0.0000000  -0.0000000  -0.0000000  -0.0000000  -0.0000000  -0.0000000  -0.0000000  -0.0000000  -0.0000000
 NQMom=    0.0000000   0.0000000   0.0000000   0.0000000   0.0000000   0.0000000   0.0000000   2.0440000   0.0000000   0.0000000
 NMagM=    0.0000000   0.0000000   0.0000000   0.0000000   2.7928460   2.7928460   2.7928460   0.4037610   0.0000000   0.0000000
 AtZNuc=   6.0000000   6.0000000   6.0000000   6.0000000   1.0000000   1.0000000   1.0000000   7.0000000   8.0000000   8.0000000

  Atom        11          12          13          14          15
 IAtWgt=          12           1          12           1          79
 AtmWgt=  12.0000000   1.0078250  12.0000000   1.0078250  78.9183361
 NucSpn=           0           1           0           1           3
 AtZEff=  -0.0000000  -0.0000000  -0.0000000  -0.0000000  -0.0000000
 NQMom=    0.0000000   0.0000000   0.0000000   0.0000000  31.3000000
 NMagM=    0.0000000   2.7928460   0.0000000   2.7928460   2.1063990
 AtZNuc=   6.0000000   1.0000000   6.0000000   1.0000000  35.0000000
 Leave Link  101 at Thu May  2 13:58:21 2024, MaxMem=   134217728 cpu:               1.6 elap:               1.6
 (Enter /software/gaussian/g16-c01/sse4/g16/l202.exe)
                          Input orientation:                          
 ---------------------------------------------------------------------
 Center     Atomic      Atomic             Coordinates (Angstroms)
 Number     Number       Type             X           Y           Z
 ---------------------------------------------------------------------
      1          6           0        0.519300    1.233000   -0.031900
      2          6           0        1.944500    1.269200   -0.036700
      3          6           0        2.620400    0.092800   -0.025000
      4          6           0       -0.196000    0.030100    0.001000
      5          1           0       -0.020700    2.174200   -0.043400
      6          1           0        2.482800    2.208900   -0.036100
      7          1           0       -1.277700    0.039900    0.011700
      8          7           0        4.092100    0.095900    0.036600
      9          8           0        4.639300   -1.021700    0.144600
     10          8           0        4.664900    1.198400   -0.023300
     11          6           0        0.494300   -1.167100    0.021000
     12          1           0       -0.032500   -2.114900    0.054500
     13          6           0        1.962900   -1.216500   -0.021100
     14          1           0        2.443600   -1.963100    0.615100
     15         35           0        2.173000   -1.949100   -1.906200
 ---------------------------------------------------------------------
                    Distance matrix (angstroms):
                    1          2          3          4          5
     1  C    0.000000
     2  C    1.425668   0.000000
     3  C    2.390549   1.356796   0.000000
     4  C    1.399895   2.473566   2.817218   0.000000
     5  H    1.085168   2.163581   3.362733   2.151712   0.000000
     6  H    2.192654   1.082960   2.120598   3.453189   2.503751
     7  H    2.157452   3.449071   3.898632   1.081797   2.477564
     8  N    3.750012   2.448304   1.472992   4.288753   4.608780
     9  O    4.699917   3.541615   2.312322   4.950458   5.653735
    10  O    4.145753   2.721354   2.324292   4.999386   4.786171
    11  C    2.400813   2.835836   2.471794   1.382101   3.381369
    12  H    3.394169   3.920329   3.452266   2.151887   4.290233
    13  C    2.843264   2.485817   1.465124   2.493060   3.928360
    14  H    3.786370   3.334922   2.160489   3.364142   4.860416
    15  Br   4.046416   3.728900   2.812194   3.628609   5.028314
                    6          7          8          9         10
     6  H    0.000000
     7  H    4.341452   0.000000
     8  N    2.657047   5.370150   0.000000
     9  O    3.888434   6.012948   1.249048   0.000000
    10  O    2.404752   6.054572   1.243863   2.226587   0.000000
    11  C    3.918516   2.144043   3.813080   4.149391   4.794941
    12  H    5.003018   2.489080   4.679774   4.798846   5.748876
    13  C    3.464662   3.475788   2.501842   2.688591   3.623886
    14  H    4.222698   4.268978   2.700314   2.434893   3.916224
    15  Br   4.569706   4.420610   3.411663   3.338935   4.434144
                   11         12         13         14         15
    11  C    0.000000
    12  H    1.084880   0.000000
    13  C    1.470034   2.189625   0.000000
    14  H    2.187771   2.543302   1.092353   0.000000
    15  Br   2.672762   2.955683   2.033334   2.535818   0.000000
 Symmetry turned off by external request.
 Stoichiometry    C6H5BrNO2(1+)
 Framework group  C1[X(C6H5BrNO2)]
 Deg. of freedom    39
 Full point group                 C1      NOp   1
 Rotational constants (GHZ):           1.1632986           0.9594224           0.5957624
 Leave Link  202 at Thu May  2 13:58:23 2024, MaxMem=   134217728 cpu:               1.3 elap:               1.5
 (Enter /software/gaussian/g16-c01/sse4/g16/l301.exe)
 Standard basis: 6-311+G(d) (5D, 7F)
 Ernie: Thresh=  0.10000D-02 Tol=  0.10000D-05 Strict=F.
 The following finite field(s) will be applied:
 An electric field of              0.0000  0.0000 -0.0243
   261 basis functions,   443 primitive gaussians,   273 cartesian basis functions
    49 alpha electrons       49 beta electrons
       nuclear repulsion energy       772.8945969580 Hartrees.
 IExCor= 4639 DFT=T Ex+Corr=wB97XD ExCW=0 ScaHFX=  1.000000
 ScaDFX=  1.000000  1.000000  1.000000  1.000000 ScalE2=  1.000000  1.000000
 IRadAn=      5 IRanWt=     -1 IRanGd=            0 ICorTp=0 IEmpDi=121
 HFx  wShort=  0.000000 wLong=  0.200000 cFull=  0.222036 cShort=  0.000000 cLong=  0.777964
 DFx  wShort=  0.000000 wLong=  0.200000 cFull=  0.000000 cShort=  0.000000 cLong=  1.000000
 NAtoms=   15 NActive=   15 NUniq=   15 SFac= 1.00D+00 NAtFMM=   60 NAOKFM=F Big=F
 Integral buffers will be    131072 words long.
 Raffenetti 2 integral format.
 Two-electron integral symmetry is turned off.
 R6Disp:  Grimme-D2 Dispersion energy=       -0.0080346408 Hartrees.
 Nuclear repulsion after empirical dispersion term =      772.8865623173 Hartrees.
 Leave Link  301 at Thu May  2 13:58:24 2024, MaxMem=   134217728 cpu:               1.1 elap:               1.1
 (Enter /software/gaussian/g16-c01/sse4/g16/l302.exe)
 NPDir=0 NMtPBC=     1 NCelOv=     1 NCel=       1 NClECP=     1 NCelD=      1
         NCelK=      1 NCelE2=     1 NClLst=     1 CellRange=     0.0.
 One-electron integrals computed using PRISM.
 NBasis=   261 RedAO= T EigKep=  2.52D-06  NBF=   261
 NBsUse=   261 1.00D-06 EigRej= -1.00D+00 NBFU=   261
 Precomputing XC quadrature grid using
 IXCGrd= 4 IRadAn=           5 IRanWt=          -1 IRanGd=           0 AccXCQ= 0.00D+00.
 Generated NRdTot=       0 NPtTot=           0 NUsed=           0 NTot=          32
 NSgBfM=   273   273   273   273   273 MxSgAt=    15 MxSgA2=    15.
 Leave Link  302 at Thu May  2 13:58:46 2024, MaxMem=   134217728 cpu:              21.6 elap:              21.6
 (Enter /software/gaussian/g16-c01/sse4/g16/l303.exe)
 DipDrv:  MaxL=1.
 The nuclear repulsion energy is now       775.8918101004 hartrees.
 Leave Link  303 at Thu May  2 13:58:49 2024, MaxMem=   134217728 cpu:               3.3 elap:               3.3
 (Enter /software/gaussian/g16-c01/sse4/g16/l401.exe)
 ExpMin= 3.50D-02 ExpMax= 4.40D+05 ExpMxC= 1.51D+04 IAcc=3 IRadAn=         5 AccDes= 0.00D+00
 Harris functional with IExCor= 4639 and IRadAn=       5 diagonalized for initial guess.
 HarFok:  IExCor= 4639 AccDes= 0.00D+00 IRadAn=         5 IDoV= 1 UseB2=F ITyADJ=14
 ICtDFT=  3500011 ScaDFX=  1.000000  1.000000  1.000000  1.000000
 FoFCou: FMM=F IPFlag=           0 FMFlag=      100000 FMFlg1=           0
         NFxFlg=           0 DoJE=T BraDBF=F KetDBF=T FulRan=T
         wScrn=  0.000000 ICntrl=       500 IOpCl=  0 I1Cent=   200000004 NGrid=           0
         NMat0=    1 NMatS0=      1 NMatT0=    0 NMatD0=    1 NMtDS0=    0 NMtDT0=    0
 Symmetry not used in FoFCou.
 Harris En= -2970.72994265822    
 JPrj=0 DoOrth=F DoCkMO=F.
 Leave Link  401 at Thu May  2 13:59:20 2024, MaxMem=   134217728 cpu:              31.3 elap:              31.3
 (Enter /software/gaussian/g16-c01/sse4/g16/l502.exe)
 Two-electron integral symmetry not used.
 Closed shell SCF:
 Using DIIS extrapolation, IDIIS=  1040.
 NGot=   134217728 LenX=   134063053 LenY=   133988083
 Requested convergence on RMS density matrix=1.00D-08 within 128 cycles.
 Requested convergence on MAX density matrix=1.00D-06.
 Requested convergence on             energy=1.00D-06.
 No special actions if energy rises.
 Fock matrices will be formed incrementally for  20 cycles.

 Cycle   1  Pass 1  IDiag  1:
 FoFJK:  IHMeth= 1 ICntrl=       0 DoSepK=T KAlg= 0 I1Cent=           0 FoldK=F
 IRaf=         1 NMat=       1 IRICut=       1 DoRegI=T DoRafI=F ISym2E= 0 IDoP0=0 IntGTp=1.
 FoFCou: FMM=F IPFlag=           0 FMFlag=      100000 FMFlg1=           0
         NFxFlg=           0 DoJE=T BraDBF=F KetDBF=F FulRan=T
         wScrn=  0.000000 ICntrl=       500 IOpCl=  0 I1Cent=           0 NGrid=           0
         NMat0=    1 NMatS0=      1 NMatT0=    0 NMatD0=    1 NMtDS0=    0 NMtDT0=    0
 Symmetry not used in FoFCou.
 E= -3008.16985800098    
 DIIS: error= 2.92D-01 at cycle   1 NSaved=   1.
 NSaved= 1 IEnMin= 1 EnMin= -3008.16985800098     IErMin= 1 ErrMin= 2.92D-01
 ErrMax= 2.92D-01  0.00D+00 EMaxC= 1.00D-01 BMatC= 1.25D+01 BMatP= 1.25D+01
 IDIUse=3 WtCom= 0.00D+00 WtEn= 1.00D+00
 Coeff-Com:  0.100D+01
 Coeff-En:   0.100D+01
 Coeff:      0.100D+01
 Gap=     0.117 Goal=   None    Shift=    0.000
 GapD=    0.117 DampG=1.000 DampE=0.250 DampFc=0.2500 IDamp=-1.
 Damping current iteration by 2.50D-01
 RMSDP=2.95D+00 MaxDP=3.10D+02              OVMax= 8.80D-01

 Cycle   2  Pass 1  IDiag  1:
 RMSU=  2.72D-02    CP:  7.54D-01
 E= -3008.75169466858     Delta-E=       -0.581836667602 Rises=F Damp=T
 DIIS: error= 2.20D-01 at cycle   2 NSaved=   2.
 NSaved= 2 IEnMin= 2 EnMin= -3008.75169466858     IErMin= 2 ErrMin= 2.20D-01
 ErrMax= 2.20D-01  0.00D+00 EMaxC= 1.00D-01 BMatC= 5.64D+00 BMatP= 1.25D+01
 IDIUse=3 WtCom= 0.00D+00 WtEn= 1.00D+00
 Coeff-Com: -0.134D+01 0.234D+01
 Coeff-En:   0.169D+00 0.831D+00
 Coeff:      0.169D+00 0.831D+00
 Gap=     0.639 Goal=   None    Shift=    0.000
 RMSDP=2.21D+00 MaxDP=2.33D+02 DE=-5.82D-01 OVMax= 7.88D-01

 Cycle   3  Pass 1  IDiag  1:
 RMSU=  2.25D-02    CP:  1.68D-02  2.69D+00
 E= -3010.07697195559     Delta-E=       -1.325277287016 Rises=F Damp=F
 DIIS: error= 8.36D-02 at cycle   3 NSaved=   3.
 NSaved= 3 IEnMin= 3 EnMin= -3010.07697195559     IErMin= 3 ErrMin= 8.36D-02
 ErrMax= 8.36D-02  0.00D+00 EMaxC= 1.00D-01 BMatC= 1.45D+00 BMatP= 5.64D+00
 IDIUse=3 WtCom= 1.64D-01 WtEn= 8.36D-01
 Coeff-Com:  0.123D+00 0.130D+00 0.748D+00
 Coeff-En:   0.788D-01 0.000D+00 0.921D+00
 Coeff:      0.860D-01 0.212D-01 0.893D+00
 Gap=     0.249 Goal=   None    Shift=    0.000
 RMSDP=3.47D-02 MaxDP=2.69D+00 DE=-1.33D+00 OVMax= 2.91D-01

 Cycle   4  Pass 1  IDiag  1:
 RMSU=  3.00D-02    CP:  1.70D-02  2.07D+00  7.89D-01
 E= -3010.17547496402     Delta-E=       -0.098503008421 Rises=F Damp=F
 DIIS: error= 6.15D-02 at cycle   4 NSaved=   4.
 NSaved= 4 IEnMin= 4 EnMin= -3010.17547496402     IErMin= 4 ErrMin= 6.15D-02
 ErrMax= 6.15D-02  0.00D+00 EMaxC= 1.00D-01 BMatC= 9.29D-01 BMatP= 1.45D+00
 IDIUse=3 WtCom= 3.85D-01 WtEn= 6.15D-01
 Coeff-Com:  0.740D-01-0.560D-01 0.476D+00 0.506D+00
 Coeff-En:   0.000D+00 0.000D+00 0.440D+00 0.560D+00
 Coeff:      0.285D-01-0.216D-01 0.454D+00 0.539D+00
 Gap=     0.294 Goal=   None    Shift=    0.000
 RMSDP=1.89D-02 MaxDP=1.94D+00 DE=-9.85D-02 OVMax= 1.96D-01

 Cycle   5  Pass 1  IDiag  1:
 RMSU=  8.82D-03    CP:  1.42D-02  1.92D+00  8.25D-01  5.34D-01
 E= -3010.47866435570     Delta-E=       -0.303189391684 Rises=F Damp=F
 DIIS: error= 3.54D-02 at cycle   5 NSaved=   5.
 NSaved= 5 IEnMin= 5 EnMin= -3010.47866435570     IErMin= 5 ErrMin= 3.54D-02
 ErrMax= 3.54D-02  0.00D+00 EMaxC= 1.00D-01 BMatC= 9.31D-02 BMatP= 9.29D-01
 IDIUse=3 WtCom= 6.46D-01 WtEn= 3.54D-01
 Coeff-Com:  0.396D-01-0.432D-01 0.276D+00 0.343D+00 0.384D+00
 Coeff-En:   0.000D+00 0.000D+00 0.000D+00 0.122D+00 0.878D+00
 Coeff:      0.256D-01-0.279D-01 0.179D+00 0.265D+00 0.559D+00
 Gap=     0.284 Goal=   None    Shift=    0.000
 RMSDP=7.14D-03 MaxDP=5.85D-01 DE=-3.03D-01 OVMax= 1.72D-01

 Cycle   6  Pass 1  IDiag  1:
 RMSU=  4.37D-03    CP:  1.46D-02  1.75D+00  8.05D-01  6.02D-01  7.52D-01
 E= -3010.52271917752     Delta-E=       -0.044054821818 Rises=F Damp=F
 DIIS: error= 2.27D-02 at cycle   6 NSaved=   6.
 NSaved= 6 IEnMin= 6 EnMin= -3010.52271917752     IErMin= 6 ErrMin= 2.27D-02
 ErrMax= 2.27D-02  0.00D+00 EMaxC= 1.00D-01 BMatC= 3.36D-02 BMatP= 9.31D-02
 IDIUse=3 WtCom= 7.73D-01 WtEn= 2.27D-01
 Coeff-Com:  0.300D-02-0.431D-02 0.364D-01 0.635D-01 0.374D+00 0.527D+00
 Coeff-En:   0.000D+00 0.000D+00 0.000D+00 0.000D+00 0.298D+00 0.702D+00
 Coeff:      0.232D-02-0.333D-02 0.281D-01 0.491D-01 0.357D+00 0.567D+00
 Gap=     0.244 Goal=   None    Shift=    0.000
 RMSDP=3.20D-03 MaxDP=3.35D-01 DE=-4.41D-02 OVMax= 7.82D-02

 Cycle   7  Pass 1  IDiag  1:
 RMSU=  1.49D-03    CP:  1.51D-02  1.78D+00  8.34D-01  5.72D-01  9.04D-01
                    CP:  7.14D-01
 E= -3010.54464501364     Delta-E=       -0.021925836121 Rises=F Damp=F
 DIIS: error= 3.64D-03 at cycle   7 NSaved=   7.
 NSaved= 7 IEnMin= 7 EnMin= -3010.54464501364     IErMin= 7 ErrMin= 3.64D-03
 ErrMax= 3.64D-03  0.00D+00 EMaxC= 1.00D-01 BMatC= 1.25D-03 BMatP= 3.36D-02
 IDIUse=3 WtCom= 9.64D-01 WtEn= 3.64D-02
 Coeff-Com: -0.887D-04-0.134D-03-0.104D-01-0.721D-02 0.138D+00 0.311D+00
 Coeff-Com:  0.568D+00
 Coeff-En:   0.000D+00 0.000D+00 0.000D+00 0.000D+00 0.000D+00 0.000D+00
 Coeff-En:   0.100D+01
 Coeff:     -0.854D-04-0.129D-03-0.101D-01-0.694D-02 0.133D+00 0.300D+00
 Coeff:      0.584D+00
 Gap=     0.243 Goal=   None    Shift=    0.000
 RMSDP=9.76D-04 MaxDP=1.12D-01 DE=-2.19D-02 OVMax= 1.12D-02

 Cycle   8  Pass 1  IDiag  1:
 RMSU=  4.85D-04    CP:  1.50D-02  1.77D+00  8.26D-01  5.70D-01  9.30D-01
                    CP:  8.33D-01  8.96D-01
 E= -3010.54551419005     Delta-E=       -0.000869176410 Rises=F Damp=F
 DIIS: error= 6.50D-04 at cycle   8 NSaved=   8.
 NSaved= 8 IEnMin= 8 EnMin= -3010.54551419005     IErMin= 8 ErrMin= 6.50D-04
 ErrMax= 6.50D-04  0.00D+00 EMaxC= 1.00D-01 BMatC= 7.71D-05 BMatP= 1.25D-03
 IDIUse=3 WtCom= 9.94D-01 WtEn= 6.50D-03
 Coeff-Com: -0.129D-02 0.143D-02-0.766D-02-0.806D-02 0.137D-01 0.578D-01
 Coeff-Com:  0.264D+00 0.680D+00
 Coeff-En:   0.000D+00 0.000D+00 0.000D+00 0.000D+00 0.000D+00 0.000D+00
 Coeff-En:   0.000D+00 0.100D+01
 Coeff:     -0.129D-02 0.142D-02-0.761D-02-0.801D-02 0.136D-01 0.574D-01
 Coeff:      0.262D+00 0.682D+00
 Gap=     0.241 Goal=   None    Shift=    0.000
 RMSDP=3.39D-04 MaxDP=3.37D-02 DE=-8.69D-04 OVMax= 2.29D-03

 Cycle   9  Pass 1  IDiag  1:
 RMSU=  9.20D-05    CP:  1.51D-02  1.77D+00  8.27D-01  5.71D-01  9.40D-01
                    CP:  8.38D-01  9.73D-01  1.08D+00
 E= -3010.54557318418     Delta-E=       -0.000058994131 Rises=F Damp=F
 DIIS: error= 1.53D-04 at cycle   9 NSaved=   9.
 NSaved= 9 IEnMin= 9 EnMin= -3010.54557318418     IErMin= 9 ErrMin= 1.53D-04
 ErrMax= 1.53D-04  0.00D+00 EMaxC= 1.00D-01 BMatC= 5.01D-06 BMatP= 7.71D-05
 IDIUse=3 WtCom= 9.98D-01 WtEn= 1.53D-03
 Coeff-Com: -0.779D-03 0.100D-02-0.154D-02-0.173D-02-0.698D-02-0.797D-02
 Coeff-Com:  0.419D-01 0.257D+00 0.719D+00
 Coeff-En:   0.000D+00 0.000D+00 0.000D+00 0.000D+00 0.000D+00 0.000D+00
 Coeff-En:   0.000D+00 0.000D+00 0.100D+01
 Coeff:     -0.778D-03 0.999D-03-0.153D-02-0.173D-02-0.697D-02-0.795D-02
 Coeff:      0.418D-01 0.256D+00 0.720D+00
 Gap=     0.241 Goal=   None    Shift=    0.000
 RMSDP=9.38D-05 MaxDP=1.06D-02 DE=-5.90D-05 OVMax= 1.10D-03

 Cycle  10  Pass 1  IDiag  1:
 RMSU=  6.75D-05    CP:  1.51D-02  1.77D+00  8.27D-01  5.71D-01  9.37D-01
                    CP:  8.38D-01  9.67D-01  1.06D+00  8.61D-01
 E= -3010.54558015016     Delta-E=       -0.000006965980 Rises=F Damp=F
 DIIS: error= 8.46D-05 at cycle  10 NSaved=  10.
 NSaved=10 IEnMin=10 EnMin= -3010.54558015016     IErMin=10 ErrMin= 8.46D-05
 ErrMax= 8.46D-05  0.00D+00 EMaxC= 1.00D-01 BMatC= 1.08D-06 BMatP= 5.01D-06
 IDIUse=1 WtCom= 1.00D+00 WtEn= 0.00D+00
 Coeff-Com: -0.585D-03 0.828D-03 0.331D-03 0.344D-03-0.499D-02-0.115D-01
 Coeff-Com: -0.287D-01-0.204D-01 0.278D+00 0.787D+00
 Coeff:     -0.585D-03 0.828D-03 0.331D-03 0.344D-03-0.499D-02-0.115D-01
 Coeff:     -0.287D-01-0.204D-01 0.278D+00 0.787D+00
 Gap=     0.242 Goal=   None    Shift=    0.000
 RMSDP=4.84D-05 MaxDP=3.98D-03 DE=-6.97D-06 OVMax= 7.95D-04

 Cycle  11  Pass 1  IDiag  1:
 RMSU=  1.78D-05    CP:  1.51D-02  1.77D+00  8.27D-01  5.70D-01  9.35D-01
                    CP:  8.38D-01  9.65D-01  1.01D+00  8.88D-01  1.36D+00
 E= -3010.54558209686     Delta-E=       -0.000001946699 Rises=F Damp=F
 DIIS: error= 2.24D-05 at cycle  11 NSaved=  11.
 NSaved=11 IEnMin=11 EnMin= -3010.54558209686     IErMin=11 ErrMin= 2.24D-05
 ErrMax= 2.24D-05  0.00D+00 EMaxC= 1.00D-01 BMatC= 2.01D-07 BMatP= 1.08D-06
 IDIUse=1 WtCom= 1.00D+00 WtEn= 0.00D+00
 Coeff-Com: -0.357D-03 0.496D-03 0.198D-03 0.400D-03-0.330D-03-0.181D-02
 Coeff-Com: -0.168D-01-0.445D-01-0.217D-01 0.236D+00 0.848D+00
 Coeff:     -0.357D-03 0.496D-03 0.198D-03 0.400D-03-0.330D-03-0.181D-02
 Coeff:     -0.168D-01-0.445D-01-0.217D-01 0.236D+00 0.848D+00
 Gap=     0.242 Goal=   None    Shift=    0.000
 RMSDP=3.46D-05 MaxDP=3.29D-03 DE=-1.95D-06 OVMax= 5.25D-04

 Cycle  12  Pass 1  IDiag  1:
 RMSU=  8.24D-06    CP:  1.51D-02  1.77D+00  8.26D-01  5.70D-01  9.33D-01
                    CP:  8.38D-01  9.56D-01  9.96D-01  9.13D-01  1.54D+00
                    CP:  1.33D+00
 E= -3010.54558255548     Delta-E=       -0.000000458616 Rises=F Damp=F
 DIIS: error= 1.03D-05 at cycle  12 NSaved=  12.
 NSaved=12 IEnMin=12 EnMin= -3010.54558255548     IErMin=12 ErrMin= 1.03D-05
 ErrMax= 1.03D-05  0.00D+00 EMaxC= 1.00D-01 BMatC= 5.27D-08 BMatP= 2.01D-07
 IDIUse=1 WtCom= 1.00D+00 WtEn= 0.00D+00
 Coeff-Com: -0.158D-03 0.207D-03-0.638D-04 0.125D-03 0.888D-03 0.157D-02
 Coeff-Com: -0.133D-03-0.824D-02-0.637D-01-0.959D-01 0.279D+00 0.887D+00
 Coeff:     -0.158D-03 0.207D-03-0.638D-04 0.125D-03 0.888D-03 0.157D-02
 Coeff:     -0.133D-03-0.824D-02-0.637D-01-0.959D-01 0.279D+00 0.887D+00
 Gap=     0.242 Goal=   None    Shift=    0.000
 RMSDP=2.17D-05 MaxDP=2.33D-03 DE=-4.59D-07 OVMax= 3.64D-04

 Cycle  13  Pass 1  IDiag  1:
 RMSU=  3.17D-06    CP:  1.51D-02  1.77D+00  8.26D-01  5.70D-01  9.32D-01
                    CP:  8.38D-01  9.52D-01  9.83D-01  8.90D-01  1.65D+00
                    CP:  1.64D+00  1.39D+00
 E= -3010.54558270445     Delta-E=       -0.000000148977 Rises=F Damp=F
 DIIS: error= 8.22D-06 at cycle  13 NSaved=  13.
 NSaved=13 IEnMin=13 EnMin= -3010.54558270445     IErMin=13 ErrMin= 8.22D-06
 ErrMax= 8.22D-06  0.00D+00 EMaxC= 1.00D-01 BMatC= 9.78D-09 BMatP= 5.27D-08
 IDIUse=1 WtCom= 1.00D+00 WtEn= 0.00D+00
 Coeff-Com: -0.274D-04 0.347D-04-0.407D-04-0.223D-04 0.210D-03 0.500D-03
 Coeff-Com:  0.399D-02 0.984D-02 0.574D-03-0.579D-01-0.166D+00 0.145D+00
 Coeff-Com:  0.106D+01
 Coeff:     -0.274D-04 0.347D-04-0.407D-04-0.223D-04 0.210D-03 0.500D-03
 Coeff:      0.399D-02 0.984D-02 0.574D-03-0.579D-01-0.166D+00 0.145D+00
 Coeff:      0.106D+01
 Gap=     0.242 Goal=   None    Shift=    0.000
 RMSDP=1.08D-05 MaxDP=1.10D-03 DE=-1.49D-07 OVMax= 2.25D-04

 Cycle  14  Pass 1  IDiag  1:
 RMSU=  1.72D-06    CP:  1.51D-02  1.77D+00  8.26D-01  5.70D-01  9.32D-01
                    CP:  8.37D-01  9.51D-01  9.78D-01  8.84D-01  1.69D+00
                    CP:  1.78D+00  1.81D+00  1.61D+00
 E= -3010.54558274477     Delta-E=       -0.000000040322 Rises=F Damp=F
 DIIS: error= 2.99D-06 at cycle  14 NSaved=  14.
 NSaved=14 IEnMin=14 EnMin= -3010.54558274477     IErMin=14 ErrMin= 2.99D-06
 ErrMax= 2.99D-06  0.00D+00 EMaxC= 1.00D-01 BMatC= 1.41D-09 BMatP= 9.78D-09
 IDIUse=1 WtCom= 1.00D+00 WtEn= 0.00D+00
 Coeff-Com:  0.109D-04-0.137D-04-0.205D-07-0.311D-04-0.128D-03-0.192D-03
 Coeff-Com:  0.146D-02 0.506D-02 0.140D-01 0.960D-03-0.118D+00-0.125D+00
 Coeff-Com:  0.370D+00 0.852D+00
 Coeff:      0.109D-04-0.137D-04-0.205D-07-0.311D-04-0.128D-03-0.192D-03
 Coeff:      0.146D-02 0.506D-02 0.140D-01 0.960D-03-0.118D+00-0.125D+00
 Coeff:      0.370D+00 0.852D+00
 Gap=     0.242 Goal=   None    Shift=    0.000
 RMSDP=2.92D-06 MaxDP=2.51D-04 DE=-4.03D-08 OVMax= 1.01D-04

 Cycle  15  Pass 1  IDiag  1:
 RMSU=  8.02D-07    CP:  1.51D-02  1.77D+00  8.26D-01  5.70D-01  9.32D-01
                    CP:  8.37D-01  9.50D-01  9.77D-01  8.81D-01  1.70D+00
                    CP:  1.84D+00  1.95D+00  1.91D+00  1.44D+00
 E= -3010.54558275249     Delta-E=       -0.000000007718 Rises=F Damp=F
 DIIS: error= 1.83D-06 at cycle  15 NSaved=  15.
 NSaved=15 IEnMin=15 EnMin= -3010.54558275249     IErMin=15 ErrMin= 1.83D-06
 ErrMax= 1.83D-06  0.00D+00 EMaxC= 1.00D-01 BMatC= 2.19D-10 BMatP= 1.41D-09
 IDIUse=1 WtCom= 1.00D+00 WtEn= 0.00D+00
 Coeff-Com:  0.124D-04-0.168D-04 0.492D-05-0.147D-05-0.479D-04-0.727D-04
 Coeff-Com: -0.562D-03-0.154D-02-0.328D-04 0.929D-02 0.231D-01-0.297D-01
 Coeff-Com: -0.156D+00 0.425D-01 0.111D+01
 Coeff:      0.124D-04-0.168D-04 0.492D-05-0.147D-05-0.479D-04-0.727D-04
 Coeff:     -0.562D-03-0.154D-02-0.328D-04 0.929D-02 0.231D-01-0.297D-01
 Coeff:     -0.156D+00 0.425D-01 0.111D+01
 Gap=     0.242 Goal=   None    Shift=    0.000
 RMSDP=2.04D-06 MaxDP=1.71D-04 DE=-7.72D-09 OVMax= 5.08D-05

 Cycle  16  Pass 1  IDiag  1:
 RMSU=  3.04D-07    CP:  1.51D-02  1.77D+00  8.26D-01  5.70D-01  9.32D-01
                    CP:  8.38D-01  9.51D-01  9.77D-01  8.82D-01  1.70D+00
                    CP:  1.85D+00  2.01D+00  2.05D+00  1.88D+00  1.41D+00
 E= -3010.54558275412     Delta-E=       -0.000000001628 Rises=F Damp=F
 DIIS: error= 7.66D-07 at cycle  16 NSaved=  16.
 NSaved=16 IEnMin=16 EnMin= -3010.54558275412     IErMin=16 ErrMin= 7.66D-07
 ErrMax= 7.66D-07  0.00D+00 EMaxC= 1.00D-01 BMatC= 6.54D-11 BMatP= 2.19D-10
 IDIUse=1 WtCom= 1.00D+00 WtEn= 0.00D+00
 Coeff-Com:  0.629D-05-0.878D-05-0.120D-06 0.181D-05 0.214D-04 0.488D-04
 Coeff-Com: -0.291D-03-0.113D-02-0.308D-02-0.391D-03 0.261D-01 0.232D-01
 Coeff-Com: -0.802D-01-0.179D+00 0.676D-01 0.115D+01
 Coeff:      0.629D-05-0.878D-05-0.120D-06 0.181D-05 0.214D-04 0.488D-04
 Coeff:     -0.291D-03-0.113D-02-0.308D-02-0.391D-03 0.261D-01 0.232D-01
 Coeff:     -0.802D-01-0.179D+00 0.676D-01 0.115D+01
 Gap=     0.242 Goal=   None    Shift=    0.000
 RMSDP=1.03D-06 MaxDP=7.92D-05 DE=-1.63D-09 OVMax= 2.58D-05

 Cycle  17  Pass 1  IDiag  1:
 RMSU=  1.58D-07    CP:  1.51D-02  1.77D+00  8.26D-01  5.70D-01  9.32D-01
                    CP:  8.38D-01  9.51D-01  9.78D-01  8.83D-01  1.70D+00
                    CP:  1.86D+00  2.03D+00  2.11D+00  2.07D+00  1.74D+00
                    CP:  1.38D+00
 E= -3010.54558275448     Delta-E=       -0.000000000365 Rises=F Damp=F
 DIIS: error= 2.01D-07 at cycle  17 NSaved=  17.
 NSaved=17 IEnMin=17 EnMin= -3010.54558275448     IErMin=17 ErrMin= 2.01D-07
 ErrMax= 2.01D-07  0.00D+00 EMaxC= 1.00D-01 BMatC= 1.43D-11 BMatP= 6.54D-11
 IDIUse=1 WtCom= 1.00D+00 WtEn= 0.00D+00
 Coeff-Com:  0.210D-05-0.292D-05-0.673D-06-0.350D-06 0.182D-04 0.342D-04
 Coeff-Com:  0.391D-04-0.269D-04-0.972D-03-0.236D-02 0.338D-02 0.133D-01
 Coeff-Com:  0.986D-02-0.646D-01-0.196D+00 0.345D+00 0.892D+00
 Coeff:      0.210D-05-0.292D-05-0.673D-06-0.350D-06 0.182D-04 0.342D-04
 Coeff:      0.391D-04-0.269D-04-0.972D-03-0.236D-02 0.338D-02 0.133D-01
 Coeff:      0.986D-02-0.646D-01-0.196D+00 0.345D+00 0.892D+00
 Gap=     0.242 Goal=   None    Shift=    0.000
 RMSDP=2.36D-07 MaxDP=2.12D-05 DE=-3.65D-10 OVMax= 8.15D-06

 Cycle  18  Pass 1  IDiag  1:
 RMSU=  4.56D-08    CP:  1.51D-02  1.77D+00  8.26D-01  5.70D-01  9.32D-01
                    CP:  8.38D-01  9.51D-01  9.78D-01  8.83D-01  1.70D+00
                    CP:  1.86D+00  2.04D+00  2.13D+00  2.11D+00  1.85D+00
                    CP:  1.52D+00  1.36D+00
 E= -3010.54558275446     Delta-E=        0.000000000026 Rises=F Damp=F
 DIIS: error= 7.58D-08 at cycle  18 NSaved=  18.
 NSaved=18 IEnMin=17 EnMin= -3010.54558275448     IErMin=18 ErrMin= 7.58D-08
 ErrMax= 7.58D-08  0.00D+00 EMaxC= 1.00D-01 BMatC= 1.77D-12 BMatP= 1.43D-11
 IDIUse=1 WtCom= 1.00D+00 WtEn= 0.00D+00
 Coeff-Com:  0.259D-06-0.324D-06 0.362D-06-0.273D-06 0.365D-05 0.378D-05
 Coeff-Com:  0.577D-04 0.165D-03 0.201D-03-0.661D-03-0.337D-02-0.164D-03
 Coeff-Com:  0.165D-01 0.141D-01-0.563D-01-0.113D+00 0.184D+00 0.959D+00
 Coeff:      0.259D-06-0.324D-06 0.362D-06-0.273D-06 0.365D-05 0.378D-05
 Coeff:      0.577D-04 0.165D-03 0.201D-03-0.661D-03-0.337D-02-0.164D-03
 Coeff:      0.165D-01 0.141D-01-0.563D-01-0.113D+00 0.184D+00 0.959D+00
 Gap=     0.242 Goal=   None    Shift=    0.000
 RMSDP=6.82D-08 MaxDP=3.66D-06 DE= 2.64D-11 OVMax= 2.42D-06

 Cycle  19  Pass 1  IDiag  1:
 RMSU=  2.06D-08    CP:  1.51D-02  1.77D+00  8.26D-01  5.70D-01  9.32D-01
                    CP:  8.38D-01  9.51D-01  9.78D-01  8.83D-01  1.70D+00
                    CP:  1.86D+00  2.04D+00  2.13D+00  2.12D+00  1.88D+00
                    CP:  1.56D+00  1.53D+00  1.31D+00
 E= -3010.54558275451     Delta-E=       -0.000000000048 Rises=F Damp=F
 DIIS: error= 2.01D-08 at cycle  19 NSaved=  19.
 NSaved=19 IEnMin=19 EnMin= -3010.54558275451     IErMin=19 ErrMin= 2.01D-08
 ErrMax= 2.01D-08  0.00D+00 EMaxC= 1.00D-01 BMatC= 2.24D-13 BMatP= 1.77D-12
 IDIUse=1 WtCom= 1.00D+00 WtEn= 0.00D+00
 Coeff-Com:  0.402D-07-0.352D-07 0.214D-06-0.712D-07-0.596D-06-0.227D-05
 Coeff-Com:  0.104D-04 0.464D-04 0.154D-03 0.193D-04-0.137D-02-0.164D-02
 Coeff-Com:  0.241D-02 0.113D-01 0.144D-01-0.691D-01-0.699D-01 0.293D+00
 Coeff-Com:  0.821D+00
 Coeff:      0.402D-07-0.352D-07 0.214D-06-0.712D-07-0.596D-06-0.227D-05
 Coeff:      0.104D-04 0.464D-04 0.154D-03 0.193D-04-0.137D-02-0.164D-02
 Coeff:      0.241D-02 0.113D-01 0.144D-01-0.691D-01-0.699D-01 0.293D+00
 Coeff:      0.821D+00
 Gap=     0.242 Goal=   None    Shift=    0.000
 RMSDP=4.05D-08 MaxDP=3.26D-06 DE=-4.82D-11 OVMax= 5.88D-07

 Cycle  20  Pass 1  IDiag  1:
 RMSU=  7.60D-09    CP:  1.51D-02  1.77D+00  8.26D-01  5.70D-01  9.32D-01
                    CP:  8.38D-01  9.51D-01  9.78D-01  8.83D-01  1.70D+00
                    CP:  1.86D+00  2.04D+00  2.13D+00  2.11D+00  1.88D+00
                    CP:  1.56D+00  1.55D+00  1.43D+00  1.24D+00
 E= -3010.54558275448     Delta-E=        0.000000000029 Rises=F Damp=F
 DIIS: error= 9.28D-09 at cycle  20 NSaved=  20.
 NSaved=20 IEnMin=19 EnMin= -3010.54558275451     IErMin=20 ErrMin= 9.28D-09
 ErrMax= 9.28D-09  0.00D+00 EMaxC= 1.00D-01 BMatC= 2.80D-14 BMatP= 2.24D-13
 IDIUse=1 WtCom= 1.00D+00 WtEn= 0.00D+00
 Coeff-Com: -0.647D-07 0.860D-07-0.377D-08 0.723D-07-0.471D-06-0.967D-06
 Coeff-Com: -0.840D-05-0.196D-04-0.886D-06 0.122D-03 0.341D-03-0.208D-03
 Coeff-Com: -0.260D-02-0.305D-03 0.131D-01 0.361D-02-0.502D-01-0.766D-01
 Coeff-Com:  0.172D+00 0.941D+00
 Coeff:     -0.647D-07 0.860D-07-0.377D-08 0.723D-07-0.471D-06-0.967D-06
 Coeff:     -0.840D-05-0.196D-04-0.886D-06 0.122D-03 0.341D-03-0.208D-03
 Coeff:     -0.260D-02-0.305D-03 0.131D-01 0.361D-02-0.502D-01-0.766D-01
 Coeff:      0.172D+00 0.941D+00
 Gap=     0.242 Goal=   None    Shift=    0.000
 RMSDP=1.38D-08 MaxDP=1.24D-06 DE= 2.91D-11 OVMax= 2.18D-07

 Cycle  21  Pass 1  IDiag  1:
 Restarting incremental Fock formation.
 E= -3010.54558275448     Delta-E=        0.000000000002 Rises=F Damp=F
 DIIS: error= 4.84D-09 at cycle  21 NSaved=  20.
 NSaved=20 IEnMin=18 EnMin= -3010.54558275451     IErMin=20 ErrMin= 4.84D-09
 ErrMax= 4.84D-09  0.00D+00 EMaxC= 1.00D-01 BMatC= 9.46D-15 BMatP= 2.80D-14
 IDIUse=1 WtCom= 1.00D+00 WtEn= 0.00D+00
 Large coefficients: NSaved= 20 BigCof=    0.00 CofMax=   10.00 Det=-1.83D-14
 Inversion failed.  Reducing to 19 matrices.
 Coeff-Com: -0.671D-08 0.419D-07 0.160D-07 0.487D-07-0.317D-05-0.127D-04
 Coeff-Com: -0.261D-04 0.197D-04 0.262D-03 0.180D-03-0.106D-02-0.186D-02
 Coeff-Com:  0.103D-02 0.127D-01 0.161D-02-0.511D-01-0.114D+00 0.206D+00
 Coeff-Com:  0.946D+00
 Coeff:     -0.671D-08 0.419D-07 0.160D-07 0.487D-07-0.317D-05-0.127D-04
 Coeff:     -0.261D-04 0.197D-04 0.262D-03 0.180D-03-0.106D-02-0.186D-02
 Coeff:      0.103D-02 0.127D-01 0.161D-02-0.511D-01-0.114D+00 0.206D+00
 Coeff:      0.946D+00
 Gap=     0.242 Goal=   None    Shift=    0.000
 RMSDP=1.04D-08 MaxDP=9.72D-07 DE= 1.82D-12 OVMax= 8.48D-08

 Cycle  22  Pass 1  IDiag  1:
 RMSU=  8.88D-09    CP:  1.00D+00
 E= -3010.54558275448     Delta-E=       -0.000000000003 Rises=F Damp=F
 DIIS: error= 3.21D-09 at cycle  22 NSaved=  20.
 NSaved=20 IEnMin=17 EnMin= -3010.54558275451     IErMin=20 ErrMin= 3.21D-09
 ErrMax= 3.21D-09  0.00D+00 EMaxC= 1.00D-01 BMatC= 1.41D-15 BMatP= 9.46D-15
 IDIUse=1 WtCom= 1.00D+00 WtEn= 0.00D+00
 Large coefficients: NSaved= 20 BigCof=    0.00 CofMax=   10.00 Det=-3.13D-15
 Inversion failed.  Reducing to 19 matrices.
 Large coefficients: NSaved= 19 BigCof=    0.00 CofMax=   10.00 Det=-3.91D-15
 Inversion failed.  Reducing to 18 matrices.
 Large coefficients: NSaved= 18 BigCof=    0.00 CofMax=   10.00 Det=-4.26D-15
 Inversion failed.  Reducing to 17 matrices.
 Large coefficients: NSaved= 17 BigCof=    0.00 CofMax=   10.00 Det=-4.37D-15
 Inversion failed.  Reducing to 16 matrices.
 Large coefficients: NSaved= 16 BigCof=    0.00 CofMax=   10.00 Det=-4.37D-15
 Inversion failed.  Reducing to 15 matrices.
 Coeff-Com: -0.218D-05-0.781D-05 0.283D-06 0.489D-04 0.982D-04 0.291D-04
 Coeff-Com: -0.497D-03-0.154D-02 0.259D-02 0.676D-02-0.303D-02-0.584D-01
 Coeff-Com: -0.112D+00 0.236D+00 0.930D+00
 Coeff:     -0.218D-05-0.781D-05 0.283D-06 0.489D-04 0.982D-04 0.291D-04
 Coeff:     -0.497D-03-0.154D-02 0.259D-02 0.676D-02-0.303D-02-0.584D-01
 Coeff:     -0.112D+00 0.236D+00 0.930D+00
 Gap=     0.242 Goal=   None    Shift=    0.000
 RMSDP=2.51D-09 MaxDP=1.02D-07 DE=-3.18D-12 OVMax= 6.51D-08

 SCF Done:  E(RwB97XD) =  -3010.54558275     A.U. after   22 cycles
            NFock= 22  Conv=0.25D-08     -V/T= 2.0016
 KE= 3.005857958939D+03 PE=-8.703106501364D+03 EE= 1.910811149571D+03
 Leave Link  502 at Thu May  2 14:22:06 2024, MaxMem=   134217728 cpu:            1365.4 elap:            1365.8
 (Enter /software/gaussian/g16-c01/sse4/g16/l601.exe)
 Copying SCF densities to generalized density rwf, IOpCl= 0 IROHF=0.

 **********************************************************************

            Population analysis using the SCF Density.

 **********************************************************************

 Alpha  occ. eigenvalues -- -483.35494 -62.90565 -56.70187 -56.69715 -56.69711
 Alpha  occ. eigenvalues --  -19.46967 -19.46893 -14.86409 -10.60694 -10.60498
 Alpha  occ. eigenvalues --  -10.58837 -10.58738 -10.54842 -10.54132  -9.06404
 Alpha  occ. eigenvalues --   -6.88891  -6.87316  -6.87308  -2.98840  -2.98416
 Alpha  occ. eigenvalues --   -2.98409  -2.97147  -2.97147  -1.50614  -1.33556
 Alpha  occ. eigenvalues --   -1.24218  -1.15288  -1.13929  -1.07801  -1.01924
 Alpha  occ. eigenvalues --   -0.96974  -0.92014  -0.85994  -0.82091  -0.81411
 Alpha  occ. eigenvalues --   -0.81019  -0.79252  -0.77229  -0.76884  -0.74344
 Alpha  occ. eigenvalues --   -0.70078  -0.69075  -0.65694  -0.63086  -0.61224
 Alpha  occ. eigenvalues --   -0.58428  -0.57966  -0.56710  -0.56435
 Alpha virt. eigenvalues --   -0.32255  -0.21972  -0.20962  -0.18158  -0.15222
 Alpha virt. eigenvalues --   -0.14341  -0.13268  -0.10431  -0.09009  -0.08283
 Alpha virt. eigenvalues --   -0.05964  -0.05748  -0.03601  -0.03024  -0.02306
 Alpha virt. eigenvalues --   -0.01915  -0.00212   0.00751   0.01783   0.02012
 Alpha virt. eigenvalues --    0.03625   0.04406   0.04536   0.05144   0.06574
 Alpha virt. eigenvalues --    0.07403   0.07621   0.08028   0.08636   0.08821
 Alpha virt. eigenvalues --    0.09782   0.10880   0.11191   0.11830   0.12831
 Alpha virt. eigenvalues --    0.13172   0.13378   0.14305   0.15062   0.15598
 Alpha virt. eigenvalues --    0.16348   0.17745   0.17922   0.18497   0.19076
 Alpha virt. eigenvalues --    0.20095   0.20836   0.21876   0.22279   0.23132
 Alpha virt. eigenvalues --    0.24071   0.24838   0.26463   0.28120   0.28502
 Alpha virt. eigenvalues --    0.30267   0.32713   0.33313   0.33735   0.34911
 Alpha virt. eigenvalues --    0.36329   0.37550   0.38090   0.38929   0.40386
 Alpha virt. eigenvalues --    0.43021   0.43701   0.44505   0.46029   0.46958
 Alpha virt. eigenvalues --    0.47433   0.48667   0.49148   0.50132   0.52622
 Alpha virt. eigenvalues --    0.53508   0.55040   0.56902   0.57352   0.58933
 Alpha virt. eigenvalues --    0.59842   0.61098   0.62502   0.64721   0.66969
 Alpha virt. eigenvalues --    0.70248   0.70485   0.72116   0.72770   0.73424
 Alpha virt. eigenvalues --    0.73801   0.76636   0.79032   0.79955   0.83965
 Alpha virt. eigenvalues --    0.85257   0.86812   0.90529   0.92610   0.97867
 Alpha virt. eigenvalues --    0.99418   1.01154   1.02705   1.04352   1.05958
 Alpha virt. eigenvalues --    1.07700   1.12001   1.12705   1.13301   1.17006
 Alpha virt. eigenvalues --    1.20413   1.22140   1.26993   1.32128   1.35112
 Alpha virt. eigenvalues --    1.35674   1.37756   1.41346   1.53442   1.55575
 Alpha virt. eigenvalues --    1.56317   1.58816   1.60062   1.62835   1.64232
 Alpha virt. eigenvalues --    1.67150   1.70026   1.73117   1.74125   1.78116
 Alpha virt. eigenvalues --    1.82765   1.84092   1.86002   1.90206   1.92453
 Alpha virt. eigenvalues --    1.96653   2.00427   2.01702   2.05586   2.06797
 Alpha virt. eigenvalues --    2.10997   2.13131   2.21201   2.22782   2.26337
 Alpha virt. eigenvalues --    2.32382   2.38961   2.40647   2.43384   2.52009
 Alpha virt. eigenvalues --    2.56989   2.62008   2.64699   2.67535   2.71049
 Alpha virt. eigenvalues --    2.72804   2.75621   2.76434   2.79618   2.80743
 Alpha virt. eigenvalues --    2.91665   2.96973   3.00365   3.04391   3.07640
 Alpha virt. eigenvalues --    3.13621   3.15188   3.16441   3.21717   3.25814
 Alpha virt. eigenvalues --    3.26785   3.36996   3.45344   3.49090   3.53887
 Alpha virt. eigenvalues --    3.56494   3.68199   3.73535   3.82289   3.85938
 Alpha virt. eigenvalues --    4.05380   4.06182   4.15232   4.19210   4.39216
 Alpha virt. eigenvalues --    4.44404   4.53199   4.58947   4.92936   4.95823
 Alpha virt. eigenvalues --    5.04614   5.09139   5.61319   6.14536   6.63527
 Alpha virt. eigenvalues --    7.44129   7.46528   7.56845  23.20663  23.59926
 Alpha virt. eigenvalues --   23.69703  23.76459  23.94343  24.00766  35.30756
 Alpha virt. eigenvalues --   47.89755  49.84537  49.93202 289.77435 289.79780
 Alpha virt. eigenvalues --  289.924521020.91004
          Condensed to atoms (all electrons):
               1          2          3          4          5          6
     1  C    8.528948  -3.262577   1.429902  -0.324336   0.310981   0.041383
     2  C   -3.262577  19.580507  -6.718695   0.866031  -0.041525   0.177032
     3  C    1.429902  -6.718695  21.212524  -1.844219   0.054744   0.134489
     4  C   -0.324336   0.866031  -1.844219   6.706945  -0.002290  -0.017753
     5  H    0.310981  -0.041525   0.054744  -0.002290   0.323744  -0.001443
     6  H    0.041383   0.177032   0.134489  -0.017753  -0.001443   0.305363
     7  H    0.013159  -0.018832   0.025865   0.324717  -0.002596  -0.000006
     8  N   -0.154839   0.705119  -1.863111   0.031146  -0.000898  -0.031954
     9  O   -0.051071   0.121349  -0.464050  -0.002943  -0.000046  -0.002258
    10  O    0.274097  -0.577152   0.107770  -0.039820   0.000107   0.022078
    11  C    1.136249  -1.858177   2.310767  -0.481055  -0.022382   0.010557
    12  H   -0.011269   0.009421   0.015833  -0.001191   0.000014  -0.000019
    13  C   -1.794308  -3.022500  -8.015259   1.026985   0.027606   0.003723
    14  H   -0.003472   0.018008   0.037912   0.006317  -0.000022   0.000011
    15  Br  -0.084782  -0.055039  -0.323341   0.120065  -0.000052  -0.000585
               7          8          9         10         11         12
     1  C    0.013159  -0.154839  -0.051071   0.274097   1.136249  -0.011269
     2  C   -0.018832   0.705119   0.121349  -0.577152  -1.858177   0.009421
     3  C    0.025865  -1.863111  -0.464050   0.107770   2.310767   0.015833
     4  C    0.324717   0.031146  -0.002943  -0.039820  -0.481055  -0.001191
     5  H   -0.002596  -0.000898  -0.000046   0.000107  -0.022382   0.000014
     6  H   -0.000006  -0.031954  -0.002258   0.022078   0.010557  -0.000019
     7  H    0.327897   0.000015   0.000017  -0.000020   0.025164  -0.001963
     8  N    0.000015   7.740538   0.151982   0.030872  -0.262456   0.000089
     9  O    0.000017   0.151982   7.804825   0.007649   0.202105   0.000078
    10  O   -0.000020   0.030872   0.007649   7.910862   0.048417   0.000005
    11  C    0.025164  -0.262456   0.202105   0.048417   8.918480   0.326271
    12  H   -0.001963   0.000089   0.000078   0.000005   0.326271   0.306574
    13  C   -0.035817   0.760568   0.168834   0.144168  -4.101823  -0.005416
    14  H    0.000018  -0.014413  -0.000073  -0.001898  -0.023312  -0.002526
    15  Br  -0.000311   0.103392  -0.029711  -0.004567  -0.099694  -0.003976
              13         14         15
     1  C   -1.794308  -0.003472  -0.084782
     2  C   -3.022500   0.018008  -0.055039
     3  C   -8.015259   0.037912  -0.323341
     4  C    1.026985   0.006317   0.120065
     5  H    0.027606  -0.000022  -0.000052
     6  H    0.003723   0.000011  -0.000585
     7  H   -0.035817   0.000018  -0.000311
     8  N    0.760568  -0.014413   0.103392
     9  O    0.168834  -0.000073  -0.029711
    10  O    0.144168  -0.001898  -0.004567
    11  C   -4.101823  -0.023312  -0.099694
    12  H   -0.005416  -0.002526  -0.003976
    13  C   20.440064   0.277608   0.383393
    14  H    0.277608   0.234519  -0.017907
    15  Br   0.383393  -0.017907  35.073541
 Mulliken charges:
               1
     1  C   -0.048064
     2  C    0.077032
     3  C   -0.101130
     4  C   -0.368600
     5  H    0.354057
     6  H    0.359382
     7  H    0.342692
     8  N   -0.196050
     9  O    0.093313
    10  O    0.077431
    11  C   -0.129112
    12  H    0.368074
    13  C   -0.257826
    14  H    0.489227
    15  Br  -0.060427
 Sum of Mulliken charges =   1.00000
 Mulliken charges with hydrogens summed into heavy atoms:
               1
     1  C    0.305993
     2  C    0.436414
     3  C   -0.101130
     4  C   -0.025908
     8  N   -0.196050
     9  O    0.093313
    10  O    0.077431
    11  C    0.238962
    13  C    0.231401
    15  Br  -0.060427
 Electronic spatial extent (au):  <R**2>=           3951.8336
 Charge=              1.0000 electrons
 Dipole moment (field-independent basis, Debye):
    X=              2.4670    Y=              0.0379    Z=              3.6264  Tot=              4.3862
 Quadrupole moment (field-independent basis, Debye-Ang):
   XX=            -67.7657   YY=            -52.7167   ZZ=            -68.3527
   XY=             -1.1060   XZ=              6.4497   YZ=             -1.8301
 Traceless Quadrupole moment (field-independent basis, Debye-Ang):
   XX=             -4.8206   YY=             10.2283   ZZ=             -5.4077
   XY=             -1.1060   XZ=              6.4497   YZ=             -1.8301
 Octapole moment (field-independent basis, Debye-Ang**2):
  XXX=           -509.6899  YYY=             99.6271  ZZZ=            107.2880  XYY=           -140.9043
  XXY=             28.5120  XXZ=             53.5632  XZZ=           -146.0357  YZZ=             29.4714
  YYZ=             40.0960  XYZ=             -1.5280
 Hexadecapole moment (field-independent basis, Debye-Ang**3):
 XXXX=          -3419.3011 YYYY=           -720.6493 ZZZZ=           -460.2263 XXXY=            187.7688
 XXXZ=            281.4927 YYYX=            201.5441 YYYZ=           -200.1609 ZZZX=            218.8622
 ZZZY=           -183.3184 XXYY=           -634.2790 XXZZ=           -560.4617 YYZZ=           -201.3086
 XXYZ=            -65.5839 YYXZ=             80.3244 ZZXY=             55.7208
 N-N= 7.758918101004D+02 E-N=-8.703106501562D+03  KE= 3.005857958939D+03
 No NMR shielding tensors so no spin-rotation constants.
 Leave Link  601 at Thu May  2 14:22:14 2024, MaxMem=   134217728 cpu:               7.4 elap:               7.4
 (Enter /software/gaussian/g16-c01/sse4/g16/l9999.exe)
 Unable to Open any file for archive entry.
 1\1\GINC-BHX0015\SP\RwB97XD\6-311+G(d)\C6H5Br1N1O2(1+)\BWEIGHT\02-May-
 2024\0\\#P wB97XD/6-311+G* NoSymm #P Field=Z-243\\TitleMe\\1,1\C,0,0.5
 193,1.233,-0.0319\C,0,1.9445,1.2692,-0.0367\C,0,2.6204,0.0928,-0.025\C
 ,0,-0.196,0.0301,0.001\H,0,-0.0207,2.1742,-0.0434\H,0,2.4828,2.2089,-0
 .0361\H,0,-1.2777,0.0399,0.0117\N,0,4.0921,0.0959,0.0366\O,0,4.6393,-1
 .0217,0.1446\O,0,4.6649,1.1984,-0.0233\C,0,0.4943,-1.1671,0.021\H,0,-0
 .0325,-2.1149,0.0545\C,0,1.9629,-1.2165,-0.0211\H,0,2.4436,-1.9631,0.6
 151\Br,0,2.173,-1.9491,-1.9062\\Version=ES64L-G16RevC.01\HF=-3010.5455
 828\RMSD=2.508e-09\Dipole=-3.3586333,1.2430314,2.6759662\Quadrupole=-3
 .5840151,7.6044846,-4.0204695,-0.8222984,4.7952038,-1.3606177\PG=C01 [
 X(C6H5Br1N1O2)]\\@
 The archive entry for this job was punched.


 A FOOL CAN ASK MORE QUESTIONS THAN
 A WISE MAN CAN ANSWER.
 Job cpu time:       0 days  0 hours 23 minutes 56.2 seconds.
 Elapsed time:       0 days  0 hours 23 minutes 56.8 seconds.
 File lengths (MBytes):  RWF=     40 Int=      0 D2E=      0 Chk=     32 Scr=      1
 Normal termination of Gaussian 16 at Thu May  2 14:22:15 2024.
