 Entering Gaussian System, Link 0=g16
 Initial command:
 /software/gaussian/g16-a03/l1.exe "/local_scratch/6484943/Gau-8948.inp" -scrdir="/local_scratch/6484943/"
 Entering Link 1 = /software/gaussian/g16-a03/l1.exe PID=      8952.
  
 Copyright (c) 1988,1990,1992,1993,1995,1998,2003,2009,2016,
            Gaussian, Inc.  All Rights Reserved.
  
 This is part of the Gaussian(R) 16 program.  It is based on
 the Gaussian(R) 09 system (copyright 2009, Gaussian, Inc.),
 the Gaussian(R) 03 system (copyright 2003, Gaussian, Inc.),
 the Gaussian(R) 98 system (copyright 1998, Gaussian, Inc.),
 the Gaussian(R) 94 system (copyright 1995, Gaussian, Inc.),
 the Gaussian 92(TM) system (copyright 1992, Gaussian, Inc.),
 the Gaussian 90(TM) system (copyright 1990, Gaussian, Inc.),
 the Gaussian 88(TM) system (copyright 1988, Gaussian, Inc.),
 the Gaussian 86(TM) system (copyright 1986, Carnegie Mellon
 University), and the Gaussian 82(TM) system (copyright 1983,
 Carnegie Mellon University). Gaussian is a federally registered
 trademark of Gaussian, Inc.
  
 This software contains proprietary and confidential information,
 including trade secrets, belonging to Gaussian, Inc.
  
 This software is provided under written license and may be
 used, copied, transmitted, or stored only in accord with that
 written license.
  
 The following legend is applicable only to US Government
 contracts under FAR:
  
                    RESTRICTED RIGHTS LEGEND
  
 Use, reproduction and disclosure by the US Government is
 subject to restrictions as set forth in subparagraphs (a)
 and (c) of the Commercial Computer Software - Restricted
 Rights clause in FAR 52.227-19.
  
 Gaussian, Inc.
 340 Quinnipiac St., Bldg. 40, Wallingford CT 06492
  
  
 ---------------------------------------------------------------
 Warning -- This program may not be used in any manner that
 competes with the business of Gaussian, Inc. or will provide
 assistance to any competitor of Gaussian, Inc.  The licensee
 of this program is prohibited from giving any competitor of
 Gaussian, Inc. access to this program.  By using this program,
 the user acknowledges that Gaussian, Inc. is engaged in the
 business of creating and licensing software in the field of
 computational chemistry and represents and warrants to the
 licensee that it is not a competitor of Gaussian, Inc. and that
 it will not use this program in any manner prohibited above.
 ---------------------------------------------------------------
  

 Cite this work as:
 Gaussian 16, Revision A.03,
 M. J. Frisch, G. W. Trucks, H. B. Schlegel, G. E. Scuseria, 
 M. A. Robb, J. R. Cheeseman, G. Scalmani, V. Barone, 
 G. A. Petersson, H. Nakatsuji, X. Li, M. Caricato, A. V. Marenich, 
 J. Bloino, B. G. Janesko, R. Gomperts, B. Mennucci, H. P. Hratchian, 
 J. V. Ortiz, A. F. Izmaylov, J. L. Sonnenberg, D. Williams-Young, 
 F. Ding, F. Lipparini, F. Egidi, J. Goings, B. Peng, A. Petrone, 
 T. Henderson, D. Ranasinghe, V. G. Zakrzewski, J. Gao, N. Rega, 
 G. Zheng, W. Liang, M. Hada, M. Ehara, K. Toyota, R. Fukuda, 
 J. Hasegawa, M. Ishida, T. Nakajima, Y. Honda, O. Kitao, H. Nakai, 
 T. Vreven, K. Throssell, J. A. Montgomery, Jr., J. E. Peralta, 
 F. Ogliaro, M. J. Bearpark, J. J. Heyd, E. N. Brothers, K. N. Kudin, 
 V. N. Staroverov, T. A. Keith, R. Kobayashi, J. Normand, 
 K. Raghavachari, A. P. Rendell, J. C. Burant, S. S. Iyengar, 
 J. Tomasi, M. Cossi, J. M. Millam, M. Klene, C. Adamo, R. Cammi, 
 J. W. Ochterski, R. L. Martin, K. Morokuma, O. Farkas, 
 J. B. Foresman, and D. J. Fox, Gaussian, Inc., Wallingford CT, 2016.
 
 ******************************************
 Gaussian 16:  ES64L-G16RevA.03 25-Dec-2016
                17-Sep-2021 
 ******************************************
 %chk=geometry.chk
 %mem=2GB
 %nprocshared=1
 Will use up to    1 processors via shared memory.
 --------------------------------------------------------------------
 #p B3LYP/6-311+G** #p TD=(singlets,nstates=30)IOp(6/8=3) IOp(9/40=4)
 --------------------------------------------------------------------
 1/38=1,172=1/1;
 2/12=2,17=6,18=5,40=1/2;
 3/5=4,6=6,7=111,11=9,25=1,30=1,74=-5/1,2,3,8;
 4//1;
 5/5=2,38=5/2;
 8/6=1,10=2,108=30/1;
 9/40=4,41=30,42=1,48=1,70=2/14;
 6/7=2,8=3,9=2,10=2/1;
 99/5=1,9=1/99;
 Leave Link    1 at Fri Sep 17 10:52:32 2021, MaxMem=   268435456 cpu:               0.0 elap:               0.2
 (Enter /software/gaussian/g16-a03/l101.exe)
 -------------------------------
 Scan Step 212, Bond Length 1.56
 -------------------------------
 Symbolic Z-matrix:
 Charge =  0 Multiplicity = 1
 C                     0.        0.       -0.52736 
 H                     0.        0.93726  -1.11871 
 H                     0.       -0.93726  -1.11871 
 O                     0.        0.        1.03264 
 
 ITRead=  0  0  0  0
 MicOpt= -1 -1 -1 -1
 NAtoms=      4 NQM=        4 NQMF=       0 NMMI=      0 NMMIF=      0
                NMic=       0 NMicF=      0.
                    Isotopes and Nuclear Properties:
 (Nuclear quadrupole moments (NQMom) in fm**2, nuclear magnetic moments (NMagM)
  in nuclear magnetons)

  Atom         1           2           3           4
 IAtWgt=          12           1           1          16
 AtmWgt=  12.0000000   1.0078250   1.0078250  15.9949146
 NucSpn=           0           1           1           0
 AtZEff=  -0.0000000  -0.0000000  -0.0000000  -0.0000000
 NQMom=    0.0000000   0.0000000   0.0000000   0.0000000
 NMagM=    0.0000000   2.7928460   2.7928460   0.0000000
 AtZNuc=   6.0000000   1.0000000   1.0000000   8.0000000
 Leave Link  101 at Fri Sep 17 10:52:32 2021, MaxMem=   268435456 cpu:               0.1 elap:               0.1
 (Enter /software/gaussian/g16-a03/l202.exe)
                          Input orientation:                          
 ---------------------------------------------------------------------
 Center     Atomic      Atomic             Coordinates (Angstroms)
 Number     Number       Type             X           Y           Z
 ---------------------------------------------------------------------
      1          6           0        0.000000    0.000000   -0.527360
      2          1           0        0.000000    0.937260   -1.118710
      3          1           0        0.000000   -0.937260   -1.118710
      4          8           0        0.000000    0.000000    1.032640
 ---------------------------------------------------------------------
                    Distance matrix (angstroms):
                    1          2          3          4
     1  C    0.000000
     2  H    1.108220   0.000000
     3  H    1.108220   1.874520   0.000000
     4  O    1.560000   2.346649   2.346649   0.000000
 Stoichiometry    CH2O
 Framework group  C2V[C2(CO),SGV(H2)]
 Deg. of freedom     3
 Full point group                 C2V     NOp   4
 Largest Abelian subgroup         C2V     NOp   4
 Largest concise Abelian subgroup C2      NOp   2
                         Standard orientation:                         
 ---------------------------------------------------------------------
 Center     Atomic      Atomic             Coordinates (Angstroms)
 Number     Number       Type             X           Y           Z
 ---------------------------------------------------------------------
      1          6           0        0.000000    0.000000   -0.706081
      2          1           0        0.000000    0.937260   -1.297431
      3          1           0       -0.000000   -0.937260   -1.297431
      4          8           0        0.000000    0.000000    0.853919
 ---------------------------------------------------------------------
 Rotational constants (GHZ):         285.4183527          24.2753441          22.3725210
 Leave Link  202 at Fri Sep 17 10:52:32 2021, MaxMem=   268435456 cpu:               0.0 elap:               0.0
 (Enter /software/gaussian/g16-a03/l301.exe)
 Standard basis: 6-311+G(d,p) (5D, 7F)
 Ernie: Thresh=  0.10000D-02 Tol=  0.10000D-05 Strict=F.
 There are    29 symmetry adapted cartesian basis functions of A1  symmetry.
 There are     3 symmetry adapted cartesian basis functions of A2  symmetry.
 There are    11 symmetry adapted cartesian basis functions of B1  symmetry.
 There are    15 symmetry adapted cartesian basis functions of B2  symmetry.
 There are    27 symmetry adapted basis functions of A1  symmetry.
 There are     3 symmetry adapted basis functions of A2  symmetry.
 There are    11 symmetry adapted basis functions of B1  symmetry.
 There are    15 symmetry adapted basis functions of B2  symmetry.
    56 basis functions,    88 primitive gaussians,    58 cartesian basis functions
     8 alpha electrons        8 beta electrons
       nuclear repulsion energy        25.9027533331 Hartrees.
 IExCor=  402 DFT=T Ex+Corr=B3LYP ExCW=0 ScaHFX=  0.200000
 ScaDFX=  0.800000  0.720000  1.000000  0.810000 ScalE2=  1.000000  1.000000
 IRadAn=      5 IRanWt=     -1 IRanGd=            0 ICorTp=0 IEmpDi=  4
 NAtoms=    4 NActive=    4 NUniq=    3 SFac= 1.78D+00 NAtFMM=   60 NAOKFM=F Big=F
 Integral buffers will be    131072 words long.
 Regular integral format.
 Two-electron integral symmetry is turned on.
 Leave Link  301 at Fri Sep 17 10:52:32 2021, MaxMem=   268435456 cpu:               0.1 elap:               0.1
 (Enter /software/gaussian/g16-a03/l302.exe)
 NPDir=0 NMtPBC=     1 NCelOv=     1 NCel=       1 NClECP=     1 NCelD=      1
         NCelK=      1 NCelE2=     1 NClLst=     1 CellRange=     0.0.
 One-electron integrals computed using PRISM.
 One-electron integral symmetry used in STVInt
 NBasis=    56 RedAO= T EigKep=  9.08D-03  NBF=    27     3    11    15
 NBsUse=    56 1.00D-06 EigRej= -1.00D+00 NBFU=    27     3    11    15
 Precomputing XC quadrature grid using
 IXCGrd= 4 IRadAn=           5 IRanWt=          -1 IRanGd=           0 AccXCQ= 0.00D+00.
 Generated NRdTot=       0 NPtTot=           0 NUsed=           0 NTot=          32
 NSgBfM=    58    58    58    58    58 MxSgAt=     4 MxSgA2=     4.
 Leave Link  302 at Fri Sep 17 10:52:33 2021, MaxMem=   268435456 cpu:               0.1 elap:               0.1
 (Enter /software/gaussian/g16-a03/l303.exe)
 DipDrv:  MaxL=1.
 Leave Link  303 at Fri Sep 17 10:52:33 2021, MaxMem=   268435456 cpu:               0.0 elap:               0.0
 (Enter /software/gaussian/g16-a03/l308.exe)
 Leave Link  308 at Fri Sep 17 10:52:33 2021, MaxMem=   268435456 cpu:               0.0 elap:               0.0
 (Enter /software/gaussian/g16-a03/l401.exe)
 ExpMin= 4.38D-02 ExpMax= 8.59D+03 ExpMxC= 1.30D+03 IAcc=3 IRadAn=         5 AccDes= 0.00D+00
 Harris functional with IExCor=  402 and IRadAn=       5 diagonalized for initial guess.
 HarFok:  IExCor=  402 AccDes= 0.00D+00 IRadAn=         5 IDoV= 1 UseB2=F ITyADJ=14
 ICtDFT=  3500011 ScaDFX=  1.000000  1.000000  1.000000  1.000000
 FoFCou: FMM=F IPFlag=           0 FMFlag=      100000 FMFlg1=           0
         NFxFlg=           0 DoJE=T BraDBF=F KetDBF=T FulRan=T
         wScrn=  0.000000 ICntrl=       500 IOpCl=  0 I1Cent=   200000004 NGrid=           0
         NMat0=    1 NMatS0=      1 NMatT0=    0 NMatD0=    1 NMtDS0=    0 NMtDT0=    0
 Petite list used in FoFCou.
 Harris En= -114.462838402352    
 JPrj=0 DoOrth=F DoCkMO=F.
 Initial guess orbital symmetries:
       Occupied  (A1) (A1) (A1) (A1) (B2) (A1) (B1) (B2)
       Virtual   (B1) (A1) (A1) (B2) (B1) (A1) (A1) (B2) (A1) (B1)
                 (B2) (A1) (A1) (B2) (B1) (A1) (B2) (A1) (B1) (A2)
                 (A1) (B2) (B1) (A1) (B2) (A1) (A1) (B2) (B1) (A2)
                 (A1) (B2) (A1) (B2) (A1) (B1) (A1) (A2) (A1) (B1)
                 (B2) (B2) (A1) (B1) (B2) (A1) (A1) (A1)
 The electronic state of the initial guess is 1-A1.
 Leave Link  401 at Fri Sep 17 10:52:33 2021, MaxMem=   268435456 cpu:               0.3 elap:               0.3
 (Enter /software/gaussian/g16-a03/l502.exe)
 Keep R1 ints in memory in symmetry-blocked form, NReq=2159909.
 FoFCou: FMM=F IPFlag=           0 FMFlag=           0 FMFlg1=           0
         NFxFlg=           0 DoJE=F BraDBF=F KetDBF=F FulRan=T
         wScrn=  0.000000 ICntrl=       600 IOpCl=  0 I1Cent=           0 NGrid=           0
         NMat0=    1 NMatS0=   1596 NMatT0=    0 NMatD0=    1 NMtDS0=    0 NMtDT0=    0
 Petite list used in FoFCou.
 Closed shell SCF:
 Using DIIS extrapolation, IDIIS=  1040.
 NGot=   268435456 LenX=   268074384 LenY=   268070579
 Requested convergence on RMS density matrix=1.00D-08 within 128 cycles.
 Requested convergence on MAX density matrix=1.00D-06.
 Requested convergence on             energy=1.00D-06.
 No special actions if energy rises.

 Cycle   1  Pass 1  IDiag  1:
 E= -114.358105485942    
 DIIS: error= 6.11D-02 at cycle   1 NSaved=   1.
 NSaved= 1 IEnMin= 1 EnMin= -114.358105485942     IErMin= 1 ErrMin= 6.11D-02
 ErrMax= 6.11D-02  0.00D+00 EMaxC= 1.00D-01 BMatC= 9.96D-02 BMatP= 9.96D-02
 IDIUse=3 WtCom= 3.89D-01 WtEn= 6.11D-01
 Coeff-Com:  0.100D+01
 Coeff-En:   0.100D+01
 Coeff:      0.100D+01
 Gap=     0.045 Goal=   None    Shift=    0.000
 GapD=    0.045 DampG=0.250 DampE=0.500 DampFc=0.2500 IDamp=-1.
 Damping current iteration by 2.50D-01
 RMSDP=1.58D-02 MaxDP=1.40D-01              OVMax= 2.87D-01

 Cycle   2  Pass 1  IDiag  1:
 E= -114.365750158008     Delta-E=       -0.007644672066 Rises=F Damp=T
 DIIS: error= 1.22D-02 at cycle   2 NSaved=   2.
 NSaved= 2 IEnMin= 2 EnMin= -114.365750158008     IErMin= 2 ErrMin= 1.22D-02
 ErrMax= 1.22D-02  0.00D+00 EMaxC= 1.00D-01 BMatC= 1.04D-02 BMatP= 9.96D-02
 IDIUse=3 WtCom= 8.78D-01 WtEn= 1.22D-01
 Coeff-Com:  0.149D+00 0.851D+00
 Coeff-En:   0.459D+00 0.541D+00
 Coeff:      0.187D+00 0.813D+00
 Gap=     0.089 Goal=   None    Shift=    0.000
 RMSDP=2.04D-03 MaxDP=3.24D-02 DE=-7.64D-03 OVMax= 5.36D-01

 Cycle   3  Pass 1  IDiag  1:
 E= -114.440575778418     Delta-E=       -0.074825620410 Rises=F Damp=F
 DIIS: error= 8.47D-03 at cycle   3 NSaved=   3.
 NSaved= 3 IEnMin= 3 EnMin= -114.440575778418     IErMin= 3 ErrMin= 8.47D-03
 ErrMax= 8.47D-03  0.00D+00 EMaxC= 1.00D-01 BMatC= 2.19D-03 BMatP= 1.04D-02
 IDIUse=3 WtCom= 9.15D-01 WtEn= 8.47D-02
 Coeff-Com:  0.439D-01 0.275D+00 0.681D+00
 Coeff-En:   0.000D+00 0.000D+00 0.100D+01
 Coeff:      0.402D-01 0.252D+00 0.708D+00
 Gap=     0.145 Goal=   None    Shift=    0.000
 RMSDP=8.07D-04 MaxDP=1.74D-02 DE=-7.48D-02 OVMax= 3.02D-02

 Cycle   4  Pass 1  IDiag  1:
 E= -114.442290758096     Delta-E=       -0.001714979678 Rises=F Damp=F
 DIIS: error= 3.88D-03 at cycle   4 NSaved=   4.
 NSaved= 4 IEnMin= 4 EnMin= -114.442290758096     IErMin= 4 ErrMin= 3.88D-03
 ErrMax= 3.88D-03  0.00D+00 EMaxC= 1.00D-01 BMatC= 5.72D-04 BMatP= 2.19D-03
 IDIUse=3 WtCom= 9.61D-01 WtEn= 3.88D-02
 Coeff-Com:  0.326D-01-0.453D-02 0.285D+00 0.687D+00
 Coeff-En:   0.000D+00 0.000D+00 0.151D+00 0.849D+00
 Coeff:      0.313D-01-0.436D-02 0.280D+00 0.693D+00
 Gap=     0.150 Goal=   None    Shift=    0.000
 RMSDP=2.53D-04 MaxDP=5.99D-03 DE=-1.71D-03 OVMax= 6.87D-03

 Cycle   5  Pass 1  IDiag  1:
 E= -114.442819916937     Delta-E=       -0.000529158841 Rises=F Damp=F
 DIIS: error= 1.23D-03 at cycle   5 NSaved=   5.
 NSaved= 5 IEnMin= 5 EnMin= -114.442819916937     IErMin= 5 ErrMin= 1.23D-03
 ErrMax= 1.23D-03  0.00D+00 EMaxC= 1.00D-01 BMatC= 3.57D-05 BMatP= 5.72D-04
 IDIUse=3 WtCom= 9.88D-01 WtEn= 1.23D-02
 Coeff-Com:  0.184D-01-0.282D-01 0.653D-01 0.228D+00 0.717D+00
 Coeff-En:   0.000D+00 0.000D+00 0.000D+00 0.000D+00 0.100D+01
 Coeff:      0.182D-01-0.278D-01 0.645D-01 0.225D+00 0.720D+00
 Gap=     0.151 Goal=   None    Shift=    0.000
 RMSDP=4.82D-05 MaxDP=3.47D-04 DE=-5.29D-04 OVMax= 1.24D-03

 Cycle   6  Pass 1  IDiag  1:
 E= -114.442847354204     Delta-E=       -0.000027437268 Rises=F Damp=F
 DIIS: error= 4.85D-04 at cycle   6 NSaved=   6.
 NSaved= 6 IEnMin= 6 EnMin= -114.442847354204     IErMin= 6 ErrMin= 4.85D-04
 ErrMax= 4.85D-04  0.00D+00 EMaxC= 1.00D-01 BMatC= 4.65D-06 BMatP= 3.57D-05
 IDIUse=3 WtCom= 9.95D-01 WtEn= 4.85D-03
 Coeff-Com:  0.433D-02-0.507D-02 0.519D-02-0.183D-01-0.760D-01 0.109D+01
 Coeff-En:   0.000D+00 0.000D+00 0.000D+00 0.000D+00 0.000D+00 0.100D+01
 Coeff:      0.431D-02-0.505D-02 0.516D-02-0.182D-01-0.756D-01 0.109D+01
 Gap=     0.151 Goal=   None    Shift=    0.000
 RMSDP=1.94D-05 MaxDP=1.69D-04 DE=-2.74D-05 OVMax= 8.04D-04

 Cycle   7  Pass 1  IDiag  1:
 E= -114.442851527499     Delta-E=       -0.000004173294 Rises=F Damp=F
 DIIS: error= 5.64D-05 at cycle   7 NSaved=   7.
 NSaved= 7 IEnMin= 7 EnMin= -114.442851527499     IErMin= 7 ErrMin= 5.64D-05
 ErrMax= 5.64D-05  0.00D+00 EMaxC= 1.00D-01 BMatC= 6.56D-08 BMatP= 4.65D-06
 IDIUse=1 WtCom= 1.00D+00 WtEn= 0.00D+00
 Coeff-Com:  0.437D-03-0.451D-03 0.156D-02 0.350D-03-0.183D-02-0.417D-01
 Coeff-Com:  0.104D+01
 Coeff:      0.437D-03-0.451D-03 0.156D-02 0.350D-03-0.183D-02-0.417D-01
 Coeff:      0.104D+01
 Gap=     0.151 Goal=   None    Shift=    0.000
 RMSDP=1.62D-06 MaxDP=2.52D-05 DE=-4.17D-06 OVMax= 8.06D-05

 Cycle   8  Pass 1  IDiag  1:
 E= -114.442851583241     Delta-E=       -0.000000055743 Rises=F Damp=F
 DIIS: error= 1.47D-05 at cycle   8 NSaved=   8.
 NSaved= 8 IEnMin= 8 EnMin= -114.442851583241     IErMin= 8 ErrMin= 1.47D-05
 ErrMax= 1.47D-05  0.00D+00 EMaxC= 1.00D-01 BMatC= 3.94D-09 BMatP= 6.56D-08
 IDIUse=1 WtCom= 1.00D+00 WtEn= 0.00D+00
 Coeff-Com:  0.107D-04 0.427D-05 0.696D-04 0.556D-03 0.171D-02-0.445D-01
 Coeff-Com:  0.804D-01 0.962D+00
 Coeff:      0.107D-04 0.427D-05 0.696D-04 0.556D-03 0.171D-02-0.445D-01
 Coeff:      0.804D-01 0.962D+00
 Gap=     0.151 Goal=   None    Shift=    0.000
 RMSDP=6.38D-07 MaxDP=6.91D-06 DE=-5.57D-08 OVMax= 3.13D-05

 Cycle   9  Pass 1  IDiag  1:
 E= -114.442851586900     Delta-E=       -0.000000003659 Rises=F Damp=F
 DIIS: error= 3.50D-07 at cycle   9 NSaved=   9.
 NSaved= 9 IEnMin= 9 EnMin= -114.442851586900     IErMin= 9 ErrMin= 3.50D-07
 ErrMax= 3.50D-07  0.00D+00 EMaxC= 1.00D-01 BMatC= 2.95D-12 BMatP= 3.94D-09
 IDIUse=1 WtCom= 1.00D+00 WtEn= 0.00D+00
 Coeff-Com: -0.253D-06-0.707D-06-0.369D-05 0.464D-04 0.116D-03 0.398D-03
 Coeff-Com: -0.107D-01 0.306D-01 0.979D+00
 Coeff:     -0.253D-06-0.707D-06-0.369D-05 0.464D-04 0.116D-03 0.398D-03
 Coeff:     -0.107D-01 0.306D-01 0.979D+00
 Gap=     0.151 Goal=   None    Shift=    0.000
 RMSDP=2.60D-08 MaxDP=2.29D-07 DE=-3.66D-09 OVMax= 5.44D-07

 Cycle  10  Pass 1  IDiag  1:
 E= -114.442851586903     Delta-E=       -0.000000000003 Rises=F Damp=F
 DIIS: error= 5.89D-08 at cycle  10 NSaved=  10.
 NSaved=10 IEnMin=10 EnMin= -114.442851586903     IErMin=10 ErrMin= 5.89D-08
 ErrMax= 5.89D-08  0.00D+00 EMaxC= 1.00D-01 BMatC= 9.25D-14 BMatP= 2.95D-12
 IDIUse=1 WtCom= 1.00D+00 WtEn= 0.00D+00
 Coeff-Com: -0.144D-06-0.332D-07 0.153D-05 0.566D-05-0.166D-06 0.503D-03
 Coeff-Com: -0.153D-02-0.635D-02 0.979D-01 0.909D+00
 Coeff:     -0.144D-06-0.332D-07 0.153D-05 0.566D-05-0.166D-06 0.503D-03
 Coeff:     -0.153D-02-0.635D-02 0.979D-01 0.909D+00
 Gap=     0.151 Goal=   None    Shift=    0.000
 RMSDP=3.51D-09 MaxDP=3.24D-08 DE=-2.61D-12 OVMax= 9.40D-08

 SCF Done:  E(RB3LYP) =  -114.442851587     A.U. after   10 cycles
            NFock= 10  Conv=0.35D-08     -V/T= 2.0090
 KE= 1.134192526929D+02 PE=-3.203516227780D+02 EE= 6.658676516519D+01
 Leave Link  502 at Fri Sep 17 10:52:35 2021, MaxMem=   268435456 cpu:               1.8 elap:               2.0
 (Enter /software/gaussian/g16-a03/l801.exe)
 DoSCS=F DFT=T ScalE2(SS,OS)=  1.000000  1.000000
 ExpMin= 4.38D-02 ExpMax= 8.59D+03 ExpMxC= 1.30D+03 IAcc=3 IRadAn=         5 AccDes= 0.00D+00
 HarFok:  IExCor=  205 AccDes= 0.00D+00 IRadAn=         5 IDoV=-2 UseB2=F ITyADJ=14
 ICtDFT= 12500011 ScaDFX=  1.000000  1.000000  1.000000  1.000000
 Largest valence mixing into a core orbital is  5.32D-05
 Largest core mixing into a valence orbital is  1.23D-05
 Range of M.O.s used for correlation:     3    56
 NBasis=    56 NAE=     8 NBE=     8 NFC=     2 NFV=     0
 NROrb=     54 NOA=     6 NOB=     6 NVA=    48 NVB=    48
 Leave Link  801 at Fri Sep 17 10:52:35 2021, MaxMem=   268435456 cpu:               0.2 elap:               0.2
 (Enter /software/gaussian/g16-a03/l914.exe)
 RHF ground state
 Keep R1, R2, and R3 ints in memory in symmetry-blocked form, NReq=6042848.
 FoFCou: FMM=F IPFlag=           0 FMFlag=           0 FMFlg1=           0
         NFxFlg=           0 DoJE=F BraDBF=F KetDBF=F FulRan=T
         wScrn=  0.000000 ICntrl=       600 IOpCl=  0 I1Cent=           0 NGrid=           0
         NMat0=    1 NMatS0=   1596 NMatT0=    0 NMatD0=    1 NMtDS0=    0 NMtDT0=    0
 Petite list used in FoFCou.
 MDV=   268435456 DFT=T DoStab=F Mixed=T DoRPA=T DoScal=F NonHer=T
 Making orbital integer symmetry assigments:
 Orbital symmetries:
       Occupied  (A1) (A1) (A1) (A1) (B2) (A1) (B1) (B2)
       Virtual   (B1) (A1) (A1) (B2) (B1) (A1) (A1) (B2) (A1) (B1)
                 (B2) (A1) (A1) (B2) (B1) (A1) (B2) (A1) (A2) (B1)
                 (A1) (B2) (B1) (A1) (B2) (A1) (A1) (B2) (B1) (A2)
                 (A1) (B2) (A1) (B2) (A1) (B1) (A1) (A2) (A1) (B1)
                 (B2) (B2) (A1) (B1) (B2) (A1) (A1) (A1)
   120 initial guesses have been made.
 Convergence on wavefunction:    0.001000000000000
 Davidson Disk Diagonalization:  ConvIn= 1.00D-03 SkipCon=T Conv= 1.00D-03.
 Max sub-space:  1728 roots to seek:   120 dimension of matrix:          576
 Iteration     1 Dimension   120 NMult     0 NNew    120
 CISAX will form   120 AO SS matrices at one time.
 NMat=   120 NSing=   120 JSym2X=-1.
 New state      6 was old state      8
 New state      7 was old state      6
 New state      8 was old state      7
 New state      9 was old state     10
 New state     10 was old state      9
 New state     14 was old state     15
 New state     15 was old state     14
 New state     17 was old state     18
 New state     18 was old state     20
 New state     19 was old state     17
 New state     20 was old state     19
 New state     22 was old state     24
 New state     23 was old state     22
 New state     24 was old state     23
 New state     27 was old state     28
 New state     28 was old state     30
 New state     29 was old state     27
 New state     30 was old state     29
 Excitation Energies [eV] at current iteration:
 Root      1 :     2.146432021060006
 Root      2 :     5.476094849154212
 Root      3 :     5.744078528718540
 Root      4 :     6.460937837711581
 Root      5 :     7.105002343946631
 Root      6 :     7.676911336551453
 Root      7 :     7.745019437721589
 Root      8 :     8.051107222791000
 Root      9 :     8.383646677638522
 Root     10 :     8.604618905934279
 Root     11 :     9.242260757971280
 Root     12 :     9.278342075049862
 Root     13 :     9.869683064909173
 Root     14 :    10.334225987120880
 Root     15 :    10.338717605806960
 Root     16 :    10.536288421499380
 Root     17 :    10.856528277326340
 Root     18 :    11.448990936181850
 Root     19 :    11.554452293078300
 Root     20 :    11.573920644708590
 Root     21 :    11.659091472145940
 Root     22 :    11.820950755966690
 Root     23 :    11.939498451874070
 Root     24 :    12.124605280188660
 Root     25 :    12.259014224157870
 Root     26 :    12.562595544030420
 Root     27 :    13.010921117699740
 Root     28 :    13.208561833547790
 Root     29 :    13.330305604389350
 Root     30 :    13.541764434092890
 Root     31 :    13.825790727952800
 Root     32 :    14.062103121771050
 Root     33 :    14.239047385808500
 Root     34 :    14.378779586418020
 Root     35 :    14.737543367861610
 Root     36 :    14.764342257308060
 Root     37 :    14.870440824227800
 Root     38 :    15.204725990068900
 Root     39 :    15.927106609726550
 Root     40 :    16.039328906410010
 Root     41 :    16.150608174800950
 Root     42 :    16.221314277982050
 Root     43 :    16.446843959863540
 Root     44 :    16.786433960569980
 Root     45 :    17.489737689364960
 Root     46 :    17.562111279294500
 Root     47 :    17.826852440794520
 Root     48 :    18.094166014057030
 Root     49 :    18.105750474459600
 Root     50 :    18.497413766648460
 Root     51 :    18.644694432612490
 Root     52 :    18.984570473995960
 Root     53 :    18.995130584126620
 Root     54 :    19.071387135895420
 Root     55 :    19.516681092781290
 Root     56 :    19.527110586752790
 Root     57 :    20.362174576258730
 Root     58 :    20.368900266043860
 Root     59 :    20.497323900641590
 Root     60 :    21.036012825429190
 Root     61 :    21.246916422548780
 Root     62 :    21.283798886778330
 Root     63 :    21.579941862249460
 Root     64 :    21.727247968716410
 Root     65 :    21.809171646536050
 Root     66 :    22.183840783609810
 Root     67 :    22.390501275087500
 Root     68 :    22.738308006484410
 Root     69 :    23.082544263067530
 Root     70 :    23.330740885237160
 Root     71 :    23.653957060175680
 Root     72 :    23.675510775920560
 Root     73 :    23.723114971172560
 Root     74 :    24.130306231675010
 Root     75 :    24.350374197959120
 Root     76 :    24.541782475942700
 Root     77 :    25.224985478721990
 Root     78 :    25.292519389610920
 Root     79 :    25.415919652066530
 Root     80 :    25.719301345196390
 Root     81 :    25.754075453790920
 Root     82 :    26.007496727828630
 Root     83 :    26.081368038762330
 Root     84 :    26.262289552816350
 Root     85 :    26.628699709881320
 Root     86 :    26.939459247951600
 Root     87 :    27.400507106431190
 Root     88 :    28.250477794213850
 Root     89 :    28.431878330920850
 Root     90 :    28.472702608457060
 Root     91 :    29.014855510287730
 Root     92 :    29.244289674041820
 Root     93 :    29.507792572879180
 Root     94 :    30.233720732557060
 Root     95 :    30.298325495199400
 Root     96 :    30.907927861229650
 Root     97 :    31.040665780341190
 Root     98 :    31.051806326243670
 Root     99 :    32.454161049520290
 Root    100 :    33.004329673716110
 Root    101 :    33.087546744525620
 Root    102 :    33.357200149601650
 Root    103 :    33.478950012692670
 Root    104 :    34.332810082049810
 Root    105 :    34.840918992389500
 Root    106 :    34.994233997901200
 Root    107 :    35.146138769294330
 Root    108 :    35.566496238040140
 Root    109 :    35.872504593536350
 Root    110 :    36.514395036477440
 Root    111 :    36.568597461165220
 Root    112 :    36.906084189643100
 Root    113 :    37.200181850689780
 Root    114 :    37.903879143258780
 Root    115 :    38.024169801785280
 Root    116 :    38.887227954270850
 Root    117 :    39.012467474431910
 Root    118 :    39.129925682387260
 Root    119 :    39.915688421677710
 Root    120 :    43.981530751474960
 Iteration     2 Dimension   180 NMult   120 NNew     60
 CISAX will form    60 AO SS matrices at one time.
 NMat=    60 NSing=    60 JSym2X=-1.
 Root      1 not converged, maximum delta is    0.006585105836507
 Root      2 not converged, maximum delta is    0.007544941098705
 Root      3 not converged, maximum delta is    0.010714372052746
 Root      4 not converged, maximum delta is    0.013134177160194
 Root      5 not converged, maximum delta is    0.012995221038797
 Root      6 not converged, maximum delta is    0.011110633537885
 Root      7 not converged, maximum delta is    0.008510184316691
 Root      8 not converged, maximum delta is    0.001984294158559
 Root      9 not converged, maximum delta is    0.008359312528457
 Root     10 not converged, maximum delta is    0.001940852068257
 Root     11 not converged, maximum delta is    0.001656233368111
 Root     12 not converged, maximum delta is    0.004872712556648
 Root     13 not converged, maximum delta is    0.002447090427238
 Root     14 not converged, maximum delta is    0.002974419969689
 Root     15 not converged, maximum delta is    0.003472604067704
 Root     16 not converged, maximum delta is    0.003452479270525
 Root     17 not converged, maximum delta is    0.004997052342087
 Root     18 not converged, maximum delta is    0.003803787003962
 Root     19 not converged, maximum delta is    0.008065879477322
 Root     20 not converged, maximum delta is    0.009572587404266
 Root     21 not converged, maximum delta is    0.009430029697601
 Root     22 not converged, maximum delta is    0.004203202721708
 Root     23 not converged, maximum delta is    0.011157455000595
 Root     24 not converged, maximum delta is    0.001486933298133
 Root     25 not converged, maximum delta is    0.006623402707079
 Root     26 not converged, maximum delta is    0.010607376190170
 Root     27 not converged, maximum delta is    0.002680563373671
 Root     28 not converged, maximum delta is    0.014183333416862
 Root     29 not converged, maximum delta is    0.015358299827578
 Root     30 not converged, maximum delta is    0.005002053440571
 Excitation Energies [eV] at current iteration:
 Root      1 :     2.137540294699423   Change is   -0.008891726360583
 Root      2 :     5.453305552151381   Change is   -0.022789297002831
 Root      3 :     5.707122905782615   Change is   -0.036955622935925
 Root      4 :     6.437413254755382   Change is   -0.023524582956200
 Root      5 :     7.095732032175853   Change is   -0.009270311770777
 Root      6 :     7.661750932223871   Change is   -0.015160404327582
 Root      7 :     7.732830569970859   Change is   -0.012188867750730
 Root      8 :     8.049920574624712   Change is   -0.001186648166287
 Root      9 :     8.376797603006587   Change is   -0.006849074631935
 Root     10 :     8.604234093724587   Change is   -0.000384812209691
 Root     11 :     9.241705865679968   Change is   -0.000554892291311
 Root     12 :     9.262475236571420   Change is   -0.015866838478443
 Root     13 :     9.867102408179225   Change is   -0.002580656729950
 Root     14 :    10.330252568593800   Change is   -0.003973418527084
 Root     15 :    10.332791504303240   Change is   -0.005926101503723
 Root     16 :    10.528897900953140   Change is   -0.007390520546245
 Root     17 :    10.847337374667340   Change is   -0.009190902659007
 Root     18 :    11.446229852346560   Change is   -0.002761083835288
 Root     19 :    11.541549680436800   Change is   -0.012902612641494
 Root     20 :    11.572285049055190   Change is   -0.001635595653400
 Root     21 :    11.651398645796860   Change is   -0.007692826349073
 Root     22 :    11.818519578897440   Change is   -0.002431177069247
 Root     23 :    11.921912320848430   Change is   -0.017586131025637
 Root     24 :    12.123763914716390   Change is   -0.000841365472271
 Root     25 :    12.255443814592110   Change is   -0.003570409565764
 Root     26 :    12.551453745792480   Change is   -0.011141798237936
 Root     27 :    13.008649958078180   Change is   -0.002271159621564
 Root     28 :    13.199460103266490   Change is   -0.009101730281300
 Root     29 :    13.321202335309910   Change is   -0.009103269079436
 Root     30 :    13.534929024882110   Change is   -0.006835409210778
 Iteration     3 Dimension   240 NMult   180 NNew     60
 CISAX will form    60 AO SS matrices at one time.
 NMat=    60 NSing=    60 JSym2X=-1.
 Root      1 has converged.
 Root      2 has converged.
 Root      3 has converged.
 Root      4 has converged.
 Root      5 has converged.
 Root      6 has converged.
 Root      7 has converged.
 Root      8 has converged.
 Root      9 has converged.
 Root     10 has converged.
 Root     11 has converged.
 Root     12 has converged.
 Root     13 has converged.
 Root     14 has converged.
 Root     15 has converged.
 Root     16 has converged.
 Root     17 has converged.
 Root     18 has converged.
 Root     19 has converged.
 Root     20 has converged.
 Root     21 has converged.
 Root     22 has converged.
 Root     23 has converged.
 Root     24 has converged.
 Root     25 has converged.
 Root     26 has converged.
 Root     27 has converged.
 Root     28 has converged.
 Root     29 has converged.
 Root     30 has converged.
 Excitation Energies [eV] at current iteration:
 Root      1 :     2.137539108427928   Change is   -0.000001186271495
 Root      2 :     5.453283799564234   Change is   -0.000021752587147
 Root      3 :     5.707099144772078   Change is   -0.000023761010537
 Root      4 :     6.437398518671882   Change is   -0.000014736083500
 Root      5 :     7.095726109607956   Change is   -0.000005922567897
 Root      6 :     7.661744179644242   Change is   -0.000006752579629
 Root      7 :     7.732824716436790   Change is   -0.000005853534069
 Root      8 :     8.049919424744788   Change is   -0.000001149879925
 Root      9 :     8.376794025841679   Change is   -0.000003577164909
 Root     10 :     8.604234039604410   Change is   -0.000000054120177
 Root     11 :     9.241705510697537   Change is   -0.000000354982432
 Root     12 :     9.262459442654954   Change is   -0.000015793916466
 Root     13 :     9.867097404642024   Change is   -0.000005003537200
 Root     14 :    10.330248940491400   Change is   -0.000003628102402
 Root     15 :    10.332779802405390   Change is   -0.000011701897845
 Root     16 :    10.528891689488520   Change is   -0.000006211464620
 Root     17 :    10.847317808798750   Change is   -0.000019565868587
 Root     18 :    11.446226660520000   Change is   -0.000003191826555
 Root     19 :    11.541511970375480   Change is   -0.000037710061321
 Root     20 :    11.572282851036390   Change is   -0.000002198018800
 Root     21 :    11.651389785659430   Change is   -0.000008860137435
 Root     22 :    11.818515441754580   Change is   -0.000004137142865
 Root     23 :    11.921886505238650   Change is   -0.000025815609775
 Root     24 :    12.123763361210060   Change is   -0.000000553506333
 Root     25 :    12.255442324980210   Change is   -0.000001489611896
 Root     26 :    12.551440818708200   Change is   -0.000012927084288
 Root     27 :    13.008645832581290   Change is   -0.000004125496887
 Root     28 :    13.199441417028420   Change is   -0.000018686238069
 Root     29 :    13.321183525572610   Change is   -0.000018809737302
 Root     30 :    13.534909836369670   Change is   -0.000019188512437
 Convergence achieved on expansion vectors.
 ***********************************************************************
 Excited states from <AA,BB:AA,BB> singles matrix:
 ***********************************************************************
 
 1PDM for each excited state written to RWF  633
 Ground to excited state transition densities written to RWF  633
 Ground to excited state transition electric dipole moments (Au):
       state          X           Y           Z        Dip. S.      Osc.
         1        -0.0000     -0.0000      0.0000      0.0000      0.0000
         2         0.0000     -0.0000      0.8036      0.6457      0.0863
         3         0.1024     -0.0000     -0.0000      0.0105      0.0015
         4         0.0000     -0.3344      0.0000      0.1118      0.0176
         5         0.0000     -0.1456     -0.0000      0.0212      0.0037
         6        -0.0000      0.0000      0.0000      0.0000      0.0000
         7        -0.0336      0.0000      0.0000      0.0011      0.0002
         8        -0.0000      0.0000     -0.3349      0.1121      0.0221
         9        -0.7208     -0.0000     -0.0000      0.5195      0.1066
        10         0.0000     -0.0000      0.0000      0.0000      0.0000
        11        -0.0000      0.0000     -0.0000      0.0000      0.0000
        12         0.0000     -0.1899      0.0000      0.0361      0.0082
        13        -0.0000      0.0000      0.1146      0.0131      0.0032
        14        -0.0000     -0.3878      0.0000      0.1504      0.0381
        15         0.0000     -0.0000     -0.6398      0.4094      0.1036
        16        -0.0644     -0.0000     -0.0000      0.0041      0.0011
        17        -0.0000      0.0000     -0.2702      0.0730      0.0194
        18        -0.3793     -0.0000     -0.0000      0.1438      0.0403
        19         0.0000     -0.0000     -1.0846      1.1763      0.3326
        20         0.0000     -0.3251      0.0000      0.1057      0.0300
        21         0.0000     -0.0140     -0.0000      0.0002      0.0001
        22        -0.0000      0.0000      0.0000      0.0000      0.0000
        23         0.0000      0.4409     -0.0000      0.1944      0.0568
        24        -0.1349      0.0000     -0.0000      0.0182      0.0054
        25         0.0000      0.0000     -0.0000      0.0000      0.0000
        26         0.0000     -0.5465     -0.0000      0.2987      0.0919
        27         0.1361      0.0000     -0.0000      0.0185      0.0059
        28         0.0000     -0.0000     -0.5744      0.3299      0.1067
        29         0.0000     -0.0000      0.8008      0.6412      0.2093
        30         0.0000     -0.0000      0.0918      0.0084      0.0028
 Ground to excited state transition velocity dipole moments (Au):
       state          X           Y           Z        Dip. S.      Osc.
         1         0.0000      0.0000     -0.0000      0.0000      0.0000
         2         0.0000      0.0000     -0.1480      0.0219      0.0728
         3        -0.0390      0.0000      0.0000      0.0015      0.0048
         4        -0.0000      0.0799      0.0000      0.0064      0.0180
         5        -0.0000      0.0351     -0.0000      0.0012      0.0031
         6         0.0000     -0.0000     -0.0000      0.0000      0.0000
         7         0.0016      0.0000     -0.0000      0.0000      0.0000
         8         0.0000     -0.0000      0.0969      0.0094      0.0212
         9         0.2233      0.0000      0.0000      0.0498      0.1079
        10        -0.0000     -0.0000     -0.0000      0.0000      0.0000
        11        -0.0000     -0.0000      0.0000      0.0000      0.0000
        12         0.0000      0.0699     -0.0000      0.0049      0.0096
        13        -0.0000     -0.0000     -0.0383      0.0015      0.0027
        14         0.0000      0.1502     -0.0000      0.0226      0.0396
        15        -0.0000      0.0000      0.2477      0.0614      0.1077
        16         0.0469      0.0000      0.0000      0.0022      0.0038
        17         0.0000     -0.0000      0.1196      0.0143      0.0239
        18         0.1482      0.0000      0.0000      0.0220      0.0348
        19        -0.0000      0.0000      0.4630      0.2144      0.3370
        20        -0.0000      0.1368     -0.0000      0.0187      0.0293
        21        -0.0000     -0.0053      0.0000      0.0000      0.0000
        22         0.0000     -0.0000     -0.0000      0.0000      0.0000
        23        -0.0000     -0.1947     -0.0000      0.0379      0.0577
        24         0.0553      0.0000      0.0000      0.0031      0.0046
        25        -0.0000     -0.0000      0.0000      0.0000      0.0000
        26        -0.0000      0.2461      0.0000      0.0606      0.0876
        27        -0.0573     -0.0000      0.0000      0.0033      0.0046
        28        -0.0000      0.0000      0.2648      0.0701      0.0964
        29        -0.0000      0.0000     -0.3834      0.1470      0.2002
        30         0.0000      0.0000     -0.0426      0.0018      0.0024
 Ground to excited state transition magnetic dipole moments (Au):
       state          X           Y           Z
         1        -0.0000     -0.0000      1.0519
         2        -0.0000      0.0000      0.0000
         3        -0.0000     -1.7081      0.0000
         4         0.1566      0.0000     -0.0000
         5        -0.4434      0.0000      0.0000
         6         0.0000      0.0000     -0.9552
         7         0.0000     -0.3992     -0.0000
         8         0.0000      0.0000     -0.0000
         9        -0.0000     -0.2981      0.0000
        10        -0.0000      0.0000      0.0086
        11         0.0000     -0.0000      0.0281
        12        -0.5752      0.0000     -0.0000
        13         0.0000     -0.0000      0.0000
        14         0.4315     -0.0000      0.0000
        15         0.0000     -0.0000     -0.0000
        16         0.0000      0.4089      0.0000
        17         0.0000      0.0000     -0.0000
        18         0.0000      0.3333      0.0000
        19        -0.0000     -0.0000     -0.0000
        20        -0.1389     -0.0000     -0.0000
        21         0.1959     -0.0000     -0.0000
        22        -0.0000      0.0000     -0.0506
        23         0.1307      0.0000      0.0000
        24        -0.0000      0.1401     -0.0000
        25         0.0000      0.0000     -0.0339
        26         1.0048      0.0000     -0.0000
        27         0.0000     -0.0379      0.0000
        28         0.0000      0.0000     -0.0000
        29         0.0000     -0.0000     -0.0000
        30         0.0000      0.0000     -0.0000
 Ground to excited state transition velocity quadrupole moments (Au):
       state          XX          YY          ZZ          XY          XZ          YZ
         1         0.0000      0.0000      0.0000     -0.0410     -0.0000      0.0000
         2         0.0981     -0.0046     -0.0571      0.0000      0.0000      0.0000
         3         0.0000      0.0000      0.0000      0.0000     -0.1694      0.0000
         4        -0.0000     -0.0000      0.0000     -0.0000      0.0000     -0.1057
         5        -0.0000     -0.0000      0.0000     -0.0000      0.0000      0.3285
         6         0.0000      0.0000      0.0000      0.1825     -0.0000      0.0000
         7         0.0000      0.0000      0.0000      0.0000      0.2644     -0.0000
         8         0.0257     -0.0193     -0.2330     -0.0000      0.0000     -0.0000
         9        -0.0000     -0.0000      0.0000      0.0000      0.0204     -0.0000
        10         0.0000      0.0000     -0.0000      0.0356      0.0000      0.0000
        11         0.0000     -0.0000      0.0000      0.2856      0.0000     -0.0000
        12         0.0000      0.0000      0.0000      0.0000      0.0000      0.1882
        13         0.8078      0.0344     -0.0613     -0.0000      0.0000     -0.0000
        14        -0.0000     -0.0000      0.0000      0.0000      0.0000     -0.1350
        15         0.0443      0.0594     -0.3167      0.0000     -0.0000     -0.0000
        16         0.0000     -0.0000      0.0000      0.0000      0.2672     -0.0000
        17         0.2681      0.3847      0.5240      0.0000      0.0000     -0.0000
        18        -0.0000     -0.0000     -0.0000      0.0000     -0.0053      0.0000
        19        -0.0260     -0.3874     -0.2518     -0.0000      0.0000     -0.0000
        20        -0.0000      0.0000     -0.0000     -0.0000     -0.0000     -0.3603
        21         0.0000      0.0000      0.0000     -0.0000     -0.0000      0.4304
        22         0.0000      0.0000      0.0000     -0.2553      0.0000      0.0000
        23        -0.0000      0.0000     -0.0000      0.0000      0.0000      0.8065
        24        -0.0000     -0.0000     -0.0000     -0.0000     -0.1202     -0.0000
        25        -0.0000     -0.0000     -0.0000      0.3839     -0.0000      0.0000
        26         0.0000      0.0000      0.0000      0.0000      0.0000     -0.1949
        27        -0.0000      0.0000      0.0000      0.0000      0.2628      0.0000
        28        -0.0697      0.2398      0.1816      0.0000      0.0000     -0.0000
        29        -0.2050      0.8797     -0.0036      0.0000      0.0000     -0.0000
        30         0.2050      0.6214      0.3960      0.0000      0.0000      0.0000
 <0|del|b> * <b|rxdel|0> + <0|del|b> * <b|delr+rdel|0>
 Rotatory Strengths (R) in cgs (10**-40 erg-esu-cm/Gauss)
       state          XX          YY          ZZ    R(velocity)    E-M Angle
         1        -0.0000     -0.0000     -0.0000     -0.0000       90.00
         2        -0.0000     -0.0000     -0.0000     -0.0000       90.00
         3        -0.0000      0.0000     -0.0000     -0.0000       90.00
         4         0.0000     -0.0000      0.0000      0.0000       90.00
         5         0.0000      0.0000      0.0000      0.0000       90.00
         6         0.0000      0.0000     -0.0000      0.0000       90.00
         7        -0.0000      0.0000     -0.0000     -0.0000       90.00
         8        -0.0000      0.0000     -0.0000     -0.0000       90.00
         9        -0.0000     -0.0000     -0.0000     -0.0000       90.00
        10        -0.0000      0.0000      0.0000     -0.0000       90.00
        11         0.0000     -0.0000     -0.0000      0.0000       90.00
        12         0.0000     -0.0000     -0.0000     -0.0000       90.00
        13         0.0000     -0.0000     -0.0000     -0.0000       90.00
        14        -0.0000      0.0000      0.0000      0.0000       90.00
        15        -0.0000     -0.0000     -0.0000     -0.0000       90.00
        16         0.0000     -0.0000      0.0000      0.0000       90.00
        17         0.0000     -0.0000     -0.0000     -0.0000       90.00
        18         0.0000      0.0000      0.0000      0.0000       90.00
        19        -0.0000      0.0000      0.0000     -0.0000       90.00
        20        -0.0000      0.0000     -0.0000     -0.0000       90.00
        21         0.0000     -0.0000      0.0000     -0.0000       90.00
        22         0.0000     -0.0000     -0.0000      0.0000       90.00
        23        -0.0000     -0.0000     -0.0000     -0.0000       90.00
        24         0.0000     -0.0000      0.0000      0.0000       90.00
        25         0.0000     -0.0000      0.0000     -0.0000       90.00
        26        -0.0000     -0.0000      0.0000      0.0000       90.00
        27         0.0000     -0.0000     -0.0000     -0.0000       90.00
        28         0.0000     -0.0000      0.0000     -0.0000       90.00
        29        -0.0000      0.0000     -0.0000      0.0000       90.00
        30        -0.0000      0.0000      0.0000      0.0000       90.00
 1/2[<0|r|b>*<b|rxdel|0> + (<0|rxdel|b>*<b|r|0>)*]
 Rotatory Strengths (R) in cgs (10**-40 erg-esu-cm/Gauss)
       state          XX          YY          ZZ     R(length)
         1        -0.0000     -0.0000     -0.0000     -0.0000
         2         0.0000      0.0000     -0.0000     -0.0000
         3         0.0000     -0.0000      0.0000     -0.0000
         4        -0.0000      0.0000      0.0000      0.0000
         5         0.0000      0.0000      0.0000      0.0000
         6         0.0000     -0.0000      0.0000      0.0000
         7         0.0000      0.0000      0.0000      0.0000
         8         0.0000     -0.0000     -0.0000     -0.0000
         9        -0.0000     -0.0000      0.0000     -0.0000
        10         0.0000      0.0000     -0.0000     -0.0000
        11         0.0000      0.0000      0.0000      0.0000
        12         0.0000      0.0000      0.0000      0.0000
        13         0.0000      0.0000     -0.0000     -0.0000
        14         0.0000     -0.0000     -0.0000      0.0000
        15        -0.0000     -0.0000     -0.0000     -0.0000
        16         0.0000      0.0000      0.0000      0.0000
        17         0.0000     -0.0000     -0.0000     -0.0000
        18         0.0000      0.0000      0.0000      0.0000
        19         0.0000     -0.0000     -0.0000     -0.0000
        20         0.0000     -0.0000      0.0000     -0.0000
        21        -0.0000     -0.0000     -0.0000     -0.0000
        22        -0.0000     -0.0000      0.0000      0.0000
        23        -0.0000     -0.0000      0.0000     -0.0000
        24        -0.0000     -0.0000     -0.0000     -0.0000
        25        -0.0000     -0.0000     -0.0000     -0.0000
        26        -0.0000      0.0000     -0.0000      0.0000
        27        -0.0000      0.0000      0.0000     -0.0000
        28        -0.0000      0.0000     -0.0000     -0.0000
        29        -0.0000     -0.0000      0.0000      0.0000
        30        -0.0000      0.0000      0.0000      0.0000
  1/2[<0|del|b>*<b|r|0> + (<0|r|b>*<b|del|0>)*] (Au)
       state          X           Y           Z        Dip. S.   Osc.(frdel)
         1        -0.0000     -0.0000     -0.0000      0.0000      0.0000
         2         0.0000     -0.0000     -0.1189      0.1189      0.0793
         3        -0.0040     -0.0000     -0.0000      0.0040      0.0027
         4        -0.0000     -0.0267      0.0000      0.0267      0.0178
         5        -0.0000     -0.0051      0.0000      0.0051      0.0034
         6        -0.0000     -0.0000     -0.0000      0.0000      0.0000
         7        -0.0001      0.0000     -0.0000      0.0001      0.0000
         8        -0.0000     -0.0000     -0.0325      0.0325      0.0216
         9        -0.1609     -0.0000     -0.0000      0.1609      0.1073
        10        -0.0000      0.0000     -0.0000      0.0000      0.0000
        11         0.0000     -0.0000     -0.0000      0.0000      0.0000
        12         0.0000     -0.0133     -0.0000      0.0133      0.0088
        13         0.0000     -0.0000     -0.0044      0.0044      0.0029
        14        -0.0000     -0.0583     -0.0000      0.0583      0.0388
        15        -0.0000     -0.0000     -0.1585      0.1585      0.1057
        16        -0.0030     -0.0000     -0.0000      0.0030      0.0020
        17        -0.0000     -0.0000     -0.0323      0.0323      0.0215
        18        -0.0562     -0.0000     -0.0000      0.0562      0.0375
        19        -0.0000     -0.0000     -0.5022      0.5022      0.3348
        20        -0.0000     -0.0445     -0.0000      0.0445      0.0296
        21        -0.0000      0.0001     -0.0000     -0.0001     -0.0000
        22        -0.0000     -0.0000     -0.0000      0.0000      0.0000
        23        -0.0000     -0.0858      0.0000      0.0858      0.0572
        24        -0.0075      0.0000     -0.0000      0.0075      0.0050
        25        -0.0000     -0.0000     -0.0000      0.0000      0.0000
        26        -0.0000     -0.1345     -0.0000      0.1345      0.0897
        27        -0.0078     -0.0000     -0.0000      0.0078      0.0052
        28        -0.0000     -0.0000     -0.1521      0.1521      0.1014
        29        -0.0000     -0.0000     -0.3070      0.3070      0.2047
        30         0.0000     -0.0000     -0.0039      0.0039      0.0026

 Excitation energies and oscillator strengths:
 
 Excited State   1:      Singlet-A2     2.1375 eV  580.03 nm  f=0.0000  <S**2>=0.000
       3 -> 27         0.00129
       3 -> 38         0.00097
       3 -> 46         0.00325
       4 -> 27         0.00078
       4 -> 38        -0.00016
       4 -> 46        -0.00134
       5 ->  9         0.00877
       5 -> 13         0.00081
       5 -> 18         0.00314
       5 -> 23         0.00160
       5 -> 28         0.00276
       5 -> 31        -0.00024
       5 -> 37         0.00154
       5 -> 44         0.00036
       5 -> 52         0.00038
       6 -> 27        -0.00062
       6 -> 38        -0.00080
       6 -> 46         0.00140
       7 -> 12        -0.00086
       7 -> 16         0.00461
       7 -> 19        -0.00393
       7 -> 22        -0.00068
       7 -> 25         0.00101
       7 -> 30        -0.00147
       7 -> 33         0.00038
       7 -> 49         0.00013
       7 -> 50         0.00018
       7 -> 53         0.00045
       8 ->  9         0.70822
       8 -> 13        -0.01480
       8 -> 18         0.02175
       8 -> 23        -0.00401
       8 -> 28         0.01107
       8 -> 31         0.00086
       8 -> 37         0.00065
       8 -> 48        -0.00031
       8 -> 52         0.00194
       3 <- 27         0.00063
       3 <- 38         0.00069
       3 <- 46         0.00331
       4 <- 27         0.00133
       4 <- 38         0.00023
       4 <- 46        -0.00108
       5 <-  9        -0.00033
       5 <- 13        -0.00055
       5 <- 18        -0.00073
       5 <- 23         0.00030
       5 <- 28        -0.00051
       5 <- 31         0.00038
       5 <- 37         0.00085
       5 <- 44         0.00012
       6 <- 38        -0.00066
       6 <- 46         0.00109
       7 <- 12         0.00046
       7 <- 16        -0.00988
       7 <- 19         0.00340
       7 <- 22         0.00705
       7 <- 25         0.00050
       7 <- 30         0.00516
       7 <- 33        -0.00058
       7 <- 36         0.00098
       7 <- 40         0.00055
       7 <- 42         0.00013
       7 <- 49        -0.00036
       7 <- 50         0.00011
       7 <- 53         0.00146
       8 <-  9        -0.04812
       8 <- 13         0.00066
       8 <- 18        -0.00637
       8 <- 23         0.00025
       8 <- 28        -0.00227
       8 <- 31        -0.00060
       8 <- 37        -0.00052
       8 <- 52         0.00052
 This state for optimization and/or second-order correction.
 Total Energy, E(TD-HF/TD-DFT) =  -114.364298470    
 Copying the excited state density for this state as the 1-particle RhoCI density.
 
 Excited State   2:      Singlet-A1     5.4533 eV  227.36 nm  f=0.0863  <S**2>=0.000
       3 -> 10        -0.01290
       3 -> 11        -0.01594
       3 -> 14         0.01284
       3 -> 15         0.01029
       3 -> 17        -0.00361
       3 -> 20        -0.00368
       3 -> 21        -0.00173
       3 -> 24         0.00302
       3 -> 26         0.00464
       3 -> 29        -0.00097
       3 -> 32         0.00278
       3 -> 34         0.00293
       3 -> 35        -0.00066
       3 -> 39         0.00092
       3 -> 43         0.00043
       3 -> 45        -0.00029
       3 -> 47         0.00220
       3 -> 51         0.00090
       3 -> 54         0.00023
       4 -> 10        -0.01519
       4 -> 11         0.01136
       4 -> 14         0.00797
       4 -> 15        -0.00936
       4 -> 17         0.00322
       4 -> 20         0.00611
       4 -> 21         0.00040
       4 -> 24        -0.00544
       4 -> 26         0.00535
       4 -> 29         0.00114
       4 -> 32        -0.00129
       4 -> 34        -0.00203
       4 -> 35         0.00026
       4 -> 39        -0.00013
       4 -> 41         0.00014
       4 -> 43        -0.00039
       4 -> 45        -0.00067
       4 -> 47        -0.00140
       4 -> 51        -0.00030
       5 -> 12         0.01933
       5 -> 16         0.01376
       5 -> 19         0.00154
       5 -> 22         0.00703
       5 -> 25         0.00914
       5 -> 30        -0.00059
       5 -> 33        -0.00318
       5 -> 36         0.00268
       5 -> 40         0.00154
       5 -> 42         0.00062
       5 -> 49         0.00052
       5 -> 50        -0.00064
       5 -> 53        -0.00017
       6 -> 10         0.10629
       6 -> 11         0.11199
       6 -> 14        -0.09300
       6 -> 15        -0.08821
       6 -> 17        -0.02050
       6 -> 20        -0.01448
       6 -> 21         0.01614
       6 -> 24        -0.01581
       6 -> 26        -0.00783
       6 -> 29        -0.00860
       6 -> 32         0.00046
       6 -> 34         0.00161
       6 -> 35        -0.00103
       6 -> 39         0.00072
       6 -> 41        -0.00050
       6 -> 43         0.00076
       6 -> 45         0.00068
       6 -> 47         0.00143
       6 -> 51         0.00084
       6 -> 54        -0.00058
       7 ->  9         0.68520
       7 -> 13         0.00365
       7 -> 18        -0.02026
       7 -> 23         0.00103
       7 -> 28        -0.00210
       7 -> 31        -0.00287
       7 -> 37         0.00074
       7 -> 44        -0.00106
       7 -> 48         0.00047
       7 -> 52         0.00104
       8 -> 12        -0.00649
       8 -> 16         0.07928
       8 -> 19        -0.02524
       8 -> 22        -0.03028
       8 -> 25         0.00096
       8 -> 30        -0.01287
       8 -> 33         0.00274
       8 -> 36        -0.00339
       8 -> 40        -0.00159
       8 -> 42        -0.00034
       8 -> 49         0.00064
       8 -> 50         0.00026
       8 -> 53        -0.00076
       3 <- 10        -0.00831
       3 <- 11        -0.01082
       3 <- 14         0.00931
       3 <- 15         0.00695
       3 <- 17        -0.00182
       3 <- 20        -0.00254
       3 <- 21        -0.00192
       3 <- 24         0.00195
       3 <- 26         0.00284
       3 <- 29        -0.00056
       3 <- 32         0.00255
       3 <- 34         0.00193
       3 <- 35        -0.00059
       3 <- 39         0.00079
       3 <- 41         0.00010
       3 <- 43         0.00051
       3 <- 45        -0.00010
       3 <- 47         0.00235
       3 <- 51         0.00087
       3 <- 54         0.00032
       4 <- 10        -0.00746
       4 <- 11         0.00693
       4 <- 14         0.00391
       4 <- 15        -0.00550
       4 <- 17         0.00156
       4 <- 20         0.00480
       4 <- 21         0.00031
       4 <- 24        -0.00361
       4 <- 26         0.00412
       4 <- 29         0.00030
       4 <- 32        -0.00162
       4 <- 34        -0.00179
       4 <- 35         0.00047
       4 <- 39        -0.00020
       4 <- 43        -0.00038
       4 <- 45        -0.00085
       4 <- 47        -0.00100
       4 <- 51        -0.00014
       5 <- 12         0.00807
       5 <- 16         0.00666
       5 <- 19         0.00104
       5 <- 22         0.00420
       5 <- 25         0.00601
       5 <- 30        -0.00027
       5 <- 33        -0.00243
       5 <- 36         0.00216
       5 <- 40         0.00133
       5 <- 42         0.00050
       5 <- 49         0.00045
       5 <- 50        -0.00058
       5 <- 53        -0.00015
       6 <- 10         0.02968
       6 <- 11         0.03342
       6 <- 14        -0.03481
       6 <- 15        -0.03587
       6 <- 17        -0.00942
       6 <- 20        -0.00842
       6 <- 21         0.00903
       6 <- 24        -0.00939
       6 <- 26        -0.00460
       6 <- 29        -0.00578
       6 <- 32         0.00094
       6 <- 34         0.00193
       6 <- 35        -0.00100
       6 <- 39         0.00082
       6 <- 41        -0.00034
       6 <- 43         0.00066
       6 <- 45         0.00069
       6 <- 47         0.00094
       6 <- 51         0.00066
       6 <- 54        -0.00048
       7 <-  9        -0.12095
       7 <- 13         0.00837
       7 <- 18        -0.01422
       7 <- 23         0.00419
       7 <- 28        -0.00434
       7 <- 31        -0.00125
       7 <- 37         0.00021
       7 <- 44        -0.00059
       7 <- 48        -0.00012
       7 <- 52         0.00090
       8 <- 12        -0.00129
       8 <- 16         0.02558
       8 <- 19        -0.01002
       8 <- 22        -0.01563
       8 <- 25         0.00027
       8 <- 30        -0.00905
       8 <- 33         0.00201
       8 <- 36        -0.00255
       8 <- 40        -0.00127
       8 <- 42        -0.00027
       8 <- 49         0.00043
       8 <- 50         0.00021
       8 <- 53        -0.00069
 
 Excited State   3:      Singlet-B1     5.7071 eV  217.25 nm  f=0.0015  <S**2>=0.000
       3 ->  9        -0.02995
       3 -> 13         0.00199
       3 -> 18        -0.00497
       3 -> 23         0.00199
       3 -> 28        -0.00108
       3 -> 31        -0.00048
       3 -> 44         0.00027
       3 -> 48         0.00090
       3 -> 52         0.00100
       4 ->  9         0.01415
       4 -> 13        -0.00269
       4 -> 18         0.00034
       4 -> 23        -0.00245
       4 -> 28         0.00022
       4 -> 31        -0.00162
       4 -> 37        -0.00043
       4 -> 44         0.00012
       4 -> 48        -0.00119
       4 -> 52        -0.00064
       5 -> 27        -0.00032
       5 -> 38         0.00201
       5 -> 46         0.00109
       6 ->  9         0.70575
       6 -> 13        -0.02123
       6 -> 18         0.01749
       6 -> 23        -0.01118
       6 -> 28         0.00460
       6 -> 31         0.00346
       6 -> 37        -0.00227
       6 -> 44        -0.00301
       6 -> 48         0.00433
       6 -> 52         0.00153
       7 -> 10         0.02241
       7 -> 11         0.02124
       7 -> 14        -0.01394
       7 -> 15        -0.00798
       7 -> 17        -0.00944
       7 -> 20         0.00270
       7 -> 21        -0.00018
       7 -> 24        -0.00032
       7 -> 26        -0.00127
       7 -> 29        -0.00404
       7 -> 32        -0.00076
       7 -> 34         0.00048
       7 -> 35         0.00184
       7 -> 39         0.00013
       7 -> 41        -0.00070
       7 -> 43         0.00059
       7 -> 45        -0.00101
       7 -> 47         0.00433
       7 -> 51         0.00117
       7 -> 54         0.00047
       8 -> 27         0.00070
       8 -> 38         0.00017
       8 -> 46         0.00558
       3 <-  9        -0.00996
       3 <- 13        -0.00051
       3 <- 18        -0.00300
       3 <- 23        -0.00048
       3 <- 28        -0.00071
       3 <- 31        -0.00064
       3 <- 44        -0.00027
       3 <- 48         0.00109
       3 <- 52         0.00079
       4 <-  9         0.00669
       4 <- 13        -0.00019
       4 <- 18         0.00206
       4 <- 23        -0.00053
       4 <- 28         0.00175
       4 <- 31        -0.00112
       4 <- 37        -0.00019
       4 <- 44         0.00012
       4 <- 48        -0.00103
       4 <- 52        -0.00037
       5 <- 27        -0.00083
       5 <- 38         0.00161
       5 <- 46         0.00097
       6 <-  9        -0.02427
       6 <- 13         0.00173
       6 <- 18        -0.00316
       6 <- 23        -0.00027
       6 <- 28        -0.00326
       6 <- 31         0.00144
       6 <- 37        -0.00201
       6 <- 44        -0.00169
       6 <- 48         0.00387
       6 <- 52         0.00054
       7 <- 10        -0.01067
       7 <- 11        -0.01183
       7 <- 14         0.01275
       7 <- 15         0.01485
       7 <- 17         0.00113
       7 <- 20         0.00533
       7 <- 21        -0.00467
       7 <- 24         0.00461
       7 <- 26         0.00187
       7 <- 29         0.00094
       7 <- 32        -0.00038
       7 <- 34         0.00022
       7 <- 35         0.00285
       7 <- 39         0.00041
       7 <- 41        -0.00033
       7 <- 43         0.00047
       7 <- 45        -0.00108
       7 <- 47         0.00392
       7 <- 51         0.00099
       7 <- 54         0.00109
       8 <- 27         0.00112
       8 <- 38         0.00035
       8 <- 46         0.00516
 
 Excited State   4:      Singlet-B2     6.4374 eV  192.60 nm  f=0.0176  <S**2>=0.000
       3 -> 12        -0.00164
       3 -> 16         0.00169
       3 -> 19        -0.00414
       3 -> 22         0.00035
       3 -> 30        -0.00309
       3 -> 33        -0.00035
       3 -> 36         0.00204
       3 -> 40         0.00161
       3 -> 42         0.00017
       3 -> 49        -0.00222
       3 -> 50         0.00022
       3 -> 53         0.00026
       4 -> 12         0.00050
       4 -> 16        -0.00288
       4 -> 19        -0.00029
       4 -> 22         0.00339
       4 -> 25        -0.00245
       4 -> 30         0.00133
       4 -> 33        -0.00045
       4 -> 36         0.00048
       4 -> 40        -0.00051
       4 -> 49         0.00032
       5 -> 10         0.00234
       5 -> 11         0.00542
       5 -> 14        -0.01432
       5 -> 15         0.00111
       5 -> 17         0.00126
       5 -> 20         0.00179
       5 -> 21         0.00667
       5 -> 24         0.00188
       5 -> 26        -0.00207
       5 -> 29        -0.00194
       5 -> 32        -0.00103
       5 -> 34        -0.00133
       5 -> 35        -0.00062
       5 -> 39        -0.00090
       5 -> 41         0.00081
       5 -> 45         0.00025
       5 -> 47        -0.00081
       5 -> 51         0.00049
       5 -> 54        -0.00023
       6 -> 12         0.00345
       6 -> 16        -0.00134
       6 -> 19         0.00245
       6 -> 22         0.00018
       6 -> 25        -0.00076
       6 -> 30        -0.00054
       6 -> 33         0.00044
       6 -> 36        -0.00218
       6 -> 40        -0.00167
       6 -> 42        -0.00027
       6 -> 49         0.00141
       6 -> 53        -0.00030
       7 -> 27        -0.00058
       7 -> 38         0.00097
       7 -> 46         0.00331
       8 -> 10         0.63053
       8 -> 11         0.28971
       8 -> 14        -0.11269
       8 -> 15        -0.07473
       8 -> 17        -0.01022
       8 -> 20        -0.00395
       8 -> 21         0.00518
       8 -> 24        -0.00558
       8 -> 26        -0.00550
       8 -> 29        -0.00857
       8 -> 32        -0.00224
       8 -> 34        -0.00151
       8 -> 35        -0.00066
       8 -> 39        -0.00050
       8 -> 41         0.00041
       8 -> 43        -0.00057
       8 -> 45         0.00210
       8 -> 47        -0.00361
       8 -> 51         0.00203
       8 -> 54        -0.00130
       3 <- 12        -0.00057
       3 <- 16         0.00038
       3 <- 19        -0.00194
       3 <- 22         0.00084
       3 <- 25         0.00018
       3 <- 30        -0.00123
       3 <- 33        -0.00031
       3 <- 36         0.00162
       3 <- 40         0.00145
       3 <- 42         0.00015
       3 <- 49        -0.00229
       3 <- 50         0.00018
       3 <- 53         0.00075
       4 <- 12        -0.00037
       4 <- 16        -0.00245
       4 <- 19        -0.00049
       4 <- 22         0.00280
       4 <- 25        -0.00150
       4 <- 30         0.00110
       4 <- 33        -0.00054
       4 <- 36         0.00067
       4 <- 40        -0.00015
       4 <- 42         0.00015
       4 <- 49         0.00024
       5 <- 10         0.00105
       5 <- 11        -0.00149
       5 <- 14        -0.00277
       5 <- 15         0.00366
       5 <- 17         0.00025
       5 <- 20         0.00037
       5 <- 21         0.00206
       5 <- 24         0.00276
       5 <- 26        -0.00073
       5 <- 29        -0.00050
       5 <- 32         0.00030
       5 <- 34        -0.00041
       5 <- 39        -0.00029
       5 <- 41         0.00078
       5 <- 43         0.00013
       5 <- 45         0.00054
       5 <- 47        -0.00060
       5 <- 51         0.00026
       6 <- 12         0.00017
       6 <- 16         0.00448
       6 <- 19        -0.00203
       6 <- 22        -0.00319
       6 <- 25        -0.00036
       6 <- 30        -0.00391
       6 <- 33         0.00068
       6 <- 36        -0.00216
       6 <- 40        -0.00163
       6 <- 42        -0.00032
       6 <- 49         0.00147
       6 <- 53        -0.00086
       7 <- 27        -0.00058
       7 <- 38         0.00075
       7 <- 46         0.00271
       8 <- 10        -0.00896
       8 <- 11        -0.01055
       8 <- 14         0.01050
       8 <- 15         0.00587
       8 <- 17         0.00022
       8 <- 20        -0.00197
       8 <- 21        -0.00235
       8 <- 24         0.00093
       8 <- 26         0.00201
       8 <- 29        -0.00082
       8 <- 32         0.00184
       8 <- 34         0.00135
       8 <- 39         0.00130
       8 <- 41         0.00060
       8 <- 43         0.00012
       8 <- 45         0.00252
       8 <- 47        -0.00251
       8 <- 51         0.00119
       8 <- 54        -0.00031
 
 Excited State   5:      Singlet-B2     7.0957 eV  174.73 nm  f=0.0037  <S**2>=0.000
       3 -> 12         0.00134
       3 -> 16         0.00168
       3 -> 19        -0.00119
       3 -> 22        -0.00039
       3 -> 25         0.00097
       3 -> 30        -0.00267
       3 -> 36         0.00067
       3 -> 40         0.00060
       3 -> 49        -0.00087
       4 -> 12        -0.00142
       4 -> 16         0.00037
       4 -> 19         0.00090
       4 -> 22        -0.00061
       4 -> 25         0.00043
       4 -> 30         0.00142
       4 -> 33        -0.00023
       4 -> 36         0.00042
       4 -> 50        -0.00012
       5 -> 10         0.00812
       5 -> 11        -0.00119
       5 -> 14         0.00013
       5 -> 15         0.00596
       5 -> 17         0.00129
       5 -> 20         0.00213
       5 -> 21         0.00071
       5 -> 24        -0.00022
       5 -> 26        -0.00056
       5 -> 29        -0.00062
       5 -> 32        -0.00158
       5 -> 34         0.00017
       5 -> 35        -0.00044
       5 -> 39        -0.00067
       5 -> 43        -0.00035
       5 -> 45         0.00038
       5 -> 47        -0.00046
       5 -> 51         0.00032
       6 -> 12        -0.00105
       6 -> 16        -0.00025
       6 -> 19         0.00062
       6 -> 22        -0.00106
       6 -> 25         0.00011
       6 -> 30        -0.00092
       6 -> 36        -0.00034
       6 -> 40        -0.00078
       6 -> 42        -0.00022
       6 -> 49         0.00139
       6 -> 50        -0.00012
       6 -> 53        -0.00013
       7 -> 27        -0.00067
       7 -> 38        -0.00011
       7 -> 46         0.00206
       8 -> 10        -0.30138
       8 -> 11         0.63755
       8 -> 14        -0.01804
       8 -> 15        -0.04496
       8 -> 17        -0.00614
       8 -> 20         0.01536
       8 -> 21         0.00414
       8 -> 24        -0.00386
       8 -> 26         0.00105
       8 -> 29        -0.00355
       8 -> 32        -0.00058
       8 -> 34        -0.00085
       8 -> 35        -0.00078
       8 -> 39         0.00012
       8 -> 43         0.00016
       8 -> 45         0.00165
       8 -> 47        -0.00218
       8 -> 51         0.00116
       8 -> 54        -0.00040
       3 <- 16         0.00076
       3 <- 19        -0.00083
       3 <- 22        -0.00023
       3 <- 25         0.00043
       3 <- 30        -0.00134
       3 <- 36         0.00053
       3 <- 40         0.00052
       3 <- 49        -0.00086
       3 <- 53         0.00035
       4 <- 12         0.00047
       4 <- 16         0.00032
       4 <- 19         0.00093
       4 <- 22        -0.00013
       4 <- 25         0.00043
       4 <- 30         0.00098
       4 <- 33        -0.00021
       4 <- 36         0.00032
       4 <- 42        -0.00011
       4 <- 50        -0.00014
       5 <- 10        -0.00127
       5 <- 11        -0.00118
       5 <- 14         0.00115
       5 <- 15         0.00120
       5 <- 20         0.00030
       5 <- 21         0.00059
       5 <- 24        -0.00034
       5 <- 26         0.00046
       5 <- 29        -0.00028
       5 <- 32        -0.00045
       5 <- 34         0.00060
       5 <- 39        -0.00026
       5 <- 43        -0.00021
       5 <- 45         0.00046
       5 <- 47        -0.00043
       5 <- 51         0.00022
       6 <- 12        -0.00025
       6 <- 16         0.00168
       6 <- 19        -0.00071
       6 <- 22        -0.00147
       6 <- 25         0.00010
       6 <- 30        -0.00170
       6 <- 33         0.00013
       6 <- 36        -0.00046
       6 <- 40        -0.00077
       6 <- 42        -0.00024
       6 <- 49         0.00124
       6 <- 50        -0.00011
       6 <- 53        -0.00026
       7 <- 27        -0.00053
       7 <- 46         0.00173
       8 <- 10        -0.00360
       8 <- 11        -0.00520
       8 <- 14         0.00388
       8 <- 15         0.00344
       8 <- 17        -0.00102
       8 <- 20        -0.00270
       8 <- 21        -0.00055
       8 <- 24         0.00112
       8 <- 26         0.00066
       8 <- 29        -0.00094
       8 <- 32         0.00187
       8 <- 34         0.00136
       8 <- 35        -0.00082
       8 <- 39         0.00089
       8 <- 41         0.00040
       8 <- 43         0.00023
       8 <- 45         0.00154
       8 <- 47        -0.00160
       8 <- 51         0.00082
 
 Excited State   6:      Singlet-A2     7.6617 eV  161.82 nm  f=0.0000  <S**2>=0.000
       3 -> 27        -0.00130
       3 -> 38        -0.00049
       3 -> 46         0.00034
       4 -> 27        -0.00588
       4 -> 38         0.00047
       4 -> 46        -0.00040
       5 ->  9         0.70589
       5 -> 13        -0.02787
       5 -> 18         0.00652
       5 -> 23        -0.01526
       5 -> 28         0.00109
       5 -> 31        -0.00107
       5 -> 37        -0.00584
       5 -> 44        -0.00211
       5 -> 48        -0.00020
       5 -> 52         0.00013
       6 -> 27        -0.00112
       6 -> 38         0.00212
       6 -> 46         0.00033
       7 -> 12         0.01472
       7 -> 16         0.01388
       7 -> 19         0.00105
       7 -> 22        -0.00509
       7 -> 25         0.00032
       7 -> 30        -0.00080
       7 -> 33        -0.00041
       7 -> 36        -0.00038
       7 -> 40        -0.00012
       7 -> 42        -0.00026
       7 -> 49        -0.00018
       7 -> 50        -0.00080
       8 ->  9        -0.00866
       8 -> 13         0.01648
       8 -> 18         0.00654
       8 -> 23         0.00278
       8 -> 28         0.00147
       8 -> 31         0.00100
       8 -> 37         0.00202
       8 -> 44         0.00022
       8 -> 48         0.00012
       8 -> 52         0.00037
       3 <- 27        -0.00150
       3 <- 38        -0.00061
       3 <- 46         0.00044
       4 <- 27        -0.00517
       4 <- 38         0.00016
       5 <-  9        -0.01251
       5 <- 13         0.00200
       5 <- 18        -0.00020
       5 <- 28         0.00182
       5 <- 31        -0.00286
       5 <- 37        -0.00340
       5 <- 44        -0.00039
       5 <- 48        -0.00026
       6 <- 27        -0.00148
       6 <- 38         0.00154
       6 <- 46         0.00019
       7 <- 12        -0.00246
       7 <- 16        -0.00096
       7 <- 19        -0.00031
       7 <- 22        -0.00340
       7 <- 25        -0.00310
       7 <- 30         0.00014
       7 <- 33         0.00043
       7 <- 36        -0.00088
       7 <- 40        -0.00061
       7 <- 42        -0.00059
       7 <- 49        -0.00037
       7 <- 50        -0.00089
       7 <- 53         0.00022
       8 <-  9         0.00019
       8 <- 13        -0.00045
       8 <- 18        -0.00147
       8 <- 23        -0.00011
       8 <- 28        -0.00197
       8 <- 31         0.00128
       8 <- 37         0.00097
 
 Excited State   7:      Singlet-B1     7.7328 eV  160.33 nm  f=0.0002  <S**2>=0.000
       3 ->  9        -0.01471
       3 -> 13         0.00072
       3 -> 18        -0.00255
       3 -> 23         0.00121
       3 -> 28        -0.00289
       3 -> 31        -0.00102
       3 -> 44         0.00052
       3 -> 48        -0.00146
       4 ->  9        -0.03493
       4 -> 13         0.00540
       4 -> 18         0.00159
       4 -> 23         0.00435
       4 -> 28         0.00212
       4 -> 31        -0.00068
       4 -> 37         0.00047
       4 -> 44        -0.00027
       4 -> 48         0.00033
       5 -> 27        -0.00669
       5 -> 38        -0.00260
       5 -> 46         0.00069
       6 ->  9        -0.02920
       6 -> 13        -0.00471
       6 -> 18         0.00221
       6 -> 23        -0.00177
       6 -> 28         0.00262
       6 -> 31        -0.00304
       6 -> 37         0.00138
       6 -> 44        -0.00042
       6 -> 48         0.00111
       6 -> 52        -0.00029
       7 -> 10         0.66436
       7 -> 11         0.21019
       7 -> 14        -0.09284
       7 -> 15        -0.06098
       7 -> 17        -0.00561
       7 -> 20        -0.00685
       7 -> 21         0.00056
       7 -> 24        -0.00490
       7 -> 26        -0.00760
       7 -> 29        -0.00503
       7 -> 32        -0.00017
       7 -> 34        -0.00277
       7 -> 35        -0.00222
       7 -> 39        -0.00067
       7 -> 41         0.00013
       7 -> 43         0.00027
       7 -> 47         0.00202
       7 -> 51         0.00102
       7 -> 54        -0.00079
       8 -> 27         0.00153
       8 -> 38         0.00048
       8 -> 46         0.00223
       3 <-  9        -0.00302
       3 <- 13         0.00063
       3 <- 18        -0.00102
       3 <- 23         0.00074
       3 <- 28        -0.00165
       3 <- 31        -0.00013
       3 <- 37        -0.00020
       3 <- 44         0.00021
       3 <- 48        -0.00164
       3 <- 52         0.00038
       4 <-  9        -0.00709
       4 <- 13         0.00149
       4 <- 18         0.00048
       4 <- 23         0.00162
       4 <- 28         0.00173
       4 <- 31        -0.00074
       4 <- 37         0.00051
       4 <- 44        -0.00060
       5 <- 27        -0.00410
       5 <- 38        -0.00188
       5 <- 46         0.00057
       6 <-  9        -0.01502
       6 <- 13        -0.00044
       6 <- 18        -0.00258
       6 <- 23        -0.00044
       6 <- 28        -0.00055
       6 <- 31        -0.00297
       6 <- 37         0.00101
       6 <- 44        -0.00025
       6 <- 48         0.00118
       6 <- 52        -0.00069
       7 <- 10        -0.00707
       7 <- 11        -0.00804
       7 <- 14         0.00911
       7 <- 15         0.00327
       7 <- 17         0.00073
       7 <- 20        -0.00135
       7 <- 21        -0.00229
       7 <- 24        -0.00056
       7 <- 26         0.00107
       7 <- 32         0.00162
       7 <- 34        -0.00076
       7 <- 35        -0.00151
       7 <- 39         0.00031
       7 <- 41         0.00011
       7 <- 43         0.00050
       7 <- 45         0.00025
       7 <- 47         0.00159
       7 <- 51         0.00045
       7 <- 54        -0.00029
       8 <- 27         0.00091
       8 <- 38         0.00025
       8 <- 46         0.00163
 
 Excited State   8:      Singlet-A1     8.0499 eV  154.02 nm  f=0.0221  <S**2>=0.000
       3 -> 10        -0.00302
       3 -> 11        -0.00041
       3 -> 14         0.00298
       3 -> 15         0.00151
       3 -> 17        -0.00027
       3 -> 20        -0.00011
       3 -> 24         0.00014
       3 -> 26         0.00022
       3 -> 29         0.00020
       3 -> 32         0.00018
       3 -> 34         0.00074
       3 -> 35        -0.00062
       3 -> 41        -0.00017
       3 -> 45        -0.00018
       3 -> 54        -0.00011
       4 -> 10        -0.00141
       4 -> 11        -0.00090
       4 -> 15        -0.00170
       4 -> 17         0.00101
       4 -> 20         0.00100
       4 -> 21         0.00102
       4 -> 24        -0.00364
       4 -> 26         0.00167
       4 -> 32        -0.00039
       4 -> 34        -0.00025
       4 -> 35         0.00014
       4 -> 39         0.00014
       4 -> 43         0.00012
       5 -> 12        -0.00137
       5 -> 16         0.00017
       5 -> 19         0.00354
       5 -> 22        -0.00247
       5 -> 25         0.00301
       5 -> 30        -0.00016
       5 -> 36         0.00050
       5 -> 40         0.00012
       6 -> 10        -0.00126
       6 -> 11         0.00355
       6 -> 14        -0.00156
       6 -> 15        -0.00406
       6 -> 17        -0.00262
       6 -> 20         0.00067
       6 -> 21         0.00152
       6 -> 24        -0.00290
       6 -> 26         0.00011
       6 -> 29        -0.00205
       6 -> 32         0.00032
       6 -> 34         0.00017
       6 -> 35         0.00021
       6 -> 39         0.00046
       6 -> 43         0.00022
       6 -> 45         0.00041
       6 -> 47         0.00018
       6 -> 51         0.00011
       6 -> 54        -0.00015
       7 ->  9         0.00518
       7 -> 13         0.00936
       7 -> 18        -0.00416
       7 -> 23         0.00253
       7 -> 28        -0.00130
       7 -> 31        -0.00118
       7 -> 37         0.00051
       7 -> 44         0.00042
       7 -> 48        -0.00029
       7 -> 52        -0.00015
       8 -> 12         0.70641
       8 -> 16         0.01064
       8 -> 19         0.02420
       8 -> 22         0.00119
       8 -> 25         0.00678
       8 -> 30        -0.00202
       8 -> 33         0.00116
       8 -> 36        -0.00129
       8 -> 42        -0.00012
       8 -> 49        -0.00041
       8 -> 53        -0.00015
       3 <- 10        -0.00099
       3 <- 11        -0.00095
       3 <- 14         0.00099
       3 <- 15         0.00060
       3 <- 20        -0.00040
       3 <- 24        -0.00017
       3 <- 26         0.00031
       3 <- 32         0.00025
       3 <- 34         0.00046
       3 <- 35        -0.00049
       3 <- 45        -0.00017
[...]
  50        5PY         0.00000   0.00000  -0.01122  -0.02172  -0.02148
  51        5PZ        -0.00005   0.00000   0.00190   0.00246  -0.00010
  52        6D 0        0.00028   0.00000  -0.00046  -0.00079  -0.00123
  53        6D+1       -0.00000   0.00000   0.00000   0.00000   0.00000
  54        6D-1       -0.00000   0.00000  -0.00122  -0.00113   0.00150
  55        6D+2        0.00002   0.00000  -0.00004  -0.00003  -0.00000
  56        6D-2        0.00000   0.00000   0.00000   0.00000   0.00000
                          26        27        28        29        30
  26        4PX         0.00027
  27        4PY         0.00000   0.00106
  28        4PZ         0.00000  -0.00048   0.00061
  29 3   H  1S          0.00000  -0.00178  -0.00279   0.07804
  30        2S          0.00000  -0.00167  -0.00440   0.11077   0.16051
  31        3S          0.00000   0.00066  -0.00233   0.03456   0.05747
  32        4PX         0.00027   0.00000   0.00000   0.00000   0.00000
  33        4PY         0.00000  -0.00056  -0.00007   0.00807   0.01072
  34        4PZ         0.00000   0.00007   0.00001   0.00442   0.00619
  35 4   O  1S          0.00000   0.00004  -0.00056   0.00150   0.00051
  36        2S          0.00000   0.00007  -0.00073   0.00244   0.00096
  37        2PX         0.00558   0.00000   0.00000   0.00000   0.00000
  38        2PY         0.00000  -0.00176   0.00103   0.01413   0.03980
  39        2PZ         0.00000  -0.00129  -0.00468   0.01520   0.02230
  40        3S          0.00000  -0.00007   0.00149  -0.00816  -0.00434
  41        3PX         0.00812   0.00000   0.00000   0.00000   0.00000
  42        3PY         0.00000  -0.00256   0.00151   0.01983   0.05642
  43        3PZ         0.00000  -0.00184  -0.00698   0.02219   0.03257
  44        4S          0.00000  -0.00030  -0.00050  -0.00247   0.00277
  45        4PX         0.00722   0.00000   0.00000   0.00000   0.00000
  46        4PY         0.00000  -0.00208   0.00110   0.02137   0.05620
  47        4PZ         0.00000  -0.00157  -0.00468   0.01702   0.02464
  48        5S          0.00000  -0.00051  -0.00282   0.00772   0.01130
  49        5PX         0.00105   0.00000   0.00000   0.00000   0.00000
  50        5PY         0.00000   0.00007  -0.00033   0.01122   0.02172
  51        5PZ         0.00000  -0.00038   0.00024   0.00190   0.00246
  52        6D 0        0.00000  -0.00003   0.00042  -0.00046  -0.00079
  53        6D+1       -0.00035   0.00000   0.00000   0.00000   0.00000
  54        6D-1        0.00000   0.00019  -0.00018   0.00122   0.00113
  55        6D+2        0.00000  -0.00000   0.00001  -0.00004  -0.00003
  56        6D-2        0.00000   0.00000   0.00000   0.00000   0.00000
                          31        32        33        34        35
  31        3S          0.03929
  32        4PX         0.00000   0.00027
  33        4PY         0.00170   0.00000   0.00106
  34        4PZ         0.00099   0.00000   0.00048   0.00061
  35 4   O  1S          0.00007   0.00000  -0.00004  -0.00056   0.64130
  36        2S          0.00001   0.00000  -0.00007  -0.00073   0.57167
  37        2PX         0.00000   0.00558   0.00000   0.00000   0.00000
  38        2PY         0.06577   0.00000  -0.00176  -0.00103   0.00000
  39        2PZ         0.01647   0.00000   0.00129  -0.00468  -0.01058
  40        3S          0.00042   0.00000   0.00007   0.00149  -0.14554
  41        3PX         0.00000   0.00812   0.00000   0.00000   0.00000
  42        3PY         0.09403   0.00000  -0.00256  -0.00151   0.00000
  43        3PZ         0.02439   0.00000   0.00184  -0.00698  -0.01202
  44        4S          0.00597   0.00000   0.00030  -0.00050  -0.13949
  45        4PX         0.00000   0.00722   0.00000   0.00000   0.00000
  46        4PY         0.08704   0.00000  -0.00208  -0.00110   0.00000
  47        4PZ         0.01688   0.00000   0.00157  -0.00468  -0.00927
  48        5S          0.00934   0.00000   0.00051  -0.00282   0.00694
  49        5PX         0.00000   0.00105   0.00000   0.00000   0.00000
  50        5PY         0.02148   0.00000   0.00007   0.00033   0.00000
  51        5PZ        -0.00010   0.00000   0.00038   0.00024  -0.00449
  52        6D 0       -0.00123   0.00000   0.00003   0.00042  -0.00074
  53        6D+1        0.00000  -0.00035   0.00000   0.00000   0.00000
  54        6D-1       -0.00150   0.00000   0.00019   0.00018   0.00000
  55        6D+2       -0.00000   0.00000   0.00000   0.00001  -0.00083
  56        6D-2        0.00000  -0.00000   0.00000   0.00000   0.00000
                          36        37        38        39        40
  36        2S          0.52756
  37        2PX         0.00000   0.11582
  38        2PY         0.00000   0.00000   0.19051
  39        2PZ        -0.01644   0.00000   0.00000   0.10545
  40        3S         -0.24430   0.00000   0.00000   0.04820   0.76364
  41        3PX         0.00000   0.16842   0.00000   0.00000   0.00000
  42        3PY         0.00000   0.00000   0.27305  -0.00000  -0.00000
  43        3PZ        -0.01993   0.00000   0.00000   0.15585   0.06314
  44        4S         -0.21767   0.00000   0.00000   0.07528   0.62726
  45        4PX         0.00000   0.14980   0.00000   0.00000   0.00000
  46        4PY         0.00000   0.00000   0.24733  -0.00000  -0.00000
  47        4PZ        -0.01585   0.00000   0.00000   0.10755   0.05157
  48        5S          0.00610   0.00000   0.00000   0.05858  -0.00033
  49        5PX         0.00000   0.02176   0.00000   0.00000   0.00000
  50        5PY         0.00000   0.00000   0.05034   0.00000  -0.00000
  51        5PZ        -0.00642   0.00000   0.00000  -0.00057   0.01634
  52        6D 0       -0.00109  -0.00000  -0.00000  -0.00783   0.00279
  53        6D+1        0.00000  -0.00734   0.00000   0.00000   0.00000
  54        6D-1        0.00000   0.00000  -0.00713   0.00000  -0.00000
  55        6D+2       -0.00132  -0.00000  -0.00000   0.00021   0.00391
  56        6D-2        0.00000   0.00000   0.00000   0.00000   0.00000
                          41        42        43        44        45
  41        3PX         0.24491
  42        3PY         0.00000   0.39135
  43        3PZ         0.00000   0.00000   0.23045
  44        4S          0.00000   0.00000   0.10473   0.52835
  45        4PX         0.21783   0.00000   0.00000   0.00000   0.19375
  46        4PY         0.00000   0.35445  -0.00000  -0.00000   0.00000
  47        4PZ         0.00000   0.00000   0.15891   0.07857   0.00000
  48        5S          0.00000   0.00000   0.08691   0.01995   0.00000
  49        5PX         0.03164   0.00000   0.00000   0.00000   0.02815
  50        5PY         0.00000   0.07208   0.00000  -0.00000   0.00000
  51        5PZ         0.00000   0.00000  -0.00106   0.01281   0.00000
  52        6D 0       -0.00000  -0.00000  -0.01165  -0.00052  -0.00000
  53        6D+1       -0.01068   0.00000   0.00000   0.00000  -0.00950
  54        6D-1        0.00000  -0.01024   0.00000   0.00000   0.00000
  55        6D+2       -0.00000  -0.00000   0.00027   0.00321  -0.00000
  56        6D-2        0.00000   0.00000   0.00000   0.00000   0.00000
                          46        47        48        49        50
  46        4PY         0.32128
  47        4PZ         0.00000   0.10979
  48        5S          0.00000   0.05961   0.03371
  49        5PX         0.00000   0.00000   0.00000   0.00409
  50        5PY         0.06585   0.00000   0.00000   0.00000   0.01452
  51        5PZ         0.00000  -0.00040  -0.00106   0.00000   0.00000
  52        6D 0       -0.00000  -0.00792  -0.00462   0.00000  -0.00000
  53        6D+1        0.00000   0.00000   0.00000  -0.00138   0.00000
  54        6D-1       -0.00915   0.00000   0.00000   0.00000  -0.00160
  55        6D+2       -0.00000   0.00023  -0.00002   0.00000  -0.00000
  56        6D-2        0.00000   0.00000   0.00000   0.00000  -0.00000
                          51        52        53        54        55
  51        5PZ         0.00058
  52        6D 0        0.00025   0.00066
  53        6D+1        0.00000   0.00000   0.00047
  54        6D-1       -0.00000   0.00000   0.00000   0.00033
  55        6D+2        0.00008   0.00002   0.00000   0.00000   0.00002
  56        6D-2        0.00000   0.00000  -0.00000  -0.00000   0.00000
                          56
  56        6D-2        0.00000
          Condensed to atoms (all electrons):
               1          2          3          4
     1  C    5.022045   0.360380   0.360380   0.310516
     2  H    0.360380   0.552791  -0.060077  -0.028266
     3  H    0.360380  -0.060077   0.552791  -0.028266
     4  O    0.310516  -0.028266  -0.028266   8.043037
 Mulliken charges:
               1
     1  C   -0.053322
     2  H    0.175172
     3  H    0.175172
     4  O   -0.297022
 Sum of Mulliken charges =  -0.00000
 Mulliken charges with hydrogens summed into heavy atoms:
               1
     1  C    0.297022
     4  O   -0.297022
 Electronic spatial extent (au):  <R**2>=             76.5370
 Charge=             -0.0000 electrons
 Dipole moment (field-independent basis, Debye):
    X=             -0.0000    Y=             -0.0000    Z=             -3.6653  Tot=              3.6653
 Quadrupole moment (field-independent basis, Debye-Ang):
   XX=            -12.6569   YY=            -11.8601   ZZ=            -11.4314
   XY=              0.0000   XZ=              0.0000   YZ=             -0.0000
 Traceless Quadrupole moment (field-independent basis, Debye-Ang):
   XX=             -0.6741   YY=              0.1227   ZZ=              0.5514
   XY=              0.0000   XZ=              0.0000   YZ=             -0.0000
 Octapole moment (field-independent basis, Debye-Ang**2):
  XXX=              0.0000  YYY=              0.0000  ZZZ=             -2.0625  XYY=             -0.0000
  XXY=             -0.0000  XXZ=              0.5318  XZZ=             -0.0000  YZZ=              0.0000
  YYZ=             -2.1062  XYZ=             -0.0000
 Hexadecapole moment (field-independent basis, Debye-Ang**3):
 XXXX=            -13.0362 YYYY=            -18.3449 ZZZZ=            -62.7451 XXXY=             -0.0000
 XXXZ=             -0.0000 YYYX=             -0.0000 YYYZ=             -0.0000 ZZZX=             -0.0000
 ZZZY=             -0.0000 XXYY=             -5.6569 XXZZ=            -13.2266 YYZZ=            -12.2733
 XXYZ=              0.0000 YYXZ=              0.0000 ZZXY=              0.0000
 N-N= 2.590275333308D+01 E-N=-3.203516219064D+02  KE= 1.134192526929D+02
 Symmetry A1   KE= 1.029696287369D+02
 Symmetry A2   KE= 2.569818887773D-35
 Symmetry B1   KE= 3.615719617128D+00
 Symmetry B2   KE= 6.833904338804D+00
 Leave Link  601 at Fri Sep 17 10:52:58 2021, MaxMem=   268435456 cpu:               0.0 elap:               0.0
 (Enter /software/gaussian/g16-a03/l9999.exe)
 Electronic transition elements 
                 1             2             3             4             5 
      1  -0.114364D+03 -0.114242D+03 -0.114233D+03 -0.114206D+03 -0.114182D+03
      2   0.000000D+00  0.000000D+00  0.102393D+00  0.000000D+00  0.000000D+00
      3   0.000000D+00  0.000000D+00  0.000000D+00 -0.334369D+00 -0.145555D+00
      4   0.000000D+00  0.803574D+00  0.000000D+00  0.000000D+00  0.000000D+00
      5   0.000000D+00  0.000000D+00 -0.389850D-01  0.000000D+00  0.000000D+00
      6   0.000000D+00  0.000000D+00  0.000000D+00  0.799146D-01  0.350895D-01
      7   0.000000D+00 -0.147976D+00  0.000000D+00  0.000000D+00  0.000000D+00
      8   0.000000D+00  0.000000D+00  0.000000D+00  0.156588D+00 -0.443415D+00
      9   0.000000D+00  0.000000D+00 -0.170806D+01  0.000000D+00  0.000000D+00
     10   0.105189D+01  0.000000D+00  0.000000D+00  0.000000D+00  0.000000D+00
     11   0.000000D+00  0.980532D-01  0.000000D+00  0.000000D+00  0.000000D+00
     12   0.000000D+00 -0.462279D-02  0.000000D+00  0.000000D+00  0.000000D+00
     13   0.000000D+00 -0.570582D-01  0.000000D+00  0.000000D+00  0.000000D+00
     14  -0.409636D-01  0.000000D+00  0.000000D+00  0.000000D+00  0.000000D+00
     15   0.000000D+00  0.000000D+00 -0.169393D+00  0.000000D+00  0.000000D+00
     16   0.000000D+00  0.000000D+00  0.000000D+00 -0.105679D+00  0.328501D+00
                 6             7             8             9            10 
      1  -0.114161D+03 -0.114159D+03 -0.114147D+03 -0.114135D+03 -0.114127D+03
      2   0.000000D+00 -0.336277D-01  0.000000D+00 -0.720776D+00  0.000000D+00
      3   0.000000D+00  0.000000D+00  0.000000D+00  0.000000D+00  0.000000D+00
      4   0.000000D+00  0.000000D+00 -0.334861D+00  0.000000D+00  0.000000D+00
      5   0.000000D+00  0.159343D-02  0.000000D+00  0.223253D+00  0.000000D+00
      6   0.000000D+00  0.000000D+00  0.000000D+00  0.000000D+00  0.000000D+00
      7   0.000000D+00  0.000000D+00  0.969215D-01  0.000000D+00  0.000000D+00
      8   0.000000D+00  0.000000D+00  0.000000D+00  0.000000D+00  0.000000D+00
      9   0.000000D+00 -0.399237D+00  0.000000D+00 -0.298089D+00  0.000000D+00
     10  -0.955206D+00  0.000000D+00  0.000000D+00  0.000000D+00  0.857462D-02
     11   0.000000D+00  0.000000D+00  0.256559D-01  0.000000D+00  0.000000D+00
     12   0.000000D+00  0.000000D+00 -0.192944D-01  0.000000D+00  0.000000D+00
     13   0.000000D+00  0.000000D+00 -0.233007D+00  0.000000D+00  0.000000D+00
     14   0.182451D+00  0.000000D+00  0.000000D+00  0.000000D+00  0.355682D-01
     15   0.000000D+00  0.264372D+00  0.000000D+00  0.204224D-01  0.000000D+00
     16   0.000000D+00  0.000000D+00  0.000000D+00  0.000000D+00  0.000000D+00
                11            12            13            14            15 
      1  -0.114103D+03 -0.114102D+03 -0.114080D+03 -0.114063D+03 -0.114063D+03
      2   0.000000D+00  0.000000D+00  0.000000D+00  0.000000D+00  0.000000D+00
      3   0.000000D+00 -0.189885D+00  0.000000D+00 -0.387824D+00  0.000000D+00
      4   0.000000D+00  0.000000D+00  0.114606D+00  0.000000D+00 -0.639831D+00
      5   0.000000D+00  0.000000D+00  0.000000D+00  0.000000D+00  0.000000D+00
      6   0.000000D+00  0.698643D-01  0.000000D+00  0.150228D+00  0.000000D+00
      7   0.000000D+00  0.000000D+00 -0.383185D-01  0.000000D+00  0.247706D+00
      8   0.000000D+00 -0.575168D+00  0.000000D+00  0.431502D+00  0.000000D+00
      9   0.000000D+00  0.000000D+00  0.000000D+00  0.000000D+00  0.000000D+00
     10   0.280809D-01  0.000000D+00  0.000000D+00  0.000000D+00  0.000000D+00
     11   0.000000D+00  0.000000D+00  0.807823D+00  0.000000D+00  0.442824D-01
     12   0.000000D+00  0.000000D+00  0.344357D-01  0.000000D+00  0.593545D-01
     13   0.000000D+00  0.000000D+00 -0.613311D-01  0.000000D+00 -0.316694D+00
     14   0.285617D+00  0.000000D+00  0.000000D+00  0.000000D+00  0.000000D+00
     15   0.000000D+00  0.000000D+00  0.000000D+00  0.000000D+00  0.000000D+00
     16   0.000000D+00  0.188158D+00  0.000000D+00 -0.135047D+00  0.000000D+00
                16            17            18            19            20 
      1  -0.114056D+03 -0.114044D+03 -0.114022D+03 -0.114019D+03 -0.114018D+03
      2  -0.643539D-01  0.000000D+00 -0.379266D+00  0.000000D+00  0.000000D+00
      3   0.000000D+00  0.000000D+00  0.000000D+00  0.000000D+00 -0.325079D+00
      4   0.000000D+00 -0.270191D+00  0.000000D+00 -0.108459D+01  0.000000D+00
      5   0.469476D-01  0.000000D+00  0.148243D+00  0.000000D+00  0.000000D+00
      6   0.000000D+00  0.000000D+00  0.000000D+00  0.000000D+00  0.136761D+00
      7   0.000000D+00  0.119600D+00  0.000000D+00  0.463044D+00  0.000000D+00
      8   0.000000D+00  0.000000D+00  0.000000D+00  0.000000D+00 -0.138931D+00
      9   0.408907D+00  0.000000D+00  0.333312D+00  0.000000D+00  0.000000D+00
     10   0.000000D+00  0.000000D+00  0.000000D+00  0.000000D+00  0.000000D+00
     11   0.000000D+00  0.268061D+00  0.000000D+00 -0.260308D-01  0.000000D+00
     12   0.000000D+00  0.384661D+00  0.000000D+00 -0.387380D+00  0.000000D+00
     13   0.000000D+00  0.524014D+00  0.000000D+00 -0.251806D+00  0.000000D+00
     14   0.000000D+00  0.000000D+00  0.000000D+00  0.000000D+00  0.000000D+00
     15   0.267188D+00  0.000000D+00 -0.527950D-02  0.000000D+00  0.000000D+00
     16   0.000000D+00  0.000000D+00  0.000000D+00  0.000000D+00 -0.360295D+00
                21            22            23            24            25 
      1  -0.114015D+03 -0.114009D+03 -0.114005D+03 -0.113997D+03 -0.113992D+03
      2   0.000000D+00  0.000000D+00  0.000000D+00 -0.134934D+00  0.000000D+00
      3  -0.140060D-01  0.000000D+00  0.440874D+00  0.000000D+00  0.000000D+00
      4   0.000000D+00  0.000000D+00  0.000000D+00  0.000000D+00  0.000000D+00
      5   0.000000D+00  0.000000D+00  0.000000D+00  0.552750D-01  0.000000D+00
      6  -0.525050D-02  0.000000D+00 -0.194678D+00  0.000000D+00  0.000000D+00
      7   0.000000D+00  0.000000D+00  0.000000D+00  0.000000D+00  0.000000D+00
      8   0.195865D+00  0.000000D+00  0.130717D+00  0.000000D+00  0.000000D+00
      9   0.000000D+00  0.000000D+00  0.000000D+00  0.140124D+00  0.000000D+00
     10   0.000000D+00 -0.505961D-01  0.000000D+00  0.000000D+00 -0.338834D-01
     11   0.000000D+00  0.000000D+00  0.000000D+00  0.000000D+00  0.000000D+00
     12   0.000000D+00  0.000000D+00  0.000000D+00  0.000000D+00  0.000000D+00
     13   0.000000D+00  0.000000D+00  0.000000D+00  0.000000D+00  0.000000D+00
     14   0.000000D+00 -0.255345D+00  0.000000D+00  0.000000D+00  0.383901D+00
     15   0.000000D+00  0.000000D+00  0.000000D+00 -0.120224D+00  0.000000D+00
     16   0.430378D+00  0.000000D+00  0.806547D+00  0.000000D+00  0.000000D+00
                26            27            28            29            30 
      1  -0.113982D+03 -0.113965D+03 -0.113958D+03 -0.113953D+03 -0.113945D+03
      2   0.000000D+00  0.136125D+00  0.000000D+00  0.000000D+00  0.000000D+00
      3  -0.546531D+00  0.000000D+00  0.000000D+00  0.000000D+00  0.000000D+00
      4   0.000000D+00  0.000000D+00 -0.574391D+00  0.800777D+00  0.917531D-01
      5   0.000000D+00 -0.573131D-01  0.000000D+00  0.000000D+00  0.000000D+00
      6   0.246141D+00  0.000000D+00  0.000000D+00  0.000000D+00  0.000000D+00
      7   0.000000D+00  0.000000D+00  0.264791D+00 -0.383383D+00 -0.425799D-01
      8   0.100480D+01  0.000000D+00  0.000000D+00  0.000000D+00  0.000000D+00
      9   0.000000D+00 -0.378808D-01  0.000000D+00  0.000000D+00  0.000000D+00
     10   0.000000D+00  0.000000D+00  0.000000D+00  0.000000D+00  0.000000D+00
     11   0.000000D+00  0.000000D+00 -0.696986D-01 -0.204960D+00  0.204996D+00
     12   0.000000D+00  0.000000D+00  0.239799D+00  0.879737D+00  0.621388D+00
     13   0.000000D+00  0.000000D+00  0.181604D+00 -0.361620D-02  0.396010D+00
     14   0.000000D+00  0.000000D+00  0.000000D+00  0.000000D+00  0.000000D+00
     15   0.000000D+00  0.262828D+00  0.000000D+00  0.000000D+00  0.000000D+00
     16  -0.194939D+00  0.000000D+00  0.000000D+00  0.000000D+00  0.000000D+00

 Test job not archived.
 1\1\GINC-BHD0016\SP\RB3LYP TD-FC\6-311+G(d,p)\C1H2O1\BWEIGHT\17-Sep-20
 21\0\\#p B3LYP/6-311+G** #p TD=(singlets,nstates=30)IOp(6/8=3) IOp(9/4
 0=4)\\Scan Step 212, Bond Length 1.56\\0,1\C,0,0.,0.,-0.52736\H,0,0.,0
 .93726,-1.11871\H,0,0.,-0.93726,-1.11871\O,0,0.,0.,1.03264\\Version=ES
 64L-G16RevA.03\State=1-A1\HF=-114.4428516\RMSD=3.506e-09\PG=C02V [C2(C
 1O1),SGV(H2)]\\@


 OLD HORSE! OLD HORSE! WHAT BROUGHT YOU HERE?
 FROM SACARAP' TO PORTLAND PIER
 I'VE CARTED STONE THIS MANY A YEAR;
 TILL, KILLED BY BLOWS AND SORE ABUSE,
 THEY SALTED ME DOWN FOR SAILORS' USE.
 THE SAILORS THEY DO ME DESPISE;
 THEY TURN ME OVER AND DAMN MY EYES;
 CUT OFF MY MEAT, AND SCRAPE MY BONES,
 AND PITCH ME OVER TO DAVY JONES.

    SAILORS' COMPLAINT ABOUT THE BEEF
    SERVED ON SHIPBOARD, CIRCA 1835.
 Job cpu time:       0 days  0 hours  0 minutes 26.0 seconds.
 Elapsed time:       0 days  0 hours  0 minutes 26.4 seconds.
 File lengths (MBytes):  RWF=     79 Int=      0 D2E=      0 Chk=     32 Scr=      1
 Normal termination of Gaussian 16 at Fri Sep 17 10:52:59 2021.
