 Entering Gaussian System, Link 0=g16
 Initial command:
 /software/gaussian/g16-a03/l1.exe "/local_scratch/6484886/Gau-29651.inp" -scrdir="/local_scratch/6484886/"
 Entering Link 1 = /software/gaussian/g16-a03/l1.exe PID=     29706.
  
 Copyright (c) 1988,1990,1992,1993,1995,1998,2003,2009,2016,
            Gaussian, Inc.  All Rights Reserved.
  
 This is part of the Gaussian(R) 16 program.  It is based on
 the Gaussian(R) 09 system (copyright 2009, Gaussian, Inc.),
 the Gaussian(R) 03 system (copyright 2003, Gaussian, Inc.),
 the Gaussian(R) 98 system (copyright 1998, Gaussian, Inc.),
 the Gaussian(R) 94 system (copyright 1995, Gaussian, Inc.),
 the Gaussian 92(TM) system (copyright 1992, Gaussian, Inc.),
 the Gaussian 90(TM) system (copyright 1990, Gaussian, Inc.),
 the Gaussian 88(TM) system (copyright 1988, Gaussian, Inc.),
 the Gaussian 86(TM) system (copyright 1986, Carnegie Mellon
 University), and the Gaussian 82(TM) system (copyright 1983,
 Carnegie Mellon University). Gaussian is a federally registered
 trademark of Gaussian, Inc.
  
 This software contains proprietary and confidential information,
 including trade secrets, belonging to Gaussian, Inc.
  
 This software is provided under written license and may be
 used, copied, transmitted, or stored only in accord with that
 written license.
  
 The following legend is applicable only to US Government
 contracts under FAR:
  
                    RESTRICTED RIGHTS LEGEND
  
 Use, reproduction and disclosure by the US Government is
 subject to restrictions as set forth in subparagraphs (a)
 and (c) of the Commercial Computer Software - Restricted
 Rights clause in FAR 52.227-19.
  
 Gaussian, Inc.
 340 Quinnipiac St., Bldg. 40, Wallingford CT 06492
  
  
 ---------------------------------------------------------------
 Warning -- This program may not be used in any manner that
 competes with the business of Gaussian, Inc. or will provide
 assistance to any competitor of Gaussian, Inc.  The licensee
 of this program is prohibited from giving any competitor of
 Gaussian, Inc. access to this program.  By using this program,
 the user acknowledges that Gaussian, Inc. is engaged in the
 business of creating and licensing software in the field of
 computational chemistry and represents and warrants to the
 licensee that it is not a competitor of Gaussian, Inc. and that
 it will not use this program in any manner prohibited above.
 ---------------------------------------------------------------
  

 Cite this work as:
 Gaussian 16, Revision A.03,
 M. J. Frisch, G. W. Trucks, H. B. Schlegel, G. E. Scuseria, 
 M. A. Robb, J. R. Cheeseman, G. Scalmani, V. Barone, 
 G. A. Petersson, H. Nakatsuji, X. Li, M. Caricato, A. V. Marenich, 
 J. Bloino, B. G. Janesko, R. Gomperts, B. Mennucci, H. P. Hratchian, 
 J. V. Ortiz, A. F. Izmaylov, J. L. Sonnenberg, D. Williams-Young, 
 F. Ding, F. Lipparini, F. Egidi, J. Goings, B. Peng, A. Petrone, 
 T. Henderson, D. Ranasinghe, V. G. Zakrzewski, J. Gao, N. Rega, 
 G. Zheng, W. Liang, M. Hada, M. Ehara, K. Toyota, R. Fukuda, 
 J. Hasegawa, M. Ishida, T. Nakajima, Y. Honda, O. Kitao, H. Nakai, 
 T. Vreven, K. Throssell, J. A. Montgomery, Jr., J. E. Peralta, 
 F. Ogliaro, M. J. Bearpark, J. J. Heyd, E. N. Brothers, K. N. Kudin, 
 V. N. Staroverov, T. A. Keith, R. Kobayashi, J. Normand, 
 K. Raghavachari, A. P. Rendell, J. C. Burant, S. S. Iyengar, 
 J. Tomasi, M. Cossi, J. M. Millam, M. Klene, C. Adamo, R. Cammi, 
 J. W. Ochterski, R. L. Martin, K. Morokuma, O. Farkas, 
 J. B. Foresman, and D. J. Fox, Gaussian, Inc., Wallingford CT, 2016.
 
 ******************************************
 Gaussian 16:  ES64L-G16RevA.03 25-Dec-2016
                17-Sep-2021 
 ******************************************
 %chk=geometry.chk
 %mem=2GB
 %nprocshared=1
 Will use up to    1 processors via shared memory.
 --------------------------------------------------------------------
 #p B3LYP/6-311+G** #p TD=(singlets,nstates=30)IOp(6/8=3) IOp(9/40=4)
 --------------------------------------------------------------------
 1/38=1,172=1/1;
 2/12=2,17=6,18=5,40=1/2;
 3/5=4,6=6,7=111,11=9,25=1,30=1,74=-5/1,2,3,8;
 4//1;
 5/5=2,38=5/2;
 8/6=1,10=2,108=30/1;
 9/40=4,41=30,42=1,48=1,70=2/14;
 6/7=2,8=3,9=2,10=2/1;
 99/5=1,9=1/99;
 Leave Link    1 at Fri Sep 17 10:52:17 2021, MaxMem=   268435456 cpu:               0.0 elap:               0.2
 (Enter /software/gaussian/g16-a03/l101.exe)
 --------------------------------
 Scan Step 155, Bond Length 1.275
 --------------------------------
 Symbolic Z-matrix:
 Charge =  0 Multiplicity = 1
 C                     0.        0.       -0.52736 
 H                     0.        0.93726  -1.11871 
 H                     0.       -0.93726  -1.11871 
 O                     0.        0.        0.74764 
 
 ITRead=  0  0  0  0
 MicOpt= -1 -1 -1 -1
 NAtoms=      4 NQM=        4 NQMF=       0 NMMI=      0 NMMIF=      0
                NMic=       0 NMicF=      0.
                    Isotopes and Nuclear Properties:
 (Nuclear quadrupole moments (NQMom) in fm**2, nuclear magnetic moments (NMagM)
  in nuclear magnetons)

  Atom         1           2           3           4
 IAtWgt=          12           1           1          16
 AtmWgt=  12.0000000   1.0078250   1.0078250  15.9949146
 NucSpn=           0           1           1           0
 AtZEff=  -0.0000000  -0.0000000  -0.0000000  -0.0000000
 NQMom=    0.0000000   0.0000000   0.0000000   0.0000000
 NMagM=    0.0000000   2.7928460   2.7928460   0.0000000
 AtZNuc=   6.0000000   1.0000000   1.0000000   8.0000000
 Leave Link  101 at Fri Sep 17 10:52:17 2021, MaxMem=   268435456 cpu:               0.1 elap:               0.1
 (Enter /software/gaussian/g16-a03/l202.exe)
                          Input orientation:                          
 ---------------------------------------------------------------------
 Center     Atomic      Atomic             Coordinates (Angstroms)
 Number     Number       Type             X           Y           Z
 ---------------------------------------------------------------------
      1          6           0        0.000000    0.000000   -0.527360
      2          1           0        0.000000    0.937260   -1.118710
      3          1           0        0.000000   -0.937260   -1.118710
      4          8           0        0.000000    0.000000    0.747640
 ---------------------------------------------------------------------
                    Distance matrix (angstroms):
                    1          2          3          4
     1  C    0.000000
     2  H    1.108220   0.000000
     3  H    1.108220   1.874520   0.000000
     4  O    1.275000   2.088473   2.088473   0.000000
 Stoichiometry    CH2O
 Framework group  C2V[C2(CO),SGV(H2)]
 Deg. of freedom     3
 Full point group                 C2V     NOp   4
 Largest Abelian subgroup         C2V     NOp   4
 Largest concise Abelian subgroup C2      NOp   2
                         Standard orientation:                         
 ---------------------------------------------------------------------
 Center     Atomic      Atomic             Coordinates (Angstroms)
 Number     Number       Type             X           Y           Z
 ---------------------------------------------------------------------
      1          6           0        0.000000    0.000000   -0.563581
      2          1           0        0.000000    0.937260   -1.154931
      3          1           0       -0.000000   -0.937260   -1.154931
      4          8           0        0.000000   -0.000000    0.711419
 ---------------------------------------------------------------------
 Rotational constants (GHZ):         285.4183527          35.0448444          31.2124507
 Leave Link  202 at Fri Sep 17 10:52:18 2021, MaxMem=   268435456 cpu:               0.0 elap:               0.0
 (Enter /software/gaussian/g16-a03/l301.exe)
 Standard basis: 6-311+G(d,p) (5D, 7F)
 Ernie: Thresh=  0.10000D-02 Tol=  0.10000D-05 Strict=F.
 There are    29 symmetry adapted cartesian basis functions of A1  symmetry.
 There are     3 symmetry adapted cartesian basis functions of A2  symmetry.
 There are    11 symmetry adapted cartesian basis functions of B1  symmetry.
 There are    15 symmetry adapted cartesian basis functions of B2  symmetry.
 There are    27 symmetry adapted basis functions of A1  symmetry.
 There are     3 symmetry adapted basis functions of A2  symmetry.
 There are    11 symmetry adapted basis functions of B1  symmetry.
 There are    15 symmetry adapted basis functions of B2  symmetry.
    56 basis functions,    88 primitive gaussians,    58 cartesian basis functions
     8 alpha electrons        8 beta electrons
       nuclear repulsion energy        29.9883699185 Hartrees.
 IExCor=  402 DFT=T Ex+Corr=B3LYP ExCW=0 ScaHFX=  0.200000
 ScaDFX=  0.800000  0.720000  1.000000  0.810000 ScalE2=  1.000000  1.000000
 IRadAn=      5 IRanWt=     -1 IRanGd=            0 ICorTp=0 IEmpDi=  4
 NAtoms=    4 NActive=    4 NUniq=    3 SFac= 1.78D+00 NAtFMM=   60 NAOKFM=F Big=F
 Integral buffers will be    131072 words long.
 Regular integral format.
 Two-electron integral symmetry is turned on.
 Leave Link  301 at Fri Sep 17 10:52:18 2021, MaxMem=   268435456 cpu:               0.1 elap:               0.1
 (Enter /software/gaussian/g16-a03/l302.exe)
 NPDir=0 NMtPBC=     1 NCelOv=     1 NCel=       1 NClECP=     1 NCelD=      1
         NCelK=      1 NCelE2=     1 NClLst=     1 CellRange=     0.0.
 One-electron integrals computed using PRISM.
 One-electron integral symmetry used in STVInt
 NBasis=    56 RedAO= T EigKep=  4.89D-03  NBF=    27     3    11    15
 NBsUse=    56 1.00D-06 EigRej= -1.00D+00 NBFU=    27     3    11    15
 Precomputing XC quadrature grid using
 IXCGrd= 4 IRadAn=           5 IRanWt=          -1 IRanGd=           0 AccXCQ= 0.00D+00.
 Generated NRdTot=       0 NPtTot=           0 NUsed=           0 NTot=          32
 NSgBfM=    58    58    58    58    58 MxSgAt=     4 MxSgA2=     4.
 Leave Link  302 at Fri Sep 17 10:52:18 2021, MaxMem=   268435456 cpu:               0.3 elap:               0.3
 (Enter /software/gaussian/g16-a03/l303.exe)
 DipDrv:  MaxL=1.
 Leave Link  303 at Fri Sep 17 10:52:18 2021, MaxMem=   268435456 cpu:               0.1 elap:               0.1
 (Enter /software/gaussian/g16-a03/l308.exe)
 Leave Link  308 at Fri Sep 17 10:52:18 2021, MaxMem=   268435456 cpu:               0.0 elap:               0.0
 (Enter /software/gaussian/g16-a03/l401.exe)
 ExpMin= 4.38D-02 ExpMax= 8.59D+03 ExpMxC= 1.30D+03 IAcc=3 IRadAn=         5 AccDes= 0.00D+00
 Harris functional with IExCor=  402 and IRadAn=       5 diagonalized for initial guess.
 HarFok:  IExCor=  402 AccDes= 0.00D+00 IRadAn=         5 IDoV= 1 UseB2=F ITyADJ=14
 ICtDFT=  3500011 ScaDFX=  1.000000  1.000000  1.000000  1.000000
 FoFCou: FMM=F IPFlag=           0 FMFlag=      100000 FMFlg1=           0
         NFxFlg=           0 DoJE=T BraDBF=F KetDBF=T FulRan=T
         wScrn=  0.000000 ICntrl=       500 IOpCl=  0 I1Cent=   200000004 NGrid=           0
         NMat0=    1 NMatS0=      1 NMatT0=    0 NMatD0=    1 NMtDS0=    0 NMtDT0=    0
 Petite list used in FoFCou.
 Harris En= -114.543836215684    
 JPrj=0 DoOrth=F DoCkMO=F.
 Initial guess orbital symmetries:
       Occupied  (A1) (A1) (A1) (A1) (B2) (A1) (B1) (B2)
       Virtual   (B1) (A1) (A1) (B2) (B1) (A1) (B2) (A1) (B1) (A1)
                 (B2) (A1) (A1) (B2) (B1) (A1) (B2) (A1) (A1) (A2)
                 (B1) (B2) (B1) (A1) (B2) (A1) (B2) (A1) (B1) (A2)
                 (A1) (B2) (A1) (B2) (B1) (A1) (A2) (A1) (A1) (B1)
                 (B2) (B2) (A1) (B1) (B2) (A1) (A1) (A1)
 The electronic state of the initial guess is 1-A1.
 Leave Link  401 at Fri Sep 17 10:52:19 2021, MaxMem=   268435456 cpu:               0.6 elap:               0.6
 (Enter /software/gaussian/g16-a03/l502.exe)
 Keep R1 ints in memory in symmetry-blocked form, NReq=2159909.
 FoFCou: FMM=F IPFlag=           0 FMFlag=           0 FMFlg1=           0
         NFxFlg=           0 DoJE=F BraDBF=F KetDBF=F FulRan=T
         wScrn=  0.000000 ICntrl=       600 IOpCl=  0 I1Cent=           0 NGrid=           0
         NMat0=    1 NMatS0=   1596 NMatT0=    0 NMatD0=    1 NMtDS0=    0 NMtDT0=    0
 Petite list used in FoFCou.
 Closed shell SCF:
 Using DIIS extrapolation, IDIIS=  1040.
 NGot=   268435456 LenX=   268074384 LenY=   268070579
 Requested convergence on RMS density matrix=1.00D-08 within 128 cycles.
 Requested convergence on MAX density matrix=1.00D-06.
 Requested convergence on             energy=1.00D-06.
 No special actions if energy rises.

 Cycle   1  Pass 1  IDiag  1:
 E= -114.480649878806    
 DIIS: error= 4.53D-02 at cycle   1 NSaved=   1.
 NSaved= 1 IEnMin= 1 EnMin= -114.480649878806     IErMin= 1 ErrMin= 4.53D-02
 ErrMax= 4.53D-02  0.00D+00 EMaxC= 1.00D-01 BMatC= 7.45D-02 BMatP= 7.45D-02
 IDIUse=3 WtCom= 5.47D-01 WtEn= 4.53D-01
 Coeff-Com:  0.100D+01
 Coeff-En:   0.100D+01
 Coeff:      0.100D+01
 Gap=     0.132 Goal=   None    Shift=    0.000
 GapD=    0.132 DampG=1.000 DampE=0.500 DampFc=0.5000 IDamp=-1.
 Damping current iteration by 5.00D-01
 RMSDP=1.05D-02 MaxDP=8.78D-02              OVMax= 3.33D-01

 Cycle   2  Pass 1  IDiag  1:
 E= -114.462167656372     Delta-E=        0.018482222435 Rises=F Damp=T
 DIIS: error= 3.83D-02 at cycle   2 NSaved=   2.
 NSaved= 2 IEnMin= 1 EnMin= -114.480649878806     IErMin= 2 ErrMin= 3.83D-02
 ErrMax= 3.83D-02  0.00D+00 EMaxC= 1.00D-01 BMatC= 3.66D-02 BMatP= 7.45D-02
 IDIUse=3 WtCom= 6.17D-01 WtEn= 3.83D-01
 Coeff-Com:  0.399D+00 0.601D+00
 Coeff-En:   0.591D+00 0.409D+00
 Coeff:      0.473D+00 0.527D+00
 Gap=     0.190 Goal=   None    Shift=    0.000
 RMSDP=2.19D-03 MaxDP=2.76D-02 DE= 1.85D-02 OVMax= 2.39D-01

 Cycle   3  Pass 1  IDiag  1:
 E= -114.532219611724     Delta-E=       -0.070051955352 Rises=F Damp=F
 DIIS: error= 8.45D-03 at cycle   3 NSaved=   3.
 NSaved= 3 IEnMin= 3 EnMin= -114.532219611724     IErMin= 3 ErrMin= 8.45D-03
 ErrMax= 8.45D-03  0.00D+00 EMaxC= 1.00D-01 BMatC= 2.58D-03 BMatP= 3.66D-02
 IDIUse=3 WtCom= 9.16D-01 WtEn= 8.45D-02
 Coeff-Com:  0.167D+00 0.152D+00 0.681D+00
 Coeff-En:   0.000D+00 0.000D+00 0.100D+01
 Coeff:      0.153D+00 0.139D+00 0.708D+00
 Gap=     0.201 Goal=   None    Shift=    0.000
 RMSDP=8.35D-04 MaxDP=1.69D-02 DE=-7.01D-02 OVMax= 1.77D-02

 Cycle   4  Pass 1  IDiag  1:
 E= -114.534202217097     Delta-E=       -0.001982605373 Rises=F Damp=F
 DIIS: error= 3.52D-03 at cycle   4 NSaved=   4.
 NSaved= 4 IEnMin= 4 EnMin= -114.534202217097     IErMin= 4 ErrMin= 3.52D-03
 ErrMax= 3.52D-03  0.00D+00 EMaxC= 1.00D-01 BMatC= 3.26D-04 BMatP= 2.58D-03
 IDIUse=3 WtCom= 9.65D-01 WtEn= 3.52D-02
 Coeff-Com:  0.261D-01-0.430D-02 0.296D+00 0.682D+00
 Coeff-En:   0.000D+00 0.000D+00 0.000D+00 0.100D+01
 Coeff:      0.252D-01-0.415D-02 0.286D+00 0.693D+00
 Gap=     0.203 Goal=   None    Shift=    0.000
 RMSDP=2.26D-04 MaxDP=5.18D-03 DE=-1.98D-03 OVMax= 5.83D-03

 Cycle   5  Pass 1  IDiag  1:
 E= -114.534506159114     Delta-E=       -0.000303942016 Rises=F Damp=F
 DIIS: error= 4.78D-04 at cycle   5 NSaved=   5.
 NSaved= 5 IEnMin= 5 EnMin= -114.534506159114     IErMin= 5 ErrMin= 4.78D-04
 ErrMax= 4.78D-04  0.00D+00 EMaxC= 1.00D-01 BMatC= 6.90D-06 BMatP= 3.26D-04
 IDIUse=3 WtCom= 9.95D-01 WtEn= 4.78D-03
 Coeff-Com:  0.414D-02-0.106D-01 0.542D-01 0.178D+00 0.774D+00
 Coeff-En:   0.000D+00 0.000D+00 0.000D+00 0.000D+00 0.100D+01
 Coeff:      0.412D-02-0.105D-01 0.539D-01 0.177D+00 0.775D+00
 Gap=     0.203 Goal=   None    Shift=    0.000
 RMSDP=3.14D-05 MaxDP=2.19D-04 DE=-3.04D-04 OVMax= 7.24D-04

 Cycle   6  Pass 1  IDiag  1:
 E= -114.534511966448     Delta-E=       -0.000005807334 Rises=F Damp=F
 DIIS: error= 6.65D-05 at cycle   6 NSaved=   6.
 NSaved= 6 IEnMin= 6 EnMin= -114.534511966448     IErMin= 6 ErrMin= 6.65D-05
 ErrMax= 6.65D-05  0.00D+00 EMaxC= 1.00D-01 BMatC= 1.20D-07 BMatP= 6.90D-06
 IDIUse=1 WtCom= 1.00D+00 WtEn= 0.00D+00
 Coeff-Com:  0.401D-03-0.110D-02-0.214D-03-0.384D-02-0.170D-01 0.102D+01
 Coeff:      0.401D-03-0.110D-02-0.214D-03-0.384D-02-0.170D-01 0.102D+01
 Gap=     0.203 Goal=   None    Shift=    0.000
 RMSDP=5.47D-06 MaxDP=4.98D-05 DE=-5.81D-06 OVMax= 1.02D-04

 Cycle   7  Pass 1  IDiag  1:
 E= -114.534512066385     Delta-E=       -0.000000099938 Rises=F Damp=F
 DIIS: error= 2.32D-06 at cycle   7 NSaved=   7.
 NSaved= 7 IEnMin= 7 EnMin= -114.534512066385     IErMin= 7 ErrMin= 2.32D-06
 ErrMax= 2.32D-06  0.00D+00 EMaxC= 1.00D-01 BMatC= 3.44D-10 BMatP= 1.20D-07
 IDIUse=1 WtCom= 1.00D+00 WtEn= 0.00D+00
 Coeff-Com:  0.240D-04-0.309D-04-0.121D-03-0.147D-02-0.831D-02 0.658D-01
 Coeff-Com:  0.944D+00
 Coeff:      0.240D-04-0.309D-04-0.121D-03-0.147D-02-0.831D-02 0.658D-01
 Coeff:      0.944D+00
 Gap=     0.203 Goal=   None    Shift=    0.000
 RMSDP=2.05D-07 MaxDP=3.79D-06 DE=-9.99D-08 OVMax= 5.00D-06

 Cycle   8  Pass 1  IDiag  1:
 E= -114.534512066623     Delta-E=       -0.000000000238 Rises=F Damp=F
 DIIS: error= 1.52D-06 at cycle   8 NSaved=   8.
 NSaved= 8 IEnMin= 8 EnMin= -114.534512066623     IErMin= 8 ErrMin= 1.52D-06
 ErrMax= 1.52D-06  0.00D+00 EMaxC= 1.00D-01 BMatC= 6.28D-11 BMatP= 3.44D-10
 IDIUse=1 WtCom= 1.00D+00 WtEn= 0.00D+00
 Coeff-Com:  0.544D-05-0.351D-05 0.137D-04-0.901D-04-0.175D-03-0.167D-01
 Coeff-Com:  0.612D-01 0.956D+00
 Coeff:      0.544D-05-0.351D-05 0.137D-04-0.901D-04-0.175D-03-0.167D-01
 Coeff:      0.612D-01 0.956D+00
 Gap=     0.203 Goal=   None    Shift=    0.000
 RMSDP=1.20D-07 MaxDP=9.68D-07 DE=-2.38D-10 OVMax= 2.48D-06

 Cycle   9  Pass 1  IDiag  1:
 E= -114.534512066676     Delta-E=       -0.000000000053 Rises=F Damp=F
 DIIS: error= 6.68D-08 at cycle   9 NSaved=   9.
 NSaved= 9 IEnMin= 9 EnMin= -114.534512066676     IErMin= 9 ErrMin= 6.68D-08
 ErrMax= 6.68D-08  0.00D+00 EMaxC= 1.00D-01 BMatC= 2.16D-13 BMatP= 6.28D-11
 IDIUse=1 WtCom= 1.00D+00 WtEn= 0.00D+00
 Coeff-Com:  0.898D-06-0.873D-06 0.285D-05 0.220D-06 0.795D-04-0.283D-02
 Coeff-Com: -0.227D-02 0.103D+00 0.902D+00
 Coeff:      0.898D-06-0.873D-06 0.285D-05 0.220D-06 0.795D-04-0.283D-02
 Coeff:     -0.227D-02 0.103D+00 0.902D+00
 Gap=     0.203 Goal=   None    Shift=    0.000
 RMSDP=3.97D-09 MaxDP=6.28D-08 DE=-5.30D-11 OVMax= 9.30D-08

 SCF Done:  E(RB3LYP) =  -114.534512067     A.U. after    9 cycles
            NFock=  9  Conv=0.40D-08     -V/T= 2.0057
 KE= 1.138872715949D+02 PE=-3.288603502821D+02 EE= 7.045019670201D+01
 Leave Link  502 at Fri Sep 17 10:52:22 2021, MaxMem=   268435456 cpu:               2.5 elap:               2.8
 (Enter /software/gaussian/g16-a03/l801.exe)
 DoSCS=F DFT=T ScalE2(SS,OS)=  1.000000  1.000000
 ExpMin= 4.38D-02 ExpMax= 8.59D+03 ExpMxC= 1.30D+03 IAcc=3 IRadAn=         5 AccDes= 0.00D+00
 HarFok:  IExCor=  205 AccDes= 0.00D+00 IRadAn=         5 IDoV=-2 UseB2=F ITyADJ=14
 ICtDFT= 12500011 ScaDFX=  1.000000  1.000000  1.000000  1.000000
 Largest valence mixing into a core orbital is  4.87D-05
 Largest core mixing into a valence orbital is  1.03D-05
 Range of M.O.s used for correlation:     3    56
 NBasis=    56 NAE=     8 NBE=     8 NFC=     2 NFV=     0
 NROrb=     54 NOA=     6 NOB=     6 NVA=    48 NVB=    48
 Leave Link  801 at Fri Sep 17 10:52:22 2021, MaxMem=   268435456 cpu:               0.3 elap:               0.3
 (Enter /software/gaussian/g16-a03/l914.exe)
 RHF ground state
 Keep R1, R2, and R3 ints in memory in symmetry-blocked form, NReq=6042848.
 FoFCou: FMM=F IPFlag=           0 FMFlag=           0 FMFlg1=           0
         NFxFlg=           0 DoJE=F BraDBF=F KetDBF=F FulRan=T
         wScrn=  0.000000 ICntrl=       600 IOpCl=  0 I1Cent=           0 NGrid=           0
         NMat0=    1 NMatS0=   1596 NMatT0=    0 NMatD0=    1 NMtDS0=    0 NMtDT0=    0
 Petite list used in FoFCou.
 MDV=   268435456 DFT=T DoStab=F Mixed=T DoRPA=T DoScal=F NonHer=T
 Making orbital integer symmetry assigments:
 Orbital symmetries:
       Occupied  (A1) (A1) (A1) (A1) (B2) (A1) (B1) (B2)
       Virtual   (B1) (A1) (A1) (B2) (B1) (A1) (B2) (A1) (B1) (B2)
                 (A1) (A1) (A1) (B2) (B1) (A1) (B2) (A1) (A2) (A1)
                 (B1) (B2) (B1) (A1) (B2) (A1) (B2) (A1) (B1) (A2)
                 (A1) (B2) (A1) (B2) (A1) (B1) (A2) (A1) (A1) (B1)
                 (B2) (B2) (A1) (B1) (B2) (A1) (A1) (A1)
   120 initial guesses have been made.
 Convergence on wavefunction:    0.001000000000000
 Davidson Disk Diagonalization:  ConvIn= 1.00D-03 SkipCon=T Conv= 1.00D-03.
 Max sub-space:  1728 roots to seek:   120 dimension of matrix:          576
 Iteration     1 Dimension   120 NMult     0 NNew    120
 CISAX will form   120 AO SS matrices at one time.
 NMat=   120 NSing=   120 JSym2X=-1.
 New state      3 was old state      4
 New state      4 was old state      5
 New state      5 was old state      7
 New state      7 was old state      3
 New state      8 was old state     10
 New state      9 was old state      8
 New state     10 was old state      9
 New state     14 was old state     16
 New state     16 was old state     14
 New state     17 was old state     20
 New state     18 was old state     17
 New state     19 was old state     18
 New state     20 was old state     19
 New state     24 was old state     26
 New state     25 was old state     24
 New state     26 was old state     28
 New state     27 was old state     25
 New state     28 was old state     27
 New state     29 was old state     30
 New state     30 was old state     31
 Excitation Energies [eV] at current iteration:
 Root      1 :     3.549087346687377
 Root      2 :     6.928051023548059
 Root      3 :     7.689406704374763
 Root      4 :     7.938957405905122
 Root      5 :     8.345240859883241
 Root      6 :     8.457042370521538
 Root      7 :     8.630853512073623
 Root      8 :     9.392144114469568
 Root      9 :     9.802109081725135
 Root     10 :    10.311926183926260
 Root     11 :    10.649404730542270
 Root     12 :    10.793219182510810
 Root     13 :    11.482022205606180
 Root     14 :    11.511725221889100
 Root     15 :    11.545039244919160
 Root     16 :    12.148487847405870
 Root     17 :    12.348384655496600
 Root     18 :    12.408971437146910
 Root     19 :    12.562767609354740
 Root     20 :    12.619353930642800
 Root     21 :    12.932733509613090
 Root     22 :    13.090775461520240
 Root     23 :    13.091260568218220
 Root     24 :    13.342714867949010
 Root     25 :    13.552132977647130
 Root     26 :    13.938528483797900
 Root     27 :    13.942157467448220
 Root     28 :    14.153785109563170
 Root     29 :    14.405356378679840
 Root     30 :    14.737771668677940
 Root     31 :    14.879180602071710
 Root     32 :    15.309685059910650
 Root     33 :    15.577668144847920
 Root     34 :    15.722566645350920
 Root     35 :    15.770970094319740
 Root     36 :    16.166981833659780
 Root     37 :    16.323527163134550
 Root     38 :    16.605731140396960
 Root     39 :    16.947420732597470
 Root     40 :    16.991441524655350
 Root     41 :    17.428389157810230
 Root     42 :    17.494368453457290
 Root     43 :    17.635823007315460
 Root     44 :    17.776732309413360
 Root     45 :    17.879229055003270
 Root     46 :    18.032929569595160
 Root     47 :    18.180769807053930
 Root     48 :    18.370215958115170
 Root     49 :    18.545369153096830
 Root     50 :    18.604778187812230
 Root     51 :    19.108028397158750
 Root     52 :    19.198584878643030
 Root     53 :    19.370293794231590
 Root     54 :    20.074019013959540
 Root     55 :    20.522201572480910
 Root     56 :    20.814654093238070
 Root     57 :    21.085288398132370
 Root     58 :    21.243910798575360
 Root     59 :    21.429484877209030
 Root     60 :    21.430717336523410
 Root     61 :    21.969092083943330
 Root     62 :    22.229331297580250
 Root     63 :    22.748633176470340
 Root     64 :    22.884628676321120
 Root     65 :    23.185264185719810
 Root     66 :    23.390622479658330
 Root     67 :    23.467856246546540
 Root     68 :    23.768362144553460
 Root     69 :    24.059974323005400
 Root     70 :    24.615418003927750
 Root     71 :    24.646413853477510
 Root     72 :    24.675459251048720
 Root     73 :    25.080384087777670
 Root     74 :    25.098079905727670
 Root     75 :    25.496634425097310
 Root     76 :    25.607950573123700
 Root     77 :    25.669583850174960
 Root     78 :    27.210632498716280
 Root     79 :    27.386318645643010
 Root     80 :    27.481745346698760
 Root     81 :    27.544845310770370
 Root     82 :    27.759814983008100
 Root     83 :    28.428170887502320
 Root     84 :    28.459593437900860
 Root     85 :    28.713017363585670
 Root     86 :    29.002901435181940
 Root     87 :    29.344339483898530
 Root     88 :    29.958516663660250
 Root     89 :    30.023893569071580
 Root     90 :    30.123434857483040
 Root     91 :    30.583578279407310
 Root     92 :    31.772431718108860
 Root     93 :    32.118433480924360
 Root     94 :    32.604265453412610
 Root     95 :    32.921389311641360
 Root     96 :    33.089479854191860
 Root     97 :    33.101681171705280
 Root     98 :    33.297205490990440
 Root     99 :    33.495156423530740
 Root    100 :    33.550931583261160
 Root    101 :    33.602893167520450
 Root    102 :    33.913903712289600
 Root    103 :    34.454778163841320
 Root    104 :    35.609505042614380
 Root    105 :    36.017786324043330
 Root    106 :    36.249192119090640
 Root    107 :    36.706569982080000
 Root    108 :    37.601409527431710
 Root    109 :    37.777888630975370
 Root    110 :    38.079901517470050
 Root    111 :    38.271358869113010
 Root    112 :    38.540488192469210
 Root    113 :    39.149900893225520
 Root    114 :    39.154743874720840
 Root    115 :    39.690414705274570
 Root    116 :    39.692992675519550
 Root    117 :    39.889469037411030
 Root    118 :    40.274253573066530
 Root    119 :    40.356450598322620
 Root    120 :    45.062324112573660
 Iteration     2 Dimension   180 NMult   120 NNew     60
 CISAX will form    60 AO SS matrices at one time.
 NMat=    60 NSing=    60 JSym2X=-1.
 Root      1 not converged, maximum delta is    0.005452375582002
 Root      2 not converged, maximum delta is    0.001950966270492
 Root      3 not converged, maximum delta is    0.004217798420008
 Root      4 not converged, maximum delta is    0.007685912113837
 Root      5 not converged, maximum delta is    0.012728826206372
 Root      6 not converged, maximum delta is    0.001213367490257
 Root      7 not converged, maximum delta is    0.017842905499915
 Root      8 not converged, maximum delta is    0.010384108883839
 Root      9 not converged, maximum delta is    0.001989200639689
 Root     10 not converged, maximum delta is    0.003454248546996
 Root     11 not converged, maximum delta is    0.005017383749649
 Root     12 not converged, maximum delta is    0.001840437571840
 Root     13 not converged, maximum delta is    0.022500535102971
 Root     14 not converged, maximum delta is    0.002002299600737
 Root     15 not converged, maximum delta is    0.027558214479873
 Root     16 not converged, maximum delta is    0.021123139768975
 Root     17 not converged, maximum delta is    0.001668298928143
 Root     18 not converged, maximum delta is    0.016874411600059
 Root     19 not converged, maximum delta is    0.017936441183379
 Root     20 not converged, maximum delta is    0.018518050154133
 Root     21 not converged, maximum delta is    0.003770045464190
 New state     22 was old state     23
 Root     22 not converged, maximum delta is    0.009033287666060
 New state     23 was old state     22
 Root     23 not converged, maximum delta is    0.003171569510206
 Root     24 not converged, maximum delta is    0.012556201806279
 Root     25 not converged, maximum delta is    0.011990203917379
 New state     26 was old state     27
 Root     26 not converged, maximum delta is    0.009323272288346
 New state     27 was old state     26
 Root     27 not converged, maximum delta is    0.004287804493711
 Root     28 not converged, maximum delta is    0.002953661359799
 Root     29 not converged, maximum delta is    0.023945246633295
 Root     30 not converged, maximum delta is    0.005600111611656
 Excitation Energies [eV] at current iteration:
 Root      1 :     3.537331510486275   Change is   -0.011755836201102
 Root      2 :     6.926403253482468   Change is   -0.001647770065590
 Root      3 :     7.680500161154856   Change is   -0.008906543219907
 Root      4 :     7.936475696850321   Change is   -0.002481709054801
 Root      5 :     8.283355509645734   Change is   -0.061885350237508
 Root      6 :     8.456682123229967   Change is   -0.000360247291570
 Root      7 :     8.563138992134457   Change is   -0.067714519939167
 Root      8 :     9.378591159297278   Change is   -0.013552955172289
 Root      9 :     9.801131051308916   Change is   -0.000978030416218
 Root     10 :    10.302955785135100   Change is   -0.008970398791165
 Root     11 :    10.642761268156830   Change is   -0.006643462385433
 Root     12 :    10.792657711006620   Change is   -0.000561471504195
 Root     13 :    11.472508891249790   Change is   -0.009513314356386
 Root     14 :    11.509360431521690   Change is   -0.002364790367410
 Root     15 :    11.534989111896640   Change is   -0.010050133022519
 Root     16 :    12.120285185058030   Change is   -0.028202662347837
 Root     17 :    12.347523969287950   Change is   -0.000860686208642
 Root     18 :    12.397724269604580   Change is   -0.011247167542332
 Root     19 :    12.559661773427320   Change is   -0.003105835927421
 Root     20 :    12.613672795219270   Change is   -0.005681135423531
 Root     21 :    12.928824311396100   Change is   -0.003909198216993
 Root     22 :    13.073247606469680   Change is   -0.018012961748546
 Root     23 :    13.088853679463980   Change is   -0.001921782056264
 Root     24 :    13.306802450705080   Change is   -0.035912417243921
 Root     25 :    13.544264787976500   Change is   -0.007868189670627
 Root     26 :    13.928937136699940   Change is   -0.013220330748278
 Root     27 :    13.936044117184750   Change is   -0.002484366613152
 Root     28 :    14.153028340377260   Change is   -0.000756769185910
 Root     29 :    14.398819710525080   Change is   -0.006536668154769
 Root     30 :    14.730612230775220   Change is   -0.007159437902722
 Iteration     3 Dimension   236 NMult   180 NNew     56
 CISAX will form    56 AO SS matrices at one time.
 NMat=    56 NSing=    56 JSym2X=-1.
 Root      1 has converged.
 Root      2 has converged.
 Root      3 has converged.
 Root      4 has converged.
 Root      5 has converged.
 Root      6 has converged.
 Root      7 has converged.
 Root      8 has converged.
 Root      9 has converged.
 Root     10 has converged.
 Root     11 has converged.
 Root     12 has converged.
 Root     13 has converged.
 Root     14 has converged.
 Root     15 has converged.
 Root     16 has converged.
 Root     17 has converged.
 Root     18 has converged.
 Root     19 has converged.
 Root     20 has converged.
 Root     21 has converged.
 Root     22 has converged.
 Root     23 has converged.
 Root     24 has converged.
 Root     25 has converged.
 Root     26 has converged.
 Root     27 has converged.
 Root     28 has converged.
 Root     29 has converged.
 Root     30 has converged.
 Excitation Energies [eV] at current iteration:
 Root      1 :     3.537330349185831   Change is   -0.000001161300443
 Root      2 :     6.926402143843422   Change is   -0.000001109639047
 Root      3 :     7.680494491187829   Change is   -0.000005669967027
 Root      4 :     7.936473403516361   Change is   -0.000002293333960
 Root      5 :     8.283260403611830   Change is   -0.000095106033903
 Root      6 :     8.456682085229769   Change is   -0.000000038000198
 Root      7 :     8.563052606536957   Change is   -0.000086385597499
 Root      8 :     9.378581402304420   Change is   -0.000009756992859
 Root      9 :     9.801130223104598   Change is   -0.000000828204319
 Root     10 :    10.302948969338580   Change is   -0.000006815796512
 Root     11 :    10.642751784488990   Change is   -0.000009483667845
 Root     12 :    10.792657426542890   Change is   -0.000000284463726
 Root     13 :    11.472487429982710   Change is   -0.000021461267078
 Root     14 :    11.509357009030490   Change is   -0.000003422491197
 Root     15 :    11.534963595025290   Change is   -0.000025516871349
 Root     16 :    12.120210785053670   Change is   -0.000074400004363
 Root     17 :    12.347523322334630   Change is   -0.000000646953323
 Root     18 :    12.397688945304370   Change is   -0.000035324300209
 Root     19 :    12.559657414086870   Change is   -0.000004359340449
 Root     20 :    12.613659689228310   Change is   -0.000013105990964
 Root     21 :    12.928817990896690   Change is   -0.000006320499414
 Root     22 :    13.073187259510090   Change is   -0.000060346959585
 Root     23 :    13.088850286093680   Change is   -0.000003393370297
 Root     24 :    13.306744336118250   Change is   -0.000058114586830
 Root     25 :    13.544256647827890   Change is   -0.000008140148612
 Root     26 :    13.928909690176730   Change is   -0.000027446523204
 Root     27 :    13.936039461894450   Change is   -0.000004655290298
 Root     28 :    14.153027019389240   Change is   -0.000001320988025
 Root     29 :    14.398808226505250   Change is   -0.000011484019830
 Root     30 :    14.730595294698950   Change is   -0.000016936076275
 Convergence achieved on expansion vectors.
 ***********************************************************************
 Excited states from <AA,BB:AA,BB> singles matrix:
 ***********************************************************************
 
 1PDM for each excited state written to RWF  633
 Ground to excited state transition densities written to RWF  633
 Ground to excited state transition electric dipole moments (Au):
       state          X           Y           Z        Dip. S.      Osc.
         1         0.0000      0.0000      0.0000      0.0000      0.0000
         2        -0.0000      0.3599     -0.0000      0.1296      0.0220
         3         0.0000      0.3825      0.0000      0.1463      0.0275
         4         0.0000      0.0000     -0.4474      0.2002      0.0389
         5         0.0770     -0.0000      0.0000      0.0059      0.0012
         6        -0.0000     -0.0000      0.0000      0.0000      0.0000
         7         0.0000     -0.0000      0.8470      0.7174      0.1505
         8        -0.0000      0.0000     -0.0000      0.0000      0.0000
         9        -0.4097     -0.0000     -0.0000      0.1678      0.0403
        10        -0.0000      0.5731     -0.0000      0.3284      0.0829
        11         0.4487     -0.0000      0.0000      0.2013      0.0525
        12         0.0000     -0.0000     -0.0000      0.0000      0.0000
        13        -0.0000     -0.0000     -0.1682      0.0283      0.0079
        14        -0.0000     -0.0516     -0.0000      0.0027      0.0008
        15         0.0000     -0.0000     -0.1701      0.0289      0.0082
        16        -0.0000      0.0000     -0.5644      0.3185      0.0946
        17         0.0000      0.0000     -0.0000      0.0000      0.0000
        18        -0.0000      0.0000      1.0024      1.0047      0.3052
        19        -0.0000     -0.3801      0.0000      0.1445      0.0445
        20        -0.0000     -0.5872      0.0000      0.3448      0.1066
        21         0.2541     -0.0000     -0.0000      0.0646      0.0205
        22         0.0000      0.0000     -0.4893      0.2394      0.0767
        23        -0.2080      0.0000     -0.0000      0.0433      0.0139
        24        -0.0000     -0.1400     -0.0000      0.0196      0.0064
        25         0.0000      0.3134      0.0000      0.0982      0.0326
        26        -0.0000     -0.0000      0.0961      0.0092      0.0032
        27         0.0000      0.0000      0.0000      0.0000      0.0000
        28         0.0000     -0.0000      0.0000      0.0000      0.0000
        29        -0.0122      0.0000     -0.0000      0.0001      0.0001
        30        -0.0000     -0.0000      0.2757      0.0760      0.0274
 Ground to excited state transition velocity dipole moments (Au):
       state          X           Y           Z        Dip. S.      Osc.
         1        -0.0000     -0.0000     -0.0000      0.0000      0.0000
         2         0.0000     -0.0933      0.0000      0.0087      0.0228
         3        -0.0000     -0.1126      0.0000      0.0127      0.0299
         4        -0.0000      0.0000      0.1279      0.0164      0.0374
         5        -0.0368      0.0000      0.0000      0.0014      0.0030
         6         0.0000      0.0000     -0.0000      0.0000      0.0000
         7        -0.0000      0.0000     -0.2550      0.0650      0.1378
         8         0.0000     -0.0000      0.0000      0.0000      0.0000
         9         0.1514      0.0000     -0.0000      0.0229      0.0424
        10         0.0000     -0.2162      0.0000      0.0467      0.0823
        11        -0.1835      0.0000      0.0000      0.0337      0.0574
        12        -0.0000      0.0000      0.0000      0.0000      0.0000
        13         0.0000      0.0000      0.0761      0.0058      0.0092
        14         0.0000     -0.0002      0.0000      0.0000      0.0000
        15        -0.0000      0.0000      0.0730      0.0053      0.0084
        16         0.0000      0.0000      0.2434      0.0592      0.0886
        17        -0.0000     -0.0000      0.0000      0.0000      0.0000
        18         0.0000     -0.0000     -0.4641      0.2154      0.3152
        19         0.0000      0.1730     -0.0000      0.0299      0.0432
        20         0.0000      0.2695     -0.0000      0.0726      0.1045
        21        -0.0995      0.0000      0.0000      0.0099      0.0139
        22        -0.0000     -0.0000      0.2268      0.0514      0.0714
        23         0.0953     -0.0000      0.0000      0.0091      0.0126
        24         0.0000      0.0714     -0.0000      0.0051      0.0069
        25        -0.0000     -0.1574     -0.0000      0.0248      0.0332
        26         0.0000      0.0000     -0.0422      0.0018      0.0023
        27         0.0000     -0.0000     -0.0000      0.0000      0.0000
        28        -0.0000      0.0000     -0.0000      0.0000      0.0000
        29         0.0129     -0.0000      0.0000      0.0002      0.0002
        30         0.0000      0.0000     -0.1480      0.0219      0.0270
 Ground to excited state transition magnetic dipole moments (Au):
       state          X           Y           Z
         1        -0.0000      0.0000      1.1882
         2        -0.4129      0.0000     -0.0000
         3         0.6653     -0.0000     -0.0000
         4        -0.0000     -0.0000     -0.0000
         5         0.0000     -1.5894     -0.0000
         6        -0.0000     -0.0000     -0.0356
         7        -0.0000     -0.0000     -0.0000
         8        -0.0000      0.0000     -0.7365
         9         0.0000     -0.0020      0.0000
        10        -0.7879     -0.0000      0.0000
        11         0.0000      0.0921     -0.0000
        12        -0.0000      0.0000      0.0370
        13        -0.0000      0.0000      0.0000
        14         0.5065     -0.0000     -0.0000
        15        -0.0000     -0.0000      0.0000
        16        -0.0000     -0.0000      0.0000
        17        -0.0000     -0.0000     -0.0141
        18        -0.0000      0.0000      0.0000
        19        -0.1931     -0.0000      0.0000
        20         0.3577      0.0000     -0.0000
        21        -0.0000     -0.1348      0.0000
        22         0.0000      0.0000     -0.0000
        23         0.0000      0.3004      0.0000
        24        -0.5609      0.0000      0.0000
        25        -0.5460      0.0000      0.0000
        26         0.0000     -0.0000      0.0000
        27        -0.0000      0.0000     -0.0162
        28        -0.0000     -0.0000      0.0349
        29        -0.0000     -0.1582     -0.0000
        30        -0.0000     -0.0000      0.0000
 Ground to excited state transition velocity quadrupole moments (Au):
       state          XX          YY          ZZ          XY          XZ          YZ
         1        -0.0000     -0.0000     -0.0000     -0.0811      0.0000     -0.0000
         2        -0.0000     -0.0000      0.0000      0.0000     -0.0000      0.4702
         3         0.0000     -0.0000      0.0000      0.0000     -0.0000     -0.0293
         4        -0.0306     -0.2757     -0.2667      0.0000     -0.0000      0.0000
         5        -0.0000      0.0000      0.0000      0.0000     -0.3140     -0.0000
         6         0.0000      0.0000      0.0000     -0.0563      0.0000      0.0000
         7         0.2216     -0.0193     -0.1860     -0.0000     -0.0000      0.0000
         8         0.0000     -0.0000     -0.0000      0.2114     -0.0000      0.0000
         9         0.0000      0.0000      0.0000     -0.0000     -0.1325     -0.0000
        10         0.0000     -0.0000      0.0000     -0.0000     -0.0000      0.4898
        11         0.0000      0.0000      0.0000     -0.0000     -0.2862     -0.0000
        12        -0.0000     -0.0000     -0.0000      0.2813     -0.0000     -0.0000
        13         0.6046      0.0177     -0.0887     -0.0000      0.0000      0.0000
        14         0.0000     -0.0000      0.0000      0.0000     -0.0000      0.3364
        15         0.4153     -0.1419      0.1097     -0.0000     -0.0000     -0.0000
        16        -0.2861     -0.7097     -0.6772     -0.0000     -0.0000      0.0000
        17        -0.0000     -0.0000     -0.0000      0.3438     -0.0000      0.0000
        18        -0.0658      0.2510      0.3492     -0.0000      0.0000      0.0000
        19        -0.0000     -0.0000     -0.0000     -0.0000      0.0000     -0.2336
        20        -0.0000     -0.0000     -0.0000      0.0000      0.0000     -0.6529
        21        -0.0000      0.0000     -0.0000     -0.0000      0.0538     -0.0000
        22         0.1879      0.5153      0.2485      0.0000      0.0000      0.0000
        23         0.0000      0.0000      0.0000     -0.0000     -0.0040     -0.0000
        24         0.0000      0.0000      0.0000     -0.0000     -0.0000      0.1715
        25         0.0000      0.0000      0.0000      0.0000      0.0000     -0.2802
        26         0.3301      1.0740      0.2588     -0.0000     -0.0000     -0.0000
        27         0.0000     -0.0000     -0.0000     -0.2583      0.0000     -0.0000
        28         0.0000      0.0000      0.0000      0.3077     -0.0000      0.0000
        29        -0.0000      0.0000     -0.0000      0.0000      0.0190      0.0000
        30        -0.1814      0.4547     -0.1488      0.0000     -0.0000      0.0000
 <0|del|b> * <b|rxdel|0> + <0|del|b> * <b|delr+rdel|0>
 Rotatory Strengths (R) in cgs (10**-40 erg-esu-cm/Gauss)
       state          XX          YY          ZZ    R(velocity)    E-M Angle
         1        -0.0000     -0.0000     -0.0000     -0.0000       90.00
         2        -0.0000      0.0000     -0.0000     -0.0000       90.00
         3         0.0000     -0.0000     -0.0000     -0.0000       90.00
         4        -0.0000     -0.0000      0.0000     -0.0000       90.00
         5        -0.0000      0.0000     -0.0000     -0.0000       90.00
         6         0.0000     -0.0000     -0.0000      0.0000       90.00
         7         0.0000      0.0000      0.0000      0.0000       90.00
         8        -0.0000     -0.0000     -0.0000     -0.0000       90.00
         9         0.0000      0.0000      0.0000      0.0000       90.00
        10         0.0000     -0.0000     -0.0000     -0.0000       90.00
        11         0.0000     -0.0000     -0.0000     -0.0000       90.00
        12         0.0000     -0.0000     -0.0000      0.0000       90.00
        13         0.0000      0.0000     -0.0000      0.0000       90.00
        14        -0.0000      0.0000      0.0000      0.0000       90.00
        15        -0.0000      0.0000     -0.0000      0.0000       90.00
        16        -0.0000      0.0000     -0.0000      0.0000       90.00
        17         0.0000     -0.0000      0.0000     -0.0000       90.00
        18         0.0000     -0.0000     -0.0000     -0.0000       90.00
        19        -0.0000     -0.0000      0.0000     -0.0000       90.00
        20         0.0000     -0.0000      0.0000      0.0000       90.00
        21        -0.0000      0.0000     -0.0000      0.0000       90.00
        22         0.0000     -0.0000     -0.0000     -0.0000       90.00
        23        -0.0000      0.0000      0.0000      0.0000       90.00
        24         0.0000     -0.0000     -0.0000     -0.0000       90.00
        25        -0.0000      0.0000     -0.0000      0.0000       90.00
        26         0.0000     -0.0000      0.0000     -0.0000       90.00
        27         0.0000     -0.0000     -0.0000      0.0000       90.00
        28        -0.0000      0.0000      0.0000     -0.0000       90.00
        29         0.0000     -0.0000      0.0000      0.0000       90.00
        30        -0.0000      0.0000     -0.0000     -0.0000       90.00
 1/2[<0|r|b>*<b|rxdel|0> + (<0|rxdel|b>*<b|r|0>)*]
 Rotatory Strengths (R) in cgs (10**-40 erg-esu-cm/Gauss)
       state          XX          YY          ZZ     R(length)
         1         0.0000     -0.0000     -0.0000     -0.0000
         2        -0.0000     -0.0000     -0.0000     -0.0000
         3        -0.0000      0.0000      0.0000     -0.0000
         4         0.0000      0.0000     -0.0000     -0.0000
         5        -0.0000     -0.0000      0.0000     -0.0000
         6        -0.0000     -0.0000      0.0000      0.0000
         7         0.0000     -0.0000      0.0000      0.0000
         8        -0.0000     -0.0000     -0.0000     -0.0000
         9         0.0000     -0.0000      0.0000      0.0000
        10        -0.0000      0.0000      0.0000     -0.0000
        11        -0.0000      0.0000      0.0000     -0.0000
        12         0.0000      0.0000      0.0000      0.0000
        13        -0.0000      0.0000      0.0000      0.0000
        14         0.0000     -0.0000     -0.0000      0.0000
        15         0.0000     -0.0000      0.0000      0.0000
        16        -0.0000      0.0000      0.0000      0.0000
        17         0.0000      0.0000     -0.0000     -0.0000
        18        -0.0000     -0.0000     -0.0000     -0.0000
        19        -0.0000     -0.0000     -0.0000     -0.0000
        20         0.0000      0.0000      0.0000      0.0000
        21         0.0000     -0.0000      0.0000      0.0000
        22        -0.0000     -0.0000     -0.0000     -0.0000
        23         0.0000     -0.0000      0.0000      0.0000
        24        -0.0000      0.0000      0.0000     -0.0000
        25         0.0000     -0.0000     -0.0000     -0.0000
        26         0.0000     -0.0000     -0.0000     -0.0000
        27         0.0000     -0.0000      0.0000      0.0000
        28         0.0000     -0.0000     -0.0000     -0.0000
        29        -0.0000      0.0000     -0.0000      0.0000
        30        -0.0000     -0.0000     -0.0000     -0.0000
  1/2[<0|del|b>*<b|r|0> + (<0|r|b>*<b|del|0>)*] (Au)
       state          X           Y           Z        Dip. S.   Osc.(frdel)
         1        -0.0000     -0.0000     -0.0000      0.0000      0.0000
         2        -0.0000     -0.0336     -0.0000      0.0336      0.0224
         3        -0.0000     -0.0431      0.0000      0.0431      0.0287
         4        -0.0000      0.0000     -0.0572      0.0572      0.0381
         5        -0.0028     -0.0000      0.0000      0.0028      0.0019
         6        -0.0000     -0.0000     -0.0000      0.0000      0.0000
         7        -0.0000     -0.0000     -0.2160      0.2160      0.1440
         8        -0.0000     -0.0000     -0.0000      0.0000      0.0000
         9        -0.0620     -0.0000      0.0000      0.0620      0.0414
        10        -0.0000     -0.1239     -0.0000      0.1239      0.0826
        11        -0.0823     -0.0000      0.0000      0.0823      0.0549
        12        -0.0000     -0.0000     -0.0000      0.0000      0.0000
        13        -0.0000     -0.0000     -0.0128      0.0128      0.0085
        14        -0.0000      0.0000     -0.0000     -0.0000     -0.0000
        15        -0.0000     -0.0000     -0.0124      0.0124      0.0083
        16        -0.0000      0.0000     -0.1373      0.1373      0.0916
        17        -0.0000     -0.0000     -0.0000      0.0000      0.0000
        18        -0.0000     -0.0000     -0.4652      0.4652      0.3101
        19        -0.0000     -0.0658     -0.0000      0.0658      0.0438
        20        -0.0000     -0.1582     -0.0000      0.1582      0.1055
        21        -0.0253     -0.0000     -0.0000      0.0253      0.0168
        22        -0.0000     -0.0000     -0.1110      0.1110      0.0740
        23        -0.0198     -0.0000     -0.0000      0.0198      0.0132
        24        -0.0000     -0.0100      0.0000      0.0100      0.0067
        25        -0.0000     -0.0493     -0.0000      0.0493      0.0329
        26        -0.0000     -0.0000     -0.0041      0.0041      0.0027
        27         0.0000     -0.0000     -0.0000      0.0000      0.0000
        28        -0.0000     -0.0000     -0.0000      0.0000      0.0000
        29        -0.0002     -0.0000     -0.0000      0.0002      0.0001
        30        -0.0000     -0.0000     -0.0408      0.0408      0.0272

 Excitation energies and oscillator strengths:
 
 Excited State   1:      Singlet-A2     3.5373 eV  350.50 nm  f=0.0000  <S**2>=0.000
       3 -> 27         0.00225
       3 -> 38         0.00188
       3 -> 45         0.00268
       4 -> 27         0.00164
       4 -> 38        -0.00047
       4 -> 45        -0.00136
       5 ->  9         0.01966
       5 -> 13        -0.00192
       5 -> 17         0.00525
       5 -> 23         0.00040
       5 -> 29         0.00433
       5 -> 31        -0.00177
       5 -> 37         0.00306
       5 -> 44         0.00057
       5 -> 48         0.00014
       5 -> 52         0.00070
       6 -> 27        -0.00028
       6 -> 38        -0.00087
       6 -> 45         0.00176
       7 -> 12        -0.00062
       7 -> 15         0.00321
       7 -> 18        -0.00303
       7 -> 22         0.00040
       7 -> 25         0.00141
       7 -> 30        -0.00100
       7 -> 33         0.00045
       7 -> 35         0.00020
       7 -> 40         0.00018
       7 -> 42        -0.00011
       7 -> 49         0.00027
       7 -> 50         0.00032
       7 -> 53         0.00047
       8 ->  9         0.70606
       8 -> 13        -0.03513
       8 -> 17         0.02269
       8 -> 23        -0.00918
       8 -> 29         0.00978
       8 -> 31        -0.00190
       8 -> 37         0.00018
       8 -> 48        -0.00026
       8 -> 52         0.00177
       3 <- 27         0.00141
       3 <- 38         0.00154
       3 <- 45         0.00277
       4 <- 27         0.00243
       4 <- 45        -0.00114
       5 <-  9        -0.00052
       5 <- 13        -0.00079
       5 <- 17        -0.00101
       5 <- 23         0.00051
       5 <- 29        -0.00070
       5 <- 31         0.00078
       5 <- 37         0.00150
       5 <- 44         0.00022
       5 <- 48         0.00014
       5 <- 52         0.00019
       6 <- 27         0.00032
       6 <- 38        -0.00076
       6 <- 45         0.00138
       7 <- 12        -0.00065
       7 <- 15        -0.00783
       7 <- 18         0.00084
       7 <- 22         0.00744
       7 <- 30         0.00382
       7 <- 33        -0.00123
       7 <- 35         0.00221
       7 <- 40         0.00092
       7 <- 50         0.00022
       7 <- 53         0.00134
       8 <-  9        -0.02750
       8 <- 13         0.00248
       8 <- 17        -0.00466
       8 <- 23         0.00077
       8 <- 29        -0.00121
       8 <- 31        -0.00066
       8 <- 37        -0.00124
       8 <- 52         0.00050
 This state for optimization and/or second-order correction.
 Total Energy, E(TD-HF/TD-DFT) =  -114.404517568    
 Copying the excited state density for this state as the 1-particle RhoCI density.
 
 Excited State   2:      Singlet-B2     6.9264 eV  179.00 nm  f=0.0220  <S**2>=0.000
       3 -> 12         0.00162
       3 -> 15         0.00068
       3 -> 18         0.00125
       3 -> 22        -0.00033
       3 -> 25         0.00123
       3 -> 33         0.00023
       3 -> 35        -0.00048
       3 -> 40        -0.00017
       4 -> 12        -0.00270
       4 -> 15         0.00199
       4 -> 18         0.00191
       4 -> 22        -0.00325
       4 -> 25         0.00316
       4 -> 30         0.00034
       4 -> 33        -0.00037
       4 -> 35         0.00049
       4 -> 40         0.00044
       4 -> 42        -0.00013
       5 -> 10        -0.00786
       5 -> 11        -0.00755
       5 -> 14         0.00704
       5 -> 16        -0.00069
       5 -> 19        -0.00173
       5 -> 20         0.00277
       5 -> 21         0.00584
       5 -> 24        -0.00044
       5 -> 26         0.00221
       5 -> 28         0.00103
       5 -> 32        -0.00104
       5 -> 34        -0.00099
       5 -> 36        -0.00018
       5 -> 39        -0.00026
       5 -> 41        -0.00045
       5 -> 43        -0.00050
       5 -> 46        -0.00024
       5 -> 54         0.00012
       6 -> 12        -0.00054
       6 -> 15         0.00146
       6 -> 18         0.00147
       6 -> 22        -0.00234
       6 -> 25         0.00101
       6 -> 30        -0.00053
       6 -> 33        -0.00026
       6 -> 35         0.00053
       6 -> 42        -0.00017
       6 -> 49         0.00045
       6 -> 50        -0.00024
       7 -> 38        -0.00064
       7 -> 45         0.00026
       8 -> 10         0.70262
       8 -> 11        -0.07389
       8 -> 14         0.01808
       8 -> 16        -0.00464
       8 -> 19         0.00433
       8 -> 20         0.01707
       8 -> 21        -0.00249
       8 -> 26         0.00281
       8 -> 28         0.00096
       8 -> 32         0.00097
       8 -> 34         0.00086
       8 -> 36         0.00033
       8 -> 39         0.00033
       8 -> 41        -0.00022
       8 -> 43         0.00059
       8 -> 46        -0.00044
       8 -> 47         0.00016
       8 -> 51        -0.00013
       8 -> 54         0.00021
       3 <- 12         0.00037
       3 <- 15         0.00052
       3 <- 18         0.00047
       3 <- 22        -0.00050
       3 <- 25         0.00069
       3 <- 30        -0.00011
       3 <- 33         0.00020
       3 <- 35        -0.00043
       3 <- 40        -0.00019
       3 <- 49         0.00015
       4 <- 12         0.00077
       4 <- 15         0.00196
       4 <- 18         0.00182
       4 <- 22        -0.00203
       4 <- 25         0.00215
       4 <- 30         0.00024
       4 <- 33        -0.00019
       4 <- 35         0.00024
       4 <- 40         0.00012
       4 <- 42        -0.00023
       4 <- 50        -0.00013
       5 <- 10         0.00230
       5 <- 11        -0.00024
       5 <- 14         0.00468
       5 <- 16        -0.00058
       5 <- 19        -0.00028
       5 <- 20         0.00081
       5 <- 21         0.00182
       5 <- 24        -0.00208
       5 <- 26         0.00146
       5 <- 28         0.00012
       5 <- 32        -0.00075
       5 <- 34        -0.00091
       5 <- 36        -0.00025
       5 <- 39        -0.00014
       5 <- 41        -0.00026
       5 <- 43        -0.00039
       5 <- 46        -0.00022
       6 <- 15        -0.00020
       6 <- 18         0.00101
       6 <- 22        -0.00053
       6 <- 25         0.00034
       6 <- 30         0.00033
       6 <- 33        -0.00032
       6 <- 35         0.00058
       6 <- 42        -0.00016
       6 <- 49         0.00037
       6 <- 50        -0.00026
       6 <- 53         0.00016
       7 <- 27         0.00010
       7 <- 38        -0.00048
       7 <- 45         0.00025
       8 <- 10        -0.00151
       8 <- 11        -0.00056
       8 <- 14        -0.00457
       8 <- 16        -0.00053
       8 <- 19         0.00021
       8 <- 20        -0.00069
       8 <- 21        -0.00155
       8 <- 24         0.00193
       8 <- 26        -0.00083
       8 <- 28        -0.00045
       8 <- 32         0.00097
       8 <- 36         0.00032
       8 <- 39         0.00023
       8 <- 43         0.00038
       8 <- 46        -0.00026
 
 Excited State   3:      Singlet-B2     7.6805 eV  161.43 nm  f=0.0275  <S**2>=0.000
       3 -> 12        -0.00034
       3 -> 15        -0.00097
       3 -> 18         0.00109
       3 -> 22         0.00050
       3 -> 30         0.00248
       3 -> 33         0.00015
       3 -> 35        -0.00061
       3 -> 40        -0.00053
       3 -> 49         0.00060
       3 -> 50        -0.00019
       4 -> 12         0.00247
       4 -> 15         0.00039
       4 -> 18         0.00189
       4 -> 22        -0.00149
       4 -> 25         0.00281
       4 -> 30        -0.00138
       4 -> 33         0.00049
       4 -> 35        -0.00058
       4 -> 49         0.00023
       5 -> 10        -0.00577
       5 -> 11        -0.00021
       5 -> 14         0.00980
       5 -> 16        -0.00686
       5 -> 19        -0.00070
       5 -> 20        -0.00479
       5 -> 21         0.00239
       5 -> 24        -0.00082
       5 -> 26         0.00155
       5 -> 28         0.00155
       5 -> 32        -0.00011
       5 -> 34        -0.00086
       5 -> 36        -0.00038
       5 -> 39         0.00045
       5 -> 41        -0.00067
       5 -> 43         0.00019
       5 -> 46         0.00091
       5 -> 51        -0.00042
       6 -> 12        -0.00285
       6 -> 15        -0.00146
       6 -> 18        -0.00075
       6 -> 22         0.00112
       6 -> 25         0.00017
       6 -> 30         0.00116
       6 -> 33        -0.00055
       6 -> 35         0.00149
       6 -> 40         0.00112
       6 -> 49        -0.00128
       6 -> 50         0.00031
       6 -> 53         0.00012
       7 -> 27         0.00021
       7 -> 38        -0.00083
       7 -> 45        -0.00200
       8 -> 10         0.07403
       8 -> 11         0.70217
       8 -> 14        -0.00177
       8 -> 16         0.00882
       8 -> 19        -0.03477
       8 -> 21        -0.00286
       8 -> 24         0.00032
       8 -> 26        -0.00069
       8 -> 28         0.00207
       8 -> 32         0.00012
       8 -> 34        -0.00021
       8 -> 36        -0.00022
       8 -> 39        -0.00026
       8 -> 41        -0.00111
       8 -> 43         0.00038
       8 -> 46         0.00234
       8 -> 47        -0.00010
       8 -> 51        -0.00109
       3 <- 12         0.00034
       3 <- 15        -0.00031
       3 <- 18         0.00100
       3 <- 25         0.00022
       3 <- 30         0.00134
       3 <- 33         0.00026
       3 <- 35        -0.00063
       3 <- 40        -0.00049
       3 <- 49         0.00053
       3 <- 50        -0.00012
       3 <- 53        -0.00033
       4 <- 12         0.00030
       4 <- 15         0.00085
       4 <- 18         0.00041
       4 <- 22        -0.00116
       4 <- 25         0.00120
       4 <- 30        -0.00072
       4 <- 33         0.00046
       4 <- 35        -0.00029
       4 <- 42        -0.00011
       4 <- 49         0.00018
       5 <- 10         0.00120
       5 <- 11        -0.00136
       5 <- 14         0.00273
       5 <- 16        -0.00043
       5 <- 19         0.00144
       5 <- 20        -0.00041
       5 <- 21         0.00081
       5 <- 24        -0.00141
       5 <- 26         0.00011
       5 <- 28         0.00065
       5 <- 32        -0.00089
       5 <- 36         0.00013
       5 <- 39         0.00011
       5 <- 41        -0.00071
       5 <- 43         0.00010
       5 <- 46         0.00087
       5 <- 47        -0.00012
       5 <- 51        -0.00030
       6 <- 12        -0.00028
       6 <- 15        -0.00104
       6 <- 18         0.00034
       6 <- 22         0.00090
       6 <- 25        -0.00014
       6 <- 30         0.00111
       6 <- 33        -0.00047
       6 <- 35         0.00129
       6 <- 40         0.00089
       6 <- 49        -0.00104
       6 <- 50         0.00023
       7 <- 27         0.00035
       7 <- 38        -0.00066
       7 <- 45        -0.00167
       8 <- 10        -0.00081
       8 <- 11        -0.00177
       8 <- 14        -0.00362
       8 <- 16         0.00041
       8 <- 19         0.00525
       8 <- 21        -0.00195
       8 <- 24        -0.00046
       8 <- 26        -0.00165
       8 <- 28         0.00058
       8 <- 32        -0.00127
       8 <- 34         0.00161
       8 <- 39        -0.00071
       8 <- 41        -0.00102
       8 <- 43         0.00018
       8 <- 46         0.00188
       8 <- 47        -0.00030
       8 <- 51        -0.00072
 
 Excited State   4:      Singlet-A1     7.9365 eV  156.22 nm  f=0.0389  <S**2>=0.000
       3 -> 10         0.00224
       3 -> 11        -0.00024
       3 -> 14         0.00136
       3 -> 19        -0.00216
       3 -> 20         0.00219
       3 -> 21         0.00111
       3 -> 24         0.00088
       3 -> 26         0.00138
       3 -> 28         0.00084
       3 -> 32         0.00018
       3 -> 34        -0.00088
       3 -> 36        -0.00016
       3 -> 41        -0.00019
       3 -> 46         0.00021
       3 -> 47        -0.00029
       3 -> 51        -0.00014
       3 -> 54        -0.00016
       4 -> 10         0.00504
       4 -> 11         0.00406
       4 -> 14         0.00455
       4 -> 16         0.00068
       4 -> 19         0.00033
       4 -> 20         0.00304
       4 -> 21        -0.00060
       4 -> 24        -0.00683
       4 -> 26         0.00228
       4 -> 28        -0.00026
       4 -> 32        -0.00062
       4 -> 34         0.00028
       4 -> 43         0.00016
       4 -> 46        -0.00020
       4 -> 51        -0.00013
       5 -> 12         0.00568
       5 -> 15         0.00378
       5 -> 18         0.00898
       5 -> 22        -0.00266
       5 -> 25         0.00559
       5 -> 30        -0.00038
       5 -> 33        -0.00024
       5 -> 35         0.00074
       5 -> 50         0.00015
       5 -> 53        -0.00012
       6 -> 10         0.01014
       6 -> 11        -0.00272
       6 -> 14         0.00382
       6 -> 16        -0.00072
       6 -> 19         0.00266
       6 -> 20         0.00131
       6 -> 21        -0.00172
       6 -> 24        -0.00498
       6 -> 26        -0.00063
       6 -> 28        -0.00244
       6 -> 32        -0.00024
       6 -> 34        -0.00017
       6 -> 39         0.00022
       6 -> 43         0.00016
       6 -> 47         0.00072
       6 -> 51         0.00020
       6 -> 54        -0.00012
       7 ->  9         0.03923
       7 -> 13         0.01266
       7 -> 23         0.00519
       7 -> 29        -0.00098
       7 -> 31        -0.00100
       7 -> 37         0.00058
       7 -> 44         0.00060
       7 -> 48        -0.00031
       8 -> 12         0.70502
       8 -> 15         0.00388
       8 -> 18         0.02903
       8 -> 22         0.00176
       8 -> 25         0.00491
       8 -> 30        -0.00107
       8 -> 33         0.00176
       8 -> 35        -0.00207
       8 -> 40         0.00032
       8 -> 49        -0.00047
       8 -> 50         0.00024
       8 -> 53        -0.00027
       3 <- 10         0.00069
       3 <- 11         0.00047
       3 <- 14         0.00071
       3 <- 16         0.00016
       3 <- 19        -0.00130
       3 <- 20         0.00095
       3 <- 21         0.00075
       3 <- 24         0.00026
       3 <- 26         0.00096
       3 <- 28         0.00056
       3 <- 32         0.00029
       3 <- 34        -0.00060
       3 <- 36        -0.00011
       3 <- 41        -0.00011
       3 <- 46         0.00029
       3 <- 47        -0.00023
       3 <- 51        -0.00012
       3 <- 54        -0.00015
       4 <- 10         0.00399
       4 <- 11         0.00072
       4 <- 14         0.00329
       4 <- 20         0.00175
       4 <- 21        -0.00049
       4 <- 24        -0.00368
       4 <- 26         0.00138
       4 <- 32        -0.00082
       4 <- 34        -0.00013
       4 <- 41        -0.00013
       4 <- 43         0.00013
       4 <- 46        -0.00014
       4 <- 51        -0.00011
       5 <- 12         0.00278
       5 <- 15         0.00311
       5 <- 18         0.00322
       5 <- 22        -0.00103
       5 <- 25         0.00304
       5 <- 30        -0.00020
       5 <- 33        -0.00038
       5 <- 35         0.00066
       5 <- 53        -0.00010
       6 <- 10         0.00239
       6 <- 14         0.00145
       6 <- 16        -0.00028
       6 <- 19         0.00072
       6 <- 20         0.00060
       6 <- 21        -0.00100
       6 <- 24        -0.00240
       6 <- 26        -0.00019
       6 <- 28        -0.00158
       6 <- 32        -0.00032
       6 <- 34        -0.00020
       6 <- 46        -0.00017
       6 <- 47         0.00059
       6 <- 51         0.00022
       6 <- 54        -0.00011
       7 <-  9        -0.00310
       7 <- 13         0.00259
       7 <- 17        -0.00047
       7 <- 23         0.00264
       7 <- 29        -0.00078
       7 <- 31        -0.00065
       7 <- 37         0.00044
       7 <- 44         0.00051
       7 <- 48        -0.00028
       8 <- 12        -0.00034
       8 <- 15        -0.00336
       8 <- 18        -0.00164
       8 <- 25        -0.00123
       8 <- 30        -0.00129
       8 <- 33         0.00067
       8 <- 35        -0.00077
       8 <- 40         0.00040
       8 <- 49        -0.00046
       8 <- 50         0.00015
       8 <- 53        -0.00026
 
 Excited State   5:      Singlet-B1     8.2833 eV  149.68 nm  f=0.0012  <S**2>=0.000
       3 ->  9        -0.03343
       3 -> 13         0.00492
       3 -> 17        -0.00698
       3 -> 23         0.00395
       3 -> 29        -0.00254
       3 -> 31        -0.00026
       3 -> 44         0.00064
       3 -> 48         0.00017
       3 -> 52         0.00113
       4 ->  9         0.01685
       4 -> 13        -0.00276
       4 -> 17         0.00097
       4 -> 23        -0.00249
       4 -> 31        -0.00248
       4 -> 37        -0.00040
       4 -> 48        -0.00161
       4 -> 52        -0.00097
       5 -> 27        -0.00172
       5 -> 38         0.00211
       5 -> 45         0.00284
       6 ->  9         0.70505
       6 -> 13        -0.03458
       6 -> 17         0.02270
       6 -> 23        -0.01242
       6 -> 29         0.00791
       6 -> 31         0.00370
       6 -> 37        -0.00262
       6 -> 44        -0.00352
       6 -> 48         0.00555
       6 -> 52         0.00196
       7 -> 10         0.00300
       7 -> 11         0.00855
       7 -> 14         0.00048
       7 -> 16        -0.01253
       7 -> 19        -0.00370
       7 -> 20         0.00265
       7 -> 21         0.00382
       7 -> 24         0.00284
       7 -> 26         0.00243
       7 -> 28        -0.00467
       7 -> 32        -0.00130
       7 -> 36        -0.00156
       7 -> 39         0.00032
       7 -> 41        -0.00214
       7 -> 43         0.00103
       7 -> 46         0.00498
       7 -> 47         0.00231
       7 -> 51         0.00109
       7 -> 54         0.00054
       8 -> 27         0.00299
       8 -> 38         0.00100
       8 -> 45         0.00684
       3 <-  9        -0.01038
       3 <- 13         0.00080
       3 <- 17        -0.00337
       3 <- 23         0.00052
       3 <- 29        -0.00151
       3 <- 31        -0.00015
       3 <- 37        -0.00016
       3 <- 44        -0.00011
       3 <- 48         0.00046
       3 <- 52         0.00091
       4 <-  9         0.00533
       4 <- 17         0.00250
       4 <- 23        -0.00032
       4 <- 29         0.00224
       4 <- 31        -0.00244
       4 <- 37         0.00021
       4 <- 44         0.00020
       4 <- 48        -0.00139
       4 <- 52        -0.00052
       5 <- 27        -0.00172
       5 <- 38         0.00160
       5 <- 45         0.00249
       6 <-  9        -0.02126
       6 <- 13         0.00324
       6 <- 17        -0.00307
       6 <- 23         0.00071
       6 <- 29        -0.00193
       6 <- 31         0.00320
       6 <- 37        -0.00269
       6 <- 44        -0.00218
       6 <- 48         0.00483
       6 <- 52         0.00070
       7 <- 10         0.00163
       7 <- 11         0.00260
       7 <- 14         0.00066
       7 <- 16         0.00034
       7 <- 19        -0.00704
       7 <- 20         0.00848
       7 <- 21         0.00711
       7 <- 24         0.00689
       7 <- 26         0.00452
       7 <- 28         0.00077
       7 <- 32        -0.00126
       7 <- 34         0.00152
       7 <- 36        -0.00249
       7 <- 39         0.00053
       7 <- 41        -0.00151
       7 <- 43         0.00100
       7 <- 46         0.00443
       7 <- 47         0.00185
       7 <- 51         0.00075
       7 <- 54         0.00100
       8 <- 27         0.00260
       8 <- 38         0.00099
       8 <- 45         0.00597
 
 Excited State   6:      Singlet-A2     8.4567 eV  146.61 nm  f=0.0000  <S**2>=0.000
       3 -> 27        -0.00038
       3 -> 38        -0.00033
       3 -> 45        -0.00014
       4 -> 27         0.00013
       4 -> 38         0.00043
       5 ->  9         0.00039
       5 -> 13        -0.00609
       5 -> 17         0.00663
       5 -> 23        -0.00231
       5 -> 29        -0.00024
       5 -> 31         0.00119
       5 -> 37        -0.00084
       5 -> 44        -0.00018
       6 -> 27         0.00022
       6 -> 38         0.00030
       6 -> 45        -0.00014
       7 -> 12         0.00039
       7 -> 15        -0.00193
       7 -> 18         0.00203
       7 -> 22        -0.00077
       7 -> 35        -0.00012
       8 ->  9         0.03448
       8 -> 13         0.70564
       8 -> 17         0.02329
       8 -> 23         0.01554
       8 -> 29         0.00020
       8 -> 31         0.00179
       8 -> 37        -0.00042
       8 -> 48         0.00016
       3 <- 38        -0.00018
       3 <- 45        -0.00020
       4 <- 27        -0.00010
       5 <-  9        -0.00046
       5 <- 13        -0.00030
       5 <- 17         0.00044
       5 <- 37        -0.00019
       6 <- 38         0.00018
       7 <- 12        -0.00050
       7 <- 15        -0.00111
       7 <- 18         0.00080
       7 <- 22        -0.00081
       7 <- 25        -0.00043
       7 <- 30         0.00024
       7 <- 33         0.00032
       7 <- 35        -0.00052
       7 <- 40        -0.00033
       8 <-  9         0.00107
       8 <- 13         0.00113
       8 <- 17         0.00024
       8 <- 23        -0.00010
 
 Excited State   7:      Singlet-A1     8.5631 eV  144.79 nm  f=0.1505  <S**2>=0.000
       3 -> 10         0.00413
       3 -> 11         0.01261
       3 -> 14         0.00578
       3 -> 16        -0.00146
       3 -> 19        -0.02069
       3 -> 20         0.00793
       3 -> 21         0.00811
       3 -> 24         0.00824
       3 -> 26         0.01070
       3 -> 28         0.00291
       3 -> 32         0.00346
       3 -> 34        -0.00367
       3 -> 36        -0.00273
       3 -> 39         0.00171
       3 -> 41         0.00030
       3 -> 43         0.00091
       3 -> 46         0.00181
       3 -> 47         0.00043
       3 -> 51        -0.00016
       3 -> 54         0.00027
       4 -> 10         0.03282
       4 -> 11        -0.01277
       4 -> 14         0.01848
       4 -> 16         0.00052
       4 -> 19         0.01133
       4 -> 20         0.00888
       4 -> 21         0.00129
       4 -> 24        -0.00909
       4 -> 26         0.00588
       4 -> 28         0.00063
       4 -> 32        -0.00145
       4 -> 34         0.00343
       4 -> 36         0.00094
       4 -> 39        -0.00018
       4 -> 46        -0.00094
       4 -> 47        -0.00138
       5 -> 12         0.04015
       5 -> 15         0.04280
       5 -> 18         0.00371
       5 -> 22        -0.00260
       5 -> 25         0.01586
       5 -> 30        -0.00473
       5 -> 33        -0.00264
       5 -> 35         0.00055
       5 -> 40         0.00158
       5 -> 42         0.00085
       5 -> 49         0.00051
       5 -> 50        -0.00037
       5 -> 53        -0.00047
       6 -> 10        -0.02483
       6 -> 11        -0.03313
       6 -> 14        -0.00892
       6 -> 16        -0.02910
       6 -> 19         0.05375
       6 -> 20        -0.05376
       6 -> 21        -0.03320
       6 -> 24        -0.03103
       6 -> 26        -0.01710
       6 -> 28        -0.01271
       6 -> 32        -0.00017
       6 -> 34        -0.00385
       6 -> 36         0.00315
       6 -> 39        -0.00020
       6 -> 41        -0.00135
       6 -> 43         0.00014
       6 -> 46         0.00093
       6 -> 47         0.00164
       6 -> 51         0.00061
       6 -> 54        -0.00011
       7 ->  9         0.67100
       7 -> 13         0.04056
       7 -> 17        -0.02882
       7 -> 23         0.01060
       7 -> 29        -0.00605
       7 -> 31        -0.00023
       7 -> 37        -0.00022
       7 -> 44        -0.00062
       7 -> 48         0.00054
       7 -> 52         0.00098
       8 -> 12        -0.03879
       8 -> 15         0.18566
       8 -> 18        -0.02666
       8 -> 22        -0.05652
       8 -> 25         0.00550
       8 -> 30        -0.01491
       8 -> 33         0.00717
       8 -> 35        -0.00870
       8 -> 40        -0.00328
       8 -> 42        -0.00043
       8 -> 49         0.00056
       8 -> 50         0.00048
       8 -> 53        -0.00111
       3 <- 10         0.00190
       3 <- 11         0.00683
       3 <- 14         0.00393
       3 <- 16        -0.00025
       3 <- 19        -0.01254
       3 <- 20         0.00518
       3 <- 21         0.00628
       3 <- 24         0.00574
       3 <- 26         0.00696
       3 <- 28         0.00206
       3 <- 32         0.00294
       3 <- 34        -0.00219
       3 <- 36        -0.00191
       3 <- 39         0.00126
       3 <- 41         0.00017
       3 <- 43         0.00084
       3 <- 46         0.00193
       3 <- 47         0.00067
       3 <- 51        -0.00015
       3 <- 54         0.00027
       4 <- 10         0.01031
       4 <- 11        -0.00446
       4 <- 14         0.00666
       4 <- 19         0.00567
       4 <- 20         0.00452
       4 <- 21         0.00044
       4 <- 24        -0.00493
       4 <- 26         0.00386
       4 <- 28        -0.00012
       4 <- 32        -0.00181
       4 <- 34         0.00241
       4 <- 36         0.00053
       4 <- 39        -0.00014
       4 <- 41        -0.00021
       4 <- 46        -0.00039
       4 <- 47        -0.00129
       4 <- 51         0.00026
       5 <- 12         0.00911
       5 <- 15         0.01346
       5 <- 18         0.00183
       5 <- 22        -0.00127
       5 <- 25         0.00801
       5 <- 30        -0.00259
       5 <- 33        -0.00179
       5 <- 35         0.00059
       5 <- 40         0.00131
       5 <- 42         0.00063
       5 <- 49         0.00041
       5 <- 50        -0.00034
       5 <- 53        -0.00039
       6 <- 10        -0.00387
       6 <- 11        -0.00551
       6 <- 14        -0.00209
       6 <- 16        -0.00838
       6 <- 19         0.01803
       6 <- 20        -0.02038
       6 <- 21        -0.01454
       6 <- 24        -0.01544
       6 <- 26        -0.00961
       6 <- 28        -0.00744
       6 <- 32         0.00011
       6 <- 34        -0.00292
       6 <- 36         0.00214
       6 <- 41        -0.00089
       6 <- 43         0.00011
       6 <- 46         0.00043
       6 <- 47         0.00136
       6 <- 51         0.00042
       7 <-  9        -0.08151
       7 <- 13         0.01425
       7 <- 17        -0.01376
       7 <- 23         0.00873
       7 <- 29        -0.00609
       7 <- 31         0.00092
       7 <- 37        -0.00044
       7 <- 44        -0.00012
       7 <- 52         0.00078
       8 <- 12         0.00106
       8 <- 15         0.02467
       8 <- 18        -0.00452
       8 <- 22        -0.01951
       8 <- 25         0.00164
       8 <- 30        -0.00836
       8 <- 33         0.00452
       8 <- 35        -0.00573
       8 <- 40        -0.00245
       8 <- 42        -0.00034
       8 <- 49         0.00036
       8 <- 50         0.00036
       8 <- 53        -0.00095
 
 Excited State   8:      Singlet-A2     9.3786 eV  132.20 nm  f=0.0000  <S**2>=0.000
       3 -> 27        -0.00097
       3 -> 38        -0.00045
       3 -> 45         0.00066
       4 -> 27        -0.00579
       4 -> 38         0.00055
       4 -> 45        -0.00072
       5 ->  9         0.70477
       5 -> 13        -0.04092
       5 -> 17         0.01322
       5 -> 23        -0.01485
       5 -> 29         0.00282
       5 -> 31        -0.00040
       5 -> 37        -0.00511
       5 -> 44        -0.00194
       5 -> 48        -0.00015
       5 -> 52         0.00041
       6 -> 27        -0.00149
       6 -> 38         0.00176
       6 -> 45         0.00071
       7 -> 12         0.01777
       7 -> 15         0.01477
       7 -> 18         0.00128
       7 -> 22        -0.00556
       7 -> 25         0.00105
       7 -> 30        -0.00119
       7 -> 35        -0.00076
       7 -> 40        -0.00024
       7 -> 42        -0.00022
       7 -> 49        -0.00038
       7 -> 50        -0.00065
       7 -> 53         0.00014
       8 ->  9        -0.02047
       8 -> 13        -0.00051
       8 -> 17         0.01747
       8 -> 23         0.00242
       8 -> 29         0.00342
       8 -> 31         0.00036
       8 -> 37         0.00387
       8 -> 44         0.00033
       8 -> 48         0.00016
       8 -> 52         0.00067
       3 <- 27        -0.00143
       3 <- 38        -0.00059
       3 <- 45         0.00086
       4 <- 27        -0.00448
       4 <- 38         0.00055
       4 <- 45        -0.00021
       5 <-  9        -0.00970
       5 <- 13         0.00211
       5 <- 17        -0.00096
       5 <- 23         0.00011
       5 <- 29         0.00060
       5 <- 31        -0.00235
       5 <- 37        -0.00289
       5 <- 44        -0.00033
       5 <- 48        -0.00029
       5 <- 52         0.00014
       6 <- 27        -0.00153
       6 <- 38         0.00120
       6 <- 45         0.00045
       7 <- 12        -0.00164
       7 <- 15        -0.00195
       7 <- 22        -0.00176
       7 <- 25        -0.00240
       7 <- 30         0.00087
       7 <- 33         0.00044
       7 <- 35        -0.00070
       7 <- 40        -0.00056
       7 <- 42        -0.00047
       7 <- 49        -0.00054
       7 <- 50        -0.00072
       7 <- 53         0.00045
       8 <-  9         0.00027
       8 <- 13        -0.00043
       8 <- 17        -0.00158
       8 <- 23         0.00063
       8 <- 29        -0.00232
       8 <- 31         0.00256
       8 <- 37         0.00151
       8 <- 44        -0.00012
       8 <- 48         0.00013
       8 <- 52         0.00013
 
 Excited State   9:      Singlet-B1     9.8011 eV  126.50 nm  f=0.0403  <S**2>=0.000
       3 ->  9         0.00327
       3 -> 13         0.00129
       3 -> 17         0.00048
       3 -> 23        -0.00039
       3 -> 29        -0.00030
       3 -> 31        -0.00035
       3 -> 44        -0.00040
       3 -> 48         0.00021
       3 -> 52        -0.00015
       4 ->  9         0.01476
       4 -> 13        -0.00078
       4 -> 23        -0.00234
       4 -> 31         0.00101
       4 -> 37        -0.00049
       4 -> 44        -0.00012
       4 -> 48        -0.00025
       5 -> 27         0.00154
       5 -> 38         0.00076
       5 -> 45        -0.00032
       6 ->  9        -0.00254
[...]
  48        5S         -0.00144   0.00000   0.00454   0.00762   0.00588
  49        5PX         0.00000   0.00000   0.00000   0.00000   0.00000
  50        5PY         0.00000   0.00000  -0.01861  -0.03411  -0.03172
  51        5PZ        -0.00024   0.00000   0.00261   0.00341   0.00052
  52        6D 0        0.00031   0.00000  -0.00078  -0.00133  -0.00114
  53        6D+1        0.00000   0.00000   0.00000   0.00000   0.00000
  54        6D-1        0.00000   0.00000  -0.00224  -0.00216   0.00239
  55        6D+2        0.00002   0.00000  -0.00007  -0.00007  -0.00001
  56        6D-2        0.00000   0.00000   0.00000   0.00000   0.00000
                          26        27        28        29        30
  26        4PX         0.00023
  27        4PY         0.00000   0.00111
  28        4PZ         0.00000  -0.00047   0.00045
  29 3   H  1S          0.00000  -0.00214  -0.00221   0.08002
  30        2S          0.00000  -0.00244  -0.00352   0.11592   0.17237
  31        3S          0.00000  -0.00009  -0.00181   0.04611   0.07943
  32        4PX         0.00023   0.00000   0.00000   0.00000   0.00000
  33        4PY         0.00000  -0.00053  -0.00007   0.00788   0.01027
  34        4PZ         0.00000   0.00007  -0.00009   0.00439   0.00607
  35 4   O  1S          0.00000  -0.00018  -0.00085   0.00233   0.00181
  36        2S          0.00000  -0.00045  -0.00097   0.00392   0.00356
  37        2PX         0.00510   0.00000   0.00000   0.00000   0.00000
  38        2PY         0.00000  -0.00341   0.00158   0.02049   0.05365
  39        2PZ         0.00000  -0.00137  -0.00341   0.01230   0.01957
  40        3S          0.00000   0.00204   0.00144  -0.01313  -0.01388
  41        3PX         0.00752   0.00000   0.00000   0.00000   0.00000
  42        3PY         0.00000  -0.00500   0.00236   0.02886   0.07652
  43        3PZ         0.00000  -0.00195  -0.00488   0.01750   0.02782
  44        4S          0.00000   0.00131  -0.00124  -0.00614  -0.00297
  45        4PX         0.00623   0.00000   0.00000   0.00000   0.00000
  46        4PY         0.00000  -0.00378   0.00139   0.03507   0.08221
  47        4PZ         0.00000  -0.00155  -0.00264   0.01272   0.01947
  48        5S          0.00000  -0.00041  -0.00173   0.00454   0.00762
  49        5PX         0.00057   0.00000   0.00000   0.00000   0.00000
  50        5PY         0.00000   0.00002  -0.00057   0.01861   0.03411
  51        5PZ         0.00000  -0.00043   0.00007   0.00261   0.00341
  52        6D 0        0.00000   0.00006   0.00037  -0.00078  -0.00133
  53        6D+1       -0.00049   0.00000   0.00000   0.00000   0.00000
  54        6D-1        0.00000   0.00042  -0.00034   0.00224   0.00216
  55        6D+2        0.00000   0.00001   0.00001  -0.00007  -0.00007
  56        6D-2       -0.00000   0.00000   0.00000   0.00000   0.00000
                          31        32        33        34        35
  31        3S          0.06354
  32        4PX         0.00000   0.00023
  33        4PY         0.00132   0.00000   0.00111
  34        4PZ         0.00144   0.00000   0.00047   0.00045
  35 4   O  1S          0.00076   0.00000   0.00018  -0.00085   0.64008
  36        2S          0.00089   0.00000   0.00045  -0.00097   0.56967
  37        2PX         0.00000   0.00510   0.00000   0.00000   0.00000
  38        2PY         0.08616   0.00000  -0.00341  -0.00158   0.00000
  39        2PZ         0.01252   0.00000   0.00137  -0.00341  -0.01148
  40        3S         -0.00153   0.00000  -0.00204   0.00144  -0.13723
  41        3PX         0.00000   0.00752   0.00000   0.00000   0.00000
  42        3PY         0.12438   0.00000  -0.00500  -0.00236   0.00000
  43        3PZ         0.01783   0.00000   0.00195  -0.00488  -0.01389
  44        4S          0.00642   0.00000  -0.00131  -0.00124  -0.13431
  45        4PX         0.00000   0.00623   0.00000   0.00000   0.00000
  46        4PY         0.11684   0.00000  -0.00378  -0.00139   0.00000
  47        4PZ         0.01068   0.00000   0.00155  -0.00264  -0.01260
  48        5S          0.00588   0.00000   0.00041  -0.00173   0.00038
  49        5PX         0.00000   0.00057   0.00000   0.00000   0.00000
  50        5PY         0.03172   0.00000   0.00002   0.00057   0.00000
  51        5PZ         0.00052   0.00000   0.00043   0.00007  -0.00157
  52        6D 0       -0.00114   0.00000  -0.00006   0.00037  -0.00064
  53        6D+1        0.00000  -0.00049   0.00000   0.00000   0.00000
  54        6D-1       -0.00239   0.00000   0.00042   0.00034   0.00000
  55        6D+2       -0.00001   0.00000  -0.00001   0.00001  -0.00073
  56        6D-2        0.00000   0.00000   0.00000   0.00000   0.00000
                          36        37        38        39        40
  36        2S          0.52433
  37        2PX         0.00000   0.11136
  38        2PY         0.00000   0.00000   0.18426
  39        2PZ        -0.01793   0.00000   0.00000   0.13063
  40        3S         -0.23119   0.00000   0.00000   0.05188   0.71560
  41        3PX         0.00000   0.16414   0.00000   0.00000   0.00000
  42        3PY         0.00000   0.00000   0.26725   0.00000   0.00000
  43        3PZ        -0.02264   0.00000   0.00000   0.18552   0.06894
  44        4S         -0.20941   0.00000   0.00000   0.12521   0.59499
  45        4PX         0.00000   0.13595   0.00000   0.00000   0.00000
  46        4PY         0.00000   0.00000   0.23723   0.00000   0.00000
  47        4PZ        -0.02123   0.00000   0.00000   0.10994   0.06636
  48        5S         -0.00330   0.00000   0.00000   0.06246   0.02328
  49        5PX         0.00000   0.01249   0.00000   0.00000   0.00000
  50        5PY         0.00000   0.00000   0.04864   0.00000   0.00000
  51        5PZ        -0.00243   0.00000   0.00000   0.00309   0.00674
  52        6D 0       -0.00120  -0.00000  -0.00000  -0.01165   0.00399
  53        6D+1        0.00000  -0.01074   0.00000   0.00000  -0.00000
  54        6D-1        0.00000   0.00000  -0.00997   0.00000  -0.00000
  55        6D+2       -0.00119   0.00000   0.00000   0.00023   0.00353
  56        6D-2        0.00000   0.00000   0.00000   0.00000   0.00000
                          41        42        43        44        45
  41        3PX         0.24195
  42        3PY         0.00000   0.38763
  43        3PZ         0.00000   0.00000   0.26351
  44        4S          0.00000   0.00000   0.17405   0.54891
  45        4PX         0.20040   0.00000   0.00000   0.00000   0.16598
  46        4PY         0.00000   0.34391   0.00000   0.00000   0.00000
  47        4PZ         0.00000   0.00000   0.15597   0.12274   0.00000
  48        5S          0.00000   0.00000   0.08876   0.05864   0.00000
  49        5PX         0.01842   0.00000   0.00000   0.00000   0.01525
  50        5PY         0.00000   0.07030   0.00000   0.00000   0.00000
  51        5PZ         0.00000   0.00000   0.00433   0.00700   0.00000
  52        6D 0       -0.00000  -0.00000  -0.01661  -0.00447  -0.00000
  53        6D+1       -0.01582   0.00000   0.00000  -0.00000  -0.01311
  54        6D-1        0.00000  -0.01453   0.00000  -0.00000   0.00000
  55        6D+2        0.00000   0.00000   0.00031   0.00292   0.00000
  56        6D-2        0.00000   0.00000   0.00000   0.00000   0.00000
                          46        47        48        49        50
  46        4PY         0.30704
  47        4PZ         0.00000   0.09357
  48        5S          0.00000   0.05241   0.03007
  49        5PX         0.00000   0.00000   0.00000   0.00140
  50        5PY         0.06508   0.00000   0.00000   0.00000   0.01657
  51        5PZ         0.00000   0.00302   0.00131   0.00000   0.00000
  52        6D 0       -0.00000  -0.00947  -0.00563  -0.00000  -0.00000
  53        6D+1        0.00000   0.00000   0.00000  -0.00120   0.00000
  54        6D-1       -0.01222   0.00000   0.00000   0.00000  -0.00169
  55        6D+2        0.00000   0.00031   0.00011   0.00000   0.00000
  56        6D-2        0.00000   0.00000   0.00000   0.00000   0.00000
                          51        52        53        54        55
  51        5PZ         0.00034
  52        6D 0       -0.00016   0.00116
  53        6D+1        0.00000   0.00000   0.00103
  54        6D-1        0.00000   0.00000   0.00000   0.00078
  55        6D+2        0.00003   0.00002   0.00000   0.00000   0.00002
  56        6D-2        0.00000   0.00000   0.00000   0.00000   0.00000
                          56
  56        6D-2        0.00000
          Condensed to atoms (all electrons):
               1          2          3          4
     1  C    4.864361   0.376786   0.376786   0.379852
     2  H    0.376786   0.641296  -0.090229  -0.057357
     3  H    0.376786  -0.090229   0.641296  -0.057357
     4  O    0.379852  -0.057357  -0.057357   7.996084
 Mulliken charges:
               1
     1  C    0.002215
     2  H    0.129504
     3  H    0.129504
     4  O   -0.261222
 Sum of Mulliken charges =  -0.00000
 Mulliken charges with hydrogens summed into heavy atoms:
               1
     1  C    0.261222
     4  O   -0.261222
 Electronic spatial extent (au):  <R**2>=             63.7858
 Charge=             -0.0000 electrons
 Dipole moment (field-independent basis, Debye):
    X=             -0.0000    Y=              0.0000    Z=             -2.7974  Tot=              2.7974
 Quadrupole moment (field-independent basis, Debye-Ang):
   XX=            -11.9645   YY=            -11.7304   ZZ=            -12.2452
   XY=              0.0000   XZ=              0.0000   YZ=              0.0000
 Traceless Quadrupole moment (field-independent basis, Debye-Ang):
   XX=              0.0155   YY=              0.2496   ZZ=             -0.2652
   XY=              0.0000   XZ=              0.0000   YZ=              0.0000
 Octapole moment (field-independent basis, Debye-Ang**2):
  XXX=              0.0000  YYY=              0.0000  ZZZ=             -0.3647  XYY=             -0.0000
  XXY=             -0.0000  XXZ=              0.6172  XZZ=             -0.0000  YZZ=             -0.0000
  YYZ=             -0.9619  XYZ=             -0.0000
 Hexadecapole moment (field-independent basis, Debye-Ang**3):
 XXXX=            -11.2012 YYYY=            -18.6790 ZZZZ=            -49.8564 XXXY=             -0.0000
 XXXZ=             -0.0000 YYYX=             -0.0000 YYYZ=             -0.0000 ZZZX=             -0.0000
 ZZZY=             -0.0000 XXYY=             -5.3212 XXZZ=            -10.2715 YYZZ=            -10.9259
 XXYZ=              0.0000 YYXZ=              0.0000 ZZXY=              0.0000
 N-N= 2.998836991846D+01 E-N=-3.288603510445D+02  KE= 1.138872715949D+02
 Symmetry A1   KE= 1.034573695992D+02
 Symmetry A2   KE= 1.531773518255D-35
 Symmetry B1   KE= 3.646007911648D+00
 Symmetry B2   KE= 6.783894084094D+00
 Leave Link  601 at Fri Sep 17 10:52:46 2021, MaxMem=   268435456 cpu:               0.1 elap:               0.1
 (Enter /software/gaussian/g16-a03/l9999.exe)
 Electronic transition elements 
                 1             2             3             4             5 
      1  -0.114405D+03 -0.114280D+03 -0.114252D+03 -0.114243D+03 -0.114230D+03
      2   0.000000D+00  0.000000D+00  0.000000D+00  0.000000D+00  0.769576D-01
      3   0.000000D+00  0.359935D+00  0.382534D+00  0.000000D+00  0.000000D+00
      4   0.000000D+00  0.000000D+00  0.000000D+00 -0.447383D+00  0.000000D+00
      5   0.000000D+00  0.000000D+00  0.000000D+00  0.000000D+00 -0.368354D-01
      6   0.000000D+00 -0.933406D-01 -0.112586D+00  0.000000D+00  0.000000D+00
      7   0.000000D+00  0.000000D+00  0.000000D+00  0.127881D+00  0.000000D+00
      8   0.000000D+00 -0.412892D+00  0.665317D+00  0.000000D+00  0.000000D+00
      9   0.000000D+00  0.000000D+00  0.000000D+00  0.000000D+00 -0.158937D+01
     10   0.118819D+01  0.000000D+00  0.000000D+00  0.000000D+00  0.000000D+00
     11   0.000000D+00  0.000000D+00  0.000000D+00 -0.306120D-01  0.000000D+00
     12   0.000000D+00  0.000000D+00  0.000000D+00 -0.275724D+00  0.000000D+00
     13   0.000000D+00  0.000000D+00  0.000000D+00 -0.266654D+00  0.000000D+00
     14  -0.811176D-01  0.000000D+00  0.000000D+00  0.000000D+00  0.000000D+00
     15   0.000000D+00  0.000000D+00  0.000000D+00  0.000000D+00 -0.314023D+00
     16   0.000000D+00  0.470213D+00 -0.293424D-01  0.000000D+00  0.000000D+00
                 6             7             8             9            10 
      1  -0.114224D+03 -0.114220D+03 -0.114190D+03 -0.114174D+03 -0.114156D+03
      2   0.000000D+00  0.000000D+00  0.000000D+00 -0.409668D+00  0.000000D+00
      3   0.000000D+00  0.000000D+00  0.000000D+00  0.000000D+00  0.573077D+00
      4   0.000000D+00  0.847007D+00  0.000000D+00  0.000000D+00  0.000000D+00
      5   0.000000D+00  0.000000D+00  0.000000D+00  0.151434D+00  0.000000D+00
      6   0.000000D+00  0.000000D+00  0.000000D+00  0.000000D+00 -0.216174D+00
      7   0.000000D+00 -0.255005D+00  0.000000D+00  0.000000D+00  0.000000D+00
      8   0.000000D+00  0.000000D+00  0.000000D+00  0.000000D+00 -0.787939D+00
      9   0.000000D+00  0.000000D+00  0.000000D+00 -0.204835D-02  0.000000D+00
     10  -0.355545D-01  0.000000D+00 -0.736526D+00  0.000000D+00  0.000000D+00
     11   0.000000D+00  0.221587D+00  0.000000D+00  0.000000D+00  0.000000D+00
     12   0.000000D+00 -0.192921D-01  0.000000D+00  0.000000D+00  0.000000D+00
     13   0.000000D+00 -0.185998D+00  0.000000D+00  0.000000D+00  0.000000D+00
     14  -0.563164D-01  0.000000D+00  0.211444D+00  0.000000D+00  0.000000D+00
     15   0.000000D+00  0.000000D+00  0.000000D+00 -0.132539D+00  0.000000D+00
     16   0.000000D+00  0.000000D+00  0.000000D+00  0.000000D+00  0.489753D+00
                11            12            13            14            15 
      1  -0.114143D+03 -0.114138D+03 -0.114113D+03 -0.114112D+03 -0.114111D+03
      2   0.448716D+00  0.000000D+00  0.000000D+00  0.000000D+00  0.000000D+00
      3   0.000000D+00  0.000000D+00  0.000000D+00 -0.516451D-01  0.000000D+00
      4   0.000000D+00  0.000000D+00 -0.168179D+00  0.000000D+00 -0.170062D+00
      5  -0.183517D+00  0.000000D+00  0.000000D+00  0.000000D+00  0.000000D+00
      6   0.000000D+00  0.000000D+00  0.000000D+00 -0.208734D-03  0.000000D+00
      7   0.000000D+00  0.000000D+00  0.760720D-01  0.000000D+00  0.730435D-01
      8   0.000000D+00  0.000000D+00  0.000000D+00  0.506527D+00  0.000000D+00
      9   0.921148D-01  0.000000D+00  0.000000D+00  0.000000D+00  0.000000D+00
     10   0.000000D+00  0.370226D-01  0.000000D+00  0.000000D+00  0.000000D+00
     11   0.000000D+00  0.000000D+00  0.604617D+00  0.000000D+00  0.415323D+00
     12   0.000000D+00  0.000000D+00  0.177466D-01  0.000000D+00 -0.141939D+00
     13   0.000000D+00  0.000000D+00 -0.886889D-01  0.000000D+00  0.109677D+00
     14   0.000000D+00  0.281314D+00  0.000000D+00  0.000000D+00  0.000000D+00
     15  -0.286182D+00  0.000000D+00  0.000000D+00  0.000000D+00  0.000000D+00
     16   0.000000D+00  0.000000D+00  0.000000D+00  0.336366D+00  0.000000D+00
                16            17            18            19            20 
      1  -0.114089D+03 -0.114081D+03 -0.114079D+03 -0.114073D+03 -0.114071D+03
      2   0.000000D+00  0.000000D+00  0.000000D+00  0.000000D+00  0.000000D+00
      3   0.000000D+00  0.000000D+00  0.000000D+00 -0.380147D+00 -0.587195D+00
      4  -0.564396D+00  0.000000D+00  0.100235D+01  0.000000D+00  0.000000D+00
      5   0.000000D+00  0.000000D+00  0.000000D+00  0.000000D+00  0.000000D+00
      6   0.000000D+00  0.000000D+00  0.000000D+00  0.172988D+00  0.269494D+00
      7   0.243357D+00  0.000000D+00 -0.464093D+00  0.000000D+00  0.000000D+00
      8   0.000000D+00  0.000000D+00  0.000000D+00 -0.193050D+00  0.357675D+00
      9   0.000000D+00  0.000000D+00  0.000000D+00  0.000000D+00  0.000000D+00
     10   0.000000D+00 -0.140759D-01  0.000000D+00  0.000000D+00  0.000000D+00
     11  -0.286137D+00  0.000000D+00 -0.658280D-01  0.000000D+00  0.000000D+00
     12  -0.709657D+00  0.000000D+00  0.250986D+00  0.000000D+00  0.000000D+00
     13  -0.677244D+00  0.000000D+00  0.349200D+00  0.000000D+00  0.000000D+00
     14   0.000000D+00  0.343794D+00  0.000000D+00  0.000000D+00  0.000000D+00
     15   0.000000D+00  0.000000D+00  0.000000D+00  0.000000D+00  0.000000D+00
     16   0.000000D+00  0.000000D+00  0.000000D+00 -0.233573D+00 -0.652937D+00
                21            22            23            24            25 
      1  -0.114059D+03 -0.114054D+03 -0.114054D+03 -0.114045D+03 -0.114037D+03
      2   0.254115D+00  0.000000D+00 -0.208017D+00  0.000000D+00  0.000000D+00
      3   0.000000D+00  0.000000D+00  0.000000D+00 -0.140025D+00  0.313399D+00
      4   0.000000D+00 -0.489289D+00  0.000000D+00  0.000000D+00  0.000000D+00
      5  -0.994595D-01  0.000000D+00  0.953156D-01  0.000000D+00  0.000000D+00
      6   0.000000D+00  0.000000D+00  0.000000D+00  0.713686D-01 -0.157444D+00
      7   0.000000D+00  0.226794D+00  0.000000D+00  0.000000D+00  0.000000D+00
      8   0.000000D+00  0.000000D+00  0.000000D+00 -0.560934D+00 -0.545950D+00
      9  -0.134764D+00  0.000000D+00  0.300373D+00  0.000000D+00  0.000000D+00
     10   0.000000D+00  0.000000D+00  0.000000D+00  0.000000D+00  0.000000D+00
     11   0.000000D+00  0.187918D+00  0.000000D+00  0.000000D+00  0.000000D+00
     12   0.000000D+00  0.515338D+00  0.000000D+00  0.000000D+00  0.000000D+00
     13   0.000000D+00  0.248513D+00  0.000000D+00  0.000000D+00  0.000000D+00
     14   0.000000D+00  0.000000D+00  0.000000D+00  0.000000D+00  0.000000D+00
     15   0.537761D-01  0.000000D+00 -0.395049D-02  0.000000D+00  0.000000D+00
     16   0.000000D+00  0.000000D+00  0.000000D+00  0.171452D+00 -0.280184D+00
                26            27            28            29            30 
      1  -0.114023D+03 -0.114022D+03 -0.114014D+03 -0.114005D+03 -0.113993D+03
      2   0.000000D+00  0.000000D+00  0.000000D+00 -0.122347D-01  0.000000D+00
      3   0.000000D+00  0.000000D+00  0.000000D+00  0.000000D+00  0.000000D+00
      4   0.961386D-01  0.000000D+00  0.000000D+00  0.000000D+00  0.275745D+00
      5   0.000000D+00  0.000000D+00  0.000000D+00  0.129355D-01  0.000000D+00
      6   0.000000D+00  0.000000D+00  0.000000D+00  0.000000D+00  0.000000D+00
      7  -0.421680D-01  0.000000D+00  0.000000D+00  0.000000D+00 -0.147999D+00
      8   0.000000D+00  0.000000D+00  0.000000D+00  0.000000D+00  0.000000D+00
      9   0.000000D+00  0.000000D+00  0.000000D+00 -0.158194D+00  0.000000D+00
     10   0.000000D+00 -0.162135D-01  0.349254D-01  0.000000D+00  0.000000D+00
     11   0.330106D+00  0.000000D+00  0.000000D+00  0.000000D+00 -0.181434D+00
     12   0.107398D+01  0.000000D+00  0.000000D+00  0.000000D+00  0.454691D+00
     13   0.258790D+00  0.000000D+00  0.000000D+00  0.000000D+00 -0.148803D+00
     14   0.000000D+00 -0.258344D+00  0.307653D+00  0.000000D+00  0.000000D+00
     15   0.000000D+00  0.000000D+00  0.000000D+00  0.189940D-01  0.000000D+00
     16   0.000000D+00  0.000000D+00  0.000000D+00  0.000000D+00  0.000000D+00

 Test job not archived.
 1\1\GINC-BHD0001\SP\RB3LYP TD-FC\6-311+G(d,p)\C1H2O1\BWEIGHT\17-Sep-20
 21\0\\#p B3LYP/6-311+G** #p TD=(singlets,nstates=30)IOp(6/8=3) IOp(9/4
 0=4)\\Scan Step 155, Bond Length 1.275\\0,1\C,0,0.,0.,-0.52736\H,0,0.,
 0.93726,-1.11871\H,0,0.,-0.93726,-1.11871\O,0,0.,0.,0.74764\\Version=E
 S64L-G16RevA.03\State=1-A1\HF=-114.5345121\RMSD=3.970e-09\PG=C02V [C2(
 C1O1),SGV(H2)]\\@


 ... UNTIL SCIENCE IS MIXED WITH EMOTION AND APPEALS TO THE HEART AND
 IMAGINATION , IT IS LIKE DEAD INORGANIC MATTER; AND WHEN IT IS SO MIXED
 AND SO TRANSFORMED IT IS LITERATURE.

                                  -- JOHN BURROUGHS
 Job cpu time:       0 days  0 hours  0 minutes 28.3 seconds.
 Elapsed time:       0 days  0 hours  0 minutes 28.7 seconds.
 File lengths (MBytes):  RWF=     79 Int=      0 D2E=      0 Chk=     32 Scr=      1
 Normal termination of Gaussian 16 at Fri Sep 17 10:52:46 2021.
