 Entering Gaussian System, Link 0=g16
 Initial command:
 /software/gaussian/g16-c01/sse4/g16/l1.exe "/local_scratch/24665301/Gau-28995.inp" -scrdir="/local_scratch/24665301/"
 Entering Link 1 = /software/gaussian/g16-c01/sse4/g16/l1.exe PID=     28996.
  
 Copyright (c) 1988-2019, Gaussian, Inc.  All Rights Reserved.
  
 This is part of the Gaussian(R) 16 program.  It is based on
 the Gaussian(R) 09 system (copyright 2009, Gaussian, Inc.),
 the Gaussian(R) 03 system (copyright 2003, Gaussian, Inc.),
 the Gaussian(R) 98 system (copyright 1998, Gaussian, Inc.),
 the Gaussian(R) 94 system (copyright 1995, Gaussian, Inc.),
 the Gaussian 92(TM) system (copyright 1992, Gaussian, Inc.),
 the Gaussian 90(TM) system (copyright 1990, Gaussian, Inc.),
 the Gaussian 88(TM) system (copyright 1988, Gaussian, Inc.),
 the Gaussian 86(TM) system (copyright 1986, Carnegie Mellon
 University), and the Gaussian 82(TM) system (copyright 1983,
 Carnegie Mellon University). Gaussian is a federally registered
 trademark of Gaussian, Inc.
  
 This software contains proprietary and confidential information,
 including trade secrets, belonging to Gaussian, Inc.
  
 This software is provided under written license and may be
 used, copied, transmitted, or stored only in accord with that
 written license.
  
 The following legend is applicable only to US Government
 contracts under FAR:
  
                    RESTRICTED RIGHTS LEGEND
  
 Use, reproduction and disclosure by the US Government is
 subject to restrictions as set forth in subparagraphs (a)
 and (c) of the Commercial Computer Software - Restricted
 Rights clause in FAR 52.227-19.
  
 Gaussian, Inc.
 340 Quinnipiac St., Bldg. 40, Wallingford CT 06492
  
  
 ---------------------------------------------------------------
 Warning -- This program may not be used in any manner that
 competes with the business of Gaussian, Inc. or will provide
 assistance to any competitor of Gaussian, Inc.  The licensee
 of this program is prohibited from giving any competitor of
 Gaussian, Inc. access to this program.  By using this program,
 the user acknowledges that Gaussian, Inc. is engaged in the
 business of creating and licensing software in the field of
 computational chemistry and represents and warrants to the
 licensee that it is not a competitor of Gaussian, Inc. and that
 it will not use this program in any manner prohibited above.
 ---------------------------------------------------------------
  

 Cite this work as:
 Gaussian 16, Revision C.01,
 M. J. Frisch, G. W. Trucks, H. B. Schlegel, G. E. Scuseria, 
 M. A. Robb, J. R. Cheeseman, G. Scalmani, V. Barone, 
 G. A. Petersson, H. Nakatsuji, X. Li, M. Caricato, A. V. Marenich, 
 J. Bloino, B. G. Janesko, R. Gomperts, B. Mennucci, H. P. Hratchian, 
 J. V. Ortiz, A. F. Izmaylov, J. L. Sonnenberg, D. Williams-Young, 
 F. Ding, F. Lipparini, F. Egidi, J. Goings, B. Peng, A. Petrone, 
 T. Henderson, D. Ranasinghe, V. G. Zakrzewski, J. Gao, N. Rega, 
 G. Zheng, W. Liang, M. Hada, M. Ehara, K. Toyota, R. Fukuda, 
 J. Hasegawa, M. Ishida, T. Nakajima, Y. Honda, O. Kitao, H. Nakai, 
 T. Vreven, K. Throssell, J. A. Montgomery, Jr., J. E. Peralta, 
 F. Ogliaro, M. J. Bearpark, J. J. Heyd, E. N. Brothers, K. N. Kudin, 
 V. N. Staroverov, T. A. Keith, R. Kobayashi, J. Normand, 
 K. Raghavachari, A. P. Rendell, J. C. Burant, S. S. Iyengar, 
 J. Tomasi, M. Cossi, J. M. Millam, M. Klene, C. Adamo, R. Cammi, 
 J. W. Ochterski, R. L. Martin, K. Morokuma, O. Farkas, 
 J. B. Foresman, and D. J. Fox, Gaussian, Inc., Wallingford CT, 2019.
 
 ******************************************
 Gaussian 16:  ES64L-G16RevC.01  3-Jul-2019
                 2-May-2024 
 ******************************************
 %chk=geometry.chk
 %mem=1GB
 %nprocshared=12
 Will use up to   12 processors via shared memory.
 ----------------------------------------
 #P wB97XD/6-311+G* NoSymm #P Field=Y-214
 ----------------------------------------
 1/38=1,172=1/1;
 2/12=2,15=1,17=6,18=5,40=1/2;
 3/5=4,6=6,7=11,11=2,14=2,15=-214,25=1,30=1,74=-58/1,2,3;
 4//1;
 5/5=2,38=5/2;
 6/7=2,8=2,9=2,10=2,28=1/1;
 99/5=1,9=1/99;
 Leave Link    1 at Thu May  2 13:57:39 2024, MaxMem=   134217728 cpu:               1.1 elap:               1.1
 (Enter /software/gaussian/g16-c01/sse4/g16/l101.exe)
 -------
 TitleMe
 -------
 Symbolic Z-matrix:
 Charge =  1 Multiplicity = 1
 C                     0.5193    1.233    -0.0319 
 C                     1.9445    1.2692   -0.0367 
 C                     2.6204    0.0928   -0.025 
 C                    -0.196     0.0301    0.001 
 H                    -0.0207    2.1742   -0.0434 
 H                     2.4828    2.2089   -0.0361 
 H                    -1.2777    0.0399    0.0117 
 N                     4.0921    0.0959    0.0366 
 O                     4.6393   -1.0217    0.1446 
 O                     4.6649    1.1984   -0.0233 
 C                     0.4943   -1.1671    0.021 
 H                    -0.0325   -2.1149    0.0545 
 C                     1.9629   -1.2165   -0.0211 
 H                     2.4436   -1.9631    0.6151 
 Br                    2.173    -1.9491   -1.9062 
 
 ITRead=  0  0  0  0  0  0  0  0  0  0  0  0  0  0  0
 MicOpt= -1 -1 -1 -1 -1 -1 -1 -1 -1 -1 -1 -1 -1 -1 -1
 NAtoms=     15 NQM=       15 NQMF=       0 NMMI=      0 NMMIF=      0
                NMic=       0 NMicF=      0.
                    Isotopes and Nuclear Properties:
 (Nuclear quadrupole moments (NQMom) in fm**2, nuclear magnetic moments (NMagM)
  in nuclear magnetons)

  Atom         1           2           3           4           5           6           7           8           9          10
 IAtWgt=          12          12          12          12           1           1           1          14          16          16
 AtmWgt=  12.0000000  12.0000000  12.0000000  12.0000000   1.0078250   1.0078250   1.0078250  14.0030740  15.9949146  15.9949146
 NucSpn=           0           0           0           0           1           1           1           2           0           0
 AtZEff=  -0.0000000  -0.0000000  -0.0000000  -0.0000000  -0.0000000  -0.0000000  -0.0000000  -0.0000000  -0.0000000  -0.0000000
 NQMom=    0.0000000   0.0000000   0.0000000   0.0000000   0.0000000   0.0000000   0.0000000   2.0440000   0.0000000   0.0000000
 NMagM=    0.0000000   0.0000000   0.0000000   0.0000000   2.7928460   2.7928460   2.7928460   0.4037610   0.0000000   0.0000000
 AtZNuc=   6.0000000   6.0000000   6.0000000   6.0000000   1.0000000   1.0000000   1.0000000   7.0000000   8.0000000   8.0000000

  Atom        11          12          13          14          15
 IAtWgt=          12           1          12           1          79
 AtmWgt=  12.0000000   1.0078250  12.0000000   1.0078250  78.9183361
 NucSpn=           0           1           0           1           3
 AtZEff=  -0.0000000  -0.0000000  -0.0000000  -0.0000000  -0.0000000
 NQMom=    0.0000000   0.0000000   0.0000000   0.0000000  31.3000000
 NMagM=    0.0000000   2.7928460   0.0000000   2.7928460   2.1063990
 AtZNuc=   6.0000000   1.0000000   6.0000000   1.0000000  35.0000000
 Leave Link  101 at Thu May  2 13:57:41 2024, MaxMem=   134217728 cpu:               1.4 elap:               1.4
 (Enter /software/gaussian/g16-c01/sse4/g16/l202.exe)
                          Input orientation:                          
 ---------------------------------------------------------------------
 Center     Atomic      Atomic             Coordinates (Angstroms)
 Number     Number       Type             X           Y           Z
 ---------------------------------------------------------------------
      1          6           0        0.519300    1.233000   -0.031900
      2          6           0        1.944500    1.269200   -0.036700
      3          6           0        2.620400    0.092800   -0.025000
      4          6           0       -0.196000    0.030100    0.001000
      5          1           0       -0.020700    2.174200   -0.043400
      6          1           0        2.482800    2.208900   -0.036100
      7          1           0       -1.277700    0.039900    0.011700
      8          7           0        4.092100    0.095900    0.036600
      9          8           0        4.639300   -1.021700    0.144600
     10          8           0        4.664900    1.198400   -0.023300
     11          6           0        0.494300   -1.167100    0.021000
     12          1           0       -0.032500   -2.114900    0.054500
     13          6           0        1.962900   -1.216500   -0.021100
     14          1           0        2.443600   -1.963100    0.615100
     15         35           0        2.173000   -1.949100   -1.906200
 ---------------------------------------------------------------------
                    Distance matrix (angstroms):
                    1          2          3          4          5
     1  C    0.000000
     2  C    1.425668   0.000000
     3  C    2.390549   1.356796   0.000000
     4  C    1.399895   2.473566   2.817218   0.000000
     5  H    1.085168   2.163581   3.362733   2.151712   0.000000
     6  H    2.192654   1.082960   2.120598   3.453189   2.503751
     7  H    2.157452   3.449071   3.898632   1.081797   2.477564
     8  N    3.750012   2.448304   1.472992   4.288753   4.608780
     9  O    4.699917   3.541615   2.312322   4.950458   5.653735
    10  O    4.145753   2.721354   2.324292   4.999386   4.786171
    11  C    2.400813   2.835836   2.471794   1.382101   3.381369
    12  H    3.394169   3.920329   3.452266   2.151887   4.290233
    13  C    2.843264   2.485817   1.465124   2.493060   3.928360
    14  H    3.786370   3.334922   2.160489   3.364142   4.860416
    15  Br   4.046416   3.728900   2.812194   3.628609   5.028314
                    6          7          8          9         10
     6  H    0.000000
     7  H    4.341452   0.000000
     8  N    2.657047   5.370150   0.000000
     9  O    3.888434   6.012948   1.249048   0.000000
    10  O    2.404752   6.054572   1.243863   2.226587   0.000000
    11  C    3.918516   2.144043   3.813080   4.149391   4.794941
    12  H    5.003018   2.489080   4.679774   4.798846   5.748876
    13  C    3.464662   3.475788   2.501842   2.688591   3.623886
    14  H    4.222698   4.268978   2.700314   2.434893   3.916224
    15  Br   4.569706   4.420610   3.411663   3.338935   4.434144
                   11         12         13         14         15
    11  C    0.000000
    12  H    1.084880   0.000000
    13  C    1.470034   2.189625   0.000000
    14  H    2.187771   2.543302   1.092353   0.000000
    15  Br   2.672762   2.955683   2.033334   2.535818   0.000000
 Symmetry turned off by external request.
 Stoichiometry    C6H5BrNO2(1+)
 Framework group  C1[X(C6H5BrNO2)]
 Deg. of freedom    39
 Full point group                 C1      NOp   1
 Rotational constants (GHZ):           1.1632986           0.9594224           0.5957624
 Leave Link  202 at Thu May  2 13:57:42 2024, MaxMem=   134217728 cpu:               1.1 elap:               1.1
 (Enter /software/gaussian/g16-c01/sse4/g16/l301.exe)
 Standard basis: 6-311+G(d) (5D, 7F)
 Ernie: Thresh=  0.10000D-02 Tol=  0.10000D-05 Strict=F.
 The following finite field(s) will be applied:
 An electric field of              0.0000 -0.0214  0.0000
   261 basis functions,   443 primitive gaussians,   273 cartesian basis functions
    49 alpha electrons       49 beta electrons
       nuclear repulsion energy       772.8945969580 Hartrees.
 IExCor= 4639 DFT=T Ex+Corr=wB97XD ExCW=0 ScaHFX=  1.000000
 ScaDFX=  1.000000  1.000000  1.000000  1.000000 ScalE2=  1.000000  1.000000
 IRadAn=      5 IRanWt=     -1 IRanGd=            0 ICorTp=0 IEmpDi=121
 HFx  wShort=  0.000000 wLong=  0.200000 cFull=  0.222036 cShort=  0.000000 cLong=  0.777964
 DFx  wShort=  0.000000 wLong=  0.200000 cFull=  0.000000 cShort=  0.000000 cLong=  1.000000
 NAtoms=   15 NActive=   15 NUniq=   15 SFac= 1.00D+00 NAtFMM=   60 NAOKFM=F Big=F
 Integral buffers will be    131072 words long.
 Raffenetti 2 integral format.
 Two-electron integral symmetry is turned off.
 R6Disp:  Grimme-D2 Dispersion energy=       -0.0080346408 Hartrees.
 Nuclear repulsion after empirical dispersion term =      772.8865623173 Hartrees.
 Leave Link  301 at Thu May  2 13:57:43 2024, MaxMem=   134217728 cpu:               1.0 elap:               1.0
 (Enter /software/gaussian/g16-c01/sse4/g16/l302.exe)
 NPDir=0 NMtPBC=     1 NCelOv=     1 NCel=       1 NClECP=     1 NCelD=      1
         NCelK=      1 NCelE2=     1 NClLst=     1 CellRange=     0.0.
 One-electron integrals computed using PRISM.
 NBasis=   261 RedAO= T EigKep=  2.52D-06  NBF=   261
 NBsUse=   261 1.00D-06 EigRej= -1.00D+00 NBFU=   261
 Precomputing XC quadrature grid using
 IXCGrd= 4 IRadAn=           5 IRanWt=          -1 IRanGd=           0 AccXCQ= 0.00D+00.
 Generated NRdTot=       0 NPtTot=           0 NUsed=           0 NTot=          32
 NSgBfM=   273   273   273   273   273 MxSgAt=    15 MxSgA2=    15.
 Leave Link  302 at Thu May  2 13:58:05 2024, MaxMem=   134217728 cpu:              22.2 elap:              22.2
 (Enter /software/gaussian/g16-c01/sse4/g16/l303.exe)
 DipDrv:  MaxL=1.
 The nuclear repulsion energy is now       775.4884646887 hartrees.
 Leave Link  303 at Thu May  2 13:58:08 2024, MaxMem=   134217728 cpu:               3.4 elap:               3.4
 (Enter /software/gaussian/g16-c01/sse4/g16/l401.exe)
 ExpMin= 3.50D-02 ExpMax= 4.40D+05 ExpMxC= 1.51D+04 IAcc=3 IRadAn=         5 AccDes= 0.00D+00
 Harris functional with IExCor= 4639 and IRadAn=       5 diagonalized for initial guess.
 HarFok:  IExCor= 4639 AccDes= 0.00D+00 IRadAn=         5 IDoV= 1 UseB2=F ITyADJ=14
 ICtDFT=  3500011 ScaDFX=  1.000000  1.000000  1.000000  1.000000
 FoFCou: FMM=F IPFlag=           0 FMFlag=      100000 FMFlg1=           0
         NFxFlg=           0 DoJE=T BraDBF=F KetDBF=T FulRan=T
         wScrn=  0.000000 ICntrl=       500 IOpCl=  0 I1Cent=   200000004 NGrid=           0
         NMat0=    1 NMatS0=      1 NMatT0=    0 NMatD0=    1 NMtDS0=    0 NMtDT0=    0
 Symmetry not used in FoFCou.
 Harris En= -2970.73528401180    
 JPrj=0 DoOrth=F DoCkMO=F.
 Leave Link  401 at Thu May  2 13:58:39 2024, MaxMem=   134217728 cpu:              31.1 elap:              31.2
 (Enter /software/gaussian/g16-c01/sse4/g16/l502.exe)
 Two-electron integral symmetry not used.
 Closed shell SCF:
 Using DIIS extrapolation, IDIIS=  1040.
 NGot=   134217728 LenX=   134063053 LenY=   133988083
 Requested convergence on RMS density matrix=1.00D-08 within 128 cycles.
 Requested convergence on MAX density matrix=1.00D-06.
 Requested convergence on             energy=1.00D-06.
 No special actions if energy rises.
 Fock matrices will be formed incrementally for  20 cycles.

 Cycle   1  Pass 1  IDiag  1:
 FoFJK:  IHMeth= 1 ICntrl=       0 DoSepK=T KAlg= 0 I1Cent=           0 FoldK=F
 IRaf=         1 NMat=       1 IRICut=       1 DoRegI=T DoRafI=F ISym2E= 0 IDoP0=0 IntGTp=1.
 FoFCou: FMM=F IPFlag=           0 FMFlag=      100000 FMFlg1=           0
         NFxFlg=           0 DoJE=T BraDBF=F KetDBF=F FulRan=T
         wScrn=  0.000000 ICntrl=       500 IOpCl=  0 I1Cent=           0 NGrid=           0
         NMat0=    1 NMatS0=      1 NMatT0=    0 NMatD0=    1 NMtDS0=    0 NMtDT0=    0
 Symmetry not used in FoFCou.
 E= -3007.76014934720    
 DIIS: error= 2.93D-01 at cycle   1 NSaved=   1.
 NSaved= 1 IEnMin= 1 EnMin= -3007.76014934720     IErMin= 1 ErrMin= 2.93D-01
 ErrMax= 2.93D-01  0.00D+00 EMaxC= 1.00D-01 BMatC= 1.28D+01 BMatP= 1.28D+01
 IDIUse=3 WtCom= 0.00D+00 WtEn= 1.00D+00
 Coeff-Com:  0.100D+01
 Coeff-En:   0.100D+01
 Coeff:      0.100D+01
 Gap=     0.058 Goal=   None    Shift=    0.000
 GapD=    0.058 DampG=0.500 DampE=0.250 DampFc=0.2500 IDamp=-1.
 Damping current iteration by 2.50D-01
 RMSDP=1.52D+00 MaxDP=2.08D+02              OVMax= 7.96D-01

 Cycle   2  Pass 1  IDiag  1:
 RMSU=  2.55D-02    CP:  7.59D-01
 E= -3008.59559771856     Delta-E=       -0.835448371356 Rises=F Damp=T
 DIIS: error= 2.20D-01 at cycle   2 NSaved=   2.
 NSaved= 2 IEnMin= 2 EnMin= -3008.59559771856     IErMin= 2 ErrMin= 2.20D-01
 ErrMax= 2.20D-01  0.00D+00 EMaxC= 1.00D-01 BMatC= 5.67D+00 BMatP= 1.28D+01
 IDIUse=3 WtCom= 0.00D+00 WtEn= 1.00D+00
 Coeff-Com: -0.121D+01 0.221D+01
 Coeff-En:   0.133D+00 0.867D+00
 Coeff:      0.133D+00 0.867D+00
 Gap=     0.059 Goal=   None    Shift=    0.000
 RMSDP=1.15D+00 MaxDP=1.59D+02 DE=-8.35D-01 OVMax= 7.96D-01

 Cycle   3  Pass 1  IDiag  1:
 RMSU=  2.81D-02    CP:  2.51D-02  2.20D+00
 E= -3009.58315584754     Delta-E=       -0.987558128980 Rises=F Damp=F
 DIIS: error= 9.20D-02 at cycle   3 NSaved=   3.
 NSaved= 3 IEnMin= 3 EnMin= -3009.58315584754     IErMin= 3 ErrMin= 9.20D-02
 ErrMax= 9.20D-02  0.00D+00 EMaxC= 1.00D-01 BMatC= 2.09D+00 BMatP= 5.67D+00
 IDIUse=3 WtCom= 7.98D-02 WtEn= 9.20D-01
 EnCoef did   100 forward-backward iterations
 Coeff-Com:  0.853D-01 0.222D+00 0.693D+00
 Coeff-En:   0.255D+00 0.377D-02 0.742D+00
 Coeff:      0.241D+00 0.212D-01 0.738D+00
 Gap=     0.251 Goal=   None    Shift=    0.000
 RMSDP=8.63D-02 MaxDP=1.17D+01 DE=-9.88D-01 OVMax= 5.53D-01

 Cycle   4  Pass 1  IDiag  1:
 RMSU=  7.22D-02    CP:  3.22D-02  3.00D+00  2.44D+00
 E= -3009.77406018478     Delta-E=       -0.190904337241 Rises=F Damp=F
 DIIS: error= 1.08D-01 at cycle   4 NSaved=   4.
 NSaved= 4 IEnMin= 4 EnMin= -3009.77406018478     IErMin= 3 ErrMin= 9.20D-02
 ErrMax= 1.08D-01  0.00D+00 EMaxC= 1.00D-01 BMatC= 1.16D+00 BMatP= 2.09D+00
 IDIUse=3 WtCom= 0.00D+00 WtEn= 1.00D+00
 Coeff-Com:  0.149D+00-0.106D+00 0.463D+00 0.493D+00
 Coeff-En:   0.000D+00 0.000D+00 0.452D+00 0.548D+00
 Coeff:      0.000D+00 0.000D+00 0.452D+00 0.548D+00
 Gap=     0.185 Goal=   None    Shift=    0.000
 RMSDP=5.38D-02 MaxDP=7.20D+00 DE=-1.91D-01 OVMax= 4.01D-01

 Cycle   5  Pass 1  IDiag  1:
 RMSU=  1.69D-02    CP:  2.66D-02  2.10D+00  1.74D+00  4.54D-01
 E= -3010.44334182020     Delta-E=       -0.669281635427 Rises=F Damp=F
 DIIS: error= 3.15D-02 at cycle   5 NSaved=   5.
 NSaved= 5 IEnMin= 5 EnMin= -3010.44334182020     IErMin= 5 ErrMin= 3.15D-02
 ErrMax= 3.15D-02  0.00D+00 EMaxC= 1.00D-01 BMatC= 1.81D-01 BMatP= 1.16D+00
 IDIUse=3 WtCom= 6.85D-01 WtEn= 3.15D-01
 Coeff-Com:  0.210D-02 0.391D-03 0.191D+00 0.296D+00 0.510D+00
 Coeff-En:   0.000D+00 0.000D+00 0.000D+00 0.110D+00 0.890D+00
 Coeff:      0.144D-02 0.267D-03 0.131D+00 0.237D+00 0.630D+00
 Gap=     0.288 Goal=   None    Shift=    0.000
 RMSDP=9.87D-03 MaxDP=5.02D-01 DE=-6.69D-01 OVMax= 1.18D-01

 Cycle   6  Pass 1  IDiag  1:
 RMSU=  6.01D-03    CP:  2.66D-02  2.00D+00  1.72D+00  4.72D-01  5.71D-01
 E= -3010.53000728273     Delta-E=       -0.086665462529 Rises=F Damp=F
 DIIS: error= 1.73D-02 at cycle   6 NSaved=   6.
 NSaved= 6 IEnMin= 6 EnMin= -3010.53000728273     IErMin= 6 ErrMin= 1.73D-02
 ErrMax= 1.73D-02  0.00D+00 EMaxC= 1.00D-01 BMatC= 3.44D-02 BMatP= 1.81D-01
 IDIUse=3 WtCom= 8.27D-01 WtEn= 1.73D-01
 Coeff-Com: -0.269D-01 0.365D-01 0.564D-02 0.977D-02 0.311D+00 0.664D+00
 Coeff-En:   0.000D+00 0.000D+00 0.000D+00 0.000D+00 0.164D+00 0.836D+00
 Coeff:     -0.223D-01 0.302D-01 0.467D-02 0.809D-02 0.286D+00 0.693D+00
 Gap=     0.242 Goal=   None    Shift=    0.000
 RMSDP=4.91D-03 MaxDP=6.42D-01 DE=-8.67D-02 OVMax= 3.99D-02

 Cycle   7  Pass 1  IDiag  1:
 RMSU=  1.27D-03    CP:  2.59D-02  1.95D+00  1.65D+00  4.25D-01  6.78D-01
                    CP:  8.28D-01
 E= -3010.54958558807     Delta-E=       -0.019578305333 Rises=F Damp=F
 DIIS: error= 2.18D-03 at cycle   7 NSaved=   7.
 NSaved= 7 IEnMin= 7 EnMin= -3010.54958558807     IErMin= 7 ErrMin= 2.18D-03
 ErrMax= 2.18D-03  0.00D+00 EMaxC= 1.00D-01 BMatC= 1.36D-03 BMatP= 3.44D-02
 IDIUse=3 WtCom= 9.78D-01 WtEn= 2.18D-02
 Coeff-Com: -0.162D-01 0.220D-01-0.128D-01-0.114D-01 0.733D-01 0.287D+00
 Coeff-Com:  0.658D+00
 Coeff-En:   0.000D+00 0.000D+00 0.000D+00 0.000D+00 0.000D+00 0.000D+00
 Coeff-En:   0.100D+01
 Coeff:     -0.158D-01 0.215D-01-0.125D-01-0.111D-01 0.717D-01 0.280D+00
 Coeff:      0.666D+00
 Gap=     0.240 Goal=   None    Shift=    0.000
 RMSDP=7.54D-04 MaxDP=8.72D-02 DE=-1.96D-02 OVMax= 8.27D-03

 Cycle   8  Pass 1  IDiag  1:
 RMSU=  3.25D-04    CP:  2.61D-02  1.96D+00  1.66D+00  4.31D-01  6.70D-01
                    CP:  8.60D-01  9.10D-01
 E= -3010.55061453151     Delta-E=       -0.001028943444 Rises=F Damp=F
 DIIS: error= 6.88D-04 at cycle   8 NSaved=   8.
 NSaved= 8 IEnMin= 8 EnMin= -3010.55061453151     IErMin= 8 ErrMin= 6.88D-04
 ErrMax= 6.88D-04  0.00D+00 EMaxC= 1.00D-01 BMatC= 1.12D-04 BMatP= 1.36D-03
 IDIUse=3 WtCom= 9.93D-01 WtEn= 6.88D-03
 Coeff-Com: -0.612D-02 0.827D-02-0.421D-02-0.182D-02-0.913D-02 0.109D-01
 Coeff-Com:  0.262D+00 0.740D+00
 Coeff-En:   0.000D+00 0.000D+00 0.000D+00 0.000D+00 0.000D+00 0.000D+00
 Coeff-En:   0.000D+00 0.100D+01
 Coeff:     -0.607D-02 0.822D-02-0.418D-02-0.181D-02-0.907D-02 0.108D-01
 Coeff:      0.260D+00 0.742D+00
 Gap=     0.243 Goal=   None    Shift=    0.000
 RMSDP=7.64D-04 MaxDP=9.41D-02 DE=-1.03D-03 OVMax= 3.20D-03

 Cycle   9  Pass 1  IDiag  1:
 RMSU=  3.05D-04    CP:  2.58D-02  1.96D+00  1.65D+00  4.28D-01  6.63D-01
                    CP:  8.25D-01  1.08D+00  1.41D+00
 E= -3010.55073915682     Delta-E=       -0.000124625307 Rises=F Damp=F
 DIIS: error= 2.41D-04 at cycle   9 NSaved=   9.
 NSaved= 9 IEnMin= 9 EnMin= -3010.55073915682     IErMin= 9 ErrMin= 2.41D-04
 ErrMax= 2.41D-04  0.00D+00 EMaxC= 1.00D-01 BMatC= 1.74D-05 BMatP= 1.12D-04
 IDIUse=3 WtCom= 9.98D-01 WtEn= 2.41D-03
 Coeff-Com: -0.193D-02 0.260D-02-0.512D-03 0.900D-03-0.156D-01-0.385D-01
 Coeff-Com:  0.132D-01 0.300D+00 0.740D+00
 Coeff-En:   0.000D+00 0.000D+00 0.000D+00 0.000D+00 0.000D+00 0.000D+00
 Coeff-En:   0.000D+00 0.000D+00 0.100D+01
 Coeff:     -0.193D-02 0.259D-02-0.510D-03 0.898D-03-0.156D-01-0.384D-01
 Coeff:      0.131D-01 0.300D+00 0.740D+00
 Gap=     0.243 Goal=   None    Shift=    0.000
 RMSDP=1.39D-04 MaxDP=9.97D-03 DE=-1.25D-04 OVMax= 2.04D-03

 Cycle  10  Pass 1  IDiag  1:
 RMSU=  7.99D-05    CP:  2.58D-02  1.96D+00  1.65D+00  4.28D-01  6.58D-01
                    CP:  8.26D-01  1.12D+00  1.50D+00  1.11D+00
 E= -3010.55076302574     Delta-E=       -0.000023868924 Rises=F Damp=F
 DIIS: error= 9.35D-05 at cycle  10 NSaved=  10.
 NSaved=10 IEnMin=10 EnMin= -3010.55076302574     IErMin=10 ErrMin= 9.35D-05
 ErrMax= 9.35D-05  0.00D+00 EMaxC= 1.00D-01 BMatC= 2.40D-06 BMatP= 1.74D-05
 IDIUse=1 WtCom= 1.00D+00 WtEn= 0.00D+00
 Coeff-Com: -0.132D-03 0.190D-03 0.216D-03 0.688D-03-0.393D-02-0.121D-01
 Coeff-Com: -0.299D-01-0.242D-01 0.265D+00 0.804D+00
 Coeff:     -0.132D-03 0.190D-03 0.216D-03 0.688D-03-0.393D-02-0.121D-01
 Coeff:     -0.299D-01-0.242D-01 0.265D+00 0.804D+00
 Gap=     0.243 Goal=   None    Shift=    0.000
 RMSDP=1.43D-04 MaxDP=1.34D-02 DE=-2.39D-05 OVMax= 1.48D-03

 Cycle  11  Pass 1  IDiag  1:
 RMSU=  5.27D-05    CP:  2.58D-02  1.96D+00  1.65D+00  4.27D-01  6.55D-01
                    CP:  8.27D-01  1.12D+00  1.55D+00  1.24D+00  1.33D+00
 E= -3010.55076863683     Delta-E=       -0.000005611087 Rises=F Damp=F
 DIIS: error= 3.58D-05 at cycle  11 NSaved=  11.
 NSaved=11 IEnMin=11 EnMin= -3010.55076863683     IErMin=11 ErrMin= 3.58D-05
 ErrMax= 3.58D-05  0.00D+00 EMaxC= 1.00D-01 BMatC= 4.80D-07 BMatP= 2.40D-06
 IDIUse=1 WtCom= 1.00D+00 WtEn= 0.00D+00
 Coeff-Com:  0.179D-03-0.270D-03-0.186D-03 0.131D-04 0.167D-02 0.515D-02
 Coeff-Com:  0.591D-03-0.496D-01-0.527D-01 0.187D+00 0.908D+00
 Coeff:      0.179D-03-0.270D-03-0.186D-03 0.131D-04 0.167D-02 0.515D-02
 Coeff:      0.591D-03-0.496D-01-0.527D-01 0.187D+00 0.908D+00
 Gap=     0.243 Goal=   None    Shift=    0.000
 RMSDP=5.79D-05 MaxDP=4.22D-03 DE=-5.61D-06 OVMax= 8.05D-04

 Cycle  12  Pass 1  IDiag  1:
 RMSU=  1.06D-05    CP:  2.58D-02  1.96D+00  1.65D+00  4.28D-01  6.55D-01
                    CP:  8.27D-01  1.11D+00  1.55D+00  1.26D+00  1.54D+00
                    CP:  1.50D+00
 E= -3010.55077007911     Delta-E=       -0.000001442279 Rises=F Damp=F
 DIIS: error= 1.48D-05 at cycle  12 NSaved=  12.
 NSaved=12 IEnMin=12 EnMin= -3010.55077007911     IErMin=12 ErrMin= 1.48D-05
 ErrMax= 1.48D-05  0.00D+00 EMaxC= 1.00D-01 BMatC= 1.01D-07 BMatP= 4.80D-07
 IDIUse=1 WtCom= 1.00D+00 WtEn= 0.00D+00
 Coeff-Com:  0.134D-03-0.197D-03-0.138D-03-0.128D-03 0.901D-03 0.375D-02
 Coeff-Com:  0.101D-01-0.327D-02-0.493D-01-0.969D-01 0.822D-01 0.105D+01
 Coeff:      0.134D-03-0.197D-03-0.138D-03-0.128D-03 0.901D-03 0.375D-02
 Coeff:      0.101D-01-0.327D-02-0.493D-01-0.969D-01 0.822D-01 0.105D+01
 Gap=     0.243 Goal=   None    Shift=    0.000
 RMSDP=3.39D-05 MaxDP=3.17D-03 DE=-1.44D-06 OVMax= 5.15D-04

 Cycle  13  Pass 1  IDiag  1:
 RMSU=  5.12D-06    CP:  2.58D-02  1.96D+00  1.65D+00  4.28D-01  6.54D-01
                    CP:  8.28D-01  1.11D+00  1.54D+00  1.25D+00  1.64D+00
                    CP:  1.84D+00  1.54D+00
 E= -3010.55077051237     Delta-E=       -0.000000433261 Rises=F Damp=F
 DIIS: error= 9.06D-06 at cycle  13 NSaved=  13.
 NSaved=13 IEnMin=13 EnMin= -3010.55077051237     IErMin=13 ErrMin= 9.06D-06
 ErrMax= 9.06D-06  0.00D+00 EMaxC= 1.00D-01 BMatC= 2.80D-08 BMatP= 1.01D-07
 IDIUse=1 WtCom= 1.00D+00 WtEn= 0.00D+00
 Coeff-Com:  0.342D-04-0.441D-04-0.380D-05-0.977D-04-0.156D-03 0.310D-03
 Coeff-Com:  0.375D-02 0.915D-02 0.220D-02-0.602D-01-0.283D+00 0.317D+00
 Coeff-Com:  0.101D+01
 Coeff:      0.342D-04-0.441D-04-0.380D-05-0.977D-04-0.156D-03 0.310D-03
 Coeff:      0.375D-02 0.915D-02 0.220D-02-0.602D-01-0.283D+00 0.317D+00
 Coeff:      0.101D+01
 Gap=     0.242 Goal=   None    Shift=    0.000
 RMSDP=2.41D-05 MaxDP=2.51D-03 DE=-4.33D-07 OVMax= 3.20D-04

 Cycle  14  Pass 1  IDiag  1:
 RMSU=  3.30D-06    CP:  2.58D-02  1.96D+00  1.65D+00  4.28D-01  6.54D-01
                    CP:  8.28D-01  1.11D+00  1.54D+00  1.24D+00  1.69D+00
                    CP:  2.07D+00  1.92D+00  1.51D+00
 E= -3010.55077062821     Delta-E=       -0.000000115844 Rises=F Damp=F
 DIIS: error= 3.79D-06 at cycle  14 NSaved=  14.
 NSaved=14 IEnMin=14 EnMin= -3010.55077062821     IErMin=14 ErrMin= 3.79D-06
 ErrMax= 3.79D-06  0.00D+00 EMaxC= 1.00D-01 BMatC= 3.98D-09 BMatP= 2.80D-08
 IDIUse=1 WtCom= 1.00D+00 WtEn= 0.00D+00
 Coeff-Com:  0.115D-04-0.130D-04 0.175D-04-0.205D-04-0.218D-03-0.498D-03
 Coeff-Com:  0.750D-04 0.379D-02 0.708D-02-0.336D-02-0.125D+00-0.158D-02
 Coeff-Com:  0.388D+00 0.732D+00
 Coeff:      0.115D-04-0.130D-04 0.175D-04-0.205D-04-0.218D-03-0.498D-03
 Coeff:      0.750D-04 0.379D-02 0.708D-02-0.336D-02-0.125D+00-0.158D-02
 Coeff:      0.388D+00 0.732D+00
 Gap=     0.242 Goal=   None    Shift=    0.000
 RMSDP=3.00D-06 MaxDP=2.98D-04 DE=-1.16D-07 OVMax= 6.29D-05

 Cycle  15  Pass 1  IDiag  1:
 RMSU=  1.40D-06    CP:  2.58D-02  1.96D+00  1.65D+00  4.28D-01  6.54D-01
                    CP:  8.28D-01  1.11D+00  1.54D+00  1.24D+00  1.70D+00
                    CP:  2.08D+00  2.02D+00  1.66D+00  1.13D+00
 E= -3010.55077063767     Delta-E=       -0.000000009456 Rises=F Damp=F
 DIIS: error= 1.34D-06 at cycle  15 NSaved=  15.
 NSaved=15 IEnMin=15 EnMin= -3010.55077063767     IErMin=15 ErrMin= 1.34D-06
 ErrMax= 1.34D-06  0.00D+00 EMaxC= 1.00D-01 BMatC= 7.90D-10 BMatP= 3.98D-09
 IDIUse=1 WtCom= 1.00D+00 WtEn= 0.00D+00
 Coeff-Com:  0.672D-06-0.147D-05 0.351D-05 0.636D-05 0.564D-05-0.146D-03
 Coeff-Com: -0.728D-03-0.135D-02-0.191D-03 0.143D-01 0.211D-01-0.616D-01
 Coeff-Com: -0.106D+00 0.236D+00 0.899D+00
 Coeff:      0.672D-06-0.147D-05 0.351D-05 0.636D-05 0.564D-05-0.146D-03
 Coeff:     -0.728D-03-0.135D-02-0.191D-03 0.143D-01 0.211D-01-0.616D-01
 Coeff:     -0.106D+00 0.236D+00 0.899D+00
 Gap=     0.242 Goal=   None    Shift=    0.000
 RMSDP=2.71D-06 MaxDP=2.31D-04 DE=-9.46D-09 OVMax= 3.16D-05

 Cycle  16  Pass 1  IDiag  1:
 RMSU=  4.91D-07    CP:  2.58D-02  1.96D+00  1.65D+00  4.28D-01  6.54D-01
                    CP:  8.28D-01  1.11D+00  1.54D+00  1.24D+00  1.70D+00
                    CP:  2.08D+00  2.03D+00  1.77D+00  1.40D+00  1.27D+00
 E= -3010.55077064000     Delta-E=       -0.000000002333 Rises=F Damp=F
 DIIS: error= 6.76D-07 at cycle  16 NSaved=  16.
 NSaved=16 IEnMin=16 EnMin= -3010.55077064000     IErMin=16 ErrMin= 6.76D-07
 ErrMax= 6.76D-07  0.00D+00 EMaxC= 1.00D-01 BMatC= 1.33D-10 BMatP= 7.90D-10
 IDIUse=1 WtCom= 1.00D+00 WtEn= 0.00D+00
 Coeff-Com:  0.217D-06-0.408D-06 0.188D-05 0.219D-05 0.324D-04 0.195D-04
 Coeff-Com: -0.180D-03-0.766D-03-0.130D-02 0.395D-02 0.198D-01-0.132D-01
 Coeff-Com: -0.772D-01-0.452D-01 0.218D+00 0.896D+00
 Coeff:      0.217D-06-0.408D-06 0.188D-05 0.219D-05 0.324D-04 0.195D-04
 Coeff:     -0.180D-03-0.766D-03-0.130D-02 0.395D-02 0.198D-01-0.132D-01
 Coeff:     -0.772D-01-0.452D-01 0.218D+00 0.896D+00
 Gap=     0.242 Goal=   None    Shift=    0.000
 RMSDP=9.30D-07 MaxDP=7.94D-05 DE=-2.33D-09 OVMax= 1.42D-05

 Cycle  17  Pass 1  IDiag  1:
 RMSU=  1.76D-07    CP:  2.58D-02  1.96D+00  1.65D+00  4.28D-01  6.54D-01
                    CP:  8.28D-01  1.11D+00  1.54D+00  1.24D+00  1.70D+00
                    CP:  2.09D+00  2.05D+00  1.80D+00  1.46D+00  1.51D+00
                    CP:  1.23D+00
 E= -3010.55077064045     Delta-E=       -0.000000000448 Rises=F Damp=F
 DIIS: error= 4.10D-07 at cycle  17 NSaved=  17.
 NSaved=17 IEnMin=17 EnMin= -3010.55077064045     IErMin=17 ErrMin= 4.10D-07
 ErrMax= 4.10D-07  0.00D+00 EMaxC= 1.00D-01 BMatC= 2.76D-11 BMatP= 1.33D-10
 IDIUse=1 WtCom= 1.00D+00 WtEn= 0.00D+00
 Coeff-Com: -0.350D-06 0.577D-06 0.690D-06-0.135D-05 0.127D-04 0.341D-04
 Coeff-Com:  0.841D-04 0.176D-04-0.415D-03-0.961D-03 0.293D-02 0.770D-02
 Coeff-Com: -0.594D-02-0.581D-01-0.882D-01 0.265D+00 0.878D+00
 Coeff:     -0.350D-06 0.577D-06 0.690D-06-0.135D-05 0.127D-04 0.341D-04
 Coeff:      0.841D-04 0.176D-04-0.415D-03-0.961D-03 0.293D-02 0.770D-02
 Coeff:     -0.594D-02-0.581D-01-0.882D-01 0.265D+00 0.878D+00
 Gap=     0.242 Goal=   None    Shift=    0.000
 RMSDP=5.09D-07 MaxDP=4.00D-05 DE=-4.48D-10 OVMax= 6.64D-06

 Cycle  18  Pass 1  IDiag  1:
 RMSU=  7.25D-08    CP:  2.58D-02  1.96D+00  1.65D+00  4.28D-01  6.54D-01
                    CP:  8.28D-01  1.10D+00  1.53D+00  1.24D+00  1.71D+00
                    CP:  2.09D+00  2.05D+00  1.80D+00  1.48D+00  1.65D+00
                    CP:  1.37D+00  1.48D+00
 E= -3010.55077064047     Delta-E=       -0.000000000019 Rises=F Damp=F
 DIIS: error= 1.25D-07 at cycle  18 NSaved=  18.
 NSaved=18 IEnMin=18 EnMin= -3010.55077064047     IErMin=18 ErrMin= 1.25D-07
 ErrMax= 1.25D-07  0.00D+00 EMaxC= 1.00D-01 BMatC= 3.98D-12 BMatP= 2.76D-11
 IDIUse=1 WtCom= 1.00D+00 WtEn= 0.00D+00
 Coeff-Com: -0.246D-06 0.385D-06 0.288D-06-0.752D-06-0.224D-05 0.352D-05
 Coeff-Com:  0.585D-04 0.171D-03 0.140D-03-0.927D-03-0.336D-02 0.340D-02
 Coeff-Com:  0.128D-01-0.643D-02-0.655D-01-0.115D+00 0.246D+00 0.928D+00
 Coeff:     -0.246D-06 0.385D-06 0.288D-06-0.752D-06-0.224D-05 0.352D-05
 Coeff:      0.585D-04 0.171D-03 0.140D-03-0.927D-03-0.336D-02 0.340D-02
 Coeff:      0.128D-01-0.643D-02-0.655D-01-0.115D+00 0.246D+00 0.928D+00
 Gap=     0.242 Goal=   None    Shift=    0.000
 RMSDP=3.12D-07 MaxDP=2.92D-05 DE=-1.91D-11 OVMax= 3.87D-06

 Cycle  19  Pass 1  IDiag  1:
 RMSU=  3.69D-08    CP:  2.58D-02  1.96D+00  1.65D+00  4.28D-01  6.54D-01
                    CP:  8.28D-01  1.10D+00  1.53D+00  1.24D+00  1.71D+00
                    CP:  2.09D+00  2.05D+00  1.80D+00  1.49D+00  1.70D+00
                    CP:  1.44D+00  1.74D+00  1.43D+00
 E= -3010.55077064046     Delta-E=        0.000000000010 Rises=F Damp=F
 DIIS: error= 5.17D-08 at cycle  19 NSaved=  19.
 NSaved=19 IEnMin=18 EnMin= -3010.55077064047     IErMin=19 ErrMin= 5.17D-08
 ErrMax= 5.17D-08  0.00D+00 EMaxC= 1.00D-01 BMatC= 4.37D-13 BMatP= 3.98D-12
 IDIUse=1 WtCom= 1.00D+00 WtEn= 0.00D+00
 Coeff-Com: -0.331D-07 0.379D-07-0.143D-06-0.469D-08-0.273D-05-0.483D-05
 Coeff-Com:  0.149D-05 0.439D-04 0.838D-04-0.416D-04-0.129D-02-0.457D-03
 Coeff-Com:  0.388D-02 0.101D-01 0.122D-02-0.754D-01-0.780D-01 0.230D+00
 Coeff-Com:  0.909D+00
 Coeff:     -0.331D-07 0.379D-07-0.143D-06-0.469D-08-0.273D-05-0.483D-05
 Coeff:      0.149D-05 0.439D-04 0.838D-04-0.416D-04-0.129D-02-0.457D-03
 Coeff:      0.388D-02 0.101D-01 0.122D-02-0.754D-01-0.780D-01 0.230D+00
 Coeff:      0.909D+00
 Gap=     0.242 Goal=   None    Shift=    0.000
 RMSDP=9.01D-08 MaxDP=8.52D-06 DE= 1.00D-11 OVMax= 1.18D-06

 Cycle  20  Pass 1  IDiag  1:
 RMSU=  1.25D-08    CP:  2.58D-02  1.96D+00  1.65D+00  4.28D-01  6.54D-01
                    CP:  8.28D-01  1.10D+00  1.53D+00  1.24D+00  1.71D+00
                    CP:  2.09D+00  2.05D+00  1.81D+00  1.49D+00  1.71D+00
                    CP:  1.45D+00  1.87D+00  1.64D+00  1.27D+00
 E= -3010.55077064051     Delta-E=       -0.000000000049 Rises=F Damp=F
 DIIS: error= 2.77D-08 at cycle  20 NSaved=  20.
 NSaved=20 IEnMin=20 EnMin= -3010.55077064051     IErMin=20 ErrMin= 2.77D-08
 ErrMax= 2.77D-08  0.00D+00 EMaxC= 1.00D-01 BMatC= 9.56D-14 BMatP= 4.37D-13
 IDIUse=1 WtCom= 1.00D+00 WtEn= 0.00D+00
 Coeff-Com:  0.252D-07-0.454D-07-0.151D-06 0.139D-06-0.415D-06-0.129D-05
 Coeff-Com: -0.849D-05-0.170D-04-0.517D-05 0.144D-03 0.333D-03-0.671D-03
 Coeff-Com: -0.151D-02 0.305D-02 0.106D-01 0.421D-02-0.524D-01-0.130D+00
 Coeff-Com:  0.111D+00 0.106D+01
 Coeff:      0.252D-07-0.454D-07-0.151D-06 0.139D-06-0.415D-06-0.129D-05
 Coeff:     -0.849D-05-0.170D-04-0.517D-05 0.144D-03 0.333D-03-0.671D-03
 Coeff:     -0.151D-02 0.305D-02 0.106D-01 0.421D-02-0.524D-01-0.130D+00
 Coeff:      0.111D+00 0.106D+01
 Gap=     0.242 Goal=   None    Shift=    0.000
 RMSDP=3.76D-08 MaxDP=3.77D-06 DE=-4.91D-11 OVMax= 5.57D-07

 Cycle  21  Pass 1  IDiag  1:
 Restarting incremental Fock formation.
 E= -3010.55077064043     Delta-E=        0.000000000077 Rises=F Damp=F
 DIIS: error= 1.00D-08 at cycle  21 NSaved=  20.
 NSaved=20 IEnMin=19 EnMin= -3010.55077064051     IErMin=20 ErrMin= 1.00D-08
 ErrMax= 1.00D-08  0.00D+00 EMaxC= 1.00D-01 BMatC= 1.99D-14 BMatP= 9.56D-14
 IDIUse=1 WtCom= 1.00D+00 WtEn= 0.00D+00
 Coeff-Com: -0.368D-08-0.390D-07 0.219D-07 0.281D-06 0.677D-06-0.141D-05
 Coeff-Com: -0.924D-05-0.107D-04 0.369D-04 0.266D-03-0.802D-04-0.917D-03
 Coeff-Com: -0.104D-02 0.165D-02 0.139D-01 0.514D-02-0.587D-01-0.143D+00
 Coeff-Com:  0.245D+00 0.937D+00
 Coeff:     -0.368D-08-0.390D-07 0.219D-07 0.281D-06 0.677D-06-0.141D-05
 Coeff:     -0.924D-05-0.107D-04 0.369D-04 0.266D-03-0.802D-04-0.917D-03
 Coeff:     -0.104D-02 0.165D-02 0.139D-01 0.514D-02-0.587D-01-0.143D+00
 Coeff:      0.245D+00 0.937D+00
 Gap=     0.242 Goal=   None    Shift=    0.000
 RMSDP=1.03D-08 MaxDP=1.12D-06 DE= 7.73D-11 OVMax= 2.31D-07

 Cycle  22  Pass 1  IDiag  1:
 RMSU=  9.10D-09    CP:  1.00D+00
 E= -3010.55077064049     Delta-E=       -0.000000000062 Rises=F Damp=F
 DIIS: error= 3.79D-09 at cycle  22 NSaved=  20.
 NSaved=20 IEnMin=18 EnMin= -3010.55077064051     IErMin=20 ErrMin= 3.79D-09
 ErrMax= 3.79D-09  0.00D+00 EMaxC= 1.00D-01 BMatC= 2.54D-15 BMatP= 1.99D-14
 IDIUse=1 WtCom= 1.00D+00 WtEn= 0.00D+00
 Large coefficients: NSaved= 20 BigCof=    0.00 CofMax=   10.00 Det=-8.09D-15
 Inversion failed.  Reducing to 19 matrices.
 Large coefficients: NSaved= 19 BigCof=    0.00 CofMax=   10.00 Det=-6.92D-15
 Inversion failed.  Reducing to 18 matrices.
 Large coefficients: NSaved= 18 BigCof=    0.00 CofMax=   10.00 Det=-8.24D-15
 Inversion failed.  Reducing to 17 matrices.
 Large coefficients: NSaved= 17 BigCof=    0.00 CofMax=   10.00 Det=-8.53D-15
 Inversion failed.  Reducing to 16 matrices.
 Large coefficients: NSaved= 16 BigCof=    0.00 CofMax=   10.00 Det=-8.53D-15
 Inversion failed.  Reducing to 15 matrices.
 Coeff-Com: -0.911D-06 0.116D-06-0.158D-05 0.416D-04 0.263D-04-0.826D-04
 Coeff-Com: -0.450D-03-0.459D-03 0.216D-02 0.409D-02 0.224D-02-0.489D-01
 Coeff-Com: -0.692D-01 0.168D+00 0.942D+00
 Coeff:     -0.911D-06 0.116D-06-0.158D-05 0.416D-04 0.263D-04-0.826D-04
 Coeff:     -0.450D-03-0.459D-03 0.216D-02 0.409D-02 0.224D-02-0.489D-01
 Coeff:     -0.692D-01 0.168D+00 0.942D+00
 Gap=     0.242 Goal=   None    Shift=    0.000
 RMSDP=5.25D-09 MaxDP=5.13D-07 DE=-6.18D-11 OVMax= 1.27D-07

 SCF Done:  E(RwB97XD) =  -3010.55077064     A.U. after   22 cycles
            NFock= 22  Conv=0.53D-08     -V/T= 2.0016
 KE= 3.005871105443D+03 PE=-8.702934257607D+03 EE= 1.911023916835D+03
 Leave Link  502 at Thu May  2 14:21:03 2024, MaxMem=   134217728 cpu:            1343.4 elap:            1343.7
 (Enter /software/gaussian/g16-c01/sse4/g16/l601.exe)
 Copying SCF densities to generalized density rwf, IOpCl= 0 IROHF=0.

 **********************************************************************

            Population analysis using the SCF Density.

 **********************************************************************

 Alpha  occ. eigenvalues -- -483.34653 -62.89709 -56.69354 -56.68851 -56.68845
 Alpha  occ. eigenvalues --  -19.46790 -19.46368 -14.85912 -10.61146 -10.59778
 Alpha  occ. eigenvalues --  -10.58923 -10.57381 -10.53931 -10.53120  -9.05539
 Alpha  occ. eigenvalues --   -6.88085  -6.86422  -6.86401  -2.98021  -2.97578
 Alpha  occ. eigenvalues --   -2.97561  -2.96229  -2.96228  -1.50208  -1.33165
 Alpha  occ. eigenvalues --   -1.23890  -1.14517  -1.13489  -1.07045  -1.01486
 Alpha  occ. eigenvalues --   -0.96569  -0.91499  -0.85961  -0.81630  -0.81260
 Alpha  occ. eigenvalues --   -0.80544  -0.79095  -0.76761  -0.76339  -0.73617
 Alpha  occ. eigenvalues --   -0.69386  -0.67864  -0.64570  -0.62205  -0.60367
 Alpha  occ. eigenvalues --   -0.58184  -0.57631  -0.56213  -0.55834
 Alpha virt. eigenvalues --   -0.31585  -0.20924  -0.18810  -0.18527  -0.14553
 Alpha virt. eigenvalues --   -0.13715  -0.12945  -0.09433  -0.08630  -0.07536
 Alpha virt. eigenvalues --   -0.06128  -0.04963  -0.04431  -0.03945  -0.01659
 Alpha virt. eigenvalues --   -0.01167  -0.00671   0.00084   0.01511   0.01941
 Alpha virt. eigenvalues --    0.02686   0.03771   0.04183   0.04883   0.05586
 Alpha virt. eigenvalues --    0.06289   0.06747   0.08424   0.09258   0.09555
 Alpha virt. eigenvalues --    0.10252   0.10601   0.11370   0.12328   0.13063
 Alpha virt. eigenvalues --    0.13661   0.13870   0.14550   0.14938   0.16155
 Alpha virt. eigenvalues --    0.17560   0.17943   0.18937   0.19765   0.20942
 Alpha virt. eigenvalues --    0.21815   0.21974   0.23750   0.24267   0.25353
 Alpha virt. eigenvalues --    0.25935   0.26613   0.27138   0.28103   0.28587
 Alpha virt. eigenvalues --    0.28960   0.32580   0.32714   0.34436   0.34981
 Alpha virt. eigenvalues --    0.36858   0.37490   0.39355   0.40085   0.41935
 Alpha virt. eigenvalues --    0.42992   0.43870   0.45579   0.46594   0.47625
 Alpha virt. eigenvalues --    0.47947   0.48751   0.49713   0.50598   0.53176
 Alpha virt. eigenvalues --    0.53612   0.53824   0.56943   0.57541   0.59451
 Alpha virt. eigenvalues --    0.61073   0.62129   0.63173   0.64367   0.68043
 Alpha virt. eigenvalues --    0.70242   0.70529   0.72227   0.73904   0.74180
 Alpha virt. eigenvalues --    0.75365   0.78669   0.80522   0.81099   0.84319
 Alpha virt. eigenvalues --    0.86302   0.87105   0.91241   0.93461   0.98393
 Alpha virt. eigenvalues --    0.99859   1.01570   1.03573   1.04710   1.06416
 Alpha virt. eigenvalues --    1.06949   1.12514   1.13265   1.14090   1.18194
 Alpha virt. eigenvalues --    1.19709   1.22801   1.27532   1.32183   1.35628
 Alpha virt. eigenvalues --    1.35932   1.38099   1.41633   1.53485   1.55706
 Alpha virt. eigenvalues --    1.57105   1.59163   1.60443   1.63250   1.64540
 Alpha virt. eigenvalues --    1.67512   1.70706   1.73577   1.74361   1.78658
 Alpha virt. eigenvalues --    1.82304   1.84951   1.87783   1.91325   1.93395
 Alpha virt. eigenvalues --    1.96946   2.00577   2.02387   2.06088   2.07172
 Alpha virt. eigenvalues --    2.11413   2.13800   2.21680   2.23137   2.27537
 Alpha virt. eigenvalues --    2.33120   2.38575   2.41386   2.43445   2.52527
 Alpha virt. eigenvalues --    2.56841   2.62570   2.65606   2.68321   2.71344
 Alpha virt. eigenvalues --    2.73450   2.75926   2.76832   2.79999   2.81008
 Alpha virt. eigenvalues --    2.92031   2.97038   3.00743   3.03973   3.08327
 Alpha virt. eigenvalues --    3.14434   3.15578   3.17318   3.22005   3.26449
 Alpha virt. eigenvalues --    3.28112   3.37421   3.46192   3.49690   3.54518
 Alpha virt. eigenvalues --    3.56778   3.68609   3.73977   3.82779   3.86485
 Alpha virt. eigenvalues --    4.06302   4.07114   4.16044   4.20021   4.40009
 Alpha virt. eigenvalues --    4.44797   4.53628   4.59596   4.93423   4.96031
 Alpha virt. eigenvalues --    5.05346   5.09110   5.61711   6.14922   6.64317
 Alpha virt. eigenvalues --    7.45134   7.47488   7.57703  23.21283  23.60556
 Alpha virt. eigenvalues --   23.69328  23.77364  23.94737  24.02032  35.31248
 Alpha virt. eigenvalues --   47.90610  49.84890  49.93550 289.78288 289.80633
 Alpha virt. eigenvalues --  289.932871020.91849
          Condensed to atoms (all electrons):
               1          2          3          4          5          6
     1  C    7.514445  -1.044446   0.301219  -0.093545   0.286447   0.038563
     2  C   -1.044446  17.161110  -2.552863   0.533897  -0.007399   0.229605
     3  C    0.301219  -2.552863  22.386960  -1.482099   0.016753   0.069651
     4  C   -0.093545   0.533897  -1.482099   6.619326   0.013884  -0.009831
     5  H    0.286447  -0.007399   0.016753   0.013884   0.260187  -0.000671
     6  H    0.038563   0.229605   0.069651  -0.009831  -0.000671   0.252266
     7  H    0.053896  -0.025235   0.021960   0.299624  -0.001951   0.000011
     8  N   -0.091831  -0.460019  -2.356719   0.048164  -0.000083  -0.021261
     9  O    0.027990   0.300950   0.144989  -0.029655  -0.000018  -0.001839
    10  O    0.222243  -0.049248  -0.274060  -0.017440  -0.000065   0.015761
    11  C    0.864420  -1.185768   1.759113  -0.381636  -0.015677   0.005539
    12  H   -0.036315   0.026351   0.012380   0.070005   0.000062  -0.000021
    13  C   -1.950540  -6.875293 -11.824035   0.777941   0.019776  -0.003117
    14  H    0.016484  -0.016707   0.026734  -0.014155  -0.000029   0.000075
    15  Br   0.012483  -0.263963  -0.212443  -0.049623   0.000228  -0.000445
               7          8          9         10         11         12
     1  C    0.053896  -0.091831   0.027990   0.222243   0.864420  -0.036315
     2  C   -0.025235  -0.460019   0.300950  -0.049248  -1.185768   0.026351
     3  C    0.021960  -2.356719   0.144989  -0.274060   1.759113   0.012380
     4  C    0.299624   0.048164  -0.029655  -0.017440  -0.381636   0.070005
     5  H   -0.001951  -0.000083  -0.000018  -0.000065  -0.015677   0.000062
     6  H    0.000011  -0.021261  -0.001839   0.015761   0.005539  -0.000021
     7  H    0.331942  -0.000040   0.000010  -0.000001   0.007606  -0.003111
     8  N   -0.000040   7.864978  -0.097191   0.260311  -0.406997  -0.000446
     9  O    0.000010  -0.097191   8.102907   0.015282   0.316616   0.000300
    10  O   -0.000001   0.260311   0.015282   7.605422  -0.013964  -0.000048
    11  C    0.007606  -0.406997   0.316616  -0.013964  10.174785   0.232820
    12  H   -0.003111  -0.000446   0.000300  -0.000048   0.232820   0.404690
    13  C   -0.022305   2.325790  -0.707971   0.040695  -5.060484   0.018322
    14  H   -0.000004  -0.020727   0.010434  -0.000918   0.178344  -0.006806
    15  Br  -0.000347   0.189911  -0.056941   0.002566  -0.277243   0.006977
              13         14         15
     1  C   -1.950540   0.016484   0.012483
     2  C   -6.875293  -0.016707  -0.263963
     3  C  -11.824035   0.026734  -0.212443
     4  C    0.777941  -0.014155  -0.049623
     5  H    0.019776  -0.000029   0.000228
     6  H   -0.003117   0.000075  -0.000445
     7  H   -0.022305  -0.000004  -0.000347
     8  N    2.325790  -0.020727   0.189911
     9  O   -0.707971   0.010434  -0.056941
    10  O    0.040695  -0.000918   0.002566
    11  C   -5.060484   0.178344  -0.277243
    12  H    0.018322  -0.006806   0.006977
    13  C   28.736633   0.162512   0.735135
    14  H    0.162512   0.373605  -0.067095
    15  Br   0.735135  -0.067095  34.954464
 Mulliken charges:
               1
     1  C   -0.121512
     2  C    0.229027
     3  C   -0.037539
     4  C   -0.284857
     5  H    0.428557
     6  H    0.425712
     7  H    0.337947
     8  N   -0.233839
     9  O   -0.025863
    10  O    0.193464
    11  C   -0.197472
    12  H    0.274841
    13  C   -0.373057
    14  H    0.358254
    15  Br   0.026337
 Sum of Mulliken charges =   1.00000
 Mulliken charges with hydrogens summed into heavy atoms:
               1
     1  C    0.307044
     2  C    0.654739
     3  C   -0.037539
     4  C    0.053090
     8  N   -0.233839
     9  O   -0.025863
    10  O    0.193464
    11  C    0.077370
    13  C   -0.014803
    15  Br   0.026337
 Electronic spatial extent (au):  <R**2>=           3951.1261
 Charge=              1.0000 electrons
 Dipole moment (field-independent basis, Debye):
    X=              2.4588    Y=              5.4053    Z=              0.0847  Tot=              5.9389
 Quadrupole moment (field-independent basis, Debye-Ang):
   XX=            -68.1925   YY=            -55.1203   ZZ=            -64.5708
   XY=             10.1585   XZ=             -0.7460   YZ=             -0.8981
 Traceless Quadrupole moment (field-independent basis, Debye-Ang):
   XX=             -5.5646   YY=              7.5076   ZZ=             -1.9430
   XY=             10.1585   XZ=             -0.7460   YZ=             -0.8981
 Octapole moment (field-independent basis, Debye-Ang**2):
  XXX=           -512.2798  YYY=            131.5030  ZZZ=             89.9550  XYY=           -145.2212
  XXY=             72.2559  XXZ=             29.4719  XZZ=           -138.3333  YZZ=             28.9326
  YYZ=             35.8718  XYZ=              0.6613
 Hexadecapole moment (field-independent basis, Debye-Ang**3):
 XXXX=          -3433.5664 YYYY=           -756.3226 ZZZZ=           -416.9584 XXXY=            371.7587
 XXXZ=            191.8370 YYYX=            262.2921 YYYZ=           -205.7356 ZZZX=            183.3337
 ZZZY=           -167.3229 XXYY=           -644.1230 XXZZ=           -541.7798 YYZZ=           -197.2373
 XXYZ=            -59.4315 YYXZ=             71.8213 ZZXY=             54.3617
 N-N= 7.754884646887D+02 E-N=-8.702934257692D+03  KE= 3.005871105443D+03
 No NMR shielding tensors so no spin-rotation constants.
 Leave Link  601 at Thu May  2 14:21:10 2024, MaxMem=   134217728 cpu:               7.3 elap:               7.3
 (Enter /software/gaussian/g16-c01/sse4/g16/l9999.exe)
 Unable to Open any file for archive entry.
 1\1\GINC-BHX0009\SP\RwB97XD\6-311+G(d)\C6H5Br1N1O2(1+)\BWEIGHT\02-May-
 2024\0\\#P wB97XD/6-311+G* NoSymm #P Field=Y-214\\TitleMe\\1,1\C,0,0.5
 193,1.233,-0.0319\C,0,1.9445,1.2692,-0.0367\C,0,2.6204,0.0928,-0.025\C
 ,0,-0.196,0.0301,0.001\H,0,-0.0207,2.1742,-0.0434\H,0,2.4828,2.2089,-0
 .0361\H,0,-1.2777,0.0399,0.0117\N,0,4.0921,0.0959,0.0366\O,0,4.6393,-1
 .0217,0.1446\O,0,4.6649,1.1984,-0.0233\C,0,0.4943,-1.1671,0.021\H,0,-0
 .0325,-2.1149,0.0545\C,0,1.9629,-1.2165,-0.0211\H,0,2.4436,-1.9631,0.6
 151\Br,0,2.173,-1.9491,-1.9062\\Version=ES64L-G16RevC.01\HF=-3010.5507
 706\RMSD=5.252e-09\Dipole=-3.36183,3.3547272,1.282534\Quadrupole=-4.13
 71564,5.5817096,-1.4445532,7.5526192,-0.5546519,-0.6676944\PG=C01 [X(C
 6H5Br1N1O2)]\\@
 The archive entry for this job was punched.


 A COMPUTER IS LIKE A HORSE, IT WILL SENSE WEAKNESS.
     -- GREG WETTSTEIN
 Job cpu time:       0 days  0 hours 23 minutes 33.0 seconds.
 Elapsed time:       0 days  0 hours 23 minutes 33.2 seconds.
 File lengths (MBytes):  RWF=     40 Int=      0 D2E=      0 Chk=     32 Scr=      1
 Normal termination of Gaussian 16 at Thu May  2 14:21:11 2024.
