 Entering Gaussian System, Link 0=g16
 Initial command:
 /software/gaussian/g16-c01/sse4/g16/l1.exe "/local_scratch/24657419/Gau-4917.inp" -scrdir="/local_scratch/24657419/"
 Entering Link 1 = /software/gaussian/g16-c01/sse4/g16/l1.exe PID=      4923.
  
 Copyright (c) 1988-2019, Gaussian, Inc.  All Rights Reserved.
  
 This is part of the Gaussian(R) 16 program.  It is based on
 the Gaussian(R) 09 system (copyright 2009, Gaussian, Inc.),
 the Gaussian(R) 03 system (copyright 2003, Gaussian, Inc.),
 the Gaussian(R) 98 system (copyright 1998, Gaussian, Inc.),
 the Gaussian(R) 94 system (copyright 1995, Gaussian, Inc.),
 the Gaussian 92(TM) system (copyright 1992, Gaussian, Inc.),
 the Gaussian 90(TM) system (copyright 1990, Gaussian, Inc.),
 the Gaussian 88(TM) system (copyright 1988, Gaussian, Inc.),
 the Gaussian 86(TM) system (copyright 1986, Carnegie Mellon
 University), and the Gaussian 82(TM) system (copyright 1983,
 Carnegie Mellon University). Gaussian is a federally registered
 trademark of Gaussian, Inc.
  
 This software contains proprietary and confidential information,
 including trade secrets, belonging to Gaussian, Inc.
  
 This software is provided under written license and may be
 used, copied, transmitted, or stored only in accord with that
 written license.
  
 The following legend is applicable only to US Government
 contracts under FAR:
  
                    RESTRICTED RIGHTS LEGEND
  
 Use, reproduction and disclosure by the US Government is
 subject to restrictions as set forth in subparagraphs (a)
 and (c) of the Commercial Computer Software - Restricted
 Rights clause in FAR 52.227-19.
  
 Gaussian, Inc.
 340 Quinnipiac St., Bldg. 40, Wallingford CT 06492
  
  
 ---------------------------------------------------------------
 Warning -- This program may not be used in any manner that
 competes with the business of Gaussian, Inc. or will provide
 assistance to any competitor of Gaussian, Inc.  The licensee
 of this program is prohibited from giving any competitor of
 Gaussian, Inc. access to this program.  By using this program,
 the user acknowledges that Gaussian, Inc. is engaged in the
 business of creating and licensing software in the field of
 computational chemistry and represents and warrants to the
 licensee that it is not a competitor of Gaussian, Inc. and that
 it will not use this program in any manner prohibited above.
 ---------------------------------------------------------------
  

 Cite this work as:
 Gaussian 16, Revision C.01,
 M. J. Frisch, G. W. Trucks, H. B. Schlegel, G. E. Scuseria, 
 M. A. Robb, J. R. Cheeseman, G. Scalmani, V. Barone, 
 G. A. Petersson, H. Nakatsuji, X. Li, M. Caricato, A. V. Marenich, 
 J. Bloino, B. G. Janesko, R. Gomperts, B. Mennucci, H. P. Hratchian, 
 J. V. Ortiz, A. F. Izmaylov, J. L. Sonnenberg, D. Williams-Young, 
 F. Ding, F. Lipparini, F. Egidi, J. Goings, B. Peng, A. Petrone, 
 T. Henderson, D. Ranasinghe, V. G. Zakrzewski, J. Gao, N. Rega, 
 G. Zheng, W. Liang, M. Hada, M. Ehara, K. Toyota, R. Fukuda, 
 J. Hasegawa, M. Ishida, T. Nakajima, Y. Honda, O. Kitao, H. Nakai, 
 T. Vreven, K. Throssell, J. A. Montgomery, Jr., J. E. Peralta, 
 F. Ogliaro, M. J. Bearpark, J. J. Heyd, E. N. Brothers, K. N. Kudin, 
 V. N. Staroverov, T. A. Keith, R. Kobayashi, J. Normand, 
 K. Raghavachari, A. P. Rendell, J. C. Burant, S. S. Iyengar, 
 J. Tomasi, M. Cossi, J. M. Millam, M. Klene, C. Adamo, R. Cammi, 
 J. W. Ochterski, R. L. Martin, K. Morokuma, O. Farkas, 
 J. B. Foresman, and D. J. Fox, Gaussian, Inc., Wallingford CT, 2019.
 
 ******************************************
 Gaussian 16:  ES64L-G16RevC.01  3-Jul-2019
                 1-May-2024 
 ******************************************
 %chk=geometry.chk
 %mem=9GB
 %nprocshared=12
 Will use up to   12 processors via shared memory.
 ----------------------------------------
 #P wB97XD/6-311+G* NoSymm #P Field=X-214
 ----------------------------------------
 1/38=1,172=1/1;
 2/12=2,15=1,17=6,18=5,40=1/2;
 3/5=4,6=6,7=11,11=2,14=1,15=-214,25=1,30=1,74=-58/1,2,3;
 4//1;
 5/5=2,38=5/2;
 6/7=2,8=2,9=2,10=2,28=1/1;
 99/5=1,9=1/99;
 Leave Link    1 at Wed May  1 14:27:44 2024, MaxMem=  1207959552 cpu:               1.6 elap:               1.6
 (Enter /software/gaussian/g16-c01/sse4/g16/l101.exe)
 -------
 TitleMe
 -------
 Symbolic Z-matrix:
 Charge =  1 Multiplicity = 1
 C                     0.0295    1.3397    0.0682 
 C                     1.4348    1.2867    0.0064 
 C                     2.1118    0.0511   -0.0054 
 C                     1.4451   -1.1372    0.0312 
 C                    -0.6879    0.1682    0.11 
 H                    -0.4713    2.2984    0.0781 
 H                     2.0273    2.1965   -0.0322 
 H                     1.9897   -2.0764    0.0232 
 H                    -1.7716    0.1804    0.1582 
 N                     3.5864    0.051    -0.0675 
 O                     4.1471   -1.0597   -0.0881 
 O                     4.145     1.1639   -0.0901 
 C                    -0.0236   -1.1458    0.0835 
 H                    -0.4367   -1.8725    0.7889 
 Br                   -0.5359   -1.8697   -1.7408 
 
 ITRead=  0  0  0  0  0  0  0  0  0  0  0  0  0  0  0
 MicOpt= -1 -1 -1 -1 -1 -1 -1 -1 -1 -1 -1 -1 -1 -1 -1
 NAtoms=     15 NQM=       15 NQMF=       0 NMMI=      0 NMMIF=      0
                NMic=       0 NMicF=      0.
                    Isotopes and Nuclear Properties:
 (Nuclear quadrupole moments (NQMom) in fm**2, nuclear magnetic moments (NMagM)
  in nuclear magnetons)

  Atom         1           2           3           4           5           6           7           8           9          10
 IAtWgt=          12          12          12          12          12           1           1           1           1          14
 AtmWgt=  12.0000000  12.0000000  12.0000000  12.0000000  12.0000000   1.0078250   1.0078250   1.0078250   1.0078250  14.0030740
 NucSpn=           0           0           0           0           0           1           1           1           1           2
 AtZEff=  -0.0000000  -0.0000000  -0.0000000  -0.0000000  -0.0000000  -0.0000000  -0.0000000  -0.0000000  -0.0000000  -0.0000000
 NQMom=    0.0000000   0.0000000   0.0000000   0.0000000   0.0000000   0.0000000   0.0000000   0.0000000   0.0000000   2.0440000
 NMagM=    0.0000000   0.0000000   0.0000000   0.0000000   0.0000000   2.7928460   2.7928460   2.7928460   2.7928460   0.4037610
 AtZNuc=   6.0000000   6.0000000   6.0000000   6.0000000   6.0000000   1.0000000   1.0000000   1.0000000   1.0000000   7.0000000

  Atom        11          12          13          14          15
 IAtWgt=          16          16          12           1          79
 AtmWgt=  15.9949146  15.9949146  12.0000000   1.0078250  78.9183361
 NucSpn=           0           0           0           1           3
 AtZEff=  -0.0000000  -0.0000000  -0.0000000  -0.0000000  -0.0000000
 NQMom=    0.0000000   0.0000000   0.0000000   0.0000000  31.3000000
 NMagM=    0.0000000   0.0000000   0.0000000   2.7928460   2.1063990
 AtZNuc=   8.0000000   8.0000000   6.0000000   1.0000000  35.0000000
 Leave Link  101 at Wed May  1 14:27:46 2024, MaxMem=  1207959552 cpu:               1.6 elap:               1.7
 (Enter /software/gaussian/g16-c01/sse4/g16/l202.exe)
                          Input orientation:                          
 ---------------------------------------------------------------------
 Center     Atomic      Atomic             Coordinates (Angstroms)
 Number     Number       Type             X           Y           Z
 ---------------------------------------------------------------------
      1          6           0        0.029500    1.339700    0.068200
      2          6           0        1.434800    1.286700    0.006400
      3          6           0        2.111800    0.051100   -0.005400
      4          6           0        1.445100   -1.137200    0.031200
      5          6           0       -0.687900    0.168200    0.110000
      6          1           0       -0.471300    2.298400    0.078100
      7          1           0        2.027300    2.196500   -0.032200
      8          1           0        1.989700   -2.076400    0.023200
      9          1           0       -1.771600    0.180400    0.158200
     10          7           0        3.586400    0.051000   -0.067500
     11          8           0        4.147100   -1.059700   -0.088100
     12          8           0        4.145000    1.163900   -0.090100
     13          6           0       -0.023600   -1.145800    0.083500
     14          1           0       -0.436700   -1.872500    0.788900
     15         35           0       -0.535900   -1.869700   -1.740800
 ---------------------------------------------------------------------
                    Distance matrix (angstroms):
                    1          2          3          4          5
     1  C    0.000000
     2  C    1.407656   0.000000
     3  C    2.449874   1.408963   0.000000
     4  C    2.853126   2.424049   1.363043   0.000000
     5  C    1.374344   2.401589   2.804523   2.501993   0.000000
     6  H    1.081667   2.159142   3.424870   3.934226   2.141421
     7  H    2.176095   1.086408   2.147231   3.384750   3.392128
     8  H    3.938800   3.408612   2.131193   1.085702   3.495040
     9  H    2.143837   3.395283   3.888995   3.478413   1.084840
    10  N    3.785591   2.482297   1.475907   2.450862   4.279589
    11  O    4.768247   3.587631   2.320164   2.705743   4.992415
    12  O    4.122294   2.714696   2.319353   3.549540   4.938459
    13  C    2.486114   2.837240   2.449573   1.469656   1.472614
    14  H    3.324903   3.754379   3.290289   2.157764   2.165286
    15  Br   3.727252   4.110867   3.702891   2.756973   2.757100
                    6          7          8          9         10
     6  H    0.000000
     7  H    2.503108   0.000000
     8  H    5.019802   4.273425   0.000000
     9  H    2.486588   4.304945   4.388479   0.000000
    10  N    4.640790   2.652397   2.661486   5.364313   0.000000
    11  O    5.712624   3.885809   2.387560   6.052233   1.244373
    12  O    4.756638   2.356750   3.893289   6.002923   1.245428
    13  C    3.473180   3.923079   2.218790   2.195425   3.806210
    14  H    4.231175   4.827242   2.552506   2.528663   4.540772
    15  Br   4.548146   5.101303   3.087568   3.055498   4.845862
                   11         12         13         14         15
    11  O    0.000000
    12  O    2.223602   0.000000
    13  C    4.175117   4.768865   0.000000
    14  H    4.737193   5.566358   1.093770   0.000000
    15  Br   5.031700   5.817075   2.028436   2.531646   0.000000
 Symmetry turned off by external request.
 Stoichiometry    C6H5BrNO2(1+)
 Framework group  C1[X(C6H5BrNO2)]
 Deg. of freedom    39
 Full point group                 C1      NOp   1
 Rotational constants (GHZ):           1.8252210           0.5518633           0.4576002
 Leave Link  202 at Wed May  1 14:27:47 2024, MaxMem=  1207959552 cpu:               1.4 elap:               1.4
 (Enter /software/gaussian/g16-c01/sse4/g16/l301.exe)
 Standard basis: 6-311+G(d) (5D, 7F)
 Ernie: Thresh=  0.10000D-02 Tol=  0.10000D-05 Strict=F.
 The following finite field(s) will be applied:
 An electric field of             -0.0214  0.0000  0.0000
   261 basis functions,   443 primitive gaussians,   273 cartesian basis functions
    49 alpha electrons       49 beta electrons
       nuclear repulsion energy       739.2122215416 Hartrees.
 IExCor= 4639 DFT=T Ex+Corr=wB97XD ExCW=0 ScaHFX=  1.000000
 ScaDFX=  1.000000  1.000000  1.000000  1.000000 ScalE2=  1.000000  1.000000
 IRadAn=      5 IRanWt=     -1 IRanGd=            0 ICorTp=0 IEmpDi=121
 HFx  wShort=  0.000000 wLong=  0.200000 cFull=  0.222036 cShort=  0.000000 cLong=  0.777964
 DFx  wShort=  0.000000 wLong=  0.200000 cFull=  0.000000 cShort=  0.000000 cLong=  1.000000
 NAtoms=   15 NActive=   15 NUniq=   15 SFac= 1.00D+00 NAtFMM=   60 NAOKFM=F Big=F
 Integral buffers will be    131072 words long.
 Raffenetti 2 integral format.
 Two-electron integral symmetry is turned off.
 R6Disp:  Grimme-D2 Dispersion energy=       -0.0077368520 Hartrees.
 Nuclear repulsion after empirical dispersion term =      739.2044846896 Hartrees.
 Leave Link  301 at Wed May  1 14:27:48 2024, MaxMem=  1207959552 cpu:               1.0 elap:               1.0
 (Enter /software/gaussian/g16-c01/sse4/g16/l302.exe)
 NPDir=0 NMtPBC=     1 NCelOv=     1 NCel=       1 NClECP=     1 NCelD=      1
         NCelK=      1 NCelE2=     1 NClLst=     1 CellRange=     0.0.
 One-electron integrals computed using PRISM.
 NBasis=   261 RedAO= T EigKep=  2.35D-06  NBF=   261
 NBsUse=   261 1.00D-06 EigRej= -1.00D+00 NBFU=   261
 Precomputing XC quadrature grid using
 IXCGrd= 4 IRadAn=           5 IRanWt=          -1 IRanGd=           0 AccXCQ= 0.00D+00.
 Generated NRdTot=       0 NPtTot=           0 NUsed=           0 NTot=          32
 NSgBfM=   273   273   273   273   273 MxSgAt=    15 MxSgA2=    15.
 Leave Link  302 at Wed May  1 14:28:10 2024, MaxMem=  1207959552 cpu:              21.6 elap:              21.6
 (Enter /software/gaussian/g16-c01/sse4/g16/l303.exe)
 DipDrv:  MaxL=1.
 The nuclear repulsion energy is now       735.1652952916 hartrees.
 Leave Link  303 at Wed May  1 14:28:13 2024, MaxMem=  1207959552 cpu:               3.5 elap:               3.5
 (Enter /software/gaussian/g16-c01/sse4/g16/l401.exe)
 ExpMin= 3.50D-02 ExpMax= 4.40D+05 ExpMxC= 1.51D+04 IAcc=3 IRadAn=         5 AccDes= 0.00D+00
 Harris functional with IExCor= 4639 and IRadAn=       5 diagonalized for initial guess.
 HarFok:  IExCor= 4639 AccDes= 0.00D+00 IRadAn=         5 IDoV= 1 UseB2=F ITyADJ=14
 ICtDFT=  3500011 ScaDFX=  1.000000  1.000000  1.000000  1.000000
 FoFCou: FMM=F IPFlag=           0 FMFlag=      100000 FMFlg1=           0
         NFxFlg=           0 DoJE=T BraDBF=F KetDBF=T FulRan=T
         wScrn=  0.000000 ICntrl=       500 IOpCl=  0 I1Cent=   200000004 NGrid=           0
         NMat0=    1 NMatS0=      1 NMatT0=    0 NMatD0=    1 NMtDS0=    0 NMtDT0=    0
 Symmetry not used in FoFCou.
 Harris En= -2971.21307101536    
 JPrj=0 DoOrth=F DoCkMO=F.
 Leave Link  401 at Wed May  1 14:28:44 2024, MaxMem=  1207959552 cpu:              30.8 elap:              30.8
 (Enter /software/gaussian/g16-c01/sse4/g16/l502.exe)
 Two-electron integral symmetry not used.
 Closed shell SCF:
 Using DIIS extrapolation, IDIIS=  1040.
 NGot=  1207959552 LenX=  1207804877 LenY=  1207729907
 Requested convergence on RMS density matrix=1.00D-08 within 128 cycles.
 Requested convergence on MAX density matrix=1.00D-06.
 Requested convergence on             energy=1.00D-06.
 No special actions if energy rises.
 Fock matrices will be formed incrementally for  20 cycles.

 Cycle   1  Pass 1  IDiag  1:
 FoFJK:  IHMeth= 1 ICntrl=       0 DoSepK=T KAlg= 0 I1Cent=           0 FoldK=F
 IRaf=         1 NMat=       1 IRICut=       1 DoRegI=T DoRafI=F ISym2E= 0 IDoP0=0 IntGTp=1.
 FoFCou: FMM=F IPFlag=           0 FMFlag=      100000 FMFlg1=           0
         NFxFlg=           0 DoJE=T BraDBF=F KetDBF=F FulRan=T
         wScrn=  0.000000 ICntrl=       500 IOpCl=  0 I1Cent=           0 NGrid=           0
         NMat0=    1 NMatS0=      1 NMatT0=    0 NMatD0=    1 NMtDS0=    0 NMtDT0=    0
 Symmetry not used in FoFCou.
 E= -3001.34127830105    
 DIIS: error= 3.19D-01 at cycle   1 NSaved=   1.
 NSaved= 1 IEnMin= 1 EnMin= -3001.34127830105     IErMin= 1 ErrMin= 3.19D-01
 ErrMax= 3.19D-01  0.00D+00 EMaxC= 1.00D-01 BMatC= 1.43D+01 BMatP= 1.43D+01
 IDIUse=3 WtCom= 0.00D+00 WtEn= 1.00D+00
 Coeff-Com:  0.100D+01
 Coeff-En:   0.100D+01
 Coeff:      0.100D+01
 Gap=     0.117 Goal=   None    Shift=    0.000
 GapD=    0.117 DampG=1.000 DampE=0.250 DampFc=0.2500 IDamp=-1.
 Damping current iteration by 2.50D-01
 RMSDP=1.06D+01 MaxDP=1.06D+03              OVMax= 9.96D-01

 Cycle   2  Pass 1  IDiag  1:
 RMSU=  1.97D-01    CP:  7.56D-01
 E= -3002.27229306867     Delta-E=       -0.931014767613 Rises=F Damp=T
 DIIS: error= 2.23D-01 at cycle   2 NSaved=   2.
 NSaved= 2 IEnMin= 2 EnMin= -3002.27229306867     IErMin= 2 ErrMin= 2.23D-01
 ErrMax= 2.23D-01  0.00D+00 EMaxC= 1.00D-01 BMatC= 6.32D+00 BMatP= 1.43D+01
 IDIUse=3 WtCom= 0.00D+00 WtEn= 1.00D+00
 Coeff-Com: -0.328D+00 0.133D+01
 Coeff-En:   0.447D+00 0.553D+00
 Coeff:      0.447D+00 0.553D+00
 Gap=     0.432 Goal=   None    Shift=    0.000
 RMSDP=8.12D+00 MaxDP=7.99D+02 DE=-9.31D-01 OVMax= 9.78D-01

 Cycle   3  Pass 1  IDiag  1:
 RMSU=  6.19D-02    CP:  4.01D-03  2.42D-01
 E= -2998.83558765293     Delta-E=        3.436705415735 Rises=F Damp=F
 DIIS: error= 1.42D-01 at cycle   3 NSaved=   3.
 NSaved= 3 IEnMin= 2 EnMin= -3002.27229306867     IErMin= 3 ErrMin= 1.42D-01
 ErrMax= 1.42D-01  0.00D+00 EMaxC= 1.00D-01 BMatC= 8.16D+00 BMatP= 6.32D+00
 IDIUse=2 WtCom= 0.00D+00 WtEn= 1.00D+00
 EnCoef did   100 forward-backward iterations
 Coeff-En:   0.539D+00 0.814D-02 0.453D+00
 Coeff:      0.539D+00 0.814D-02 0.453D+00
 Gap=    -0.203 Goal=   None    Shift=    0.000
 RMSDP=2.83D-02 MaxDP=1.71D+00 DE= 3.44D+00 OVMax= 7.86D-01

 Cycle   4  Pass 1  IDiag  1:
 RMSU=  2.62D-02    CP:  4.20D-03  1.99D-01  9.03D-01
 E= -3009.70635838280     Delta-E=      -10.870770729869 Rises=F Damp=F
 DIIS: error= 5.99D-02 at cycle   4 NSaved=   4.
 NSaved= 4 IEnMin= 4 EnMin= -3009.70635838280     IErMin= 4 ErrMin= 5.99D-02
 ErrMax= 5.99D-02  0.00D+00 EMaxC= 1.00D-01 BMatC= 1.15D+00 BMatP= 6.32D+00
 IDIUse=3 WtCom= 4.01D-01 WtEn= 5.99D-01
 Coeff-Com:  0.139D+00 0.515D-01 0.761D-01 0.733D+00
 Coeff-En:   0.455D-01 0.000D+00 0.000D+00 0.954D+00
 Coeff:      0.832D-01 0.206D-01 0.305D-01 0.866D+00
 Gap=     0.379 Goal=   None    Shift=    0.000
 RMSDP=4.00D-02 MaxDP=2.56D+00 DE=-1.09D+01 OVMax= 6.74D-01

 Cycle   5  Pass 1  IDiag  1:
 RMSU=  3.70D-02    CP:  4.05D-03  1.79D-01  6.67D-01  9.33D-01
 E= -3008.79118933139     Delta-E=        0.915169051413 Rises=F Damp=F
 DIIS: error= 6.87D-02 at cycle   5 NSaved=   5.
 NSaved= 5 IEnMin= 4 EnMin= -3009.70635838280     IErMin= 4 ErrMin= 5.99D-02
 ErrMax= 6.87D-02  0.00D+00 EMaxC= 1.00D-01 BMatC= 1.68D+00 BMatP= 1.15D+00
 IDIUse=2 WtCom= 0.00D+00 WtEn= 1.00D+00
 Coeff-En:   0.000D+00 0.000D+00 0.000D+00 0.670D+00 0.330D+00
 Coeff:      0.000D+00 0.000D+00 0.000D+00 0.670D+00 0.330D+00
 Gap=     0.075 Goal=   None    Shift=    0.000
 RMSDP=2.78D-02 MaxDP=2.70D+00 DE= 9.15D-01 OVMax= 8.56D-01

 Cycle   6  Pass 1  IDiag  1:
 RMSU=  1.77D-02    CP:  4.58D-03  1.36D-01  5.29D-01  8.17D-01  5.52D-01
 E= -3010.05602268359     Delta-E=       -1.264833352202 Rises=F Damp=F
 DIIS: error= 3.60D-02 at cycle   6 NSaved=   6.
 NSaved= 6 IEnMin= 6 EnMin= -3010.05602268359     IErMin= 6 ErrMin= 3.60D-02
 ErrMax= 3.60D-02  0.00D+00 EMaxC= 1.00D-01 BMatC= 4.28D-01 BMatP= 1.15D+00
 IDIUse=3 WtCom= 6.40D-01 WtEn= 3.60D-01
 EnCoef did     2 forward-backward iterations
 Coeff-Com: -0.270D-01 0.670D-01 0.340D-01 0.337D+00 0.171D+00 0.418D+00
 Coeff-En:   0.000D+00 0.000D+00 0.000D+00 0.343D+00 0.276D-01 0.630D+00
 Coeff:     -0.173D-01 0.429D-01 0.218D-01 0.339D+00 0.119D+00 0.494D+00
 Gap=     0.161 Goal=   None    Shift=    0.000
 RMSDP=1.73D-02 MaxDP=1.34D+00 DE=-1.26D+00 OVMax= 5.33D-01

 Cycle   7  Pass 1  IDiag  1:
 RMSU=  8.78D-03    CP:  3.52D-03  1.35D-01  5.54D-01  6.77D-01  3.94D-01
                    CP:  6.46D-01
 E= -3010.48440821556     Delta-E=       -0.428385531966 Rises=F Damp=F
 DIIS: error= 2.09D-02 at cycle   7 NSaved=   7.
 NSaved= 7 IEnMin= 7 EnMin= -3010.48440821556     IErMin= 7 ErrMin= 2.09D-02
 ErrMax= 2.09D-02  0.00D+00 EMaxC= 1.00D-01 BMatC= 8.72D-02 BMatP= 4.28D-01
 IDIUse=3 WtCom= 7.91D-01 WtEn= 2.09D-01
 Coeff-Com: -0.280D-01 0.343D-01-0.120D-02 0.128D+00 0.498D-01 0.295D+00
 Coeff-Com:  0.522D+00
 Coeff-En:   0.000D+00 0.000D+00 0.000D+00 0.000D+00 0.000D+00 0.873D-01
 Coeff-En:   0.913D+00
 Coeff:     -0.222D-01 0.271D-01-0.951D-03 0.101D+00 0.394D-01 0.252D+00
 Coeff:      0.603D+00
 Gap=     0.190 Goal=   None    Shift=    0.000
 RMSDP=7.73D-03 MaxDP=3.41D-01 DE=-4.28D-01 OVMax= 1.28D-01

 Cycle   8  Pass 1  IDiag  1:
 RMSU=  4.81D-03    CP:  3.89D-03  1.39D-01  5.34D-01  7.54D-01  4.16D-01
                    CP:  7.53D-01  6.35D-01
 E= -3010.53962562244     Delta-E=       -0.055217406883 Rises=F Damp=F
 DIIS: error= 8.55D-03 at cycle   8 NSaved=   8.
 NSaved= 8 IEnMin= 8 EnMin= -3010.53962562244     IErMin= 8 ErrMin= 8.55D-03
 ErrMax= 8.55D-03  0.00D+00 EMaxC= 1.00D-01 BMatC= 1.37D-02 BMatP= 8.72D-02
 IDIUse=3 WtCom= 9.14D-01 WtEn= 8.55D-02
 Coeff-Com:  0.439D-02-0.623D-02-0.543D-02-0.246D-03-0.972D-03-0.394D-02
 Coeff-Com:  0.288D+00 0.724D+00
 Coeff-En:   0.000D+00 0.000D+00 0.000D+00 0.000D+00 0.000D+00 0.000D+00
 Coeff-En:   0.819D-01 0.918D+00
 Coeff:      0.402D-02-0.570D-02-0.496D-02-0.225D-03-0.889D-03-0.360D-02
 Coeff:      0.271D+00 0.741D+00
 Gap=     0.188 Goal=   None    Shift=    0.000
 RMSDP=2.70D-03 MaxDP=1.62D-01 DE=-5.52D-02 OVMax= 9.83D-02

 Cycle   9  Pass 1  IDiag  1:
 RMSU=  1.36D-03    CP:  3.73D-03  1.37D-01  5.32D-01  7.27D-01  4.03D-01
                    CP:  7.15D-01  7.27D-01  8.83D-01
 E= -3010.55051103114     Delta-E=       -0.010885408704 Rises=F Damp=F
 DIIS: error= 5.98D-03 at cycle   9 NSaved=   9.
 NSaved= 9 IEnMin= 9 EnMin= -3010.55051103114     IErMin= 9 ErrMin= 5.98D-03
 ErrMax= 5.98D-03  0.00D+00 EMaxC= 1.00D-01 BMatC= 3.63D-03 BMatP= 1.37D-02
 IDIUse=3 WtCom= 9.40D-01 WtEn= 5.98D-02
 Coeff-Com:  0.570D-02-0.737D-02-0.344D-02-0.652D-02-0.727D-02-0.805D-02
 Coeff-Com:  0.122D+00 0.452D+00 0.452D+00
 Coeff-En:   0.000D+00 0.000D+00 0.000D+00 0.000D+00 0.000D+00 0.000D+00
 Coeff-En:   0.000D+00 0.000D+00 0.100D+01
 Coeff:      0.536D-02-0.693D-02-0.323D-02-0.613D-02-0.683D-02-0.757D-02
 Coeff:      0.115D+00 0.425D+00 0.485D+00
 Gap=     0.191 Goal=   None    Shift=    0.000
 RMSDP=8.37D-04 MaxDP=4.41D-02 DE=-1.09D-02 OVMax= 2.97D-02

 Cycle  10  Pass 1  IDiag  1:
 RMSU=  6.57D-04    CP:  3.73D-03  1.37D-01  5.31D-01  7.31D-01  4.00D-01
                    CP:  7.10D-01  7.03D-01  9.71D-01  9.68D-01
 E= -3010.55339807678     Delta-E=       -0.002887045636 Rises=F Damp=F
 DIIS: error= 2.40D-03 at cycle  10 NSaved=  10.
 NSaved=10 IEnMin=10 EnMin= -3010.55339807678     IErMin=10 ErrMin= 2.40D-03
 ErrMax= 2.40D-03  0.00D+00 EMaxC= 1.00D-01 BMatC= 9.71D-04 BMatP= 3.63D-03
 IDIUse=3 WtCom= 9.76D-01 WtEn= 2.40D-02
 Coeff-Com:  0.302D-02-0.438D-02-0.181D-02 0.559D-03-0.461D-02 0.887D-02
 Coeff-Com: -0.803D-01-0.844D-01 0.325D+00 0.838D+00
 Coeff-En:   0.000D+00 0.000D+00 0.000D+00 0.000D+00 0.000D+00 0.000D+00
 Coeff-En:   0.000D+00 0.000D+00 0.000D+00 0.100D+01
 Coeff:      0.295D-02-0.427D-02-0.176D-02 0.546D-03-0.450D-02 0.866D-02
 Coeff:     -0.784D-01-0.824D-01 0.317D+00 0.842D+00
 Gap=     0.184 Goal=   None    Shift=    0.000
 RMSDP=8.60D-04 MaxDP=3.14D-02 DE=-2.89D-03 OVMax= 2.83D-02

 Cycle  11  Pass 1  IDiag  1:
 RMSU=  3.88D-04    CP:  3.74D-03  1.38D-01  5.27D-01  7.34D-01  4.04D-01
                    CP:  7.18D-01  6.67D-01  1.03D+00  1.35D+00  9.98D-01
 E= -3010.55502108092     Delta-E=       -0.001623004141 Rises=F Damp=F
 DIIS: error= 9.73D-04 at cycle  11 NSaved=  11.
 NSaved=11 IEnMin=11 EnMin= -3010.55502108092     IErMin=11 ErrMin= 9.73D-04
 ErrMax= 9.73D-04  0.00D+00 EMaxC= 1.00D-01 BMatC= 1.85D-04 BMatP= 9.71D-04
 IDIUse=3 WtCom= 9.90D-01 WtEn= 9.73D-03
 Coeff-Com:  0.146D-02-0.193D-02-0.443D-03 0.267D-02-0.132D-02 0.510D-02
 Coeff-Com: -0.566D-01-0.104D+00-0.705D-01 0.851D-01 0.114D+01
 Coeff-En:   0.000D+00 0.000D+00 0.000D+00 0.000D+00 0.000D+00 0.000D+00
 Coeff-En:   0.000D+00 0.000D+00 0.000D+00 0.000D+00 0.100D+01
 Coeff:      0.145D-02-0.191D-02-0.439D-03 0.265D-02-0.131D-02 0.505D-02
 Coeff:     -0.560D-01-0.103D+00-0.698D-01 0.843D-01 0.114D+01
 Gap=     0.179 Goal=   None    Shift=    0.000
 RMSDP=7.15D-04 MaxDP=2.91D-02 DE=-1.62D-03 OVMax= 2.38D-02

 Cycle  12  Pass 1  IDiag  1:
 RMSU=  1.49D-04    CP:  3.73D-03  1.38D-01  5.23D-01  7.39D-01  4.06D-01
                    CP:  7.19D-01  6.29D-01  1.08D+00  1.60D+00  1.23D+00
                    CP:  1.81D+00
 E= -3010.55556073691     Delta-E=       -0.000539655986 Rises=F Damp=F
 DIIS: error= 2.76D-04 at cycle  12 NSaved=  12.
 NSaved=12 IEnMin=12 EnMin= -3010.55556073691     IErMin=12 ErrMin= 2.76D-04
 ErrMax= 2.76D-04  0.00D+00 EMaxC= 1.00D-01 BMatC= 2.81D-05 BMatP= 1.85D-04
 IDIUse=3 WtCom= 9.97D-01 WtEn= 2.76D-03
 Coeff-Com:  0.133D-03-0.593D-04-0.526D-04 0.816D-03 0.570D-03-0.453D-03
 Coeff-Com:  0.826D-02 0.148D-01-0.107D+00-0.244D+00 0.389D+00 0.938D+00
 Coeff-En:   0.000D+00 0.000D+00 0.000D+00 0.000D+00 0.000D+00 0.000D+00
 Coeff-En:   0.000D+00 0.000D+00 0.000D+00 0.000D+00 0.000D+00 0.100D+01
 Coeff:      0.133D-03-0.592D-04-0.524D-04 0.814D-03 0.569D-03-0.452D-03
 Coeff:      0.824D-02 0.147D-01-0.106D+00-0.244D+00 0.388D+00 0.938D+00
 Gap=     0.177 Goal=   None    Shift=    0.000
 RMSDP=3.54D-04 MaxDP=1.43D-02 DE=-5.40D-04 OVMax= 1.12D-02

 Cycle  13  Pass 1  IDiag  1:
 RMSU=  6.69D-05    CP:  3.73D-03  1.38D-01  5.21D-01  7.41D-01  4.08D-01
                    CP:  7.20D-01  6.08D-01  1.10D+00  1.70D+00  1.29D+00
                    CP:  2.27D+00  1.41D+00
 E= -3010.55565020320     Delta-E=       -0.000089466290 Rises=F Damp=F
 DIIS: error= 1.02D-04 at cycle  13 NSaved=  13.
 NSaved=13 IEnMin=13 EnMin= -3010.55565020320     IErMin=13 ErrMin= 1.02D-04
 ErrMax= 1.02D-04  0.00D+00 EMaxC= 1.00D-01 BMatC= 1.40D-06 BMatP= 2.81D-05
 IDIUse=3 WtCom= 9.99D-01 WtEn= 1.02D-03
 Coeff-Com:  0.261D-04-0.435D-04-0.388D-04-0.215D-03 0.159D-03-0.740D-03
 Coeff-Com:  0.552D-02 0.102D-01-0.986D-03-0.150D-01-0.359D-01 0.549D-01
 Coeff-Com:  0.982D+00
 Coeff-En:   0.000D+00 0.000D+00 0.000D+00 0.000D+00 0.000D+00 0.000D+00
 Coeff-En:   0.000D+00 0.000D+00 0.000D+00 0.000D+00 0.000D+00 0.000D+00
 Coeff-En:   0.100D+01
 Coeff:      0.261D-04-0.435D-04-0.387D-04-0.215D-03 0.159D-03-0.739D-03
 Coeff:      0.551D-02 0.102D-01-0.985D-03-0.150D-01-0.358D-01 0.548D-01
 Coeff:      0.982D+00
 Gap=     0.178 Goal=   None    Shift=    0.000
 RMSDP=7.57D-05 MaxDP=3.45D-03 DE=-8.95D-05 OVMax= 3.18D-03

 Cycle  14  Pass 1  IDiag  1:
 RMSU=  4.71D-05    CP:  3.73D-03  1.38D-01  5.21D-01  7.41D-01  4.09D-01
                    CP:  7.20D-01  6.08D-01  1.10D+00  1.72D+00  1.28D+00
                    CP:  2.30D+00  1.47D+00  1.35D+00
 E= -3010.55566177601     Delta-E=       -0.000011572816 Rises=F Damp=F
 DIIS: error= 7.39D-05 at cycle  14 NSaved=  14.
 NSaved=14 IEnMin=14 EnMin= -3010.55566177601     IErMin=14 ErrMin= 7.39D-05
 ErrMax= 7.39D-05  0.00D+00 EMaxC= 1.00D-01 BMatC= 7.74D-07 BMatP= 1.40D-06
 IDIUse=1 WtCom= 1.00D+00 WtEn= 0.00D+00
 Coeff-Com:  0.208D-04-0.471D-04-0.940D-05-0.213D-03 0.359D-04-0.441D-03
 Coeff-Com: -0.127D-03-0.113D-02 0.174D-01 0.399D-01-0.924D-01-0.190D+00
 Coeff-Com:  0.350D+00 0.877D+00
 Coeff:      0.208D-04-0.471D-04-0.940D-05-0.213D-03 0.359D-04-0.441D-03
 Coeff:     -0.127D-03-0.113D-02 0.174D-01 0.399D-01-0.924D-01-0.190D+00
 Coeff:      0.350D+00 0.877D+00
 Gap=     0.178 Goal=   None    Shift=    0.000
 RMSDP=7.55D-05 MaxDP=2.85D-03 DE=-1.16D-05 OVMax= 3.44D-03

 Cycle  15  Pass 1  IDiag  1:
 RMSU=  1.95D-05    CP:  3.73D-03  1.38D-01  5.21D-01  7.41D-01  4.09D-01
                    CP:  7.20D-01  6.05D-01  1.10D+00  1.74D+00  1.30D+00
                    CP:  2.36D+00  1.58D+00  1.85D+00  1.34D+00
 E= -3010.55566942587     Delta-E=       -0.000007649855 Rises=F Damp=F
 DIIS: error= 4.39D-05 at cycle  15 NSaved=  15.
 NSaved=15 IEnMin=15 EnMin= -3010.55566942587     IErMin=15 ErrMin= 4.39D-05
 ErrMax= 4.39D-05  0.00D+00 EMaxC= 1.00D-01 BMatC= 2.05D-07 BMatP= 7.74D-07
 IDIUse=1 WtCom= 1.00D+00 WtEn= 0.00D+00
 Coeff-Com:  0.385D-04-0.546D-04-0.332D-05 0.664D-04 0.278D-04-0.128D-03
 Coeff-Com: -0.191D-02-0.336D-02 0.565D-02 0.143D-01-0.196D-01-0.785D-01
 Coeff-Com: -0.197D+00 0.260D+00 0.102D+01
 Coeff:      0.385D-04-0.546D-04-0.332D-05 0.664D-04 0.278D-04-0.128D-03
 Coeff:     -0.191D-02-0.336D-02 0.565D-02 0.143D-01-0.196D-01-0.785D-01
 Coeff:     -0.197D+00 0.260D+00 0.102D+01
 Gap=     0.177 Goal=   None    Shift=    0.000
 RMSDP=5.50D-05 MaxDP=2.01D-03 DE=-7.65D-06 OVMax= 2.75D-03

 Cycle  16  Pass 1  IDiag  1:
 RMSU=  9.46D-06    CP:  3.73D-03  1.38D-01  5.21D-01  7.42D-01  4.09D-01
                    CP:  7.21D-01  6.02D-01  1.10D+00  1.77D+00  1.31D+00
                    CP:  2.41D+00  1.64D+00  2.20D+00  1.75D+00  1.75D+00
 E= -3010.55567301090     Delta-E=       -0.000003585029 Rises=F Damp=F
 DIIS: error= 2.40D-05 at cycle  16 NSaved=  16.
 NSaved=16 IEnMin=16 EnMin= -3010.55567301090     IErMin=16 ErrMin= 2.40D-05
 ErrMax= 2.40D-05  0.00D+00 EMaxC= 1.00D-01 BMatC= 4.86D-08 BMatP= 2.05D-07
 IDIUse=1 WtCom= 1.00D+00 WtEn= 0.00D+00
 Coeff-Com:  0.140D-04-0.140D-04-0.144D-05 0.107D-04-0.238D-04 0.224D-04
 Coeff-Com:  0.237D-03 0.689D-03-0.385D-02-0.104D-01 0.181D-01 0.504D-01
 Coeff-Com: -0.838D-01-0.189D+00-0.254D+00 0.147D+01
 Coeff:      0.140D-04-0.140D-04-0.144D-05 0.107D-04-0.238D-04 0.224D-04
 Coeff:      0.237D-03 0.689D-03-0.385D-02-0.104D-01 0.181D-01 0.504D-01
 Coeff:     -0.838D-01-0.189D+00-0.254D+00 0.147D+01
 Gap=     0.177 Goal=   None    Shift=    0.000
 RMSDP=4.40D-05 MaxDP=1.57D-03 DE=-3.59D-06 OVMax= 1.78D-03

 Cycle  17  Pass 1  IDiag  1:
 RMSU=  7.67D-06    CP:  3.73D-03  1.38D-01  5.21D-01  7.42D-01  4.10D-01
                    CP:  7.21D-01  6.01D-01  1.10D+00  1.78D+00  1.32D+00
                    CP:  2.44D+00  1.68D+00  2.47D+00  2.10D+00  2.57D+00
                    CP:  1.77D+00
 E= -3010.55567440113     Delta-E=       -0.000001390231 Rises=F Damp=F
 DIIS: error= 1.20D-05 at cycle  17 NSaved=  17.
 NSaved=17 IEnMin=17 EnMin= -3010.55567440113     IErMin=17 ErrMin= 1.20D-05
 ErrMax= 1.20D-05  0.00D+00 EMaxC= 1.00D-01 BMatC= 1.76D-08 BMatP= 4.86D-08
 IDIUse=1 WtCom= 1.00D+00 WtEn= 0.00D+00
 Coeff-Com:  0.274D-05-0.971D-06-0.253D-05-0.169D-04-0.686D-05 0.197D-04
 Coeff-Com:  0.615D-03 0.109D-02-0.219D-02-0.509D-02 0.726D-02 0.312D-01
 Coeff-Com:  0.321D-01-0.579D-01-0.415D+00 0.358D+00 0.105D+01
 Coeff:      0.274D-05-0.971D-06-0.253D-05-0.169D-04-0.686D-05 0.197D-04
 Coeff:      0.615D-03 0.109D-02-0.219D-02-0.509D-02 0.726D-02 0.312D-01
 Coeff:      0.321D-01-0.579D-01-0.415D+00 0.358D+00 0.105D+01
 Gap=     0.177 Goal=   None    Shift=    0.000
 RMSDP=1.90D-05 MaxDP=8.27D-04 DE=-1.39D-06 OVMax= 9.72D-04

 Cycle  18  Pass 1  IDiag  1:
 RMSU=  2.69D-06    CP:  3.73D-03  1.38D-01  5.21D-01  7.42D-01  4.10D-01
                    CP:  7.21D-01  6.00D-01  1.10D+00  1.79D+00  1.33D+00
                    CP:  2.46D+00  1.69D+00  2.57D+00  2.26D+00  2.91D+00
                    CP:  2.27D+00  1.70D+00
 E= -3010.55567468412     Delta-E=       -0.000000282997 Rises=F Damp=F
 DIIS: error= 7.76D-06 at cycle  18 NSaved=  18.
 NSaved=18 IEnMin=18 EnMin= -3010.55567468412     IErMin=18 ErrMin= 7.76D-06
 ErrMax= 7.76D-06  0.00D+00 EMaxC= 1.00D-01 BMatC= 4.90D-09 BMatP= 1.76D-08
 IDIUse=1 WtCom= 1.00D+00 WtEn= 0.00D+00
 Coeff-Com: -0.153D-05-0.108D-05 0.214D-05-0.130D-04 0.218D-05 0.295D-04
 Coeff-Com:  0.213D-03 0.265D-03 0.395D-03 0.156D-02-0.330D-02-0.220D-02
 Coeff-Com:  0.374D-01 0.495D-01-0.107D+00-0.290D+00 0.325D+00 0.988D+00
 Coeff:     -0.153D-05-0.108D-05 0.214D-05-0.130D-04 0.218D-05 0.295D-04
 Coeff:      0.213D-03 0.265D-03 0.395D-03 0.156D-02-0.330D-02-0.220D-02
 Coeff:      0.374D-01 0.495D-01-0.107D+00-0.290D+00 0.325D+00 0.988D+00
 Gap=     0.177 Goal=   None    Shift=    0.000
 RMSDP=1.02D-05 MaxDP=5.54D-04 DE=-2.83D-07 OVMax= 5.34D-04

 Cycle  19  Pass 1  IDiag  1:
 RMSU=  2.94D-06    CP:  3.73D-03  1.38D-01  5.21D-01  7.42D-01  4.10D-01
                    CP:  7.21D-01  6.00D-01  1.10D+00  1.79D+00  1.33D+00
                    CP:  2.47D+00  1.70D+00  2.63D+00  2.33D+00  3.00D+00
                    CP:  2.45D+00  2.29D+00  1.53D+00
 E= -3010.55567475632     Delta-E=       -0.000000072191 Rises=F Damp=F
 DIIS: error= 4.26D-06 at cycle  19 NSaved=  19.
 NSaved=19 IEnMin=19 EnMin= -3010.55567475632     IErMin=19 ErrMin= 4.26D-06
 ErrMax= 4.26D-06  0.00D+00 EMaxC= 1.00D-01 BMatC= 1.28D-09 BMatP= 4.90D-09
 IDIUse=1 WtCom= 1.00D+00 WtEn= 0.00D+00
 Coeff-Com: -0.302D-05 0.277D-05 0.196D-05-0.978D-06 0.984D-06 0.124D-04
 Coeff-Com: -0.798D-04-0.187D-03 0.455D-03 0.104D-02-0.137D-02-0.522D-02
 Coeff-Com: -0.336D-02 0.189D-01 0.650D-01-0.101D+00-0.197D+00 0.265D+00
 Coeff-Com:  0.958D+00
 Coeff:     -0.302D-05 0.277D-05 0.196D-05-0.978D-06 0.984D-06 0.124D-04
 Coeff:     -0.798D-04-0.187D-03 0.455D-03 0.104D-02-0.137D-02-0.522D-02
 Coeff:     -0.336D-02 0.189D-01 0.650D-01-0.101D+00-0.197D+00 0.265D+00
 Coeff:      0.958D+00
 Gap=     0.177 Goal=   None    Shift=    0.000
 RMSDP=3.48D-06 MaxDP=2.31D-04 DE=-7.22D-08 OVMax= 1.81D-04

 Cycle  20  Pass 1  IDiag  1:
 RMSU=  6.58D-07    CP:  3.73D-03  1.38D-01  5.21D-01  7.42D-01  4.10D-01
                    CP:  7.21D-01  6.00D-01  1.10D+00  1.79D+00  1.33D+00
                    CP:  2.47D+00  1.71D+00  2.64D+00  2.36D+00  3.00D+00
                    CP:  2.47D+00  2.51D+00  1.97D+00  1.39D+00
 E= -3010.55567477075     Delta-E=       -0.000000014436 Rises=F Damp=F
 DIIS: error= 1.98D-06 at cycle  20 NSaved=  20.
 NSaved=20 IEnMin=20 EnMin= -3010.55567477075     IErMin=20 ErrMin= 1.98D-06
 ErrMax= 1.98D-06  0.00D+00 EMaxC= 1.00D-01 BMatC= 6.24D-10 BMatP= 1.28D-09
 IDIUse=1 WtCom= 1.00D+00 WtEn= 0.00D+00
 Coeff-Com: -0.321D-05 0.523D-05 0.796D-06 0.440D-05-0.111D-05 0.544D-06
 Coeff-Com: -0.638D-04-0.132D-03-0.223D-04-0.196D-03 0.141D-02 0.359D-03
 Coeff-Com: -0.102D-01-0.134D-01 0.456D-01 0.415D-01-0.121D+00-0.188D+00
 Coeff-Com:  0.193D+00 0.105D+01
 Coeff:     -0.321D-05 0.523D-05 0.796D-06 0.440D-05-0.111D-05 0.544D-06
 Coeff:     -0.638D-04-0.132D-03-0.223D-04-0.196D-03 0.141D-02 0.359D-03
 Coeff:     -0.102D-01-0.134D-01 0.456D-01 0.415D-01-0.121D+00-0.188D+00
 Coeff:      0.193D+00 0.105D+01
 Gap=     0.177 Goal=   None    Shift=    0.000
 RMSDP=2.44D-06 MaxDP=1.42D-04 DE=-1.44D-08 OVMax= 1.13D-04

 Cycle  21  Pass 1  IDiag  1:
 Restarting incremental Fock formation.
 E= -3010.55567477558     Delta-E=       -0.000000004828 Rises=F Damp=F
 DIIS: error= 1.02D-06 at cycle  21 NSaved=  20.
 NSaved=20 IEnMin=20 EnMin= -3010.55567477558     IErMin=20 ErrMin= 1.02D-06
 ErrMax= 1.02D-06  0.00D+00 EMaxC= 1.00D-01 BMatC= 3.64D-10 BMatP= 6.24D-10
 IDIUse=1 WtCom= 1.00D+00 WtEn= 0.00D+00
 Coeff-Com: -0.270D-05 0.450D-05 0.135D-05-0.264D-05-0.280D-05 0.898D-05
 Coeff-Com: -0.516D-05-0.173D-03-0.342D-03 0.139D-02 0.198D-02-0.308D-02
 Coeff-Com: -0.135D-01 0.218D-02 0.247D-01 0.441D-01-0.107D+00-0.219D+00
 Coeff-Com:  0.396D+00 0.872D+00
 Coeff:     -0.270D-05 0.450D-05 0.135D-05-0.264D-05-0.280D-05 0.898D-05
 Coeff:     -0.516D-05-0.173D-03-0.342D-03 0.139D-02 0.198D-02-0.308D-02
 Coeff:     -0.135D-01 0.218D-02 0.247D-01 0.441D-01-0.107D+00-0.219D+00
 Coeff:      0.396D+00 0.872D+00
 Gap=     0.177 Goal=   None    Shift=    0.000
 RMSDP=1.08D-06 MaxDP=5.24D-05 DE=-4.83D-09 OVMax= 4.05D-05

 Cycle  22  Pass 1  IDiag  1:
 RMSU=  1.07D-06    CP:  1.00D+00
 E= -3010.55567477672     Delta-E=       -0.000000001145 Rises=F Damp=F
 DIIS: error= 5.81D-07 at cycle  22 NSaved=  20.
 NSaved=20 IEnMin=20 EnMin= -3010.55567477672     IErMin=20 ErrMin= 5.81D-07
 ErrMax= 5.81D-07  0.00D+00 EMaxC= 1.00D-01 BMatC= 1.03D-10 BMatP= 3.64D-10
 IDIUse=1 WtCom= 1.00D+00 WtEn= 0.00D+00
 Coeff-Com: -0.434D-07-0.883D-06-0.509D-06-0.408D-05 0.189D-04 0.220D-04
 Coeff-Com: -0.701D-05 0.126D-03-0.221D-03-0.185D-03 0.301D-02 0.132D-02
 Coeff-Com: -0.461D-02-0.337D-01 0.528D-01 0.741D-01-0.732D-01-0.332D+00
 Coeff-Com: -0.216D+00 0.153D+01
 Coeff:     -0.434D-07-0.883D-06-0.509D-06-0.408D-05 0.189D-04 0.220D-04
 Coeff:     -0.701D-05 0.126D-03-0.221D-03-0.185D-03 0.301D-02 0.132D-02
 Coeff:     -0.461D-02-0.337D-01 0.528D-01 0.741D-01-0.732D-01-0.332D+00
 Coeff:     -0.216D+00 0.153D+01
 Gap=     0.177 Goal=   None    Shift=    0.000
 RMSDP=9.96D-07 MaxDP=4.89D-05 DE=-1.15D-09 OVMax= 4.46D-05

 Cycle  23  Pass 1  IDiag  1:
 RMSU=  3.30D-07    CP:  1.00D+00  1.87D+00
 E= -3010.55567477720     Delta-E=       -0.000000000480 Rises=F Damp=F
 DIIS: error= 1.20D-07 at cycle  23 NSaved=  20.
 NSaved=20 IEnMin=20 EnMin= -3010.55567477720     IErMin=20 ErrMin= 1.20D-07
 ErrMax= 1.20D-07  0.00D+00 EMaxC= 1.00D-01 BMatC= 6.34D-12 BMatP= 1.03D-10
 IDIUse=1 WtCom= 1.00D+00 WtEn= 0.00D+00
 Coeff-Com:  0.126D-06 0.331D-06-0.129D-05 0.545D-05 0.459D-05-0.115D-04
 Coeff-Com: -0.236D-04-0.922D-04 0.386D-04 0.704D-03-0.311D-03 0.240D-03
 Coeff-Com: -0.694D-02 0.588D-02 0.105D-01 0.777D-02-0.525D-01-0.158D+00
 Coeff-Com:  0.309D+00 0.884D+00
 Coeff:      0.126D-06 0.331D-06-0.129D-05 0.545D-05 0.459D-05-0.115D-04
 Coeff:     -0.236D-04-0.922D-04 0.386D-04 0.704D-03-0.311D-03 0.240D-03
 Coeff:     -0.694D-02 0.588D-02 0.105D-01 0.777D-02-0.525D-01-0.158D+00
 Coeff:      0.309D+00 0.884D+00
 Gap=     0.177 Goal=   None    Shift=    0.000
 RMSDP=2.66D-07 MaxDP=1.01D-05 DE=-4.80D-10 OVMax= 1.07D-05

 Cycle  24  Pass 1  IDiag  1:
 RMSU=  1.33D-07    CP:  1.00D+00  1.95D+00  1.65D+00
 E= -3010.55567477727     Delta-E=       -0.000000000068 Rises=F Damp=F
 DIIS: error= 7.85D-08 at cycle  24 NSaved=  20.
 NSaved=20 IEnMin=20 EnMin= -3010.55567477727     IErMin=20 ErrMin= 7.85D-08
 ErrMax= 7.85D-08  0.00D+00 EMaxC= 1.00D-01 BMatC= 1.36D-12 BMatP= 6.34D-12
 IDIUse=1 WtCom= 1.00D+00 WtEn= 0.00D+00
 Coeff-Com: -0.137D-06 0.628D-06-0.350D-05-0.593D-05 0.126D-04 0.199D-04
 Coeff-Com: -0.593D-04-0.988D-04-0.958D-04 0.348D-03 0.113D-02-0.597D-04
 Coeff-Com: -0.511D-02-0.190D-02 0.218D-01 0.233D-01-0.426D-01-0.149D+00
 Coeff-Com:  0.141D+00 0.101D+01
 Coeff:     -0.137D-06 0.628D-06-0.350D-05-0.593D-05 0.126D-04 0.199D-04
 Coeff:     -0.593D-04-0.988D-04-0.958D-04 0.348D-03 0.113D-02-0.597D-04
 Coeff:     -0.511D-02-0.190D-02 0.218D-01 0.233D-01-0.426D-01-0.149D+00
 Coeff:      0.141D+00 0.101D+01
 Gap=     0.177 Goal=   None    Shift=    0.000
 RMSDP=1.05D-07 MaxDP=5.35D-06 DE=-6.82D-11 OVMax= 3.09D-06

 Cycle  25  Pass 1  IDiag  1:
 RMSU=  4.16D-08    CP:  1.00D+00  2.00D+00  1.90D+00  1.16D+00
 E= -3010.55567477729     Delta-E=       -0.000000000013 Rises=F Damp=F
 DIIS: error= 4.77D-08 at cycle  25 NSaved=  20.
 NSaved=20 IEnMin=20 EnMin= -3010.55567477729     IErMin=20 ErrMin= 4.77D-08
 ErrMax= 4.77D-08  0.00D+00 EMaxC= 1.00D-01 BMatC= 1.49D-13 BMatP= 1.36D-12
 IDIUse=1 WtCom= 1.00D+00 WtEn= 0.00D+00
 Coeff-Com:  0.834D-07 0.457D-06 0.198D-05-0.291D-05-0.395D-05 0.169D-04
 Coeff-Com:  0.331D-04-0.544D-04-0.412D-04-0.202D-03 0.931D-03 0.331D-03
 Coeff-Com: -0.217D-02-0.538D-02 0.485D-02 0.279D-01-0.157D-01-0.123D+00
 Coeff-Com: -0.161D+00 0.127D+01
 Coeff:      0.834D-07 0.457D-06 0.198D-05-0.291D-05-0.395D-05 0.169D-04
 Coeff:      0.331D-04-0.544D-04-0.412D-04-0.202D-03 0.931D-03 0.331D-03
 Coeff:     -0.217D-02-0.538D-02 0.485D-02 0.279D-01-0.157D-01-0.123D+00
 Coeff:     -0.161D+00 0.127D+01
 Gap=     0.177 Goal=   None    Shift=    0.000
 RMSDP=4.58D-08 MaxDP=3.71D-06 DE=-1.27D-11 OVMax= 2.24D-06

 Cycle  26  Pass 1  IDiag  1:
 RMSU=  2.31D-08    CP:  1.00D+00  2.01D+00  1.95D+00  1.28D+00  1.45D+00
 E= -3010.55567477733     Delta-E=       -0.000000000047 Rises=F Damp=F
 DIIS: error= 2.82D-08 at cycle  26 NSaved=  20.
 NSaved=20 IEnMin=20 EnMin= -3010.55567477733     IErMin=20 ErrMin= 2.82D-08
 ErrMax= 2.82D-08  0.00D+00 EMaxC= 1.00D-01 BMatC= 4.98D-14 BMatP= 1.49D-13
 IDIUse=1 WtCom= 1.00D+00 WtEn= 0.00D+00
 Coeff-Com:  0.710D-06 0.158D-05-0.240D-05-0.179D-05 0.803D-05 0.201D-04
 Coeff-Com:  0.419D-04-0.320D-04-0.452D-03 0.221D-03 0.110D-02 0.807D-03
 Coeff-Com: -0.486D-02-0.557D-02 0.941D-02 0.248D-01-0.325D-01-0.164D+00
 Coeff-Com: -0.130D-02 0.117D+01
 Coeff:      0.710D-06 0.158D-05-0.240D-05-0.179D-05 0.803D-05 0.201D-04
 Coeff:      0.419D-04-0.320D-04-0.452D-03 0.221D-03 0.110D-02 0.807D-03
 Coeff:     -0.486D-02-0.557D-02 0.941D-02 0.248D-01-0.325D-01-0.164D+00
 Coeff:     -0.130D-02 0.117D+01
 Gap=     0.177 Goal=   None    Shift=    0.000
 RMSDP=3.18D-08 MaxDP=2.57D-06 DE=-4.73D-11 OVMax= 1.47D-06

 Cycle  27  Pass 1  IDiag  1:
 RMSU=  9.97D-09    CP:  1.00D+00  2.01D+00  1.97D+00  1.31D+00  1.69D+00
                    CP:  1.91D+00
 E= -3010.55567477730     Delta-E=        0.000000000029 Rises=F Damp=F
 DIIS: error= 1.76D-08 at cycle  27 NSaved=  20.
 NSaved=20 IEnMin=19 EnMin= -3010.55567477733     IErMin=20 ErrMin= 1.76D-08
 ErrMax= 1.76D-08  0.00D+00 EMaxC= 1.00D-01 BMatC= 1.84D-14 BMatP= 4.98D-14
 IDIUse=1 WtCom= 1.00D+00 WtEn= 0.00D+00
 Coeff-Com: -0.281D-06-0.368D-06-0.802D-06 0.639D-06 0.160D-05 0.227D-04
 Coeff-Com: -0.172D-04-0.105D-03-0.332D-04 0.805D-04 0.725D-03-0.109D-03
 Coeff-Com: -0.282D-02-0.488D-02 0.976D-02 0.357D-01 0.202D-01-0.528D+00
 Coeff-Com:  0.333D+00 0.114D+01
 Coeff:     -0.281D-06-0.368D-06-0.802D-06 0.639D-06 0.160D-05 0.227D-04
 Coeff:     -0.172D-04-0.105D-03-0.332D-04 0.805D-04 0.725D-03-0.109D-03
 Coeff:     -0.282D-02-0.488D-02 0.976D-02 0.357D-01 0.202D-01-0.528D+00
 Coeff:      0.333D+00 0.114D+01
 Gap=     0.177 Goal=   None    Shift=    0.000
 RMSDP=2.53D-08 MaxDP=2.02D-06 DE= 2.91D-11 OVMax= 1.22D-06

 Cycle  28  Pass 1  IDiag  1:
 RMSU=  3.49D-09    CP:  1.00D+00  2.02D+00  1.97D+00  1.32D+00  1.86D+00
                    CP:  2.67D+00  1.77D+00
 E= -3010.55567477724     Delta-E=        0.000000000065 Rises=F Damp=F
 DIIS: error= 5.74D-09 at cycle  28 NSaved=  20.
 NSaved=20 IEnMin=18 EnMin= -3010.55567477733     IErMin=20 ErrMin= 5.74D-09
 ErrMax= 5.74D-09  0.00D+00 EMaxC= 1.00D-01 BMatC= 2.98D-15 BMatP= 1.84D-14
 IDIUse=1 WtCom= 1.00D+00 WtEn= 0.00D+00
 Large coefficients: NSaved= 20 BigCof=    0.00 CofMax=   10.00 Det=-5.04D-15
 Inversion failed.  Reducing to 19 matrices.
 Large coefficients: NSaved= 19 BigCof=    0.00 CofMax=   10.00 Det=-5.07D-15
 Inversion failed.  Reducing to 18 matrices.
 Large coefficients: NSaved= 18 BigCof=    0.00 CofMax=   10.00 Det=-5.13D-15
 Inversion failed.  Reducing to 17 matrices.
 Large coefficients: NSaved= 17 BigCof=    0.00 CofMax=   10.00 Det=-5.13D-15
 Inversion failed.  Reducing to 16 matrices.
 Large coefficients: NSaved= 16 BigCof=    0.00 CofMax=   10.00 Det=-5.13D-15
 Inversion failed.  Reducing to 15 matrices.
 Coeff-Com:  0.918D-05-0.105D-04-0.875D-04 0.652D-04 0.180D-03 0.174D-03
 Coeff-Com: -0.377D-04 0.838D-03-0.281D-02-0.271D-02 0.138D-01 0.444D-01
 Coeff-Com: -0.253D+00 0.861D-01 0.111D+01
 Coeff:      0.918D-05-0.105D-04-0.875D-04 0.652D-04 0.180D-03 0.174D-03
 Coeff:     -0.377D-04 0.838D-03-0.281D-02-0.271D-02 0.138D-01 0.444D-01
 Coeff:     -0.253D+00 0.861D-01 0.111D+01
 Gap=     0.177 Goal=   None    Shift=    0.000
 RMSDP=8.53D-09 MaxDP=6.20D-07 DE= 6.46D-11 OVMax= 3.27D-07

 SCF Done:  E(RwB97XD) =  -3010.55567478     A.U. after   28 cycles
            NFock= 28  Conv=0.85D-08     -V/T= 2.0016
 KE= 3.005854789687D+03 PE=-8.628181705807D+03 EE= 1.876605946051D+03
 Leave Link  502 at Wed May  1 14:56:02 2024, MaxMem=  1207959552 cpu:            1637.7 elap:            1638.1
 (Enter /software/gaussian/g16-c01/sse4/g16/l601.exe)
 Copying SCF densities to generalized density rwf, IOpCl= 0 IROHF=0.

 **********************************************************************

            Population analysis using the SCF Density.

 **********************************************************************

 Alpha  occ. eigenvalues -- -483.29910 -62.84961 -56.64611 -56.64101 -56.64095
 Alpha  occ. eigenvalues --  -19.35371 -19.35312 -14.74877 -10.56486 -10.54353
 Alpha  occ. eigenvalues --  -10.53397 -10.52479 -10.51774 -10.50963  -9.00787
 Alpha  occ. eigenvalues --   -6.83344  -6.81664  -6.81641  -2.93277  -2.92830
 Alpha  occ. eigenvalues --   -2.92811  -2.91466  -2.91466  -1.39008  -1.21873
 Alpha  occ. eigenvalues --   -1.19291  -1.10648  -1.08135  -1.02229  -0.95328
 Alpha  occ. eigenvalues --   -0.92118  -0.86603  -0.81042  -0.76777  -0.75694
 Alpha  occ. eigenvalues --   -0.73256  -0.71983  -0.70499  -0.68555  -0.66043
 Alpha  occ. eigenvalues --   -0.65792  -0.63259  -0.60478  -0.57467  -0.55569
 Alpha  occ. eigenvalues --   -0.52856  -0.46062  -0.44512  -0.44502
 Alpha virt. eigenvalues --   -0.26764  -0.15807  -0.15088  -0.13463  -0.11063
 Alpha virt. eigenvalues --   -0.09121  -0.07835  -0.06846  -0.03941  -0.03481
 Alpha virt. eigenvalues --   -0.02504  -0.01173  -0.00281   0.00179   0.01048
 Alpha virt. eigenvalues --    0.02400   0.03156   0.03285   0.04104   0.04570
 Alpha virt. eigenvalues --    0.05603   0.07333   0.08280   0.08422   0.09423
 Alpha virt. eigenvalues --    0.10010   0.10665   0.11877   0.12127   0.13056
 Alpha virt. eigenvalues --    0.14501   0.15257   0.15575   0.16517   0.17362
 Alpha virt. eigenvalues --    0.18328   0.19340   0.19838   0.21480   0.22718
 Alpha virt. eigenvalues --    0.23247   0.23960   0.25714   0.26005   0.27831
 Alpha virt. eigenvalues --    0.29275   0.30194   0.30706   0.31281   0.31784
 Alpha virt. eigenvalues --    0.32793   0.33292   0.35059   0.35914   0.37098
 Alpha virt. eigenvalues --    0.37910   0.39126   0.39640   0.41156   0.41888
 Alpha virt. eigenvalues --    0.43244   0.44241   0.44658   0.46353   0.47184
 Alpha virt. eigenvalues --    0.48908   0.49221   0.50204   0.50609   0.52111
 Alpha virt. eigenvalues --    0.53583   0.53894   0.54370   0.56094   0.57507
 Alpha virt. eigenvalues --    0.59379   0.59960   0.60874   0.62787   0.64313
 Alpha virt. eigenvalues --    0.65158   0.66560   0.67113   0.68975   0.70018
 Alpha virt. eigenvalues --    0.72899   0.74320   0.75868   0.76580   0.78240
 Alpha virt. eigenvalues --    0.81294   0.84251   0.86618   0.88361   0.89042
 Alpha virt. eigenvalues --    0.90010   0.94213   0.97268   1.00237   1.05555
 Alpha virt. eigenvalues --    1.06054   1.08611   1.09300   1.11202   1.12994
 Alpha virt. eigenvalues --    1.15432   1.18720   1.22756   1.23676   1.26501
 Alpha virt. eigenvalues --    1.30581   1.32743   1.34419   1.36979   1.40366
 Alpha virt. eigenvalues --    1.40998   1.41435   1.48506   1.58826   1.61565
 Alpha virt. eigenvalues --    1.62903   1.63150   1.67267   1.69067   1.70164
 Alpha virt. eigenvalues --    1.73895   1.76565   1.76925   1.82006   1.83249
 Alpha virt. eigenvalues --    1.84550   1.91478   1.92355   1.94775   1.97425
 Alpha virt. eigenvalues --    2.03146   2.07291   2.08408   2.11071   2.12262
 Alpha virt. eigenvalues --    2.13667   2.18320   2.24024   2.28612   2.32867
 Alpha virt. eigenvalues --    2.41638   2.47133   2.48399   2.49889   2.55893
 Alpha virt. eigenvalues --    2.60085   2.67067   2.70011   2.72392   2.78732
 Alpha virt. eigenvalues --    2.82510   2.84035   2.85966   2.86860   2.91890
 Alpha virt. eigenvalues --    2.96616   3.00155   3.08467   3.11337   3.13581
 Alpha virt. eigenvalues --    3.16566   3.19422   3.23325   3.28130   3.33697
 Alpha virt. eigenvalues --    3.38371   3.45329   3.50920   3.57055   3.61109
 Alpha virt. eigenvalues --    3.66231   3.80172   3.84767   3.85940   3.91186
 Alpha virt. eigenvalues --    4.09949   4.10193   4.17971   4.23089   4.44002
 Alpha virt. eigenvalues --    4.55445   4.60912   4.69331   5.04361   5.07138
 Alpha virt. eigenvalues --    5.15764   5.19920   5.73483   6.26850   6.65719
 Alpha virt. eigenvalues --    7.48620   7.50195   7.60133  23.24579  23.64705
 Alpha virt. eigenvalues --   23.71748  23.83260  23.98922  24.05681  35.43061
 Alpha virt. eigenvalues --   47.92447  49.96116  50.04929 289.81804 289.83471
 Alpha virt. eigenvalues --  289.959471020.92912
          Condensed to atoms (all electrons):
               1          2          3          4          5          6
     1  C   11.054588  -3.855178   0.295632  -2.441196  -1.184049   0.296987
     2  C   -3.855178  15.359532  -2.656276  -1.297102   0.448493   0.032014
     3  C    0.295632  -2.656276  14.837349  -4.785797  -1.394313   0.029398
     4  C   -2.441196  -1.297102  -4.785797  18.815887   0.994133   0.014812
     5  C   -1.184049   0.448493  -1.394313   0.994133   9.660959  -0.027037
     6  H    0.296987   0.032014   0.029398   0.014812  -0.027037   0.382145
     7  H    0.120027   0.164597   0.074331  -0.041684  -0.015580  -0.001704
     8  H    0.013934  -0.031427   0.106490   0.144011  -0.038486  -0.000004
     9  H    0.087675  -0.067174   0.026312  -0.028153   0.209303  -0.003944
    10  N   -0.303897   0.489045  -1.018524   0.478855  -0.011984  -0.000713
    11  O   -0.007907  -0.172341  -0.251826   0.051473  -0.083365  -0.000030
    12  O    0.484017  -0.036610  -0.248207  -0.237856  -0.045926   0.000122
    13  C    1.972066  -2.862088   1.666382  -5.960095  -2.497875  -0.010193
    14  H   -0.043006   0.028542  -0.020573  -0.093683   0.118228  -0.000020
    15  Br   0.020959   0.061428  -0.049533   0.059444  -0.095263  -0.000184
               7          8          9         10         11         12
     1  C    0.120027   0.013934   0.087675  -0.303897  -0.007907   0.484017
     2  C    0.164597  -0.031427  -0.067174   0.489045  -0.172341  -0.036610
     3  C    0.074331   0.106490   0.026312  -1.018524  -0.251826  -0.248207
     4  C   -0.041684   0.144011  -0.028153   0.478855   0.051473  -0.237856
     5  C   -0.015580  -0.038486   0.209303  -0.011984  -0.083365  -0.045926
     6  H   -0.001704  -0.000004  -0.003944  -0.000713  -0.000030   0.000122
     7  H    0.271613   0.000018   0.000051  -0.029816  -0.001660   0.035496
     8  H    0.000018   0.265758   0.000112  -0.026555   0.033432  -0.000574
     9  H    0.000051   0.000112   0.439062   0.000164   0.000020   0.000015
    10  N   -0.029816  -0.026555   0.000164   7.848517   0.000740  -0.028456
    11  O   -0.001660   0.033432   0.000020   0.000740   7.845245   0.022321
    12  O    0.035496  -0.000574   0.000015  -0.028456   0.022321   7.878815
    13  C    0.022274   0.122392   0.095346  -0.287488   0.426786   0.038673
    14  H   -0.000029  -0.002484  -0.008440   0.001751  -0.000510  -0.000091
    15  Br   0.000141   0.009378   0.002621   0.011932  -0.000342   0.002232
              13         14         15
     1  C    1.972066  -0.043006   0.020959
     2  C   -2.862088   0.028542   0.061428
     3  C    1.666382  -0.020573  -0.049533
     4  C   -5.960095  -0.093683   0.059444
     5  C   -2.497875   0.118228  -0.095263
     6  H   -0.010193  -0.000020  -0.000184
     7  H    0.022274  -0.000029   0.000141
     8  H    0.122392  -0.002484   0.009378
     9  H    0.095346  -0.008440   0.002621
    10  N   -0.287488   0.001751   0.011932
    11  O    0.426786  -0.000510  -0.000342
    12  O    0.038673  -0.000091   0.002232
    13  C   13.316714   0.324502   0.116742
    14  H    0.324502   0.381479  -0.054522
    15  Br   0.116742  -0.054522  34.854184
 Mulliken charges:
               1
     1  C   -0.510653
     2  C    0.394546
     3  C   -0.610847
     4  C    0.326951
     5  C   -0.037239
     6  H    0.288353
     7  H    0.401926
     8  H    0.404005
     9  H    0.247029
    10  N   -0.123569
    11  O    0.137961
    12  O    0.136030
    13  C   -0.484137
    14  H    0.368858
    15  Br   0.060785
 Sum of Mulliken charges =   1.00000
 Mulliken charges with hydrogens summed into heavy atoms:
               1
     1  C   -0.222300
     2  C    0.796472
     3  C   -0.610847
     4  C    0.730955
     5  C    0.209790
    10  N   -0.123569
    11  O    0.137961
    12  O    0.136030
    13  C   -0.115279
    15  Br   0.060785
 Electronic spatial extent (au):  <R**2>=           2788.8706
 Charge=              1.0000 electrons
 Dipole moment (field-independent basis, Debye):
    X=              5.8358    Y=              0.1324    Z=              0.4985  Tot=              5.8585
 Quadrupole moment (field-independent basis, Debye-Ang):
   XX=            -55.8128   YY=            -52.8753   ZZ=            -64.3850
   XY=              0.1083   XZ=             -0.6173   YZ=              0.1674
 Traceless Quadrupole moment (field-independent basis, Debye-Ang):
   XX=              1.8782   YY=              4.8157   ZZ=             -6.6939
   XY=              0.1083   XZ=             -0.6173   YZ=              0.1674
 Octapole moment (field-independent basis, Debye-Ang**2):
  XXX=           -207.3109  YYY=             93.1460  ZZZ=             81.6041  XYY=            -60.7358
  XXY=             33.2768  XXZ=             32.9188  XZZ=            -70.8867  YZZ=             20.0301
  YYZ=             28.8003  XYZ=             -0.2114
 Hexadecapole moment (field-independent basis, Debye-Ang**3):
 XXXX=          -1896.3364 YYYY=           -691.3534 ZZZZ=           -361.4868 XXXY=            -69.9762
 XXXZ=            -33.3316 YYYX=            -67.9572 YYYZ=           -165.5826 ZZZX=            -27.3388
 ZZZY=           -145.0658 XXYY=           -428.7322 XXZZ=           -366.5689 YYZZ=           -172.4121
 XXYZ=            -59.1046 YYXZ=             -9.7560 ZZXY=            -15.2448
 N-N= 7.351652952916D+02 E-N=-8.628181705674D+03  KE= 3.005854789687D+03
 No NMR shielding tensors so no spin-rotation constants.
 Leave Link  601 at Wed May  1 14:56:10 2024, MaxMem=  1207959552 cpu:               7.5 elap:               7.5
 (Enter /software/gaussian/g16-c01/sse4/g16/l9999.exe)
 Unable to Open any file for archive entry.
 1\1\GINC-BHX0006\SP\RwB97XD\6-311+G(d)\C6H5Br1N1O2(1+)\BWEIGHT\01-May-
 2024\0\\#P wB97XD/6-311+G* NoSymm #P Field=X-214\\TitleMe\\1,1\C,0,0.0
 295,1.3397,0.0682\C,0,1.4348,1.2867,0.0064\C,0,2.1118,0.0511,-0.0054\C
 ,0,1.4451,-1.1372,0.0312\C,0,-0.6879,0.1682,0.11\H,0,-0.4713,2.2984,0.
 0781\H,0,2.0273,2.1965,-0.0322\H,0,1.9897,-2.0764,0.0232\H,0,-1.7716,0
 .1804,0.1582\N,0,3.5864,0.051,-0.0675\O,0,4.1471,-1.0597,-0.0881\O,0,4
 .145,1.1639,-0.0901\C,0,-0.0236,-1.1458,0.0835\H,0,-0.4367,-1.8725,0.7
 889\Br,0,-0.5359,-1.8697,-1.7408\\Version=ES64L-G16RevC.01\HF=-3010.55
 56748\RMSD=8.530e-09\Dipole=0.3894365,1.2001808,1.3423009\Quadrupole=1
 .3964149,3.5803644,-4.9767793,0.0805274,-0.4589621,0.1244579\PG=C01 [X
 (C6H5Br1N1O2)]\\@
 The archive entry for this job was punched.


 MATERIAL COPIED FROM ONE SCHOLARLY BOOK WITHOUT CREDIT COMPRISES PLAGIARISM.
 MATERIAL COPIED FROM TWO SCHOLARLY BOOKS COMPRISES AN ESSAY.
 MATERIAL COPIED FROM THREE SCHOLARLY BOOKS COMPRISES A DISSERTATION.
 MATERIAL COPIED FROM FOUR SCHOLARLY BOOKS COMPRISES A FIFTH SCHOLARLY BOOK.

                               -- C&EN, 25 FEB 1980
 Job cpu time:       0 days  0 hours 28 minutes 27.6 seconds.
 Elapsed time:       0 days  0 hours 28 minutes 28.0 seconds.
 File lengths (MBytes):  RWF=     40 Int=      0 D2E=      0 Chk=     32 Scr=      1
 Normal termination of Gaussian 16 at Wed May  1 14:56:11 2024.
