 Entering Gaussian System, Link 0=g16
 Initial command:
 /software/gaussian/g16-c01/sse4/g16/l1.exe "/local_scratch/24657476/Gau-16024.inp" -scrdir="/local_scratch/24657476/"
 Entering Link 1 = /software/gaussian/g16-c01/sse4/g16/l1.exe PID=     16036.
  
 Copyright (c) 1988-2019, Gaussian, Inc.  All Rights Reserved.
  
 This is part of the Gaussian(R) 16 program.  It is based on
 the Gaussian(R) 09 system (copyright 2009, Gaussian, Inc.),
 the Gaussian(R) 03 system (copyright 2003, Gaussian, Inc.),
 the Gaussian(R) 98 system (copyright 1998, Gaussian, Inc.),
 the Gaussian(R) 94 system (copyright 1995, Gaussian, Inc.),
 the Gaussian 92(TM) system (copyright 1992, Gaussian, Inc.),
 the Gaussian 90(TM) system (copyright 1990, Gaussian, Inc.),
 the Gaussian 88(TM) system (copyright 1988, Gaussian, Inc.),
 the Gaussian 86(TM) system (copyright 1986, Carnegie Mellon
 University), and the Gaussian 82(TM) system (copyright 1983,
 Carnegie Mellon University). Gaussian is a federally registered
 trademark of Gaussian, Inc.
  
 This software contains proprietary and confidential information,
 including trade secrets, belonging to Gaussian, Inc.
  
 This software is provided under written license and may be
 used, copied, transmitted, or stored only in accord with that
 written license.
  
 The following legend is applicable only to US Government
 contracts under FAR:
  
                    RESTRICTED RIGHTS LEGEND
  
 Use, reproduction and disclosure by the US Government is
 subject to restrictions as set forth in subparagraphs (a)
 and (c) of the Commercial Computer Software - Restricted
 Rights clause in FAR 52.227-19.
  
 Gaussian, Inc.
 340 Quinnipiac St., Bldg. 40, Wallingford CT 06492
  
  
 ---------------------------------------------------------------
 Warning -- This program may not be used in any manner that
 competes with the business of Gaussian, Inc. or will provide
 assistance to any competitor of Gaussian, Inc.  The licensee
 of this program is prohibited from giving any competitor of
 Gaussian, Inc. access to this program.  By using this program,
 the user acknowledges that Gaussian, Inc. is engaged in the
 business of creating and licensing software in the field of
 computational chemistry and represents and warrants to the
 licensee that it is not a competitor of Gaussian, Inc. and that
 it will not use this program in any manner prohibited above.
 ---------------------------------------------------------------
  

 Cite this work as:
 Gaussian 16, Revision C.01,
 M. J. Frisch, G. W. Trucks, H. B. Schlegel, G. E. Scuseria, 
 M. A. Robb, J. R. Cheeseman, G. Scalmani, V. Barone, 
 G. A. Petersson, H. Nakatsuji, X. Li, M. Caricato, A. V. Marenich, 
 J. Bloino, B. G. Janesko, R. Gomperts, B. Mennucci, H. P. Hratchian, 
 J. V. Ortiz, A. F. Izmaylov, J. L. Sonnenberg, D. Williams-Young, 
 F. Ding, F. Lipparini, F. Egidi, J. Goings, B. Peng, A. Petrone, 
 T. Henderson, D. Ranasinghe, V. G. Zakrzewski, J. Gao, N. Rega, 
 G. Zheng, W. Liang, M. Hada, M. Ehara, K. Toyota, R. Fukuda, 
 J. Hasegawa, M. Ishida, T. Nakajima, Y. Honda, O. Kitao, H. Nakai, 
 T. Vreven, K. Throssell, J. A. Montgomery, Jr., J. E. Peralta, 
 F. Ogliaro, M. J. Bearpark, J. J. Heyd, E. N. Brothers, K. N. Kudin, 
 V. N. Staroverov, T. A. Keith, R. Kobayashi, J. Normand, 
 K. Raghavachari, A. P. Rendell, J. C. Burant, S. S. Iyengar, 
 J. Tomasi, M. Cossi, J. M. Millam, M. Klene, C. Adamo, R. Cammi, 
 J. W. Ochterski, R. L. Martin, K. Morokuma, O. Farkas, 
 J. B. Foresman, and D. J. Fox, Gaussian, Inc., Wallingford CT, 2019.
 
 ******************************************
 Gaussian 16:  ES64L-G16RevC.01  3-Jul-2019
                 1-May-2024 
 ******************************************
 %chk=geometry.chk
 %mem=9GB
 %nprocshared=12
 Will use up to   12 processors via shared memory.
 ----------------------------------------
 #P wB97XD/6-311+G* NoSymm #P Field=Y-243
 ----------------------------------------
 1/38=1,172=1/1;
 2/12=2,15=1,17=6,18=5,40=1/2;
 3/5=4,6=6,7=11,11=2,14=2,15=-243,25=1,30=1,74=-58/1,2,3;
 4//1;
 5/5=2,38=5/2;
 6/7=2,8=2,9=2,10=2,28=1/1;
 99/5=1,9=1/99;
 Leave Link    1 at Wed May  1 14:27:49 2024, MaxMem=  1207959552 cpu:               3.7 elap:               3.8
 (Enter /software/gaussian/g16-c01/sse4/g16/l101.exe)
 -------
 TitleMe
 -------
 Symbolic Z-matrix:
 Charge =  1 Multiplicity = 1
 C                     0.0295    1.3397    0.0682 
 C                     1.4348    1.2867    0.0064 
 C                     2.1118    0.0511   -0.0054 
 C                     1.4451   -1.1372    0.0312 
 C                    -0.6879    0.1682    0.11 
 H                    -0.4713    2.2984    0.0781 
 H                     2.0273    2.1965   -0.0322 
 H                     1.9897   -2.0764    0.0232 
 H                    -1.7716    0.1804    0.1582 
 N                     3.5864    0.051    -0.0675 
 O                     4.1471   -1.0597   -0.0881 
 O                     4.145     1.1639   -0.0901 
 C                    -0.0236   -1.1458    0.0835 
 H                    -0.4367   -1.8725    0.7889 
 Br                   -0.5359   -1.8697   -1.7408 
 
 ITRead=  0  0  0  0  0  0  0  0  0  0  0  0  0  0  0
 MicOpt= -1 -1 -1 -1 -1 -1 -1 -1 -1 -1 -1 -1 -1 -1 -1
 NAtoms=     15 NQM=       15 NQMF=       0 NMMI=      0 NMMIF=      0
                NMic=       0 NMicF=      0.
                    Isotopes and Nuclear Properties:
 (Nuclear quadrupole moments (NQMom) in fm**2, nuclear magnetic moments (NMagM)
  in nuclear magnetons)

  Atom         1           2           3           4           5           6           7           8           9          10
 IAtWgt=          12          12          12          12          12           1           1           1           1          14
 AtmWgt=  12.0000000  12.0000000  12.0000000  12.0000000  12.0000000   1.0078250   1.0078250   1.0078250   1.0078250  14.0030740
 NucSpn=           0           0           0           0           0           1           1           1           1           2
 AtZEff=  -0.0000000  -0.0000000  -0.0000000  -0.0000000  -0.0000000  -0.0000000  -0.0000000  -0.0000000  -0.0000000  -0.0000000
 NQMom=    0.0000000   0.0000000   0.0000000   0.0000000   0.0000000   0.0000000   0.0000000   0.0000000   0.0000000   2.0440000
 NMagM=    0.0000000   0.0000000   0.0000000   0.0000000   0.0000000   2.7928460   2.7928460   2.7928460   2.7928460   0.4037610
 AtZNuc=   6.0000000   6.0000000   6.0000000   6.0000000   6.0000000   1.0000000   1.0000000   1.0000000   1.0000000   7.0000000

  Atom        11          12          13          14          15
 IAtWgt=          16          16          12           1          79
 AtmWgt=  15.9949146  15.9949146  12.0000000   1.0078250  78.9183361
 NucSpn=           0           0           0           1           3
 AtZEff=  -0.0000000  -0.0000000  -0.0000000  -0.0000000  -0.0000000
 NQMom=    0.0000000   0.0000000   0.0000000   0.0000000  31.3000000
 NMagM=    0.0000000   0.0000000   0.0000000   2.7928460   2.1063990
 AtZNuc=   8.0000000   8.0000000   6.0000000   1.0000000  35.0000000
 Leave Link  101 at Wed May  1 14:27:53 2024, MaxMem=  1207959552 cpu:               1.3 elap:               1.4
 (Enter /software/gaussian/g16-c01/sse4/g16/l202.exe)
                          Input orientation:                          
 ---------------------------------------------------------------------
 Center     Atomic      Atomic             Coordinates (Angstroms)
 Number     Number       Type             X           Y           Z
 ---------------------------------------------------------------------
      1          6           0        0.029500    1.339700    0.068200
      2          6           0        1.434800    1.286700    0.006400
      3          6           0        2.111800    0.051100   -0.005400
      4          6           0        1.445100   -1.137200    0.031200
      5          6           0       -0.687900    0.168200    0.110000
      6          1           0       -0.471300    2.298400    0.078100
      7          1           0        2.027300    2.196500   -0.032200
      8          1           0        1.989700   -2.076400    0.023200
      9          1           0       -1.771600    0.180400    0.158200
     10          7           0        3.586400    0.051000   -0.067500
     11          8           0        4.147100   -1.059700   -0.088100
     12          8           0        4.145000    1.163900   -0.090100
     13          6           0       -0.023600   -1.145800    0.083500
     14          1           0       -0.436700   -1.872500    0.788900
     15         35           0       -0.535900   -1.869700   -1.740800
 ---------------------------------------------------------------------
                    Distance matrix (angstroms):
                    1          2          3          4          5
     1  C    0.000000
     2  C    1.407656   0.000000
     3  C    2.449874   1.408963   0.000000
     4  C    2.853126   2.424049   1.363043   0.000000
     5  C    1.374344   2.401589   2.804523   2.501993   0.000000
     6  H    1.081667   2.159142   3.424870   3.934226   2.141421
     7  H    2.176095   1.086408   2.147231   3.384750   3.392128
     8  H    3.938800   3.408612   2.131193   1.085702   3.495040
     9  H    2.143837   3.395283   3.888995   3.478413   1.084840
    10  N    3.785591   2.482297   1.475907   2.450862   4.279589
    11  O    4.768247   3.587631   2.320164   2.705743   4.992415
    12  O    4.122294   2.714696   2.319353   3.549540   4.938459
    13  C    2.486114   2.837240   2.449573   1.469656   1.472614
    14  H    3.324903   3.754379   3.290289   2.157764   2.165286
    15  Br   3.727252   4.110867   3.702891   2.756973   2.757100
                    6          7          8          9         10
     6  H    0.000000
     7  H    2.503108   0.000000
     8  H    5.019802   4.273425   0.000000
     9  H    2.486588   4.304945   4.388479   0.000000
    10  N    4.640790   2.652397   2.661486   5.364313   0.000000
    11  O    5.712624   3.885809   2.387560   6.052233   1.244373
    12  O    4.756638   2.356750   3.893289   6.002923   1.245428
    13  C    3.473180   3.923079   2.218790   2.195425   3.806210
    14  H    4.231175   4.827242   2.552506   2.528663   4.540772
    15  Br   4.548146   5.101303   3.087568   3.055498   4.845862
                   11         12         13         14         15
    11  O    0.000000
    12  O    2.223602   0.000000
    13  C    4.175117   4.768865   0.000000
    14  H    4.737193   5.566358   1.093770   0.000000
    15  Br   5.031700   5.817075   2.028436   2.531646   0.000000
 Symmetry turned off by external request.
 Stoichiometry    C6H5BrNO2(1+)
 Framework group  C1[X(C6H5BrNO2)]
 Deg. of freedom    39
 Full point group                 C1      NOp   1
 Rotational constants (GHZ):           1.8252210           0.5518633           0.4576002
 Leave Link  202 at Wed May  1 14:27:56 2024, MaxMem=  1207959552 cpu:               2.6 elap:               2.6
 (Enter /software/gaussian/g16-c01/sse4/g16/l301.exe)
 Standard basis: 6-311+G(d) (5D, 7F)
 Ernie: Thresh=  0.10000D-02 Tol=  0.10000D-05 Strict=F.
 The following finite field(s) will be applied:
 An electric field of              0.0000 -0.0243  0.0000
   261 basis functions,   443 primitive gaussians,   273 cartesian basis functions
    49 alpha electrons       49 beta electrons
       nuclear repulsion energy       739.2122215416 Hartrees.
 IExCor= 4639 DFT=T Ex+Corr=wB97XD ExCW=0 ScaHFX=  1.000000
 ScaDFX=  1.000000  1.000000  1.000000  1.000000 ScalE2=  1.000000  1.000000
 IRadAn=      5 IRanWt=     -1 IRanGd=            0 ICorTp=0 IEmpDi=121
 HFx  wShort=  0.000000 wLong=  0.200000 cFull=  0.222036 cShort=  0.000000 cLong=  0.777964
 DFx  wShort=  0.000000 wLong=  0.200000 cFull=  0.000000 cShort=  0.000000 cLong=  1.000000
 NAtoms=   15 NActive=   15 NUniq=   15 SFac= 1.00D+00 NAtFMM=   60 NAOKFM=F Big=F
 Integral buffers will be    131072 words long.
 Raffenetti 2 integral format.
 Two-electron integral symmetry is turned off.
 R6Disp:  Grimme-D2 Dispersion energy=       -0.0077368520 Hartrees.
 Nuclear repulsion after empirical dispersion term =      739.2044846896 Hartrees.
 Leave Link  301 at Wed May  1 14:27:58 2024, MaxMem=  1207959552 cpu:               1.1 elap:               1.1
 (Enter /software/gaussian/g16-c01/sse4/g16/l302.exe)
 NPDir=0 NMtPBC=     1 NCelOv=     1 NCel=       1 NClECP=     1 NCelD=      1
         NCelK=      1 NCelE2=     1 NClLst=     1 CellRange=     0.0.
 One-electron integrals computed using PRISM.
 NBasis=   261 RedAO= T EigKep=  2.35D-06  NBF=   261
 NBsUse=   261 1.00D-06 EigRej= -1.00D+00 NBFU=   261
 Precomputing XC quadrature grid using
 IXCGrd= 4 IRadAn=           5 IRanWt=          -1 IRanGd=           0 AccXCQ= 0.00D+00.
 Generated NRdTot=       0 NPtTot=           0 NUsed=           0 NTot=          32
 NSgBfM=   273   273   273   273   273 MxSgAt=    15 MxSgA2=    15.
 Leave Link  302 at Wed May  1 14:28:20 2024, MaxMem=  1207959552 cpu:              21.9 elap:              21.9
 (Enter /software/gaussian/g16-c01/sse4/g16/l303.exe)
 DipDrv:  MaxL=1.
 The nuclear repulsion energy is now       741.9664235256 hartrees.
 Leave Link  303 at Wed May  1 14:28:23 2024, MaxMem=  1207959552 cpu:               3.4 elap:               3.4
 (Enter /software/gaussian/g16-c01/sse4/g16/l401.exe)
 ExpMin= 3.50D-02 ExpMax= 4.40D+05 ExpMxC= 1.51D+04 IAcc=3 IRadAn=         5 AccDes= 0.00D+00
 Harris functional with IExCor= 4639 and IRadAn=       5 diagonalized for initial guess.
 HarFok:  IExCor= 4639 AccDes= 0.00D+00 IRadAn=         5 IDoV= 1 UseB2=F ITyADJ=14
 ICtDFT=  3500011 ScaDFX=  1.000000  1.000000  1.000000  1.000000
 FoFCou: FMM=F IPFlag=           0 FMFlag=      100000 FMFlg1=           0
         NFxFlg=           0 DoJE=T BraDBF=F KetDBF=T FulRan=T
         wScrn=  0.000000 ICntrl=       500 IOpCl=  0 I1Cent=   200000004 NGrid=           0
         NMat0=    1 NMatS0=      1 NMatT0=    0 NMatD0=    1 NMtDS0=    0 NMtDT0=    0
 Symmetry not used in FoFCou.
 Harris En= -2970.80152821517    
 JPrj=0 DoOrth=F DoCkMO=F.
 Leave Link  401 at Wed May  1 14:28:54 2024, MaxMem=  1207959552 cpu:              30.6 elap:              30.6
 (Enter /software/gaussian/g16-c01/sse4/g16/l502.exe)
 Two-electron integral symmetry not used.
 Closed shell SCF:
 Using DIIS extrapolation, IDIIS=  1040.
 NGot=  1207959552 LenX=  1207804877 LenY=  1207729907
 Requested convergence on RMS density matrix=1.00D-08 within 128 cycles.
 Requested convergence on MAX density matrix=1.00D-06.
 Requested convergence on             energy=1.00D-06.
 No special actions if energy rises.
 Fock matrices will be formed incrementally for  20 cycles.

 Cycle   1  Pass 1  IDiag  1:
 FoFJK:  IHMeth= 1 ICntrl=       0 DoSepK=T KAlg= 0 I1Cent=           0 FoldK=F
 IRaf=         1 NMat=       1 IRICut=       1 DoRegI=T DoRafI=F ISym2E= 0 IDoP0=0 IntGTp=1.
 FoFCou: FMM=F IPFlag=           0 FMFlag=      100000 FMFlg1=           0
         NFxFlg=           0 DoJE=T BraDBF=F KetDBF=F FulRan=T
         wScrn=  0.000000 ICntrl=       500 IOpCl=  0 I1Cent=           0 NGrid=           0
         NMat0=    1 NMatS0=      1 NMatT0=    0 NMatD0=    1 NMtDS0=    0 NMtDT0=    0
 Symmetry not used in FoFCou.
 E= -3007.33735202171    
 DIIS: error= 3.19D-01 at cycle   1 NSaved=   1.
 NSaved= 1 IEnMin= 1 EnMin= -3007.33735202171     IErMin= 1 ErrMin= 3.19D-01
 ErrMax= 3.19D-01  0.00D+00 EMaxC= 1.00D-01 BMatC= 1.30D+01 BMatP= 1.30D+01
 IDIUse=3 WtCom= 0.00D+00 WtEn= 1.00D+00
 Coeff-Com:  0.100D+01
 Coeff-En:   0.100D+01
 Coeff:      0.100D+01
 Gap=     0.530 Goal=   None    Shift=    0.000
 GapD=    0.530 DampG=2.000 DampE=0.250 DampFc=0.5000 IDamp=-1.
 Damping current iteration by 5.00D-01
 RMSDP=1.64D+00 MaxDP=1.84D+02              OVMax= 7.28D-01

 Cycle   2  Pass 1  IDiag  1:
 RMSU=  4.78D-02    CP:  5.09D-01
 E= -3006.68887744031     Delta-E=        0.648474581395 Rises=F Damp=T
 DIIS: error= 1.40D-01 at cycle   2 NSaved=   2.
 NSaved= 2 IEnMin= 1 EnMin= -3007.33735202171     IErMin= 2 ErrMin= 1.40D-01
 ErrMax= 1.40D-01  0.00D+00 EMaxC= 1.00D-01 BMatC= 2.99D+00 BMatP= 1.30D+01
 IDIUse=3 WtCom= 0.00D+00 WtEn= 1.00D+00
 Coeff-Com: -0.781D-01 0.108D+01
 Coeff-En:   0.559D+00 0.441D+00
 Coeff:      0.559D+00 0.441D+00
 Gap=     0.645 Goal=   None    Shift=    0.000
 RMSDP=8.29D-01 MaxDP=9.49D+01 DE= 6.48D-01 OVMax= 8.83D-01

 Cycle   3  Pass 1  IDiag  1:
 RMSU=  2.47D-02    CP:  1.35D-02  1.23D+00
 E= -3009.44424416086     Delta-E=       -2.755366720553 Rises=F Damp=F
 DIIS: error= 8.79D-02 at cycle   3 NSaved=   3.
 NSaved= 3 IEnMin= 3 EnMin= -3009.44424416086     IErMin= 3 ErrMin= 8.79D-02
 ErrMax= 8.79D-02  0.00D+00 EMaxC= 1.00D-01 BMatC= 2.29D+00 BMatP= 2.99D+00
 IDIUse=3 WtCom= 1.21D-01 WtEn= 8.79D-01
 Coeff-Com:  0.199D+00 0.119D+00 0.682D+00
 Coeff-En:   0.260D+00 0.000D+00 0.740D+00
 Coeff:      0.252D+00 0.144D-01 0.733D+00
 Gap=     0.353 Goal=   None    Shift=    0.000
 RMSDP=3.05D-02 MaxDP=2.11D+00 DE=-2.76D+00 OVMax= 5.01D-01

 Cycle   4  Pass 1  IDiag  1:
 RMSU=  2.86D-02    CP:  1.14D-02  1.02D+00  9.72D-01
 E= -3009.59801763952     Delta-E=       -0.153773478660 Rises=F Damp=F
 DIIS: error= 1.08D-01 at cycle   4 NSaved=   4.
 NSaved= 4 IEnMin= 4 EnMin= -3009.59801763952     IErMin= 3 ErrMin= 8.79D-02
 ErrMax= 1.08D-01  0.00D+00 EMaxC= 1.00D-01 BMatC= 1.38D+00 BMatP= 2.29D+00
 IDIUse=3 WtCom= 0.00D+00 WtEn= 1.00D+00
 Coeff-Com:  0.106D+00-0.632D-01 0.475D+00 0.482D+00
 Coeff-En:   0.000D+00 0.000D+00 0.468D+00 0.532D+00
 Coeff:      0.000D+00 0.000D+00 0.468D+00 0.532D+00
 Gap=     0.187 Goal=   None    Shift=    0.000
 RMSDP=1.87D-02 MaxDP=1.34D+00 DE=-1.54D-01 OVMax= 4.17D-01

 Cycle   5  Pass 1  IDiag  1:
 RMSU=  1.57D-02    CP:  1.21D-02  1.03D+00  1.25D+00  7.36D-01
 E= -3010.46467209169     Delta-E=       -0.866654452165 Rises=F Damp=F
 DIIS: error= 2.42D-02 at cycle   5 NSaved=   5.
 NSaved= 5 IEnMin= 5 EnMin= -3010.46467209169     IErMin= 5 ErrMin= 2.42D-02
 ErrMax= 2.42D-02  0.00D+00 EMaxC= 1.00D-01 BMatC= 1.80D-01 BMatP= 1.38D+00
 IDIUse=3 WtCom= 7.58D-01 WtEn= 2.42D-01
 Coeff-Com: -0.348D-02 0.746D-02 0.184D+00 0.266D+00 0.546D+00
 Coeff-En:   0.000D+00 0.000D+00 0.000D+00 0.514D-01 0.949D+00
 Coeff:     -0.263D-02 0.565D-02 0.140D+00 0.214D+00 0.643D+00
 Gap=     0.248 Goal=   None    Shift=    0.000
 RMSDP=1.32D-02 MaxDP=1.21D+00 DE=-8.67D-01 OVMax= 1.29D-01

 Cycle   6  Pass 1  IDiag  1:
 RMSU=  4.66D-03    CP:  1.03D-02  8.89D-01  1.05D+00  6.96D-01  4.50D-01
 E= -3010.54433599646     Delta-E=       -0.079663904774 Rises=F Damp=F
 DIIS: error= 1.58D-02 at cycle   6 NSaved=   6.
 NSaved= 6 IEnMin= 6 EnMin= -3010.54433599646     IErMin= 6 ErrMin= 1.58D-02
 ErrMax= 1.58D-02  0.00D+00 EMaxC= 1.00D-01 BMatC= 3.22D-02 BMatP= 1.80D-01
 IDIUse=3 WtCom= 8.42D-01 WtEn= 1.58D-01
 Coeff-Com: -0.998D-02 0.211D-01 0.128D-01 0.394D-02 0.304D+00 0.668D+00
 Coeff-En:   0.000D+00 0.000D+00 0.000D+00 0.000D+00 0.138D+00 0.862D+00
 Coeff:     -0.840D-02 0.177D-01 0.108D-01 0.332D-02 0.278D+00 0.699D+00
 Gap=     0.248 Goal=   None    Shift=    0.000
 RMSDP=1.89D-03 MaxDP=9.38D-02 DE=-7.97D-02 OVMax= 5.12D-02

 Cycle   7  Pass 1  IDiag  1:
 RMSU=  1.13D-03    CP:  1.03D-02  8.77D-01  1.06D+00  6.69D-01  5.24D-01
                    CP:  9.96D-01
 E= -3010.56186952722     Delta-E=       -0.017533530754 Rises=F Damp=F
 DIIS: error= 2.66D-03 at cycle   7 NSaved=   7.
 NSaved= 7 IEnMin= 7 EnMin= -3010.56186952722     IErMin= 7 ErrMin= 2.66D-03
 ErrMax= 2.66D-03  0.00D+00 EMaxC= 1.00D-01 BMatC= 1.53D-03 BMatP= 3.22D-02
 IDIUse=3 WtCom= 9.73D-01 WtEn= 2.66D-02
 Coeff-Com: -0.625D-02 0.129D-01-0.115D-01-0.120D-01 0.675D-01 0.280D+00
 Coeff-Com:  0.669D+00
 Coeff-En:   0.000D+00 0.000D+00 0.000D+00 0.000D+00 0.000D+00 0.000D+00
 Coeff-En:   0.100D+01
 Coeff:     -0.608D-02 0.125D-01-0.112D-01-0.117D-01 0.657D-01 0.273D+00
 Coeff:      0.678D+00
 Gap=     0.245 Goal=   None    Shift=    0.000
 RMSDP=6.85D-04 MaxDP=4.22D-02 DE=-1.75D-02 OVMax= 7.00D-03

 Cycle   8  Pass 1  IDiag  1:
 RMSU=  4.72D-04    CP:  1.02D-02  8.78D-01  1.06D+00  6.75D-01  5.01D-01
                    CP:  1.04D+00  9.47D-01
 E= -3010.56297249428     Delta-E=       -0.001102967060 Rises=F Damp=F
 DIIS: error= 6.13D-04 at cycle   8 NSaved=   8.
 NSaved= 8 IEnMin= 8 EnMin= -3010.56297249428     IErMin= 8 ErrMin= 6.13D-04
 ErrMax= 6.13D-04  0.00D+00 EMaxC= 1.00D-01 BMatC= 1.39D-04 BMatP= 1.53D-03
 IDIUse=3 WtCom= 9.94D-01 WtEn= 6.13D-03
 Coeff-Com: -0.196D-02 0.383D-02-0.398D-02-0.129D-03-0.179D-01-0.213D-01
 Coeff-Com:  0.238D+00 0.803D+00
 Coeff-En:   0.000D+00 0.000D+00 0.000D+00 0.000D+00 0.000D+00 0.000D+00
 Coeff-En:   0.000D+00 0.100D+01
 Coeff:     -0.195D-02 0.380D-02-0.396D-02-0.128D-03-0.178D-01-0.212D-01
 Coeff:      0.237D+00 0.805D+00
 Gap=     0.250 Goal=   None    Shift=    0.000
 RMSDP=6.40D-04 MaxDP=3.84D-02 DE=-1.10D-03 OVMax= 4.49D-03

 Cycle   9  Pass 1  IDiag  1:
 RMSU=  2.65D-04    CP:  1.01D-02  8.76D-01  1.05D+00  6.74D-01  4.78D-01
                    CP:  1.04D+00  1.18D+00  1.58D+00
 E= -3010.56314333435     Delta-E=       -0.000170840071 Rises=F Damp=F
 DIIS: error= 2.24D-04 at cycle   9 NSaved=   9.
 NSaved= 9 IEnMin= 9 EnMin= -3010.56314333435     IErMin= 9 ErrMin= 2.24D-04
 ErrMax= 2.24D-04  0.00D+00 EMaxC= 1.00D-01 BMatC= 1.33D-05 BMatP= 1.39D-04
 IDIUse=3 WtCom= 9.98D-01 WtEn= 2.24D-03
 Coeff-Com: -0.313D-03 0.584D-03-0.236D-03 0.122D-02-0.134D-01-0.373D-01
 Coeff-Com: -0.234D-01 0.216D+00 0.857D+00
 Coeff-En:   0.000D+00 0.000D+00 0.000D+00 0.000D+00 0.000D+00 0.000D+00
 Coeff-En:   0.000D+00 0.000D+00 0.100D+01
 Coeff:     -0.312D-03 0.583D-03-0.236D-03 0.121D-02-0.134D-01-0.372D-01
 Coeff:     -0.233D-01 0.215D+00 0.857D+00
 Gap=     0.250 Goal=   None    Shift=    0.000
 RMSDP=2.20D-04 MaxDP=1.82D-02 DE=-1.71D-04 OVMax= 2.40D-03

 Cycle  10  Pass 1  IDiag  1:
 RMSU=  7.91D-05    CP:  1.01D-02  8.75D-01  1.04D+00  6.75D-01  4.68D-01
                    CP:  1.05D+00  1.23D+00  1.70D+00  1.14D+00
 E= -3010.56316268480     Delta-E=       -0.000019350450 Rises=F Damp=F
 DIIS: error= 9.39D-05 at cycle  10 NSaved=  10.
 NSaved=10 IEnMin=10 EnMin= -3010.56316268480     IErMin=10 ErrMin= 9.39D-05
 ErrMax= 9.39D-05  0.00D+00 EMaxC= 1.00D-01 BMatC= 2.59D-06 BMatP= 1.33D-05
 IDIUse=1 WtCom= 1.00D+00 WtEn= 0.00D+00
 Coeff-Com:  0.363D-05-0.287D-04 0.590D-04 0.521D-03-0.279D-02-0.779D-02
 Coeff-Com: -0.233D-01 0.101D-01 0.340D+00 0.683D+00
 Coeff:      0.363D-05-0.287D-04 0.590D-04 0.521D-03-0.279D-02-0.779D-02
 Coeff:     -0.233D-01 0.101D-01 0.340D+00 0.683D+00
 Gap=     0.250 Goal=   None    Shift=    0.000
 RMSDP=7.64D-05 MaxDP=6.70D-03 DE=-1.94D-05 OVMax= 8.97D-04

 Cycle  11  Pass 1  IDiag  1:
 RMSU=  2.60D-05    CP:  1.01D-02  8.75D-01  1.04D+00  6.75D-01  4.65D-01
                    CP:  1.05D+00  1.24D+00  1.77D+00  1.22D+00  1.03D+00
 E= -3010.56316607653     Delta-E=       -0.000003391728 Rises=F Damp=F
 DIIS: error= 5.07D-05 at cycle  11 NSaved=  11.
 NSaved=11 IEnMin=11 EnMin= -3010.56316607653     IErMin=11 ErrMin= 5.07D-05
 ErrMax= 5.07D-05  0.00D+00 EMaxC= 1.00D-01 BMatC= 6.27D-07 BMatP= 2.59D-06
 IDIUse=1 WtCom= 1.00D+00 WtEn= 0.00D+00
 Coeff-Com:  0.298D-04-0.102D-03-0.188D-03-0.378D-04 0.155D-02 0.559D-02
 Coeff-Com:  0.137D-02-0.261D-01-0.322D-01 0.258D+00 0.792D+00
 Coeff:      0.298D-04-0.102D-03-0.188D-03-0.378D-04 0.155D-02 0.559D-02
 Coeff:      0.137D-02-0.261D-01-0.322D-01 0.258D+00 0.792D+00
 Gap=     0.249 Goal=   None    Shift=    0.000
 RMSDP=2.82D-05 MaxDP=2.52D-03 DE=-3.39D-06 OVMax= 5.69D-04

 Cycle  12  Pass 1  IDiag  1:
 RMSU=  1.28D-05    CP:  1.01D-02  8.75D-01  1.04D+00  6.76D-01  4.66D-01
                    CP:  1.05D+00  1.24D+00  1.77D+00  1.20D+00  1.11D+00
                    CP:  1.24D+00
 E= -3010.56316713760     Delta-E=       -0.000001061072 Rises=F Damp=F
 DIIS: error= 1.42D-05 at cycle  12 NSaved=  12.
 NSaved=12 IEnMin=12 EnMin= -3010.56316713760     IErMin=12 ErrMin= 1.42D-05
 ErrMax= 1.42D-05  0.00D+00 EMaxC= 1.00D-01 BMatC= 9.84D-08 BMatP= 6.27D-07
 IDIUse=1 WtCom= 1.00D+00 WtEn= 0.00D+00
 Coeff-Com:  0.944D-05-0.398D-04-0.136D-03-0.848D-04 0.701D-03 0.311D-02
 Coeff-Com:  0.729D-02-0.231D-02-0.640D-01-0.515D-01 0.182D+00 0.925D+00
 Coeff:      0.944D-05-0.398D-04-0.136D-03-0.848D-04 0.701D-03 0.311D-02
 Coeff:      0.729D-02-0.231D-02-0.640D-01-0.515D-01 0.182D+00 0.925D+00
 Gap=     0.249 Goal=   None    Shift=    0.000
 RMSDP=1.77D-05 MaxDP=1.04D-03 DE=-1.06D-06 OVMax= 3.54D-04

 Cycle  13  Pass 1  IDiag  1:
 RMSU=  5.10D-06    CP:  1.01D-02  8.75D-01  1.04D+00  6.76D-01  4.66D-01
                    CP:  1.05D+00  1.24D+00  1.77D+00  1.19D+00  1.15D+00
                    CP:  1.46D+00  1.41D+00
 E= -3010.56316742507     Delta-E=       -0.000000287469 Rises=F Damp=F
 DIIS: error= 8.43D-06 at cycle  13 NSaved=  13.
 NSaved=13 IEnMin=13 EnMin= -3010.56316742507     IErMin=13 ErrMin= 8.43D-06
 ErrMax= 8.43D-06  0.00D+00 EMaxC= 1.00D-01 BMatC= 1.76D-08 BMatP= 9.84D-08
 IDIUse=1 WtCom= 1.00D+00 WtEn= 0.00D+00
 Coeff-Com:  0.277D-05-0.323D-06-0.105D-06-0.198D-04-0.270D-03-0.369D-03
 Coeff-Com:  0.152D-02 0.461D-02-0.690D-02-0.683D-01-0.160D+00 0.263D+00
 Coeff-Com:  0.966D+00
 Coeff:      0.277D-05-0.323D-06-0.105D-06-0.198D-04-0.270D-03-0.369D-03
 Coeff:      0.152D-02 0.461D-02-0.690D-02-0.683D-01-0.160D+00 0.263D+00
 Coeff:      0.966D+00
 Gap=     0.249 Goal=   None    Shift=    0.000
 RMSDP=7.14D-06 MaxDP=2.88D-04 DE=-2.87D-07 OVMax= 2.66D-04

 Cycle  14  Pass 1  IDiag  1:
 RMSU=  2.34D-06    CP:  1.01D-02  8.74D-01  1.04D+00  6.76D-01  4.66D-01
                    CP:  1.05D+00  1.24D+00  1.77D+00  1.18D+00  1.16D+00
                    CP:  1.56D+00  1.64D+00  1.24D+00
 E= -3010.56316750330     Delta-E=       -0.000000078227 Rises=F Damp=F
 DIIS: error= 3.52D-06 at cycle  14 NSaved=  14.
 NSaved=14 IEnMin=14 EnMin= -3010.56316750330     IErMin=14 ErrMin= 3.52D-06
 ErrMax= 3.52D-06  0.00D+00 EMaxC= 1.00D-01 BMatC= 3.96D-09 BMatP= 1.76D-08
 IDIUse=1 WtCom= 1.00D+00 WtEn= 0.00D+00
 Coeff-Com: -0.503D-06 0.511D-05 0.140D-04 0.770D-05-0.220D-03-0.621D-03
 Coeff-Com: -0.551D-03 0.194D-02 0.544D-02-0.174D-01-0.920D-01-0.105D-01
 Coeff-Com:  0.429D+00 0.685D+00
 Coeff:     -0.503D-06 0.511D-05 0.140D-04 0.770D-05-0.220D-03-0.621D-03
 Coeff:     -0.551D-03 0.194D-02 0.544D-02-0.174D-01-0.920D-01-0.105D-01
 Coeff:      0.429D+00 0.685D+00
 Gap=     0.249 Goal=   None    Shift=    0.000
 RMSDP=2.07D-06 MaxDP=8.12D-05 DE=-7.82D-08 OVMax= 5.94D-05

 Cycle  15  Pass 1  IDiag  1:
 RMSU=  1.05D-06    CP:  1.01D-02  8.74D-01  1.04D+00  6.76D-01  4.66D-01
                    CP:  1.05D+00  1.24D+00  1.77D+00  1.18D+00  1.16D+00
                    CP:  1.56D+00  1.71D+00  1.36D+00  1.09D+00
 E= -3010.56316751248     Delta-E=       -0.000000009189 Rises=F Damp=F
 DIIS: error= 1.13D-06 at cycle  15 NSaved=  15.
 NSaved=15 IEnMin=15 EnMin= -3010.56316751248     IErMin=15 ErrMin= 1.13D-06
 ErrMax= 1.13D-06  0.00D+00 EMaxC= 1.00D-01 BMatC= 3.73D-10 BMatP= 3.96D-09
 IDIUse=1 WtCom= 1.00D+00 WtEn= 0.00D+00
 Coeff-Com: -0.591D-06 0.667D-06 0.434D-05 0.104D-04 0.211D-04-0.791D-04
 Coeff-Com: -0.602D-03-0.104D-02 0.162D-02 0.122D-01 0.125D-01-0.596D-01
 Coeff-Com: -0.699D-01 0.461D-01 0.106D+01
 Coeff:     -0.591D-06 0.667D-06 0.434D-05 0.104D-04 0.211D-04-0.791D-04
 Coeff:     -0.602D-03-0.104D-02 0.162D-02 0.122D-01 0.125D-01-0.596D-01
 Coeff:     -0.699D-01 0.461D-01 0.106D+01
 Gap=     0.249 Goal=   None    Shift=    0.000
 RMSDP=1.26D-06 MaxDP=6.21D-05 DE=-9.19D-09 OVMax= 5.38D-05

 Cycle  16  Pass 1  IDiag  1:
 RMSU=  3.79D-07    CP:  1.01D-02  8.74D-01  1.04D+00  6.76D-01  4.66D-01
                    CP:  1.05D+00  1.24D+00  1.77D+00  1.18D+00  1.16D+00
                    CP:  1.55D+00  1.72D+00  1.43D+00  1.22D+00  1.59D+00
 E= -3010.56316751464     Delta-E=       -0.000000002158 Rises=F Damp=F
 DIIS: error= 4.94D-07 at cycle  16 NSaved=  16.
 NSaved=16 IEnMin=16 EnMin= -3010.56316751464     IErMin=16 ErrMin= 4.94D-07
 ErrMax= 4.94D-07  0.00D+00 EMaxC= 1.00D-01 BMatC= 1.26D-10 BMatP= 3.73D-10
 IDIUse=1 WtCom= 1.00D+00 WtEn= 0.00D+00
 Coeff-Com:  0.143D-06-0.435D-06 0.173D-05 0.934D-06 0.387D-04 0.632D-04
 Coeff-Com: -0.670D-04-0.568D-03-0.804D-03 0.437D-02 0.143D-01-0.112D-01
 Coeff-Com: -0.589D-01-0.153D+00 0.288D+00 0.918D+00
 Coeff:      0.143D-06-0.435D-06 0.173D-05 0.934D-06 0.387D-04 0.632D-04
 Coeff:     -0.670D-04-0.568D-03-0.804D-03 0.437D-02 0.143D-01-0.112D-01
 Coeff:     -0.589D-01-0.153D+00 0.288D+00 0.918D+00
 Gap=     0.249 Goal=   None    Shift=    0.000
 RMSDP=6.41D-07 MaxDP=3.98D-05 DE=-2.16D-09 OVMax= 1.93D-05

 Cycle  17  Pass 1  IDiag  1:
 RMSU=  1.56D-07    CP:  1.01D-02  8.74D-01  1.04D+00  6.76D-01  4.66D-01
                    CP:  1.05D+00  1.24D+00  1.77D+00  1.18D+00  1.16D+00
                    CP:  1.55D+00  1.73D+00  1.45D+00  1.23D+00  1.87D+00
                    CP:  1.27D+00
 E= -3010.56316751500     Delta-E=       -0.000000000355 Rises=F Damp=F
 DIIS: error= 2.46D-07 at cycle  17 NSaved=  17.
 NSaved=17 IEnMin=17 EnMin= -3010.56316751500     IErMin=17 ErrMin= 2.46D-07
 ErrMax= 2.46D-07  0.00D+00 EMaxC= 1.00D-01 BMatC= 1.63D-11 BMatP= 1.26D-10
 IDIUse=1 WtCom= 1.00D+00 WtEn= 0.00D+00
 Coeff-Com:  0.163D-06-0.207D-06 0.611D-06-0.145D-05 0.714D-05 0.257D-04
 Coeff-Com:  0.843D-04 0.307D-04-0.351D-03-0.597D-03 0.165D-02 0.680D-02
 Coeff-Com:  0.126D-02-0.625D-01-0.717D-01 0.167D+00 0.958D+00
 Coeff:      0.163D-06-0.207D-06 0.611D-06-0.145D-05 0.714D-05 0.257D-04
 Coeff:      0.843D-04 0.307D-04-0.351D-03-0.597D-03 0.165D-02 0.680D-02
 Coeff:      0.126D-02-0.625D-01-0.717D-01 0.167D+00 0.958D+00
 Gap=     0.249 Goal=   None    Shift=    0.000
 RMSDP=3.63D-07 MaxDP=2.73D-05 DE=-3.55D-10 OVMax= 7.27D-06

 Cycle  18  Pass 1  IDiag  1:
 RMSU=  6.35D-08    CP:  1.01D-02  8.74D-01  1.04D+00  6.76D-01  4.66D-01
                    CP:  1.05D+00  1.24D+00  1.77D+00  1.18D+00  1.16D+00
                    CP:  1.55D+00  1.73D+00  1.46D+00  1.23D+00  1.96D+00
                    CP:  1.35D+00  1.51D+00
 E= -3010.56316751503     Delta-E=       -0.000000000031 Rises=F Damp=F
 DIIS: error= 8.29D-08 at cycle  18 NSaved=  18.
 NSaved=18 IEnMin=18 EnMin= -3010.56316751503     IErMin=18 ErrMin= 8.29D-08
 ErrMax= 8.29D-08  0.00D+00 EMaxC= 1.00D-01 BMatC= 2.56D-12 BMatP= 1.63D-11
 IDIUse=1 WtCom= 1.00D+00 WtEn= 0.00D+00
 Coeff-Com:  0.106D-06-0.155D-06 0.193D-06-0.566D-06-0.411D-05-0.401D-05
 Coeff-Com:  0.334D-04 0.859D-04 0.454D-04-0.815D-03-0.237D-02 0.268D-02
 Coeff-Com:  0.109D-01 0.609D-02-0.520D-01-0.130D+00 0.261D+00 0.905D+00
 Coeff:      0.106D-06-0.155D-06 0.193D-06-0.566D-06-0.411D-05-0.401D-05
 Coeff:      0.334D-04 0.859D-04 0.454D-04-0.815D-03-0.237D-02 0.268D-02
 Coeff:      0.109D-01 0.609D-02-0.520D-01-0.130D+00 0.261D+00 0.905D+00
 Gap=     0.249 Goal=   None    Shift=    0.000
 RMSDP=1.11D-07 MaxDP=6.85D-06 DE=-3.09D-11 OVMax= 2.78D-06

 Cycle  19  Pass 1  IDiag  1:
 RMSU=  2.20D-08    CP:  1.01D-02  8.74D-01  1.04D+00  6.76D-01  4.66D-01
                    CP:  1.05D+00  1.24D+00  1.77D+00  1.18D+00  1.16D+00
                    CP:  1.55D+00  1.73D+00  1.46D+00  1.22D+00  1.98D+00
                    CP:  1.34D+00  1.86D+00  1.42D+00
 E= -3010.56316751510     Delta-E=       -0.000000000073 Rises=F Damp=F
 DIIS: error= 4.91D-08 at cycle  19 NSaved=  19.
 NSaved=19 IEnMin=19 EnMin= -3010.56316751510     IErMin=19 ErrMin= 4.91D-08
 ErrMax= 4.91D-08  0.00D+00 EMaxC= 1.00D-01 BMatC= 2.63D-13 BMatP= 2.56D-12
 IDIUse=1 WtCom= 1.00D+00 WtEn= 0.00D+00
 Coeff-Com:  0.225D-07-0.538D-07-0.173D-06 0.113D-07-0.195D-05-0.369D-05
 Coeff-Com: -0.129D-05 0.165D-04 0.595D-04-0.434D-05-0.676D-03-0.259D-03
 Coeff-Com:  0.194D-02 0.903D-02 0.321D-02-0.587D-01-0.527D-01 0.144D+00
 Coeff-Com:  0.954D+00
 Coeff:      0.225D-07-0.538D-07-0.173D-06 0.113D-07-0.195D-05-0.369D-05
 Coeff:     -0.129D-05 0.165D-04 0.595D-04-0.434D-05-0.676D-03-0.259D-03
 Coeff:      0.194D-02 0.903D-02 0.321D-02-0.587D-01-0.527D-01 0.144D+00
 Coeff:      0.954D+00
 Gap=     0.249 Goal=   None    Shift=    0.000
 RMSDP=2.83D-08 MaxDP=1.41D-06 DE=-7.32D-11 OVMax= 1.24D-06

 Cycle  20  Pass 1  IDiag  1:
 RMSU=  1.12D-08    CP:  1.01D-02  8.74D-01  1.04D+00  6.76D-01  4.66D-01
                    CP:  1.05D+00  1.24D+00  1.77D+00  1.18D+00  1.16D+00
                    CP:  1.55D+00  1.73D+00  1.46D+00  1.22D+00  1.97D+00
                    CP:  1.33D+00  1.93D+00  1.53D+00  1.30D+00
 E= -3010.56316751507     Delta-E=        0.000000000030 Rises=F Damp=F
 DIIS: error= 1.66D-08 at cycle  20 NSaved=  20.
 NSaved=20 IEnMin=19 EnMin= -3010.56316751510     IErMin=20 ErrMin= 1.66D-08
 ErrMax= 1.66D-08  0.00D+00 EMaxC= 1.00D-01 BMatC= 8.56D-14 BMatP= 2.63D-13
 IDIUse=1 WtCom= 1.00D+00 WtEn= 0.00D+00
 Coeff-Com:  0.440D-08-0.219D-07-0.112D-06 0.918D-07 0.746D-07-0.303D-07
 Coeff-Com: -0.566D-05-0.122D-04 0.634D-05 0.150D-03 0.198D-03-0.558D-03
 Coeff-Com: -0.148D-02 0.115D-02 0.109D-01 0.620D-02-0.552D-01-0.176D+00
 Coeff-Com:  0.287D+00 0.927D+00
 Coeff:      0.440D-08-0.219D-07-0.112D-06 0.918D-07 0.746D-07-0.303D-07
 Coeff:     -0.566D-05-0.122D-04 0.634D-05 0.150D-03 0.198D-03-0.558D-03
 Coeff:     -0.148D-02 0.115D-02 0.109D-01 0.620D-02-0.552D-01-0.176D+00
 Coeff:      0.287D+00 0.927D+00
 Gap=     0.249 Goal=   None    Shift=    0.000
 RMSDP=1.96D-08 MaxDP=1.02D-06 DE= 3.00D-11 OVMax= 5.21D-07

 Cycle  21  Pass 1  IDiag  1:
 Restarting incremental Fock formation.
 E= -3010.56316751505     Delta-E=        0.000000000021 Rises=F Damp=F
 DIIS: error= 4.61D-09 at cycle  21 NSaved=  20.
 NSaved=20 IEnMin=18 EnMin= -3010.56316751510     IErMin=20 ErrMin= 4.61D-09
 ErrMax= 4.61D-09  0.00D+00 EMaxC= 1.00D-01 BMatC= 5.75D-15 BMatP= 8.56D-14
 IDIUse=1 WtCom= 1.00D+00 WtEn= 0.00D+00
 Coeff-Com: -0.129D-08-0.150D-07 0.944D-08 0.209D-06 0.514D-06-0.666D-06
 Coeff-Com: -0.410D-05-0.404D-05 0.347D-04 0.122D-03-0.614D-04-0.518D-03
 Coeff-Com: -0.115D-02 0.185D-02 0.844D-02 0.500D-04-0.594D-01-0.570D-01
 Coeff-Com:  0.192D+00 0.916D+00
 Coeff:     -0.129D-08-0.150D-07 0.944D-08 0.209D-06 0.514D-06-0.666D-06
 Coeff:     -0.410D-05-0.404D-05 0.347D-04 0.122D-03-0.614D-04-0.518D-03
 Coeff:     -0.115D-02 0.185D-02 0.844D-02 0.500D-04-0.594D-01-0.570D-01
 Coeff:      0.192D+00 0.916D+00
 Gap=     0.249 Goal=   None    Shift=    0.000
 RMSDP=6.26D-09 MaxDP=3.62D-07 DE= 2.14D-11 OVMax= 1.40D-07

 SCF Done:  E(RwB97XD) =  -3010.56316752     A.U. after   21 cycles
            NFock= 21  Conv=0.63D-08     -V/T= 2.0016
 KE= 3.005871549632D+03 PE=-8.635599872509D+03 EE= 1.877198731837D+03
 Leave Link  502 at Wed May  1 14:49:15 2024, MaxMem=  1207959552 cpu:            1220.7 elap:            1221.0
 (Enter /software/gaussian/g16-c01/sse4/g16/l601.exe)
 Copying SCF densities to generalized density rwf, IOpCl= 0 IROHF=0.

 **********************************************************************

            Population analysis using the SCF Density.

 **********************************************************************

 Alpha  occ. eigenvalues -- -483.35360 -62.90423 -56.70056 -56.69570 -56.69564
 Alpha  occ. eigenvalues --  -19.46931 -19.46385 -14.85993 -10.61694 -10.58570
 Alpha  occ. eigenvalues --  -10.58485 -10.57282 -10.56790 -10.51944  -9.06256
 Alpha  occ. eigenvalues --   -6.88766  -6.87158  -6.87139  -2.98710  -2.98280
 Alpha  occ. eigenvalues --   -2.98265  -2.96977  -2.96977  -1.50338  -1.33305
 Alpha  occ. eigenvalues --   -1.24022  -1.16099  -1.12148  -1.07475  -1.01712
 Alpha  occ. eigenvalues --   -0.96673  -0.91771  -0.86083  -0.81787  -0.81305
 Alpha  occ. eigenvalues --   -0.80764  -0.79826  -0.76698  -0.76194  -0.74220
 Alpha  occ. eigenvalues --   -0.69524  -0.67305  -0.64694  -0.62843  -0.61216
 Alpha  occ. eigenvalues --   -0.57975  -0.57594  -0.56785  -0.56046
 Alpha virt. eigenvalues --   -0.31135  -0.22116  -0.20472  -0.18942  -0.15587
 Alpha virt. eigenvalues --   -0.14731  -0.13598  -0.10394  -0.09298  -0.08823
 Alpha virt. eigenvalues --   -0.07004  -0.05645  -0.04706  -0.03552  -0.02353
 Alpha virt. eigenvalues --   -0.01741  -0.01152   0.00260   0.01105   0.01477
 Alpha virt. eigenvalues --    0.02103   0.02586   0.04514   0.05017   0.05504
 Alpha virt. eigenvalues --    0.05632   0.07442   0.08257   0.09339   0.09846
 Alpha virt. eigenvalues --    0.10271   0.11295   0.11518   0.12547   0.13384
 Alpha virt. eigenvalues --    0.13774   0.14007   0.14299   0.14838   0.15898
 Alpha virt. eigenvalues --    0.17270   0.19059   0.19477   0.20176   0.20728
 Alpha virt. eigenvalues --    0.22112   0.22504   0.23959   0.25173   0.25582
 Alpha virt. eigenvalues --    0.25898   0.26884   0.27823   0.28091   0.29138
 Alpha virt. eigenvalues --    0.29833   0.31869   0.32710   0.34467   0.35170
 Alpha virt. eigenvalues --    0.36385   0.37248   0.38820   0.41095   0.41549
 Alpha virt. eigenvalues --    0.42945   0.43466   0.44508   0.45822   0.47165
 Alpha virt. eigenvalues --    0.47670   0.49094   0.50273   0.50922   0.51562
 Alpha virt. eigenvalues --    0.51824   0.52927   0.56359   0.56806   0.59038
 Alpha virt. eigenvalues --    0.60574   0.61236   0.63924   0.64302   0.67342
 Alpha virt. eigenvalues --    0.69371   0.70923   0.72266   0.72747   0.75854
 Alpha virt. eigenvalues --    0.76282   0.79395   0.80310   0.81615   0.84333
 Alpha virt. eigenvalues --    0.85150   0.87734   0.90710   0.91998   0.96785
 Alpha virt. eigenvalues --    0.99334   1.01119   1.03068   1.04835   1.05787
 Alpha virt. eigenvalues --    1.07566   1.09950   1.11693   1.12168   1.14471
 Alpha virt. eigenvalues --    1.22326   1.23891   1.25888   1.32817   1.35564
 Alpha virt. eigenvalues --    1.35918   1.36393   1.43740   1.53563   1.56377
 Alpha virt. eigenvalues --    1.57222   1.57970   1.60109   1.61165   1.65267
 Alpha virt. eigenvalues --    1.68142   1.68406   1.73432   1.74777   1.78493
 Alpha virt. eigenvalues --    1.79903   1.84684   1.87588   1.89546   1.91375
 Alpha virt. eigenvalues --    1.96428   2.01916   2.02607   2.04141   2.06643
 Alpha virt. eigenvalues --    2.07585   2.14087   2.20423   2.22560   2.31141
 Alpha virt. eigenvalues --    2.36291   2.39936   2.40835   2.42922   2.51867
 Alpha virt. eigenvalues --    2.56393   2.62636   2.65499   2.67604   2.71170
 Alpha virt. eigenvalues --    2.72390   2.75531   2.76814   2.80173   2.80744
 Alpha virt. eigenvalues --    2.92305   2.94791   2.99870   3.03168   3.08146
 Alpha virt. eigenvalues --    3.12388   3.15376   3.19332   3.23001   3.24036
 Alpha virt. eigenvalues --    3.26661   3.38462   3.48214   3.50703   3.53365
 Alpha virt. eigenvalues --    3.55983   3.69178   3.73455   3.81606   3.86258
 Alpha virt. eigenvalues --    4.04378   4.04640   4.12521   4.17602   4.38550
 Alpha virt. eigenvalues --    4.43682   4.56442   4.59214   4.92387   4.95277
 Alpha virt. eigenvalues --    5.03685   5.08124   5.62099   6.15079   6.60184
 Alpha virt. eigenvalues --    7.43073   7.44641   7.54624  23.20496  23.60600
 Alpha virt. eigenvalues --   23.66624  23.79351  23.95681  24.00872  35.31957
 Alpha virt. eigenvalues --   47.86975  49.84734  49.93561 289.76342 289.78013
 Alpha virt. eigenvalues --  289.905001020.87458
          Condensed to atoms (all electrons):
               1          2          3          4          5          6
     1  C    8.628574  -1.842773   0.262032  -1.594534  -1.063682   0.298249
     2  C   -1.842773  12.376531  -2.119825  -2.493536   1.379855  -0.007351
     3  C    0.262032  -2.119825  13.355572  -2.652013  -1.630654   0.020494
     4  C   -1.594534  -2.493536  -2.652013  17.233045   0.635287   0.001346
     5  C   -1.063682   1.379855  -1.630654   0.635287   8.079225   0.008844
     6  H    0.298249  -0.007351   0.020494   0.001346   0.008844   0.257642
     7  H    0.038451   0.252208   0.042772  -0.012518  -0.013550  -0.000697
     8  H    0.014177  -0.050334   0.155837   0.091459  -0.033231   0.000003
     9  H    0.072212  -0.032360   0.011114  -0.021492   0.281213  -0.001822
    10  N   -0.084355   0.282933  -0.941591   0.322222   0.056276  -0.000266
    11  O    0.055877  -0.136061  -0.230638  -0.090146  -0.078377  -0.000033
    12  O    0.255269   0.097853  -0.303971  -0.095951  -0.029229  -0.000017
    13  C    1.507751  -2.212839   0.779615  -5.544253  -1.651676  -0.003015
    14  H   -0.025104   0.039065  -0.027087   0.148985   0.003248   0.000003
    15  Br  -0.003492   0.049720  -0.108187  -0.211438  -0.003188  -0.000185
               7          8          9         10         11         12
     1  C    0.038451   0.014177   0.072212  -0.084355   0.055877   0.255269
     2  C    0.252208  -0.050334  -0.032360   0.282933  -0.136061   0.097853
     3  C    0.042772   0.155837   0.011114  -0.941591  -0.230638  -0.303971
     4  C   -0.012518   0.091459  -0.021492   0.322222  -0.090146  -0.095951
     5  C   -0.013550  -0.033231   0.281213   0.056276  -0.078377  -0.029229
     6  H   -0.000697   0.000003  -0.001822  -0.000266  -0.000033  -0.000017
     7  H    0.238378   0.000043   0.000066  -0.017414  -0.000754   0.015188
     8  H    0.000043   0.376093   0.000097  -0.032607   0.029364  -0.001619
     9  H    0.000066   0.000097   0.312818   0.000197   0.000011   0.000002
    10  N   -0.017414  -0.032607   0.000197   7.407049   0.079000   0.239585
    11  O   -0.000754   0.029364   0.000011   0.079000   8.068068   0.000296
    12  O    0.015188  -0.001619   0.000002   0.239585   0.000296   7.638198
    13  C    0.009692   0.161143   0.015128  -0.224750   0.395293   0.012410
    14  H   -0.000031  -0.007189  -0.004990  -0.000311  -0.000009  -0.000092
    15  Br   0.000160   0.009495   0.009009   0.024097  -0.003241   0.002365
              13         14         15
     1  C    1.507751  -0.025104  -0.003492
     2  C   -2.212839   0.039065   0.049720
     3  C    0.779615  -0.027087  -0.108187
     4  C   -5.544253   0.148985  -0.211438
     5  C   -1.651676   0.003248  -0.003188
     6  H   -0.003015   0.000003  -0.000185
     7  H    0.009692  -0.000031   0.000160
     8  H    0.161143  -0.007189   0.009495
     9  H    0.015128  -0.004990   0.009009
    10  N   -0.224750  -0.000311   0.024097
    11  O    0.395293  -0.000009  -0.003241
    12  O    0.012410  -0.000092   0.002365
    13  C   12.683280   0.183285   0.365274
    14  H    0.183285   0.422749  -0.073572
    15  Br   0.365274  -0.073572  34.927737
 Mulliken charges:
               1
     1  C   -0.518651
     2  C    0.416914
     3  C   -0.613471
     4  C    0.283538
     5  C    0.059640
     6  H    0.426805
     7  H    0.448004
     8  H    0.287270
     9  H    0.358796
    10  N   -0.110065
    11  O   -0.088649
    12  O    0.169712
    13  C   -0.476339
    14  H    0.341050
    15  Br   0.015447
 Sum of Mulliken charges =   1.00000
 Mulliken charges with hydrogens summed into heavy atoms:
               1
     1  C   -0.091845
     2  C    0.864918
     3  C   -0.613471
     4  C    0.570808
     5  C    0.418436
    10  N   -0.110065
    11  O   -0.088649
    12  O    0.169712
    13  C   -0.135290
    15  Br   0.015447
 Electronic spatial extent (au):  <R**2>=           2801.8771
 Charge=              1.0000 electrons
 Dipole moment (field-independent basis, Debye):
    X=              0.0707    Y=              6.4303    Z=              0.8636  Tot=              6.4884
 Quadrupole moment (field-independent basis, Debye-Ang):
   XX=            -69.7521   YY=            -56.0304   ZZ=            -64.7847
   XY=              9.1229   XZ=              0.3388   YZ=             -1.5758
 Traceless Quadrupole moment (field-independent basis, Debye-Ang):
   XX=             -6.2297   YY=              7.4920   ZZ=             -1.2623
   XY=              9.1229   XZ=              0.3388   YZ=             -1.5758
 Octapole moment (field-independent basis, Debye-Ang**2):
  XXX=           -290.4172  YYY=            131.1812  ZZZ=             83.4701  XYY=            -71.6431
  XXY=             67.6553  XXZ=             33.1775  XZZ=            -76.1575  YZZ=             27.7872
  YYZ=             35.4499  XYZ=             -1.8239
 Hexadecapole moment (field-independent basis, Debye-Ang**3):
 XXXX=          -2246.5781 YYYY=           -729.8061 ZZZZ=           -365.3171 XXXY=             61.0261
 XXXZ=            -24.8653 YYYX=            -36.2021 YYYZ=           -186.7829 ZZZX=            -22.6076
 ZZZY=           -155.1686 XXYY=           -457.7993 XXZZ=           -372.8183 YYZZ=           -186.7232
 XXYZ=            -60.6284 YYXZ=             -8.2689 ZZXY=             -7.8973
 N-N= 7.419664235256D+02 E-N=-8.635599872609D+03  KE= 3.005871549632D+03
 No NMR shielding tensors so no spin-rotation constants.
 Leave Link  601 at Wed May  1 14:49:23 2024, MaxMem=  1207959552 cpu:               7.4 elap:               7.4
 (Enter /software/gaussian/g16-c01/sse4/g16/l9999.exe)
 Unable to Open any file for archive entry.
 1\1\GINC-BHX0033\SP\RwB97XD\6-311+G(d)\C6H5Br1N1O2(1+)\BWEIGHT\01-May-
 2024\0\\#P wB97XD/6-311+G* NoSymm #P Field=Y-243\\TitleMe\\1,1\C,0,0.0
 295,1.3397,0.0682\C,0,1.4348,1.2867,0.0064\C,0,2.1118,0.0511,-0.0054\C
 ,0,1.4451,-1.1372,0.0312\C,0,-0.6879,0.1682,0.11\H,0,-0.4713,2.2984,0.
 0781\H,0,2.0273,2.1965,-0.0322\H,0,1.9897,-2.0764,0.0232\H,0,-1.7716,0
 .1804,0.1582\N,0,3.5864,0.051,-0.0675\O,0,4.1471,-1.0597,-0.0881\O,0,4
 .145,1.1639,-0.0901\C,0,-0.0236,-1.1458,0.0835\H,0,-0.4367,-1.8725,0.7
 889\Br,0,-0.5359,-1.8697,-1.7408\\Version=ES64L-G16RevC.01\HF=-3010.56
 31675\RMSD=6.261e-09\Dipole=-1.8787333,3.6779448,1.4859511\Quadrupole=
 -4.6316286,5.5701165,-0.9384879,6.7826348,0.2519231,-1.1715629\PG=C01 
 [X(C6H5Br1N1O2)]\\@
 The archive entry for this job was punched.


 Sometimes the fool who rushes in gets the job done.
                                    -- Al Bernstein
 Job cpu time:       0 days  0 hours 21 minutes 33.5 seconds.
 Elapsed time:       0 days  0 hours 21 minutes 33.9 seconds.
 File lengths (MBytes):  RWF=     40 Int=      0 D2E=      0 Chk=     32 Scr=      1
 Normal termination of Gaussian 16 at Wed May  1 14:49:23 2024.
