 Entering Gaussian System, Link 0=g16
 Initial command:
 /software/gaussian/g16-a03/l1.exe "/local_scratch/6484828/Gau-7503.inp" -scrdir="/local_scratch/6484828/"
 Entering Link 1 = /software/gaussian/g16-a03/l1.exe PID=      7513.
  
 Copyright (c) 1988,1990,1992,1993,1995,1998,2003,2009,2016,
            Gaussian, Inc.  All Rights Reserved.
  
 This is part of the Gaussian(R) 16 program.  It is based on
 the Gaussian(R) 09 system (copyright 2009, Gaussian, Inc.),
 the Gaussian(R) 03 system (copyright 2003, Gaussian, Inc.),
 the Gaussian(R) 98 system (copyright 1998, Gaussian, Inc.),
 the Gaussian(R) 94 system (copyright 1995, Gaussian, Inc.),
 the Gaussian 92(TM) system (copyright 1992, Gaussian, Inc.),
 the Gaussian 90(TM) system (copyright 1990, Gaussian, Inc.),
 the Gaussian 88(TM) system (copyright 1988, Gaussian, Inc.),
 the Gaussian 86(TM) system (copyright 1986, Carnegie Mellon
 University), and the Gaussian 82(TM) system (copyright 1983,
 Carnegie Mellon University). Gaussian is a federally registered
 trademark of Gaussian, Inc.
  
 This software contains proprietary and confidential information,
 including trade secrets, belonging to Gaussian, Inc.
  
 This software is provided under written license and may be
 used, copied, transmitted, or stored only in accord with that
 written license.
  
 The following legend is applicable only to US Government
 contracts under FAR:
  
                    RESTRICTED RIGHTS LEGEND
  
 Use, reproduction and disclosure by the US Government is
 subject to restrictions as set forth in subparagraphs (a)
 and (c) of the Commercial Computer Software - Restricted
 Rights clause in FAR 52.227-19.
  
 Gaussian, Inc.
 340 Quinnipiac St., Bldg. 40, Wallingford CT 06492
  
  
 ---------------------------------------------------------------
 Warning -- This program may not be used in any manner that
 competes with the business of Gaussian, Inc. or will provide
 assistance to any competitor of Gaussian, Inc.  The licensee
 of this program is prohibited from giving any competitor of
 Gaussian, Inc. access to this program.  By using this program,
 the user acknowledges that Gaussian, Inc. is engaged in the
 business of creating and licensing software in the field of
 computational chemistry and represents and warrants to the
 licensee that it is not a competitor of Gaussian, Inc. and that
 it will not use this program in any manner prohibited above.
 ---------------------------------------------------------------
  

 Cite this work as:
 Gaussian 16, Revision A.03,
 M. J. Frisch, G. W. Trucks, H. B. Schlegel, G. E. Scuseria, 
 M. A. Robb, J. R. Cheeseman, G. Scalmani, V. Barone, 
 G. A. Petersson, H. Nakatsuji, X. Li, M. Caricato, A. V. Marenich, 
 J. Bloino, B. G. Janesko, R. Gomperts, B. Mennucci, H. P. Hratchian, 
 J. V. Ortiz, A. F. Izmaylov, J. L. Sonnenberg, D. Williams-Young, 
 F. Ding, F. Lipparini, F. Egidi, J. Goings, B. Peng, A. Petrone, 
 T. Henderson, D. Ranasinghe, V. G. Zakrzewski, J. Gao, N. Rega, 
 G. Zheng, W. Liang, M. Hada, M. Ehara, K. Toyota, R. Fukuda, 
 J. Hasegawa, M. Ishida, T. Nakajima, Y. Honda, O. Kitao, H. Nakai, 
 T. Vreven, K. Throssell, J. A. Montgomery, Jr., J. E. Peralta, 
 F. Ogliaro, M. J. Bearpark, J. J. Heyd, E. N. Brothers, K. N. Kudin, 
 V. N. Staroverov, T. A. Keith, R. Kobayashi, J. Normand, 
 K. Raghavachari, A. P. Rendell, J. C. Burant, S. S. Iyengar, 
 J. Tomasi, M. Cossi, J. M. Millam, M. Klene, C. Adamo, R. Cammi, 
 J. W. Ochterski, R. L. Martin, K. Morokuma, O. Farkas, 
 J. B. Foresman, and D. J. Fox, Gaussian, Inc., Wallingford CT, 2016.
 
 ******************************************
 Gaussian 16:  ES64L-G16RevA.03 25-Dec-2016
                17-Sep-2021 
 ******************************************
 %chk=geometry.chk
 %mem=2GB
 %nprocshared=1
 Will use up to    1 processors via shared memory.
 --------------------------------------------------------------------
 #p B3LYP/6-311+G** #p TD=(singlets,nstates=30)IOp(6/8=3) IOp(9/40=4)
 --------------------------------------------------------------------
 1/38=1,172=1/1;
 2/12=2,17=6,18=5,40=1/2;
 3/5=4,6=6,7=111,11=9,25=1,30=1,74=-5/1,2,3,8;
 4//1;
 5/5=2,38=5/2;
 8/6=1,10=2,108=30/1;
 9/40=4,41=30,42=1,48=1,70=2/14;
 6/7=2,8=3,9=2,10=2/1;
 99/5=1,9=1/99;
 Leave Link    1 at Fri Sep 17 10:52:08 2021, MaxMem=   268435456 cpu:               0.0 elap:               0.4
 (Enter /software/gaussian/g16-a03/l101.exe)
 -------------------------------
 Scan Step 97, Bond Length 0.985
 -------------------------------
 Symbolic Z-matrix:
 Charge =  0 Multiplicity = 1
 C                     0.        0.       -0.52736 
 H                     0.        0.93726  -1.11871 
 H                     0.       -0.93726  -1.11871 
 O                     0.        0.        0.45764 
 
 ITRead=  0  0  0  0
 MicOpt= -1 -1 -1 -1
 NAtoms=      4 NQM=        4 NQMF=       0 NMMI=      0 NMMIF=      0
                NMic=       0 NMicF=      0.
                    Isotopes and Nuclear Properties:
 (Nuclear quadrupole moments (NQMom) in fm**2, nuclear magnetic moments (NMagM)
  in nuclear magnetons)

  Atom         1           2           3           4
 IAtWgt=          12           1           1          16
 AtmWgt=  12.0000000   1.0078250   1.0078250  15.9949146
 NucSpn=           0           1           1           0
 AtZEff=  -0.0000000  -0.0000000  -0.0000000  -0.0000000
 NQMom=    0.0000000   0.0000000   0.0000000   0.0000000
 NMagM=    0.0000000   2.7928460   2.7928460   0.0000000
 AtZNuc=   6.0000000   1.0000000   1.0000000   8.0000000
 Leave Link  101 at Fri Sep 17 10:52:09 2021, MaxMem=   268435456 cpu:               0.1 elap:               0.1
 (Enter /software/gaussian/g16-a03/l202.exe)
                          Input orientation:                          
 ---------------------------------------------------------------------
 Center     Atomic      Atomic             Coordinates (Angstroms)
 Number     Number       Type             X           Y           Z
 ---------------------------------------------------------------------
      1          6           0        0.000000    0.000000   -0.527360
      2          1           0        0.000000    0.937260   -1.118710
      3          1           0        0.000000   -0.937260   -1.118710
      4          8           0        0.000000    0.000000    0.457640
 ---------------------------------------------------------------------
                    Distance matrix (angstroms):
                    1          2          3          4
     1  C    0.000000
     2  H    1.108220   0.000000
     3  H    1.108220   1.874520   0.000000
     4  O    0.985000   1.833940   1.833940   0.000000
 Stoichiometry    CH2O
 Framework group  C2V[C2(CO),SGV(H2)]
 Deg. of freedom     3
 Full point group                 C2V     NOp   4
 Largest Abelian subgroup         C2V     NOp   4
 Largest concise Abelian subgroup C2      NOp   2
                         Standard orientation:                         
 ---------------------------------------------------------------------
 Center     Atomic      Atomic             Coordinates (Angstroms)
 Number     Number       Type             X           Y           Z
 ---------------------------------------------------------------------
      1          6           0        0.000000    0.000000   -0.418581
      2          1           0        0.000000    0.937260   -1.009931
      3          1           0       -0.000000   -0.937260   -1.009931
      4          8           0        0.000000   -0.000000    0.566419
 ---------------------------------------------------------------------
 Rotational constants (GHZ):         285.4183527          55.1927692          46.2493097
 Leave Link  202 at Fri Sep 17 10:52:09 2021, MaxMem=   268435456 cpu:               0.0 elap:               0.0
 (Enter /software/gaussian/g16-a03/l301.exe)
 Standard basis: 6-311+G(d,p) (5D, 7F)
 Ernie: Thresh=  0.10000D-02 Tol=  0.10000D-05 Strict=F.
 There are    29 symmetry adapted cartesian basis functions of A1  symmetry.
 There are     3 symmetry adapted cartesian basis functions of A2  symmetry.
 There are    11 symmetry adapted cartesian basis functions of B1  symmetry.
 There are    15 symmetry adapted cartesian basis functions of B2  symmetry.
 There are    27 symmetry adapted basis functions of A1  symmetry.
 There are     3 symmetry adapted basis functions of A2  symmetry.
 There are    11 symmetry adapted basis functions of B1  symmetry.
 There are    15 symmetry adapted basis functions of B2  symmetry.
    56 basis functions,    88 primitive gaussians,    58 cartesian basis functions
     8 alpha electrons        8 beta electrons
       nuclear repulsion energy        36.4163867170 Hartrees.
 IExCor=  402 DFT=T Ex+Corr=B3LYP ExCW=0 ScaHFX=  0.200000
 ScaDFX=  0.800000  0.720000  1.000000  0.810000 ScalE2=  1.000000  1.000000
 IRadAn=      5 IRanWt=     -1 IRanGd=            0 ICorTp=0 IEmpDi=  4
 NAtoms=    4 NActive=    4 NUniq=    3 SFac= 1.78D+00 NAtFMM=   60 NAOKFM=F Big=F
 Integral buffers will be    131072 words long.
 Regular integral format.
 Two-electron integral symmetry is turned on.
 Leave Link  301 at Fri Sep 17 10:52:09 2021, MaxMem=   268435456 cpu:               0.1 elap:               0.1
 (Enter /software/gaussian/g16-a03/l302.exe)
 NPDir=0 NMtPBC=     1 NCelOv=     1 NCel=       1 NClECP=     1 NCelD=      1
         NCelK=      1 NCelE2=     1 NClLst=     1 CellRange=     0.0.
 One-electron integrals computed using PRISM.
 One-electron integral symmetry used in STVInt
 NBasis=    56 RedAO= T EigKep=  1.88D-03  NBF=    27     3    11    15
 NBsUse=    56 1.00D-06 EigRej= -1.00D+00 NBFU=    27     3    11    15
 Precomputing XC quadrature grid using
 IXCGrd= 4 IRadAn=           5 IRanWt=          -1 IRanGd=           0 AccXCQ= 0.00D+00.
 Generated NRdTot=       0 NPtTot=           0 NUsed=           0 NTot=          32
 NSgBfM=    58    58    58    58    58 MxSgAt=     4 MxSgA2=     4.
 Leave Link  302 at Fri Sep 17 10:52:09 2021, MaxMem=   268435456 cpu:               0.1 elap:               0.1
 (Enter /software/gaussian/g16-a03/l303.exe)
 DipDrv:  MaxL=1.
 Leave Link  303 at Fri Sep 17 10:52:09 2021, MaxMem=   268435456 cpu:               0.0 elap:               0.0
 (Enter /software/gaussian/g16-a03/l308.exe)
 Leave Link  308 at Fri Sep 17 10:52:09 2021, MaxMem=   268435456 cpu:               0.0 elap:               0.0
 (Enter /software/gaussian/g16-a03/l401.exe)
 ExpMin= 4.38D-02 ExpMax= 8.59D+03 ExpMxC= 1.30D+03 IAcc=3 IRadAn=         5 AccDes= 0.00D+00
 Harris functional with IExCor=  402 and IRadAn=       5 diagonalized for initial guess.
 HarFok:  IExCor=  402 AccDes= 0.00D+00 IRadAn=         5 IDoV= 1 UseB2=F ITyADJ=14
 ICtDFT=  3500011 ScaDFX=  1.000000  1.000000  1.000000  1.000000
 FoFCou: FMM=F IPFlag=           0 FMFlag=      100000 FMFlg1=           0
         NFxFlg=           0 DoJE=T BraDBF=F KetDBF=T FulRan=T
         wScrn=  0.000000 ICntrl=       500 IOpCl=  0 I1Cent=   200000004 NGrid=           0
         NMat0=    1 NMatS0=      1 NMatT0=    0 NMatD0=    1 NMtDS0=    0 NMtDT0=    0
 Petite list used in FoFCou.
 Harris En= -114.467052197096    
 JPrj=0 DoOrth=F DoCkMO=F.
 Initial guess orbital symmetries:
       Occupied  (A1) (A1) (A1) (A1) (B2) (A1) (B1) (B2)
       Virtual   (B1) (A1) (A1) (B2) (B1) (A1) (A1) (B2) (B2) (B1)
                 (A1) (A1) (A1) (B2) (B1) (B2) (A1) (A1) (A2) (B1)
                 (B2) (A1) (B1) (A1) (A1) (B2) (B2) (A2) (B1) (A1)
                 (A1) (A1) (B2) (B2) (B1) (A1) (A1) (A2) (B1) (A1)
                 (B2) (A1) (B2) (B1) (B2) (A1) (A1) (A1)
 The electronic state of the initial guess is 1-A1.
 Leave Link  401 at Fri Sep 17 10:52:10 2021, MaxMem=   268435456 cpu:               0.3 elap:               0.3
 (Enter /software/gaussian/g16-a03/l502.exe)
 Keep R1 ints in memory in symmetry-blocked form, NReq=2159909.
 FoFCou: FMM=F IPFlag=           0 FMFlag=           0 FMFlg1=           0
         NFxFlg=           0 DoJE=F BraDBF=F KetDBF=F FulRan=T
         wScrn=  0.000000 ICntrl=       600 IOpCl=  0 I1Cent=           0 NGrid=           0
         NMat0=    1 NMatS0=   1596 NMatT0=    0 NMatD0=    1 NMtDS0=    0 NMtDT0=    0
 Petite list used in FoFCou.
 Closed shell SCF:
 Using DIIS extrapolation, IDIIS=  1040.
 NGot=   268435456 LenX=   268074384 LenY=   268070579
 Requested convergence on RMS density matrix=1.00D-08 within 128 cycles.
 Requested convergence on MAX density matrix=1.00D-06.
 Requested convergence on             energy=1.00D-06.
 No special actions if energy rises.

 Cycle   1  Pass 1  IDiag  1:
 E= -114.322553259351    
 DIIS: error= 5.91D-02 at cycle   1 NSaved=   1.
 NSaved= 1 IEnMin= 1 EnMin= -114.322553259351     IErMin= 1 ErrMin= 5.91D-02
 ErrMax= 5.91D-02  0.00D+00 EMaxC= 1.00D-01 BMatC= 1.48D-01 BMatP= 1.48D-01
 IDIUse=3 WtCom= 4.09D-01 WtEn= 5.91D-01
 Coeff-Com:  0.100D+01
 Coeff-En:   0.100D+01
 Coeff:      0.100D+01
 Gap=     0.172 Goal=   None    Shift=    0.000
 GapD=    0.172 DampG=1.000 DampE=0.500 DampFc=0.5000 IDamp=-1.
 Damping current iteration by 5.00D-01
 RMSDP=1.14D-02 MaxDP=1.37D-01              OVMax= 2.38D-01

 Cycle   2  Pass 1  IDiag  1:
 E= -114.352353977155     Delta-E=       -0.029800717804 Rises=F Damp=T
 DIIS: error= 1.85D-02 at cycle   2 NSaved=   2.
 NSaved= 2 IEnMin= 2 EnMin= -114.352353977155     IErMin= 2 ErrMin= 1.85D-02
 ErrMax= 1.85D-02  0.00D+00 EMaxC= 1.00D-01 BMatC= 1.15D-02 BMatP= 1.48D-01
 IDIUse=3 WtCom= 8.15D-01 WtEn= 1.85D-01
 Coeff-Com:  0.153D+00 0.847D+00
 Coeff-En:   0.311D+00 0.689D+00
 Coeff:      0.182D+00 0.818D+00
 Gap=     0.279 Goal=   None    Shift=    0.000
 RMSDP=2.69D-03 MaxDP=3.24D-02 DE=-2.98D-02 OVMax= 1.52D-01

 Cycle   3  Pass 1  IDiag  1:
 E= -114.414676359508     Delta-E=       -0.062322382353 Rises=F Damp=F
 DIIS: error= 1.22D-02 at cycle   3 NSaved=   3.
 NSaved= 3 IEnMin= 3 EnMin= -114.414676359508     IErMin= 3 ErrMin= 1.22D-02
 ErrMax= 1.22D-02  0.00D+00 EMaxC= 1.00D-01 BMatC= 5.42D-03 BMatP= 1.15D-02
 IDIUse=3 WtCom= 8.78D-01 WtEn= 1.22D-01
 Coeff-Com:  0.175D-01 0.408D+00 0.575D+00
 Coeff-En:   0.000D+00 0.000D+00 0.100D+01
 Coeff:      0.154D-01 0.358D+00 0.627D+00
 Gap=     0.252 Goal=   None    Shift=    0.000
 RMSDP=9.86D-04 MaxDP=1.83D-02 DE=-6.23D-02 OVMax= 3.19D-02

 Cycle   4  Pass 1  IDiag  1:
 E= -114.418302752906     Delta-E=       -0.003626393397 Rises=F Damp=F
 DIIS: error= 4.04D-03 at cycle   4 NSaved=   4.
 NSaved= 4 IEnMin= 4 EnMin= -114.418302752906     IErMin= 4 ErrMin= 4.04D-03
 ErrMax= 4.04D-03  0.00D+00 EMaxC= 1.00D-01 BMatC= 5.29D-04 BMatP= 5.42D-03
 IDIUse=3 WtCom= 9.60D-01 WtEn= 4.04D-02
 Coeff-Com: -0.129D-01 0.522D-01 0.277D+00 0.684D+00
 Coeff-En:   0.000D+00 0.000D+00 0.292D-01 0.971D+00
 Coeff:     -0.124D-01 0.501D-01 0.267D+00 0.696D+00
 Gap=     0.253 Goal=   None    Shift=    0.000
 RMSDP=2.72D-04 MaxDP=6.15D-03 DE=-3.63D-03 OVMax= 6.07D-03

 Cycle   5  Pass 1  IDiag  1:
 E= -114.418727685520     Delta-E=       -0.000424932614 Rises=F Damp=F
 DIIS: error= 1.91D-04 at cycle   5 NSaved=   5.
 NSaved= 5 IEnMin= 5 EnMin= -114.418727685520     IErMin= 5 ErrMin= 1.91D-04
 ErrMax= 1.91D-04  0.00D+00 EMaxC= 1.00D-01 BMatC= 1.98D-06 BMatP= 5.29D-04
 IDIUse=3 WtCom= 9.98D-01 WtEn= 1.91D-03
 Coeff-Com: -0.390D-03-0.226D-02 0.251D-01 0.109D+00 0.869D+00
 Coeff-En:   0.000D+00 0.000D+00 0.000D+00 0.000D+00 0.100D+01
 Coeff:     -0.389D-03-0.226D-02 0.250D-01 0.109D+00 0.869D+00
 Gap=     0.253 Goal=   None    Shift=    0.000
 RMSDP=3.38D-05 MaxDP=3.64D-04 DE=-4.25D-04 OVMax= 5.96D-04

 Cycle   6  Pass 1  IDiag  1:
 E= -114.418729758594     Delta-E=       -0.000002073074 Rises=F Damp=F
 DIIS: error= 1.50D-05 at cycle   6 NSaved=   6.
 NSaved= 6 IEnMin= 6 EnMin= -114.418729758594     IErMin= 6 ErrMin= 1.50D-05
 ErrMax= 1.50D-05  0.00D+00 EMaxC= 1.00D-01 BMatC= 7.14D-09 BMatP= 1.98D-06
 IDIUse=1 WtCom= 1.00D+00 WtEn= 0.00D+00
 Coeff-Com:  0.221D-03-0.593D-03-0.144D-02-0.630D-04 0.322D-01 0.970D+00
 Coeff:      0.221D-03-0.593D-03-0.144D-02-0.630D-04 0.322D-01 0.970D+00
 Gap=     0.253 Goal=   None    Shift=    0.000
 RMSDP=1.66D-06 MaxDP=1.67D-05 DE=-2.07D-06 OVMax= 3.47D-05

 Cycle   7  Pass 1  IDiag  1:
 E= -114.418729765984     Delta-E=       -0.000000007390 Rises=F Damp=F
 DIIS: error= 1.66D-06 at cycle   7 NSaved=   7.
 NSaved= 7 IEnMin= 7 EnMin= -114.418729765984     IErMin= 7 ErrMin= 1.66D-06
 ErrMax= 1.66D-06  0.00D+00 EMaxC= 1.00D-01 BMatC= 5.91D-11 BMatP= 7.14D-09
 IDIUse=1 WtCom= 1.00D+00 WtEn= 0.00D+00
 Coeff-Com: -0.534D-05 0.704D-05-0.581D-04-0.639D-03-0.615D-02 0.337D-02
 Coeff-Com:  0.100D+01
 Coeff:     -0.534D-05 0.704D-05-0.581D-04-0.639D-03-0.615D-02 0.337D-02
 Coeff:      0.100D+01
 Gap=     0.253 Goal=   None    Shift=    0.000
 RMSDP=2.24D-07 MaxDP=2.03D-06 DE=-7.39D-09 OVMax= 3.62D-06

 Cycle   8  Pass 1  IDiag  1:
 E= -114.418729766046     Delta-E=       -0.000000000062 Rises=F Damp=F
 DIIS: error= 1.13D-07 at cycle   8 NSaved=   8.
 NSaved= 8 IEnMin= 8 EnMin= -114.418729766046     IErMin= 8 ErrMin= 1.13D-07
 ErrMax= 1.13D-07  0.00D+00 EMaxC= 1.00D-01 BMatC= 3.24D-13 BMatP= 5.91D-11
 IDIUse=1 WtCom= 1.00D+00 WtEn= 0.00D+00
 Coeff-Com: -0.136D-05 0.291D-05 0.633D-05-0.235D-04-0.304D-03-0.455D-02
 Coeff-Com: -0.819D-02 0.101D+01
 Coeff:     -0.136D-05 0.291D-05 0.633D-05-0.235D-04-0.304D-03-0.455D-02
 Coeff:     -0.819D-02 0.101D+01
 Gap=     0.253 Goal=   None    Shift=    0.000
 RMSDP=1.65D-08 MaxDP=1.45D-07 DE=-6.16D-11 OVMax= 3.85D-07

 Cycle   9  Pass 1  IDiag  1:
 E= -114.418729766046     Delta-E=       -0.000000000000 Rises=F Damp=F
 DIIS: error= 1.29D-08 at cycle   9 NSaved=   9.
 NSaved= 9 IEnMin= 9 EnMin= -114.418729766046     IErMin= 9 ErrMin= 1.29D-08
 ErrMax= 1.29D-08  0.00D+00 EMaxC= 1.00D-01 BMatC= 5.67D-15 BMatP= 3.24D-13
 IDIUse=1 WtCom= 1.00D+00 WtEn= 0.00D+00
 Coeff-Com: -0.434D-07 0.275D-06 0.506D-06-0.205D-05-0.796D-05-0.531D-03
 Coeff-Com: -0.744D-02 0.148D+00 0.860D+00
 Coeff:     -0.434D-07 0.275D-06 0.506D-06-0.205D-05-0.796D-05-0.531D-03
 Coeff:     -0.744D-02 0.148D+00 0.860D+00
 Gap=     0.253 Goal=   None    Shift=    0.000
 RMSDP=1.98D-09 MaxDP=2.56D-08 DE=-3.69D-13 OVMax= 2.63D-08

 SCF Done:  E(RB3LYP) =  -114.418729766     A.U. after    9 cycles
            NFock=  9  Conv=0.20D-08     -V/T= 1.9907
 KE= 1.154931256681D+02 PE=-3.424078036679D+02 EE= 7.607956151681D+01
 Leave Link  502 at Fri Sep 17 10:52:12 2021, MaxMem=   268435456 cpu:               1.6 elap:               2.0
 (Enter /software/gaussian/g16-a03/l801.exe)
 DoSCS=F DFT=T ScalE2(SS,OS)=  1.000000  1.000000
 ExpMin= 4.38D-02 ExpMax= 8.59D+03 ExpMxC= 1.30D+03 IAcc=3 IRadAn=         5 AccDes= 0.00D+00
 HarFok:  IExCor=  205 AccDes= 0.00D+00 IRadAn=         5 IDoV=-2 UseB2=F ITyADJ=14
 ICtDFT= 12500011 ScaDFX=  1.000000  1.000000  1.000000  1.000000
 Largest valence mixing into a core orbital is  4.21D-05
 Largest core mixing into a valence orbital is  7.97D-06
 Range of M.O.s used for correlation:     3    56
 NBasis=    56 NAE=     8 NBE=     8 NFC=     2 NFV=     0
 NROrb=     54 NOA=     6 NOB=     6 NVA=    48 NVB=    48
 Leave Link  801 at Fri Sep 17 10:52:12 2021, MaxMem=   268435456 cpu:               0.2 elap:               0.2
 (Enter /software/gaussian/g16-a03/l914.exe)
 RHF ground state
 Keep R1, R2, and R3 ints in memory in symmetry-blocked form, NReq=6042848.
 FoFCou: FMM=F IPFlag=           0 FMFlag=           0 FMFlg1=           0
         NFxFlg=           0 DoJE=F BraDBF=F KetDBF=F FulRan=T
         wScrn=  0.000000 ICntrl=       600 IOpCl=  0 I1Cent=           0 NGrid=           0
         NMat0=    1 NMatS0=   1596 NMatT0=    0 NMatD0=    1 NMtDS0=    0 NMtDT0=    0
 Petite list used in FoFCou.
 MDV=   268435456 DFT=T DoStab=F Mixed=T DoRPA=T DoScal=F NonHer=T
 Making orbital integer symmetry assigments:
 Orbital symmetries:
       Occupied  (A1) (A1) (A1) (A1) (B2) (B1) (A1) (B2)
       Virtual   (B1) (A1) (A1) (B2) (B1) (A1) (A1) (B2) (B1) (B2)
                 (A1) (A1) (A1) (B2) (B1) (B2) (A1) (A1) (A2) (B1)
                 (B2) (A1) (B1) (A1) (B2) (A1) (B2) (A2) (B1) (A1)
                 (A1) (B2) (A1) (B2) (B1) (A1) (A1) (A2) (B1) (B2)
                 (A1) (B2) (A1) (B1) (B2) (A1) (A1) (A1)
   120 initial guesses have been made.
 Convergence on wavefunction:    0.001000000000000
 Davidson Disk Diagonalization:  ConvIn= 1.00D-03 SkipCon=T Conv= 1.00D-03.
 Max sub-space:  1728 roots to seek:   120 dimension of matrix:          576
 Iteration     1 Dimension   120 NMult     0 NNew    120
 CISAX will form   120 AO SS matrices at one time.
 NMat=   120 NSing=   120 JSym2X=-1.
 New state     10 was old state     11
 New state     11 was old state     10
 New state     12 was old state     14
 New state     14 was old state     15
 New state     15 was old state     20
 New state     18 was old state     19
 New state     19 was old state     18
 New state     20 was old state     12
 New state     24 was old state     27
 New state     26 was old state     24
 New state     27 was old state     26
 New state     28 was old state     30
 New state     30 was old state     31
 Excitation Energies [eV] at current iteration:
 Root      1 :     5.188930003681562
 Root      2 :     6.306658613398146
 Root      3 :     7.096855887992095
 Root      4 :     7.234425544295926
 Root      5 :     7.796045504122178
 Root      6 :    10.165468461137080
 Root      7 :    10.636418557487880
 Root      8 :    11.585044827914800
 Root      9 :    11.697460769301860
 Root     10 :    12.005786443589840
 Root     11 :    12.118801010313400
 Root     12 :    12.992940157225960
 Root     13 :    13.034419240320170
 Root     14 :    13.089703711281580
 Root     15 :    13.356471316888530
 Root     16 :    13.626670055154610
 Root     17 :    13.842997367376250
 Root     18 :    13.869817131048050
 Root     19 :    13.874252826265460
 Root     20 :    13.942026914060140
 Root     21 :    14.509987768096940
 Root     22 :    14.648548177987610
 Root     23 :    14.907554239622050
 Root     24 :    15.373692216453620
 Root     25 :    15.526417492964200
 Root     26 :    15.618358774997810
 Root     27 :    15.712413163479670
 Root     28 :    16.128842268499130
 Root     29 :    16.186162698798010
 Root     30 :    16.461011752285430
 Root     31 :    16.546735215504190
 Root     32 :    16.861023820650760
 Root     33 :    16.883741379525880
 Root     34 :    17.225525085485670
 Root     35 :    17.323298326174520
 Root     36 :    17.765295307734280
 Root     37 :    17.832634600880060
 Root     38 :    17.947253356024260
 Root     39 :    17.971189579728830
 Root     40 :    18.193095874749710
 Root     41 :    18.541257789111850
 Root     42 :    18.619668699274320
 Root     43 :    18.729461463013450
 Root     44 :    19.089051432772440
 Root     45 :    19.337138670458240
 Root     46 :    19.433600350223990
 Root     47 :    19.753470385089140
 Root     48 :    19.778883887232230
 Root     49 :    19.944649042532750
 Root     50 :    19.952073660964350
 Root     51 :    20.065471407403250
 Root     52 :    20.497500791479220
 Root     53 :    20.879175938320430
 Root     54 :    21.021256408313790
 Root     55 :    21.279620035353010
 Root     56 :    21.463759826040270
 Root     57 :    21.501674877394650
 Root     58 :    21.669215584101970
 Root     59 :    22.111833138744490
 Root     60 :    22.317229076293090
 Root     61 :    22.914542816985470
 Root     62 :    23.858124402519640
 Root     63 :    23.885760994486380
 Root     64 :    24.474018306638690
 Root     65 :    25.318768669099790
 Root     66 :    25.876956264151350
 Root     67 :    25.982811268113070
 Root     68 :    26.002748179569660
 Root     69 :    26.146033904631160
 Root     70 :    26.283080755698850
 Root     71 :    26.913807989029040
 Root     72 :    27.487409012074490
 Root     73 :    27.593316471485370
 Root     74 :    28.165190109089760
 Root     75 :    28.989936563335090
 Root     76 :    29.297918608864070
 Root     77 :    29.315384982248340
 Root     78 :    29.471977305764300
 Root     79 :    29.587502849646430
 Root     80 :    30.570070610389890
 Root     81 :    30.697012735771940
 Root     82 :    31.011634565554420
 Root     83 :    31.247035776543080
 Root     84 :    32.174694730921820
 Root     85 :    32.355358417215400
 Root     86 :    32.534854184351960
 Root     87 :    32.575285800443100
 Root     88 :    33.006751752898470
 Root     89 :    33.094578926771730
 Root     90 :    33.103024230446120
 Root     91 :    33.146003915203500
 Root     92 :    33.781110473891280
 Root     93 :    34.361383498316980
 Root     94 :    35.362279359037220
 Root     95 :    35.655409074282830
 Root     96 :    35.968713637789510
 Root     97 :    36.576631337458210
 Root     98 :    36.960195194489700
 Root     99 :    37.222306680957840
 Root    100 :    37.833904066864170
 Root    101 :    37.840930215388080
 Root    102 :    38.157994965549770
 Root    103 :    38.767739680701630
 Root    104 :    38.906140679502010
 Root    105 :    39.122195041801060
 Root    106 :    39.387721352503940
 Root    107 :    39.528555809604580
 Root    108 :    39.789480374705040
 Root    109 :    40.105664019032940
 Root    110 :    40.327647682059110
 Root    111 :    40.841662605036050
 Root    112 :    41.415813049884480
 Root    113 :    41.458816493459790
 Root    114 :    41.697584367325100
 Root    115 :    42.005368063471760
 Root    116 :    42.543106089241260
 Root    117 :    42.838013597330220
 Root    118 :    42.913348237528250
 Root    119 :    43.191603858489060
 Root    120 :    48.512413671172550
 Iteration     2 Dimension   180 NMult   120 NNew     60
 CISAX will form    60 AO SS matrices at one time.
 NMat=    60 NSing=    60 JSym2X=-1.
 Root      1 not converged, maximum delta is    0.005725650383481
 Root      2 not converged, maximum delta is    0.003487539722232
 Root      3 not converged, maximum delta is    0.002603980412867
 Root      4 not converged, maximum delta is    0.003826062952838
 Root      5 not converged, maximum delta is    0.002237524366896
 Root      6 not converged, maximum delta is    0.007522111687376
 Root      7 not converged, maximum delta is    0.002167666481979
 Root      8 not converged, maximum delta is    0.004721151147750
 Root      9 not converged, maximum delta is    0.001459404691688
 Root     10 not converged, maximum delta is    0.011202513782663
 Root     11 not converged, maximum delta is    0.013390185386084
 Root     12 not converged, maximum delta is    0.001345635182898
 Root     13 not converged, maximum delta is    0.015721625228995
 Root     14 not converged, maximum delta is    0.005994175192774
 Root     15 not converged, maximum delta is    0.006543790616222
 Root     16 not converged, maximum delta is    0.066732035511387
 Root     17 not converged, maximum delta is    0.005741082003089
 New state     18 was old state     19
 Root     18 not converged, maximum delta is    0.007672742823012
 New state     19 was old state     18
 Root     19 not converged, maximum delta is    0.001337721264059
 Root     20 not converged, maximum delta is    0.051671381341190
 Root     21 not converged, maximum delta is    0.012856958620321
 Root     22 not converged, maximum delta is    0.004768054398708
 Root     23 not converged, maximum delta is    0.024835438586872
 Root     24 not converged, maximum delta is    0.033404722196655
 Root     25 not converged, maximum delta is    0.032052343910095
 Root     26 not converged, maximum delta is    0.040070219550151
 Root     27 not converged, maximum delta is    0.019544414306998
 Root     28 not converged, maximum delta is    0.002584695625548
 Root     29 not converged, maximum delta is    0.030621233422808
 Root     30 not converged, maximum delta is    0.027927401714394
 Excitation Energies [eV] at current iteration:
 Root      1 :     5.177081244914671   Change is   -0.011848758766891
 Root      2 :     6.303433645740807   Change is   -0.003224967657339
 Root      3 :     7.091506171455565   Change is   -0.005349716536530
 Root      4 :     7.231088629350092   Change is   -0.003336914945834
 Root      5 :     7.794252375778091   Change is   -0.001793128344088
 Root      6 :    10.150571331114710   Change is   -0.014897130022368
 Root      7 :    10.634500997713960   Change is   -0.001917559773917
 Root      8 :    11.574819125664130   Change is   -0.010225702250665
 Root      9 :    11.696274015786460   Change is   -0.001186753515397
 Root     10 :    11.934503166680440   Change is   -0.071283276909400
 Root     11 :    12.103886517886140   Change is   -0.014914492427254
 Root     12 :    12.991967610345330   Change is   -0.000972546880639
 Root     13 :    13.016560383724760   Change is   -0.017858856595406
 Root     14 :    13.081123735245320   Change is   -0.008579976036265
 Root     15 :    13.350112435859390   Change is   -0.006358881029142
 Root     16 :    13.590599526347360   Change is   -0.036070528807244
 Root     17 :    13.835690426396720   Change is   -0.007306940979531
 Root     18 :    13.869385888371910   Change is   -0.004866937893552
 Root     19 :    13.869402763298040   Change is   -0.000414367750013
 Root     20 :    13.894224385305090   Change is   -0.047802528755056
 Root     21 :    14.492818983648060   Change is   -0.017168784448877
 Root     22 :    14.645355563738560   Change is   -0.003192614249043
 Root     23 :    14.862911828318870   Change is   -0.044642411303176
 Root     24 :    15.355300970842860   Change is   -0.018391245610757
 Root     25 :    15.519479305216180   Change is   -0.006938187748017
 Root     26 :    15.546117611428620   Change is   -0.072241163569194
 Root     27 :    15.698730501128170   Change is   -0.013682662351499
 Root     28 :    16.127704334729270   Change is   -0.001137933769862
 Root     29 :    16.175660369508230   Change is   -0.010502329289777
 Root     30 :    16.425128599460190   Change is   -0.035883152825239
 Iteration     3 Dimension   239 NMult   180 NNew     59
 CISAX will form    59 AO SS matrices at one time.
 NMat=    59 NSing=    59 JSym2X=-1.
 Root      1 has converged.
 Root      2 has converged.
 Root      3 has converged.
 Root      4 has converged.
 Root      5 has converged.
 Root      6 has converged.
 Root      7 has converged.
 Root      8 has converged.
 Root      9 has converged.
 Root     10 has converged.
 Root     11 has converged.
 Root     12 has converged.
 Root     13 has converged.
 Root     14 has converged.
 Root     15 has converged.
 Root     16 has converged.
 Root     17 has converged.
 Root     18 has converged.
 Root     19 has converged.
 Root     20 has converged.
 Root     21 has converged.
 Root     22 has converged.
 Root     23 has converged.
 Root     24 has converged.
 Root     25 has converged.
 Root     26 has converged.
 Root     27 has converged.
 Root     28 has converged.
 Root     29 has converged.
 Root     30 has converged.
 Excitation Energies [eV] at current iteration:
 Root      1 :     5.177078753451878   Change is   -0.000002491462793
 Root      2 :     6.303431368255352   Change is   -0.000002277485455
 Root      3 :     7.091503635455497   Change is   -0.000002536000068
 Root      4 :     7.231086587134094   Change is   -0.000002042215998
 Root      5 :     7.794252028764331   Change is   -0.000000347013760
 Root      6 :    10.150564129037230   Change is   -0.000007202077483
 Root      7 :    10.634497975788450   Change is   -0.000003021925508
 Root      8 :    11.574803378113190   Change is   -0.000015747550943
 Root      9 :    11.696273142349310   Change is   -0.000000873437152
 Root     10 :    11.934353946169590   Change is   -0.000149220510850
 Root     11 :    12.103856471532020   Change is   -0.000030046354119
 Root     12 :    12.991965108310040   Change is   -0.000002502035289
 Root     13 :    13.016524479823980   Change is   -0.000035903900782
 Root     14 :    13.081111884416860   Change is   -0.000011850828457
 Root     15 :    13.350109329205560   Change is   -0.000003106653828
 Root     16 :    13.590520112676550   Change is   -0.000079413670813
 Root     17 :    13.835675681645510   Change is   -0.000014744751208
 Root     18 :    13.869371821664340   Change is   -0.000014066707571
 Root     19 :    13.869402499979860   Change is   -0.000000263318174
 Root     20 :    13.894106113250020   Change is   -0.000118272055065
 Root     21 :    14.492769893989940   Change is   -0.000049089658117
 Root     22 :    14.645348357695500   Change is   -0.000007206043066
 Root     23 :    14.862807903763300   Change is   -0.000103924555574
 Root     24 :    15.355272099660050   Change is   -0.000028871182808
 Root     25 :    15.519462569619430   Change is   -0.000016735596747
 Root     26 :    15.546003261802580   Change is   -0.000114349626039
 Root     27 :    15.698690065823150   Change is   -0.000040435305014
 Root     28 :    16.127703740255300   Change is   -0.000000594473966
 Root     29 :    16.175634669914180   Change is   -0.000025699594052
 Root     30 :    16.425078787850250   Change is   -0.000049811609940
 Convergence achieved on expansion vectors.
 ***********************************************************************
 Excited states from <AA,BB:AA,BB> singles matrix:
 ***********************************************************************
 
 1PDM for each excited state written to RWF  633
 Ground to excited state transition densities written to RWF  633
 Ground to excited state transition electric dipole moments (Au):
       state          X           Y           Z        Dip. S.      Osc.
         1        -0.0000     -0.0000     -0.0000      0.0000      0.0000
         2         0.0000      0.6681      0.0000      0.4463      0.0689
         3        -0.0000      0.3436     -0.0000      0.1181      0.0205
         4         0.0000     -0.0000     -0.5365      0.2879      0.0510
         5         0.0000     -0.0000      0.0000      0.0000      0.0000
         6        -0.0000      1.0027      0.0000      1.0055      0.2500
         7         0.0000     -0.1559      0.0000      0.0243      0.0063
         8         0.0000     -0.0000     -0.1246      0.0155      0.0044
         9        -0.0000     -0.0000      0.0000      0.0000      0.0000
        10        -0.0232      0.0000     -0.0000      0.0005      0.0002
        11         0.0000     -0.0000     -0.5600      0.3136      0.0930
        12        -0.3542      0.0000      0.0000      0.1255      0.0399
        13        -0.0000     -0.0000     -0.3131      0.0980      0.0313
        14        -0.0000     -0.3603      0.0000      0.1298      0.0416
        15         0.0000      0.0000     -0.0000      0.0000      0.0000
        16         0.0000     -0.0000      1.0600      1.1236      0.3741
        17        -0.0000     -0.3591      0.0000      0.1289      0.0437
        18         0.2299      0.0000     -0.0000      0.0528      0.0180
        19         0.0000     -0.0000      0.0000      0.0000      0.0000
        20         0.0000     -0.0000     -0.0570      0.0032      0.0011
        21        -0.2709      0.0000      0.0000      0.0734      0.0261
        22        -0.0000     -0.4865      0.0000      0.2367      0.0849
        23        -0.0000     -0.0000     -0.5949      0.3539      0.1289
        24         0.0000     -0.2188      0.0000      0.0479      0.0180
        25        -0.0000      0.2085     -0.0000      0.0435      0.0165
        26        -0.5451     -0.0000      0.0000      0.2971      0.1131
        27        -0.0000     -0.0000     -0.3418      0.1169      0.0449
        28         0.0000      0.0000      0.0000      0.0000      0.0000
        29        -0.0000     -0.0000      0.0530      0.0028      0.0011
        30         0.5249     -0.0000     -0.0000      0.2755      0.1109
 Ground to excited state transition velocity dipole moments (Au):
       state          X           Y           Z        Dip. S.      Osc.
         1         0.0000      0.0000      0.0000      0.0000      0.0000
         2        -0.0000     -0.1521     -0.0000      0.0231      0.0666
         3         0.0000     -0.0927      0.0000      0.0086      0.0220
         4        -0.0000      0.0000      0.1366      0.0187      0.0468
         5        -0.0000      0.0000     -0.0000      0.0000      0.0000
         6         0.0000     -0.3747     -0.0000      0.1404      0.2509
         7        -0.0000      0.0290     -0.0000      0.0008      0.0014
         8         0.0000      0.0000      0.0594      0.0035      0.0055
         9         0.0000      0.0000     -0.0000      0.0000      0.0000
        10         0.0006     -0.0000      0.0000      0.0000      0.0000
        11         0.0000      0.0000      0.2492      0.0621      0.0931
        12         0.1726      0.0000      0.0000      0.0298      0.0416
        13         0.0000      0.0000      0.1478      0.0218      0.0304
        14         0.0000      0.1814     -0.0000      0.0329      0.0456
        15        -0.0000      0.0000      0.0000      0.0000      0.0000
        16        -0.0000      0.0000     -0.5267      0.2774      0.3703
        17        -0.0000      0.1818     -0.0000      0.0331      0.0433
        18        -0.1253      0.0000     -0.0000      0.0157      0.0205
        19        -0.0000      0.0000     -0.0000      0.0000      0.0000
        20        -0.0000      0.0000      0.0229      0.0005      0.0007
        21         0.1376     -0.0000     -0.0000      0.0189      0.0237
        22         0.0000      0.2601     -0.0000      0.0676      0.0838
        23         0.0000      0.0000      0.3286      0.1080      0.1318
        24        -0.0000      0.1159     -0.0000      0.0134      0.0159
        25         0.0000     -0.1225      0.0000      0.0150      0.0176
        26         0.3248     -0.0000      0.0000      0.1055      0.1231
        27         0.0000      0.0000      0.2009      0.0404      0.0466
        28         0.0000     -0.0000     -0.0000      0.0000      0.0000
        29         0.0000      0.0000     -0.0385      0.0015      0.0017
        30        -0.3047      0.0000     -0.0000      0.0928      0.1025
 Ground to excited state transition magnetic dipole moments (Au):
       state          X           Y           Z
         1         0.0000      0.0000      1.2920
         2        -0.4376      0.0000      0.0000
         3         0.7913     -0.0000     -0.0000
         4        -0.0000      0.0000     -0.0000
         5        -0.0000      0.0000     -0.2422
         6        -0.8922      0.0000      0.0000
         7         0.8413     -0.0000      0.0000
         8         0.0000      0.0000      0.0000
         9         0.0000      0.0000      0.0499
        10        -0.0000     -1.2843      0.0000
        11         0.0000      0.0000     -0.0000
        12        -0.0000     -0.0462      0.0000
        13        -0.0000     -0.0000      0.0000
        14        -0.5139     -0.0000     -0.0000
        15        -0.0000     -0.0000     -0.4167
        16         0.0000     -0.0000      0.0000
        17        -0.2854      0.0000     -0.0000
        18         0.0000     -0.0828     -0.0000
        19        -0.0000     -0.0000      0.0570
        20        -0.0000     -0.0000      0.0000
        21        -0.0000      0.7016      0.0000
        22         0.2700      0.0000     -0.0000
        23         0.0000      0.0000     -0.0000
        24         1.1177     -0.0000      0.0000
        25        -0.2368     -0.0000     -0.0000
        26         0.0000     -0.5105     -0.0000
        27         0.0000     -0.0000     -0.0000
        28        -0.0000      0.0000      0.0921
        29        -0.0000     -0.0000     -0.0000
        30        -0.0000      0.0594     -0.0000
 Ground to excited state transition velocity quadrupole moments (Au):
       state          XX          YY          ZZ          XY          XZ          YZ
         1        -0.0000     -0.0000      0.0000     -0.1879     -0.0000     -0.0000
         2         0.0000     -0.0000     -0.0000      0.0000      0.0000      0.5327
         3        -0.0000     -0.0000     -0.0000     -0.0000     -0.0000      0.1958
         4        -0.1511     -0.5776     -0.2187      0.0000      0.0000     -0.0000
         5        -0.0000      0.0000     -0.0000     -0.1326      0.0000     -0.0000
         6         0.0000     -0.0000     -0.0000     -0.0000     -0.0000      0.8553
         7        -0.0000      0.0000      0.0000     -0.0000      0.0000      0.2404
         8        -0.0077     -0.7811     -0.8316      0.0000      0.0000     -0.0000
         9         0.0000      0.0000      0.0000      0.2810      0.0000     -0.0000
        10         0.0000     -0.0000     -0.0000     -0.0000     -0.4641     -0.0000
        11         0.2492     -0.1353     -0.2765     -0.0000      0.0000      0.0000
        12         0.0000      0.0000      0.0000      0.0000     -0.0283     -0.0000
        13         0.0083      0.1648      0.3623     -0.0000     -0.0000      0.0000
        14        -0.0000     -0.0000     -0.0000      0.0000     -0.0000      0.1075
        15         0.0000      0.0000      0.0000      0.2497      0.0000     -0.0000
        16         0.4132      0.5742      0.4606     -0.0000     -0.0000      0.0000
        17         0.0000      0.0000      0.0000     -0.0000      0.0000      0.0380
        18         0.0000      0.0000     -0.0000     -0.0000     -0.2817      0.0000
        19         0.0000      0.0000      0.0000      0.2432     -0.0000      0.0000
        20        -0.5534     -0.5680     -0.2112      0.0000     -0.0000      0.0000
        21        -0.0000      0.0000     -0.0000     -0.0000      0.2954      0.0000
        22        -0.0000      0.0000     -0.0000     -0.0000      0.0000     -0.3320
        23         0.3374     -0.4901     -0.0430     -0.0000      0.0000     -0.0000
        24         0.0000     -0.0000      0.0000      0.0000      0.0000     -0.1495
        25        -0.0000      0.0000      0.0000     -0.0000     -0.0000     -0.3342
        26        -0.0000      0.0000      0.0000      0.0000     -0.4418     -0.0000
        27         0.1043      0.3612     -0.2083     -0.0000     -0.0000      0.0000
        28        -0.0000     -0.0000     -0.0000      0.2559     -0.0000     -0.0000
        29        -0.4753     -0.0948     -0.3134     -0.0000     -0.0000      0.0000
        30         0.0000     -0.0000      0.0000      0.0000      0.3444      0.0000
 <0|del|b> * <b|rxdel|0> + <0|del|b> * <b|delr+rdel|0>
 Rotatory Strengths (R) in cgs (10**-40 erg-esu-cm/Gauss)
       state          XX          YY          ZZ    R(velocity)    E-M Angle
         1         0.0000      0.0000      0.0000      0.0000       90.00
         2         0.0000     -0.0000      0.0000      0.0000       90.00
         3        -0.0000      0.0000      0.0000      0.0000       90.00
         4        -0.0000     -0.0000      0.0000     -0.0000       90.00
         5         0.0000      0.0000      0.0000      0.0000       90.00
         6        -0.0000     -0.0000     -0.0000     -0.0000       90.00
         7        -0.0000     -0.0000     -0.0000     -0.0000       90.00
         8         0.0000     -0.0000      0.0000      0.0000       90.00
         9        -0.0000      0.0000      0.0000     -0.0000       90.00
        10         0.0000     -0.0000      0.0000      0.0000       90.00
        11        -0.0000      0.0000      0.0000     -0.0000       90.00
        12        -0.0000     -0.0000     -0.0000     -0.0000       90.00
        13         0.0000      0.0000     -0.0000      0.0000       90.00
        14        -0.0000     -0.0000     -0.0000     -0.0000       90.00
        15        -0.0000     -0.0000     -0.0000     -0.0000       90.00
        16         0.0000     -0.0000     -0.0000     -0.0000       90.00
        17        -0.0000      0.0000      0.0000      0.0000       90.00
        18         0.0000     -0.0000     -0.0000     -0.0000       90.00
        19        -0.0000      0.0000     -0.0000     -0.0000       90.00
        20         0.0000     -0.0000     -0.0000      0.0000       90.00
        21        -0.0000     -0.0000     -0.0000     -0.0000       90.00
        22         0.0000     -0.0000      0.0000      0.0000       90.00
        23        -0.0000      0.0000      0.0000     -0.0000       90.00
        24        -0.0000     -0.0000     -0.0000     -0.0000       90.00
        25        -0.0000     -0.0000      0.0000     -0.0000       90.00
        26         0.0000      0.0000      0.0000      0.0000       90.00
        27        -0.0000      0.0000     -0.0000     -0.0000       90.00
        28        -0.0000      0.0000     -0.0000     -0.0000       90.00
        29         0.0000     -0.0000     -0.0000      0.0000       90.00
        30        -0.0000      0.0000      0.0000      0.0000       90.00
 1/2[<0|r|b>*<b|rxdel|0> + (<0|rxdel|b>*<b|r|0>)*]
 Rotatory Strengths (R) in cgs (10**-40 erg-esu-cm/Gauss)
       state          XX          YY          ZZ     R(length)
         1         0.0000      0.0000      0.0000      0.0000
         2         0.0000     -0.0000     -0.0000     -0.0000
         3         0.0000      0.0000     -0.0000      0.0000
         4         0.0000      0.0000     -0.0000     -0.0000
         5         0.0000      0.0000      0.0000      0.0000
         6        -0.0000     -0.0000     -0.0000     -0.0000
         7        -0.0000     -0.0000     -0.0000     -0.0000
         8        -0.0000      0.0000      0.0000      0.0000
         9         0.0000      0.0000     -0.0000     -0.0000
        10        -0.0000      0.0000      0.0000      0.0000
        11        -0.0000      0.0000     -0.0000     -0.0000
        12        -0.0000      0.0000     -0.0000     -0.0000
        13        -0.0000     -0.0000      0.0000      0.0000
        14        -0.0000     -0.0000      0.0000     -0.0000
        15         0.0000      0.0000     -0.0000     -0.0000
        16        -0.0000     -0.0000     -0.0000     -0.0000
        17        -0.0000      0.0000      0.0000      0.0000
        18        -0.0000      0.0000     -0.0000     -0.0000
        19         0.0000     -0.0000     -0.0000     -0.0000
        20         0.0000     -0.0000      0.0000      0.0000
        21        -0.0000     -0.0000     -0.0000     -0.0000
        22         0.0000      0.0000      0.0000      0.0000
        23         0.0000      0.0000     -0.0000     -0.0000
        24        -0.0000     -0.0000     -0.0000     -0.0000
        25        -0.0000      0.0000     -0.0000     -0.0000
        26         0.0000     -0.0000      0.0000      0.0000
        27         0.0000     -0.0000     -0.0000     -0.0000
        28         0.0000     -0.0000     -0.0000     -0.0000
        29        -0.0000     -0.0000      0.0000      0.0000
        30         0.0000      0.0000     -0.0000      0.0000
  1/2[<0|del|b>*<b|r|0> + (<0|r|b>*<b|del|0>)*] (Au)
       state          X           Y           Z        Dip. S.   Osc.(frdel)
         1        -0.0000     -0.0000     -0.0000      0.0000      0.0000
         2        -0.0000     -0.1016     -0.0000      0.1016      0.0678
         3        -0.0000     -0.0319     -0.0000      0.0319      0.0212
         4        -0.0000     -0.0000     -0.0733      0.0733      0.0489
         5        -0.0000     -0.0000     -0.0000      0.0000      0.0000
         6        -0.0000     -0.3757     -0.0000      0.3757      0.2505
         7        -0.0000     -0.0045     -0.0000      0.0045      0.0030
         8         0.0000     -0.0000     -0.0074      0.0074      0.0049
         9        -0.0000     -0.0000     -0.0000      0.0000      0.0000
        10        -0.0000     -0.0000     -0.0000      0.0000      0.0000
        11         0.0000     -0.0000     -0.1396      0.1396      0.0930
        12        -0.0611      0.0000      0.0000      0.0611      0.0408
        13        -0.0000     -0.0000     -0.0463      0.0463      0.0308
        14        -0.0000     -0.0654     -0.0000      0.0654      0.0436
        15        -0.0000      0.0000     -0.0000     -0.0000     -0.0000
        16        -0.0000     -0.0000     -0.5583      0.5583      0.3722
        17         0.0000     -0.0653     -0.0000      0.0653      0.0435
        18        -0.0288      0.0000      0.0000      0.0288      0.0192
        19        -0.0000     -0.0000     -0.0000      0.0000      0.0000
        20        -0.0000     -0.0000     -0.0013      0.0013      0.0009
        21        -0.0373     -0.0000     -0.0000      0.0373      0.0249
        22        -0.0000     -0.1265     -0.0000      0.1265      0.0844
        23        -0.0000     -0.0000     -0.1955      0.1955      0.1303
        24        -0.0000     -0.0254     -0.0000      0.0254      0.0169
        25        -0.0000     -0.0255     -0.0000      0.0255      0.0170
        26        -0.1770      0.0000      0.0000      0.1770      0.1180
        27        -0.0000     -0.0000     -0.0687      0.0687      0.0458
        28         0.0000     -0.0000     -0.0000      0.0000      0.0000
        29        -0.0000     -0.0000     -0.0020      0.0020      0.0014
        30        -0.1599     -0.0000      0.0000      0.1599      0.1066

 Excitation energies and oscillator strengths:
 
 Excited State   1:      Singlet-A2     5.1771 eV  239.49 nm  f=0.0000  <S**2>=0.000
       3 -> 27         0.00300
       3 -> 36         0.00246
       3 -> 46         0.00163
       4 -> 27         0.00308
       4 -> 36        -0.00075
       4 -> 46        -0.00090
       5 ->  9         0.01516
       5 -> 13        -0.00900
       5 -> 17         0.00622
       5 -> 23        -0.00297
       5 -> 28         0.00349
       5 -> 31         0.00268
       5 -> 37         0.00398
       5 -> 43         0.00065
       5 -> 52         0.00083
       6 -> 12        -0.00061
       6 -> 16         0.00162
       6 -> 18        -0.00121
       6 -> 22         0.00169
       6 -> 24         0.00096
       6 -> 29        -0.00061
       6 -> 33         0.00032
       6 -> 35         0.00053
       6 -> 40        -0.00023
       6 -> 42         0.00042
       6 -> 48         0.00065
       6 -> 50        -0.00017
       6 -> 53         0.00036
       7 -> 27         0.00073
       7 -> 36        -0.00050
       7 -> 46         0.00148
       8 ->  9         0.69855
       8 -> 13        -0.10506
       8 -> 17         0.02728
       8 -> 23        -0.01115
       8 -> 28         0.00631
       8 -> 31         0.00351
       8 -> 37        -0.00181
       8 -> 43        -0.00026
       8 -> 47        -0.00012
       8 -> 52         0.00120
       3 <- 27         0.00213
       3 <- 36         0.00210
       3 <- 46         0.00170
       4 <- 27         0.00377
       4 <- 36        -0.00030
       4 <- 46        -0.00084
       5 <-  9         0.00020
       5 <- 13        -0.00104
       5 <- 17        -0.00040
       5 <- 23         0.00042
       5 <- 28        -0.00029
       5 <- 31        -0.00112
       5 <- 37         0.00178
       5 <- 43         0.00042
       5 <- 47         0.00015
       5 <- 52         0.00021
       6 <- 12        -0.00097
       6 <- 16        -0.00397
       6 <- 18        -0.00245
       6 <- 22         0.00585
       6 <- 24        -0.00119
       6 <- 29         0.00204
       6 <- 33        -0.00116
       6 <- 35         0.00237
       6 <- 40        -0.00036
       6 <- 42         0.00097
       6 <- 48         0.00048
       6 <- 53         0.00095
       7 <- 27         0.00103
       7 <- 36        -0.00051
       7 <- 46         0.00116
       8 <-  9        -0.01384
       8 <- 13         0.00687
       8 <- 17        -0.00389
       8 <- 23         0.00064
       8 <- 28        -0.00045
       8 <- 31         0.00225
       8 <- 37        -0.00220
       8 <- 52         0.00036
 This state for optimization and/or second-order correction.
 Total Energy, E(TD-HF/TD-DFT) =  -114.228475623    
 Copying the excited state density for this state as the 1-particle RhoCI density.
 
 Excited State   2:      Singlet-B2     6.3034 eV  196.69 nm  f=0.0689  <S**2>=0.000
       3 -> 12         0.00105
       3 -> 16         0.00028
       3 -> 18         0.00113
       3 -> 22        -0.00015
       3 -> 24         0.00124
       3 -> 29        -0.00015
       3 -> 35        -0.00018
       3 -> 50        -0.00013
       4 -> 12        -0.00526
       4 -> 18         0.00226
       4 -> 22        -0.00305
       4 -> 24         0.00397
       4 -> 29        -0.00025
       4 -> 33        -0.00091
       4 -> 35         0.00088
       4 -> 40        -0.00028
       4 -> 42         0.00041
       5 -> 10        -0.00053
       5 -> 11        -0.00835
       5 -> 14         0.00618
       5 -> 15        -0.00146
       5 -> 19         0.00348
       5 -> 20        -0.00058
       5 -> 21         0.00376
       5 -> 25         0.00074
       5 -> 26        -0.00172
       5 -> 30         0.00251
       5 -> 32        -0.00025
       5 -> 34        -0.00017
       5 -> 38        -0.00061
       5 -> 39        -0.00023
       5 -> 41         0.00015
       5 -> 44        -0.00049
       5 -> 45        -0.00058
       5 -> 49         0.00029
       6 -> 27         0.00071
       6 -> 46         0.00080
       7 -> 12         0.00178
       7 -> 16        -0.00049
       7 -> 18         0.00428
       7 -> 22        -0.00260
       7 -> 24         0.00204
       7 -> 29        -0.00014
       7 -> 42        -0.00038
       7 -> 48         0.00036
       7 -> 50         0.00051
       8 -> 10         0.70583
       8 -> 11        -0.03315
       8 -> 14        -0.00767
       8 -> 15        -0.01088
       8 -> 19         0.01893
       8 -> 20         0.00939
       8 -> 21        -0.00633
       8 -> 25         0.00084
       8 -> 26        -0.00091
       8 -> 30         0.00032
       8 -> 32         0.00211
       8 -> 34         0.00185
       8 -> 38         0.00065
       8 -> 39         0.00058
       8 -> 41        -0.00020
       8 -> 44         0.00067
       8 -> 45        -0.00096
       8 -> 49         0.00019
       8 -> 54         0.00016
       3 <- 12         0.00032
       3 <- 16         0.00034
       3 <- 18         0.00056
       3 <- 22        -0.00023
       3 <- 24         0.00086
       3 <- 29        -0.00013
       3 <- 35        -0.00018
       4 <- 12         0.00032
       4 <- 16         0.00053
       4 <- 18         0.00276
       4 <- 22        -0.00186
       4 <- 24         0.00292
       4 <- 29        -0.00019
       4 <- 33        -0.00065
       4 <- 35         0.00063
       4 <- 40        -0.00026
       4 <- 42         0.00011
       5 <- 10         0.00233
       5 <- 14         0.00468
       5 <- 15        -0.00145
       5 <- 19         0.00087
       5 <- 21         0.00208
       5 <- 25         0.00168
       5 <- 26        -0.00135
       5 <- 30         0.00087
       5 <- 32        -0.00053
       5 <- 34        -0.00025
       5 <- 38        -0.00046
       5 <- 39        -0.00017
       5 <- 41         0.00026
       5 <- 44        -0.00033
       5 <- 45        -0.00049
       5 <- 49         0.00026
       6 <- 27         0.00054
       6 <- 46         0.00068
       7 <- 12         0.00051
       7 <- 16        -0.00087
       7 <- 18         0.00182
       7 <- 22        -0.00099
       7 <- 24         0.00086
       7 <- 29         0.00052
       7 <- 33        -0.00016
       7 <- 35         0.00017
       7 <- 42        -0.00035
       7 <- 48         0.00031
       7 <- 50         0.00054
       8 <- 10        -0.00343
       8 <- 11        -0.00123
       8 <- 14        -0.01035
       8 <- 15         0.00085
       8 <- 19        -0.00071
       8 <- 20        -0.00035
       8 <- 21        -0.00365
       8 <- 25        -0.00299
       8 <- 26        -0.00044
       8 <- 30        -0.00061
       8 <- 32         0.00084
       8 <- 34         0.00162
       8 <- 38         0.00067
       8 <- 39         0.00047
       8 <- 44         0.00054
       8 <- 45        -0.00066
       8 <- 49         0.00021
       8 <- 51         0.00011
 
 Excited State   3:      Singlet-B2     7.0915 eV  174.83 nm  f=0.0205  <S**2>=0.000
       3 -> 12        -0.00016
       3 -> 16        -0.00069
       3 -> 18         0.00031
       3 -> 22         0.00020
       3 -> 24         0.00038
       3 -> 29         0.00125
       3 -> 33         0.00014
       3 -> 35        -0.00032
       3 -> 42        -0.00033
       3 -> 48         0.00022
       3 -> 50         0.00025
       4 -> 12         0.00310
       4 -> 16        -0.00243
       4 -> 18         0.00320
       4 -> 22        -0.00156
       4 -> 24         0.00349
       4 -> 29        -0.00107
       4 -> 33         0.00055
       4 -> 35        -0.00029
       4 -> 40        -0.00020
       4 -> 48         0.00016
       4 -> 50         0.00016
       5 -> 10        -0.00657
       5 -> 11         0.00029
       5 -> 14         0.00434
       5 -> 15        -0.00573
       5 -> 19        -0.00382
       5 -> 20        -0.00178
       5 -> 21         0.00115
       5 -> 25         0.00122
       5 -> 26         0.00117
       5 -> 30         0.00096
       5 -> 32        -0.00183
       5 -> 34        -0.00081
       5 -> 39         0.00059
       5 -> 41        -0.00084
       5 -> 45         0.00067
       5 -> 49        -0.00043
       5 -> 51        -0.00027
       6 -> 27        -0.00068
       6 -> 36        -0.00126
       6 -> 46        -0.00126
       7 -> 12        -0.00314
       7 -> 16        -0.00128
       7 -> 18        -0.00209
       7 -> 22         0.00144
       7 -> 29         0.00024
       7 -> 33        -0.00034
       7 -> 35         0.00136
       7 -> 40        -0.00042
       7 -> 42         0.00073
       7 -> 48        -0.00070
       7 -> 50        -0.00066
       7 -> 53         0.00014
       8 -> 10         0.03375
       8 -> 11         0.70532
       8 -> 14        -0.01431
       8 -> 15         0.02026
       8 -> 19        -0.02118
       8 -> 20         0.01373
       8 -> 21        -0.00217
       8 -> 25         0.00033
       8 -> 26         0.00066
       8 -> 30        -0.00150
       8 -> 34         0.00042
       8 -> 38        -0.00010
       8 -> 39         0.00028
       8 -> 41        -0.00142
       8 -> 45         0.00089
       8 -> 49        -0.00075
       8 -> 51        -0.00029
       8 -> 54        -0.00017
       3 <- 12         0.00028
       3 <- 16        -0.00045
       3 <- 18         0.00058
       3 <- 24         0.00045
       3 <- 29         0.00079
       3 <- 33         0.00019
       3 <- 35        -0.00036
       3 <- 42        -0.00028
       3 <- 48         0.00017
       3 <- 50         0.00015
       3 <- 53        -0.00022
       4 <- 12         0.00034
       4 <- 18         0.00118
       4 <- 22        -0.00125
       4 <- 24         0.00152
       4 <- 29        -0.00044
       4 <- 33         0.00053
       4 <- 40        -0.00018
       4 <- 42        -0.00015
       4 <- 48         0.00010
       4 <- 50         0.00022
       5 <- 10         0.00134
       5 <- 11        -0.00055
       5 <- 14         0.00202
       5 <- 15        -0.00049
       5 <- 19         0.00067
       5 <- 21         0.00097
       5 <- 25         0.00100
       5 <- 26         0.00083
       5 <- 30         0.00077
       5 <- 32        -0.00036
       5 <- 34        -0.00123
       5 <- 38         0.00014
       5 <- 39         0.00036
       5 <- 41        -0.00086
       5 <- 44        -0.00012
       5 <- 45         0.00065
       5 <- 49        -0.00029
       5 <- 51        -0.00026
       6 <- 27        -0.00024
       6 <- 36        -0.00103
       6 <- 46        -0.00108
       7 <- 12        -0.00036
       7 <- 18        -0.00030
       7 <- 22         0.00035
       7 <- 33        -0.00014
       7 <- 35         0.00098
       7 <- 40        -0.00032
       7 <- 42         0.00051
       7 <- 48        -0.00060
       7 <- 50        -0.00059
       8 <- 10        -0.00120
       8 <- 11         0.00087
       8 <- 14        -0.00523
       8 <- 15         0.00092
       8 <- 19         0.00243
       8 <- 20        -0.00164
       8 <- 21        -0.00234
       8 <- 25        -0.00018
       8 <- 26         0.00122
       8 <- 30        -0.00088
       8 <- 32         0.00116
       8 <- 34        -0.00011
       8 <- 38        -0.00025
       8 <- 41        -0.00120
       8 <- 45         0.00075
       8 <- 49        -0.00048
       8 <- 51        -0.00027
 
 Excited State   4:      Singlet-A1     7.2311 eV  171.46 nm  f=0.0510  <S**2>=0.000
       3 -> 10         0.00147
       3 -> 11        -0.00096
       3 -> 14         0.00032
       3 -> 15        -0.00049
       3 -> 19         0.00117
       3 -> 20         0.00069
       3 -> 26        -0.00034
       3 -> 30         0.00118
       3 -> 32        -0.00031
       3 -> 34        -0.00022
       3 -> 38        -0.00035
       3 -> 39         0.00018
       3 -> 41        -0.00018
       3 -> 49        -0.00014
       3 -> 51        -0.00034
       3 -> 54        -0.00021
       4 -> 10         0.00552
       4 -> 11         0.00923
       4 -> 14         0.00613
       4 -> 15        -0.00086
       4 -> 19         0.00068
       4 -> 20         0.00615
       4 -> 21         0.00253
       4 -> 25         0.00703
       4 -> 26        -0.00081
       4 -> 30        -0.00060
       4 -> 32        -0.00033
       4 -> 34        -0.00090
       4 -> 38        -0.00012
       4 -> 39        -0.00054
       4 -> 41         0.00021
       4 -> 45        -0.00029
       4 -> 49        -0.00024
       5 -> 12         0.00777
       5 -> 16        -0.00386
       5 -> 18         0.01078
       5 -> 22        -0.00027
       5 -> 24         0.00470
       5 -> 29         0.00041
       5 -> 33        -0.00016
       5 -> 35         0.00088
       5 -> 42        -0.00018
       5 -> 50        -0.00036
       5 -> 53        -0.00015
       6 ->  9         0.00964
       6 -> 13         0.00554
       6 -> 17         0.00502
       6 -> 23         0.00470
       6 -> 28         0.00031
       6 -> 31         0.00086
       6 -> 37         0.00054
       6 -> 43         0.00060
       6 -> 47        -0.00037
       7 -> 10         0.01338
       7 -> 11        -0.00469
       7 -> 14         0.00370
       7 -> 15         0.00141
       7 -> 19         0.00637
       7 -> 20         0.00400
       7 -> 21         0.00164
       7 -> 25         0.00221
       7 -> 26        -0.00052
       7 -> 30        -0.00035
       7 -> 32         0.00056
       7 -> 34        -0.00081
       7 -> 39        -0.00016
       7 -> 44         0.00011
       7 -> 49        -0.00019
       7 -> 51         0.00053
       8 -> 12         0.70561
       8 -> 16        -0.03291
       8 -> 18         0.01912
       8 -> 22         0.00486
       8 -> 24         0.00161
       8 -> 29         0.00237
       8 -> 33         0.00151
       8 -> 35        -0.00232
       8 -> 40        -0.00011
       8 -> 42         0.00117
       8 -> 48        -0.00038
       8 -> 50        -0.00022
       8 -> 53        -0.00016
       3 <- 10         0.00057
       3 <- 11        -0.00029
       3 <- 14         0.00021
       3 <- 15        -0.00019
       3 <- 19         0.00059
       3 <- 20         0.00031
       3 <- 21         0.00011
       3 <- 25         0.00022
       3 <- 26        -0.00015
       3 <- 30         0.00071
       3 <- 32        -0.00024
       3 <- 34        -0.00011
       3 <- 38        -0.00027
       3 <- 39         0.00016
       3 <- 41        -0.00017
       3 <- 45         0.00012
       3 <- 49        -0.00015
       3 <- 51        -0.00029
       3 <- 54        -0.00019
       4 <- 10         0.00535
       4 <- 11         0.00289
       4 <- 14         0.00451
       4 <- 15        -0.00112
       4 <- 19         0.00052
       4 <- 20         0.00348
       4 <- 21         0.00099
       4 <- 25         0.00410
       4 <- 26        -0.00040
       4 <- 32        -0.00061
       4 <- 34        -0.00095
       4 <- 38        -0.00019
       4 <- 39        -0.00050
       4 <- 45        -0.00028
       4 <- 49        -0.00020
       5 <- 12         0.00274
       5 <- 16        -0.00014
       5 <- 18         0.00440
       5 <- 22         0.00022
       5 <- 24         0.00255
       5 <- 33        -0.00032
       5 <- 35         0.00079
       5 <- 42        -0.00016
       5 <- 50        -0.00027
       5 <- 53        -0.00014
       6 <-  9         0.00246
       6 <- 13         0.00187
       6 <- 17         0.00199
       6 <- 23         0.00263
       6 <- 28         0.00014
       6 <- 31         0.00063
       6 <- 37         0.00043
       6 <- 43         0.00050
       6 <- 47        -0.00032
       7 <- 10         0.00416
       7 <- 11        -0.00085
       7 <- 14         0.00168
       7 <- 15         0.00047
       7 <- 19         0.00250
       7 <- 20         0.00215
       7 <- 21         0.00064
       7 <- 25         0.00125
       7 <- 26        -0.00052
       7 <- 32         0.00030
       7 <- 34        -0.00062
       7 <- 39        -0.00023
       7 <- 41         0.00014
       7 <- 51         0.00049
       8 <- 12        -0.00258
       8 <- 16        -0.00813
       8 <- 18        -0.00612
       8 <- 22         0.00025
       8 <- 24        -0.00238
       8 <- 29         0.00087
       8 <- 33         0.00098
       8 <- 35        -0.00148
       8 <- 40        -0.00014
       8 <- 42         0.00097
       8 <- 48        -0.00045
       8 <- 50        -0.00019
       8 <- 53        -0.00018
 
 Excited State   5:      Singlet-A2     7.7943 eV  159.07 nm  f=0.0000  <S**2>=0.000
       3 -> 27        -0.00108
       3 -> 36        -0.00094
       3 -> 46        -0.00052
       4 -> 27        -0.00018
       4 -> 36         0.00063
       4 -> 46         0.00017
       5 ->  9        -0.00986
       5 -> 13         0.00317
       5 -> 17         0.00440
       5 -> 23        -0.00024
       5 -> 31        -0.00204
       5 -> 37        -0.00176
       5 -> 43        -0.00028
       5 -> 52        -0.00026
       6 -> 12        -0.00042
       6 -> 16        -0.00198
       6 -> 18         0.00126
       6 -> 22        -0.00092
       6 -> 24        -0.00025
       6 -> 29         0.00026
       6 -> 35        -0.00025
       6 -> 42        -0.00021
       6 -> 48        -0.00021
       6 -> 53        -0.00013
       7 -> 36         0.00027
       7 -> 46        -0.00055
       8 ->  9         0.10533
       8 -> 13         0.69879
       8 -> 17         0.00619
       8 -> 23         0.02097
       8 -> 28        -0.00078
       8 -> 31        -0.00127
       8 -> 37         0.00032
       8 -> 47         0.00018
       8 -> 52        -0.00031
       3 <- 27        -0.00056
       3 <- 36        -0.00074
       3 <- 46        -0.00062
       4 <- 27        -0.00068
       4 <- 46         0.00018
       5 <-  9        -0.00026
       5 <- 17         0.00063
       5 <- 23        -0.00010
       5 <- 37        -0.00049
       5 <- 43        -0.00012
       6 <- 12        -0.00060
       6 <- 16        -0.00057
       6 <- 18         0.00060
       6 <- 22        -0.00185
       6 <- 29         0.00010
       6 <- 33         0.00058
       6 <- 35        -0.00101
       6 <- 40         0.00015
       6 <- 42        -0.00055
       6 <- 53        -0.00026
       7 <- 27        -0.00021
       7 <- 36         0.00024
       7 <- 46        -0.00023
       8 <-  9         0.00487
       8 <- 13         0.00080
       8 <- 17         0.00037
       8 <- 23        -0.00040
       8 <- 28         0.00015
       8 <- 31        -0.00045
       8 <- 37         0.00052
       8 <- 52        -0.00013
 
 Excited State   6:      Singlet-B2    10.1506 eV  122.15 nm  f=0.2500  <S**2>=0.000
       3 -> 12        -0.00040
       3 -> 16        -0.00193
       3 -> 22         0.00144
       3 -> 24         0.00081
       3 -> 29         0.00134
       3 -> 33        -0.00086
       3 -> 40         0.00023
       3 -> 42         0.00065
       3 -> 48         0.00032
       3 -> 50         0.00018
       4 -> 12        -0.01078
       4 -> 16        -0.00355
       4 -> 18         0.00336
       4 -> 22        -0.01523
       4 -> 24         0.01038
       4 -> 29         0.00016
       4 -> 33         0.00251
       4 -> 35        -0.00310
       4 -> 40        -0.00064
       4 -> 42         0.00238
       4 -> 48         0.00020
       5 -> 10         0.01321
       5 -> 11        -0.00703
       5 -> 14         0.03000
       5 -> 15        -0.00812
       5 -> 19         0.00522
       5 -> 20        -0.01514
       5 -> 21         0.01543
       5 -> 25         0.00760
       5 -> 26        -0.00226
       5 -> 30        -0.00091
       5 -> 32         0.00243
       5 -> 34         0.00302
       5 -> 38         0.00012
       5 -> 39         0.00225
       5 -> 41        -0.00051
       5 -> 44        -0.00060
       5 -> 49        -0.00012
       5 -> 51        -0.00023
       6 -> 27         0.00748
       6 -> 36         0.00030
       6 -> 46        -0.00057
       7 -> 12         0.00294
       7 -> 16        -0.00180
       7 -> 18         0.00977
       7 -> 22        -0.00812
       7 -> 24         0.00625
       7 -> 29         0.00128
       7 -> 33         0.00172
       7 -> 35        -0.00083
       7 -> 40        -0.00063
       7 -> 42         0.00087
       7 -> 48        -0.00045
       7 -> 50        -0.00022
       8 -> 10         0.00732
       8 -> 11         0.01433
       8 -> 14         0.70496
       8 -> 15         0.00436
       8 -> 19         0.02096
       8 -> 20         0.00997
       8 -> 21        -0.03283
       8 -> 25        -0.00881
       8 -> 26        -0.00128
       8 -> 30        -0.00076
       8 -> 32         0.00319
       8 -> 34         0.00268
       8 -> 38         0.00094
       8 -> 39        -0.00465
       8 -> 41        -0.00106
       8 -> 44         0.00175
       8 -> 45        -0.00070
       8 -> 49        -0.00090
       3 <- 12        -0.00030
       3 <- 16        -0.00094
       3 <- 18        -0.00013
       3 <- 22         0.00062
       3 <- 24         0.00047
       3 <- 29         0.00078
       3 <- 33        -0.00049
       3 <- 40         0.00016
       3 <- 42         0.00049
       3 <- 48         0.00032
       3 <- 50         0.00012
       3 <- 53        -0.00012
       4 <- 12        -0.00182
       4 <- 16        -0.00061
       4 <- 18         0.00343
       4 <- 22        -0.00778
       4 <- 24         0.00610
       4 <- 29         0.00025
       4 <- 33         0.00088
       4 <- 35        -0.00222
       4 <- 40        -0.00064
       4 <- 42         0.00162
       4 <- 50         0.00023
       5 <- 10         0.00378
       5 <- 11        -0.00166
       5 <- 14         0.01108
       5 <- 15        -0.00292
       5 <- 19         0.00241
       5 <- 20        -0.00599
       5 <- 21         0.00770
       5 <- 25         0.00456
       5 <- 26        -0.00138
       5 <- 30        -0.00106
       5 <- 32         0.00173
       5 <- 34         0.00110
       5 <- 39         0.00169
       5 <- 41        -0.00024
       5 <- 44        -0.00041
       5 <- 45         0.00011
       5 <- 51        -0.00016
       6 <- 27         0.00482
       6 <- 46        -0.00064
       7 <- 12         0.00044
       7 <- 16        -0.00051
       7 <- 18         0.00322
       7 <- 22        -0.00374
       7 <- 24         0.00295
       7 <- 29         0.00088
       7 <- 33         0.00094
       7 <- 35        -0.00050
       7 <- 40        -0.00057
       7 <- 42         0.00058
       7 <- 48        -0.00038
       7 <- 50        -0.00011
       8 <- 10        -0.01080
       8 <- 11        -0.00504
       8 <- 14        -0.02422
       8 <- 15         0.00123
       8 <- 19         0.00234
       8 <- 20         0.00426
       8 <- 21        -0.01660
       8 <- 25        -0.00637
       8 <- 26         0.00034
       8 <- 30        -0.00064
       8 <- 32         0.00146
       8 <- 34         0.00075
       8 <- 38         0.00062
       8 <- 39        -0.00290
       8 <- 41        -0.00074
       8 <- 44         0.00127
       8 <- 45        -0.00015
       8 <- 49        -0.00066
 
 Excited State   7:      Singlet-B2    10.6345 eV  116.59 nm  f=0.0063  <S**2>=0.000
       3 -> 16         0.00062
       3 -> 18         0.00032
       3 -> 22        -0.00135
       3 -> 24        -0.00013
       3 -> 29        -0.00044
       3 -> 33         0.00019
       3 -> 35        -0.00044
       3 -> 42        -0.00020
       4 -> 12         0.00130
       4 -> 16        -0.00271
       4 -> 18        -0.00031
       4 -> 22         0.00339
       4 -> 24         0.00193
       4 -> 29         0.00010
       4 -> 33         0.00090
       4 -> 40        -0.00021
       4 -> 48        -0.00020
       4 -> 50        -0.00014
       5 -> 10         0.00062
       5 -> 11        -0.00983
       5 -> 14        -0.00027
       5 -> 15         0.01376
       5 -> 19         0.00024
       5 -> 20         0.00047
       5 -> 21         0.00093
       5 -> 25         0.00088
       5 -> 26         0.00306
       5 -> 30         0.00188
       5 -> 32        -0.00094
       5 -> 34         0.00076
       5 -> 38        -0.00063
       5 -> 39         0.00049
       5 -> 41         0.00067
       5 -> 44         0.00050
       5 -> 45        -0.00032
       5 -> 49         0.00032
       5 -> 51        -0.00011
       5 -> 54         0.00021
       6 -> 27        -0.00034
       6 -> 46         0.00051
       7 -> 12         0.00073
       7 -> 16        -0.00039
       7 -> 18         0.00126
       7 -> 22        -0.00235
       7 -> 24        -0.00050
       7 -> 29        -0.00075
       7 -> 33         0.00022
       7 -> 35        -0.00043
       7 -> 40         0.00026
       7 -> 42        -0.00029
       7 -> 48         0.00024
       7 -> 50         0.00034
       8 -> 10         0.01002
       8 -> 11        -0.02151
       8 -> 14        -0.00345
       8 -> 15         0.70596
       8 -> 19        -0.01620
       8 -> 20         0.01645
       8 -> 21         0.00914
       8 -> 25        -0.00570
       8 -> 26         0.00792
       8 -> 30         0.00158
       8 -> 32         0.00017
       8 -> 34         0.00074
       8 -> 38        -0.00100
       8 -> 39        -0.00027
       8 -> 41         0.00032
       8 -> 44        -0.00024
       8 -> 45        -0.00055
       8 -> 54         0.00022
       3 <- 12         0.00023
       3 <- 16         0.00081
       3 <- 18         0.00031
       3 <- 22        -0.00064
       3 <- 24         0.00044
       3 <- 29        -0.00057
       3 <- 33         0.00022
       3 <- 35        -0.00038
       3 <- 42        -0.00011
       4 <- 12        -0.00017
       4 <- 16        -0.00015
       4 <- 18        -0.00054
       4 <- 22         0.00030
       4 <- 24        -0.00013
       4 <- 29        -0.00022
       4 <- 33         0.00067
       4 <- 35         0.00020
       4 <- 40        -0.00015
       4 <- 48        -0.00019
       4 <- 50        -0.00020
       5 <- 10        -0.00048
       5 <- 11         0.00051
       5 <- 14        -0.00028
       5 <- 15         0.00042
       5 <- 19        -0.00111
       5 <- 20         0.00051
       5 <- 21         0.00022
       5 <- 25        -0.00024
       5 <- 26         0.00015
       5 <- 30         0.00032
       5 <- 32        -0.00052
       5 <- 38         0.00014
       5 <- 39         0.00025
       5 <- 41         0.00015
       5 <- 44         0.00019
       5 <- 45        -0.00016
       5 <- 49         0.00025
       5 <- 51         0.00012
       6 <- 36        -0.00017
       6 <- 46         0.00024
       7 <- 12        -0.00030
       7 <- 16        -0.00131
       7 <- 18        -0.00011
       7 <- 22        -0.00020
       7 <- 24        -0.00075
       7 <- 29         0.00070
       7 <- 33         0.00013
       7 <- 40         0.00016
       7 <- 42        -0.00029
       7 <- 48         0.00030
       7 <- 50         0.00050
       7 <- 53         0.00022
       8 <- 10         0.00095
       8 <- 11         0.00073
       8 <- 14         0.00125
       8 <- 15         0.00108
       8 <- 19        -0.00044
       8 <- 20        -0.00080
       8 <- 21        -0.00012
       8 <- 25         0.00052
       8 <- 26        -0.00031
       8 <- 30        -0.00054
       8 <- 32        -0.00020
       8 <- 34         0.00029
       8 <- 38        -0.00070
       8 <- 39        -0.00020
       8 <- 41         0.00016
       8 <- 44        -0.00021
       8 <- 45        -0.00032
       8 <- 49         0.00015
       8 <- 51         0.00019
 
 Excited State   8:      Singlet-A1    11.5748 eV  107.12 nm  f=0.0044  <S**2>=0.000
       3 -> 10         0.00118
       3 -> 11        -0.00106
       3 -> 14        -0.00093
       3 -> 15        -0.00217
       3 -> 19         0.00195
       3 -> 20        -0.00043
       3 -> 21        -0.00152
       3 -> 25         0.00154
       3 -> 26        -0.00043
       3 -> 30         0.00073
       3 -> 32         0.00079
       3 -> 34        -0.00210
       3 -> 38        -0.00049
       3 -> 39         0.00026
       3 -> 41        -0.00116
       3 -> 44         0.00011
       3 -> 45         0.00094
       3 -> 54         0.00016
       4 -> 10         0.03504
       4 -> 11         0.01065
       4 -> 14         0.01674
       4 -> 15        -0.00971
       4 -> 19         0.00169
       4 -> 20         0.01364
       4 -> 21         0.00461
       4 -> 25         0.00709
       4 -> 26        -0.00459
       4 -> 30         0.00107
       4 -> 32        -0.00257
       4 -> 34         0.00055
       4 -> 38         0.00060
       4 -> 39        -0.00054
       4 -> 41        -0.00012
       4 -> 45        -0.00085
       4 -> 49         0.00028
       4 -> 51         0.00033
       4 -> 54        -0.00023
       5 -> 12         0.02426
       5 -> 16         0.00653
       5 -> 18         0.01855
       5 -> 22        -0.00085
       5 -> 24         0.01290
       5 -> 29         0.00127
       5 -> 33         0.00111
       5 -> 35        -0.00099
       5 -> 40         0.00022
       5 -> 42        -0.00097
       5 -> 48         0.00039
       5 -> 50         0.00037
       6 ->  9         0.21422
       6 -> 13         0.00770
       6 -> 17         0.03101
       6 -> 23         0.00823
       6 -> 28         0.00898
       6 -> 31        -0.00064
       6 -> 37        -0.00026
       6 -> 43        -0.00014
       6 -> 47         0.00089
       6 -> 52         0.00126
       7 -> 10         0.08042
       7 -> 11        -0.02049
       7 -> 14         0.01041
       7 -> 15         0.01707
       7 -> 19         0.01728
       7 -> 20         0.00828
       7 -> 21         0.00443
       7 -> 25         0.00547
       7 -> 26         0.00911
       7 -> 30         0.00364
       7 -> 32         0.00298
       7 -> 34        -0.00113
       7 -> 38         0.00021
       7 -> 39        -0.00042
       7 -> 41        -0.00110
       7 -> 44        -0.00028
       7 -> 45         0.00066
       7 -> 49        -0.00085
       7 -> 51        -0.00106
       7 -> 54         0.00072
       8 -> 12         0.02812
       8 -> 16         0.64812
       8 -> 18        -0.14656
       8 -> 22        -0.01038
       8 -> 24        -0.00657
       8 -> 29         0.00279
       8 -> 33         0.00073
       8 -> 35        -0.00269
       8 -> 40         0.00030
       8 -> 42        -0.00010
       8 -> 48         0.00049
       8 -> 50         0.00051
       3 <- 10         0.00066
       3 <- 11        -0.00073
       3 <- 15        -0.00097
       3 <- 19         0.00143
       3 <- 20        -0.00023
       3 <- 21        -0.00051
       3 <- 25         0.00066
       3 <- 26        -0.00038
[...]
  46        4PY         0.00000   0.00000  -0.05465  -0.11226  -0.15069
  47        4PZ         0.00015   0.00000   0.00757   0.01493   0.00058
  48        5S          0.00070   0.00000  -0.00356  -0.00194  -0.00101
  49        5PX        -0.00000  -0.00000   0.00000   0.00000   0.00000
  50        5PY         0.00000   0.00000  -0.03295  -0.05765  -0.05667
  51        5PZ        -0.00027  -0.00000   0.00387   0.00536   0.00063
  52        6D 0       -0.00002  -0.00000  -0.00186  -0.00371  -0.00019
  53        6D+1       -0.00000   0.00000   0.00000   0.00000  -0.00000
  54        6D-1       -0.00000   0.00000  -0.00331  -0.00332   0.00276
  55        6D+2        0.00000   0.00000  -0.00009  -0.00015  -0.00002
  56        6D-2        0.00000   0.00000   0.00000   0.00000  -0.00000
                          26        27        28        29        30
  26        4PX         0.00016
  27        4PY        -0.00000   0.00129
  28        4PZ         0.00000  -0.00051   0.00034
  29 3   H  1S          0.00000  -0.00338  -0.00122   0.08340
  30        2S          0.00000  -0.00472  -0.00195   0.12435   0.19061
  31        3S          0.00000  -0.00122  -0.00130   0.07047   0.12085
  32        4PX         0.00016   0.00000   0.00000  -0.00000  -0.00000
  33        4PY         0.00000  -0.00068  -0.00001   0.00726   0.00937
  34        4PZ        -0.00000   0.00001  -0.00017   0.00427   0.00580
  35 4   O  1S          0.00000  -0.00084  -0.00072   0.00329   0.00445
  36        2S          0.00000  -0.00178  -0.00055   0.00569   0.00842
  37        2PX         0.00434   0.00000  -0.00000  -0.00000  -0.00000
  38        2PY         0.00000  -0.00526   0.00283   0.02653   0.06385
  39        2PZ         0.00000  -0.00406  -0.00053   0.00931   0.02019
  40        3S         -0.00000   0.00662  -0.00054  -0.01901  -0.02971
  41        3PX         0.00632   0.00000  -0.00000  -0.00000  -0.00000
  42        3PY         0.00000  -0.00758   0.00405   0.03904   0.09340
  43        3PZ         0.00000  -0.00573  -0.00075   0.01315   0.02846
  44        4S         -0.00000   0.00310  -0.00122  -0.01487  -0.01630
  45        4PX         0.00445   0.00000  -0.00000  -0.00000  -0.00000
  46        4PY         0.00000  -0.00516   0.00199   0.05465   0.11226
  47        4PZ         0.00000  -0.00272  -0.00028   0.00757   0.01493
  48        5S          0.00000  -0.00008  -0.00053  -0.00356  -0.00194
  49        5PX         0.00015   0.00000   0.00000  -0.00000  -0.00000
  50        5PY         0.00000  -0.00015  -0.00079   0.03295   0.05765
  51        5PZ         0.00000  -0.00080   0.00015   0.00387   0.00536
  52        6D 0       -0.00000   0.00077   0.00006  -0.00186  -0.00371
  53        6D+1       -0.00059  -0.00000   0.00000  -0.00000  -0.00000
  54        6D-1       -0.00000   0.00072  -0.00057   0.00331   0.00332
  55        6D+2        0.00000   0.00003  -0.00000  -0.00009  -0.00015
  56        6D-2       -0.00000   0.00000   0.00000   0.00000   0.00000
                          31        32        33        34        35
  31        3S          0.11315
  32        4PX        -0.00000   0.00016
  33        4PY         0.00058  -0.00000   0.00129
  34        4PZ         0.00183  -0.00000   0.00051   0.00034
  35 4   O  1S          0.00187  -0.00000   0.00084  -0.00072   0.63929
  36        2S          0.00218  -0.00000   0.00178  -0.00055   0.56877
  37        2PX        -0.00000   0.00434   0.00000   0.00000   0.00000
  38        2PY         0.10499   0.00000  -0.00526  -0.00283   0.00000
  39        2PZ         0.00057  -0.00000   0.00406  -0.00053  -0.00663
  40        3S         -0.00381   0.00000  -0.00662  -0.00054  -0.12684
  41        3PX        -0.00000   0.00632   0.00000   0.00000   0.00000
  42        3PY         0.15264   0.00000  -0.00758  -0.00405   0.00000
  43        3PZ         0.00083  -0.00000   0.00573  -0.00075  -0.01046
  44        4S         -0.00394   0.00000  -0.00310  -0.00122  -0.12622
  45        4PX        -0.00000   0.00445   0.00000   0.00000   0.00000
  46        4PY         0.15069   0.00000  -0.00516  -0.00199   0.00000
  47        4PZ         0.00058  -0.00000   0.00272  -0.00028  -0.01393
  48        5S         -0.00101  -0.00000   0.00008  -0.00053  -0.00950
  49        5PX        -0.00000   0.00015   0.00000  -0.00000   0.00000
  50        5PY         0.05667   0.00000  -0.00015   0.00079  -0.00000
  51        5PZ         0.00063  -0.00000   0.00080   0.00015   0.00222
  52        6D 0       -0.00019   0.00000  -0.00077   0.00006  -0.00216
  53        6D+1        0.00000  -0.00059  -0.00000  -0.00000   0.00000
  54        6D-1       -0.00276  -0.00000   0.00072   0.00057   0.00000
  55        6D+2       -0.00002   0.00000  -0.00003  -0.00000  -0.00054
  56        6D-2       -0.00000   0.00000   0.00000   0.00000  -0.00000
                          36        37        38        39        40
  36        2S          0.52331
  37        2PX         0.00000   0.11631
  38        2PY         0.00000  -0.00000   0.17851
  39        2PZ        -0.01024   0.00000   0.00000   0.16899
  40        3S         -0.21814   0.00000   0.00000   0.03325   0.66682
  41        3PX         0.00000   0.16952  -0.00000   0.00000   0.00000
  42        3PY         0.00000  -0.00000   0.25846  -0.00000  -0.00000
  43        3PZ        -0.01430   0.00000   0.00000   0.23667   0.04023
  44        4S         -0.19943   0.00000   0.00000   0.16687   0.56111
  45        4PX         0.00000   0.11932  -0.00000   0.00000   0.00000
  46        4PY         0.00000  -0.00000   0.21756  -0.00000  -0.00000
  47        4PZ        -0.02251   0.00000   0.00000   0.11801   0.06806
  48        5S         -0.01645   0.00000   0.00000   0.06186   0.05294
  49        5PX         0.00000   0.00410  -0.00000   0.00000   0.00000
  50        5PY        -0.00000  -0.00000   0.05291  -0.00000   0.00000
  51        5PZ         0.00288   0.00000   0.00000   0.00723  -0.00589
  52        6D 0       -0.00452  -0.00000  -0.00000  -0.02279   0.01553
  53        6D+1        0.00000  -0.01580   0.00000   0.00000  -0.00000
  54        6D-1        0.00000   0.00000  -0.01406   0.00000  -0.00000
  55        6D+2       -0.00096  -0.00000  -0.00000  -0.00003   0.00302
  56        6D-2       -0.00000   0.00000   0.00000   0.00000   0.00000
                          41        42        43        44        45
  41        3PX         0.24706
  42        3PY        -0.00000   0.37421
  43        3PZ         0.00000   0.00000   0.33156
  44        4S          0.00000   0.00000   0.22866   0.59003
  45        4PX         0.17390  -0.00000   0.00000   0.00000   0.12240
  46        4PY        -0.00000   0.31527  -0.00000  -0.00000  -0.00000
  47        4PZ         0.00000   0.00000   0.16488   0.15172   0.00000
  48        5S          0.00000   0.00000   0.08629   0.09502   0.00000
  49        5PX         0.00598  -0.00000   0.00000   0.00000   0.00421
  50        5PY        -0.00000   0.07692  -0.00000  -0.00000  -0.00000
  51        5PZ         0.00000   0.00000   0.01017   0.00048   0.00000
  52        6D 0       -0.00000  -0.00000  -0.03212  -0.00652  -0.00000
  53        6D+1       -0.02303   0.00000   0.00000   0.00000  -0.01621
  54        6D-1        0.00000  -0.02029   0.00000   0.00000  -0.00000
  55        6D+2       -0.00000  -0.00000  -0.00006   0.00239  -0.00000
  56        6D-2        0.00000   0.00000   0.00000   0.00000   0.00000
                          46        47        48        49        50
  46        4PY         0.27538
  47        4PZ         0.00000   0.08572
  48        5S          0.00000   0.04554   0.02630
  49        5PX        -0.00000   0.00000   0.00000   0.00014
  50        5PY         0.07599  -0.00000  -0.00000  -0.00000   0.02862
  51        5PZ         0.00000   0.00480   0.00155   0.00000   0.00000
  52        6D 0       -0.00000  -0.01456  -0.00711  -0.00000  -0.00000
  53        6D+1       -0.00000   0.00000   0.00000  -0.00056   0.00000
  54        6D-1       -0.01465   0.00000   0.00000   0.00000  -0.00138
  55        6D+2       -0.00000   0.00019   0.00018   0.00000  -0.00000
  56        6D-2        0.00000   0.00000   0.00000   0.00000  -0.00000
                          51        52        53        54        55
  51        5PZ         0.00076
  52        6D 0       -0.00119   0.00368
  53        6D+1        0.00000   0.00000   0.00215
  54        6D-1        0.00000   0.00000   0.00000   0.00171
  55        6D+2       -0.00003   0.00010   0.00000   0.00000   0.00001
  56        6D-2       -0.00000   0.00000  -0.00000  -0.00000  -0.00000
                          56
  56        6D-2        0.00000
          Condensed to atoms (all electrons):
               1          2          3          4
     1  C    4.632891   0.422679   0.422679   0.396938
     2  H    0.422679   0.807987  -0.147917  -0.123276
     3  H    0.422679  -0.147917   0.807987  -0.123276
     4  O    0.396938  -0.123276  -0.123276   8.055481
 Mulliken charges:
               1
     1  C    0.124813
     2  H    0.040527
     3  H    0.040527
     4  O   -0.205867
 Sum of Mulliken charges =   0.00000
 Mulliken charges with hydrogens summed into heavy atoms:
               1
     1  C    0.205867
     4  O   -0.205867
 Electronic spatial extent (au):  <R**2>=             53.3172
 Charge=              0.0000 electrons
 Dipole moment (field-independent basis, Debye):
    X=              0.0000    Y=              0.0000    Z=             -1.2230  Tot=              1.2230
 Quadrupole moment (field-independent basis, Debye-Ang):
   XX=            -11.0744   YY=            -12.0350   ZZ=            -12.9896
   XY=             -0.0000   XZ=             -0.0000   YZ=             -0.0000
 Traceless Quadrupole moment (field-independent basis, Debye-Ang):
   XX=              0.9586   YY=             -0.0020   ZZ=             -0.9566
   XY=             -0.0000   XZ=             -0.0000   YZ=             -0.0000
 Octapole moment (field-independent basis, Debye-Ang**2):
  XXX=              0.0000  YYY=              0.0000  ZZZ=              2.5264  XYY=              0.0000
  XXY=             -0.0000  XXZ=              1.0054  XZZ=              0.0000  YZZ=              0.0000
  YYZ=              1.2993  XYZ=              0.0000
 Hexadecapole moment (field-independent basis, Debye-Ang**3):
 XXXX=             -9.3341 YYYY=            -21.7711 ZZZZ=            -40.0199 XXXY=             -0.0000
 XXXZ=             -0.0000 YYYX=             -0.0000 YYYZ=             -0.0000 ZZZX=             -0.0000
 ZZZY=              0.0000 XXYY=             -5.3144 XXZZ=             -8.0200 YYZZ=            -11.0720
 XXYZ=              0.0000 YYXZ=             -0.0000 ZZXY=             -0.0000
 N-N= 3.641638671696D+01 E-N=-3.424078039392D+02  KE= 1.154931256681D+02
 Symmetry A1   KE= 1.047167715608D+02
 Symmetry A2   KE= 1.087944051987D-35
 Symmetry B1   KE= 3.972546693089D+00
 Symmetry B2   KE= 6.803807414201D+00
 Leave Link  601 at Fri Sep 17 10:52:36 2021, MaxMem=   268435456 cpu:               0.0 elap:               0.0
 (Enter /software/gaussian/g16-a03/l9999.exe)
 Electronic transition elements 
                 1             2             3             4             5 
      1  -0.114228D+03 -0.114187D+03 -0.114158D+03 -0.114153D+03 -0.114132D+03
      2   0.000000D+00  0.000000D+00  0.000000D+00  0.000000D+00  0.000000D+00
      3   0.000000D+00  0.668058D+00  0.343621D+00  0.000000D+00  0.000000D+00
      4   0.000000D+00  0.000000D+00  0.000000D+00 -0.536528D+00  0.000000D+00
      5   0.000000D+00  0.000000D+00  0.000000D+00  0.000000D+00  0.000000D+00
      6   0.000000D+00 -0.152149D+00 -0.927469D-01  0.000000D+00  0.000000D+00
      7   0.000000D+00  0.000000D+00  0.000000D+00  0.136647D+00  0.000000D+00
      8   0.000000D+00 -0.437591D+00  0.791289D+00  0.000000D+00  0.000000D+00
      9   0.000000D+00  0.000000D+00  0.000000D+00  0.000000D+00  0.000000D+00
     10   0.129202D+01  0.000000D+00  0.000000D+00  0.000000D+00 -0.242172D+00
     11   0.000000D+00  0.000000D+00  0.000000D+00 -0.151118D+00  0.000000D+00
     12   0.000000D+00  0.000000D+00  0.000000D+00 -0.577600D+00  0.000000D+00
     13   0.000000D+00  0.000000D+00  0.000000D+00 -0.218674D+00  0.000000D+00
     14  -0.187882D+00  0.000000D+00  0.000000D+00  0.000000D+00 -0.132574D+00
     15   0.000000D+00  0.000000D+00  0.000000D+00  0.000000D+00  0.000000D+00
     16   0.000000D+00  0.532742D+00  0.195843D+00  0.000000D+00  0.000000D+00
                 6             7             8             9            10 
      1  -0.114046D+03 -0.114028D+03 -0.113993D+03 -0.113989D+03 -0.113980D+03
      2   0.000000D+00  0.000000D+00  0.000000D+00  0.000000D+00 -0.232322D-01
      3   0.100273D+01 -0.155874D+00  0.000000D+00  0.000000D+00  0.000000D+00
      4   0.000000D+00  0.000000D+00 -0.124620D+00  0.000000D+00  0.000000D+00
      5   0.000000D+00  0.000000D+00  0.000000D+00  0.000000D+00  0.564138D-03
      6  -0.374690D+00  0.289666D-01  0.000000D+00  0.000000D+00  0.000000D+00
      7   0.000000D+00  0.000000D+00  0.593813D-01  0.000000D+00  0.000000D+00
      8  -0.892236D+00  0.841278D+00  0.000000D+00  0.000000D+00  0.000000D+00
      9   0.000000D+00  0.000000D+00  0.000000D+00  0.000000D+00 -0.128431D+01
     10   0.000000D+00  0.000000D+00  0.000000D+00  0.499479D-01  0.000000D+00
     11   0.000000D+00  0.000000D+00 -0.767079D-02  0.000000D+00  0.000000D+00
     12   0.000000D+00  0.000000D+00 -0.781123D+00  0.000000D+00  0.000000D+00
     13   0.000000D+00  0.000000D+00 -0.831568D+00  0.000000D+00  0.000000D+00
     14   0.000000D+00  0.000000D+00  0.000000D+00  0.281050D+00  0.000000D+00
     15   0.000000D+00  0.000000D+00  0.000000D+00  0.000000D+00 -0.464126D+00
     16   0.855287D+00  0.240407D+00  0.000000D+00  0.000000D+00  0.000000D+00
                11            12            13            14            15 
      1  -0.113974D+03 -0.113941D+03 -0.113940D+03 -0.113938D+03 -0.113928D+03
      2   0.000000D+00 -0.354237D+00  0.000000D+00  0.000000D+00  0.000000D+00
      3   0.000000D+00  0.000000D+00  0.000000D+00 -0.360313D+00  0.000000D+00
      4  -0.559999D+00  0.000000D+00 -0.313075D+00  0.000000D+00  0.000000D+00
      5   0.000000D+00  0.172563D+00  0.000000D+00  0.000000D+00  0.000000D+00
      6   0.000000D+00  0.000000D+00  0.000000D+00  0.181418D+00  0.000000D+00
      7   0.249226D+00  0.000000D+00  0.147773D+00  0.000000D+00  0.000000D+00
      8   0.000000D+00  0.000000D+00  0.000000D+00 -0.513886D+00  0.000000D+00
      9   0.000000D+00 -0.461543D-01  0.000000D+00  0.000000D+00  0.000000D+00
     10   0.000000D+00  0.000000D+00  0.000000D+00  0.000000D+00 -0.416697D+00
     11   0.249154D+00  0.000000D+00  0.826178D-02  0.000000D+00  0.000000D+00
     12  -0.135278D+00  0.000000D+00  0.164822D+00  0.000000D+00  0.000000D+00
     13  -0.276549D+00  0.000000D+00  0.362300D+00  0.000000D+00  0.000000D+00
     14   0.000000D+00  0.000000D+00  0.000000D+00  0.000000D+00  0.249740D+00
     15   0.000000D+00 -0.282766D-01  0.000000D+00  0.000000D+00  0.000000D+00
     16   0.000000D+00  0.000000D+00  0.000000D+00  0.107530D+00  0.000000D+00
                16            17            18            19            20 
      1  -0.113919D+03 -0.113910D+03 -0.113909D+03 -0.113909D+03 -0.113908D+03
      2   0.000000D+00  0.000000D+00  0.229871D+00  0.000000D+00  0.000000D+00
      3   0.000000D+00 -0.359056D+00  0.000000D+00  0.000000D+00  0.000000D+00
      4   0.105999D+01  0.000000D+00  0.000000D+00  0.000000D+00 -0.569561D-01
      5   0.000000D+00  0.000000D+00 -0.125326D+00  0.000000D+00  0.000000D+00
      6   0.000000D+00  0.181814D+00  0.000000D+00  0.000000D+00  0.000000D+00
      7  -0.526686D+00  0.000000D+00  0.000000D+00  0.000000D+00  0.228815D-01
      8   0.000000D+00 -0.285433D+00  0.000000D+00  0.000000D+00  0.000000D+00
      9   0.000000D+00  0.000000D+00 -0.828084D-01  0.000000D+00  0.000000D+00
     10   0.000000D+00  0.000000D+00  0.000000D+00  0.569609D-01  0.000000D+00
     11   0.413193D+00  0.000000D+00  0.000000D+00  0.000000D+00 -0.553356D+00
     12   0.574153D+00  0.000000D+00  0.000000D+00  0.000000D+00 -0.567978D+00
     13   0.460577D+00  0.000000D+00  0.000000D+00  0.000000D+00 -0.211171D+00
     14   0.000000D+00  0.000000D+00  0.000000D+00  0.243240D+00  0.000000D+00
     15   0.000000D+00  0.000000D+00 -0.281741D+00  0.000000D+00  0.000000D+00
     16   0.000000D+00  0.379518D-01  0.000000D+00  0.000000D+00  0.000000D+00
                21            22            23            24            25 
      1  -0.113886D+03 -0.113881D+03 -0.113873D+03 -0.113854D+03 -0.113848D+03
      2  -0.270902D+00  0.000000D+00  0.000000D+00  0.000000D+00  0.000000D+00
      3   0.000000D+00 -0.486510D+00  0.000000D+00 -0.218833D+00  0.208469D+00
      4   0.000000D+00  0.000000D+00 -0.594887D+00  0.000000D+00  0.000000D+00
      5   0.137599D+00  0.000000D+00  0.000000D+00  0.000000D+00  0.000000D+00
      6   0.000000D+00  0.260077D+00  0.000000D+00  0.115918D+00 -0.122533D+00
      7   0.000000D+00  0.000000D+00  0.328618D+00  0.000000D+00  0.000000D+00
      8   0.000000D+00  0.269953D+00  0.000000D+00  0.111766D+01 -0.236836D+00
      9   0.701618D+00  0.000000D+00  0.000000D+00  0.000000D+00  0.000000D+00
     10   0.000000D+00  0.000000D+00  0.000000D+00  0.000000D+00  0.000000D+00
     11   0.000000D+00  0.000000D+00  0.337356D+00  0.000000D+00  0.000000D+00
     12   0.000000D+00  0.000000D+00 -0.490141D+00  0.000000D+00  0.000000D+00
     13   0.000000D+00  0.000000D+00 -0.430208D-01  0.000000D+00  0.000000D+00
     14   0.000000D+00  0.000000D+00  0.000000D+00  0.000000D+00  0.000000D+00
     15   0.295439D+00  0.000000D+00  0.000000D+00  0.000000D+00  0.000000D+00
     16   0.000000D+00 -0.332027D+00  0.000000D+00 -0.149537D+00 -0.334235D+00
                26            27            28            29            30 
      1  -0.113847D+03 -0.113842D+03 -0.113826D+03 -0.113824D+03 -0.113815D+03
      2  -0.545051D+00  0.000000D+00  0.000000D+00  0.000000D+00  0.524912D+00
      3   0.000000D+00  0.000000D+00  0.000000D+00  0.000000D+00  0.000000D+00
      4   0.000000D+00 -0.341838D+00  0.000000D+00  0.529993D-01  0.000000D+00
      5   0.324796D+00  0.000000D+00  0.000000D+00  0.000000D+00 -0.304658D+00
      6   0.000000D+00  0.000000D+00  0.000000D+00  0.000000D+00  0.000000D+00
      7   0.000000D+00  0.200921D+00  0.000000D+00 -0.385257D-01  0.000000D+00
      8   0.000000D+00  0.000000D+00  0.000000D+00  0.000000D+00  0.000000D+00
      9  -0.510489D+00  0.000000D+00  0.000000D+00  0.000000D+00  0.594467D-01
     10   0.000000D+00  0.000000D+00  0.920852D-01  0.000000D+00  0.000000D+00
     11   0.000000D+00  0.104305D+00  0.000000D+00 -0.475281D+00  0.000000D+00
     12   0.000000D+00  0.361209D+00  0.000000D+00 -0.948446D-01  0.000000D+00
     13   0.000000D+00 -0.208298D+00  0.000000D+00 -0.313365D+00  0.000000D+00
     14   0.000000D+00  0.000000D+00  0.255867D+00  0.000000D+00  0.000000D+00
     15  -0.441790D+00  0.000000D+00  0.000000D+00  0.000000D+00  0.344390D+00
     16   0.000000D+00  0.000000D+00  0.000000D+00  0.000000D+00  0.000000D+00

 Test job not archived.
 1\1\GINC-BHD0009\SP\RB3LYP TD-FC\6-311+G(d,p)\C1H2O1\BWEIGHT\17-Sep-20
 21\0\\#p B3LYP/6-311+G** #p TD=(singlets,nstates=30)IOp(6/8=3) IOp(9/4
 0=4)\\Scan Step 97, Bond Length 0.985\\0,1\C,0,0.,0.,-0.52736\H,0,0.,0
 .93726,-1.11871\H,0,0.,-0.93726,-1.11871\O,0,0.,0.,0.45764\\Version=ES
 64L-G16RevA.03\State=1-A1\HF=-114.4187298\RMSD=1.979e-09\PG=C02V [C2(C
 1O1),SGV(H2)]\\@


 THE WISE MAN HAS THE POWER TO REASON AWAY
 WHAT A FOOL BELIEVES.
                     - DOOBIE BROTHERS
 Job cpu time:       0 days  0 hours  0 minutes 27.0 seconds.
 Elapsed time:       0 days  0 hours  0 minutes 27.7 seconds.
 File lengths (MBytes):  RWF=     79 Int=      0 D2E=      0 Chk=     32 Scr=      1
 Normal termination of Gaussian 16 at Fri Sep 17 10:52:36 2021.
