 Entering Gaussian System, Link 0=g16
 Initial command:
 /software/gaussian/g16-c01/sse4/g16/l1.exe "/local_scratch/24665322/Gau-9215.inp" -scrdir="/local_scratch/24665322/"
 Entering Link 1 = /software/gaussian/g16-c01/sse4/g16/l1.exe PID=      9216.
  
 Copyright (c) 1988-2019, Gaussian, Inc.  All Rights Reserved.
  
 This is part of the Gaussian(R) 16 program.  It is based on
 the Gaussian(R) 09 system (copyright 2009, Gaussian, Inc.),
 the Gaussian(R) 03 system (copyright 2003, Gaussian, Inc.),
 the Gaussian(R) 98 system (copyright 1998, Gaussian, Inc.),
 the Gaussian(R) 94 system (copyright 1995, Gaussian, Inc.),
 the Gaussian 92(TM) system (copyright 1992, Gaussian, Inc.),
 the Gaussian 90(TM) system (copyright 1990, Gaussian, Inc.),
 the Gaussian 88(TM) system (copyright 1988, Gaussian, Inc.),
 the Gaussian 86(TM) system (copyright 1986, Carnegie Mellon
 University), and the Gaussian 82(TM) system (copyright 1983,
 Carnegie Mellon University). Gaussian is a federally registered
 trademark of Gaussian, Inc.
  
 This software contains proprietary and confidential information,
 including trade secrets, belonging to Gaussian, Inc.
  
 This software is provided under written license and may be
 used, copied, transmitted, or stored only in accord with that
 written license.
  
 The following legend is applicable only to US Government
 contracts under FAR:
  
                    RESTRICTED RIGHTS LEGEND
  
 Use, reproduction and disclosure by the US Government is
 subject to restrictions as set forth in subparagraphs (a)
 and (c) of the Commercial Computer Software - Restricted
 Rights clause in FAR 52.227-19.
  
 Gaussian, Inc.
 340 Quinnipiac St., Bldg. 40, Wallingford CT 06492
  
  
 ---------------------------------------------------------------
 Warning -- This program may not be used in any manner that
 competes with the business of Gaussian, Inc. or will provide
 assistance to any competitor of Gaussian, Inc.  The licensee
 of this program is prohibited from giving any competitor of
 Gaussian, Inc. access to this program.  By using this program,
 the user acknowledges that Gaussian, Inc. is engaged in the
 business of creating and licensing software in the field of
 computational chemistry and represents and warrants to the
 licensee that it is not a competitor of Gaussian, Inc. and that
 it will not use this program in any manner prohibited above.
 ---------------------------------------------------------------
  

 Cite this work as:
 Gaussian 16, Revision C.01,
 M. J. Frisch, G. W. Trucks, H. B. Schlegel, G. E. Scuseria, 
 M. A. Robb, J. R. Cheeseman, G. Scalmani, V. Barone, 
 G. A. Petersson, H. Nakatsuji, X. Li, M. Caricato, A. V. Marenich, 
 J. Bloino, B. G. Janesko, R. Gomperts, B. Mennucci, H. P. Hratchian, 
 J. V. Ortiz, A. F. Izmaylov, J. L. Sonnenberg, D. Williams-Young, 
 F. Ding, F. Lipparini, F. Egidi, J. Goings, B. Peng, A. Petrone, 
 T. Henderson, D. Ranasinghe, V. G. Zakrzewski, J. Gao, N. Rega, 
 G. Zheng, W. Liang, M. Hada, M. Ehara, K. Toyota, R. Fukuda, 
 J. Hasegawa, M. Ishida, T. Nakajima, Y. Honda, O. Kitao, H. Nakai, 
 T. Vreven, K. Throssell, J. A. Montgomery, Jr., J. E. Peralta, 
 F. Ogliaro, M. J. Bearpark, J. J. Heyd, E. N. Brothers, K. N. Kudin, 
 V. N. Staroverov, T. A. Keith, R. Kobayashi, J. Normand, 
 K. Raghavachari, A. P. Rendell, J. C. Burant, S. S. Iyengar, 
 J. Tomasi, M. Cossi, J. M. Millam, M. Klene, C. Adamo, R. Cammi, 
 J. W. Ochterski, R. L. Martin, K. Morokuma, O. Farkas, 
 J. B. Foresman, and D. J. Fox, Gaussian, Inc., Wallingford CT, 2019.
 
 ******************************************
 Gaussian 16:  ES64L-G16RevC.01  3-Jul-2019
                 2-May-2024 
 ******************************************
 %chk=geometry.chk
 %mem=1GB
 %nprocshared=12
 Will use up to   12 processors via shared memory.
 --------------------------------------
 #P wB97XD/6-311+G* NoSymm #P Field=Y-9
 --------------------------------------
 1/38=1,172=1/1;
 2/12=2,15=1,17=6,18=5,40=1/2;
 3/5=4,6=6,7=11,11=2,14=2,15=-9,25=1,30=1,74=-58/1,2,3;
 4//1;
 5/5=2,38=5/2;
 6/7=2,8=2,9=2,10=2,28=1/1;
 99/5=1,9=1/99;
 Leave Link    1 at Thu May  2 13:57:42 2024, MaxMem=   134217728 cpu:               1.6 elap:               1.6
 (Enter /software/gaussian/g16-c01/sse4/g16/l101.exe)
 -------
 TitleMe
 -------
 Symbolic Z-matrix:
 Charge =  1 Multiplicity = 1
 C                     0.5193    1.233    -0.0319 
 C                     1.9445    1.2692   -0.0367 
 C                     2.6204    0.0928   -0.025 
 C                    -0.196     0.0301    0.001 
 H                    -0.0207    2.1742   -0.0434 
 H                     2.4828    2.2089   -0.0361 
 H                    -1.2777    0.0399    0.0117 
 N                     4.0921    0.0959    0.0366 
 O                     4.6393   -1.0217    0.1446 
 O                     4.6649    1.1984   -0.0233 
 C                     0.4943   -1.1671    0.021 
 H                    -0.0325   -2.1149    0.0545 
 C                     1.9629   -1.2165   -0.0211 
 H                     2.4436   -1.9631    0.6151 
 Br                    2.173    -1.9491   -1.9062 
 
 ITRead=  0  0  0  0  0  0  0  0  0  0  0  0  0  0  0
 MicOpt= -1 -1 -1 -1 -1 -1 -1 -1 -1 -1 -1 -1 -1 -1 -1
 NAtoms=     15 NQM=       15 NQMF=       0 NMMI=      0 NMMIF=      0
                NMic=       0 NMicF=      0.
                    Isotopes and Nuclear Properties:
 (Nuclear quadrupole moments (NQMom) in fm**2, nuclear magnetic moments (NMagM)
  in nuclear magnetons)

  Atom         1           2           3           4           5           6           7           8           9          10
 IAtWgt=          12          12          12          12           1           1           1          14          16          16
 AtmWgt=  12.0000000  12.0000000  12.0000000  12.0000000   1.0078250   1.0078250   1.0078250  14.0030740  15.9949146  15.9949146
 NucSpn=           0           0           0           0           1           1           1           2           0           0
 AtZEff=  -0.0000000  -0.0000000  -0.0000000  -0.0000000  -0.0000000  -0.0000000  -0.0000000  -0.0000000  -0.0000000  -0.0000000
 NQMom=    0.0000000   0.0000000   0.0000000   0.0000000   0.0000000   0.0000000   0.0000000   2.0440000   0.0000000   0.0000000
 NMagM=    0.0000000   0.0000000   0.0000000   0.0000000   2.7928460   2.7928460   2.7928460   0.4037610   0.0000000   0.0000000
 AtZNuc=   6.0000000   6.0000000   6.0000000   6.0000000   1.0000000   1.0000000   1.0000000   7.0000000   8.0000000   8.0000000

  Atom        11          12          13          14          15
 IAtWgt=          12           1          12           1          79
 AtmWgt=  12.0000000   1.0078250  12.0000000   1.0078250  78.9183361
 NucSpn=           0           1           0           1           3
 AtZEff=  -0.0000000  -0.0000000  -0.0000000  -0.0000000  -0.0000000
 NQMom=    0.0000000   0.0000000   0.0000000   0.0000000  31.3000000
 NMagM=    0.0000000   2.7928460   0.0000000   2.7928460   2.1063990
 AtZNuc=   6.0000000   1.0000000   6.0000000   1.0000000  35.0000000
 Leave Link  101 at Thu May  2 13:57:44 2024, MaxMem=   134217728 cpu:               1.6 elap:               1.6
 (Enter /software/gaussian/g16-c01/sse4/g16/l202.exe)
                          Input orientation:                          
 ---------------------------------------------------------------------
 Center     Atomic      Atomic             Coordinates (Angstroms)
 Number     Number       Type             X           Y           Z
 ---------------------------------------------------------------------
      1          6           0        0.519300    1.233000   -0.031900
      2          6           0        1.944500    1.269200   -0.036700
      3          6           0        2.620400    0.092800   -0.025000
      4          6           0       -0.196000    0.030100    0.001000
      5          1           0       -0.020700    2.174200   -0.043400
      6          1           0        2.482800    2.208900   -0.036100
      7          1           0       -1.277700    0.039900    0.011700
      8          7           0        4.092100    0.095900    0.036600
      9          8           0        4.639300   -1.021700    0.144600
     10          8           0        4.664900    1.198400   -0.023300
     11          6           0        0.494300   -1.167100    0.021000
     12          1           0       -0.032500   -2.114900    0.054500
     13          6           0        1.962900   -1.216500   -0.021100
     14          1           0        2.443600   -1.963100    0.615100
     15         35           0        2.173000   -1.949100   -1.906200
 ---------------------------------------------------------------------
                    Distance matrix (angstroms):
                    1          2          3          4          5
     1  C    0.000000
     2  C    1.425668   0.000000
     3  C    2.390549   1.356796   0.000000
     4  C    1.399895   2.473566   2.817218   0.000000
     5  H    1.085168   2.163581   3.362733   2.151712   0.000000
     6  H    2.192654   1.082960   2.120598   3.453189   2.503751
     7  H    2.157452   3.449071   3.898632   1.081797   2.477564
     8  N    3.750012   2.448304   1.472992   4.288753   4.608780
     9  O    4.699917   3.541615   2.312322   4.950458   5.653735
    10  O    4.145753   2.721354   2.324292   4.999386   4.786171
    11  C    2.400813   2.835836   2.471794   1.382101   3.381369
    12  H    3.394169   3.920329   3.452266   2.151887   4.290233
    13  C    2.843264   2.485817   1.465124   2.493060   3.928360
    14  H    3.786370   3.334922   2.160489   3.364142   4.860416
    15  Br   4.046416   3.728900   2.812194   3.628609   5.028314
                    6          7          8          9         10
     6  H    0.000000
     7  H    4.341452   0.000000
     8  N    2.657047   5.370150   0.000000
     9  O    3.888434   6.012948   1.249048   0.000000
    10  O    2.404752   6.054572   1.243863   2.226587   0.000000
    11  C    3.918516   2.144043   3.813080   4.149391   4.794941
    12  H    5.003018   2.489080   4.679774   4.798846   5.748876
    13  C    3.464662   3.475788   2.501842   2.688591   3.623886
    14  H    4.222698   4.268978   2.700314   2.434893   3.916224
    15  Br   4.569706   4.420610   3.411663   3.338935   4.434144
                   11         12         13         14         15
    11  C    0.000000
    12  H    1.084880   0.000000
    13  C    1.470034   2.189625   0.000000
    14  H    2.187771   2.543302   1.092353   0.000000
    15  Br   2.672762   2.955683   2.033334   2.535818   0.000000
 Symmetry turned off by external request.
 Stoichiometry    C6H5BrNO2(1+)
 Framework group  C1[X(C6H5BrNO2)]
 Deg. of freedom    39
 Full point group                 C1      NOp   1
 Rotational constants (GHZ):           1.1632986           0.9594224           0.5957624
 Leave Link  202 at Thu May  2 13:57:45 2024, MaxMem=   134217728 cpu:               1.2 elap:               1.2
 (Enter /software/gaussian/g16-c01/sse4/g16/l301.exe)
 Standard basis: 6-311+G(d) (5D, 7F)
 Ernie: Thresh=  0.10000D-02 Tol=  0.10000D-05 Strict=F.
 The following finite field(s) will be applied:
 An electric field of              0.0000 -0.0009  0.0000
   261 basis functions,   443 primitive gaussians,   273 cartesian basis functions
    49 alpha electrons       49 beta electrons
       nuclear repulsion energy       772.8945969580 Hartrees.
 IExCor= 4639 DFT=T Ex+Corr=wB97XD ExCW=0 ScaHFX=  1.000000
 ScaDFX=  1.000000  1.000000  1.000000  1.000000 ScalE2=  1.000000  1.000000
 IRadAn=      5 IRanWt=     -1 IRanGd=            0 ICorTp=0 IEmpDi=121
 HFx  wShort=  0.000000 wLong=  0.200000 cFull=  0.222036 cShort=  0.000000 cLong=  0.777964
 DFx  wShort=  0.000000 wLong=  0.200000 cFull=  0.000000 cShort=  0.000000 cLong=  1.000000
 NAtoms=   15 NActive=   15 NUniq=   15 SFac= 1.00D+00 NAtFMM=   60 NAOKFM=F Big=F
 Integral buffers will be    131072 words long.
 Raffenetti 2 integral format.
 Two-electron integral symmetry is turned off.
 R6Disp:  Grimme-D2 Dispersion energy=       -0.0080346408 Hartrees.
 Nuclear repulsion after empirical dispersion term =      772.8865623173 Hartrees.
 Leave Link  301 at Thu May  2 13:57:46 2024, MaxMem=   134217728 cpu:               0.9 elap:               0.9
 (Enter /software/gaussian/g16-c01/sse4/g16/l302.exe)
 NPDir=0 NMtPBC=     1 NCelOv=     1 NCel=       1 NClECP=     1 NCelD=      1
         NCelK=      1 NCelE2=     1 NClLst=     1 CellRange=     0.0.
 One-electron integrals computed using PRISM.
 NBasis=   261 RedAO= T EigKep=  2.52D-06  NBF=   261
 NBsUse=   261 1.00D-06 EigRej= -1.00D+00 NBFU=   261
 Precomputing XC quadrature grid using
 IXCGrd= 4 IRadAn=           5 IRanWt=          -1 IRanGd=           0 AccXCQ= 0.00D+00.
 Generated NRdTot=       0 NPtTot=           0 NUsed=           0 NTot=          32
 NSgBfM=   273   273   273   273   273 MxSgAt=    15 MxSgA2=    15.
 Leave Link  302 at Thu May  2 13:58:07 2024, MaxMem=   134217728 cpu:              21.5 elap:              21.5
 (Enter /software/gaussian/g16-c01/sse4/g16/l303.exe)
 DipDrv:  MaxL=1.
 The nuclear repulsion energy is now       772.9959881180 hartrees.
 Leave Link  303 at Thu May  2 13:58:11 2024, MaxMem=   134217728 cpu:               3.4 elap:               3.4
 (Enter /software/gaussian/g16-c01/sse4/g16/l401.exe)
 ExpMin= 3.50D-02 ExpMax= 4.40D+05 ExpMxC= 1.51D+04 IAcc=3 IRadAn=         5 AccDes= 0.00D+00
 Harris functional with IExCor= 4639 and IRadAn=       5 diagonalized for initial guess.
 HarFok:  IExCor= 4639 AccDes= 0.00D+00 IRadAn=         5 IDoV= 1 UseB2=F ITyADJ=14
 ICtDFT=  3500011 ScaDFX=  1.000000  1.000000  1.000000  1.000000
 FoFCou: FMM=F IPFlag=           0 FMFlag=      100000 FMFlg1=           0
         NFxFlg=           0 DoJE=T BraDBF=F KetDBF=T FulRan=T
         wScrn=  0.000000 ICntrl=       500 IOpCl=  0 I1Cent=   200000004 NGrid=           0
         NMat0=    1 NMatS0=      1 NMatT0=    0 NMatD0=    1 NMtDS0=    0 NMtDT0=    0
 Symmetry not used in FoFCou.
 Harris En= -2970.59959100795    
 JPrj=0 DoOrth=F DoCkMO=F.
 Leave Link  401 at Thu May  2 13:58:42 2024, MaxMem=   134217728 cpu:              31.2 elap:              31.2
 (Enter /software/gaussian/g16-c01/sse4/g16/l502.exe)
 Two-electron integral symmetry not used.
 Closed shell SCF:
 Using DIIS extrapolation, IDIIS=  1040.
 NGot=   134217728 LenX=   134063053 LenY=   133988083
 Requested convergence on RMS density matrix=1.00D-08 within 128 cycles.
 Requested convergence on MAX density matrix=1.00D-06.
 Requested convergence on             energy=1.00D-06.
 No special actions if energy rises.
 Fock matrices will be formed incrementally for  20 cycles.

 Cycle   1  Pass 1  IDiag  1:
 FoFJK:  IHMeth= 1 ICntrl=       0 DoSepK=T KAlg= 0 I1Cent=           0 FoldK=F
 IRaf=         1 NMat=       1 IRICut=       1 DoRegI=T DoRafI=F ISym2E= 0 IDoP0=0 IntGTp=1.
 FoFCou: FMM=F IPFlag=           0 FMFlag=      100000 FMFlg1=           0
         NFxFlg=           0 DoJE=T BraDBF=F KetDBF=F FulRan=T
         wScrn=  0.000000 ICntrl=       500 IOpCl=  0 I1Cent=           0 NGrid=           0
         NMat0=    1 NMatS0=      1 NMatT0=    0 NMatD0=    1 NMtDS0=    0 NMtDT0=    0
 Symmetry not used in FoFCou.
 E= -3009.70097084919    
 DIIS: error= 2.90D-01 at cycle   1 NSaved=   1.
 NSaved= 1 IEnMin= 1 EnMin= -3009.70097084919     IErMin= 1 ErrMin= 2.90D-01
 ErrMax= 2.90D-01  0.00D+00 EMaxC= 1.00D-01 BMatC= 1.19D+01 BMatP= 1.19D+01
 IDIUse=3 WtCom= 0.00D+00 WtEn= 1.00D+00
 Coeff-Com:  0.100D+01
 Coeff-En:   0.100D+01
 Coeff:      0.100D+01
 Gap=     0.315 Goal=   None    Shift=    0.000
 GapD=    0.315 DampG=1.000 DampE=0.250 DampFc=0.2500 IDamp=-1.
 Damping current iteration by 2.50D-01
 RMSDP=4.28D-02 MaxDP=3.73D+00              OVMax= 2.61D-01

 Cycle   2  Pass 1  IDiag  1:
 RMSU=  5.32D-03    CP:  9.16D-01
 E= -3009.99150024071     Delta-E=       -0.290529391518 Rises=F Damp=T
 DIIS: error= 2.19D-01 at cycle   2 NSaved=   2.
 NSaved= 2 IEnMin= 2 EnMin= -3009.99150024071     IErMin= 2 ErrMin= 2.19D-01
 ErrMax= 2.19D-01  0.00D+00 EMaxC= 1.00D-01 BMatC= 5.46D+00 BMatP= 1.19D+01
 IDIUse=3 WtCom= 0.00D+00 WtEn= 1.00D+00
 Coeff-Com: -0.183D+01 0.283D+01
 Coeff-En:   0.000D+00 0.100D+01
 Coeff:      0.000D+00 0.100D+01
 Gap=     0.269 Goal=   None    Shift=    0.000
 RMSDP=3.39D-02 MaxDP=3.27D+00 DE=-2.91D-01 OVMax= 7.12D-02

 Cycle   3  Pass 1  IDiag  1:
 RMSU=  4.99D-03    CP:  6.27D-01  3.00D+00
 E= -3010.37646062445     Delta-E=       -0.384960383740 Rises=F Damp=F
 DIIS: error= 6.59D-02 at cycle   3 NSaved=   3.
 NSaved= 3 IEnMin= 3 EnMin= -3010.37646062445     IErMin= 3 ErrMin= 6.59D-02
 ErrMax= 6.59D-02  0.00D+00 EMaxC= 1.00D-01 BMatC= 7.35D-01 BMatP= 5.46D+00
 IDIUse=3 WtCom= 3.41D-01 WtEn= 6.59D-01
 Coeff-Com:  0.263D+01-0.345D+01 0.182D+01
 Coeff-En:   0.359D-01 0.000D+00 0.964D+00
 Coeff:      0.920D+00-0.118D+01 0.126D+01
 Gap=     0.263 Goal=   None    Shift=    0.000
 RMSDP=1.14D-02 MaxDP=7.33D-01 DE=-3.85D-01 OVMax= 7.51D-02

 Cycle   4  Pass 1  IDiag  1:
 RMSU=  4.73D-03    CP:  6.68D-01  1.59D+00  2.09D+00
 E= -3010.48595575549     Delta-E=       -0.109495131041 Rises=F Damp=F
 DIIS: error= 3.76D-02 at cycle   4 NSaved=   4.
 NSaved= 4 IEnMin= 4 EnMin= -3010.48595575549     IErMin= 4 ErrMin= 3.76D-02
 ErrMax= 3.76D-02  0.00D+00 EMaxC= 1.00D-01 BMatC= 2.21D-01 BMatP= 7.35D-01
 IDIUse=3 WtCom= 6.24D-01 WtEn= 3.76D-01
 Coeff-Com: -0.846D-01 0.126D+00 0.318D+00 0.641D+00
 Coeff-En:   0.000D+00 0.000D+00 0.188D+00 0.812D+00
 Coeff:     -0.528D-01 0.786D-01 0.269D+00 0.705D+00
 Gap=     0.253 Goal=   None    Shift=    0.000
 RMSDP=5.51D-03 MaxDP=6.79D-01 DE=-1.09D-01 OVMax= 3.12D-02

 Cycle   5  Pass 1  IDiag  1:
 RMSU=  1.43D-03    CP:  6.26D-01  1.94D+00  1.94D+00  6.00D-01
 E= -3010.52959970138     Delta-E=       -0.043643945892 Rises=F Damp=F
 DIIS: error= 6.76D-03 at cycle   5 NSaved=   5.
 NSaved= 5 IEnMin= 5 EnMin= -3010.52959970138     IErMin= 5 ErrMin= 6.76D-03
 ErrMax= 6.76D-03  0.00D+00 EMaxC= 1.00D-01 BMatC= 7.77D-03 BMatP= 2.21D-01
 IDIUse=3 WtCom= 9.32D-01 WtEn= 6.76D-02
 Coeff-Com: -0.105D+00 0.144D+00 0.755D-01 0.343D+00 0.542D+00
 Coeff-En:   0.000D+00 0.000D+00 0.000D+00 0.000D+00 0.100D+01
 Coeff:     -0.983D-01 0.135D+00 0.704D-01 0.320D+00 0.573D+00
 Gap=     0.245 Goal=   None    Shift=    0.000
 RMSDP=1.29D-03 MaxDP=1.63D-01 DE=-4.36D-02 OVMax= 1.52D-02

 Cycle   6  Pass 1  IDiag  1:
 RMSU=  4.84D-04    CP:  6.33D-01  1.90D+00  2.01D+00  7.46D-01  6.80D-01
 E= -3010.53129127678     Delta-E=       -0.001691575402 Rises=F Damp=F
 DIIS: error= 2.47D-03 at cycle   6 NSaved=   6.
 NSaved= 6 IEnMin= 6 EnMin= -3010.53129127678     IErMin= 6 ErrMin= 2.47D-03
 ErrMax= 2.47D-03  0.00D+00 EMaxC= 1.00D-01 BMatC= 4.49D-04 BMatP= 7.77D-03
 IDIUse=3 WtCom= 9.75D-01 WtEn= 2.47D-02
 Coeff-Com: -0.824D-01 0.111D+00 0.182D-02 0.159D+00 0.383D+00 0.428D+00
 Coeff-En:   0.000D+00 0.000D+00 0.000D+00 0.000D+00 0.583D-01 0.942D+00
 Coeff:     -0.804D-01 0.108D+00 0.178D-02 0.155D+00 0.375D+00 0.440D+00
 Gap=     0.244 Goal=   None    Shift=    0.000
 RMSDP=4.89D-04 MaxDP=5.89D-02 DE=-1.69D-03 OVMax= 7.32D-03

 Cycle   7  Pass 1  IDiag  1:
 RMSU=  2.20D-04    CP:  6.31D-01  1.90D+00  2.01D+00  7.06D-01  8.00D-01
                    CP:  6.16D-01
 E= -3010.53160426340     Delta-E=       -0.000312986613 Rises=F Damp=F
 DIIS: error= 4.83D-04 at cycle   7 NSaved=   7.
 NSaved= 7 IEnMin= 7 EnMin= -3010.53160426340     IErMin= 7 ErrMin= 4.83D-04
 ErrMax= 4.83D-04  0.00D+00 EMaxC= 1.00D-01 BMatC= 2.19D-05 BMatP= 4.49D-04
 IDIUse=3 WtCom= 9.95D-01 WtEn= 4.83D-03
 Coeff-Com: -0.350D-01 0.466D-01-0.122D-01 0.371D-01 0.111D+00 0.221D+00
 Coeff-Com:  0.632D+00
 Coeff-En:   0.000D+00 0.000D+00 0.000D+00 0.000D+00 0.000D+00 0.000D+00
 Coeff-En:   0.100D+01
 Coeff:     -0.348D-01 0.464D-01-0.122D-01 0.369D-01 0.110D+00 0.220D+00
 Coeff:      0.634D+00
 Gap=     0.245 Goal=   None    Shift=    0.000
 RMSDP=1.21D-04 MaxDP=9.02D-03 DE=-3.13D-04 OVMax= 1.39D-03

 Cycle   8  Pass 1  IDiag  1:
 RMSU=  5.71D-05    CP:  6.30D-01  1.89D+00  2.01D+00  7.19D-01  8.40D-01
                    CP:  6.62D-01  8.78D-01
 E= -3010.53162561957     Delta-E=       -0.000021356171 Rises=F Damp=F
 DIIS: error= 9.15D-05 at cycle   8 NSaved=   8.
 NSaved= 8 IEnMin= 8 EnMin= -3010.53162561957     IErMin= 8 ErrMin= 9.15D-05
 ErrMax= 9.15D-05  0.00D+00 EMaxC= 1.00D-01 BMatC= 1.99D-06 BMatP= 2.19D-05
 IDIUse=1 WtCom= 1.00D+00 WtEn= 0.00D+00
 Coeff-Com:  0.448D-02-0.618D-02-0.309D-02-0.138D-01-0.339D-01-0.267D-01
 Coeff-Com:  0.127D+00 0.953D+00
 Coeff:      0.448D-02-0.618D-02-0.309D-02-0.138D-01-0.339D-01-0.267D-01
 Coeff:      0.127D+00 0.953D+00
 Gap=     0.245 Goal=   None    Shift=    0.000
 RMSDP=6.01D-05 MaxDP=2.80D-03 DE=-2.14D-05 OVMax= 1.38D-03

 Cycle   9  Pass 1  IDiag  1:
 RMSU=  2.36D-05    CP:  6.31D-01  1.89D+00  2.01D+00  7.23D-01  8.53D-01
                    CP:  6.71D-01  1.03D+00  1.23D+00
 E= -3010.53162991176     Delta-E=       -0.000004292197 Rises=F Damp=F
 DIIS: error= 2.23D-05 at cycle   9 NSaved=   9.
 NSaved= 9 IEnMin= 9 EnMin= -3010.53162991176     IErMin= 9 ErrMin= 2.23D-05
 ErrMax= 2.23D-05  0.00D+00 EMaxC= 1.00D-01 BMatC= 2.63D-07 BMatP= 1.99D-06
 IDIUse=1 WtCom= 1.00D+00 WtEn= 0.00D+00
 Coeff-Com:  0.704D-02-0.946D-02 0.811D-03-0.102D-01-0.246D-01-0.366D-01
 Coeff-Com: -0.573D-01 0.302D+00 0.828D+00
 Coeff:      0.704D-02-0.946D-02 0.811D-03-0.102D-01-0.246D-01-0.366D-01
 Coeff:     -0.573D-01 0.302D+00 0.828D+00
 Gap=     0.245 Goal=   None    Shift=    0.000
 RMSDP=4.29D-05 MaxDP=5.17D-03 DE=-4.29D-06 OVMax= 7.47D-04

 Cycle  10  Pass 1  IDiag  1:
 RMSU=  8.23D-06    CP:  6.30D-01  1.88D+00  2.01D+00  7.21D-01  8.59D-01
                    CP:  6.55D-01  1.07D+00  1.53D+00  1.03D+00
 E= -3010.53163079430     Delta-E=       -0.000000882539 Rises=F Damp=F
 DIIS: error= 1.36D-05 at cycle  10 NSaved=  10.
 NSaved=10 IEnMin=10 EnMin= -3010.53163079430     IErMin=10 ErrMin= 1.36D-05
 ErrMax= 1.36D-05  0.00D+00 EMaxC= 1.00D-01 BMatC= 6.64D-08 BMatP= 2.63D-07
 IDIUse=1 WtCom= 1.00D+00 WtEn= 0.00D+00
 Coeff-Com:  0.553D-03-0.717D-03 0.457D-03 0.861D-04 0.340D-02 0.354D-02
 Coeff-Com: -0.323D-01-0.105D+00 0.168D+00 0.961D+00
 Coeff:      0.553D-03-0.717D-03 0.457D-03 0.861D-04 0.340D-02 0.354D-02
 Coeff:     -0.323D-01-0.105D+00 0.168D+00 0.961D+00
 Gap=     0.245 Goal=   None    Shift=    0.000
 RMSDP=1.51D-05 MaxDP=1.46D-03 DE=-8.83D-07 OVMax= 4.38D-04

 Cycle  11  Pass 1  IDiag  1:
 RMSU=  8.00D-06    CP:  6.30D-01  1.88D+00  2.01D+00  7.21D-01  8.61D-01
                    CP:  6.49D-01  1.06D+00  1.67D+00  1.17D+00  1.36D+00
 E= -3010.53163102897     Delta-E=       -0.000000234663 Rises=F Damp=F
 DIIS: error= 6.89D-06 at cycle  11 NSaved=  11.
 NSaved=11 IEnMin=11 EnMin= -3010.53163102897     IErMin=11 ErrMin= 6.89D-06
 ErrMax= 6.89D-06  0.00D+00 EMaxC= 1.00D-01 BMatC= 8.25D-09 BMatP= 6.64D-08
 IDIUse=1 WtCom= 1.00D+00 WtEn= 0.00D+00
 Coeff-Com: -0.351D-03 0.471D-03 0.481D-04 0.958D-03 0.285D-02 0.522D-02
 Coeff-Com:  0.984D-02-0.328D-01-0.145D+00-0.939D-01 0.125D+01
 Coeff:     -0.351D-03 0.471D-03 0.481D-04 0.958D-03 0.285D-02 0.522D-02
 Coeff:      0.984D-02-0.328D-01-0.145D+00-0.939D-01 0.125D+01
 Gap=     0.245 Goal=   None    Shift=    0.000
 RMSDP=1.42D-05 MaxDP=1.35D-03 DE=-2.35D-07 OVMax= 2.91D-04

 Cycle  12  Pass 1  IDiag  1:
 RMSU=  1.66D-06    CP:  6.30D-01  1.89D+00  2.01D+00  7.20D-01  8.61D-01
                    CP:  6.41D-01  1.06D+00  1.76D+00  1.20D+00  1.76D+00
                    CP:  1.62D+00
 E= -3010.53163109642     Delta-E=       -0.000000067452 Rises=F Damp=F
 DIIS: error= 4.21D-06 at cycle  12 NSaved=  12.
 NSaved=12 IEnMin=12 EnMin= -3010.53163109642     IErMin=12 ErrMin= 4.21D-06
 ErrMax= 4.21D-06  0.00D+00 EMaxC= 1.00D-01 BMatC= 2.94D-09 BMatP= 8.25D-09
 IDIUse=1 WtCom= 1.00D+00 WtEn= 0.00D+00
 Coeff-Com: -0.227D-03 0.300D-03-0.479D-04 0.406D-03 0.445D-03 0.153D-02
 Coeff-Com:  0.113D-01 0.614D-02-0.105D+00-0.259D+00 0.615D+00 0.730D+00
 Coeff:     -0.227D-03 0.300D-03-0.479D-04 0.406D-03 0.445D-03 0.153D-02
 Coeff:      0.113D-01 0.614D-02-0.105D+00-0.259D+00 0.615D+00 0.730D+00
 Gap=     0.245 Goal=   None    Shift=    0.000
 RMSDP=3.21D-06 MaxDP=2.89D-04 DE=-6.75D-08 OVMax= 1.14D-04

 Cycle  13  Pass 1  IDiag  1:
 RMSU=  9.28D-07    CP:  6.30D-01  1.89D+00  2.01D+00  7.20D-01  8.61D-01
                    CP:  6.39D-01  1.06D+00  1.78D+00  1.22D+00  1.85D+00
                    CP:  1.85D+00  1.20D+00
 E= -3010.53163110803     Delta-E=       -0.000000011607 Rises=F Damp=F
 DIIS: error= 1.50D-06 at cycle  13 NSaved=  13.
 NSaved=13 IEnMin=13 EnMin= -3010.53163110803     IErMin=13 ErrMin= 1.50D-06
 ErrMax= 1.50D-06  0.00D+00 EMaxC= 1.00D-01 BMatC= 3.81D-10 BMatP= 2.94D-09
 IDIUse=1 WtCom= 1.00D+00 WtEn= 0.00D+00
 Coeff-Com:  0.707D-05-0.950D-05-0.177D-04-0.130D-03-0.627D-03-0.116D-02
 Coeff-Com: -0.185D-02 0.574D-02 0.299D-01 0.518D-02-0.226D+00 0.102D+00
 Coeff-Com:  0.109D+01
 Coeff:      0.707D-05-0.950D-05-0.177D-04-0.130D-03-0.627D-03-0.116D-02
 Coeff:     -0.185D-02 0.574D-02 0.299D-01 0.518D-02-0.226D+00 0.102D+00
 Coeff:      0.109D+01
 Gap=     0.245 Goal=   None    Shift=    0.000
 RMSDP=9.66D-07 MaxDP=4.97D-05 DE=-1.16D-08 OVMax= 4.32D-05

 Cycle  14  Pass 1  IDiag  1:
 RMSU=  3.53D-07    CP:  6.30D-01  1.89D+00  2.01D+00  7.20D-01  8.61D-01
                    CP:  6.39D-01  1.06D+00  1.78D+00  1.22D+00  1.87D+00
                    CP:  1.90D+00  1.43D+00  1.57D+00
 E= -3010.53163110992     Delta-E=       -0.000000001890 Rises=F Damp=F
 DIIS: error= 5.22D-07 at cycle  14 NSaved=  14.
 NSaved=14 IEnMin=14 EnMin= -3010.53163110992     IErMin=14 ErrMin= 5.22D-07
 ErrMax= 5.22D-07  0.00D+00 EMaxC= 1.00D-01 BMatC= 6.78D-11 BMatP= 3.81D-10
 IDIUse=1 WtCom= 1.00D+00 WtEn= 0.00D+00
 Coeff-Com:  0.173D-04-0.227D-04-0.523D-05-0.891D-04-0.237D-03-0.573D-03
 Coeff-Com: -0.223D-02 0.676D-03 0.265D-01 0.395D-01-0.180D+00-0.675D-01
 Coeff-Com:  0.398D+00 0.786D+00
 Coeff:      0.173D-04-0.227D-04-0.523D-05-0.891D-04-0.237D-03-0.573D-03
 Coeff:     -0.223D-02 0.676D-03 0.265D-01 0.395D-01-0.180D+00-0.675D-01
 Coeff:      0.398D+00 0.786D+00
 Gap=     0.245 Goal=   None    Shift=    0.000
 RMSDP=4.28D-07 MaxDP=3.88D-05 DE=-1.89D-09 OVMax= 1.42D-05

 Cycle  15  Pass 1  IDiag  1:
 RMSU=  1.49D-07    CP:  6.30D-01  1.89D+00  2.01D+00  7.21D-01  8.60D-01
                    CP:  6.39D-01  1.06D+00  1.78D+00  1.22D+00  1.88D+00
                    CP:  1.92D+00  1.51D+00  1.77D+00  1.26D+00
 E= -3010.53163111022     Delta-E=       -0.000000000302 Rises=F Damp=F
 DIIS: error= 2.71D-07 at cycle  15 NSaved=  15.
 NSaved=15 IEnMin=15 EnMin= -3010.53163111022     IErMin=15 ErrMin= 2.71D-07
 ErrMax= 2.71D-07  0.00D+00 EMaxC= 1.00D-01 BMatC= 1.05D-11 BMatP= 6.78D-11
 IDIUse=1 WtCom= 1.00D+00 WtEn= 0.00D+00
 Coeff-Com:  0.491D-05-0.654D-05 0.207D-05 0.803D-05 0.102D-03 0.139D-03
 Coeff-Com:  0.222D-04-0.101D-02-0.876D-03 0.704D-02 0.883D-02-0.356D-01
 Coeff-Com: -0.145D+00 0.191D+00 0.975D+00
 Coeff:      0.491D-05-0.654D-05 0.207D-05 0.803D-05 0.102D-03 0.139D-03
 Coeff:      0.222D-04-0.101D-02-0.876D-03 0.704D-02 0.883D-02-0.356D-01
 Coeff:     -0.145D+00 0.191D+00 0.975D+00
 Gap=     0.245 Goal=   None    Shift=    0.000
 RMSDP=1.73D-07 MaxDP=7.71D-06 DE=-3.02D-10 OVMax= 5.76D-06

 Cycle  16  Pass 1  IDiag  1:
 RMSU=  7.05D-08    CP:  6.30D-01  1.89D+00  2.01D+00  7.21D-01  8.60D-01
                    CP:  6.39D-01  1.06D+00  1.78D+00  1.22D+00  1.88D+00
                    CP:  1.92D+00  1.53D+00  1.84D+00  1.43D+00  1.47D+00
 E= -3010.53163111027     Delta-E=       -0.000000000056 Rises=F Damp=F
 DIIS: error= 6.75D-08 at cycle  16 NSaved=  16.
 NSaved=16 IEnMin=16 EnMin= -3010.53163111027     IErMin=16 ErrMin= 6.75D-08
 ErrMax= 6.75D-08  0.00D+00 EMaxC= 1.00D-01 BMatC= 8.83D-13 BMatP= 1.05D-11
 IDIUse=1 WtCom= 1.00D+00 WtEn= 0.00D+00
 Coeff-Com:  0.104D-06-0.172D-06 0.126D-05 0.913D-05 0.354D-04 0.622D-04
 Coeff-Com:  0.199D-03-0.259D-03-0.267D-02-0.220D-02 0.176D-01-0.237D-03
 Coeff-Com: -0.533D-01-0.593D-01 0.113D+00 0.987D+00
 Coeff:      0.104D-06-0.172D-06 0.126D-05 0.913D-05 0.354D-04 0.622D-04
 Coeff:      0.199D-03-0.259D-03-0.267D-02-0.220D-02 0.176D-01-0.237D-03
 Coeff:     -0.533D-01-0.593D-01 0.113D+00 0.987D+00
 Gap=     0.245 Goal=   None    Shift=    0.000
 RMSDP=7.83D-08 MaxDP=6.86D-06 DE=-5.59D-11 OVMax= 1.51D-06

 Cycle  17  Pass 1  IDiag  1:
 RMSU=  2.23D-08    CP:  6.30D-01  1.89D+00  2.01D+00  7.21D-01  8.60D-01
                    CP:  6.39D-01  1.06D+00  1.78D+00  1.21D+00  1.88D+00
                    CP:  1.92D+00  1.54D+00  1.86D+00  1.47D+00  1.74D+00
                    CP:  1.19D+00
 E= -3010.53163111023     Delta-E=        0.000000000039 Rises=F Damp=F
 DIIS: error= 2.57D-08 at cycle  17 NSaved=  17.
 NSaved=17 IEnMin=16 EnMin= -3010.53163111027     IErMin=17 ErrMin= 2.57D-08
 ErrMax= 2.57D-08  0.00D+00 EMaxC= 1.00D-01 BMatC= 1.96D-13 BMatP= 8.83D-13
 IDIUse=1 WtCom= 1.00D+00 WtEn= 0.00D+00
 Coeff-Com: -0.141D-05 0.188D-05-0.144D-06 0.191D-05-0.283D-05-0.391D-05
 Coeff-Com:  0.422D-04 0.116D-03-0.478D-03-0.125D-02 0.312D-02 0.426D-02
 Coeff-Com:  0.975D-02-0.438D-01-0.114D+00 0.228D+00 0.914D+00
 Coeff:     -0.141D-05 0.188D-05-0.144D-06 0.191D-05-0.283D-05-0.391D-05
 Coeff:      0.422D-04 0.116D-03-0.478D-03-0.125D-02 0.312D-02 0.426D-02
 Coeff:      0.975D-02-0.438D-01-0.114D+00 0.228D+00 0.914D+00
 Gap=     0.245 Goal=   None    Shift=    0.000
 RMSDP=4.99D-08 MaxDP=4.62D-06 DE= 3.91D-11 OVMax= 6.27D-07

 Cycle  18  Pass 1  IDiag  1:
 RMSU=  7.05D-09    CP:  6.30D-01  1.89D+00  2.01D+00  7.21D-01  8.60D-01
                    CP:  6.39D-01  1.06D+00  1.78D+00  1.21D+00  1.89D+00
                    CP:  1.92D+00  1.54D+00  1.86D+00  1.46D+00  1.83D+00
                    CP:  1.42D+00  1.15D+00
 E= -3010.53163111023     Delta-E=        0.000000000000 Rises=F Damp=F
 DIIS: error= 1.62D-08 at cycle  18 NSaved=  18.
 NSaved=18 IEnMin=16 EnMin= -3010.53163111027     IErMin=18 ErrMin= 1.62D-08
 ErrMax= 1.62D-08  0.00D+00 EMaxC= 1.00D-01 BMatC= 4.49D-14 BMatP= 1.96D-13
 IDIUse=1 WtCom= 1.00D+00 WtEn= 0.00D+00
 Coeff-Com: -0.215D-06 0.292D-06-0.221D-06-0.147D-05-0.930D-05-0.172D-04
 Coeff-Com: -0.275D-04 0.107D-03 0.285D-03-0.180D-03-0.228D-02 0.136D-02
 Coeff-Com:  0.149D-01-0.647D-02-0.634D-01-0.845D-01 0.358D+00 0.782D+00
 Coeff:     -0.215D-06 0.292D-06-0.221D-06-0.147D-05-0.930D-05-0.172D-04
 Coeff:     -0.275D-04 0.107D-03 0.285D-03-0.180D-03-0.228D-02 0.136D-02
 Coeff:      0.149D-01-0.647D-02-0.634D-01-0.845D-01 0.358D+00 0.782D+00
 Gap=     0.245 Goal=   None    Shift=    0.000
 RMSDP=3.10D-08 MaxDP=3.13D-06 DE= 0.00D+00 OVMax= 2.34D-07

 Cycle  19  Pass 1  IDiag  1:
 RMSU=  2.40D-09    CP:  6.30D-01  1.89D+00  2.01D+00  7.21D-01  8.60D-01
                    CP:  6.39D-01  1.06D+00  1.78D+00  1.21D+00  1.89D+00
                    CP:  1.92D+00  1.54D+00  1.86D+00  1.45D+00  1.86D+00
                    CP:  1.47D+00  1.31D+00  1.23D+00
 E= -3010.53163111019     Delta-E=        0.000000000045 Rises=F Damp=F
 DIIS: error= 9.51D-09 at cycle  19 NSaved=  19.
 NSaved=19 IEnMin=16 EnMin= -3010.53163111027     IErMin=19 ErrMin= 9.51D-09
 ErrMax= 9.51D-09  0.00D+00 EMaxC= 1.00D-01 BMatC= 4.62D-15 BMatP= 4.49D-14
 IDIUse=1 WtCom= 1.00D+00 WtEn= 0.00D+00
 Large coefficients: NSaved= 19 BigCof=    0.00 CofMax=   10.00 Det=-8.45D-15
 Inversion failed.  Reducing to 18 matrices.
 Large coefficients: NSaved= 18 BigCof=    0.00 CofMax=   10.00 Det=-8.52D-15
 Inversion failed.  Reducing to 17 matrices.
 Coeff-Com: -0.290D-07-0.487D-08 0.854D-06 0.797D-06-0.516D-05-0.135D-04
 Coeff-Com:  0.616D-04 0.167D-03-0.328D-03-0.520D-03-0.540D-03 0.493D-02
 Coeff-Com:  0.123D-01-0.372D-01-0.116D+00 0.237D-01 0.111D+01
 Coeff:     -0.290D-07-0.487D-08 0.854D-06 0.797D-06-0.516D-05-0.135D-04
 Coeff:      0.616D-04 0.167D-03-0.328D-03-0.520D-03-0.540D-03 0.493D-02
 Coeff:      0.123D-01-0.372D-01-0.116D+00 0.237D-01 0.111D+01
 Gap=     0.245 Goal=   None    Shift=    0.000
 RMSDP=6.57D-09 MaxDP=6.39D-07 DE= 4.55D-11 OVMax= 1.91D-07

 SCF Done:  E(RwB97XD) =  -3010.53163111     A.U. after   19 cycles
            NFock= 19  Conv=0.66D-08     -V/T= 2.0016
 KE= 3.005853036233D+03 PE=-8.699669145891D+03 EE= 1.910288490430D+03
 Leave Link  502 at Thu May  2 14:17:59 2024, MaxMem=   134217728 cpu:            1157.3 elap:            1157.5
 (Enter /software/gaussian/g16-c01/sse4/g16/l601.exe)
 Copying SCF densities to generalized density rwf, IOpCl= 0 IROHF=0.

 **********************************************************************

            Population analysis using the SCF Density.

 **********************************************************************

 Alpha  occ. eigenvalues -- -483.31163 -62.86186 -56.65879 -56.65310 -56.65300
 Alpha  occ. eigenvalues --  -19.46176 -19.46172 -14.85605 -10.59145 -10.58040
 Alpha  occ. eigenvalues --  -10.57263 -10.56871 -10.53267 -10.52684  -9.01991
 Alpha  occ. eigenvalues --   -6.84672  -6.82803  -6.82772  -2.94575  -2.94084
 Alpha  occ. eigenvalues --   -2.94058  -2.92563  -2.92562  -1.49866  -1.32825
 Alpha  occ. eigenvalues --   -1.22377  -1.12802  -1.12390  -1.04744  -1.00256
 Alpha  occ. eigenvalues --   -0.95291  -0.90511  -0.84897  -0.80847  -0.80098
 Alpha  occ. eigenvalues --   -0.79999  -0.77858  -0.76139  -0.75530  -0.71928
 Alpha  occ. eigenvalues --   -0.68471  -0.67496  -0.63281  -0.59787  -0.57361
 Alpha  occ. eigenvalues --   -0.56717  -0.56201  -0.55873  -0.54553
 Alpha virt. eigenvalues --   -0.30034  -0.20316  -0.15626  -0.13002  -0.08555
 Alpha virt. eigenvalues --   -0.06008  -0.05515  -0.04612  -0.04273  -0.03135
 Alpha virt. eigenvalues --   -0.02315  -0.01472  -0.01446  -0.00625   0.00525
 Alpha virt. eigenvalues --    0.00958   0.01624   0.01781   0.02666   0.03480
 Alpha virt. eigenvalues --    0.04371   0.05438   0.05816   0.06103   0.06959
 Alpha virt. eigenvalues --    0.07554   0.07672   0.08242   0.09304   0.09741
 Alpha virt. eigenvalues --    0.10156   0.10722   0.11751   0.11945   0.12709
 Alpha virt. eigenvalues --    0.13042   0.13425   0.13704   0.14762   0.15734
 Alpha virt. eigenvalues --    0.16703   0.17275   0.17601   0.18804   0.18993
 Alpha virt. eigenvalues --    0.20122   0.20910   0.21620   0.22527   0.24174
 Alpha virt. eigenvalues --    0.24692   0.26580   0.28007   0.29458   0.31979
 Alpha virt. eigenvalues --    0.32577   0.33477   0.33684   0.34451   0.36634
 Alpha virt. eigenvalues --    0.37350   0.37797   0.39705   0.40718   0.41953
 Alpha virt. eigenvalues --    0.43439   0.44218   0.45557   0.47080   0.47449
 Alpha virt. eigenvalues --    0.48681   0.50497   0.50982   0.52339   0.53732
 Alpha virt. eigenvalues --    0.55199   0.56008   0.58165   0.58362   0.60298
 Alpha virt. eigenvalues --    0.61260   0.62392   0.64585   0.67604   0.68322
 Alpha virt. eigenvalues --    0.71566   0.71754   0.72900   0.74498   0.74730
 Alpha virt. eigenvalues --    0.74956   0.77490   0.79787   0.83323   0.85698
 Alpha virt. eigenvalues --    0.87183   0.87741   0.91617   0.94318   0.98884
 Alpha virt. eigenvalues --    1.00438   1.02665   1.04026   1.05774   1.07065
 Alpha virt. eigenvalues --    1.08856   1.12684   1.13456   1.14181   1.18038
 Alpha virt. eigenvalues --    1.21064   1.22934   1.28256   1.33573   1.36448
 Alpha virt. eigenvalues --    1.37061   1.39138   1.43305   1.55049   1.56828
 Alpha virt. eigenvalues --    1.57455   1.59991   1.61365   1.64099   1.65934
 Alpha virt. eigenvalues --    1.68253   1.71617   1.74085   1.75421   1.79628
 Alpha virt. eigenvalues --    1.84081   1.85534   1.87475   1.94989   1.96326
 Alpha virt. eigenvalues --    1.98003   2.02612   2.03135   2.07399   2.09086
 Alpha virt. eigenvalues --    2.13005   2.14813   2.22491   2.23817   2.27595
 Alpha virt. eigenvalues --    2.33704   2.39995   2.41669   2.44493   2.53445
 Alpha virt. eigenvalues --    2.58213   2.63334   2.66147   2.68922   2.71775
 Alpha virt. eigenvalues --    2.73809   2.76463   2.77578   2.80720   2.82198
 Alpha virt. eigenvalues --    2.93380   2.98268   3.01524   3.05947   3.09165
 Alpha virt. eigenvalues --    3.15038   3.16549   3.17714   3.22586   3.26656
 Alpha virt. eigenvalues --    3.27994   3.38055   3.46805   3.50304   3.54801
 Alpha virt. eigenvalues --    3.57725   3.68958   3.74286   3.83827   3.87537
 Alpha virt. eigenvalues --    4.10071   4.10927   4.19493   4.23620   4.43330
 Alpha virt. eigenvalues --    4.45290   4.54816   4.59949   4.93623   4.96432
 Alpha virt. eigenvalues --    5.05326   5.09761   5.62064   6.15210   6.68089
 Alpha virt. eigenvalues --    7.48947   7.51269   7.61374  23.22346  23.61480
 Alpha virt. eigenvalues --   23.72000  23.78207  23.95863  24.02329  35.31558
 Alpha virt. eigenvalues --   47.94167  49.85286  49.93948 289.81808 289.84148
 Alpha virt. eigenvalues --  289.967681020.95349
          Condensed to atoms (all electrons):
               1          2          3          4          5          6
     1  C    7.768588  -2.436607   0.783947  -0.045536   0.297604   0.056699
     2  C   -2.436607  17.134165  -3.965643   0.424833  -0.014371   0.193741
     3  C    0.783947  -3.965643  18.915858  -1.325550   0.023770   0.115114
     4  C   -0.045536   0.424833  -1.325550   6.392883   0.021025  -0.015026
     5  H    0.297604  -0.014371   0.023770   0.021025   0.327907  -0.001611
     6  H    0.056699   0.193741   0.115114  -0.015026  -0.001611   0.309145
     7  H    0.028195  -0.026864   0.021685   0.305816  -0.002743  -0.000003
     8  N   -0.095927  -0.027709  -1.744765   0.021505  -0.000428  -0.029447
     9  O   -0.015166   0.265201  -0.071438  -0.017232  -0.000032  -0.002440
    10  O    0.268357  -0.188747  -0.245527  -0.021969   0.000003   0.021040
    11  C    0.742318  -0.608960   2.370950  -0.281320  -0.024468   0.008620
    12  H   -0.011978   0.017907   0.008638   0.018943   0.000019  -0.000017
    13  C   -1.235672  -4.753015  -8.616389   0.850480   0.024253  -0.008990
    14  H   -0.002914   0.011061   0.024723   0.002926  -0.000031   0.000045
    15  Br   0.008114  -0.208647  -0.222219  -0.000874  -0.000026  -0.000538
               7          8          9         10         11         12
     1  C    0.028195  -0.095927  -0.015166   0.268357   0.742318  -0.011978
     2  C   -0.026864  -0.027709   0.265201  -0.188747  -0.608960   0.017907
     3  C    0.021685  -1.744765  -0.071438  -0.245527   2.370950   0.008638
     4  C    0.305816   0.021505  -0.017232  -0.021969  -0.281320   0.018943
     5  H   -0.002743  -0.000428  -0.000032   0.000003  -0.024468   0.000019
     6  H   -0.000003  -0.029447  -0.002440   0.021040   0.008620  -0.000017
     7  H    0.338077   0.000002   0.000004   0.000001   0.029699  -0.002364
     8  N    0.000002   7.641751   0.050391   0.200240  -0.323914   0.000458
     9  O    0.000004   0.050391   7.899197   0.004765   0.268786   0.000111
    10  O    0.000001   0.200240   0.004765   7.807180   0.003745  -0.000023
    11  C    0.029699  -0.323914   0.268786   0.003745   7.939543   0.311676
    12  H   -0.002364   0.000458   0.000111  -0.000023   0.311676   0.325088
    13  C   -0.021925   1.411706  -0.420688   0.073503  -4.305873  -0.016445
    14  H   -0.000030  -0.029727   0.012349  -0.001704   0.021793  -0.004752
    15  Br  -0.000417   0.165563  -0.057183   0.004140   0.051130  -0.000660
              13         14         15
     1  C   -1.235672  -0.002914   0.008114
     2  C   -4.753015   0.011061  -0.208647
     3  C   -8.616389   0.024723  -0.222219
     4  C    0.850480   0.002926  -0.000874
     5  H    0.024253  -0.000031  -0.000026
     6  H   -0.008990   0.000045  -0.000538
     7  H   -0.021925  -0.000030  -0.000417
     8  N    1.411706  -0.029727   0.165563
     9  O   -0.420688   0.012349  -0.057183
    10  O    0.073503  -0.001704   0.004140
    11  C   -4.305873   0.021793   0.051130
    12  H   -0.016445  -0.004752  -0.000660
    13  C   22.686975   0.273098   0.416208
    14  H    0.273098   0.325452  -0.041338
    15  Br   0.416208  -0.041338  34.710154
 Mulliken charges:
               1
     1  C   -0.110022
     2  C    0.183656
     3  C   -0.073153
     4  C   -0.330904
     5  H    0.349129
     6  H    0.353669
     7  H    0.330865
     8  N   -0.239699
     9  O    0.083375
    10  O    0.074995
    11  C   -0.203727
    12  H    0.353401
    13  C   -0.357225
    14  H    0.409049
    15  Br   0.176591
 Sum of Mulliken charges =   1.00000
 Mulliken charges with hydrogens summed into heavy atoms:
               1
     1  C    0.239107
     2  C    0.537325
     3  C   -0.073153
     4  C   -0.000038
     8  N   -0.239699
     9  O    0.083375
    10  O    0.074995
    11  C    0.149674
    13  C    0.051824
    15  Br   0.176591
 Electronic spatial extent (au):  <R**2>=           3946.3072
 Charge=              1.0000 electrons
 Dipole moment (field-independent basis, Debye):
    X=              2.7686    Y=             -0.6415    Z=             -0.7149  Tot=              2.9305
 Quadrupole moment (field-independent basis, Debye-Ang):
   XX=            -67.8650   YY=            -51.2762   ZZ=            -62.2606
   XY=             -2.4196   XZ=             -2.4827   YZ=              2.3189
 Traceless Quadrupole moment (field-independent basis, Debye-Ang):
   XX=             -7.3978   YY=              9.1911   ZZ=             -1.7933
   XY=             -2.4196   XZ=             -2.4827   YZ=              2.3189
 Octapole moment (field-independent basis, Debye-Ang**2):
  XXX=           -513.1227  YYY=             93.6486  ZZZ=             83.1600  XYY=           -136.8246
  XXY=             26.3837  XXZ=             25.6026  XZZ=           -132.7137  YZZ=             17.5824
  YYZ=             26.0488  XYZ=              7.6859
 Hexadecapole moment (field-independent basis, Debye-Ang**3):
 XXXX=          -3448.9131 YYYY=           -703.6480 ZZZZ=           -395.9787 XXXY=            187.1977
 XXXZ=            183.7351 YYYX=            188.2094 YYYZ=           -173.2025 ZZZX=            168.0151
 ZZZY=           -145.1791 XXYY=           -624.5604 XXZZ=           -526.6209 YYZZ=           -172.3141
 XXYZ=            -41.8554 YYXZ=             50.2330 ZZXY=             29.8435
 N-N= 7.729959881180D+02 E-N=-8.699669145423D+03  KE= 3.005853036233D+03
 No NMR shielding tensors so no spin-rotation constants.
 Leave Link  601 at Thu May  2 14:18:07 2024, MaxMem=   134217728 cpu:               7.4 elap:               7.4
 (Enter /software/gaussian/g16-c01/sse4/g16/l9999.exe)
 Unable to Open any file for archive entry.
 1\1\GINC-BHX0011\SP\RwB97XD\6-311+G(d)\C6H5Br1N1O2(1+)\BWEIGHT\02-May-
 2024\0\\#P wB97XD/6-311+G* NoSymm #P Field=Y-9\\TitleMe\\1,1\C,0,0.519
 3,1.233,-0.0319\C,0,1.9445,1.2692,-0.0367\C,0,2.6204,0.0928,-0.025\C,0
 ,-0.196,0.0301,0.001\H,0,-0.0207,2.1742,-0.0434\H,0,2.4828,2.2089,-0.0
 361\H,0,-1.2777,0.0399,0.0117\N,0,4.0921,0.0959,0.0366\O,0,4.6393,-1.0
 217,0.1446\O,0,4.6649,1.1984,-0.0233\C,0,0.4943,-1.1671,0.021\H,0,-0.0
 325,-2.1149,0.0545\C,0,1.9629,-1.2165,-0.0211\H,0,2.4436,-1.9631,0.615
 1\Br,0,2.173,-1.9491,-1.9062\\Version=ES64L-G16RevC.01\HF=-3010.531631
 1\RMSD=6.570e-09\Dipole=-3.2399476,0.9757268,0.9679542\Quadrupole=-5.5
 000495,6.8333314,-1.3332819,-1.7989456,-1.8458433,1.7240282\PG=C01 [X(
 C6H5Br1N1O2)]\\@
 The archive entry for this job was punched.


 THE HURRIEDER I GO, THE BEHINDER I GET.
 Job cpu time:       0 days  0 hours 20 minutes 26.8 seconds.
 Elapsed time:       0 days  0 hours 20 minutes 27.1 seconds.
 File lengths (MBytes):  RWF=     40 Int=      0 D2E=      0 Chk=     32 Scr=      1
 Normal termination of Gaussian 16 at Thu May  2 14:18:08 2024.
