 Entering Gaussian System, Link 0=g16
 Initial command:
 /software/gaussian/g16-c01/sse4/g16/l1.exe "/local_scratch/24657474/Gau-20778.inp" -scrdir="/local_scratch/24657474/"
 Entering Link 1 = /software/gaussian/g16-c01/sse4/g16/l1.exe PID=     20793.
  
 Copyright (c) 1988-2019, Gaussian, Inc.  All Rights Reserved.
  
 This is part of the Gaussian(R) 16 program.  It is based on
 the Gaussian(R) 09 system (copyright 2009, Gaussian, Inc.),
 the Gaussian(R) 03 system (copyright 2003, Gaussian, Inc.),
 the Gaussian(R) 98 system (copyright 1998, Gaussian, Inc.),
 the Gaussian(R) 94 system (copyright 1995, Gaussian, Inc.),
 the Gaussian 92(TM) system (copyright 1992, Gaussian, Inc.),
 the Gaussian 90(TM) system (copyright 1990, Gaussian, Inc.),
 the Gaussian 88(TM) system (copyright 1988, Gaussian, Inc.),
 the Gaussian 86(TM) system (copyright 1986, Carnegie Mellon
 University), and the Gaussian 82(TM) system (copyright 1983,
 Carnegie Mellon University). Gaussian is a federally registered
 trademark of Gaussian, Inc.
  
 This software contains proprietary and confidential information,
 including trade secrets, belonging to Gaussian, Inc.
  
 This software is provided under written license and may be
 used, copied, transmitted, or stored only in accord with that
 written license.
  
 The following legend is applicable only to US Government
 contracts under FAR:
  
                    RESTRICTED RIGHTS LEGEND
  
 Use, reproduction and disclosure by the US Government is
 subject to restrictions as set forth in subparagraphs (a)
 and (c) of the Commercial Computer Software - Restricted
 Rights clause in FAR 52.227-19.
  
 Gaussian, Inc.
 340 Quinnipiac St., Bldg. 40, Wallingford CT 06492
  
  
 ---------------------------------------------------------------
 Warning -- This program may not be used in any manner that
 competes with the business of Gaussian, Inc. or will provide
 assistance to any competitor of Gaussian, Inc.  The licensee
 of this program is prohibited from giving any competitor of
 Gaussian, Inc. access to this program.  By using this program,
 the user acknowledges that Gaussian, Inc. is engaged in the
 business of creating and licensing software in the field of
 computational chemistry and represents and warrants to the
 licensee that it is not a competitor of Gaussian, Inc. and that
 it will not use this program in any manner prohibited above.
 ---------------------------------------------------------------
  

 Cite this work as:
 Gaussian 16, Revision C.01,
 M. J. Frisch, G. W. Trucks, H. B. Schlegel, G. E. Scuseria, 
 M. A. Robb, J. R. Cheeseman, G. Scalmani, V. Barone, 
 G. A. Petersson, H. Nakatsuji, X. Li, M. Caricato, A. V. Marenich, 
 J. Bloino, B. G. Janesko, R. Gomperts, B. Mennucci, H. P. Hratchian, 
 J. V. Ortiz, A. F. Izmaylov, J. L. Sonnenberg, D. Williams-Young, 
 F. Ding, F. Lipparini, F. Egidi, J. Goings, B. Peng, A. Petrone, 
 T. Henderson, D. Ranasinghe, V. G. Zakrzewski, J. Gao, N. Rega, 
 G. Zheng, W. Liang, M. Hada, M. Ehara, K. Toyota, R. Fukuda, 
 J. Hasegawa, M. Ishida, T. Nakajima, Y. Honda, O. Kitao, H. Nakai, 
 T. Vreven, K. Throssell, J. A. Montgomery, Jr., J. E. Peralta, 
 F. Ogliaro, M. J. Bearpark, J. J. Heyd, E. N. Brothers, K. N. Kudin, 
 V. N. Staroverov, T. A. Keith, R. Kobayashi, J. Normand, 
 K. Raghavachari, A. P. Rendell, J. C. Burant, S. S. Iyengar, 
 J. Tomasi, M. Cossi, J. M. Millam, M. Klene, C. Adamo, R. Cammi, 
 J. W. Ochterski, R. L. Martin, K. Morokuma, O. Farkas, 
 J. B. Foresman, and D. J. Fox, Gaussian, Inc., Wallingford CT, 2019.
 
 ******************************************
 Gaussian 16:  ES64L-G16RevC.01  3-Jul-2019
                 1-May-2024 
 ******************************************
 %chk=geometry.chk
 %mem=9GB
 %nprocshared=12
 Will use up to   12 processors via shared memory.
 ----------------------------------------
 #P wB97XD/6-311+G* NoSymm #P Field=Y-262
 ----------------------------------------
 1/38=1,172=1/1;
 2/12=2,15=1,17=6,18=5,40=1/2;
 3/5=4,6=6,7=11,11=2,14=2,15=-262,25=1,30=1,74=-58/1,2,3;
 4//1;
 5/5=2,38=5/2;
 6/7=2,8=2,9=2,10=2,28=1/1;
 99/5=1,9=1/99;
 Leave Link    1 at Wed May  1 14:27:50 2024, MaxMem=  1207959552 cpu:               4.9 elap:               5.0
 (Enter /software/gaussian/g16-c01/sse4/g16/l101.exe)
 -------
 TitleMe
 -------
 Symbolic Z-matrix:
 Charge =  1 Multiplicity = 1
 C                     0.0295    1.3397    0.0682 
 C                     1.4348    1.2867    0.0064 
 C                     2.1118    0.0511   -0.0054 
 C                     1.4451   -1.1372    0.0312 
 C                    -0.6879    0.1682    0.11 
 H                    -0.4713    2.2984    0.0781 
 H                     2.0273    2.1965   -0.0322 
 H                     1.9897   -2.0764    0.0232 
 H                    -1.7716    0.1804    0.1582 
 N                     3.5864    0.051    -0.0675 
 O                     4.1471   -1.0597   -0.0881 
 O                     4.145     1.1639   -0.0901 
 C                    -0.0236   -1.1458    0.0835 
 H                    -0.4367   -1.8725    0.7889 
 Br                   -0.5359   -1.8697   -1.7408 
 
 ITRead=  0  0  0  0  0  0  0  0  0  0  0  0  0  0  0
 MicOpt= -1 -1 -1 -1 -1 -1 -1 -1 -1 -1 -1 -1 -1 -1 -1
 NAtoms=     15 NQM=       15 NQMF=       0 NMMI=      0 NMMIF=      0
                NMic=       0 NMicF=      0.
                    Isotopes and Nuclear Properties:
 (Nuclear quadrupole moments (NQMom) in fm**2, nuclear magnetic moments (NMagM)
  in nuclear magnetons)

  Atom         1           2           3           4           5           6           7           8           9          10
 IAtWgt=          12          12          12          12          12           1           1           1           1          14
 AtmWgt=  12.0000000  12.0000000  12.0000000  12.0000000  12.0000000   1.0078250   1.0078250   1.0078250   1.0078250  14.0030740
 NucSpn=           0           0           0           0           0           1           1           1           1           2
 AtZEff=  -0.0000000  -0.0000000  -0.0000000  -0.0000000  -0.0000000  -0.0000000  -0.0000000  -0.0000000  -0.0000000  -0.0000000
 NQMom=    0.0000000   0.0000000   0.0000000   0.0000000   0.0000000   0.0000000   0.0000000   0.0000000   0.0000000   2.0440000
 NMagM=    0.0000000   0.0000000   0.0000000   0.0000000   0.0000000   2.7928460   2.7928460   2.7928460   2.7928460   0.4037610
 AtZNuc=   6.0000000   6.0000000   6.0000000   6.0000000   6.0000000   1.0000000   1.0000000   1.0000000   1.0000000   7.0000000

  Atom        11          12          13          14          15
 IAtWgt=          16          16          12           1          79
 AtmWgt=  15.9949146  15.9949146  12.0000000   1.0078250  78.9183361
 NucSpn=           0           0           0           1           3
 AtZEff=  -0.0000000  -0.0000000  -0.0000000  -0.0000000  -0.0000000
 NQMom=    0.0000000   0.0000000   0.0000000   0.0000000  31.3000000
 NMagM=    0.0000000   0.0000000   0.0000000   2.7928460   2.1063990
 AtZNuc=   8.0000000   8.0000000   6.0000000   1.0000000  35.0000000
 Leave Link  101 at Wed May  1 14:27:54 2024, MaxMem=  1207959552 cpu:               1.4 elap:               1.4
 (Enter /software/gaussian/g16-c01/sse4/g16/l202.exe)
                          Input orientation:                          
 ---------------------------------------------------------------------
 Center     Atomic      Atomic             Coordinates (Angstroms)
 Number     Number       Type             X           Y           Z
 ---------------------------------------------------------------------
      1          6           0        0.029500    1.339700    0.068200
      2          6           0        1.434800    1.286700    0.006400
      3          6           0        2.111800    0.051100   -0.005400
      4          6           0        1.445100   -1.137200    0.031200
      5          6           0       -0.687900    0.168200    0.110000
      6          1           0       -0.471300    2.298400    0.078100
      7          1           0        2.027300    2.196500   -0.032200
      8          1           0        1.989700   -2.076400    0.023200
      9          1           0       -1.771600    0.180400    0.158200
     10          7           0        3.586400    0.051000   -0.067500
     11          8           0        4.147100   -1.059700   -0.088100
     12          8           0        4.145000    1.163900   -0.090100
     13          6           0       -0.023600   -1.145800    0.083500
     14          1           0       -0.436700   -1.872500    0.788900
     15         35           0       -0.535900   -1.869700   -1.740800
 ---------------------------------------------------------------------
                    Distance matrix (angstroms):
                    1          2          3          4          5
     1  C    0.000000
     2  C    1.407656   0.000000
     3  C    2.449874   1.408963   0.000000
     4  C    2.853126   2.424049   1.363043   0.000000
     5  C    1.374344   2.401589   2.804523   2.501993   0.000000
     6  H    1.081667   2.159142   3.424870   3.934226   2.141421
     7  H    2.176095   1.086408   2.147231   3.384750   3.392128
     8  H    3.938800   3.408612   2.131193   1.085702   3.495040
     9  H    2.143837   3.395283   3.888995   3.478413   1.084840
    10  N    3.785591   2.482297   1.475907   2.450862   4.279589
    11  O    4.768247   3.587631   2.320164   2.705743   4.992415
    12  O    4.122294   2.714696   2.319353   3.549540   4.938459
    13  C    2.486114   2.837240   2.449573   1.469656   1.472614
    14  H    3.324903   3.754379   3.290289   2.157764   2.165286
    15  Br   3.727252   4.110867   3.702891   2.756973   2.757100
                    6          7          8          9         10
     6  H    0.000000
     7  H    2.503108   0.000000
     8  H    5.019802   4.273425   0.000000
     9  H    2.486588   4.304945   4.388479   0.000000
    10  N    4.640790   2.652397   2.661486   5.364313   0.000000
    11  O    5.712624   3.885809   2.387560   6.052233   1.244373
    12  O    4.756638   2.356750   3.893289   6.002923   1.245428
    13  C    3.473180   3.923079   2.218790   2.195425   3.806210
    14  H    4.231175   4.827242   2.552506   2.528663   4.540772
    15  Br   4.548146   5.101303   3.087568   3.055498   4.845862
                   11         12         13         14         15
    11  O    0.000000
    12  O    2.223602   0.000000
    13  C    4.175117   4.768865   0.000000
    14  H    4.737193   5.566358   1.093770   0.000000
    15  Br   5.031700   5.817075   2.028436   2.531646   0.000000
 Symmetry turned off by external request.
 Stoichiometry    C6H5BrNO2(1+)
 Framework group  C1[X(C6H5BrNO2)]
 Deg. of freedom    39
 Full point group                 C1      NOp   1
 Rotational constants (GHZ):           1.8252210           0.5518633           0.4576002
 Leave Link  202 at Wed May  1 14:27:56 2024, MaxMem=  1207959552 cpu:               1.3 elap:               1.3
 (Enter /software/gaussian/g16-c01/sse4/g16/l301.exe)
 Standard basis: 6-311+G(d) (5D, 7F)
 Ernie: Thresh=  0.10000D-02 Tol=  0.10000D-05 Strict=F.
 The following finite field(s) will be applied:
 An electric field of              0.0000 -0.0262  0.0000
   261 basis functions,   443 primitive gaussians,   273 cartesian basis functions
    49 alpha electrons       49 beta electrons
       nuclear repulsion energy       739.2122215416 Hartrees.
 IExCor= 4639 DFT=T Ex+Corr=wB97XD ExCW=0 ScaHFX=  1.000000
 ScaDFX=  1.000000  1.000000  1.000000  1.000000 ScalE2=  1.000000  1.000000
 IRadAn=      5 IRanWt=     -1 IRanGd=            0 ICorTp=0 IEmpDi=121
 HFx  wShort=  0.000000 wLong=  0.200000 cFull=  0.222036 cShort=  0.000000 cLong=  0.777964
 DFx  wShort=  0.000000 wLong=  0.200000 cFull=  0.000000 cShort=  0.000000 cLong=  1.000000
 NAtoms=   15 NActive=   15 NUniq=   15 SFac= 1.00D+00 NAtFMM=   60 NAOKFM=F Big=F
 Integral buffers will be    131072 words long.
 Raffenetti 2 integral format.
 Two-electron integral symmetry is turned off.
 R6Disp:  Grimme-D2 Dispersion energy=       -0.0077368520 Hartrees.
 Nuclear repulsion after empirical dispersion term =      739.2044846896 Hartrees.
 Leave Link  301 at Wed May  1 14:27:57 2024, MaxMem=  1207959552 cpu:               1.1 elap:               1.1
 (Enter /software/gaussian/g16-c01/sse4/g16/l302.exe)
 NPDir=0 NMtPBC=     1 NCelOv=     1 NCel=       1 NClECP=     1 NCelD=      1
         NCelK=      1 NCelE2=     1 NClLst=     1 CellRange=     0.0.
 One-electron integrals computed using PRISM.
 NBasis=   261 RedAO= T EigKep=  2.35D-06  NBF=   261
 NBsUse=   261 1.00D-06 EigRej= -1.00D+00 NBFU=   261
 Precomputing XC quadrature grid using
 IXCGrd= 4 IRadAn=           5 IRanWt=          -1 IRanGd=           0 AccXCQ= 0.00D+00.
 Generated NRdTot=       0 NPtTot=           0 NUsed=           0 NTot=          32
 NSgBfM=   273   273   273   273   273 MxSgAt=    15 MxSgA2=    15.
 Leave Link  302 at Wed May  1 14:28:20 2024, MaxMem=  1207959552 cpu:              21.9 elap:              21.9
 (Enter /software/gaussian/g16-c01/sse4/g16/l303.exe)
 DipDrv:  MaxL=1.
 The nuclear repulsion energy is now       742.1823775910 hartrees.
 Leave Link  303 at Wed May  1 14:28:23 2024, MaxMem=  1207959552 cpu:               3.2 elap:               3.2
 (Enter /software/gaussian/g16-c01/sse4/g16/l401.exe)
 ExpMin= 3.50D-02 ExpMax= 4.40D+05 ExpMxC= 1.51D+04 IAcc=3 IRadAn=         5 AccDes= 0.00D+00
 Harris functional with IExCor= 4639 and IRadAn=       5 diagonalized for initial guess.
 HarFok:  IExCor= 4639 AccDes= 0.00D+00 IRadAn=         5 IDoV= 1 UseB2=F ITyADJ=14
 ICtDFT=  3500011 ScaDFX=  1.000000  1.000000  1.000000  1.000000
 FoFCou: FMM=F IPFlag=           0 FMFlag=      100000 FMFlg1=           0
         NFxFlg=           0 DoJE=T BraDBF=F KetDBF=T FulRan=T
         wScrn=  0.000000 ICntrl=       500 IOpCl=  0 I1Cent=   200000004 NGrid=           0
         NMat0=    1 NMatS0=      1 NMatT0=    0 NMatD0=    1 NMtDS0=    0 NMtDT0=    0
 Symmetry not used in FoFCou.
 Harris En= -2970.85334753744    
 JPrj=0 DoOrth=F DoCkMO=F.
 Leave Link  401 at Wed May  1 14:28:54 2024, MaxMem=  1207959552 cpu:              30.4 elap:              30.4
 (Enter /software/gaussian/g16-c01/sse4/g16/l502.exe)
 Two-electron integral symmetry not used.
 Closed shell SCF:
 Using DIIS extrapolation, IDIIS=  1040.
 NGot=  1207959552 LenX=  1207804877 LenY=  1207729907
 Requested convergence on RMS density matrix=1.00D-08 within 128 cycles.
 Requested convergence on MAX density matrix=1.00D-06.
 Requested convergence on             energy=1.00D-06.
 No special actions if energy rises.
 Fock matrices will be formed incrementally for  20 cycles.

 Cycle   1  Pass 1  IDiag  1:
 FoFJK:  IHMeth= 1 ICntrl=       0 DoSepK=T KAlg= 0 I1Cent=           0 FoldK=F
 IRaf=         1 NMat=       1 IRICut=       1 DoRegI=T DoRafI=F ISym2E= 0 IDoP0=0 IntGTp=1.
 FoFCou: FMM=F IPFlag=           0 FMFlag=      100000 FMFlg1=           0
         NFxFlg=           0 DoJE=T BraDBF=F KetDBF=F FulRan=T
         wScrn=  0.000000 ICntrl=       500 IOpCl=  0 I1Cent=           0 NGrid=           0
         NMat0=    1 NMatS0=      1 NMatT0=    0 NMatD0=    1 NMtDS0=    0 NMtDT0=    0
 Symmetry not used in FoFCou.
 E= -3007.10947876438    
 DIIS: error= 3.18D-01 at cycle   1 NSaved=   1.
 NSaved= 1 IEnMin= 1 EnMin= -3007.10947876438     IErMin= 1 ErrMin= 3.18D-01
 ErrMax= 3.18D-01  0.00D+00 EMaxC= 1.00D-01 BMatC= 1.32D+01 BMatP= 1.32D+01
 IDIUse=3 WtCom= 0.00D+00 WtEn= 1.00D+00
 Coeff-Com:  0.100D+01
 Coeff-En:   0.100D+01
 Coeff:      0.100D+01
 Gap=     0.897 Goal=   None    Shift=    0.000
 GapD=    0.897 DampG=2.000 DampE=0.250 DampFc=0.5000 IDamp=-1.
 Damping current iteration by 5.00D-01
 RMSDP=1.94D+00 MaxDP=2.20D+02              OVMax= 7.10D-01

 Cycle   2  Pass 1  IDiag  1:
 RMSU=  5.06D-02    CP:  5.09D-01
 E= -3006.38109319894     Delta-E=        0.728385565435 Rises=F Damp=T
 DIIS: error= 1.40D-01 at cycle   2 NSaved=   2.
 NSaved= 2 IEnMin= 1 EnMin= -3007.10947876438     IErMin= 2 ErrMin= 1.40D-01
 ErrMax= 1.40D-01  0.00D+00 EMaxC= 1.00D-01 BMatC= 3.14D+00 BMatP= 1.32D+01
 IDIUse=3 WtCom= 0.00D+00 WtEn= 1.00D+00
 Coeff-Com: -0.537D-01 0.105D+01
 Coeff-En:   0.561D+00 0.439D+00
 Coeff:      0.561D+00 0.439D+00
 Gap=     0.530 Goal=   None    Shift=    0.000
 RMSDP=9.81D-01 MaxDP=1.13D+02 DE= 7.28D-01 OVMax= 8.91D-01

 Cycle   3  Pass 1  IDiag  1:
 RMSU=  2.57D-02    CP:  1.29D-02  1.18D+00
 E= -3009.33479377836     Delta-E=       -2.953700579423 Rises=F Damp=F
 DIIS: error= 9.00D-02 at cycle   3 NSaved=   3.
 NSaved= 3 IEnMin= 3 EnMin= -3009.33479377836     IErMin= 3 ErrMin= 9.00D-02
 ErrMax= 9.00D-02  0.00D+00 EMaxC= 1.00D-01 BMatC= 2.44D+00 BMatP= 3.14D+00
 IDIUse=3 WtCom= 1.00D-01 WtEn= 9.00D-01
 Coeff-Com:  0.197D+00 0.134D+00 0.669D+00
 Coeff-En:   0.269D+00 0.000D+00 0.731D+00
 Coeff:      0.262D+00 0.134D-01 0.725D+00
 Gap=     0.321 Goal=   None    Shift=    0.000
 RMSDP=3.21D-02 MaxDP=2.26D+00 DE=-2.95D+00 OVMax= 4.64D-01

 Cycle   4  Pass 1  IDiag  1:
 RMSU=  3.02D-02    CP:  1.14D-02  9.81D-01  9.00D-01
 E= -3009.51736412484     Delta-E=       -0.182570346472 Rises=F Damp=F
 DIIS: error= 1.11D-01 at cycle   4 NSaved=   4.
 NSaved= 4 IEnMin= 4 EnMin= -3009.51736412484     IErMin= 3 ErrMin= 9.00D-02
 ErrMax= 1.11D-01  0.00D+00 EMaxC= 1.00D-01 BMatC= 1.48D+00 BMatP= 2.44D+00
 IDIUse=3 WtCom= 0.00D+00 WtEn= 1.00D+00
 Coeff-Com:  0.109D+00-0.644D-01 0.472D+00 0.483D+00
 Coeff-En:   0.000D+00 0.000D+00 0.466D+00 0.534D+00
 Coeff:      0.000D+00 0.000D+00 0.466D+00 0.534D+00
 Gap=     0.173 Goal=   None    Shift=    0.000
 RMSDP=2.27D-02 MaxDP=1.79D+00 DE=-1.83D-01 OVMax= 4.31D-01

 Cycle   5  Pass 1  IDiag  1:
 RMSU=  1.93D-02    CP:  1.27D-02  1.01D+00  1.26D+00  7.75D-01
 E= -3010.45802506278     Delta-E=       -0.940660937941 Rises=F Damp=F
 DIIS: error= 2.51D-02 at cycle   5 NSaved=   5.
 NSaved= 5 IEnMin= 5 EnMin= -3010.45802506278     IErMin= 5 ErrMin= 2.51D-02
 ErrMax= 2.51D-02  0.00D+00 EMaxC= 1.00D-01 BMatC= 1.96D-01 BMatP= 1.48D+00
 IDIUse=3 WtCom= 7.49D-01 WtEn= 2.51D-01
 Coeff-Com: -0.685D-02 0.123D-01 0.175D+00 0.261D+00 0.558D+00
 Coeff-En:   0.000D+00 0.000D+00 0.000D+00 0.524D-01 0.948D+00
 Coeff:     -0.513D-02 0.921D-02 0.131D+00 0.209D+00 0.656D+00
 Gap=     0.245 Goal=   None    Shift=    0.000
 RMSDP=1.71D-02 MaxDP=1.58D+00 DE=-9.41D-01 OVMax= 1.31D-01

 Cycle   6  Pass 1  IDiag  1:
 RMSU=  5.30D-03    CP:  1.02D-02  8.45D-01  1.01D+00  7.14D-01  4.25D-01
 E= -3010.54691759088     Delta-E=       -0.088892528102 Rises=F Damp=F
 DIIS: error= 1.65D-02 at cycle   6 NSaved=   6.
 NSaved= 6 IEnMin= 6 EnMin= -3010.54691759088     IErMin= 6 ErrMin= 1.65D-02
 ErrMax= 1.65D-02  0.00D+00 EMaxC= 1.00D-01 BMatC= 3.63D-02 BMatP= 1.96D-01
 IDIUse=3 WtCom= 8.35D-01 WtEn= 1.65D-01
 Coeff-Com: -0.106D-01 0.228D-01 0.135D-01 0.551D-02 0.310D+00 0.658D+00
 Coeff-En:   0.000D+00 0.000D+00 0.000D+00 0.000D+00 0.133D+00 0.867D+00
 Coeff:     -0.886D-02 0.191D-01 0.113D-01 0.460D-02 0.281D+00 0.693D+00
 Gap=     0.248 Goal=   None    Shift=    0.000
 RMSDP=2.05D-03 MaxDP=1.04D-01 DE=-8.89D-02 OVMax= 5.44D-02

 Cycle   7  Pass 1  IDiag  1:
 RMSU=  1.35D-03    CP:  1.01D-02  8.34D-01  1.02D+00  6.89D-01  4.86D-01
                    CP:  1.00D+00
 E= -3010.56656342500     Delta-E=       -0.019645834127 Rises=F Damp=F
 DIIS: error= 3.06D-03 at cycle   7 NSaved=   7.
 NSaved= 7 IEnMin= 7 EnMin= -3010.56656342500     IErMin= 7 ErrMin= 3.06D-03
 ErrMax= 3.06D-03  0.00D+00 EMaxC= 1.00D-01 BMatC= 1.98D-03 BMatP= 3.63D-02
 IDIUse=3 WtCom= 9.69D-01 WtEn= 3.06D-02
 Coeff-Com: -0.597D-02 0.124D-01-0.115D-01-0.119D-01 0.614D-01 0.278D+00
 Coeff-Com:  0.678D+00
 Coeff-En:   0.000D+00 0.000D+00 0.000D+00 0.000D+00 0.000D+00 0.000D+00
 Coeff-En:   0.100D+01
 Coeff:     -0.579D-02 0.121D-01-0.112D-01-0.116D-01 0.595D-01 0.269D+00
 Coeff:      0.688D+00
 Gap=     0.244 Goal=   None    Shift=    0.000
 RMSDP=9.20D-04 MaxDP=6.32D-02 DE=-1.96D-02 OVMax= 7.99D-03

 Cycle   8  Pass 1  IDiag  1:
 RMSU=  5.83D-04    CP:  1.00D-02  8.34D-01  1.01D+00  6.95D-01  4.59D-01
                    CP:  1.05D+00  1.01D+00
 E= -3010.56798166275     Delta-E=       -0.001418237744 Rises=F Damp=F
 DIIS: error= 6.28D-04 at cycle   8 NSaved=   8.
 NSaved= 8 IEnMin= 8 EnMin= -3010.56798166275     IErMin= 8 ErrMin= 6.28D-04
 ErrMax= 6.28D-04  0.00D+00 EMaxC= 1.00D-01 BMatC= 1.44D-04 BMatP= 1.98D-03
 IDIUse=3 WtCom= 9.94D-01 WtEn= 6.28D-03
 Coeff-Com: -0.140D-02 0.261D-02-0.363D-02-0.172D-03-0.202D-01-0.146D-01
 Coeff-Com:  0.243D+00 0.794D+00
 Coeff-En:   0.000D+00 0.000D+00 0.000D+00 0.000D+00 0.000D+00 0.000D+00
 Coeff-En:   0.000D+00 0.100D+01
 Coeff:     -0.139D-02 0.260D-02-0.361D-02-0.171D-03-0.200D-01-0.145D-01
 Coeff:      0.242D+00 0.796D+00
 Gap=     0.250 Goal=   None    Shift=    0.000
 RMSDP=8.32D-04 MaxDP=5.55D-02 DE=-1.42D-03 OVMax= 5.37D-03

 Cycle   9  Pass 1  IDiag  1:
 RMSU=  2.57D-04    CP:  9.90D-03  8.31D-01  9.99D-01  6.94D-01  4.32D-01
                    CP:  1.07D+00  1.29D+00  1.52D+00
 E= -3010.56816051977     Delta-E=       -0.000178857017 Rises=F Damp=F
 DIIS: error= 2.47D-04 at cycle   9 NSaved=   9.
 NSaved= 9 IEnMin= 9 EnMin= -3010.56816051977     IErMin= 9 ErrMin= 2.47D-04
 ErrMax= 2.47D-04  0.00D+00 EMaxC= 1.00D-01 BMatC= 1.33D-05 BMatP= 1.44D-04
 IDIUse=3 WtCom= 9.98D-01 WtEn= 2.47D-03
 Coeff-Com: -0.155D-03 0.197D-03-0.455D-03 0.751D-03-0.119D-01-0.261D-01
 Coeff-Com:  0.945D-03 0.248D+00 0.788D+00
 Coeff-En:   0.000D+00 0.000D+00 0.000D+00 0.000D+00 0.000D+00 0.000D+00
 Coeff-En:   0.000D+00 0.000D+00 0.100D+01
 Coeff:     -0.154D-03 0.197D-03-0.454D-03 0.750D-03-0.118D-01-0.260D-01
 Coeff:      0.942D-03 0.248D+00 0.789D+00
 Gap=     0.249 Goal=   None    Shift=    0.000
 RMSDP=2.43D-04 MaxDP=2.06D-02 DE=-1.79D-04 OVMax= 2.42D-03

 Cycle  10  Pass 1  IDiag  1:
 RMSU=  8.51D-05    CP:  9.86D-03  8.29D-01  9.96D-01  6.94D-01  4.24D-01
                    CP:  1.08D+00  1.33D+00  1.60D+00  1.07D+00
 E= -3010.56817754387     Delta-E=       -0.000017024103 Rises=F Damp=F
 DIIS: error= 9.81D-05 at cycle  10 NSaved=  10.
 NSaved=10 IEnMin=10 EnMin= -3010.56817754387     IErMin=10 ErrMin= 9.81D-05
 ErrMax= 9.81D-05  0.00D+00 EMaxC= 1.00D-01 BMatC= 2.79D-06 BMatP= 1.33D-05
 IDIUse=1 WtCom= 1.00D+00 WtEn= 0.00D+00
 Coeff-Com:  0.299D-04-0.110D-03-0.130D-03 0.239D-03-0.187D-02-0.326D-02
 Coeff-Com: -0.131D-01 0.288D-01 0.304D+00 0.685D+00
 Coeff:      0.299D-04-0.110D-03-0.130D-03 0.239D-03-0.187D-02-0.326D-02
 Coeff:     -0.131D-01 0.288D-01 0.304D+00 0.685D+00
 Gap=     0.249 Goal=   None    Shift=    0.000
 RMSDP=9.38D-05 MaxDP=8.40D-03 DE=-1.70D-05 OVMax= 1.05D-03

 Cycle  11  Pass 1  IDiag  1:
 RMSU=  2.80D-05    CP:  9.85D-03  8.29D-01  9.95D-01  6.94D-01  4.21D-01
                    CP:  1.08D+00  1.34D+00  1.66D+00  1.13D+00  1.06D+00
 E= -3010.56818126572     Delta-E=       -0.000003721853 Rises=F Damp=F
 DIIS: error= 5.56D-05 at cycle  11 NSaved=  11.
 NSaved=11 IEnMin=11 EnMin= -3010.56818126572     IErMin=11 ErrMin= 5.56D-05
 ErrMax= 5.56D-05  0.00D+00 EMaxC= 1.00D-01 BMatC= 6.92D-07 BMatP= 2.79D-06
 IDIUse=1 WtCom= 1.00D+00 WtEn= 0.00D+00
 Coeff-Com:  0.256D-04-0.932D-04-0.221D-03-0.938D-04 0.190D-02 0.600D-02
 Coeff-Com:  0.105D-02-0.310D-01-0.648D-01 0.244D+00 0.843D+00
 Coeff:      0.256D-04-0.932D-04-0.221D-03-0.938D-04 0.190D-02 0.600D-02
 Coeff:      0.105D-02-0.310D-01-0.648D-01 0.244D+00 0.843D+00
 Gap=     0.248 Goal=   None    Shift=    0.000
 RMSDP=3.61D-05 MaxDP=2.38D-03 DE=-3.72D-06 OVMax= 8.02D-04

 Cycle  12  Pass 1  IDiag  1:
 RMSU=  1.43D-05    CP:  9.85D-03  8.29D-01  9.95D-01  6.95D-01  4.21D-01
                    CP:  1.08D+00  1.35D+00  1.68D+00  1.12D+00  1.16D+00
                    CP:  1.34D+00
 E= -3010.56818259544     Delta-E=       -0.000001329721 Rises=F Damp=F
 DIIS: error= 1.73D-05 at cycle  12 NSaved=  12.
 NSaved=12 IEnMin=12 EnMin= -3010.56818259544     IErMin=12 ErrMin= 1.73D-05
 ErrMax= 1.73D-05  0.00D+00 EMaxC= 1.00D-01 BMatC= 9.10D-08 BMatP= 6.92D-07
 IDIUse=1 WtCom= 1.00D+00 WtEn= 0.00D+00
 Coeff-Com:  0.225D-06-0.159D-04-0.108D-03-0.609D-04 0.656D-03 0.248D-02
 Coeff-Com:  0.524D-02-0.791D-02-0.693D-01-0.632D-01 0.204D+00 0.928D+00
 Coeff:      0.225D-06-0.159D-04-0.108D-03-0.609D-04 0.656D-03 0.248D-02
 Coeff:      0.524D-02-0.791D-02-0.693D-01-0.632D-01 0.204D+00 0.928D+00
 Gap=     0.248 Goal=   None    Shift=    0.000
 RMSDP=2.25D-05 MaxDP=1.67D-03 DE=-1.33D-06 OVMax= 4.72D-04

 Cycle  13  Pass 1  IDiag  1:
 RMSU=  5.31D-06    CP:  9.85D-03  8.28D-01  9.95D-01  6.95D-01  4.21D-01
                    CP:  1.08D+00  1.35D+00  1.68D+00  1.10D+00  1.21D+00
                    CP:  1.58D+00  1.37D+00
 E= -3010.56818290472     Delta-E=       -0.000000309278 Rises=F Damp=F
 DIIS: error= 7.24D-06 at cycle  13 NSaved=  13.
 NSaved=13 IEnMin=13 EnMin= -3010.56818290472     IErMin=13 ErrMin= 7.24D-06
 ErrMax= 7.24D-06  0.00D+00 EMaxC= 1.00D-01 BMatC= 1.46D-08 BMatP= 9.10D-08
 IDIUse=1 WtCom= 1.00D+00 WtEn= 0.00D+00
 Coeff-Com: -0.141D-05 0.876D-05 0.111D-04-0.924D-06-0.227D-03-0.378D-03
 Coeff-Com:  0.958D-03 0.211D-02-0.652D-02-0.612D-01-0.112D+00 0.282D+00
 Coeff-Com:  0.896D+00
 Coeff:     -0.141D-05 0.876D-05 0.111D-04-0.924D-06-0.227D-03-0.378D-03
 Coeff:      0.958D-03 0.211D-02-0.652D-02-0.612D-01-0.112D+00 0.282D+00
 Coeff:      0.896D+00
 Gap=     0.248 Goal=   None    Shift=    0.000
 RMSDP=6.64D-06 MaxDP=3.83D-04 DE=-3.09D-07 OVMax= 2.39D-04

 Cycle  14  Pass 1  IDiag  1:
 RMSU=  2.38D-06    CP:  9.85D-03  8.28D-01  9.95D-01  6.95D-01  4.21D-01
                    CP:  1.08D+00  1.35D+00  1.68D+00  1.09D+00  1.21D+00
                    CP:  1.68D+00  1.53D+00  1.17D+00
 E= -3010.56818296860     Delta-E=       -0.000000063877 Rises=F Damp=F
 DIIS: error= 3.05D-06 at cycle  14 NSaved=  14.
 NSaved=14 IEnMin=14 EnMin= -3010.56818296860     IErMin=14 ErrMin= 3.05D-06
 ErrMax= 3.05D-06  0.00D+00 EMaxC= 1.00D-01 BMatC= 3.30D-09 BMatP= 1.46D-08
 IDIUse=1 WtCom= 1.00D+00 WtEn= 0.00D+00
 Coeff-Com: -0.227D-05 0.808D-05 0.146D-04 0.134D-04-0.169D-03-0.491D-03
 Coeff-Com: -0.413D-03 0.142D-02 0.497D-02-0.144D-01-0.674D-01 0.578D-02
 Coeff-Com:  0.379D+00 0.692D+00
 Coeff:     -0.227D-05 0.808D-05 0.146D-04 0.134D-04-0.169D-03-0.491D-03
 Coeff:     -0.413D-03 0.142D-02 0.497D-02-0.144D-01-0.674D-01 0.578D-02
 Coeff:      0.379D+00 0.692D+00
 Gap=     0.248 Goal=   None    Shift=    0.000
 RMSDP=2.25D-06 MaxDP=1.14D-04 DE=-6.39D-08 OVMax= 5.70D-05

 Cycle  15  Pass 1  IDiag  1:
 RMSU=  1.01D-06    CP:  9.85D-03  8.28D-01  9.95D-01  6.95D-01  4.21D-01
                    CP:  1.08D+00  1.35D+00  1.68D+00  1.09D+00  1.20D+00
                    CP:  1.67D+00  1.58D+00  1.29D+00  1.14D+00
 E= -3010.56818297636     Delta-E=       -0.000000007762 Rises=F Damp=F
 DIIS: error= 1.03D-06 at cycle  15 NSaved=  15.
 NSaved=15 IEnMin=15 EnMin= -3010.56818297636     IErMin=15 ErrMin= 1.03D-06
 ErrMax= 1.03D-06  0.00D+00 EMaxC= 1.00D-01 BMatC= 3.46D-10 BMatP= 3.30D-09
 IDIUse=1 WtCom= 1.00D+00 WtEn= 0.00D+00
 Coeff-Com: -0.772D-06 0.752D-06 0.298D-05 0.991D-05 0.261D-04-0.581D-04
 Coeff-Com: -0.476D-03-0.665D-03 0.177D-02 0.115D-01 0.977D-02-0.664D-01
 Coeff-Com: -0.815D-01 0.735D-01 0.105D+01
 Coeff:     -0.772D-06 0.752D-06 0.298D-05 0.991D-05 0.261D-04-0.581D-04
 Coeff:     -0.476D-03-0.665D-03 0.177D-02 0.115D-01 0.977D-02-0.664D-01
 Coeff:     -0.815D-01 0.735D-01 0.105D+01
 Gap=     0.248 Goal=   None    Shift=    0.000
 RMSDP=1.78D-06 MaxDP=1.08D-04 DE=-7.76D-09 OVMax= 4.74D-05

 Cycle  16  Pass 1  IDiag  1:
 RMSU=  3.48D-07    CP:  9.85D-03  8.28D-01  9.95D-01  6.95D-01  4.21D-01
                    CP:  1.08D+00  1.35D+00  1.68D+00  1.09D+00  1.20D+00
                    CP:  1.67D+00  1.59D+00  1.37D+00  1.33D+00  1.59D+00
 E= -3010.56818297833     Delta-E=       -0.000000001972 Rises=F Damp=F
 DIIS: error= 4.38D-07 at cycle  16 NSaved=  16.
 NSaved=16 IEnMin=16 EnMin= -3010.56818297833     IErMin=16 ErrMin= 4.38D-07
 ErrMax= 4.38D-07  0.00D+00 EMaxC= 1.00D-01 BMatC= 9.22D-11 BMatP= 3.46D-10
 IDIUse=1 WtCom= 1.00D+00 WtEn= 0.00D+00
 Coeff-Com:  0.173D-06-0.530D-06 0.747D-06 0.200D-06 0.304D-04 0.504D-04
 Coeff-Com: -0.456D-04-0.382D-03-0.564D-03 0.365D-02 0.103D-01-0.141D-01
 Coeff-Com: -0.522D-01-0.137D+00 0.274D+00 0.916D+00
 Coeff:      0.173D-06-0.530D-06 0.747D-06 0.200D-06 0.304D-04 0.504D-04
 Coeff:     -0.456D-04-0.382D-03-0.564D-03 0.365D-02 0.103D-01-0.141D-01
 Coeff:     -0.522D-01-0.137D+00 0.274D+00 0.916D+00
 Gap=     0.248 Goal=   None    Shift=    0.000
 RMSDP=8.53D-07 MaxDP=5.86D-05 DE=-1.97D-09 OVMax= 1.57D-05

 Cycle  17  Pass 1  IDiag  1:
 RMSU=  1.48D-07    CP:  9.85D-03  8.28D-01  9.95D-01  6.95D-01  4.21D-01
                    CP:  1.08D+00  1.35D+00  1.68D+00  1.09D+00  1.20D+00
                    CP:  1.67D+00  1.60D+00  1.40D+00  1.34D+00  1.86D+00
                    CP:  1.27D+00
 E= -3010.56818297861     Delta-E=       -0.000000000279 Rises=F Damp=F
 DIIS: error= 1.67D-07 at cycle  17 NSaved=  17.
 NSaved=17 IEnMin=17 EnMin= -3010.56818297861     IErMin=17 ErrMin= 1.67D-07
 ErrMax= 1.67D-07  0.00D+00 EMaxC= 1.00D-01 BMatC= 1.10D-11 BMatP= 9.22D-11
 IDIUse=1 WtCom= 1.00D+00 WtEn= 0.00D+00
 Coeff-Com:  0.198D-06-0.291D-06 0.258D-06-0.158D-05 0.368D-05 0.199D-04
 Coeff-Com:  0.660D-04 0.275D-04-0.262D-03-0.521D-03 0.922D-03 0.551D-02
 Coeff-Com:  0.281D-02-0.598D-01-0.590D-01 0.166D+00 0.944D+00
 Coeff:      0.198D-06-0.291D-06 0.258D-06-0.158D-05 0.368D-05 0.199D-04
 Coeff:      0.660D-04 0.275D-04-0.262D-03-0.521D-03 0.922D-03 0.551D-02
 Coeff:      0.281D-02-0.598D-01-0.590D-01 0.166D+00 0.944D+00
 Gap=     0.248 Goal=   None    Shift=    0.000
 RMSDP=4.17D-07 MaxDP=3.12D-05 DE=-2.79D-10 OVMax= 6.39D-06

 Cycle  18  Pass 1  IDiag  1:
 RMSU=  5.81D-08    CP:  9.85D-03  8.28D-01  9.95D-01  6.95D-01  4.21D-01
                    CP:  1.08D+00  1.35D+00  1.68D+00  1.09D+00  1.20D+00
                    CP:  1.66D+00  1.60D+00  1.41D+00  1.34D+00  1.95D+00
                    CP:  1.35D+00  1.52D+00
 E= -3010.56818297869     Delta-E=       -0.000000000083 Rises=F Damp=F
 DIIS: error= 7.68D-08 at cycle  18 NSaved=  18.
 NSaved=18 IEnMin=18 EnMin= -3010.56818297869     IErMin=18 ErrMin= 7.68D-08
 ErrMax= 7.68D-08  0.00D+00 EMaxC= 1.00D-01 BMatC= 2.07D-12 BMatP= 1.10D-11
 IDIUse=1 WtCom= 1.00D+00 WtEn= 0.00D+00
 Coeff-Com:  0.951D-07-0.145D-06 0.954D-07-0.446D-06-0.416D-05-0.448D-05
 Coeff-Com:  0.221D-04 0.593D-04 0.426D-04-0.636D-03-0.192D-02 0.283D-02
 Coeff-Com:  0.106D-01 0.672D-02-0.416D-01-0.143D+00 0.211D+00 0.956D+00
 Coeff:      0.951D-07-0.145D-06 0.954D-07-0.446D-06-0.416D-05-0.448D-05
 Coeff:      0.221D-04 0.593D-04 0.426D-04-0.636D-03-0.192D-02 0.283D-02
 Coeff:      0.106D-01 0.672D-02-0.416D-01-0.143D+00 0.211D+00 0.956D+00
 Gap=     0.248 Goal=   None    Shift=    0.000
 RMSDP=1.00D-07 MaxDP=6.28D-06 DE=-8.32D-11 OVMax= 2.52D-06

 Cycle  19  Pass 1  IDiag  1:
 RMSU=  2.00D-08    CP:  9.85D-03  8.28D-01  9.95D-01  6.95D-01  4.21D-01
                    CP:  1.08D+00  1.35D+00  1.68D+00  1.09D+00  1.20D+00
                    CP:  1.66D+00  1.60D+00  1.41D+00  1.33D+00  1.96D+00
                    CP:  1.35D+00  1.86D+00  1.42D+00
 E= -3010.56818297866     Delta-E=        0.000000000031 Rises=F Damp=F
 DIIS: error= 4.45D-08 at cycle  19 NSaved=  19.
 NSaved=19 IEnMin=18 EnMin= -3010.56818297869     IErMin=19 ErrMin= 4.45D-08
 ErrMax= 4.45D-08  0.00D+00 EMaxC= 1.00D-01 BMatC= 2.53D-13 BMatP= 2.07D-12
 IDIUse=1 WtCom= 1.00D+00 WtEn= 0.00D+00
 Coeff-Com:  0.584D-08-0.239D-07-0.163D-06 0.112D-06-0.143D-05-0.357D-05
 Coeff-Com: -0.502D-05 0.765D-05 0.480D-04 0.735D-04-0.418D-03-0.410D-03
 Coeff-Com:  0.115D-02 0.902D-02 0.891D-02-0.611D-01-0.968D-01 0.100D+00
 Coeff-Com:  0.104D+01
 Coeff:      0.584D-08-0.239D-07-0.163D-06 0.112D-06-0.143D-05-0.357D-05
 Coeff:     -0.502D-05 0.765D-05 0.480D-04 0.735D-04-0.418D-03-0.410D-03
 Coeff:      0.115D-02 0.902D-02 0.891D-02-0.611D-01-0.968D-01 0.100D+00
 Coeff:      0.104D+01
 Gap=     0.248 Goal=   None    Shift=    0.000
 RMSDP=3.49D-08 MaxDP=1.93D-06 DE= 3.14D-11 OVMax= 1.28D-06

 Cycle  20  Pass 1  IDiag  1:
 RMSU=  1.14D-08    CP:  9.85D-03  8.28D-01  9.95D-01  6.95D-01  4.21D-01
                    CP:  1.08D+00  1.35D+00  1.68D+00  1.09D+00  1.20D+00
                    CP:  1.66D+00  1.60D+00  1.41D+00  1.32D+00  1.96D+00
                    CP:  1.33D+00  1.94D+00  1.54D+00  1.49D+00
 E= -3010.56818297867     Delta-E=       -0.000000000009 Rises=F Damp=F
 DIIS: error= 1.39D-08 at cycle  20 NSaved=  20.
 NSaved=20 IEnMin=18 EnMin= -3010.56818297869     IErMin=20 ErrMin= 1.39D-08
 ErrMax= 1.39D-08  0.00D+00 EMaxC= 1.00D-01 BMatC= 7.42D-14 BMatP= 2.53D-13
 IDIUse=1 WtCom= 1.00D+00 WtEn= 0.00D+00
 Coeff-Com: -0.279D-08-0.482D-08-0.746D-07 0.122D-06 0.171D-06-0.281D-06
 Coeff-Com: -0.545D-05-0.105D-04 0.423D-05 0.129D-03 0.159D-03-0.602D-03
 Coeff-Com: -0.135D-02 0.130D-02 0.106D-01 0.358D-02-0.637D-01-0.182D+00
 Coeff-Com:  0.362D+00 0.870D+00
 Coeff:     -0.279D-08-0.482D-08-0.746D-07 0.122D-06 0.171D-06-0.281D-06
 Coeff:     -0.545D-05-0.105D-04 0.423D-05 0.129D-03 0.159D-03-0.602D-03
 Coeff:     -0.135D-02 0.130D-02 0.106D-01 0.358D-02-0.637D-01-0.182D+00
 Coeff:      0.362D+00 0.870D+00
 Gap=     0.248 Goal=   None    Shift=    0.000
 RMSDP=2.12D-08 MaxDP=1.10D-06 DE=-8.64D-12 OVMax= 4.17D-07

 Cycle  21  Pass 1  IDiag  1:
 Restarting incremental Fock formation.
 E= -3010.56818297870     Delta-E=       -0.000000000027 Rises=F Damp=F
 DIIS: error= 2.85D-09 at cycle  21 NSaved=  20.
 NSaved=20 IEnMin=20 EnMin= -3010.56818297870     IErMin=20 ErrMin= 2.85D-09
 ErrMax= 2.85D-09  0.00D+00 EMaxC= 1.00D-01 BMatC= 4.66D-15 BMatP= 7.42D-14
 IDIUse=1 WtCom= 1.00D+00 WtEn= 0.00D+00
 Coeff-Com: -0.967D-09-0.473D-08 0.186D-07 0.174D-06 0.360D-06-0.672D-06
 Coeff-Com: -0.343D-05-0.306D-05 0.250D-04 0.880D-04-0.895D-04-0.430D-03
 Coeff-Com: -0.102D-02 0.168D-02 0.789D-02-0.952D-04-0.566D-01-0.300D-01
 Coeff-Com:  0.211D+00 0.867D+00
 Coeff:     -0.967D-09-0.473D-08 0.186D-07 0.174D-06 0.360D-06-0.672D-06
 Coeff:     -0.343D-05-0.306D-05 0.250D-04 0.880D-04-0.895D-04-0.430D-03
 Coeff:     -0.102D-02 0.168D-02 0.789D-02-0.952D-04-0.566D-01-0.300D-01
 Coeff:      0.211D+00 0.867D+00
 Gap=     0.248 Goal=   None    Shift=    0.000
 RMSDP=6.14D-09 MaxDP=3.74D-07 DE=-2.68D-11 OVMax= 7.81D-08

 SCF Done:  E(RwB97XD) =  -3010.56818298     A.U. after   21 cycles
            NFock= 21  Conv=0.61D-08     -V/T= 2.0016
 KE= 3.005870957951D+03 PE=-8.635846351192D+03 EE= 1.877224832671D+03
 Leave Link  502 at Wed May  1 14:49:28 2024, MaxMem=  1207959552 cpu:            1233.1 elap:            1233.2
 (Enter /software/gaussian/g16-c01/sse4/g16/l601.exe)
 Copying SCF densities to generalized density rwf, IOpCl= 0 IROHF=0.

 **********************************************************************

            Population analysis using the SCF Density.

 **********************************************************************

 Alpha  occ. eigenvalues -- -483.35740 -62.90804 -56.70432 -56.69954 -56.69946
 Alpha  occ. eigenvalues --  -19.47068 -19.46482 -14.86078 -10.61999 -10.58725
 Alpha  occ. eigenvalues --  -10.58639 -10.57300 -10.56816 -10.51903  -9.06639
 Alpha  occ. eigenvalues --   -6.89134  -6.87550  -6.87527  -2.99082  -2.98659
 Alpha  occ. eigenvalues --   -2.98641  -2.97371  -2.97371  -1.50436  -1.33403
 Alpha  occ. eigenvalues --   -1.24187  -1.16311  -1.12218  -1.07749  -1.01810
 Alpha  occ. eigenvalues --   -0.96806  -0.91878  -0.86210  -0.81946  -0.81404
 Alpha  occ. eigenvalues --   -0.80863  -0.79967  -0.76781  -0.76259  -0.74424
 Alpha  occ. eigenvalues --   -0.69541  -0.67279  -0.64829  -0.63145  -0.61620
 Alpha  occ. eigenvalues --   -0.58101  -0.57739  -0.56883  -0.56112
 Alpha virt. eigenvalues --   -0.31308  -0.22300  -0.21594  -0.19478  -0.16591
 Alpha virt. eigenvalues --   -0.15597  -0.13758  -0.11118  -0.10112  -0.09468
 Alpha virt. eigenvalues --   -0.07490  -0.05993  -0.05287  -0.03848  -0.02774
 Alpha virt. eigenvalues --   -0.02000  -0.01492  -0.00019   0.00871   0.01284
 Alpha virt. eigenvalues --    0.01821   0.02268   0.04538   0.04954   0.05283
 Alpha virt. eigenvalues --    0.05417   0.07352   0.08099   0.09240   0.09946
 Alpha virt. eigenvalues --    0.10389   0.11327   0.11530   0.12434   0.13492
 Alpha virt. eigenvalues --    0.13965   0.14091   0.14482   0.15077   0.15917
 Alpha virt. eigenvalues --    0.17349   0.19146   0.19538   0.20236   0.20817
 Alpha virt. eigenvalues --    0.22426   0.22532   0.24264   0.24854   0.25853
 Alpha virt. eigenvalues --    0.26122   0.26860   0.27750   0.28276   0.29508
 Alpha virt. eigenvalues --    0.29957   0.31941   0.32910   0.34402   0.35016
 Alpha virt. eigenvalues --    0.36285   0.37224   0.38583   0.41224   0.41642
 Alpha virt. eigenvalues --    0.42834   0.43640   0.44464   0.45753   0.47265
 Alpha virt. eigenvalues --    0.47618   0.49124   0.50174   0.50901   0.51353
 Alpha virt. eigenvalues --    0.51585   0.52798   0.56444   0.56797   0.58881
 Alpha virt. eigenvalues --    0.60423   0.61040   0.63679   0.64672   0.67138
 Alpha virt. eigenvalues --    0.69407   0.70765   0.72177   0.72625   0.75987
 Alpha virt. eigenvalues --    0.76402   0.79292   0.80388   0.81795   0.84271
 Alpha virt. eigenvalues --    0.85041   0.87700   0.90598   0.91899   0.96594
 Alpha virt. eigenvalues --    0.99275   1.01098   1.02916   1.04741   1.05727
 Alpha virt. eigenvalues --    1.07423   1.09784   1.11658   1.12128   1.14523
 Alpha virt. eigenvalues --    1.22367   1.23820   1.25801   1.32783   1.35421
 Alpha virt. eigenvalues --    1.35789   1.36301   1.43608   1.53470   1.56287
 Alpha virt. eigenvalues --    1.57063   1.57898   1.60047   1.61046   1.65159
 Alpha virt. eigenvalues --    1.68024   1.68275   1.73409   1.74714   1.78423
 Alpha virt. eigenvalues --    1.79775   1.84575   1.87484   1.89313   1.91031
 Alpha virt. eigenvalues --    1.96304   2.01746   2.02470   2.03954   2.06513
 Alpha virt. eigenvalues --    2.07414   2.14014   2.20396   2.22531   2.31230
 Alpha virt. eigenvalues --    2.36101   2.39812   2.40741   2.42866   2.51782
 Alpha virt. eigenvalues --    2.56361   2.62579   2.65429   2.67536   2.71062
 Alpha virt. eigenvalues --    2.72308   2.75410   2.76735   2.80046   2.80655
 Alpha virt. eigenvalues --    2.92200   2.94641   2.99767   3.02946   3.08058
 Alpha virt. eigenvalues --    3.12303   3.15373   3.19319   3.22904   3.24022
 Alpha virt. eigenvalues --    3.26567   3.38376   3.48232   3.50635   3.53245
 Alpha virt. eigenvalues --    3.55889   3.69083   3.73368   3.81537   3.86161
 Alpha virt. eigenvalues --    4.03975   4.04238   4.12151   4.17223   4.38181
 Alpha virt. eigenvalues --    4.43590   4.56336   4.59127   4.92271   4.95198
 Alpha virt. eigenvalues --    5.03567   5.08048   5.62000   6.14985   6.59789
 Alpha virt. eigenvalues --    7.42672   7.44240   7.54240  23.20400  23.60520
 Alpha virt. eigenvalues --   23.66361  23.79316  23.95606  24.00817  35.31872
 Alpha virt. eigenvalues --   47.86592  49.84618  49.93446 289.75960 289.77632
 Alpha virt. eigenvalues --  289.901221020.87078
          Condensed to atoms (all electrons):
               1          2          3          4          5          6
     1  C    8.660131  -1.849467   0.278763  -1.638194  -1.108901   0.296565
     2  C   -1.849467  12.524672  -2.217841  -2.407673   1.454954  -0.006709
     3  C    0.278763  -2.217841  13.533993  -2.680135  -1.710332   0.020127
     4  C   -1.638194  -2.407673  -2.680135  17.787129   0.567043   0.000658
     5  C   -1.108901   1.454954  -1.710332   0.567043   8.225945   0.009046
     6  H    0.296565  -0.006709   0.020127   0.000658   0.009046   0.252753
     7  H    0.036596   0.251610   0.041582  -0.010984  -0.013357  -0.000634
     8  H    0.015420  -0.055113   0.165388   0.071455  -0.034639   0.000003
     9  H    0.075044  -0.033820   0.011456  -0.021564   0.277518  -0.001786
    10  N   -0.084335   0.284543  -0.951723   0.322711   0.063176  -0.000230
    11  O    0.060200  -0.143277  -0.227100  -0.094473  -0.081322  -0.000034
    12  O    0.250675   0.109681  -0.306643  -0.097856  -0.027801  -0.000018
    13  C    1.555785  -2.414718   0.801425  -5.997041  -1.690241  -0.003002
    14  H   -0.026616   0.042446  -0.029402   0.169940   0.005223   0.000007
    15  Br  -0.008767   0.050079  -0.121347  -0.262538   0.001102  -0.000150
               7          8          9         10         11         12
     1  C    0.036596   0.015420   0.075044  -0.084335   0.060200   0.250675
     2  C    0.251610  -0.055113  -0.033820   0.284543  -0.143277   0.109681
     3  C    0.041582   0.165388   0.011456  -0.951723  -0.227100  -0.306643
     4  C   -0.010984   0.071455  -0.021564   0.322711  -0.094473  -0.097856
     5  C   -0.013357  -0.034639   0.277518   0.063176  -0.081322  -0.027801
     6  H   -0.000634   0.000003  -0.001786  -0.000230  -0.000034  -0.000018
     7  H    0.234413   0.000049   0.000070  -0.016930  -0.000696   0.014698
     8  H    0.000049   0.383772   0.000100  -0.033293   0.029765  -0.001683
     9  H    0.000070   0.000100   0.312043   0.000176   0.000013   0.000001
    10  N   -0.016930  -0.033293   0.000176   7.417055   0.068962   0.244946
    11  O   -0.000696   0.029765   0.000013   0.068962   8.086637   0.000067
    12  O    0.014698  -0.001683   0.000001   0.244946   0.000067   7.620928
    13  C    0.009600   0.175646   0.016519  -0.231171   0.402598   0.009730
    14  H   -0.000032  -0.007524  -0.004979  -0.000338   0.000017  -0.000093
    15  Br   0.000188   0.010563   0.009692   0.026629  -0.003830   0.002428
              13         14         15
     1  C    1.555785  -0.026616  -0.008767
     2  C   -2.414718   0.042446   0.050079
     3  C    0.801425  -0.029402  -0.121347
     4  C   -5.997041   0.169940  -0.262538
     5  C   -1.690241   0.005223   0.001102
     6  H   -0.003002   0.000007  -0.000150
     7  H    0.009600  -0.000032   0.000188
     8  H    0.175646  -0.007524   0.010563
     9  H    0.016519  -0.004979   0.009692
    10  N   -0.231171  -0.000338   0.026629
    11  O    0.402598   0.000017  -0.003830
    12  O    0.009730  -0.000093   0.002428
    13  C   13.267041   0.162427   0.418075
    14  H    0.162427   0.430003  -0.077227
    15  Br   0.418075  -0.077227  34.952277
 Mulliken charges:
               1
     1  C   -0.512899
     2  C    0.410632
     3  C   -0.608210
     4  C    0.291522
     5  C    0.062586
     6  H    0.433404
     7  H    0.453825
     8  H    0.280090
     9  H    0.359516
    10  N   -0.110176
    11  O   -0.097529
    12  O    0.180940
    13  C   -0.482675
    14  H    0.336147
    15  Br   0.002826
 Sum of Mulliken charges =   1.00000
 Mulliken charges with hydrogens summed into heavy atoms:
               1
     1  C   -0.079495
     2  C    0.864457
     3  C   -0.608210
     4  C    0.571612
     5  C    0.422102
    10  N   -0.110176
    11  O   -0.097529
    12  O    0.180940
    13  C   -0.146528
    15  Br   0.002826
 Electronic spatial extent (au):  <R**2>=           2802.2269
 Charge=              1.0000 electrons
 Dipole moment (field-independent basis, Debye):
    X=              0.1491    Y=              6.9892    Z=              0.9310  Tot=              7.0525
 Quadrupole moment (field-independent basis, Debye-Ang):
   XX=            -69.6185   YY=            -56.4504   ZZ=            -64.9689
   XY=              9.7364   XZ=              0.2795   YZ=             -1.8402
 Traceless Quadrupole moment (field-independent basis, Debye-Ang):
   XX=             -5.9392   YY=              7.2288   ZZ=             -1.2896
   XY=              9.7364   XZ=              0.2795   YZ=             -1.8402
 Octapole moment (field-independent basis, Debye-Ang**2):
  XXX=           -289.5784  YYY=            134.9052  ZZZ=             83.9826  XYY=            -71.3242
  XXY=             70.6401  XXZ=             33.2593  XZZ=            -76.0124  YZZ=             28.7423
  YYZ=             36.3217  XYZ=             -1.6976
 Hexadecapole moment (field-independent basis, Debye-Ang**3):
 XXXX=          -2243.6799 YYYY=           -735.9448 ZZZZ=           -366.9250 XXXY=             71.1436
 XXXZ=            -25.1524 YYYX=            -34.4392 YYYZ=           -189.6626 ZZZX=            -22.9639
 ZZZY=           -156.8803 XXYY=           -458.2950 XXZZ=           -373.1051 YYZZ=           -188.8877
 XXYZ=            -61.1439 YYXZ=             -8.7866 ZZXY=             -7.8556
 N-N= 7.421823775910D+02 E-N=-8.635846351120D+03  KE= 3.005870957951D+03
 No NMR shielding tensors so no spin-rotation constants.
 Leave Link  601 at Wed May  1 14:49:35 2024, MaxMem=  1207959552 cpu:               7.3 elap:               7.3
 (Enter /software/gaussian/g16-c01/sse4/g16/l9999.exe)
 Unable to Open any file for archive entry.
 1\1\GINC-BHX0032\SP\RwB97XD\6-311+G(d)\C6H5Br1N1O2(1+)\BWEIGHT\01-May-
 2024\0\\#P wB97XD/6-311+G* NoSymm #P Field=Y-262\\TitleMe\\1,1\C,0,0.0
 295,1.3397,0.0682\C,0,1.4348,1.2867,0.0064\C,0,2.1118,0.0511,-0.0054\C
 ,0,1.4451,-1.1372,0.0312\C,0,-0.6879,0.1682,0.11\H,0,-0.4713,2.2984,0.
 0781\H,0,2.0273,2.1965,-0.0322\H,0,1.9897,-2.0764,0.0232\H,0,-1.7716,0
 .1804,0.1582\N,0,3.5864,0.051,-0.0675\O,0,4.1471,-1.0597,-0.0881\O,0,4
 .145,1.1639,-0.0901\C,0,-0.0236,-1.1458,0.0835\H,0,-0.4367,-1.8725,0.7
 889\Br,0,-0.5359,-1.8697,-1.7408\\Version=ES64L-G16RevC.01\HF=-3010.56
 8183\RMSD=6.144e-09\Dipole=-1.8478932,3.8978448,1.5124578\Quadrupole=-
 4.4156707,5.3744591,-0.9587884,7.2387779,0.2078082,-1.3681346\PG=C01 [
 X(C6H5Br1N1O2)]\\@
 The archive entry for this job was punched.


 SCIENCE AND PEACE WILL TRIUMPH OVER IGNORANCE AND WAR

                          -- PASTEUR
 Job cpu time:       0 days  0 hours 21 minutes 45.4 seconds.
 Elapsed time:       0 days  0 hours 21 minutes 45.6 seconds.
 File lengths (MBytes):  RWF=     40 Int=      0 D2E=      0 Chk=     32 Scr=      1
 Normal termination of Gaussian 16 at Wed May  1 14:49:36 2024.
