 Entering Gaussian System, Link 0=g16
 Initial command:
 /software/gaussian/g16-c01/sse4/g16/l1.exe "/local_scratch/24657464/Gau-21039.inp" -scrdir="/local_scratch/24657464/"
 Entering Link 1 = /software/gaussian/g16-c01/sse4/g16/l1.exe PID=     21137.
  
 Copyright (c) 1988-2019, Gaussian, Inc.  All Rights Reserved.
  
 This is part of the Gaussian(R) 16 program.  It is based on
 the Gaussian(R) 09 system (copyright 2009, Gaussian, Inc.),
 the Gaussian(R) 03 system (copyright 2003, Gaussian, Inc.),
 the Gaussian(R) 98 system (copyright 1998, Gaussian, Inc.),
 the Gaussian(R) 94 system (copyright 1995, Gaussian, Inc.),
 the Gaussian 92(TM) system (copyright 1992, Gaussian, Inc.),
 the Gaussian 90(TM) system (copyright 1990, Gaussian, Inc.),
 the Gaussian 88(TM) system (copyright 1988, Gaussian, Inc.),
 the Gaussian 86(TM) system (copyright 1986, Carnegie Mellon
 University), and the Gaussian 82(TM) system (copyright 1983,
 Carnegie Mellon University). Gaussian is a federally registered
 trademark of Gaussian, Inc.
  
 This software contains proprietary and confidential information,
 including trade secrets, belonging to Gaussian, Inc.
  
 This software is provided under written license and may be
 used, copied, transmitted, or stored only in accord with that
 written license.
  
 The following legend is applicable only to US Government
 contracts under FAR:
  
                    RESTRICTED RIGHTS LEGEND
  
 Use, reproduction and disclosure by the US Government is
 subject to restrictions as set forth in subparagraphs (a)
 and (c) of the Commercial Computer Software - Restricted
 Rights clause in FAR 52.227-19.
  
 Gaussian, Inc.
 340 Quinnipiac St., Bldg. 40, Wallingford CT 06492
  
  
 ---------------------------------------------------------------
 Warning -- This program may not be used in any manner that
 competes with the business of Gaussian, Inc. or will provide
 assistance to any competitor of Gaussian, Inc.  The licensee
 of this program is prohibited from giving any competitor of
 Gaussian, Inc. access to this program.  By using this program,
 the user acknowledges that Gaussian, Inc. is engaged in the
 business of creating and licensing software in the field of
 computational chemistry and represents and warrants to the
 licensee that it is not a competitor of Gaussian, Inc. and that
 it will not use this program in any manner prohibited above.
 ---------------------------------------------------------------
  

 Cite this work as:
 Gaussian 16, Revision C.01,
 M. J. Frisch, G. W. Trucks, H. B. Schlegel, G. E. Scuseria, 
 M. A. Robb, J. R. Cheeseman, G. Scalmani, V. Barone, 
 G. A. Petersson, H. Nakatsuji, X. Li, M. Caricato, A. V. Marenich, 
 J. Bloino, B. G. Janesko, R. Gomperts, B. Mennucci, H. P. Hratchian, 
 J. V. Ortiz, A. F. Izmaylov, J. L. Sonnenberg, D. Williams-Young, 
 F. Ding, F. Lipparini, F. Egidi, J. Goings, B. Peng, A. Petrone, 
 T. Henderson, D. Ranasinghe, V. G. Zakrzewski, J. Gao, N. Rega, 
 G. Zheng, W. Liang, M. Hada, M. Ehara, K. Toyota, R. Fukuda, 
 J. Hasegawa, M. Ishida, T. Nakajima, Y. Honda, O. Kitao, H. Nakai, 
 T. Vreven, K. Throssell, J. A. Montgomery, Jr., J. E. Peralta, 
 F. Ogliaro, M. J. Bearpark, J. J. Heyd, E. N. Brothers, K. N. Kudin, 
 V. N. Staroverov, T. A. Keith, R. Kobayashi, J. Normand, 
 K. Raghavachari, A. P. Rendell, J. C. Burant, S. S. Iyengar, 
 J. Tomasi, M. Cossi, J. M. Millam, M. Klene, C. Adamo, R. Cammi, 
 J. W. Ochterski, R. L. Martin, K. Morokuma, O. Farkas, 
 J. B. Foresman, and D. J. Fox, Gaussian, Inc., Wallingford CT, 2019.
 
 ******************************************
 Gaussian 16:  ES64L-G16RevC.01  3-Jul-2019
                 1-May-2024 
 ******************************************
 %chk=geometry.chk
 %mem=9GB
 %nprocshared=12
 Will use up to   12 processors via shared memory.
 ----------------------------------------
 #P wB97XD/6-311+G* NoSymm #P Field=X+223
 ----------------------------------------
 1/38=1,172=1/1;
 2/12=2,15=1,17=6,18=5,40=1/2;
 3/5=4,6=6,7=11,11=2,14=1,15=223,25=1,30=1,74=-58/1,2,3;
 4//1;
 5/5=2,38=5/2;
 6/7=2,8=2,9=2,10=2,28=1/1;
 99/5=1,9=1/99;
 Leave Link    1 at Wed May  1 14:27:51 2024, MaxMem=  1207959552 cpu:               5.5 elap:               5.6
 (Enter /software/gaussian/g16-c01/sse4/g16/l101.exe)
 -------
 TitleMe
 -------
 Symbolic Z-matrix:
 Charge =  1 Multiplicity = 1
 C                     0.0295    1.3397    0.0682 
 C                     1.4348    1.2867    0.0064 
 C                     2.1118    0.0511   -0.0054 
 C                     1.4451   -1.1372    0.0312 
 C                    -0.6879    0.1682    0.11 
 H                    -0.4713    2.2984    0.0781 
 H                     2.0273    2.1965   -0.0322 
 H                     1.9897   -2.0764    0.0232 
 H                    -1.7716    0.1804    0.1582 
 N                     3.5864    0.051    -0.0675 
 O                     4.1471   -1.0597   -0.0881 
 O                     4.145     1.1639   -0.0901 
 C                    -0.0236   -1.1458    0.0835 
 H                    -0.4367   -1.8725    0.7889 
 Br                   -0.5359   -1.8697   -1.7408 
 
 ITRead=  0  0  0  0  0  0  0  0  0  0  0  0  0  0  0
 MicOpt= -1 -1 -1 -1 -1 -1 -1 -1 -1 -1 -1 -1 -1 -1 -1
 NAtoms=     15 NQM=       15 NQMF=       0 NMMI=      0 NMMIF=      0
                NMic=       0 NMicF=      0.
                    Isotopes and Nuclear Properties:
 (Nuclear quadrupole moments (NQMom) in fm**2, nuclear magnetic moments (NMagM)
  in nuclear magnetons)

  Atom         1           2           3           4           5           6           7           8           9          10
 IAtWgt=          12          12          12          12          12           1           1           1           1          14
 AtmWgt=  12.0000000  12.0000000  12.0000000  12.0000000  12.0000000   1.0078250   1.0078250   1.0078250   1.0078250  14.0030740
 NucSpn=           0           0           0           0           0           1           1           1           1           2
 AtZEff=  -0.0000000  -0.0000000  -0.0000000  -0.0000000  -0.0000000  -0.0000000  -0.0000000  -0.0000000  -0.0000000  -0.0000000
 NQMom=    0.0000000   0.0000000   0.0000000   0.0000000   0.0000000   0.0000000   0.0000000   0.0000000   0.0000000   2.0440000
 NMagM=    0.0000000   0.0000000   0.0000000   0.0000000   0.0000000   2.7928460   2.7928460   2.7928460   2.7928460   0.4037610
 AtZNuc=   6.0000000   6.0000000   6.0000000   6.0000000   6.0000000   1.0000000   1.0000000   1.0000000   1.0000000   7.0000000

  Atom        11          12          13          14          15
 IAtWgt=          16          16          12           1          79
 AtmWgt=  15.9949146  15.9949146  12.0000000   1.0078250  78.9183361
 NucSpn=           0           0           0           1           3
 AtZEff=  -0.0000000  -0.0000000  -0.0000000  -0.0000000  -0.0000000
 NQMom=    0.0000000   0.0000000   0.0000000   0.0000000  31.3000000
 NMagM=    0.0000000   0.0000000   0.0000000   2.7928460   2.1063990
 AtZNuc=   8.0000000   8.0000000   6.0000000   1.0000000  35.0000000
 Leave Link  101 at Wed May  1 14:27:54 2024, MaxMem=  1207959552 cpu:               1.4 elap:               1.4
 (Enter /software/gaussian/g16-c01/sse4/g16/l202.exe)
                          Input orientation:                          
 ---------------------------------------------------------------------
 Center     Atomic      Atomic             Coordinates (Angstroms)
 Number     Number       Type             X           Y           Z
 ---------------------------------------------------------------------
      1          6           0        0.029500    1.339700    0.068200
      2          6           0        1.434800    1.286700    0.006400
      3          6           0        2.111800    0.051100   -0.005400
      4          6           0        1.445100   -1.137200    0.031200
      5          6           0       -0.687900    0.168200    0.110000
      6          1           0       -0.471300    2.298400    0.078100
      7          1           0        2.027300    2.196500   -0.032200
      8          1           0        1.989700   -2.076400    0.023200
      9          1           0       -1.771600    0.180400    0.158200
     10          7           0        3.586400    0.051000   -0.067500
     11          8           0        4.147100   -1.059700   -0.088100
     12          8           0        4.145000    1.163900   -0.090100
     13          6           0       -0.023600   -1.145800    0.083500
     14          1           0       -0.436700   -1.872500    0.788900
     15         35           0       -0.535900   -1.869700   -1.740800
 ---------------------------------------------------------------------
                    Distance matrix (angstroms):
                    1          2          3          4          5
     1  C    0.000000
     2  C    1.407656   0.000000
     3  C    2.449874   1.408963   0.000000
     4  C    2.853126   2.424049   1.363043   0.000000
     5  C    1.374344   2.401589   2.804523   2.501993   0.000000
     6  H    1.081667   2.159142   3.424870   3.934226   2.141421
     7  H    2.176095   1.086408   2.147231   3.384750   3.392128
     8  H    3.938800   3.408612   2.131193   1.085702   3.495040
     9  H    2.143837   3.395283   3.888995   3.478413   1.084840
    10  N    3.785591   2.482297   1.475907   2.450862   4.279589
    11  O    4.768247   3.587631   2.320164   2.705743   4.992415
    12  O    4.122294   2.714696   2.319353   3.549540   4.938459
    13  C    2.486114   2.837240   2.449573   1.469656   1.472614
    14  H    3.324903   3.754379   3.290289   2.157764   2.165286
    15  Br   3.727252   4.110867   3.702891   2.756973   2.757100
                    6          7          8          9         10
     6  H    0.000000
     7  H    2.503108   0.000000
     8  H    5.019802   4.273425   0.000000
     9  H    2.486588   4.304945   4.388479   0.000000
    10  N    4.640790   2.652397   2.661486   5.364313   0.000000
    11  O    5.712624   3.885809   2.387560   6.052233   1.244373
    12  O    4.756638   2.356750   3.893289   6.002923   1.245428
    13  C    3.473180   3.923079   2.218790   2.195425   3.806210
    14  H    4.231175   4.827242   2.552506   2.528663   4.540772
    15  Br   4.548146   5.101303   3.087568   3.055498   4.845862
                   11         12         13         14         15
    11  O    0.000000
    12  O    2.223602   0.000000
    13  C    4.175117   4.768865   0.000000
    14  H    4.737193   5.566358   1.093770   0.000000
    15  Br   5.031700   5.817075   2.028436   2.531646   0.000000
 Symmetry turned off by external request.
 Stoichiometry    C6H5BrNO2(1+)
 Framework group  C1[X(C6H5BrNO2)]
 Deg. of freedom    39
 Full point group                 C1      NOp   1
 Rotational constants (GHZ):           1.8252210           0.5518633           0.4576002
 Leave Link  202 at Wed May  1 14:27:56 2024, MaxMem=  1207959552 cpu:               1.2 elap:               1.2
 (Enter /software/gaussian/g16-c01/sse4/g16/l301.exe)
 Standard basis: 6-311+G(d) (5D, 7F)
 Ernie: Thresh=  0.10000D-02 Tol=  0.10000D-05 Strict=F.
 The following finite field(s) will be applied:
 An electric field of              0.0223  0.0000  0.0000
   261 basis functions,   443 primitive gaussians,   273 cartesian basis functions
    49 alpha electrons       49 beta electrons
       nuclear repulsion energy       739.2122215416 Hartrees.
 IExCor= 4639 DFT=T Ex+Corr=wB97XD ExCW=0 ScaHFX=  1.000000
 ScaDFX=  1.000000  1.000000  1.000000  1.000000 ScalE2=  1.000000  1.000000
 IRadAn=      5 IRanWt=     -1 IRanGd=            0 ICorTp=0 IEmpDi=121
 HFx  wShort=  0.000000 wLong=  0.200000 cFull=  0.222036 cShort=  0.000000 cLong=  0.777964
 DFx  wShort=  0.000000 wLong=  0.200000 cFull=  0.000000 cShort=  0.000000 cLong=  1.000000
 NAtoms=   15 NActive=   15 NUniq=   15 SFac= 1.00D+00 NAtFMM=   60 NAOKFM=F Big=F
 Integral buffers will be    131072 words long.
 Raffenetti 2 integral format.
 Two-electron integral symmetry is turned off.
 R6Disp:  Grimme-D2 Dispersion energy=       -0.0077368520 Hartrees.
 Nuclear repulsion after empirical dispersion term =      739.2044846896 Hartrees.
 Leave Link  301 at Wed May  1 14:27:59 2024, MaxMem=  1207959552 cpu:               0.9 elap:               2.1
 (Enter /software/gaussian/g16-c01/sse4/g16/l302.exe)
 NPDir=0 NMtPBC=     1 NCelOv=     1 NCel=       1 NClECP=     1 NCelD=      1
         NCelK=      1 NCelE2=     1 NClLst=     1 CellRange=     0.0.
 One-electron integrals computed using PRISM.
 NBasis=   261 RedAO= T EigKep=  2.35D-06  NBF=   261
 NBsUse=   261 1.00D-06 EigRej= -1.00D+00 NBFU=   261
 Precomputing XC quadrature grid using
 IXCGrd= 4 IRadAn=           5 IRanWt=          -1 IRanGd=           0 AccXCQ= 0.00D+00.
 Generated NRdTot=       0 NPtTot=           0 NUsed=           0 NTot=          32
 NSgBfM=   273   273   273   273   273 MxSgAt=    15 MxSgA2=    15.
 Leave Link  302 at Wed May  1 14:28:21 2024, MaxMem=  1207959552 cpu:              21.9 elap:              21.9
 (Enter /software/gaussian/g16-c01/sse4/g16/l303.exe)
 DipDrv:  MaxL=1.
 The nuclear repulsion energy is now       743.4135465389 hartrees.
 Leave Link  303 at Wed May  1 14:28:24 2024, MaxMem=  1207959552 cpu:               3.2 elap:               3.2
 (Enter /software/gaussian/g16-c01/sse4/g16/l401.exe)
 ExpMin= 3.50D-02 ExpMax= 4.40D+05 ExpMxC= 1.51D+04 IAcc=3 IRadAn=         5 AccDes= 0.00D+00
 Harris functional with IExCor= 4639 and IRadAn=       5 diagonalized for initial guess.
 HarFok:  IExCor= 4639 AccDes= 0.00D+00 IRadAn=         5 IDoV= 1 UseB2=F ITyADJ=14
 ICtDFT=  3500011 ScaDFX=  1.000000  1.000000  1.000000  1.000000
 FoFCou: FMM=F IPFlag=           0 FMFlag=      100000 FMFlg1=           0
         NFxFlg=           0 DoJE=T BraDBF=F KetDBF=T FulRan=T
         wScrn=  0.000000 ICntrl=       500 IOpCl=  0 I1Cent=   200000004 NGrid=           0
         NMat0=    1 NMatS0=      1 NMatT0=    0 NMatD0=    1 NMtDS0=    0 NMtDT0=    0
 Symmetry not used in FoFCou.
 Harris En= -2970.66830477559    
 JPrj=0 DoOrth=F DoCkMO=F.
 Leave Link  401 at Wed May  1 14:28:55 2024, MaxMem=  1207959552 cpu:              30.4 elap:              30.5
 (Enter /software/gaussian/g16-c01/sse4/g16/l502.exe)
 Two-electron integral symmetry not used.
 Closed shell SCF:
 Using DIIS extrapolation, IDIIS=  1040.
 NGot=  1207959552 LenX=  1207804877 LenY=  1207729907
 Requested convergence on RMS density matrix=1.00D-08 within 128 cycles.
 Requested convergence on MAX density matrix=1.00D-06.
 Requested convergence on             energy=1.00D-06.
 No special actions if energy rises.
 Fock matrices will be formed incrementally for  20 cycles.

 Cycle   1  Pass 1  IDiag  1:
 FoFJK:  IHMeth= 1 ICntrl=       0 DoSepK=T KAlg= 0 I1Cent=           0 FoldK=F
 IRaf=         1 NMat=       1 IRICut=       1 DoRegI=T DoRafI=F ISym2E= 0 IDoP0=0 IntGTp=1.
 FoFCou: FMM=F IPFlag=           0 FMFlag=      100000 FMFlg1=           0
         NFxFlg=           0 DoJE=T BraDBF=F KetDBF=F FulRan=T
         wScrn=  0.000000 ICntrl=       500 IOpCl=  0 I1Cent=           0 NGrid=           0
         NMat0=    1 NMatS0=      1 NMatT0=    0 NMatD0=    1 NMtDS0=    0 NMtDT0=    0
 Symmetry not used in FoFCou.
 E= -3009.69488758661    
 DIIS: error= 3.21D-01 at cycle   1 NSaved=   1.
 NSaved= 1 IEnMin= 1 EnMin= -3009.69488758661     IErMin= 1 ErrMin= 3.21D-01
 ErrMax= 3.21D-01  0.00D+00 EMaxC= 1.00D-01 BMatC= 1.20D+01 BMatP= 1.20D+01
 IDIUse=3 WtCom= 0.00D+00 WtEn= 1.00D+00
 Coeff-Com:  0.100D+01
 Coeff-En:   0.100D+01
 Coeff:      0.100D+01
 Gap=     0.596 Goal=   None    Shift=    0.000
 GapD=    0.596 DampG=2.000 DampE=0.250 DampFc=0.5000 IDamp=-1.
 Damping current iteration by 5.00D-01
 RMSDP=9.05D-02 MaxDP=1.02D+01              OVMax= 2.54D-01

 Cycle   2  Pass 1  IDiag  1:
 RMSU=  1.11D-02    CP:  6.86D-01
 E= -3010.13796624062     Delta-E=       -0.443078654006 Rises=F Damp=T
 DIIS: error= 1.43D-01 at cycle   2 NSaved=   2.
 NSaved= 2 IEnMin= 2 EnMin= -3010.13796624062     IErMin= 2 ErrMin= 1.43D-01
 ErrMax= 1.43D-01  0.00D+00 EMaxC= 1.00D-01 BMatC= 1.75D+00 BMatP= 1.20D+01
 IDIUse=3 WtCom= 0.00D+00 WtEn= 1.00D+00
 Coeff-Com: -0.408D+00 0.141D+01
 Coeff-En:   0.000D+00 0.100D+01
 Coeff:      0.000D+00 0.100D+01
 Gap=     0.297 Goal=   None    Shift=    0.000
 RMSDP=4.29D-02 MaxDP=4.34D+00 DE=-4.43D-01 OVMax= 1.36D-01

 Cycle   3  Pass 1  IDiag  1:
 RMSU=  8.37D-03    CP:  3.87D-01  1.37D+00
 E= -3010.55803745826     Delta-E=       -0.420071217637 Rises=F Damp=F
 DIIS: error= 9.28D-03 at cycle   3 NSaved=   3.
 NSaved= 3 IEnMin= 3 EnMin= -3010.55803745826     IErMin= 3 ErrMin= 9.28D-03
 ErrMax= 9.28D-03  0.00D+00 EMaxC= 1.00D-01 BMatC= 3.18D-02 BMatP= 1.75D+00
 IDIUse=3 WtCom= 9.07D-01 WtEn= 9.28D-02
 Coeff-Com:  0.281D-01 0.455D-02 0.967D+00
 Coeff-En:   0.000D+00 0.000D+00 0.100D+01
 Coeff:      0.255D-01 0.412D-02 0.970D+00
 Gap=     0.256 Goal=   None    Shift=    0.000
 RMSDP=4.08D-03 MaxDP=3.18D-01 DE=-4.20D-01 OVMax= 6.07D-02

 Cycle   4  Pass 1  IDiag  1:
 RMSU=  3.88D-03    CP:  3.85D-01  1.43D+00  1.12D+00
 E= -3010.55322971450     Delta-E=        0.004807743753 Rises=F Damp=F
 DIIS: error= 1.48D-02 at cycle   4 NSaved=   4.
 NSaved= 4 IEnMin= 3 EnMin= -3010.55803745826     IErMin= 3 ErrMin= 9.28D-03
 ErrMax= 1.48D-02  0.00D+00 EMaxC= 1.00D-01 BMatC= 2.95D-02 BMatP= 3.18D-02
 IDIUse=3 WtCom= 8.52D-01 WtEn= 1.48D-01
 Coeff-Com:  0.258D-01-0.346D-01 0.543D+00 0.466D+00
 Coeff-En:   0.000D+00 0.000D+00 0.574D+00 0.426D+00
 Coeff:      0.220D-01-0.295D-01 0.548D+00 0.460D+00
 Gap=     0.248 Goal=   None    Shift=    0.000
 RMSDP=2.25D-03 MaxDP=2.29D-01 DE= 4.81D-03 OVMax= 3.94D-02

 Cycle   5  Pass 1  IDiag  1:
 RMSU=  1.07D-03    CP:  3.75D-01  1.37D+00  1.24D+00  8.64D-01
 E= -3010.57192417568     Delta-E=       -0.018694461179 Rises=F Damp=F
 DIIS: error= 1.72D-03 at cycle   5 NSaved=   5.
 NSaved= 5 IEnMin= 5 EnMin= -3010.57192417568     IErMin= 5 ErrMin= 1.72D-03
 ErrMax= 1.72D-03  0.00D+00 EMaxC= 1.00D-01 BMatC= 2.68D-04 BMatP= 2.95D-02
 IDIUse=3 WtCom= 9.83D-01 WtEn= 1.72D-02
 Coeff-Com:  0.670D-02-0.930D-02 0.158D+00 0.157D+00 0.687D+00
 Coeff-En:   0.000D+00 0.000D+00 0.000D+00 0.000D+00 0.100D+01
 Coeff:      0.658D-02-0.914D-02 0.155D+00 0.154D+00 0.693D+00
 Gap=     0.244 Goal=   None    Shift=    0.000
 RMSDP=5.18D-04 MaxDP=4.54D-02 DE=-1.87D-02 OVMax= 6.35D-03

 Cycle   6  Pass 1  IDiag  1:
 RMSU=  3.85D-04    CP:  3.74D-01  1.36D+00  1.26D+00  8.04D-01  1.06D+00
 E= -3010.57219218543     Delta-E=       -0.000268009742 Rises=F Damp=F
 DIIS: error= 4.49D-04 at cycle   6 NSaved=   6.
 NSaved= 6 IEnMin= 6 EnMin= -3010.57219218543     IErMin= 6 ErrMin= 4.49D-04
 ErrMax= 4.49D-04  0.00D+00 EMaxC= 1.00D-01 BMatC= 6.69D-05 BMatP= 2.68D-04
 IDIUse=3 WtCom= 9.96D-01 WtEn= 4.49D-03
 Coeff-Com: -0.175D-02 0.236D-02-0.275D-01-0.179D-01 0.316D+00 0.728D+00
 Coeff-En:   0.000D+00 0.000D+00 0.000D+00 0.000D+00 0.000D+00 0.100D+01
 Coeff:     -0.174D-02 0.235D-02-0.274D-01-0.178D-01 0.315D+00 0.730D+00
 Gap=     0.246 Goal=   None    Shift=    0.000
 RMSDP=4.77D-04 MaxDP=2.60D-02 DE=-2.68D-04 OVMax= 5.53D-03

 Cycle   7  Pass 1  IDiag  1:
 RMSU=  1.29D-04    CP:  3.71D-01  1.37D+00  1.28D+00  8.73D-01  1.21D+00
                    CP:  9.17D-01
 E= -3010.57229332076     Delta-E=       -0.000101135334 Rises=F Damp=F
 DIIS: error= 2.68D-04 at cycle   7 NSaved=   7.
 NSaved= 7 IEnMin= 7 EnMin= -3010.57229332076     IErMin= 7 ErrMin= 2.68D-04
 ErrMax= 2.68D-04  0.00D+00 EMaxC= 1.00D-01 BMatC= 1.07D-05 BMatP= 6.69D-05
 IDIUse=3 WtCom= 9.97D-01 WtEn= 2.68D-03
 Coeff-Com: -0.153D-02 0.204D-02-0.314D-01-0.278D-01 0.645D-01 0.341D+00
 Coeff-Com:  0.653D+00
 Coeff-En:   0.000D+00 0.000D+00 0.000D+00 0.000D+00 0.000D+00 0.000D+00
 Coeff-En:   0.100D+01
 Coeff:     -0.153D-02 0.204D-02-0.313D-01-0.278D-01 0.644D-01 0.340D+00
 Coeff:      0.654D+00
 Gap=     0.246 Goal=   None    Shift=    0.000
 RMSDP=1.07D-04 MaxDP=5.38D-03 DE=-1.01D-04 OVMax= 2.46D-03

 Cycle   8  Pass 1  IDiag  1:
 RMSU=  4.37D-05    CP:  3.71D-01  1.37D+00  1.28D+00  8.86D-01  1.25D+00
                    CP:  1.00D+00  1.21D+00
 E= -3010.57231027719     Delta-E=       -0.000016956436 Rises=F Damp=F
 DIIS: error= 2.03D-04 at cycle   8 NSaved=   8.
 NSaved= 8 IEnMin= 8 EnMin= -3010.57231027719     IErMin= 8 ErrMin= 2.03D-04
 ErrMax= 2.03D-04  0.00D+00 EMaxC= 1.00D-01 BMatC= 3.83D-06 BMatP= 1.07D-05
 IDIUse=3 WtCom= 9.98D-01 WtEn= 2.03D-03
 Coeff-Com: -0.343D-03 0.393D-03-0.113D-01-0.125D-01-0.665D-01-0.201D-01
 Coeff-Com:  0.415D+00 0.695D+00
 Coeff-En:   0.000D+00 0.000D+00 0.000D+00 0.000D+00 0.000D+00 0.000D+00
 Coeff-En:   0.000D+00 0.100D+01
 Coeff:     -0.343D-03 0.393D-03-0.113D-01-0.125D-01-0.663D-01-0.200D-01
 Coeff:      0.415D+00 0.696D+00
 Gap=     0.246 Goal=   None    Shift=    0.000
 RMSDP=7.80D-05 MaxDP=5.15D-03 DE=-1.70D-05 OVMax= 1.73D-03

 Cycle   9  Pass 1  IDiag  1:
 RMSU=  3.04D-05    CP:  3.71D-01  1.37D+00  1.29D+00  8.88D-01  1.28D+00
                    CP:  1.10D+00  1.46D+00  1.04D+00
 E= -3010.57231759259     Delta-E=       -0.000007315395 Rises=F Damp=F
 DIIS: error= 4.66D-05 at cycle   9 NSaved=   9.
 NSaved= 9 IEnMin= 9 EnMin= -3010.57231759259     IErMin= 9 ErrMin= 4.66D-05
 ErrMax= 4.66D-05  0.00D+00 EMaxC= 1.00D-01 BMatC= 5.97D-07 BMatP= 3.83D-06
 IDIUse=1 WtCom= 1.00D+00 WtEn= 0.00D+00
 Coeff-Com:  0.175D-03-0.262D-03 0.155D-02-0.145D-03-0.467D-01-0.792D-01
 Coeff-Com:  0.762D-01 0.357D+00 0.692D+00
 Coeff:      0.175D-03-0.262D-03 0.155D-02-0.145D-03-0.467D-01-0.792D-01
 Coeff:      0.762D-01 0.357D+00 0.692D+00
 Gap=     0.246 Goal=   None    Shift=    0.000
 RMSDP=3.16D-05 MaxDP=1.39D-03 DE=-7.32D-06 OVMax= 7.39D-04

 Cycle  10  Pass 1  IDiag  1:
 RMSU=  1.24D-05    CP:  3.72D-01  1.37D+00  1.29D+00  8.89D-01  1.29D+00
                    CP:  1.12D+00  1.60D+00  1.21D+00  1.29D+00
 E= -3010.57231903315     Delta-E=       -0.000001440564 Rises=F Damp=F
 DIIS: error= 1.20D-05 at cycle  10 NSaved=  10.
 NSaved=10 IEnMin=10 EnMin= -3010.57231903315     IErMin=10 ErrMin= 1.20D-05
 ErrMax= 1.20D-05  0.00D+00 EMaxC= 1.00D-01 BMatC= 5.48D-08 BMatP= 5.97D-07
 IDIUse=1 WtCom= 1.00D+00 WtEn= 0.00D+00
 Coeff-Com:  0.769D-04-0.769D-04 0.244D-02 0.214D-02 0.174D-02-0.147D-01
 Coeff-Com: -0.566D-01-0.537D-01 0.102D+00 0.102D+01
 Coeff:      0.769D-04-0.769D-04 0.244D-02 0.214D-02 0.174D-02-0.147D-01
 Coeff:     -0.566D-01-0.537D-01 0.102D+00 0.102D+01
 Gap=     0.246 Goal=   None    Shift=    0.000
 RMSDP=2.17D-05 MaxDP=1.42D-03 DE=-1.44D-06 OVMax= 5.95D-04

 Cycle  11  Pass 1  IDiag  1:
 RMSU=  4.88D-06    CP:  3.72D-01  1.37D+00  1.29D+00  8.88D-01  1.29D+00
                    CP:  1.12D+00  1.68D+00  1.29D+00  1.60D+00  1.39D+00
 E= -3010.57231937899     Delta-E=       -0.000000345835 Rises=F Damp=F
 DIIS: error= 6.89D-06 at cycle  11 NSaved=  11.
 NSaved=11 IEnMin=11 EnMin= -3010.57231937899     IErMin=11 ErrMin= 6.89D-06
 ErrMax= 6.89D-06  0.00D+00 EMaxC= 1.00D-01 BMatC= 1.46D-08 BMatP= 5.48D-08
 IDIUse=1 WtCom= 1.00D+00 WtEn= 0.00D+00
 Coeff-Com: -0.505D-05 0.108D-04 0.300D-03 0.551D-03 0.979D-02 0.119D-01
 Coeff-Com: -0.254D-01-0.825D-01-0.118D+00 0.335D+00 0.868D+00
 Coeff:     -0.505D-05 0.108D-04 0.300D-03 0.551D-03 0.979D-02 0.119D-01
 Coeff:     -0.254D-01-0.825D-01-0.118D+00 0.335D+00 0.868D+00
 Gap=     0.246 Goal=   None    Shift=    0.000
 RMSDP=1.13D-05 MaxDP=8.85D-04 DE=-3.46D-07 OVMax= 2.85D-04

 Cycle  12  Pass 1  IDiag  1:
 RMSU=  1.92D-06    CP:  3.72D-01  1.37D+00  1.29D+00  8.88D-01  1.29D+00
                    CP:  1.12D+00  1.71D+00  1.31D+00  1.75D+00  1.71D+00
                    CP:  1.28D+00
 E= -3010.57231945323     Delta-E=       -0.000000074240 Rises=F Damp=F
 DIIS: error= 3.09D-06 at cycle  12 NSaved=  12.
 NSaved=12 IEnMin=12 EnMin= -3010.57231945323     IErMin=12 ErrMin= 3.09D-06
 ErrMax= 3.09D-06  0.00D+00 EMaxC= 1.00D-01 BMatC= 2.95D-09 BMatP= 1.46D-08
 IDIUse=1 WtCom= 1.00D+00 WtEn= 0.00D+00
 Coeff-Com: -0.894D-05 0.516D-05-0.300D-03-0.166D-03 0.223D-02 0.547D-02
 Coeff-Com:  0.300D-02-0.177D-01-0.626D-01-0.759D-01 0.263D+00 0.883D+00
 Coeff:     -0.894D-05 0.516D-05-0.300D-03-0.166D-03 0.223D-02 0.547D-02
 Coeff:      0.300D-02-0.177D-01-0.626D-01-0.759D-01 0.263D+00 0.883D+00
 Gap=     0.246 Goal=   None    Shift=    0.000
 RMSDP=4.94D-06 MaxDP=3.03D-04 DE=-7.42D-08 OVMax= 1.65D-04

 Cycle  13  Pass 1  IDiag  1:
 RMSU=  1.17D-06    CP:  3.72D-01  1.37D+00  1.29D+00  8.87D-01  1.29D+00
                    CP:  1.12D+00  1.72D+00  1.31D+00  1.81D+00  1.86D+00
                    CP:  1.48D+00  1.26D+00
 E= -3010.57231947274     Delta-E=       -0.000000019511 Rises=F Damp=F
 DIIS: error= 1.41D-06 at cycle  13 NSaved=  13.
 NSaved=13 IEnMin=13 EnMin= -3010.57231947274     IErMin=13 ErrMin= 1.41D-06
 ErrMax= 1.41D-06  0.00D+00 EMaxC= 1.00D-01 BMatC= 7.08D-10 BMatP= 2.95D-09
 IDIUse=1 WtCom= 1.00D+00 WtEn= 0.00D+00
 Coeff-Com: -0.237D-05 0.229D-05-0.144D-03-0.174D-03-0.227D-02-0.224D-02
 Coeff-Com:  0.808D-02 0.190D-01 0.191D-01-0.904D-01-0.211D+00 0.190D+00
 Coeff-Com:  0.107D+01
 Coeff:     -0.237D-05 0.229D-05-0.144D-03-0.174D-03-0.227D-02-0.224D-02
 Coeff:      0.808D-02 0.190D-01 0.191D-01-0.904D-01-0.211D+00 0.190D+00
 Coeff:      0.107D+01
 Gap=     0.246 Goal=   None    Shift=    0.000
 RMSDP=1.72D-06 MaxDP=1.27D-04 DE=-1.95D-08 OVMax= 9.85D-05

 Cycle  14  Pass 1  IDiag  1:
 RMSU=  6.05D-07    CP:  3.72D-01  1.37D+00  1.29D+00  8.88D-01  1.29D+00
                    CP:  1.12D+00  1.73D+00  1.31D+00  1.83D+00  1.91D+00
                    CP:  1.57D+00  1.62D+00  1.25D+00
 E= -3010.57231947822     Delta-E=       -0.000000005479 Rises=F Damp=F
 DIIS: error= 7.32D-07 at cycle  14 NSaved=  14.
 NSaved=14 IEnMin=14 EnMin= -3010.57231947822     IErMin=14 ErrMin= 7.32D-07
 ErrMax= 7.32D-07  0.00D+00 EMaxC= 1.00D-01 BMatC= 1.52D-10 BMatP= 7.08D-10
 IDIUse=1 WtCom= 1.00D+00 WtEn= 0.00D+00
 Coeff-Com: -0.100D-05 0.328D-05-0.111D-04-0.444D-04-0.131D-02-0.186D-02
 Coeff-Com:  0.301D-02 0.111D-01 0.194D-01-0.197D-01-0.149D+00-0.852D-01
 Coeff-Com:  0.398D+00 0.826D+00
 Coeff:     -0.100D-05 0.328D-05-0.111D-04-0.444D-04-0.131D-02-0.186D-02
 Coeff:      0.301D-02 0.111D-01 0.194D-01-0.197D-01-0.149D+00-0.852D-01
 Coeff:      0.398D+00 0.826D+00
 Gap=     0.246 Goal=   None    Shift=    0.000
 RMSDP=7.29D-07 MaxDP=4.40D-05 DE=-5.48D-09 OVMax= 3.68D-05

 Cycle  15  Pass 1  IDiag  1:
 RMSU=  2.20D-07    CP:  3.72D-01  1.37D+00  1.29D+00  8.88D-01  1.29D+00
                    CP:  1.12D+00  1.73D+00  1.31D+00  1.83D+00  1.92D+00
                    CP:  1.58D+00  1.77D+00  1.43D+00  1.30D+00
 E= -3010.57231947904     Delta-E=       -0.000000000819 Rises=F Damp=F
 DIIS: error= 4.00D-07 at cycle  15 NSaved=  15.
 NSaved=15 IEnMin=15 EnMin= -3010.57231947904     IErMin=15 ErrMin= 4.00D-07
 ErrMax= 4.00D-07  0.00D+00 EMaxC= 1.00D-01 BMatC= 1.84D-11 BMatP= 1.52D-10
 IDIUse=1 WtCom= 1.00D+00 WtEn= 0.00D+00
 Coeff-Com:  0.748D-06-0.102D-05 0.258D-04 0.314D-04 0.299D-03 0.237D-03
 Coeff-Com: -0.119D-02-0.284D-02-0.323D-02 0.166D-01 0.308D-01-0.254D-01
 Coeff-Com: -0.202D+00 0.907D-01 0.110D+01
 Coeff:      0.748D-06-0.102D-05 0.258D-04 0.314D-04 0.299D-03 0.237D-03
 Coeff:     -0.119D-02-0.284D-02-0.323D-02 0.166D-01 0.308D-01-0.254D-01
 Coeff:     -0.202D+00 0.907D-01 0.110D+01
 Gap=     0.246 Goal=   None    Shift=    0.000
 RMSDP=2.83D-07 MaxDP=1.66D-05 DE=-8.19D-10 OVMax= 1.16D-05

 Cycle  16  Pass 1  IDiag  1:
 RMSU=  8.47D-08    CP:  3.72D-01  1.37D+00  1.29D+00  8.87D-01  1.29D+00
                    CP:  1.12D+00  1.74D+00  1.31D+00  1.83D+00  1.92D+00
                    CP:  1.56D+00  1.80D+00  1.50D+00  1.50D+00  1.29D+00
 E= -3010.57231947917     Delta-E=       -0.000000000135 Rises=F Damp=F
 DIIS: error= 9.08D-08 at cycle  16 NSaved=  16.
 NSaved=16 IEnMin=16 EnMin= -3010.57231947917     IErMin=16 ErrMin= 9.08D-08
 ErrMax= 9.08D-08  0.00D+00 EMaxC= 1.00D-01 BMatC= 2.76D-12 BMatP= 1.84D-11
 IDIUse=1 WtCom= 1.00D+00 WtEn= 0.00D+00
 Coeff-Com:  0.403D-06-0.869D-06 0.827D-05 0.142D-04 0.265D-03 0.312D-03
 Coeff-Com: -0.708D-03-0.233D-02-0.377D-02 0.735D-02 0.296D-01 0.440D-02
 Coeff-Com: -0.118D+00-0.828D-01 0.291D+00 0.875D+00
 Coeff:      0.403D-06-0.869D-06 0.827D-05 0.142D-04 0.265D-03 0.312D-03
 Coeff:     -0.708D-03-0.233D-02-0.377D-02 0.735D-02 0.296D-01 0.440D-02
 Coeff:     -0.118D+00-0.828D-01 0.291D+00 0.875D+00
 Gap=     0.246 Goal=   None    Shift=    0.000
 RMSDP=1.09D-07 MaxDP=6.10D-06 DE=-1.35D-10 OVMax= 3.14D-06

 Cycle  17  Pass 1  IDiag  1:
 RMSU=  2.86D-08    CP:  3.72D-01  1.37D+00  1.29D+00  8.88D-01  1.29D+00
                    CP:  1.12D+00  1.74D+00  1.31D+00  1.83D+00  1.93D+00
                    CP:  1.56D+00  1.80D+00  1.50D+00  1.57D+00  1.48D+00
                    CP:  1.14D+00
 E= -3010.57231947914     Delta-E=        0.000000000031 Rises=F Damp=F
 DIIS: error= 5.17D-08 at cycle  17 NSaved=  17.
 NSaved=17 IEnMin=16 EnMin= -3010.57231947917     IErMin=17 ErrMin= 5.17D-08
 ErrMax= 5.17D-08  0.00D+00 EMaxC= 1.00D-01 BMatC= 3.24D-13 BMatP= 2.76D-12
 IDIUse=1 WtCom= 1.00D+00 WtEn= 0.00D+00
 Coeff-Com: -0.467D-07 0.223D-07-0.110D-05-0.435D-06 0.357D-04 0.511D-04
 Coeff-Com: -0.256D-04-0.254D-03-0.649D-03 0.581D-05 0.379D-02 0.373D-02
 Coeff-Com: -0.624D-02-0.291D-01-0.463D-01 0.219D+00 0.856D+00
 Coeff:     -0.467D-07 0.223D-07-0.110D-05-0.435D-06 0.357D-04 0.511D-04
 Coeff:     -0.256D-04-0.254D-03-0.649D-03 0.581D-05 0.379D-02 0.373D-02
 Coeff:     -0.624D-02-0.291D-01-0.463D-01 0.219D+00 0.856D+00
 Gap=     0.246 Goal=   None    Shift=    0.000
 RMSDP=2.88D-08 MaxDP=1.37D-06 DE= 3.09D-11 OVMax= 1.04D-06

 Cycle  18  Pass 1  IDiag  1:
 RMSU=  9.15D-09    CP:  3.72D-01  1.37D+00  1.29D+00  8.88D-01  1.29D+00
                    CP:  1.12D+00  1.74D+00  1.31D+00  1.83D+00  1.93D+00
                    CP:  1.56D+00  1.81D+00  1.49D+00  1.58D+00  1.51D+00
                    CP:  1.25D+00  1.25D+00
 E= -3010.57231947918     Delta-E=       -0.000000000040 Rises=F Damp=F
 DIIS: error= 1.25D-08 at cycle  18 NSaved=  18.
 NSaved=18 IEnMin=18 EnMin= -3010.57231947918     IErMin=18 ErrMin= 1.25D-08
 ErrMax= 1.25D-08  0.00D+00 EMaxC= 1.00D-01 BMatC= 8.65D-14 BMatP= 3.24D-13
 IDIUse=1 WtCom= 1.00D+00 WtEn= 0.00D+00
 Coeff-Com: -0.752D-07 0.152D-06-0.155D-05-0.245D-05-0.403D-04-0.505D-04
 Coeff-Com:  0.131D-03 0.371D-03 0.508D-03-0.128D-02-0.465D-02 0.454D-03
 Coeff-Com:  0.212D-01 0.672D-02-0.633D-01-0.137D+00 0.215D+00 0.963D+00
 Coeff:     -0.752D-07 0.152D-06-0.155D-05-0.245D-05-0.403D-04-0.505D-04
 Coeff:      0.131D-03 0.371D-03 0.508D-03-0.128D-02-0.465D-02 0.454D-03
 Coeff:      0.212D-01 0.672D-02-0.633D-01-0.137D+00 0.215D+00 0.963D+00
 Gap=     0.246 Goal=   None    Shift=    0.000
 RMSDP=2.30D-08 MaxDP=2.11D-06 DE=-4.00D-11 OVMax= 6.48D-07

 Cycle  19  Pass 1  IDiag  1:
 RMSU=  5.35D-09    CP:  3.72D-01  1.37D+00  1.29D+00  8.88D-01  1.29D+00
                    CP:  1.12D+00  1.74D+00  1.31D+00  1.83D+00  1.93D+00
                    CP:  1.56D+00  1.81D+00  1.49D+00  1.58D+00  1.52D+00
                    CP:  1.28D+00  1.53D+00  1.54D+00
 E= -3010.57231947920     Delta-E=       -0.000000000013 Rises=F Damp=F
 DIIS: error= 5.15D-09 at cycle  19 NSaved=  19.
 NSaved=19 IEnMin=19 EnMin= -3010.57231947920     IErMin=19 ErrMin= 5.15D-09
 ErrMax= 5.15D-09  0.00D+00 EMaxC= 1.00D-01 BMatC= 1.16D-14 BMatP= 8.65D-14
 IDIUse=1 WtCom= 1.00D+00 WtEn= 0.00D+00
 Coeff-Com: -0.964D-08 0.266D-07-0.827D-07-0.160D-06-0.811D-05-0.135D-04
 Coeff-Com:  0.172D-04 0.684D-04 0.119D-03-0.928D-06-0.109D-02-0.568D-03
 Coeff-Com:  0.293D-02 0.340D-02 0.301D-02-0.503D-01-0.798D-01 0.739D-01
 Coeff-Com:  0.105D+01
 Coeff:     -0.964D-08 0.266D-07-0.827D-07-0.160D-06-0.811D-05-0.135D-04
 Coeff:      0.172D-04 0.684D-04 0.119D-03-0.928D-06-0.109D-02-0.568D-03
 Coeff:      0.293D-02 0.340D-02 0.301D-02-0.503D-01-0.798D-01 0.739D-01
 Coeff:      0.105D+01
 Gap=     0.246 Goal=   None    Shift=    0.000
 RMSDP=1.15D-08 MaxDP=6.37D-07 DE=-1.27D-11 OVMax= 3.79D-07

 Cycle  20  Pass 1  IDiag  1:
 RMSU=  2.18D-09    CP:  3.72D-01  1.37D+00  1.29D+00  8.88D-01  1.29D+00
                    CP:  1.12D+00  1.74D+00  1.31D+00  1.83D+00  1.93D+00
                    CP:  1.56D+00  1.81D+00  1.48D+00  1.58D+00  1.53D+00
                    CP:  1.28D+00  1.64D+00  1.88D+00  1.45D+00
 E= -3010.57231947914     Delta-E=        0.000000000051 Rises=F Damp=F
 DIIS: error= 2.72D-09 at cycle  20 NSaved=  20.
 NSaved=20 IEnMin=19 EnMin= -3010.57231947920     IErMin=20 ErrMin= 2.72D-09
 ErrMax= 2.72D-09  0.00D+00 EMaxC= 1.00D-01 BMatC= 3.21D-15 BMatP= 1.16D-14
 IDIUse=1 WtCom= 1.00D+00 WtEn= 0.00D+00
 Large coefficients: NSaved= 20 BigCof=    0.00 CofMax=   10.00 Det=-4.58D-15
 Inversion failed.  Reducing to 19 matrices.
 Large coefficients: NSaved= 19 BigCof=    0.00 CofMax=   10.00 Det=-4.59D-15
 Inversion failed.  Reducing to 18 matrices.
 Large coefficients: NSaved= 18 BigCof=    0.00 CofMax=   10.00 Det=-4.65D-15
 Inversion failed.  Reducing to 17 matrices.
 Large coefficients: NSaved= 17 BigCof=    0.00 CofMax=   10.00 Det=-4.67D-15
 Inversion failed.  Reducing to 16 matrices.
 Large coefficients: NSaved= 16 BigCof=    0.00 CofMax=   10.00 Det=-4.67D-15
 Inversion failed.  Reducing to 15 matrices.
 Coeff-Com: -0.459D-06-0.132D-05-0.463D-05-0.108D-04 0.824D-04 0.645D-04
 Coeff-Com: -0.205D-03-0.120D-02 0.293D-04 0.897D-02 0.113D-01-0.446D-01
 Coeff-Com: -0.168D+00 0.126D+00 0.107D+01
 Coeff:     -0.459D-06-0.132D-05-0.463D-05-0.108D-04 0.824D-04 0.645D-04
 Coeff:     -0.205D-03-0.120D-02 0.293D-04 0.897D-02 0.113D-01-0.446D-01
 Coeff:     -0.168D+00 0.126D+00 0.107D+01
 Gap=     0.246 Goal=   None    Shift=    0.000
 RMSDP=7.33D-09 MaxDP=4.25D-07 DE= 5.09D-11 OVMax= 2.21D-07

 SCF Done:  E(RwB97XD) =  -3010.57231948     A.U. after   20 cycles
            NFock= 20  Conv=0.73D-08     -V/T= 2.0016
 KE= 3.005828788765D+03 PE=-8.635909507321D+03 EE= 1.876094852539D+03
 Leave Link  502 at Wed May  1 14:48:09 2024, MaxMem=  1207959552 cpu:            1154.1 elap:            1154.2
 (Enter /software/gaussian/g16-c01/sse4/g16/l601.exe)
 Copying SCF densities to generalized density rwf, IOpCl= 0 IROHF=0.

 **********************************************************************

            Population analysis using the SCF Density.

 **********************************************************************

 Alpha  occ. eigenvalues -- -483.32998 -62.87981 -56.67705 -56.67097 -56.67083
 Alpha  occ. eigenvalues --  -19.57097 -19.57006 -14.96218 -10.62605 -10.61590
 Alpha  occ. eigenvalues --  -10.61003 -10.60203 -10.59094 -10.55233  -9.03755
 Alpha  occ. eigenvalues --   -6.86513  -6.84529  -6.84479  -2.96397  -2.95881
 Alpha  occ. eigenvalues --   -2.95840  -2.94253  -2.94253  -1.60804  -1.43903
 Alpha  occ. eigenvalues --   -1.26723  -1.18484  -1.14978  -1.07920  -1.06051
 Alpha  occ. eigenvalues --   -0.98672  -0.96074  -0.92997  -0.90615  -0.89141
 Alpha  occ. eigenvalues --   -0.85771  -0.82858  -0.80921  -0.79183  -0.75493
 Alpha  occ. eigenvalues --   -0.71817  -0.70474  -0.68368  -0.68243  -0.67164
 Alpha  occ. eigenvalues --   -0.66954  -0.62804  -0.57472  -0.56972
 Alpha virt. eigenvalues --   -0.32405  -0.30625  -0.18934  -0.17729  -0.16597
 Alpha virt. eigenvalues --   -0.13884  -0.12710  -0.11413  -0.10649  -0.08346
 Alpha virt. eigenvalues --   -0.07310  -0.06501  -0.05463  -0.04908  -0.04112
 Alpha virt. eigenvalues --   -0.03795  -0.03384  -0.02289  -0.01076  -0.00410
 Alpha virt. eigenvalues --   -0.00188   0.00957   0.01288   0.01653   0.02266
 Alpha virt. eigenvalues --    0.02856   0.03344   0.03474   0.04620   0.04820
 Alpha virt. eigenvalues --    0.06364   0.06653   0.07796   0.08142   0.08301
 Alpha virt. eigenvalues --    0.08876   0.09349   0.10200   0.10606   0.11310
 Alpha virt. eigenvalues --    0.11878   0.12406   0.12894   0.13558   0.14162
 Alpha virt. eigenvalues --    0.16335   0.16692   0.17415   0.17862   0.19392
 Alpha virt. eigenvalues --    0.20135   0.21147   0.21631   0.22234   0.25172
 Alpha virt. eigenvalues --    0.26420   0.28656   0.31184   0.31496   0.31599
 Alpha virt. eigenvalues --    0.33174   0.34188   0.35708   0.36578   0.38830
 Alpha virt. eigenvalues --    0.39713   0.40339   0.40798   0.41432   0.43323
 Alpha virt. eigenvalues --    0.44032   0.45468   0.48071   0.48369   0.49716
 Alpha virt. eigenvalues --    0.50370   0.51935   0.53355   0.54369   0.55223
 Alpha virt. eigenvalues --    0.58856   0.61186   0.62155   0.62786   0.64477
 Alpha virt. eigenvalues --    0.65807   0.67722   0.70080   0.70928   0.71457
 Alpha virt. eigenvalues --    0.72094   0.73157   0.75058   0.76089   0.80514
 Alpha virt. eigenvalues --    0.82547   0.83091   0.86253   0.86903   0.88693
 Alpha virt. eigenvalues --    0.89898   0.94960   0.97655   0.99024   1.00531
 Alpha virt. eigenvalues --    1.00893   1.02127   1.03889   1.04252   1.07202
 Alpha virt. eigenvalues --    1.11099   1.17686   1.20732   1.29553   1.32566
 Alpha virt. eigenvalues --    1.33465   1.34255   1.41888   1.48305   1.49305
 Alpha virt. eigenvalues --    1.49918   1.52194   1.56932   1.57932   1.62841
 Alpha virt. eigenvalues --    1.63905   1.65460   1.66409   1.70447   1.75144
 Alpha virt. eigenvalues --    1.78476   1.81217   1.82727   1.89550   1.92941
 Alpha virt. eigenvalues --    1.94564   1.95362   1.98527   2.03907   2.04701
 Alpha virt. eigenvalues --    2.06511   2.11248   2.14702   2.17613   2.26214
 Alpha virt. eigenvalues --    2.30611   2.34306   2.38322   2.40622   2.48357
 Alpha virt. eigenvalues --    2.53556   2.58160   2.59206   2.62142   2.63782
 Alpha virt. eigenvalues --    2.64766   2.66552   2.70199   2.72261   2.78593
 Alpha virt. eigenvalues --    2.88802   2.91515   2.92730   3.01931   3.03773
 Alpha virt. eigenvalues --    3.07034   3.10600   3.14386   3.15794   3.16201
 Alpha virt. eigenvalues --    3.20322   3.31364   3.43456   3.44665   3.46148
 Alpha virt. eigenvalues --    3.51111   3.59730   3.63078   3.78478   3.83355
 Alpha virt. eigenvalues --    4.07441   4.07648   4.14895   4.20251   4.32734
 Alpha virt. eigenvalues --    4.40970   4.49751   4.54361   4.81410   4.83967
 Alpha virt. eigenvalues --    4.92657   4.96821   5.51664   6.04105   6.63120
 Alpha virt. eigenvalues --    7.46162   7.47699   7.57373  23.17843  23.57614
 Alpha virt. eigenvalues --   23.67310  23.75947  23.92314  23.97560  35.21768
 Alpha virt. eigenvalues --   47.89490  49.74278  49.83087 289.78771 289.80432
 Alpha virt. eigenvalues --  289.928501020.89843
          Condensed to atoms (all electrons):
               1          2          3          4          5          6
     1  C    8.559017  -2.977145   1.253632  -1.536198  -1.205114   0.287384
     2  C   -2.977145  14.900855  -3.682220  -2.368711   1.832796  -0.007126
     3  C    1.253632  -3.682220  13.372548  -2.547449  -1.672536   0.009610
     4  C   -1.536198  -2.368711  -2.547449  13.252839   1.271087   0.011598
     5  C   -1.205114   1.832796  -1.672536   1.271087   7.862988   0.038754
     6  H    0.287384  -0.007126   0.009610   0.011598   0.038754   0.295429
     7  H    0.058511   0.257339   0.087460  -0.038466  -0.022992  -0.001831
     8  H   -0.000135  -0.022066   0.051215   0.277093   0.008945   0.000002
     9  H    0.015489   0.002752  -0.002947  -0.004315   0.319682  -0.001337
    10  N   -0.079772   0.326881  -0.956818   0.211714   0.080889  -0.000291
    11  O    0.029604   0.021844  -0.243320  -0.071054  -0.052939  -0.000009
    12  O    0.198870  -0.058459  -0.258377  -0.000224  -0.046406  -0.000080
    13  C    1.924902  -2.776146   1.267866  -2.749755  -2.467062  -0.011769
    14  H    0.012484  -0.029930   0.017661  -0.034731  -0.109951  -0.000062
    15  Br   0.084638   0.002430   0.053033   0.178977   0.077558  -0.000331
               7          8          9         10         11         12
     1  C    0.058511  -0.000135   0.015489  -0.079772   0.029604   0.198870
     2  C    0.257339  -0.022066   0.002752   0.326881   0.021844  -0.058459
     3  C    0.087460   0.051215  -0.002947  -0.956818  -0.243320  -0.258377
     4  C   -0.038466   0.277093  -0.004315   0.211714  -0.071054  -0.000224
     5  C   -0.022992   0.008945   0.319682   0.080889  -0.052939  -0.046406
     6  H   -0.001831   0.000002  -0.001337  -0.000291  -0.000009  -0.000080
     7  H    0.343766   0.000057   0.000030  -0.031692  -0.001826   0.011982
     8  H    0.000057   0.339616   0.000157  -0.023598   0.012014  -0.001017
     9  H    0.000030   0.000157   0.248280   0.000481   0.000001   0.000007
    10  N   -0.031692  -0.023598   0.000481   7.102819   0.300055   0.274911
    11  O   -0.001826   0.012014   0.000001   0.300055   7.907931  -0.037369
    12  O    0.011982  -0.001017   0.000007   0.274911  -0.037369   7.935575
    13  C    0.012920   0.025744  -0.019595  -0.095024   0.202844   0.051325
    14  H   -0.000008  -0.005933  -0.003639  -0.002309  -0.000060  -0.000077
    15  Br  -0.000383  -0.004192   0.001413  -0.001497   0.001854   0.001897
              13         14         15
     1  C    1.924902   0.012484   0.084638
     2  C   -2.776146  -0.029930   0.002430
     3  C    1.267866   0.017661   0.053033
     4  C   -2.749755  -0.034731   0.178977
     5  C   -2.467062  -0.109951   0.077558
     6  H   -0.011769  -0.000062  -0.000331
     7  H    0.012920  -0.000008  -0.000383
     8  H    0.025744  -0.005933  -0.004192
     9  H   -0.019595  -0.003639   0.001413
    10  N   -0.095024  -0.002309  -0.001497
    11  O    0.202844  -0.000060   0.001854
    12  O    0.051325  -0.000077   0.001897
    13  C   10.817926   0.437739  -0.198653
    14  H    0.437739   0.311474  -0.034182
    15  Br  -0.198653  -0.034182  34.530927
 Mulliken charges:
               1
     1  C   -0.626166
     2  C    0.576905
     3  C   -0.749359
     4  C    0.147594
     5  C    0.084301
     6  H    0.380059
     7  H    0.325132
     8  H    0.342098
     9  H    0.443542
    10  N   -0.106749
    11  O   -0.069571
    12  O   -0.072559
    13  C   -0.423263
    14  H    0.441523
    15  Br   0.306513
 Sum of Mulliken charges =   1.00000
 Mulliken charges with hydrogens summed into heavy atoms:
               1
     1  C   -0.246107
     2  C    0.902037
     3  C   -0.749359
     4  C    0.489692
     5  C    0.527843
    10  N   -0.106749
    11  O   -0.069571
    12  O   -0.072559
    13  C    0.018260
    15  Br   0.306513
 Electronic spatial extent (au):  <R**2>=           2809.3522
 Charge=              1.0000 electrons
 Dipole moment (field-independent basis, Debye):
    X=             -7.7072    Y=             -1.3986    Z=             -0.6038  Tot=              7.8563
 Quadrupole moment (field-independent basis, Debye-Ang):
   XX=            -88.2869   YY=            -51.3123   ZZ=            -61.0223
   XY=              2.2926   XZ=              2.8733   YZ=              3.2935
 Traceless Quadrupole moment (field-independent basis, Debye-Ang):
   XX=            -21.4131   YY=             15.5615   ZZ=              5.8516
   XY=              2.2926   XZ=              2.8733   YZ=              3.2935
 Octapole moment (field-independent basis, Debye-Ang**2):
  XXX=           -397.0034  YYY=             82.0259  ZZZ=             73.0482  XYY=            -92.3612
  XXY=             26.9534  XXZ=             31.8620  XZZ=            -85.8795  YZZ=             12.1750
  YYZ=             21.7598  XYZ=             -6.5852
 Hexadecapole moment (field-independent basis, Debye-Ang**3):
 XXXX=          -2707.3348 YYYY=           -665.1384 ZZZZ=           -335.3256 XXXY=            -67.9990
 XXXZ=             -9.9628 YYYX=            -52.6580 YYYZ=           -144.8797 ZZZX=             -9.1906
 ZZZY=           -125.6952 XXYY=           -489.0088 XXZZ=           -377.7706 YYZZ=           -154.4437
 XXYZ=            -50.5809 YYXZ=              5.6521 ZZXY=             -2.0317
 N-N= 7.434135465389D+02 E-N=-8.635909507651D+03  KE= 3.005828788765D+03
 No NMR shielding tensors so no spin-rotation constants.
 Leave Link  601 at Wed May  1 14:48:17 2024, MaxMem=  1207959552 cpu:               7.3 elap:               7.3
 (Enter /software/gaussian/g16-c01/sse4/g16/l9999.exe)
 Unable to Open any file for archive entry.
 1\1\GINC-BHX0029\SP\RwB97XD\6-311+G(d)\C6H5Br1N1O2(1+)\BWEIGHT\01-May-
 2024\0\\#P wB97XD/6-311+G* NoSymm #P Field=X+223\\TitleMe\\1,1\C,0,0.0
 295,1.3397,0.0682\C,0,1.4348,1.2867,0.0064\C,0,2.1118,0.0511,-0.0054\C
 ,0,1.4451,-1.1372,0.0312\C,0,-0.6879,0.1682,0.11\H,0,-0.4713,2.2984,0.
 0781\H,0,2.0273,2.1965,-0.0322\H,0,1.9897,-2.0764,0.0232\H,0,-1.7716,0
 .1804,0.1582\N,0,3.5864,0.051,-0.0675\O,0,4.1471,-1.0597,-0.0881\O,0,4
 .145,1.1639,-0.0901\C,0,-0.0236,-1.1458,0.0835\H,0,-0.4367,-1.8725,0.7
 889\Br,0,-0.5359,-1.8697,-1.7408\\Version=ES64L-G16RevC.01\HF=-3010.57
 23195\RMSD=7.326e-09\Dipole=-4.9387671,0.5978281,0.9086075\Quadrupole=
 -15.9201123,11.5696216,4.3504907,1.7045021,2.1362222,2.4486062\PG=C01 
 [X(C6H5Br1N1O2)]\\@
 The archive entry for this job was punched.


    WHAT WE HAVE LEARNED
 IS LIKE A HANDFUL OF EARTH;
  WHAT WE HAVE YET TO LEARN
   IS LIKE THE WHOLE WORLD.

         -- AVVAYIAR
 Job cpu time:       0 days  0 hours 20 minutes 26.9 seconds.
 Elapsed time:       0 days  0 hours 20 minutes 28.2 seconds.
 File lengths (MBytes):  RWF=     40 Int=      0 D2E=      0 Chk=     32 Scr=      1
 Normal termination of Gaussian 16 at Wed May  1 14:48:17 2024.
