 Entering Gaussian System, Link 0=g16
 Initial command:
 /software/gaussian/g16-c01/sse4/g16/l1.exe "/local_scratch/24665262/Gau-22235.inp" -scrdir="/local_scratch/24665262/"
 Entering Link 1 = /software/gaussian/g16-c01/sse4/g16/l1.exe PID=     22293.
  
 Copyright (c) 1988-2019, Gaussian, Inc.  All Rights Reserved.
  
 This is part of the Gaussian(R) 16 program.  It is based on
 the Gaussian(R) 09 system (copyright 2009, Gaussian, Inc.),
 the Gaussian(R) 03 system (copyright 2003, Gaussian, Inc.),
 the Gaussian(R) 98 system (copyright 1998, Gaussian, Inc.),
 the Gaussian(R) 94 system (copyright 1995, Gaussian, Inc.),
 the Gaussian 92(TM) system (copyright 1992, Gaussian, Inc.),
 the Gaussian 90(TM) system (copyright 1990, Gaussian, Inc.),
 the Gaussian 88(TM) system (copyright 1988, Gaussian, Inc.),
 the Gaussian 86(TM) system (copyright 1986, Carnegie Mellon
 University), and the Gaussian 82(TM) system (copyright 1983,
 Carnegie Mellon University). Gaussian is a federally registered
 trademark of Gaussian, Inc.
  
 This software contains proprietary and confidential information,
 including trade secrets, belonging to Gaussian, Inc.
  
 This software is provided under written license and may be
 used, copied, transmitted, or stored only in accord with that
 written license.
  
 The following legend is applicable only to US Government
 contracts under FAR:
  
                    RESTRICTED RIGHTS LEGEND
  
 Use, reproduction and disclosure by the US Government is
 subject to restrictions as set forth in subparagraphs (a)
 and (c) of the Commercial Computer Software - Restricted
 Rights clause in FAR 52.227-19.
  
 Gaussian, Inc.
 340 Quinnipiac St., Bldg. 40, Wallingford CT 06492
  
  
 ---------------------------------------------------------------
 Warning -- This program may not be used in any manner that
 competes with the business of Gaussian, Inc. or will provide
 assistance to any competitor of Gaussian, Inc.  The licensee
 of this program is prohibited from giving any competitor of
 Gaussian, Inc. access to this program.  By using this program,
 the user acknowledges that Gaussian, Inc. is engaged in the
 business of creating and licensing software in the field of
 computational chemistry and represents and warrants to the
 licensee that it is not a competitor of Gaussian, Inc. and that
 it will not use this program in any manner prohibited above.
 ---------------------------------------------------------------
  

 Cite this work as:
 Gaussian 16, Revision C.01,
 M. J. Frisch, G. W. Trucks, H. B. Schlegel, G. E. Scuseria, 
 M. A. Robb, J. R. Cheeseman, G. Scalmani, V. Barone, 
 G. A. Petersson, H. Nakatsuji, X. Li, M. Caricato, A. V. Marenich, 
 J. Bloino, B. G. Janesko, R. Gomperts, B. Mennucci, H. P. Hratchian, 
 J. V. Ortiz, A. F. Izmaylov, J. L. Sonnenberg, D. Williams-Young, 
 F. Ding, F. Lipparini, F. Egidi, J. Goings, B. Peng, A. Petrone, 
 T. Henderson, D. Ranasinghe, V. G. Zakrzewski, J. Gao, N. Rega, 
 G. Zheng, W. Liang, M. Hada, M. Ehara, K. Toyota, R. Fukuda, 
 J. Hasegawa, M. Ishida, T. Nakajima, Y. Honda, O. Kitao, H. Nakai, 
 T. Vreven, K. Throssell, J. A. Montgomery, Jr., J. E. Peralta, 
 F. Ogliaro, M. J. Bearpark, J. J. Heyd, E. N. Brothers, K. N. Kudin, 
 V. N. Staroverov, T. A. Keith, R. Kobayashi, J. Normand, 
 K. Raghavachari, A. P. Rendell, J. C. Burant, S. S. Iyengar, 
 J. Tomasi, M. Cossi, J. M. Millam, M. Klene, C. Adamo, R. Cammi, 
 J. W. Ochterski, R. L. Martin, K. Morokuma, O. Farkas, 
 J. B. Foresman, and D. J. Fox, Gaussian, Inc., Wallingford CT, 2019.
 
 ******************************************
 Gaussian 16:  ES64L-G16RevC.01  3-Jul-2019
                 2-May-2024 
 ******************************************
 %chk=geometry.chk
 %mem=1GB
 %nprocshared=12
 Will use up to   12 processors via shared memory.
 --------------------------------------
 #P wB97XD/6-311+G* NoSymm #P Field=X-9
 --------------------------------------
 1/38=1,172=1/1;
 2/12=2,15=1,17=6,18=5,40=1/2;
 3/5=4,6=6,7=11,11=2,14=1,15=-9,25=1,30=1,74=-58/1,2,3;
 4//1;
 5/5=2,38=5/2;
 6/7=2,8=2,9=2,10=2,28=1/1;
 99/5=1,9=1/99;
 Leave Link    1 at Thu May  2 13:57:35 2024, MaxMem=   134217728 cpu:               3.7 elap:               3.7
 (Enter /software/gaussian/g16-c01/sse4/g16/l101.exe)
 -------
 TitleMe
 -------
 Symbolic Z-matrix:
 Charge =  1 Multiplicity = 1
 C                     0.5193    1.233    -0.0319 
 C                     1.9445    1.2692   -0.0367 
 C                     2.6204    0.0928   -0.025 
 C                    -0.196     0.0301    0.001 
 H                    -0.0207    2.1742   -0.0434 
 H                     2.4828    2.2089   -0.0361 
 H                    -1.2777    0.0399    0.0117 
 N                     4.0921    0.0959    0.0366 
 O                     4.6393   -1.0217    0.1446 
 O                     4.6649    1.1984   -0.0233 
 C                     0.4943   -1.1671    0.021 
 H                    -0.0325   -2.1149    0.0545 
 C                     1.9629   -1.2165   -0.0211 
 H                     2.4436   -1.9631    0.6151 
 Br                    2.173    -1.9491   -1.9062 
 
 ITRead=  0  0  0  0  0  0  0  0  0  0  0  0  0  0  0
 MicOpt= -1 -1 -1 -1 -1 -1 -1 -1 -1 -1 -1 -1 -1 -1 -1
 NAtoms=     15 NQM=       15 NQMF=       0 NMMI=      0 NMMIF=      0
                NMic=       0 NMicF=      0.
                    Isotopes and Nuclear Properties:
 (Nuclear quadrupole moments (NQMom) in fm**2, nuclear magnetic moments (NMagM)
  in nuclear magnetons)

  Atom         1           2           3           4           5           6           7           8           9          10
 IAtWgt=          12          12          12          12           1           1           1          14          16          16
 AtmWgt=  12.0000000  12.0000000  12.0000000  12.0000000   1.0078250   1.0078250   1.0078250  14.0030740  15.9949146  15.9949146
 NucSpn=           0           0           0           0           1           1           1           2           0           0
 AtZEff=  -0.0000000  -0.0000000  -0.0000000  -0.0000000  -0.0000000  -0.0000000  -0.0000000  -0.0000000  -0.0000000  -0.0000000
 NQMom=    0.0000000   0.0000000   0.0000000   0.0000000   0.0000000   0.0000000   0.0000000   2.0440000   0.0000000   0.0000000
 NMagM=    0.0000000   0.0000000   0.0000000   0.0000000   2.7928460   2.7928460   2.7928460   0.4037610   0.0000000   0.0000000
 AtZNuc=   6.0000000   6.0000000   6.0000000   6.0000000   1.0000000   1.0000000   1.0000000   7.0000000   8.0000000   8.0000000

  Atom        11          12          13          14          15
 IAtWgt=          12           1          12           1          79
 AtmWgt=  12.0000000   1.0078250  12.0000000   1.0078250  78.9183361
 NucSpn=           0           1           0           1           3
 AtZEff=  -0.0000000  -0.0000000  -0.0000000  -0.0000000  -0.0000000
 NQMom=    0.0000000   0.0000000   0.0000000   0.0000000  31.3000000
 NMagM=    0.0000000   2.7928460   0.0000000   2.7928460   2.1063990
 AtZNuc=   6.0000000   1.0000000   6.0000000   1.0000000  35.0000000
 Leave Link  101 at Thu May  2 13:57:37 2024, MaxMem=   134217728 cpu:               1.7 elap:               1.8
 (Enter /software/gaussian/g16-c01/sse4/g16/l202.exe)
                          Input orientation:                          
 ---------------------------------------------------------------------
 Center     Atomic      Atomic             Coordinates (Angstroms)
 Number     Number       Type             X           Y           Z
 ---------------------------------------------------------------------
      1          6           0        0.519300    1.233000   -0.031900
      2          6           0        1.944500    1.269200   -0.036700
      3          6           0        2.620400    0.092800   -0.025000
      4          6           0       -0.196000    0.030100    0.001000
      5          1           0       -0.020700    2.174200   -0.043400
      6          1           0        2.482800    2.208900   -0.036100
      7          1           0       -1.277700    0.039900    0.011700
      8          7           0        4.092100    0.095900    0.036600
      9          8           0        4.639300   -1.021700    0.144600
     10          8           0        4.664900    1.198400   -0.023300
     11          6           0        0.494300   -1.167100    0.021000
     12          1           0       -0.032500   -2.114900    0.054500
     13          6           0        1.962900   -1.216500   -0.021100
     14          1           0        2.443600   -1.963100    0.615100
     15         35           0        2.173000   -1.949100   -1.906200
 ---------------------------------------------------------------------
                    Distance matrix (angstroms):
                    1          2          3          4          5
     1  C    0.000000
     2  C    1.425668   0.000000
     3  C    2.390549   1.356796   0.000000
     4  C    1.399895   2.473566   2.817218   0.000000
     5  H    1.085168   2.163581   3.362733   2.151712   0.000000
     6  H    2.192654   1.082960   2.120598   3.453189   2.503751
     7  H    2.157452   3.449071   3.898632   1.081797   2.477564
     8  N    3.750012   2.448304   1.472992   4.288753   4.608780
     9  O    4.699917   3.541615   2.312322   4.950458   5.653735
    10  O    4.145753   2.721354   2.324292   4.999386   4.786171
    11  C    2.400813   2.835836   2.471794   1.382101   3.381369
    12  H    3.394169   3.920329   3.452266   2.151887   4.290233
    13  C    2.843264   2.485817   1.465124   2.493060   3.928360
    14  H    3.786370   3.334922   2.160489   3.364142   4.860416
    15  Br   4.046416   3.728900   2.812194   3.628609   5.028314
                    6          7          8          9         10
     6  H    0.000000
     7  H    4.341452   0.000000
     8  N    2.657047   5.370150   0.000000
     9  O    3.888434   6.012948   1.249048   0.000000
    10  O    2.404752   6.054572   1.243863   2.226587   0.000000
    11  C    3.918516   2.144043   3.813080   4.149391   4.794941
    12  H    5.003018   2.489080   4.679774   4.798846   5.748876
    13  C    3.464662   3.475788   2.501842   2.688591   3.623886
    14  H    4.222698   4.268978   2.700314   2.434893   3.916224
    15  Br   4.569706   4.420610   3.411663   3.338935   4.434144
                   11         12         13         14         15
    11  C    0.000000
    12  H    1.084880   0.000000
    13  C    1.470034   2.189625   0.000000
    14  H    2.187771   2.543302   1.092353   0.000000
    15  Br   2.672762   2.955683   2.033334   2.535818   0.000000
 Symmetry turned off by external request.
 Stoichiometry    C6H5BrNO2(1+)
 Framework group  C1[X(C6H5BrNO2)]
 Deg. of freedom    39
 Full point group                 C1      NOp   1
 Rotational constants (GHZ):           1.1632986           0.9594224           0.5957624
 Leave Link  202 at Thu May  2 13:57:38 2024, MaxMem=   134217728 cpu:               1.2 elap:               1.2
 (Enter /software/gaussian/g16-c01/sse4/g16/l301.exe)
 Standard basis: 6-311+G(d) (5D, 7F)
 Ernie: Thresh=  0.10000D-02 Tol=  0.10000D-05 Strict=F.
 The following finite field(s) will be applied:
 An electric field of             -0.0009  0.0000  0.0000
   261 basis functions,   443 primitive gaussians,   273 cartesian basis functions
    49 alpha electrons       49 beta electrons
       nuclear repulsion energy       772.8945969580 Hartrees.
 IExCor= 4639 DFT=T Ex+Corr=wB97XD ExCW=0 ScaHFX=  1.000000
 ScaDFX=  1.000000  1.000000  1.000000  1.000000 ScalE2=  1.000000  1.000000
 IRadAn=      5 IRanWt=     -1 IRanGd=            0 ICorTp=0 IEmpDi=121
 HFx  wShort=  0.000000 wLong=  0.200000 cFull=  0.222036 cShort=  0.000000 cLong=  0.777964
 DFx  wShort=  0.000000 wLong=  0.200000 cFull=  0.000000 cShort=  0.000000 cLong=  1.000000
 NAtoms=   15 NActive=   15 NUniq=   15 SFac= 1.00D+00 NAtFMM=   60 NAOKFM=F Big=F
 Integral buffers will be    131072 words long.
 Raffenetti 2 integral format.
 Two-electron integral symmetry is turned off.
 R6Disp:  Grimme-D2 Dispersion energy=       -0.0080346408 Hartrees.
 Nuclear repulsion after empirical dispersion term =      772.8865623173 Hartrees.
 Leave Link  301 at Thu May  2 13:57:40 2024, MaxMem=   134217728 cpu:               1.2 elap:               1.2
 (Enter /software/gaussian/g16-c01/sse4/g16/l302.exe)
 NPDir=0 NMtPBC=     1 NCelOv=     1 NCel=       1 NClECP=     1 NCelD=      1
         NCelK=      1 NCelE2=     1 NClLst=     1 CellRange=     0.0.
 One-electron integrals computed using PRISM.
 NBasis=   261 RedAO= T EigKep=  2.52D-06  NBF=   261
 NBsUse=   261 1.00D-06 EigRej= -1.00D+00 NBFU=   261
 Precomputing XC quadrature grid using
 IXCGrd= 4 IRadAn=           5 IRanWt=          -1 IRanGd=           0 AccXCQ= 0.00D+00.
 Generated NRdTot=       0 NPtTot=           0 NUsed=           0 NTot=          32
 NSgBfM=   273   273   273   273   273 MxSgAt=    15 MxSgA2=    15.
 Leave Link  302 at Thu May  2 13:58:02 2024, MaxMem=   134217728 cpu:              21.8 elap:              21.9
 (Enter /software/gaussian/g16-c01/sse4/g16/l303.exe)
 DipDrv:  MaxL=1.
 The nuclear repulsion energy is now       772.5008293798 hartrees.
 Leave Link  303 at Thu May  2 13:58:05 2024, MaxMem=   134217728 cpu:               3.3 elap:               3.3
 (Enter /software/gaussian/g16-c01/sse4/g16/l401.exe)
 ExpMin= 3.50D-02 ExpMax= 4.40D+05 ExpMxC= 1.51D+04 IAcc=3 IRadAn=         5 AccDes= 0.00D+00
 Harris functional with IExCor= 4639 and IRadAn=       5 diagonalized for initial guess.
 HarFok:  IExCor= 4639 AccDes= 0.00D+00 IRadAn=         5 IDoV= 1 UseB2=F ITyADJ=14
 ICtDFT=  3500011 ScaDFX=  1.000000  1.000000  1.000000  1.000000
 FoFCou: FMM=F IPFlag=           0 FMFlag=      100000 FMFlg1=           0
         NFxFlg=           0 DoJE=T BraDBF=F KetDBF=T FulRan=T
         wScrn=  0.000000 ICntrl=       500 IOpCl=  0 I1Cent=   200000004 NGrid=           0
         NMat0=    1 NMatS0=      1 NMatT0=    0 NMatD0=    1 NMtDS0=    0 NMtDT0=    0
 Symmetry not used in FoFCou.
 Harris En= -2970.60142661327    
 JPrj=0 DoOrth=F DoCkMO=F.
 Leave Link  401 at Thu May  2 13:58:36 2024, MaxMem=   134217728 cpu:              31.2 elap:              31.2
 (Enter /software/gaussian/g16-c01/sse4/g16/l502.exe)
 Two-electron integral symmetry not used.
 Closed shell SCF:
 Using DIIS extrapolation, IDIIS=  1040.
 NGot=   134217728 LenX=   134063053 LenY=   133988083
 Requested convergence on RMS density matrix=1.00D-08 within 128 cycles.
 Requested convergence on MAX density matrix=1.00D-06.
 Requested convergence on             energy=1.00D-06.
 No special actions if energy rises.
 Fock matrices will be formed incrementally for  20 cycles.

 Cycle   1  Pass 1  IDiag  1:
 FoFJK:  IHMeth= 1 ICntrl=       0 DoSepK=T KAlg= 0 I1Cent=           0 FoldK=F
 IRaf=         1 NMat=       1 IRICut=       1 DoRegI=T DoRafI=F ISym2E= 0 IDoP0=0 IntGTp=1.
 FoFCou: FMM=F IPFlag=           0 FMFlag=      100000 FMFlg1=           0
         NFxFlg=           0 DoJE=T BraDBF=F KetDBF=F FulRan=T
         wScrn=  0.000000 ICntrl=       500 IOpCl=  0 I1Cent=           0 NGrid=           0
         NMat0=    1 NMatS0=      1 NMatT0=    0 NMatD0=    1 NMtDS0=    0 NMtDT0=    0
 Symmetry not used in FoFCou.
 E= -3009.69707718554    
 DIIS: error= 2.90D-01 at cycle   1 NSaved=   1.
 NSaved= 1 IEnMin= 1 EnMin= -3009.69707718554     IErMin= 1 ErrMin= 2.90D-01
 ErrMax= 2.90D-01  0.00D+00 EMaxC= 1.00D-01 BMatC= 1.20D+01 BMatP= 1.20D+01
 IDIUse=3 WtCom= 0.00D+00 WtEn= 1.00D+00
 Coeff-Com:  0.100D+01
 Coeff-En:   0.100D+01
 Coeff:      0.100D+01
 Gap=     0.318 Goal=   None    Shift=    0.000
 GapD=    0.318 DampG=1.000 DampE=0.250 DampFc=0.2500 IDamp=-1.
 Damping current iteration by 2.50D-01
 RMSDP=4.28D-02 MaxDP=3.90D+00              OVMax= 2.60D-01

 Cycle   2  Pass 1  IDiag  1:
 RMSU=  5.32D-03    CP:  9.16D-01
 E= -3009.98959489929     Delta-E=       -0.292517713753 Rises=F Damp=T
 DIIS: error= 2.19D-01 at cycle   2 NSaved=   2.
 NSaved= 2 IEnMin= 2 EnMin= -3009.98959489929     IErMin= 2 ErrMin= 2.19D-01
 ErrMax= 2.19D-01  0.00D+00 EMaxC= 1.00D-01 BMatC= 5.46D+00 BMatP= 1.20D+01
 IDIUse=3 WtCom= 0.00D+00 WtEn= 1.00D+00
 Coeff-Com: -0.183D+01 0.283D+01
 Coeff-En:   0.000D+00 0.100D+01
 Coeff:      0.000D+00 0.100D+01
 Gap=     0.269 Goal=   None    Shift=    0.000
 RMSDP=3.42D-02 MaxDP=3.25D+00 DE=-2.93D-01 OVMax= 7.15D-02

 Cycle   3  Pass 1  IDiag  1:
 RMSU=  5.06D-03    CP:  6.26D-01  3.00D+00
 E= -3010.37617359654     Delta-E=       -0.386578697247 Rises=F Damp=F
 DIIS: error= 6.59D-02 at cycle   3 NSaved=   3.
 NSaved= 3 IEnMin= 3 EnMin= -3010.37617359654     IErMin= 3 ErrMin= 6.59D-02
 ErrMax= 6.59D-02  0.00D+00 EMaxC= 1.00D-01 BMatC= 7.37D-01 BMatP= 5.46D+00
 IDIUse=3 WtCom= 3.41D-01 WtEn= 6.59D-01
 Coeff-Com:  0.260D+01-0.342D+01 0.181D+01
 Coeff-En:   0.381D-01 0.000D+00 0.962D+00
 Coeff:      0.912D+00-0.116D+01 0.125D+01
 Gap=     0.264 Goal=   None    Shift=    0.000
 RMSDP=1.14D-02 MaxDP=8.03D-01 DE=-3.87D-01 OVMax= 7.79D-02

 Cycle   4  Pass 1  IDiag  1:
 RMSU=  5.33D-03    CP:  6.70D-01  1.70D+00  2.06D+00
 E= -3010.48667146874     Delta-E=       -0.110497872203 Rises=F Damp=F
 DIIS: error= 3.75D-02 at cycle   4 NSaved=   4.
 NSaved= 4 IEnMin= 4 EnMin= -3010.48667146874     IErMin= 4 ErrMin= 3.75D-02
 ErrMax= 3.75D-02  0.00D+00 EMaxC= 1.00D-01 BMatC= 2.21D-01 BMatP= 7.37D-01
 IDIUse=3 WtCom= 6.25D-01 WtEn= 3.75D-01
 Coeff-Com: -0.266D-01 0.492D-01 0.348D+00 0.630D+00
 Coeff-En:   0.000D+00 0.000D+00 0.188D+00 0.812D+00
 Coeff:     -0.166D-01 0.307D-01 0.288D+00 0.698D+00
 Gap=     0.253 Goal=   None    Shift=    0.000
 RMSDP=6.00D-03 MaxDP=7.66D-01 DE=-1.10D-01 OVMax= 3.19D-02

 Cycle   5  Pass 1  IDiag  1:
 RMSU=  1.58D-03    CP:  6.25D-01  2.01D+00  1.91D+00  5.48D-01
 E= -3010.52977428360     Delta-E=       -0.043102814862 Rises=F Damp=F
 DIIS: error= 6.63D-03 at cycle   5 NSaved=   5.
 NSaved= 5 IEnMin= 5 EnMin= -3010.52977428360     IErMin= 5 ErrMin= 6.63D-03
 ErrMax= 6.63D-03  0.00D+00 EMaxC= 1.00D-01 BMatC= 9.16D-03 BMatP= 2.21D-01
 IDIUse=3 WtCom= 9.34D-01 WtEn= 6.63D-02
 Coeff-Com: -0.107D+00 0.148D+00 0.109D+00 0.390D+00 0.460D+00
 Coeff-En:   0.000D+00 0.000D+00 0.000D+00 0.000D+00 0.100D+01
 Coeff:     -0.100D+00 0.138D+00 0.102D+00 0.364D+00 0.496D+00
 Gap=     0.245 Goal=   None    Shift=    0.000
 RMSDP=1.58D-03 MaxDP=1.98D-01 DE=-4.31D-02 OVMax= 2.24D-02

 Cycle   6  Pass 1  IDiag  1:
 RMSU=  5.58D-04    CP:  6.33D-01  1.99D+00  1.98D+00  7.31D-01  6.19D-01
 E= -3010.53242845225     Delta-E=       -0.002654168649 Rises=F Damp=F
 DIIS: error= 2.90D-03 at cycle   6 NSaved=   6.
 NSaved= 6 IEnMin= 6 EnMin= -3010.53242845225     IErMin= 6 ErrMin= 2.90D-03
 ErrMax= 2.90D-03  0.00D+00 EMaxC= 1.00D-01 BMatC= 6.77D-04 BMatP= 9.16D-03
 IDIUse=3 WtCom= 9.71D-01 WtEn= 2.90D-02
 Coeff-Com: -0.958D-01 0.129D+00 0.203D-02 0.167D+00 0.340D+00 0.457D+00
 Coeff-En:   0.000D+00 0.000D+00 0.000D+00 0.000D+00 0.101D+00 0.899D+00
 Coeff:     -0.930D-01 0.125D+00 0.197D-02 0.162D+00 0.333D+00 0.470D+00
 Gap=     0.243 Goal=   None    Shift=    0.000
 RMSDP=4.70D-04 MaxDP=4.75D-02 DE=-2.65D-03 OVMax= 7.78D-03

 Cycle   7  Pass 1  IDiag  1:
 RMSU=  2.20D-04    CP:  6.31D-01  1.99D+00  1.98D+00  6.91D-01  7.44D-01
                    CP:  6.44D-01
 E= -3010.53290891707     Delta-E=       -0.000480464815 Rises=F Damp=F
 DIIS: error= 3.46D-04 at cycle   7 NSaved=   7.
 NSaved= 7 IEnMin= 7 EnMin= -3010.53290891707     IErMin= 7 ErrMin= 3.46D-04
 ErrMax= 3.46D-04  0.00D+00 EMaxC= 1.00D-01 BMatC= 1.68D-05 BMatP= 6.77D-04
 IDIUse=3 WtCom= 9.97D-01 WtEn= 3.46D-03
 Coeff-Com: -0.351D-01 0.468D-01-0.121D-01 0.337D-01 0.834D-01 0.184D+00
 Coeff-Com:  0.699D+00
 Coeff-En:   0.000D+00 0.000D+00 0.000D+00 0.000D+00 0.000D+00 0.000D+00
 Coeff-En:   0.100D+01
 Coeff:     -0.350D-01 0.467D-01-0.121D-01 0.336D-01 0.831D-01 0.183D+00
 Coeff:      0.700D+00
 Gap=     0.244 Goal=   None    Shift=    0.000
 RMSDP=1.41D-04 MaxDP=1.13D-02 DE=-4.80D-04 OVMax= 1.75D-03

 Cycle   8  Pass 1  IDiag  1:
 RMSU=  6.18D-05    CP:  6.30D-01  1.98D+00  1.98D+00  7.01D-01  7.90D-01
                    CP:  6.99D-01  9.07D-01
 E= -3010.53292869865     Delta-E=       -0.000019781583 Rises=F Damp=F
 DIIS: error= 1.04D-04 at cycle   8 NSaved=   8.
 NSaved= 8 IEnMin= 8 EnMin= -3010.53292869865     IErMin= 8 ErrMin= 1.04D-04
 ErrMax= 1.04D-04  0.00D+00 EMaxC= 1.00D-01 BMatC= 2.31D-06 BMatP= 1.68D-05
 IDIUse=3 WtCom= 9.99D-01 WtEn= 1.04D-03
 Coeff-Com:  0.498D-02-0.689D-02-0.346D-02-0.142D-01-0.304D-01-0.324D-01
 Coeff-Com:  0.168D+00 0.914D+00
 Coeff-En:   0.000D+00 0.000D+00 0.000D+00 0.000D+00 0.000D+00 0.000D+00
 Coeff-En:   0.000D+00 0.100D+01
 Coeff:      0.498D-02-0.688D-02-0.346D-02-0.142D-01-0.304D-01-0.323D-01
 Coeff:      0.168D+00 0.914D+00
 Gap=     0.244 Goal=   None    Shift=    0.000
 RMSDP=6.43D-05 MaxDP=3.42D-03 DE=-1.98D-05 OVMax= 1.63D-03

 Cycle   9  Pass 1  IDiag  1:
 RMSU=  2.57D-05    CP:  6.30D-01  1.97D+00  1.98D+00  7.04D-01  8.04D-01
                    CP:  7.03D-01  1.06D+00  1.23D+00
 E= -3010.53293385534     Delta-E=       -0.000005156696 Rises=F Damp=F
 DIIS: error= 2.67D-05 at cycle   9 NSaved=   9.
 NSaved= 9 IEnMin= 9 EnMin= -3010.53293385534     IErMin= 9 ErrMin= 2.67D-05
 ErrMax= 2.67D-05  0.00D+00 EMaxC= 1.00D-01 BMatC= 2.67D-07 BMatP= 2.31D-06
 IDIUse=1 WtCom= 1.00D+00 WtEn= 0.00D+00
 Coeff-Com:  0.685D-02-0.920D-02 0.816D-03-0.926D-02-0.190D-01-0.318D-01
 Coeff-Com: -0.639D-01 0.246D+00 0.880D+00
 Coeff:      0.685D-02-0.920D-02 0.816D-03-0.926D-02-0.190D-01-0.318D-01
 Coeff:     -0.639D-01 0.246D+00 0.880D+00
 Gap=     0.244 Goal=   None    Shift=    0.000
 RMSDP=4.55D-05 MaxDP=5.49D-03 DE=-5.16D-06 OVMax= 9.68D-04

 Cycle  10  Pass 1  IDiag  1:
 RMSU=  9.28D-06    CP:  6.30D-01  1.97D+00  1.98D+00  7.02D-01  8.13D-01
                    CP:  6.93D-01  1.10D+00  1.53D+00  1.08D+00
 E= -3010.53293498103     Delta-E=       -0.000001125689 Rises=F Damp=F
 DIIS: error= 1.60D-05 at cycle  10 NSaved=  10.
 NSaved=10 IEnMin=10 EnMin= -3010.53293498103     IErMin=10 ErrMin= 1.60D-05
 ErrMax= 1.60D-05  0.00D+00 EMaxC= 1.00D-01 BMatC= 7.71D-08 BMatP= 2.67D-07
 IDIUse=1 WtCom= 1.00D+00 WtEn= 0.00D+00
 Coeff-Com:  0.525D-03-0.674D-03 0.508D-03-0.216D-04 0.238D-02 0.390D-02
 Coeff-Com: -0.422D-01-0.101D+00 0.206D+00 0.931D+00
 Coeff:      0.525D-03-0.674D-03 0.508D-03-0.216D-04 0.238D-02 0.390D-02
 Coeff:     -0.422D-01-0.101D+00 0.206D+00 0.931D+00
 Gap=     0.244 Goal=   None    Shift=    0.000
 RMSDP=1.56D-05 MaxDP=1.52D-03 DE=-1.13D-06 OVMax= 5.32D-04

 Cycle  11  Pass 1  IDiag  1:
 RMSU=  8.21D-06    CP:  6.30D-01  1.97D+00  1.98D+00  7.02D-01  8.15D-01
                    CP:  6.92D-01  1.09D+00  1.67D+00  1.21D+00  1.41D+00
 E= -3010.53293527532     Delta-E=       -0.000000294289 Rises=F Damp=F
 DIIS: error= 8.09D-06 at cycle  11 NSaved=  11.
 NSaved=11 IEnMin=11 EnMin= -3010.53293527532     IErMin=11 ErrMin= 8.09D-06
 ErrMax= 8.09D-06  0.00D+00 EMaxC= 1.00D-01 BMatC= 9.28D-09 BMatP= 7.71D-08
 IDIUse=1 WtCom= 1.00D+00 WtEn= 0.00D+00
 Coeff-Com: -0.438D-03 0.586D-03 0.268D-04 0.999D-03 0.212D-02 0.456D-02
 Coeff-Com:  0.172D-01-0.202D-01-0.193D+00-0.184D+00 0.137D+01
 Coeff:     -0.438D-03 0.586D-03 0.268D-04 0.999D-03 0.212D-02 0.456D-02
 Coeff:      0.172D-01-0.202D-01-0.193D+00-0.184D+00 0.137D+01
 Gap=     0.244 Goal=   None    Shift=    0.000
 RMSDP=1.60D-05 MaxDP=1.51D-03 DE=-2.94D-07 OVMax= 3.98D-04

 Cycle  12  Pass 1  IDiag  1:
 RMSU=  1.80D-06    CP:  6.30D-01  1.97D+00  1.98D+00  7.01D-01  8.16D-01
                    CP:  6.86D-01  1.08D+00  1.77D+00  1.24D+00  1.87D+00
                    CP:  1.68D+00
 E= -3010.53293536625     Delta-E=       -0.000000090930 Rises=F Damp=F
 DIIS: error= 3.59D-06 at cycle  12 NSaved=  12.
 NSaved=12 IEnMin=12 EnMin= -3010.53293536625     IErMin=12 ErrMin= 3.59D-06
 ErrMax= 3.59D-06  0.00D+00 EMaxC= 1.00D-01 BMatC= 2.61D-09 BMatP= 9.28D-09
 IDIUse=1 WtCom= 1.00D+00 WtEn= 0.00D+00
 Coeff-Com: -0.227D-03 0.299D-03-0.474D-04 0.400D-03 0.311D-03 0.912D-03
 Coeff-Com:  0.135D-01 0.685D-02-0.110D+00-0.229D+00 0.584D+00 0.733D+00
 Coeff:     -0.227D-03 0.299D-03-0.474D-04 0.400D-03 0.311D-03 0.912D-03
 Coeff:      0.135D-01 0.685D-02-0.110D+00-0.229D+00 0.584D+00 0.733D+00
 Gap=     0.244 Goal=   None    Shift=    0.000
 RMSDP=2.29D-06 MaxDP=1.72D-04 DE=-9.09D-08 OVMax= 1.14D-04

 Cycle  13  Pass 1  IDiag  1:
 RMSU=  9.88D-07    CP:  6.30D-01  1.97D+00  1.98D+00  7.01D-01  8.16D-01
                    CP:  6.85D-01  1.08D+00  1.78D+00  1.26D+00  1.95D+00
                    CP:  1.84D+00  1.18D+00
 E= -3010.53293537665     Delta-E=       -0.000000010394 Rises=F Damp=F
 DIIS: error= 1.87D-06 at cycle  13 NSaved=  13.
 NSaved=13 IEnMin=13 EnMin= -3010.53293537665     IErMin=13 ErrMin= 1.87D-06
 ErrMax= 1.87D-06  0.00D+00 EMaxC= 1.00D-01 BMatC= 4.55D-10 BMatP= 2.61D-09
 IDIUse=1 WtCom= 1.00D+00 WtEn= 0.00D+00
 Coeff-Com:  0.132D-04-0.177D-04-0.247D-04-0.143D-03-0.512D-03-0.115D-02
 Coeff-Com: -0.281D-02 0.416D-02 0.387D-01 0.165D-01-0.262D+00 0.143D+00
 Coeff-Com:  0.107D+01
 Coeff:      0.132D-04-0.177D-04-0.247D-04-0.143D-03-0.512D-03-0.115D-02
 Coeff:     -0.281D-02 0.416D-02 0.387D-01 0.165D-01-0.262D+00 0.143D+00
 Coeff:      0.107D+01
 Gap=     0.244 Goal=   None    Shift=    0.000
 RMSDP=9.61D-07 MaxDP=6.13D-05 DE=-1.04D-08 OVMax= 5.19D-05

 Cycle  14  Pass 1  IDiag  1:
 RMSU=  3.42D-07    CP:  6.30D-01  1.97D+00  1.98D+00  7.01D-01  8.16D-01
                    CP:  6.85D-01  1.08D+00  1.77D+00  1.25D+00  1.97D+00
                    CP:  1.86D+00  1.42D+00  1.53D+00
 E= -3010.53293537880     Delta-E=       -0.000000002151 Rises=F Damp=F
 DIIS: error= 6.57D-07 at cycle  14 NSaved=  14.
 NSaved=14 IEnMin=14 EnMin= -3010.53293537880     IErMin=14 ErrMin= 6.57D-07
 ErrMax= 6.57D-07  0.00D+00 EMaxC= 1.00D-01 BMatC= 7.95D-11 BMatP= 4.55D-10
 IDIUse=1 WtCom= 1.00D+00 WtEn= 0.00D+00
 Coeff-Com:  0.142D-04-0.185D-04-0.893D-05-0.868D-04-0.175D-03-0.456D-03
 Coeff-Com: -0.268D-02 0.203D-03 0.289D-01 0.366D-01-0.181D+00-0.476D-01
 Coeff-Com:  0.395D+00 0.771D+00
 Coeff:      0.142D-04-0.185D-04-0.893D-05-0.868D-04-0.175D-03-0.456D-03
 Coeff:     -0.268D-02 0.203D-03 0.289D-01 0.366D-01-0.181D+00-0.476D-01
 Coeff:      0.395D+00 0.771D+00
 Gap=     0.244 Goal=   None    Shift=    0.000
 RMSDP=4.02D-07 MaxDP=3.91D-05 DE=-2.15D-09 OVMax= 1.58D-05

 Cycle  15  Pass 1  IDiag  1:
 RMSU=  1.51D-07    CP:  6.30D-01  1.97D+00  1.98D+00  7.01D-01  8.16D-01
                    CP:  6.85D-01  1.08D+00  1.77D+00  1.25D+00  1.98D+00
                    CP:  1.87D+00  1.48D+00  1.71D+00  1.24D+00
 E= -3010.53293537914     Delta-E=       -0.000000000339 Rises=F Damp=F
 DIIS: error= 3.42D-07 at cycle  15 NSaved=  15.
 NSaved=15 IEnMin=15 EnMin= -3010.53293537914     IErMin=15 ErrMin= 3.42D-07
 ErrMax= 3.42D-07  0.00D+00 EMaxC= 1.00D-01 BMatC= 1.41D-11 BMatP= 7.95D-11
 IDIUse=1 WtCom= 1.00D+00 WtEn= 0.00D+00
 Coeff-Com:  0.607D-05-0.805D-05 0.366D-05 0.537D-05 0.773D-04 0.138D-03
 Coeff-Com: -0.221D-04-0.743D-03-0.982D-03 0.624D-02 0.874D-02-0.459D-01
 Coeff-Com: -0.134D+00 0.228D+00 0.939D+00
 Coeff:      0.607D-05-0.805D-05 0.366D-05 0.537D-05 0.773D-04 0.138D-03
 Coeff:     -0.221D-04-0.743D-03-0.982D-03 0.624D-02 0.874D-02-0.459D-01
 Coeff:     -0.134D+00 0.228D+00 0.939D+00
 Gap=     0.244 Goal=   None    Shift=    0.000
 RMSDP=1.88D-07 MaxDP=1.12D-05 DE=-3.39D-10 OVMax= 7.29D-06

 Cycle  16  Pass 1  IDiag  1:
 RMSU=  6.76D-08    CP:  6.30D-01  1.97D+00  1.98D+00  7.01D-01  8.16D-01
                    CP:  6.85D-01  1.08D+00  1.77D+00  1.25D+00  1.98D+00
                    CP:  1.87D+00  1.51D+00  1.77D+00  1.42D+00  1.47D+00
 E= -3010.53293537917     Delta-E=       -0.000000000035 Rises=F Damp=F
 DIIS: error= 8.85D-08 at cycle  16 NSaved=  16.
 NSaved=16 IEnMin=16 EnMin= -3010.53293537917     IErMin=16 ErrMin= 8.85D-08
 ErrMax= 8.85D-08  0.00D+00 EMaxC= 1.00D-01 BMatC= 1.13D-12 BMatP= 1.41D-11
 IDIUse=1 WtCom= 1.00D+00 WtEn= 0.00D+00
 Coeff-Com: -0.557D-06 0.718D-06 0.152D-05 0.101D-04 0.308D-04 0.595D-04
 Coeff-Com:  0.233D-03-0.197D-03-0.306D-02-0.188D-02 0.185D-01-0.272D-02
 Coeff-Com: -0.528D-01-0.618D-01 0.107D+00 0.996D+00
 Coeff:     -0.557D-06 0.718D-06 0.152D-05 0.101D-04 0.308D-04 0.595D-04
 Coeff:      0.233D-03-0.197D-03-0.306D-02-0.188D-02 0.185D-01-0.272D-02
 Coeff:     -0.528D-01-0.618D-01 0.107D+00 0.996D+00
 Gap=     0.244 Goal=   None    Shift=    0.000
 RMSDP=6.52D-08 MaxDP=5.64D-06 DE=-3.46D-11 OVMax= 1.90D-06

 Cycle  17  Pass 1  IDiag  1:
 RMSU=  2.27D-08    CP:  6.30D-01  1.97D+00  1.98D+00  7.01D-01  8.16D-01
                    CP:  6.85D-01  1.08D+00  1.77D+00  1.25D+00  1.98D+00
                    CP:  1.87D+00  1.51D+00  1.78D+00  1.45D+00  1.75D+00
                    CP:  1.23D+00
 E= -3010.53293537920     Delta-E=       -0.000000000032 Rises=F Damp=F
 DIIS: error= 3.22D-08 at cycle  17 NSaved=  17.
 NSaved=17 IEnMin=17 EnMin= -3010.53293537920     IErMin=17 ErrMin= 3.22D-08
 ErrMax= 3.22D-08  0.00D+00 EMaxC= 1.00D-01 BMatC= 2.11D-13 BMatP= 1.13D-12
 IDIUse=1 WtCom= 1.00D+00 WtEn= 0.00D+00
 Coeff-Com: -0.188D-05 0.251D-05-0.339D-06 0.246D-05-0.292D-06-0.344D-05
 Coeff-Com:  0.431D-04 0.873D-04-0.498D-03-0.951D-03 0.266D-02 0.461D-02
 Coeff-Com:  0.784D-02-0.461D-01-0.976D-01 0.206D+00 0.924D+00
 Coeff:     -0.188D-05 0.251D-05-0.339D-06 0.246D-05-0.292D-06-0.344D-05
 Coeff:      0.431D-04 0.873D-04-0.498D-03-0.951D-03 0.266D-02 0.461D-02
 Coeff:      0.784D-02-0.461D-01-0.976D-01 0.206D+00 0.924D+00
 Gap=     0.244 Goal=   None    Shift=    0.000
 RMSDP=5.67D-08 MaxDP=5.43D-06 DE=-3.18D-11 OVMax= 6.55D-07

 Cycle  18  Pass 1  IDiag  1:
 RMSU=  8.17D-09    CP:  6.30D-01  1.97D+00  1.98D+00  7.01D-01  8.16D-01
                    CP:  6.85D-01  1.08D+00  1.77D+00  1.25D+00  1.98D+00
                    CP:  1.87D+00  1.51D+00  1.77D+00  1.44D+00  1.83D+00
                    CP:  1.45D+00  1.13D+00
 E= -3010.53293537918     Delta-E=        0.000000000023 Rises=F Damp=F
 DIIS: error= 1.79D-08 at cycle  18 NSaved=  18.
 NSaved=18 IEnMin=17 EnMin= -3010.53293537920     IErMin=18 ErrMin= 1.79D-08
 ErrMax= 1.79D-08  0.00D+00 EMaxC= 1.00D-01 BMatC= 4.71D-14 BMatP= 2.11D-13
 IDIUse=1 WtCom= 1.00D+00 WtEn= 0.00D+00
 Coeff-Com: -0.118D-06 0.158D-06-0.302D-06-0.144D-05-0.719D-05-0.158D-04
 Coeff-Com: -0.306D-04 0.899D-04 0.323D-03-0.141D-03-0.240D-02 0.219D-02
 Coeff-Com:  0.137D-01-0.751D-02-0.546D-01-0.940D-01 0.345D+00 0.798D+00
 Coeff:     -0.118D-06 0.158D-06-0.302D-06-0.144D-05-0.719D-05-0.158D-04
 Coeff:     -0.306D-04 0.899D-04 0.323D-03-0.141D-03-0.240D-02 0.219D-02
 Coeff:      0.137D-01-0.751D-02-0.546D-01-0.940D-01 0.345D+00 0.798D+00
 Gap=     0.244 Goal=   None    Shift=    0.000
 RMSDP=3.03D-08 MaxDP=3.10D-06 DE= 2.32D-11 OVMax= 2.69D-07

 Cycle  19  Pass 1  IDiag  1:
 RMSU=  2.79D-09    CP:  6.30D-01  1.97D+00  1.98D+00  7.01D-01  8.16D-01
                    CP:  6.85D-01  1.08D+00  1.77D+00  1.25D+00  1.98D+00
                    CP:  1.87D+00  1.51D+00  1.77D+00  1.43D+00  1.87D+00
                    CP:  1.50D+00  1.30D+00  1.18D+00
 E= -3010.53293537917     Delta-E=        0.000000000008 Rises=F Damp=F
 DIIS: error= 1.03D-08 at cycle  19 NSaved=  19.
 NSaved=19 IEnMin=17 EnMin= -3010.53293537920     IErMin=19 ErrMin= 1.03D-08
 ErrMax= 1.03D-08  0.00D+00 EMaxC= 1.00D-01 BMatC= 5.24D-15 BMatP= 4.71D-14
 IDIUse=1 WtCom= 1.00D+00 WtEn= 0.00D+00
 Coeff-Com:  0.102D-06-0.136D-06 0.156D-07-0.125D-06 0.442D-06 0.687D-06
 Coeff-Com: -0.626D-05-0.117D-04 0.716D-04 0.156D-03-0.302D-03-0.678D-03
 Coeff-Com: -0.760D-03 0.547D-02 0.124D-01-0.326D-01-0.130D+00 0.183D-01
 Coeff-Com:  0.113D+01
 Coeff:      0.102D-06-0.136D-06 0.156D-07-0.125D-06 0.442D-06 0.687D-06
 Coeff:     -0.626D-05-0.117D-04 0.716D-04 0.156D-03-0.302D-03-0.678D-03
 Coeff:     -0.760D-03 0.547D-02 0.124D-01-0.326D-01-0.130D+00 0.183D-01
 Coeff:      0.113D+01
 Gap=     0.244 Goal=   None    Shift=    0.000
 RMSDP=6.00D-09 MaxDP=5.28D-07 DE= 7.73D-12 OVMax= 2.09D-07

 SCF Done:  E(RwB97XD) =  -3010.53293538     A.U. after   19 cycles
            NFock= 19  Conv=0.60D-08     -V/T= 2.0016
 KE= 3.005850347839D+03 PE=-8.699096753872D+03 EE= 1.910212641274D+03
 Leave Link  502 at Thu May  2 14:17:48 2024, MaxMem=   134217728 cpu:            1150.2 elap:            1151.8
 (Enter /software/gaussian/g16-c01/sse4/g16/l601.exe)
 Copying SCF densities to generalized density rwf, IOpCl= 0 IROHF=0.

 **********************************************************************

            Population analysis using the SCF Density.

 **********************************************************************

 Alpha  occ. eigenvalues -- -483.30718 -62.85737 -56.65434 -56.64861 -56.64850
 Alpha  occ. eigenvalues --  -19.45609 -19.45600 -14.85047 -10.58801 -10.57593
 Alpha  occ. eigenvalues --  -10.56945 -10.56617 -10.52936 -10.52447  -9.01541
 Alpha  occ. eigenvalues --   -6.84228  -6.82349  -6.82316  -2.94130  -2.93637
 Alpha  occ. eigenvalues --   -2.93609  -2.92106  -2.92105  -1.49300  -1.32253
 Alpha  occ. eigenvalues --   -1.22022  -1.12465  -1.12012  -1.04342  -0.99850
 Alpha  occ. eigenvalues --   -0.94962  -0.90168  -0.84468  -0.80400  -0.79705
 Alpha  occ. eigenvalues --   -0.79533  -0.77528  -0.75625  -0.75168  -0.71577
 Alpha  occ. eigenvalues --   -0.68195  -0.67191  -0.62964  -0.59394  -0.56790
 Alpha  occ. eigenvalues --   -0.56156  -0.55695  -0.55296  -0.54085
 Alpha virt. eigenvalues --   -0.29676  -0.19887  -0.15196  -0.12618  -0.08375
 Alpha virt. eigenvalues --   -0.05910  -0.05350  -0.04335  -0.04024  -0.02953
 Alpha virt. eigenvalues --   -0.02045  -0.01106  -0.00966  -0.00198   0.00962
 Alpha virt. eigenvalues --    0.01388   0.01933   0.02227   0.03014   0.03826
 Alpha virt. eigenvalues --    0.04695   0.05787   0.06045   0.06354   0.07110
 Alpha virt. eigenvalues --    0.07920   0.08028   0.08501   0.09709   0.09940
 Alpha virt. eigenvalues --    0.10394   0.11045   0.12067   0.12385   0.12979
 Alpha virt. eigenvalues --    0.13451   0.13710   0.14171   0.15130   0.16018
 Alpha virt. eigenvalues --    0.16951   0.17610   0.17922   0.18970   0.19442
 Alpha virt. eigenvalues --    0.20517   0.21283   0.21971   0.23087   0.24691
 Alpha virt. eigenvalues --    0.25264   0.27210   0.28552   0.30010   0.32545
 Alpha virt. eigenvalues --    0.33063   0.33891   0.34201   0.35041   0.37176
 Alpha virt. eigenvalues --    0.37741   0.38173   0.39949   0.41084   0.42308
 Alpha virt. eigenvalues --    0.43684   0.44580   0.45847   0.47308   0.47818
 Alpha virt. eigenvalues --    0.49070   0.50962   0.51447   0.52746   0.54108
 Alpha virt. eigenvalues --    0.55555   0.56419   0.58461   0.58668   0.60557
 Alpha virt. eigenvalues --    0.61555   0.62750   0.65028   0.68064   0.68547
 Alpha virt. eigenvalues --    0.71661   0.72042   0.73093   0.74832   0.75156
 Alpha virt. eigenvalues --    0.75316   0.77772   0.80186   0.83783   0.86057
 Alpha virt. eigenvalues --    0.87607   0.88227   0.92033   0.94647   0.99336
 Alpha virt. eigenvalues --    1.00987   1.03133   1.04367   1.06120   1.07447
 Alpha virt. eigenvalues --    1.09426   1.13226   1.13949   1.14690   1.18520
 Alpha virt. eigenvalues --    1.21628   1.23515   1.28600   1.33939   1.36763
 Alpha virt. eigenvalues --    1.37384   1.39498   1.43674   1.55453   1.57177
 Alpha virt. eigenvalues --    1.57895   1.60433   1.61767   1.64464   1.66278
 Alpha virt. eigenvalues --    1.68671   1.71955   1.74567   1.75758   1.79969
 Alpha virt. eigenvalues --    1.84325   1.85880   1.87831   1.95476   1.96767
 Alpha virt. eigenvalues --    1.98452   2.03073   2.03500   2.07793   2.09463
 Alpha virt. eigenvalues --    2.13379   2.15146   2.22804   2.24247   2.27787
 Alpha virt. eigenvalues --    2.33996   2.40424   2.42104   2.44882   2.53741
 Alpha virt. eigenvalues --    2.58555   2.63679   2.66442   2.69235   2.72350
 Alpha virt. eigenvalues --    2.74261   2.77006   2.77989   2.81247   2.82598
 Alpha virt. eigenvalues --    2.93741   2.98708   3.02017   3.06365   3.09500
 Alpha virt. eigenvalues --    3.15323   3.16832   3.18022   3.23117   3.27186
 Alpha virt. eigenvalues --    3.28342   3.38505   3.47041   3.50688   3.55331
 Alpha virt. eigenvalues --    3.58147   3.69519   3.74844   3.84154   3.87874
 Alpha virt. eigenvalues --    4.10538   4.11396   4.19948   4.24080   4.43801
 Alpha virt. eigenvalues --    4.45856   4.55176   4.60434   4.94204   4.97033
 Alpha virt. eigenvalues --    5.05902   5.10371   5.62633   6.15795   6.68555
 Alpha virt. eigenvalues --    7.49416   7.51737   7.61835  23.22656  23.61798
 Alpha virt. eigenvalues --   23.72421  23.78491  23.96134  24.02654  35.32115
 Alpha virt. eigenvalues --   47.94619  49.85857  49.94520 289.82256 289.84595
 Alpha virt. eigenvalues --  289.972141020.95795
          Condensed to atoms (all electrons):
               1          2          3          4          5          6
     1  C    7.877070  -2.555645   0.827528  -0.066367   0.297699   0.058073
     2  C   -2.555645  17.319206  -4.096748   0.425288  -0.013717   0.188401
     3  C    0.827528  -4.096748  18.992387  -1.357713   0.024127   0.118814
     4  C   -0.066367   0.425288  -1.357713   6.427966   0.020825  -0.015198
     5  H    0.297699  -0.013717   0.024127   0.020825   0.333642  -0.001668
     6  H    0.058073   0.188401   0.118814  -0.015198  -0.001668   0.311026
     7  H    0.027786  -0.027710   0.022334   0.305379  -0.002843  -0.000004
     8  N   -0.102557  -0.006936  -1.732650   0.021420  -0.000437  -0.029871
     9  O   -0.017748   0.264083  -0.078906  -0.017271  -0.000034  -0.002492
    10  O    0.276620  -0.195442  -0.243543  -0.022435   0.000010   0.021682
    11  C    0.773872  -0.612699   2.437493  -0.309738  -0.025168   0.008761
    12  H   -0.011220   0.017222   0.009449   0.016543   0.000016  -0.000017
    13  C   -1.278816  -4.694079  -8.655887   0.898634   0.024544  -0.008378
    14  H   -0.003766   0.010435   0.018980   0.003819  -0.000031   0.000042
    15  Br   0.006037  -0.204191  -0.215860   0.002059  -0.000033  -0.000535
               7          8          9         10         11         12
     1  C    0.027786  -0.102557  -0.017748   0.276620   0.773872  -0.011220
     2  C   -0.027710  -0.006936   0.264083  -0.195442  -0.612699   0.017222
     3  C    0.022334  -1.732650  -0.078906  -0.243543   2.437493   0.009449
     4  C    0.305379   0.021420  -0.017271  -0.022435  -0.309738   0.016543
     5  H   -0.002843  -0.000437  -0.000034   0.000010  -0.025168   0.000016
     6  H   -0.000004  -0.029871  -0.002492   0.021682   0.008761  -0.000017
     7  H    0.342435  -0.000002   0.000004   0.000001   0.031589  -0.002379
     8  N   -0.000002   7.658180   0.046558   0.190505  -0.332843   0.000537
     9  O    0.000004   0.046558   7.891411   0.005653   0.273524   0.000103
    10  O    0.000001   0.190505   0.005653   7.815602   0.004249  -0.000023
    11  C    0.031589  -0.332843   0.273524   0.004249   8.022348   0.312351
    12  H   -0.002379   0.000537   0.000103  -0.000023   0.312351   0.324632
    13  C   -0.022439   1.393488  -0.412200   0.070715  -4.455517  -0.015785
    14  H   -0.000032  -0.029617   0.012538  -0.001742   0.020336  -0.004741
    15  Br  -0.000411   0.164540  -0.057068   0.004016   0.058010  -0.001104
              13         14         15
     1  C   -1.278816  -0.003766   0.006037
     2  C   -4.694079   0.010435  -0.204191
     3  C   -8.655887   0.018980  -0.215860
     4  C    0.898634   0.003819   0.002059
     5  H    0.024544  -0.000031  -0.000033
     6  H   -0.008378   0.000042  -0.000535
     7  H   -0.022439  -0.000032  -0.000411
     8  N    1.393488  -0.029617   0.164540
     9  O   -0.412200   0.012538  -0.057068
    10  O    0.070715  -0.001742   0.004016
    11  C   -4.455517   0.020336   0.058010
    12  H   -0.015785  -0.004741  -0.001104
    13  C   22.838608   0.279481   0.400419
    14  H    0.279481   0.322014  -0.040066
    15  Br   0.400419  -0.040066  34.698940
 Mulliken charges:
               1
     1  C   -0.108566
     2  C    0.182532
     3  C   -0.069806
     4  C   -0.333211
     5  H    0.343068
     6  H    0.351366
     7  H    0.326292
     8  N   -0.240314
     9  O    0.091846
    10  O    0.074133
    11  C   -0.206568
    12  H    0.354417
    13  C   -0.362788
    14  H    0.412352
    15  Br   0.185248
 Sum of Mulliken charges =   1.00000
 Mulliken charges with hydrogens summed into heavy atoms:
               1
     1  C    0.234502
     2  C    0.533897
     3  C   -0.069806
     4  C   -0.006919
     8  N   -0.240314
     9  O    0.091846
    10  O    0.074133
    11  C    0.147849
    13  C    0.049564
    15  Br   0.185248
 Electronic spatial extent (au):  <R**2>=           3945.3497
 Charge=              1.0000 electrons
 Dipole moment (field-independent basis, Debye):
    X=              3.0379    Y=             -0.9189    Z=             -0.7638  Tot=              3.2645
 Quadrupole moment (field-independent basis, Debye-Ang):
   XX=            -66.8540   YY=            -51.1239   ZZ=            -62.1362
   XY=             -3.0334   XZ=             -2.6327   YZ=              2.4890
 Traceless Quadrupole moment (field-independent basis, Debye-Ang):
   XX=             -6.8160   YY=              8.9141   ZZ=             -2.0981
   XY=             -3.0334   XZ=             -2.6327   YZ=              2.4890
 Octapole moment (field-independent basis, Debye-Ang**2):
  XXX=           -508.0720  YYY=             91.9549  ZZZ=             82.7788  XYY=           -135.9117
  XXY=             24.2063  XXZ=             25.1859  XZZ=           -132.1437  YZZ=             17.0106
  YYZ=             25.5655  XYZ=              8.1448
 Hexadecapole moment (field-independent basis, Debye-Ang**3):
 XXXX=          -3424.4481 YYYY=           -701.8072 ZZZZ=           -394.9009 XXXY=            178.7908
 XXXZ=            182.6238 YYYX=            184.6416 YYYZ=           -171.6804 ZZZX=            166.8782
 ZZZY=           -144.0478 XXYY=           -621.5192 XXZZ=           -524.7664 YYZZ=           -171.1359
 XXYZ=            -40.5706 YYXZ=             48.9465 ZZXY=             28.3818
 N-N= 7.725008293798D+02 E-N=-8.699096753371D+03  KE= 3.005850347839D+03
 No NMR shielding tensors so no spin-rotation constants.
 Leave Link  601 at Thu May  2 14:17:56 2024, MaxMem=   134217728 cpu:               7.3 elap:               7.4
 (Enter /software/gaussian/g16-c01/sse4/g16/l9999.exe)
 Unable to Open any file for archive entry.
 1\1\GINC-BHX0006\SP\RwB97XD\6-311+G(d)\C6H5Br1N1O2(1+)\BWEIGHT\02-May-
 2024\0\\#P wB97XD/6-311+G* NoSymm #P Field=X-9\\TitleMe\\1,1\C,0,0.519
 3,1.233,-0.0319\C,0,1.9445,1.2692,-0.0367\C,0,2.6204,0.0928,-0.025\C,0
 ,-0.196,0.0301,0.001\H,0,-0.0207,2.1742,-0.0434\H,0,2.4828,2.2089,-0.0
 361\H,0,-1.2777,0.0399,0.0117\N,0,4.0921,0.0959,0.0366\O,0,4.6393,-1.0
 217,0.1446\O,0,4.6649,1.1984,-0.0233\C,0,0.4943,-1.1671,0.021\H,0,-0.0
 325,-2.1149,0.0545\C,0,1.9629,-1.2165,-0.0211\H,0,2.4436,-1.9631,0.615
 1\Br,0,2.173,-1.9491,-1.9062\\Version=ES64L-G16RevC.01\HF=-3010.532935
 4\RMSD=6.001e-09\Dipole=-3.1340057,0.8666014,0.9487149\Quadrupole=-5.0
 67508,6.6274226,-1.5599146,-2.2552748,-1.9573704,1.8505345\PG=C01 [X(C
 6H5Br1N1O2)]\\@
 The archive entry for this job was punched.


 Change starts when someone sees the next step.
                            -- William Drayton
 Job cpu time:       0 days  0 hours 20 minutes 22.6 seconds.
 Elapsed time:       0 days  0 hours 20 minutes 24.3 seconds.
 File lengths (MBytes):  RWF=     40 Int=      0 D2E=      0 Chk=     32 Scr=      1
 Normal termination of Gaussian 16 at Thu May  2 14:17:57 2024.
