 Entering Gaussian System, Link 0=g16
 Initial command:
 /software/gaussian/g16-c01/sse4/g16/l1.exe "/local_scratch/24665339/Gau-4903.inp" -scrdir="/local_scratch/24665339/"
 Entering Link 1 = /software/gaussian/g16-c01/sse4/g16/l1.exe PID=      4906.
  
 Copyright (c) 1988-2019, Gaussian, Inc.  All Rights Reserved.
  
 This is part of the Gaussian(R) 16 program.  It is based on
 the Gaussian(R) 09 system (copyright 2009, Gaussian, Inc.),
 the Gaussian(R) 03 system (copyright 2003, Gaussian, Inc.),
 the Gaussian(R) 98 system (copyright 1998, Gaussian, Inc.),
 the Gaussian(R) 94 system (copyright 1995, Gaussian, Inc.),
 the Gaussian 92(TM) system (copyright 1992, Gaussian, Inc.),
 the Gaussian 90(TM) system (copyright 1990, Gaussian, Inc.),
 the Gaussian 88(TM) system (copyright 1988, Gaussian, Inc.),
 the Gaussian 86(TM) system (copyright 1986, Carnegie Mellon
 University), and the Gaussian 82(TM) system (copyright 1983,
 Carnegie Mellon University). Gaussian is a federally registered
 trademark of Gaussian, Inc.
  
 This software contains proprietary and confidential information,
 including trade secrets, belonging to Gaussian, Inc.
  
 This software is provided under written license and may be
 used, copied, transmitted, or stored only in accord with that
 written license.
  
 The following legend is applicable only to US Government
 contracts under FAR:
  
                    RESTRICTED RIGHTS LEGEND
  
 Use, reproduction and disclosure by the US Government is
 subject to restrictions as set forth in subparagraphs (a)
 and (c) of the Commercial Computer Software - Restricted
 Rights clause in FAR 52.227-19.
  
 Gaussian, Inc.
 340 Quinnipiac St., Bldg. 40, Wallingford CT 06492
  
  
 ---------------------------------------------------------------
 Warning -- This program may not be used in any manner that
 competes with the business of Gaussian, Inc. or will provide
 assistance to any competitor of Gaussian, Inc.  The licensee
 of this program is prohibited from giving any competitor of
 Gaussian, Inc. access to this program.  By using this program,
 the user acknowledges that Gaussian, Inc. is engaged in the
 business of creating and licensing software in the field of
 computational chemistry and represents and warrants to the
 licensee that it is not a competitor of Gaussian, Inc. and that
 it will not use this program in any manner prohibited above.
 ---------------------------------------------------------------
  

 Cite this work as:
 Gaussian 16, Revision C.01,
 M. J. Frisch, G. W. Trucks, H. B. Schlegel, G. E. Scuseria, 
 M. A. Robb, J. R. Cheeseman, G. Scalmani, V. Barone, 
 G. A. Petersson, H. Nakatsuji, X. Li, M. Caricato, A. V. Marenich, 
 J. Bloino, B. G. Janesko, R. Gomperts, B. Mennucci, H. P. Hratchian, 
 J. V. Ortiz, A. F. Izmaylov, J. L. Sonnenberg, D. Williams-Young, 
 F. Ding, F. Lipparini, F. Egidi, J. Goings, B. Peng, A. Petrone, 
 T. Henderson, D. Ranasinghe, V. G. Zakrzewski, J. Gao, N. Rega, 
 G. Zheng, W. Liang, M. Hada, M. Ehara, K. Toyota, R. Fukuda, 
 J. Hasegawa, M. Ishida, T. Nakajima, Y. Honda, O. Kitao, H. Nakai, 
 T. Vreven, K. Throssell, J. A. Montgomery, Jr., J. E. Peralta, 
 F. Ogliaro, M. J. Bearpark, J. J. Heyd, E. N. Brothers, K. N. Kudin, 
 V. N. Staroverov, T. A. Keith, R. Kobayashi, J. Normand, 
 K. Raghavachari, A. P. Rendell, J. C. Burant, S. S. Iyengar, 
 J. Tomasi, M. Cossi, J. M. Millam, M. Klene, C. Adamo, R. Cammi, 
 J. W. Ochterski, R. L. Martin, K. Morokuma, O. Farkas, 
 J. B. Foresman, and D. J. Fox, Gaussian, Inc., Wallingford CT, 2019.
 
 ******************************************
 Gaussian 16:  ES64L-G16RevC.01  3-Jul-2019
                 2-May-2024 
 ******************************************
 %chk=geometry.chk
 %mem=1GB
 %nprocshared=12
 Will use up to   12 processors via shared memory.
 ----------------------------------------
 #P wB97XD/6-311+G* NoSymm #P Field=Y+155
 ----------------------------------------
 1/38=1,172=1/1;
 2/12=2,15=1,17=6,18=5,40=1/2;
 3/5=4,6=6,7=11,11=2,14=2,15=155,25=1,30=1,74=-58/1,2,3;
 4//1;
 5/5=2,38=5/2;
 6/7=2,8=2,9=2,10=2,28=1/1;
 99/5=1,9=1/99;
 Leave Link    1 at Thu May  2 13:57:42 2024, MaxMem=   134217728 cpu:               1.4 elap:               1.5
 (Enter /software/gaussian/g16-c01/sse4/g16/l101.exe)
 -------
 TitleMe
 -------
 Symbolic Z-matrix:
 Charge =  1 Multiplicity = 1
 C                     0.5193    1.233    -0.0319 
 C                     1.9445    1.2692   -0.0367 
 C                     2.6204    0.0928   -0.025 
 C                    -0.196     0.0301    0.001 
 H                    -0.0207    2.1742   -0.0434 
 H                     2.4828    2.2089   -0.0361 
 H                    -1.2777    0.0399    0.0117 
 N                     4.0921    0.0959    0.0366 
 O                     4.6393   -1.0217    0.1446 
 O                     4.6649    1.1984   -0.0233 
 C                     0.4943   -1.1671    0.021 
 H                    -0.0325   -2.1149    0.0545 
 C                     1.9629   -1.2165   -0.0211 
 H                     2.4436   -1.9631    0.6151 
 Br                    2.173    -1.9491   -1.9062 
 
 ITRead=  0  0  0  0  0  0  0  0  0  0  0  0  0  0  0
 MicOpt= -1 -1 -1 -1 -1 -1 -1 -1 -1 -1 -1 -1 -1 -1 -1
 NAtoms=     15 NQM=       15 NQMF=       0 NMMI=      0 NMMIF=      0
                NMic=       0 NMicF=      0.
                    Isotopes and Nuclear Properties:
 (Nuclear quadrupole moments (NQMom) in fm**2, nuclear magnetic moments (NMagM)
  in nuclear magnetons)

  Atom         1           2           3           4           5           6           7           8           9          10
 IAtWgt=          12          12          12          12           1           1           1          14          16          16
 AtmWgt=  12.0000000  12.0000000  12.0000000  12.0000000   1.0078250   1.0078250   1.0078250  14.0030740  15.9949146  15.9949146
 NucSpn=           0           0           0           0           1           1           1           2           0           0
 AtZEff=  -0.0000000  -0.0000000  -0.0000000  -0.0000000  -0.0000000  -0.0000000  -0.0000000  -0.0000000  -0.0000000  -0.0000000
 NQMom=    0.0000000   0.0000000   0.0000000   0.0000000   0.0000000   0.0000000   0.0000000   2.0440000   0.0000000   0.0000000
 NMagM=    0.0000000   0.0000000   0.0000000   0.0000000   2.7928460   2.7928460   2.7928460   0.4037610   0.0000000   0.0000000
 AtZNuc=   6.0000000   6.0000000   6.0000000   6.0000000   1.0000000   1.0000000   1.0000000   7.0000000   8.0000000   8.0000000

  Atom        11          12          13          14          15
 IAtWgt=          12           1          12           1          79
 AtmWgt=  12.0000000   1.0078250  12.0000000   1.0078250  78.9183361
 NucSpn=           0           1           0           1           3
 AtZEff=  -0.0000000  -0.0000000  -0.0000000  -0.0000000  -0.0000000
 NQMom=    0.0000000   0.0000000   0.0000000   0.0000000  31.3000000
 NMagM=    0.0000000   2.7928460   0.0000000   2.7928460   2.1063990
 AtZNuc=   6.0000000   1.0000000   6.0000000   1.0000000  35.0000000
 Leave Link  101 at Thu May  2 13:57:44 2024, MaxMem=   134217728 cpu:               1.4 elap:               1.5
 (Enter /software/gaussian/g16-c01/sse4/g16/l202.exe)
                          Input orientation:                          
 ---------------------------------------------------------------------
 Center     Atomic      Atomic             Coordinates (Angstroms)
 Number     Number       Type             X           Y           Z
 ---------------------------------------------------------------------
      1          6           0        0.519300    1.233000   -0.031900
      2          6           0        1.944500    1.269200   -0.036700
      3          6           0        2.620400    0.092800   -0.025000
      4          6           0       -0.196000    0.030100    0.001000
      5          1           0       -0.020700    2.174200   -0.043400
      6          1           0        2.482800    2.208900   -0.036100
      7          1           0       -1.277700    0.039900    0.011700
      8          7           0        4.092100    0.095900    0.036600
      9          8           0        4.639300   -1.021700    0.144600
     10          8           0        4.664900    1.198400   -0.023300
     11          6           0        0.494300   -1.167100    0.021000
     12          1           0       -0.032500   -2.114900    0.054500
     13          6           0        1.962900   -1.216500   -0.021100
     14          1           0        2.443600   -1.963100    0.615100
     15         35           0        2.173000   -1.949100   -1.906200
 ---------------------------------------------------------------------
                    Distance matrix (angstroms):
                    1          2          3          4          5
     1  C    0.000000
     2  C    1.425668   0.000000
     3  C    2.390549   1.356796   0.000000
     4  C    1.399895   2.473566   2.817218   0.000000
     5  H    1.085168   2.163581   3.362733   2.151712   0.000000
     6  H    2.192654   1.082960   2.120598   3.453189   2.503751
     7  H    2.157452   3.449071   3.898632   1.081797   2.477564
     8  N    3.750012   2.448304   1.472992   4.288753   4.608780
     9  O    4.699917   3.541615   2.312322   4.950458   5.653735
    10  O    4.145753   2.721354   2.324292   4.999386   4.786171
    11  C    2.400813   2.835836   2.471794   1.382101   3.381369
    12  H    3.394169   3.920329   3.452266   2.151887   4.290233
    13  C    2.843264   2.485817   1.465124   2.493060   3.928360
    14  H    3.786370   3.334922   2.160489   3.364142   4.860416
    15  Br   4.046416   3.728900   2.812194   3.628609   5.028314
                    6          7          8          9         10
     6  H    0.000000
     7  H    4.341452   0.000000
     8  N    2.657047   5.370150   0.000000
     9  O    3.888434   6.012948   1.249048   0.000000
    10  O    2.404752   6.054572   1.243863   2.226587   0.000000
    11  C    3.918516   2.144043   3.813080   4.149391   4.794941
    12  H    5.003018   2.489080   4.679774   4.798846   5.748876
    13  C    3.464662   3.475788   2.501842   2.688591   3.623886
    14  H    4.222698   4.268978   2.700314   2.434893   3.916224
    15  Br   4.569706   4.420610   3.411663   3.338935   4.434144
                   11         12         13         14         15
    11  C    0.000000
    12  H    1.084880   0.000000
    13  C    1.470034   2.189625   0.000000
    14  H    2.187771   2.543302   1.092353   0.000000
    15  Br   2.672762   2.955683   2.033334   2.535818   0.000000
 Symmetry turned off by external request.
 Stoichiometry    C6H5BrNO2(1+)
 Framework group  C1[X(C6H5BrNO2)]
 Deg. of freedom    39
 Full point group                 C1      NOp   1
 Rotational constants (GHZ):           1.1632986           0.9594224           0.5957624
 Leave Link  202 at Thu May  2 13:57:45 2024, MaxMem=   134217728 cpu:               1.2 elap:               1.2
 (Enter /software/gaussian/g16-c01/sse4/g16/l301.exe)
 Standard basis: 6-311+G(d) (5D, 7F)
 Ernie: Thresh=  0.10000D-02 Tol=  0.10000D-05 Strict=F.
 The following finite field(s) will be applied:
 An electric field of              0.0000  0.0155  0.0000
   261 basis functions,   443 primitive gaussians,   273 cartesian basis functions
    49 alpha electrons       49 beta electrons
       nuclear repulsion energy       772.8945969580 Hartrees.
 IExCor= 4639 DFT=T Ex+Corr=wB97XD ExCW=0 ScaHFX=  1.000000
 ScaDFX=  1.000000  1.000000  1.000000  1.000000 ScalE2=  1.000000  1.000000
 IRadAn=      5 IRanWt=     -1 IRanGd=            0 ICorTp=0 IEmpDi=121
 HFx  wShort=  0.000000 wLong=  0.200000 cFull=  0.222036 cShort=  0.000000 cLong=  0.777964
 DFx  wShort=  0.000000 wLong=  0.200000 cFull=  0.000000 cShort=  0.000000 cLong=  1.000000
 NAtoms=   15 NActive=   15 NUniq=   15 SFac= 1.00D+00 NAtFMM=   60 NAOKFM=F Big=F
 Integral buffers will be    131072 words long.
 Raffenetti 2 integral format.
 Two-electron integral symmetry is turned off.
 R6Disp:  Grimme-D2 Dispersion energy=       -0.0080346408 Hartrees.
 Nuclear repulsion after empirical dispersion term =      772.8865623173 Hartrees.
 Leave Link  301 at Thu May  2 13:57:46 2024, MaxMem=   134217728 cpu:               1.1 elap:               1.1
 (Enter /software/gaussian/g16-c01/sse4/g16/l302.exe)
 NPDir=0 NMtPBC=     1 NCelOv=     1 NCel=       1 NClECP=     1 NCelD=      1
         NCelK=      1 NCelE2=     1 NClLst=     1 CellRange=     0.0.
 One-electron integrals computed using PRISM.
 NBasis=   261 RedAO= T EigKep=  2.52D-06  NBF=   261
 NBsUse=   261 1.00D-06 EigRej= -1.00D+00 NBFU=   261
 Precomputing XC quadrature grid using
 IXCGrd= 4 IRadAn=           5 IRanWt=          -1 IRanGd=           0 AccXCQ= 0.00D+00.
 Generated NRdTot=       0 NPtTot=           0 NUsed=           0 NTot=          32
 NSgBfM=   273   273   273   273   273 MxSgAt=    15 MxSgA2=    15.
 Leave Link  302 at Thu May  2 13:58:08 2024, MaxMem=   134217728 cpu:              21.7 elap:              21.7
 (Enter /software/gaussian/g16-c01/sse4/g16/l303.exe)
 DipDrv:  MaxL=1.
 The nuclear repulsion energy is now       771.0020068613 hartrees.
 Leave Link  303 at Thu May  2 13:58:12 2024, MaxMem=   134217728 cpu:               3.2 elap:               3.2
 (Enter /software/gaussian/g16-c01/sse4/g16/l401.exe)
 ExpMin= 3.50D-02 ExpMax= 4.40D+05 ExpMxC= 1.51D+04 IAcc=3 IRadAn=         5 AccDes= 0.00D+00
 Harris functional with IExCor= 4639 and IRadAn=       5 diagonalized for initial guess.
 HarFok:  IExCor= 4639 AccDes= 0.00D+00 IRadAn=         5 IDoV= 1 UseB2=F ITyADJ=14
 ICtDFT=  3500011 ScaDFX=  1.000000  1.000000  1.000000  1.000000
 FoFCou: FMM=F IPFlag=           0 FMFlag=      100000 FMFlg1=           0
         NFxFlg=           0 DoJE=T BraDBF=F KetDBF=T FulRan=T
         wScrn=  0.000000 ICntrl=       500 IOpCl=  0 I1Cent=   200000004 NGrid=           0
         NMat0=    1 NMatS0=      1 NMatT0=    0 NMatD0=    1 NMtDS0=    0 NMtDT0=    0
 Symmetry not used in FoFCou.
 Harris En= -2970.64575119724    
 JPrj=0 DoOrth=F DoCkMO=F.
 Leave Link  401 at Thu May  2 13:58:43 2024, MaxMem=   134217728 cpu:              31.1 elap:              31.2
 (Enter /software/gaussian/g16-c01/sse4/g16/l502.exe)
 Two-electron integral symmetry not used.
 Closed shell SCF:
 Using DIIS extrapolation, IDIIS=  1040.
 NGot=   134217728 LenX=   134063053 LenY=   133988083
 Requested convergence on RMS density matrix=1.00D-08 within 128 cycles.
 Requested convergence on MAX density matrix=1.00D-06.
 Requested convergence on             energy=1.00D-06.
 No special actions if energy rises.
 Fock matrices will be formed incrementally for  20 cycles.

 Cycle   1  Pass 1  IDiag  1:
 FoFJK:  IHMeth= 1 ICntrl=       0 DoSepK=T KAlg= 0 I1Cent=           0 FoldK=F
 IRaf=         1 NMat=       1 IRICut=       1 DoRegI=T DoRafI=F ISym2E= 0 IDoP0=0 IntGTp=1.
 FoFCou: FMM=F IPFlag=           0 FMFlag=      100000 FMFlg1=           0
         NFxFlg=           0 DoJE=T BraDBF=F KetDBF=F FulRan=T
         wScrn=  0.000000 ICntrl=       500 IOpCl=  0 I1Cent=           0 NGrid=           0
         NMat0=    1 NMatS0=      1 NMatT0=    0 NMatD0=    1 NMtDS0=    0 NMtDT0=    0
 Symmetry not used in FoFCou.
 E= -3009.61659163211    
 DIIS: error= 2.91D-01 at cycle   1 NSaved=   1.
 NSaved= 1 IEnMin= 1 EnMin= -3009.61659163211     IErMin= 1 ErrMin= 2.91D-01
 ErrMax= 2.91D-01  0.00D+00 EMaxC= 1.00D-01 BMatC= 1.21D+01 BMatP= 1.21D+01
 IDIUse=3 WtCom= 0.00D+00 WtEn= 1.00D+00
 Coeff-Com:  0.100D+01
 Coeff-En:   0.100D+01
 Coeff:      0.100D+01
 Gap=     0.412 Goal=   None    Shift=    0.000
 GapD=    0.412 DampG=2.000 DampE=0.250 DampFc=0.5000 IDamp=-1.
 Damping current iteration by 5.00D-01
 RMSDP=1.19D-01 MaxDP=1.37D+01              OVMax= 3.39D-01

 Cycle   2  Pass 1  IDiag  1:
 RMSU=  2.22D-02    CP:  6.82D-01
 E= -3010.03715022520     Delta-E=       -0.420558593086 Rises=F Damp=T
 DIIS: error= 1.47D-01 at cycle   2 NSaved=   2.
 NSaved= 2 IEnMin= 2 EnMin= -3010.03715022520     IErMin= 2 ErrMin= 1.47D-01
 ErrMax= 1.47D-01  0.00D+00 EMaxC= 1.00D-01 BMatC= 1.78D+00 BMatP= 1.21D+01
 IDIUse=3 WtCom= 0.00D+00 WtEn= 1.00D+00
 Coeff-Com: -0.384D+00 0.138D+01
 Coeff-En:   0.402D-01 0.960D+00
 Coeff:      0.402D-01 0.960D+00
 Gap=     0.314 Goal=   None    Shift=    0.000
 RMSDP=6.26D-02 MaxDP=6.83D+00 DE=-4.21D-01 OVMax= 2.91D-01

 Cycle   3  Pass 1  IDiag  1:
 RMSU=  1.39D-02    CP:  3.31D-01  1.27D+00
 E= -3010.45083739613     Delta-E=       -0.413687170939 Rises=F Damp=F
 DIIS: error= 3.85D-02 at cycle   3 NSaved=   3.
 NSaved= 3 IEnMin= 3 EnMin= -3010.45083739613     IErMin= 3 ErrMin= 3.85D-02
 ErrMax= 3.85D-02  0.00D+00 EMaxC= 1.00D-01 BMatC= 1.64D-01 BMatP= 1.78D+00
 IDIUse=3 WtCom= 6.15D-01 WtEn= 3.85D-01
 Coeff-Com: -0.441D-01 0.241D+00 0.803D+00
 Coeff-En:   0.000D+00 0.000D+00 0.100D+01
 Coeff:     -0.271D-01 0.148D+00 0.879D+00
 Gap=     0.281 Goal=   None    Shift=    0.000
 RMSDP=2.11D-02 MaxDP=2.70D+00 DE=-4.14D-01 OVMax= 2.61D-01

 Cycle   4  Pass 1  IDiag  1:
 RMSU=  1.24D-02    CP:  3.53D-01  1.99D+00  6.48D-01
 E= -3010.29250144428     Delta-E=        0.158335951858 Rises=F Damp=F
 DIIS: error= 7.53D-02 at cycle   4 NSaved=   4.
 NSaved= 4 IEnMin= 3 EnMin= -3010.45083739613     IErMin= 3 ErrMin= 3.85D-02
 ErrMax= 7.53D-02  0.00D+00 EMaxC= 1.00D-01 BMatC= 3.69D-01 BMatP= 1.64D-01
 IDIUse=2 WtCom= 0.00D+00 WtEn= 1.00D+00
 Coeff-En:   0.000D+00 0.000D+00 0.678D+00 0.322D+00
 Coeff:      0.000D+00 0.000D+00 0.678D+00 0.322D+00
 Gap=     0.260 Goal=   None    Shift=    0.000
 RMSDP=1.03D-02 MaxDP=1.23D+00 DE= 1.58D-01 OVMax= 1.78D-01

 Cycle   5  Pass 1  IDiag  1:
 RMSU=  2.55D-03    CP:  3.34D-01  1.70D+00  9.01D-01  5.15D-01
 E= -3010.54327702277     Delta-E=       -0.250775578490 Rises=F Damp=F
 DIIS: error= 1.04D-02 at cycle   5 NSaved=   5.
 NSaved= 5 IEnMin= 5 EnMin= -3010.54327702277     IErMin= 5 ErrMin= 1.04D-02
 ErrMax= 1.04D-02  0.00D+00 EMaxC= 1.00D-01 BMatC= 1.21D-02 BMatP= 1.64D-01
 IDIUse=3 WtCom= 8.96D-01 WtEn= 1.04D-01
 Coeff-Com:  0.199D-02 0.232D-02 0.242D+00 0.308D-01 0.723D+00
 Coeff-En:   0.000D+00 0.000D+00 0.427D-01 0.000D+00 0.957D+00
 Coeff:      0.179D-02 0.208D-02 0.221D+00 0.276D-01 0.748D+00
 Gap=     0.234 Goal=   None    Shift=    0.000
 RMSDP=2.91D-03 MaxDP=3.32D-01 DE=-2.51D-01 OVMax= 2.93D-02

 Cycle   6  Pass 1  IDiag  1:
 RMSU=  9.16D-04    CP:  3.24D-01  1.63D+00  9.48D-01  4.15D-01  1.10D+00
 E= -3010.55075142067     Delta-E=       -0.007474397901 Rises=F Damp=F
 DIIS: error= 1.45D-03 at cycle   6 NSaved=   6.
 NSaved= 6 IEnMin= 6 EnMin= -3010.55075142067     IErMin= 6 ErrMin= 1.45D-03
 ErrMax= 1.45D-03  0.00D+00 EMaxC= 1.00D-01 BMatC= 5.34D-04 BMatP= 1.21D-02
 IDIUse=3 WtCom= 9.85D-01 WtEn= 1.45D-02
 Coeff-Com: -0.322D-02 0.681D-02 0.266D-01-0.296D-01 0.341D+00 0.658D+00
 Coeff-En:   0.000D+00 0.000D+00 0.000D+00 0.000D+00 0.000D+00 0.100D+01
 Coeff:     -0.317D-02 0.672D-02 0.263D-01-0.292D-01 0.336D+00 0.663D+00
 Gap=     0.234 Goal=   None    Shift=    0.000
 RMSDP=8.26D-04 MaxDP=1.06D-01 DE=-7.47D-03 OVMax= 5.92D-03

 Cycle   7  Pass 1  IDiag  1:
 RMSU=  2.21D-04    CP:  3.24D-01  1.66D+00  9.40D-01  4.34D-01  1.24D+00
                    CP:  1.11D+00
 E= -3010.55124037362     Delta-E=       -0.000488952950 Rises=F Damp=F
 DIIS: error= 3.78D-04 at cycle   7 NSaved=   7.
 NSaved= 7 IEnMin= 7 EnMin= -3010.55124037362     IErMin= 7 ErrMin= 3.78D-04
 ErrMax= 3.78D-04  0.00D+00 EMaxC= 1.00D-01 BMatC= 2.53D-05 BMatP= 5.34D-04
 IDIUse=3 WtCom= 9.96D-01 WtEn= 3.78D-03
 Coeff-Com: -0.135D-02 0.248D-02-0.278D-02-0.144D-01 0.911D-01 0.265D+00
 Coeff-Com:  0.660D+00
 Coeff-En:   0.000D+00 0.000D+00 0.000D+00 0.000D+00 0.000D+00 0.000D+00
 Coeff-En:   0.100D+01
 Coeff:     -0.134D-02 0.247D-02-0.277D-02-0.143D-01 0.908D-01 0.264D+00
 Coeff:      0.661D+00
 Gap=     0.235 Goal=   None    Shift=    0.000
 RMSDP=2.92D-04 MaxDP=3.23D-02 DE=-4.89D-04 OVMax= 3.62D-03

 Cycle   8  Pass 1  IDiag  1:
 RMSU=  1.25D-04    CP:  3.23D-01  1.66D+00  9.42D-01  4.33D-01  1.28D+00
                    CP:  1.18D+00  7.92D-01
 E= -3010.55128464185     Delta-E=       -0.000044268235 Rises=F Damp=F
 DIIS: error= 1.94D-04 at cycle   8 NSaved=   8.
 NSaved= 8 IEnMin= 8 EnMin= -3010.55128464185     IErMin= 8 ErrMin= 1.94D-04
 ErrMax= 1.94D-04  0.00D+00 EMaxC= 1.00D-01 BMatC= 6.31D-06 BMatP= 2.53D-05
 IDIUse=3 WtCom= 9.98D-01 WtEn= 1.94D-03
 Coeff-Com:  0.472D-03-0.120D-02-0.859D-02 0.229D-03-0.496D-01-0.720D-01
 Coeff-Com:  0.275D+00 0.855D+00
 Coeff-En:   0.000D+00 0.000D+00 0.000D+00 0.000D+00 0.000D+00 0.000D+00
 Coeff-En:   0.000D+00 0.100D+01
 Coeff:      0.471D-03-0.119D-02-0.857D-02 0.229D-03-0.495D-01-0.719D-01
 Coeff:      0.275D+00 0.855D+00
 Gap=     0.235 Goal=   None    Shift=    0.000
 RMSDP=1.53D-04 MaxDP=7.89D-03 DE=-4.43D-05 OVMax= 3.07D-03

 Cycle   9  Pass 1  IDiag  1:
 RMSU=  5.90D-05    CP:  3.23D-01  1.66D+00  9.44D-01  4.33D-01  1.32D+00
                    CP:  1.26D+00  9.57D-01  1.14D+00
 E= -3010.55130624983     Delta-E=       -0.000021607978 Rises=F Damp=F
 DIIS: error= 4.32D-05 at cycle   9 NSaved=   9.
 NSaved= 9 IEnMin= 9 EnMin= -3010.55130624983     IErMin= 9 ErrMin= 4.32D-05
 ErrMax= 4.32D-05  0.00D+00 EMaxC= 1.00D-01 BMatC= 1.00D-06 BMatP= 6.31D-06
 IDIUse=1 WtCom= 1.00D+00 WtEn= 0.00D+00
 Coeff-Com:  0.454D-03-0.957D-03-0.231D-02 0.325D-02-0.366D-01-0.762D-01
 Coeff-Com: -0.525D-03 0.306D+00 0.807D+00
 Coeff:      0.454D-03-0.957D-03-0.231D-02 0.325D-02-0.366D-01-0.762D-01
 Coeff:     -0.525D-03 0.306D+00 0.807D+00
 Gap=     0.235 Goal=   None    Shift=    0.000
 RMSDP=5.61D-05 MaxDP=2.35D-03 DE=-2.16D-05 OVMax= 2.04D-03

 Cycle  10  Pass 1  IDiag  1:
 RMSU=  1.93D-05    CP:  3.23D-01  1.66D+00  9.45D-01  4.33D-01  1.33D+00
                    CP:  1.29D+00  1.00D+00  1.28D+00  1.48D+00
 E= -3010.55131228975     Delta-E=       -0.000006039924 Rises=F Damp=F
 DIIS: error= 2.93D-05 at cycle  10 NSaved=  10.
 NSaved=10 IEnMin=10 EnMin= -3010.55131228975     IErMin=10 ErrMin= 2.93D-05
 ErrMax= 2.93D-05  0.00D+00 EMaxC= 1.00D-01 BMatC= 2.76D-07 BMatP= 1.00D-06
 IDIUse=1 WtCom= 1.00D+00 WtEn= 0.00D+00
 Coeff-Com: -0.101D-03 0.272D-03 0.174D-02 0.551D-03 0.666D-02 0.680D-02
 Coeff-Com: -0.849D-01-0.204D+00 0.204D+00 0.107D+01
 Coeff:     -0.101D-03 0.272D-03 0.174D-02 0.551D-03 0.666D-02 0.680D-02
 Coeff:     -0.849D-01-0.204D+00 0.204D+00 0.107D+01
 Gap=     0.235 Goal=   None    Shift=    0.000
 RMSDP=4.49D-05 MaxDP=2.32D-03 DE=-6.04D-06 OVMax= 1.82D-03

 Cycle  11  Pass 1  IDiag  1:
 RMSU=  1.52D-05    CP:  3.23D-01  1.66D+00  9.45D-01  4.32D-01  1.33D+00
                    CP:  1.30D+00  1.01D+00  1.41D+00  1.93D+00  1.67D+00
 E= -3010.55131491257     Delta-E=       -0.000002622812 Rises=F Damp=F
 DIIS: error= 1.22D-05 at cycle  11 NSaved=  11.
 NSaved=11 IEnMin=11 EnMin= -3010.55131491257     IErMin=11 ErrMin= 1.22D-05
 ErrMax= 1.22D-05  0.00D+00 EMaxC= 1.00D-01 BMatC= 6.64D-08 BMatP= 2.76D-07
 IDIUse=1 WtCom= 1.00D+00 WtEn= 0.00D+00
 Coeff-Com: -0.117D-03 0.269D-03 0.127D-02-0.576D-03 0.110D-01 0.198D-01
 Coeff-Com: -0.215D-01-0.133D+00-0.149D+00 0.329D+00 0.942D+00
 Coeff:     -0.117D-03 0.269D-03 0.127D-02-0.576D-03 0.110D-01 0.198D-01
 Coeff:     -0.215D-01-0.133D+00-0.149D+00 0.329D+00 0.942D+00
 Gap=     0.235 Goal=   None    Shift=    0.000
 RMSDP=2.16D-05 MaxDP=1.69D-03 DE=-2.62D-06 OVMax= 9.15D-04

 Cycle  12  Pass 1  IDiag  1:
 RMSU=  7.12D-06    CP:  3.23D-01  1.66D+00  9.46D-01  4.33D-01  1.33D+00
                    CP:  1.30D+00  1.02D+00  1.44D+00  2.12D+00  2.12D+00
                    CP:  1.16D+00
 E= -3010.55131544179     Delta-E=       -0.000000529221 Rises=F Damp=F
 DIIS: error= 8.48D-06 at cycle  12 NSaved=  12.
 NSaved=12 IEnMin=12 EnMin= -3010.55131544179     IErMin=12 ErrMin= 8.48D-06
 ErrMax= 8.48D-06  0.00D+00 EMaxC= 1.00D-01 BMatC= 1.70D-08 BMatP= 6.64D-08
 IDIUse=1 WtCom= 1.00D+00 WtEn= 0.00D+00
 Coeff-Com:  0.660D-05-0.156D-04 0.104D-03-0.274D-03 0.163D-02 0.292D-02
 Coeff-Com:  0.151D-01 0.569D-02-0.101D+00-0.154D+00 0.331D+00 0.899D+00
 Coeff:      0.660D-05-0.156D-04 0.104D-03-0.274D-03 0.163D-02 0.292D-02
 Coeff:      0.151D-01 0.569D-02-0.101D+00-0.154D+00 0.331D+00 0.899D+00
 Gap=     0.235 Goal=   None    Shift=    0.000
 RMSDP=1.36D-05 MaxDP=1.18D-03 DE=-5.29D-07 OVMax= 4.09D-04

 Cycle  13  Pass 1  IDiag  1:
 RMSU=  4.11D-06    CP:  3.23D-01  1.66D+00  9.46D-01  4.33D-01  1.33D+00
                    CP:  1.29D+00  1.03D+00  1.44D+00  2.24D+00  2.35D+00
                    CP:  1.31D+00  1.27D+00
 E= -3010.55131553711     Delta-E=       -0.000000095320 Rises=F Damp=F
 DIIS: error= 2.32D-06 at cycle  13 NSaved=  13.
 NSaved=13 IEnMin=13 EnMin= -3010.55131553711     IErMin=13 ErrMin= 2.32D-06
 ErrMax= 2.32D-06  0.00D+00 EMaxC= 1.00D-01 BMatC= 1.57D-09 BMatP= 1.70D-08
 IDIUse=1 WtCom= 1.00D+00 WtEn= 0.00D+00
 Coeff-Com:  0.199D-04-0.466D-04-0.224D-03 0.915D-04-0.185D-02-0.307D-02
 Coeff-Com:  0.625D-02 0.216D-01 0.205D-01-0.703D-01-0.135D+00 0.473D-01
 Coeff-Com:  0.111D+01
 Coeff:      0.199D-04-0.466D-04-0.224D-03 0.915D-04-0.185D-02-0.307D-02
 Coeff:      0.625D-02 0.216D-01 0.205D-01-0.703D-01-0.135D+00 0.473D-01
 Coeff:      0.111D+01
 Gap=     0.235 Goal=   None    Shift=    0.000
 RMSDP=6.61D-06 MaxDP=6.57D-04 DE=-9.53D-08 OVMax= 1.43D-04

 Cycle  14  Pass 1  IDiag  1:
 RMSU=  1.36D-06    CP:  3.23D-01  1.66D+00  9.46D-01  4.33D-01  1.33D+00
                    CP:  1.29D+00  1.03D+00  1.43D+00  2.26D+00  2.45D+00
                    CP:  1.25D+00  1.57D+00  1.51D+00
 E= -3010.55131554963     Delta-E=       -0.000000012518 Rises=F Damp=F
 DIIS: error= 1.31D-06 at cycle  14 NSaved=  14.
 NSaved=14 IEnMin=14 EnMin= -3010.55131554963     IErMin=14 ErrMin= 1.31D-06
 ErrMax= 1.31D-06  0.00D+00 EMaxC= 1.00D-01 BMatC= 4.70D-10 BMatP= 1.57D-09
 IDIUse=1 WtCom= 1.00D+00 WtEn= 0.00D+00
 Coeff-Com: -0.179D-05 0.148D-05-0.949D-04 0.478D-04-0.537D-03-0.530D-03
 Coeff-Com: -0.336D-03 0.210D-02 0.187D-01 0.662D-02-0.723D-01-0.116D+00
 Coeff-Com:  0.293D+00 0.869D+00
 Coeff:     -0.179D-05 0.148D-05-0.949D-04 0.478D-04-0.537D-03-0.530D-03
 Coeff:     -0.336D-03 0.210D-02 0.187D-01 0.662D-02-0.723D-01-0.116D+00
 Coeff:      0.293D+00 0.869D+00
 Gap=     0.235 Goal=   None    Shift=    0.000
 RMSDP=1.69D-06 MaxDP=1.59D-04 DE=-1.25D-08 OVMax= 3.23D-05

 Cycle  15  Pass 1  IDiag  1:
 RMSU=  4.00D-07    CP:  3.23D-01  1.66D+00  9.46D-01  4.33D-01  1.33D+00
                    CP:  1.29D+00  1.03D+00  1.43D+00  2.27D+00  2.46D+00
                    CP:  1.24D+00  1.63D+00  1.69D+00  1.21D+00
 E= -3010.55131555117     Delta-E=       -0.000000001549 Rises=F Damp=F
 DIIS: error= 3.91D-07 at cycle  15 NSaved=  15.
 NSaved=15 IEnMin=15 EnMin= -3010.55131555117     IErMin=15 ErrMin= 3.91D-07
 ErrMax= 3.91D-07  0.00D+00 EMaxC= 1.00D-01 BMatC= 6.33D-11 BMatP= 4.70D-10
 IDIUse=1 WtCom= 1.00D+00 WtEn= 0.00D+00
 Coeff-Com: -0.302D-05 0.652D-05 0.456D-05 0.580D-05 0.962D-04 0.236D-03
 Coeff-Com: -0.102D-02-0.253D-02 0.163D-02 0.117D-01 0.661D-02-0.376D-01
 Coeff-Com: -0.133D+00 0.193D+00 0.961D+00
 Coeff:     -0.302D-05 0.652D-05 0.456D-05 0.580D-05 0.962D-04 0.236D-03
 Coeff:     -0.102D-02-0.253D-02 0.163D-02 0.117D-01 0.661D-02-0.376D-01
 Coeff:     -0.133D+00 0.193D+00 0.961D+00
 Gap=     0.235 Goal=   None    Shift=    0.000
 RMSDP=9.87D-07 MaxDP=8.18D-05 DE=-1.55D-09 OVMax= 1.78D-05

 Cycle  16  Pass 1  IDiag  1:
 RMSU=  1.69D-07    CP:  3.23D-01  1.66D+00  9.46D-01  4.33D-01  1.33D+00
                    CP:  1.29D+00  1.03D+00  1.42D+00  2.28D+00  2.47D+00
                    CP:  1.22D+00  1.65D+00  1.79D+00  1.32D+00  1.50D+00
 E= -3010.55131555151     Delta-E=       -0.000000000338 Rises=F Damp=F
 DIIS: error= 1.70D-07 at cycle  16 NSaved=  16.
 NSaved=16 IEnMin=16 EnMin= -3010.55131555151     IErMin=16 ErrMin= 1.70D-07
 ErrMax= 1.70D-07  0.00D+00 EMaxC= 1.00D-01 BMatC= 8.00D-12 BMatP= 6.33D-11
 IDIUse=1 WtCom= 1.00D+00 WtEn= 0.00D+00
 Coeff-Com:  0.479D-06-0.690D-06 0.132D-04-0.545D-05 0.603D-04 0.221D-04
 Coeff-Com:  0.871D-04-0.655D-05-0.259D-02-0.154D-02 0.873D-02 0.135D-01
 Coeff-Com: -0.274D-01-0.125D+00-0.622D-01 0.120D+01
 Coeff:      0.479D-06-0.690D-06 0.132D-04-0.545D-05 0.603D-04 0.221D-04
 Coeff:      0.871D-04-0.655D-05-0.259D-02-0.154D-02 0.873D-02 0.135D-01
 Coeff:     -0.274D-01-0.125D+00-0.622D-01 0.120D+01
 Gap=     0.235 Goal=   None    Shift=    0.000
 RMSDP=2.70D-07 MaxDP=2.00D-05 DE=-3.38D-10 OVMax= 1.07D-05

 Cycle  17  Pass 1  IDiag  1:
 RMSU=  7.82D-08    CP:  3.23D-01  1.66D+00  9.46D-01  4.33D-01  1.33D+00
                    CP:  1.29D+00  1.03D+00  1.42D+00  2.28D+00  2.47D+00
                    CP:  1.22D+00  1.66D+00  1.81D+00  1.36D+00  1.77D+00
                    CP:  1.56D+00
 E= -3010.55131555163     Delta-E=       -0.000000000121 Rises=F Damp=F
 DIIS: error= 9.45D-08 at cycle  17 NSaved=  17.
 NSaved=17 IEnMin=17 EnMin= -3010.55131555163     IErMin=17 ErrMin= 9.45D-08
 ErrMax= 9.45D-08  0.00D+00 EMaxC= 1.00D-01 BMatC= 2.38D-12 BMatP= 8.00D-12
 IDIUse=1 WtCom= 1.00D+00 WtEn= 0.00D+00
 Coeff-Com:  0.488D-06-0.974D-06 0.249D-05-0.281D-05 0.238D-07-0.349D-04
 Coeff-Com:  0.188D-03 0.396D-03-0.732D-03-0.196D-02 0.344D-03 0.816D-02
 Coeff-Com:  0.278D-01-0.584D-01-0.190D+00 0.206D+00 0.101D+01
 Coeff:      0.488D-06-0.974D-06 0.249D-05-0.281D-05 0.238D-07-0.349D-04
 Coeff:      0.188D-03 0.396D-03-0.732D-03-0.196D-02 0.344D-03 0.816D-02
 Coeff:      0.278D-01-0.584D-01-0.190D+00 0.206D+00 0.101D+01
 Gap=     0.235 Goal=   None    Shift=    0.000
 RMSDP=1.43D-07 MaxDP=1.77D-05 DE=-1.21D-10 OVMax= 5.03D-06

 Cycle  18  Pass 1  IDiag  1:
 RMSU=  2.94D-08    CP:  3.23D-01  1.66D+00  9.46D-01  4.33D-01  1.33D+00
                    CP:  1.29D+00  1.03D+00  1.42D+00  2.28D+00  2.47D+00
                    CP:  1.22D+00  1.66D+00  1.81D+00  1.34D+00  1.87D+00
                    CP:  1.81D+00  1.62D+00
 E= -3010.55131555164     Delta-E=       -0.000000000004 Rises=F Damp=F
 DIIS: error= 3.98D-08 at cycle  18 NSaved=  18.
 NSaved=18 IEnMin=18 EnMin= -3010.55131555164     IErMin=18 ErrMin= 3.98D-08
 ErrMax= 3.98D-08  0.00D+00 EMaxC= 1.00D-01 BMatC= 8.51D-13 BMatP= 2.38D-12
 IDIUse=1 WtCom= 1.00D+00 WtEn= 0.00D+00
 Coeff-Com:  0.113D-06-0.307D-06-0.343D-05 0.135D-05-0.258D-04-0.373D-04
 Coeff-Com:  0.451D-04 0.206D-03 0.751D-03-0.238D-03-0.360D-02-0.290D-02
 Coeff-Com:  0.215D-01 0.148D-01-0.540D-01-0.346D+00 0.352D+00 0.102D+01
 Coeff:      0.113D-06-0.307D-06-0.343D-05 0.135D-05-0.258D-04-0.373D-04
 Coeff:      0.451D-04 0.206D-03 0.751D-03-0.238D-03-0.360D-02-0.290D-02
 Coeff:      0.215D-01 0.148D-01-0.540D-01-0.346D+00 0.352D+00 0.102D+01
 Gap=     0.235 Goal=   None    Shift=    0.000
 RMSDP=9.84D-08 MaxDP=1.01D-05 DE=-4.09D-12 OVMax= 3.45D-06

 Cycle  19  Pass 1  IDiag  1:
 RMSU=  1.55D-08    CP:  3.23D-01  1.66D+00  9.46D-01  4.33D-01  1.33D+00
                    CP:  1.29D+00  1.03D+00  1.42D+00  2.28D+00  2.47D+00
                    CP:  1.22D+00  1.67D+00  1.82D+00  1.33D+00  1.93D+00
                    CP:  2.02D+00  2.13D+00  1.44D+00
 E= -3010.55131555173     Delta-E=       -0.000000000089 Rises=F Damp=F
 DIIS: error= 1.37D-08 at cycle  19 NSaved=  19.
 NSaved=19 IEnMin=19 EnMin= -3010.55131555173     IErMin=19 ErrMin= 1.37D-08
 ErrMax= 1.37D-08  0.00D+00 EMaxC= 1.00D-01 BMatC= 7.80D-14 BMatP= 8.51D-13
 IDIUse=1 WtCom= 1.00D+00 WtEn= 0.00D+00
 Coeff-Com: -0.920D-07 0.166D-06-0.103D-05 0.479D-06-0.259D-05 0.220D-05
 Coeff-Com: -0.281D-04-0.635D-04 0.279D-03 0.363D-03-0.775D-03-0.207D-02
 Coeff-Com:  0.462D-03 0.118D-01 0.232D-01-0.957D-01-0.938D-01 0.223D+00
 Coeff-Com:  0.934D+00
 Coeff:     -0.920D-07 0.166D-06-0.103D-05 0.479D-06-0.259D-05 0.220D-05
 Coeff:     -0.281D-04-0.635D-04 0.279D-03 0.363D-03-0.775D-03-0.207D-02
 Coeff:      0.462D-03 0.118D-01 0.232D-01-0.957D-01-0.938D-01 0.223D+00
 Coeff:      0.934D+00
 Gap=     0.235 Goal=   None    Shift=    0.000
 RMSDP=1.64D-08 MaxDP=1.03D-06 DE=-8.87D-11 OVMax= 7.62D-07

 Cycle  20  Pass 1  IDiag  1:
 RMSU=  5.57D-09    CP:  3.23D-01  1.66D+00  9.46D-01  4.33D-01  1.33D+00
                    CP:  1.29D+00  1.03D+00  1.42D+00  2.28D+00  2.47D+00
                    CP:  1.22D+00  1.67D+00  1.82D+00  1.33D+00  1.93D+00
                    CP:  2.04D+00  2.25D+00  1.64D+00  1.10D+00
 E= -3010.55131555163     Delta-E=        0.000000000095 Rises=F Damp=F
 DIIS: error= 6.51D-09 at cycle  20 NSaved=  20.
 NSaved=20 IEnMin=19 EnMin= -3010.55131555173     IErMin=20 ErrMin= 6.51D-09
 ErrMax= 6.51D-09  0.00D+00 EMaxC= 1.00D-01 BMatC= 1.65D-14 BMatP= 7.80D-14
 IDIUse=1 WtCom= 1.00D+00 WtEn= 0.00D+00
 Coeff-Com: -0.349D-07 0.759D-07 0.187D-06-0.221D-07 0.235D-05 0.394D-05
 Coeff-Com: -0.147D-04-0.451D-04 0.619D-05 0.121D-03 0.194D-03-0.284D-03
 Coeff-Com: -0.259D-02 0.131D-02 0.150D-01 0.147D-01-0.873D-01-0.665D-01
 Coeff-Com:  0.312D+00 0.814D+00
 Coeff:     -0.349D-07 0.759D-07 0.187D-06-0.221D-07 0.235D-05 0.394D-05
 Coeff:     -0.147D-04-0.451D-04 0.619D-05 0.121D-03 0.194D-03-0.284D-03
 Coeff:     -0.259D-02 0.131D-02 0.150D-01 0.147D-01-0.873D-01-0.665D-01
 Coeff:      0.312D+00 0.814D+00
 Gap=     0.235 Goal=   None    Shift=    0.000
 RMSDP=9.64D-09 MaxDP=9.12D-07 DE= 9.55D-11 OVMax= 2.54D-07

 SCF Done:  E(RwB97XD) =  -3010.55131555     A.U. after   20 cycles
            NFock= 20  Conv=0.96D-08     -V/T= 2.0016
 KE= 3.005817567898D+03 PE=-8.696815979128D+03 EE= 1.909445088817D+03
 Leave Link  502 at Thu May  2 14:19:12 2024, MaxMem=   134217728 cpu:            1227.7 elap:            1228.7
 (Enter /software/gaussian/g16-c01/sse4/g16/l601.exe)
 Copying SCF densities to generalized density rwf, IOpCl= 0 IROHF=0.

 **********************************************************************

            Population analysis using the SCF Density.

 **********************************************************************

 Alpha  occ. eigenvalues -- -483.28873 -62.83856 -56.63584 -56.62973 -56.62953
 Alpha  occ. eigenvalues --  -19.46299 -19.45989 -14.85466 -10.58742 -10.56687
 Alpha  occ. eigenvalues --  -10.55996 -10.55834 -10.53587 -10.52120  -8.99632
 Alpha  occ. eigenvalues --   -6.82402  -6.80404  -6.80342  -2.92284  -2.91767
 Alpha  occ. eigenvalues --   -2.91718  -2.90119  -2.90118  -1.49784  -1.32756
 Alpha  occ. eigenvalues --   -1.21563  -1.12201  -1.11341  -1.03346  -0.99341
 Alpha  occ. eigenvalues --   -0.94490  -0.89974  -0.84632  -0.80522  -0.79840
 Alpha  occ. eigenvalues --   -0.79477  -0.77282  -0.75937  -0.74732  -0.70982
 Alpha  occ. eigenvalues --   -0.67688  -0.66864  -0.62408  -0.58617  -0.57279
 Alpha  occ. eigenvalues --   -0.56441  -0.55744  -0.53328  -0.52525
 Alpha virt. eigenvalues --   -0.29018  -0.20151  -0.14391  -0.13795  -0.12342
 Alpha virt. eigenvalues --   -0.10034  -0.06709  -0.06399  -0.05034  -0.03312
 Alpha virt. eigenvalues --   -0.02155  -0.01461  -0.00673  -0.00108   0.00601
 Alpha virt. eigenvalues --    0.01634   0.02335   0.03743   0.04001   0.04655
 Alpha virt. eigenvalues --    0.05172   0.05912   0.06589   0.06848   0.07290
 Alpha virt. eigenvalues --    0.08159   0.08597   0.09006   0.09768   0.09858
 Alpha virt. eigenvalues --    0.11167   0.11344   0.12105   0.12702   0.13021
 Alpha virt. eigenvalues --    0.13745   0.14759   0.15675   0.15992   0.16521
 Alpha virt. eigenvalues --    0.17560   0.17935   0.18460   0.20162   0.20997
 Alpha virt. eigenvalues --    0.21613   0.22439   0.22994   0.23524   0.25058
 Alpha virt. eigenvalues --    0.27066   0.27796   0.28575   0.31204   0.32458
 Alpha virt. eigenvalues --    0.33705   0.34746   0.35890   0.36559   0.37895
 Alpha virt. eigenvalues --    0.38316   0.39217   0.40446   0.42433   0.43281
 Alpha virt. eigenvalues --    0.44324   0.44805   0.45707   0.46773   0.48605
 Alpha virt. eigenvalues --    0.49554   0.51896   0.52087   0.53064   0.54290
 Alpha virt. eigenvalues --    0.55682   0.57215   0.57687   0.60114   0.60946
 Alpha virt. eigenvalues --    0.63007   0.63410   0.66465   0.68878   0.69860
 Alpha virt. eigenvalues --    0.70489   0.71353   0.73925   0.74756   0.75643
 Alpha virt. eigenvalues --    0.77156   0.77549   0.79762   0.85441   0.86608
 Alpha virt. eigenvalues --    0.87886   0.88528   0.91815   0.94892   0.98413
 Alpha virt. eigenvalues --    1.01310   1.03249   1.04097   1.06415   1.07444
 Alpha virt. eigenvalues --    1.10125   1.12990   1.13492   1.14101   1.18002
 Alpha virt. eigenvalues --    1.22072   1.23843   1.28481   1.34729   1.36844
 Alpha virt. eigenvalues --    1.37740   1.39798   1.44574   1.56119   1.57394
 Alpha virt. eigenvalues --    1.57716   1.60281   1.62145   1.64536   1.66872
 Alpha virt. eigenvalues --    1.68587   1.72246   1.74472   1.76163   1.80233
 Alpha virt. eigenvalues --    1.84731   1.85847   1.87752   1.97489   1.97985
 Alpha virt. eigenvalues --    1.98921   2.03497   2.04344   2.08215   2.10227
 Alpha virt. eigenvalues --    2.14229   2.15678   2.22966   2.24222   2.27232
 Alpha virt. eigenvalues --    2.33950   2.40863   2.42211   2.45344   2.53875
 Alpha virt. eigenvalues --    2.59360   2.63724   2.66488   2.69356   2.71832
 Alpha virt. eigenvalues --    2.73942   2.76584   2.78025   2.80930   2.83145
 Alpha virt. eigenvalues --    2.94395   2.98944   3.02000   3.07277   3.09599
 Alpha virt. eigenvalues --    3.15343   3.16458   3.18680   3.22867   3.26598
 Alpha virt. eigenvalues --    3.27768   3.38405   3.46947   3.50779   3.54870
 Alpha virt. eigenvalues --    3.58391   3.69082   3.74406   3.84536   3.88214
 Alpha virt. eigenvalues --    4.12635   4.13524   4.21834   4.26087   4.44720
 Alpha virt. eigenvalues --    4.46372   4.55592   4.60100   4.93453   4.96647
 Alpha virt. eigenvalues --    5.05009   5.10149   5.62148   6.15248   6.70677
 Alpha virt. eigenvalues --    7.51562   7.53862   7.63900  23.22965  23.62023
 Alpha virt. eigenvalues --   23.73879  23.78749  23.96465  24.02421  35.31697
 Alpha virt. eigenvalues --   47.96535  49.85311  49.93981 289.84127 289.86463
 Alpha virt. eigenvalues --  289.990601020.97650
          Condensed to atoms (all electrons):
               1          2          3          4          5          6
     1  C    8.995217  -4.071951   1.188817  -0.381565   0.286288   0.078292
     2  C   -4.071951  19.170880  -5.297802   0.690243  -0.028352   0.116285
     3  C    1.188817  -5.297802  18.314450  -1.594654   0.023124   0.195595
     4  C   -0.381565   0.690243  -1.594654   6.894422   0.053563  -0.027984
     5  H    0.286288  -0.028352   0.023124   0.053563   0.400913  -0.002850
     6  H    0.078292   0.116285   0.195595  -0.027984  -0.002850   0.370909
     7  H    0.011081  -0.026346   0.020673   0.294908  -0.003527  -0.000011
     8  N   -0.136332   0.173010  -1.536287  -0.018176  -0.000555  -0.039261
     9  O   -0.057090   0.287430  -0.180892  -0.000044  -0.000047  -0.003123
    10  O    0.339544  -0.303070  -0.219280  -0.031597   0.000049   0.026430
    11  C    1.043159  -1.170771   2.294424  -0.580099  -0.034253   0.015053
    12  H   -0.000421   0.014735   0.002191   0.001382   0.000021  -0.000020
    13  C   -1.154695  -3.655482  -6.936571   1.009534   0.028335  -0.016122
    14  H   -0.013962   0.027585   0.051134   0.014524  -0.000037   0.000029
    15  Br  -0.023358  -0.128023  -0.212377   0.052454  -0.000014  -0.000860
               7          8          9         10         11         12
     1  C    0.011081  -0.136332  -0.057090   0.339544   1.043159  -0.000421
     2  C   -0.026346   0.173010   0.287430  -0.303070  -1.170771   0.014735
     3  C    0.020673  -1.536287  -0.180892  -0.219280   2.294424   0.002191
     4  C    0.294908  -0.018176  -0.000044  -0.031597  -0.580099   0.001382
     5  H   -0.003527  -0.000555  -0.000047   0.000049  -0.034253   0.000021
     6  H   -0.000011  -0.039261  -0.003123   0.026430   0.015053  -0.000020
     7  H    0.342170   0.000101  -0.000005   0.000004   0.053632  -0.001827
     8  N    0.000101   7.637611   0.117783   0.132337  -0.158670   0.001067
     9  O   -0.000005   0.117783   7.764349  -0.007723   0.209296   0.000031
    10  O    0.000004   0.132337  -0.007723   7.985563   0.026757  -0.000016
    11  C    0.053632  -0.158670   0.209296   0.026757   8.479668   0.326221
    12  H   -0.001827   0.001067   0.000031  -0.000016   0.326221   0.276664
    13  C   -0.017583   0.957070  -0.262728   0.068211  -4.371056  -0.024057
    14  H   -0.000050  -0.040189   0.014012  -0.002279  -0.062655  -0.003758
    15  Br  -0.000425   0.156409  -0.056531   0.003533   0.106985  -0.002249
              13         14         15
     1  C   -1.154695  -0.013962  -0.023358
     2  C   -3.655482   0.027585  -0.128023
     3  C   -6.936571   0.051134  -0.212377
     4  C    1.009534   0.014524   0.052454
     5  H    0.028335  -0.000037  -0.000014
     6  H   -0.016122   0.000029  -0.000860
     7  H   -0.017583  -0.000050  -0.000425
     8  N    0.957070  -0.040189   0.156409
     9  O   -0.262728   0.014012  -0.056531
    10  O    0.068211  -0.002279   0.003533
    11  C   -4.371056  -0.062655   0.106985
    12  H   -0.024057  -0.003758  -0.002249
    13  C   20.188067   0.302897   0.278273
    14  H    0.302897   0.295914  -0.030969
    15  Br   0.278273  -0.030969  34.555442
 Mulliken charges:
               1
     1  C   -0.103023
     2  C    0.201629
     3  C   -0.112545
     4  C   -0.376911
     5  H    0.277343
     6  H    0.287638
     7  H    0.327208
     8  N   -0.245920
     9  O    0.175283
    10  O   -0.018464
    11  C   -0.177691
    12  H    0.410035
    13  C   -0.394093
    14  H    0.447802
    15  Br   0.301709
 Sum of Mulliken charges =   1.00000
 Mulliken charges with hydrogens summed into heavy atoms:
               1
     1  C    0.174320
     2  C    0.489267
     3  C   -0.112545
     4  C   -0.049704
     8  N   -0.245920
     9  O    0.175283
    10  O   -0.018464
    11  C    0.232345
    13  C    0.053709
    15  Br   0.301709
 Electronic spatial extent (au):  <R**2>=           3943.2670
 Charge=              1.0000 electrons
 Dipole moment (field-independent basis, Debye):
    X=              3.0153    Y=             -5.4679    Z=             -1.3888  Tot=              6.3968
 Quadrupole moment (field-independent basis, Debye-Ang):
   XX=            -67.6229   YY=            -49.1496   ZZ=            -60.5403
   XY=            -12.5049   XZ=             -3.9565   YZ=              4.8754
 Traceless Quadrupole moment (field-independent basis, Debye-Ang):
   XX=             -8.5187   YY=              9.9547   ZZ=             -1.4360
   XY=            -12.5049   XZ=             -3.9565   YZ=              4.8754
 Octapole moment (field-independent basis, Debye-Ang**2):
  XXX=           -514.1403  YYY=             64.7916  ZZZ=             77.9485  XYY=           -131.6324
  XXY=            -10.3248  XXZ=             22.3858  XZZ=           -128.4715  YZZ=              8.7066
  YYZ=             18.7022  XYZ=             13.3163
 Hexadecapole moment (field-independent basis, Debye-Ang**3):
 XXXX=          -3464.1565 YYYY=           -677.0639 ZZZZ=           -381.2558 XXXY=             39.8572
 XXXZ=            177.2636 YYYX=            131.7089 YYYZ=           -149.9393 ZZZX=            156.1734
 ZZZY=           -128.6207 XXYY=           -614.5174 XXZZ=           -515.6833 YYZZ=           -154.9510
 XXYZ=            -27.8954 YYXZ=             33.8651 ZZXY=             10.5284
 N-N= 7.710020068613D+02 E-N=-8.696815980304D+03  KE= 3.005817567898D+03
 No NMR shielding tensors so no spin-rotation constants.
 Leave Link  601 at Thu May  2 14:19:19 2024, MaxMem=   134217728 cpu:               7.4 elap:               7.5
 (Enter /software/gaussian/g16-c01/sse4/g16/l9999.exe)
 Unable to Open any file for archive entry.
 1\1\GINC-BHX0013\SP\RwB97XD\6-311+G(d)\C6H5Br1N1O2(1+)\BWEIGHT\02-May-
 2024\0\\#P wB97XD/6-311+G* NoSymm #P Field=Y+155\\TitleMe\\1,1\C,0,0.5
 193,1.233,-0.0319\C,0,1.9445,1.2692,-0.0367\C,0,2.6204,0.0928,-0.025\C
 ,0,-0.196,0.0301,0.001\H,0,-0.0207,2.1742,-0.0434\H,0,2.4828,2.2089,-0
 .0361\H,0,-1.2777,0.0399,0.0117\N,0,4.0921,0.0959,0.0366\O,0,4.6393,-1
 .0217,0.1446\O,0,4.6649,1.1984,-0.0233\C,0,0.4943,-1.1671,0.021\H,0,-0
 .0325,-2.1149,0.0545\C,0,1.9629,-1.2165,-0.0211\H,0,2.4436,-1.9631,0.6
 151\Br,0,2.173,-1.9491,-1.9062\\Version=ES64L-G16RevC.01\HF=-3010.5513
 156\RMSD=9.641e-09\Dipole=-3.1429228,-0.9231116,0.7028159\Quadrupole=-
 6.3334129,7.4010613,-1.0676484,-9.2971169,-2.9415694,3.624711\PG=C01 [
 X(C6H5Br1N1O2)]\\@
 The archive entry for this job was punched.


      THE ONE-EYED VIEW OF OUR UNIVERSE SAYS YOU MUST NOT LOOK
      FAR AFIELD FOR PROBLEMS.  SUCH PROBLEMS MAY NEVER ARRIVE. 
      INSTEAD, TEND TO THE WOLF WITHIN YOUR FENCES.
      THE PACKS RANGING OUTSIDE MAY NOT EVEN EXIST.

                              -- THE AZHAR BOOK SHAMRA I:4
                                 CHILDREN OF DUNE, BY FRANK HERBERT
 Job cpu time:       0 days  0 hours 21 minutes 37.3 seconds.
 Elapsed time:       0 days  0 hours 21 minutes 38.5 seconds.
 File lengths (MBytes):  RWF=     40 Int=      0 D2E=      0 Chk=     32 Scr=      1
 Normal termination of Gaussian 16 at Thu May  2 14:19:20 2024.
