 Entering Gaussian System, Link 0=g16
 Initial command:
 /software/gaussian/g16-c01/sse4/g16/l1.exe "/local_scratch/24657442/Gau-11944.inp" -scrdir="/local_scratch/24657442/"
 Entering Link 1 = /software/gaussian/g16-c01/sse4/g16/l1.exe PID=     11947.
  
 Copyright (c) 1988-2019, Gaussian, Inc.  All Rights Reserved.
  
 This is part of the Gaussian(R) 16 program.  It is based on
 the Gaussian(R) 09 system (copyright 2009, Gaussian, Inc.),
 the Gaussian(R) 03 system (copyright 2003, Gaussian, Inc.),
 the Gaussian(R) 98 system (copyright 1998, Gaussian, Inc.),
 the Gaussian(R) 94 system (copyright 1995, Gaussian, Inc.),
 the Gaussian 92(TM) system (copyright 1992, Gaussian, Inc.),
 the Gaussian 90(TM) system (copyright 1990, Gaussian, Inc.),
 the Gaussian 88(TM) system (copyright 1988, Gaussian, Inc.),
 the Gaussian 86(TM) system (copyright 1986, Carnegie Mellon
 University), and the Gaussian 82(TM) system (copyright 1983,
 Carnegie Mellon University). Gaussian is a federally registered
 trademark of Gaussian, Inc.
  
 This software contains proprietary and confidential information,
 including trade secrets, belonging to Gaussian, Inc.
  
 This software is provided under written license and may be
 used, copied, transmitted, or stored only in accord with that
 written license.
  
 The following legend is applicable only to US Government
 contracts under FAR:
  
                    RESTRICTED RIGHTS LEGEND
  
 Use, reproduction and disclosure by the US Government is
 subject to restrictions as set forth in subparagraphs (a)
 and (c) of the Commercial Computer Software - Restricted
 Rights clause in FAR 52.227-19.
  
 Gaussian, Inc.
 340 Quinnipiac St., Bldg. 40, Wallingford CT 06492
  
  
 ---------------------------------------------------------------
 Warning -- This program may not be used in any manner that
 competes with the business of Gaussian, Inc. or will provide
 assistance to any competitor of Gaussian, Inc.  The licensee
 of this program is prohibited from giving any competitor of
 Gaussian, Inc. access to this program.  By using this program,
 the user acknowledges that Gaussian, Inc. is engaged in the
 business of creating and licensing software in the field of
 computational chemistry and represents and warrants to the
 licensee that it is not a competitor of Gaussian, Inc. and that
 it will not use this program in any manner prohibited above.
 ---------------------------------------------------------------
  

 Cite this work as:
 Gaussian 16, Revision C.01,
 M. J. Frisch, G. W. Trucks, H. B. Schlegel, G. E. Scuseria, 
 M. A. Robb, J. R. Cheeseman, G. Scalmani, V. Barone, 
 G. A. Petersson, H. Nakatsuji, X. Li, M. Caricato, A. V. Marenich, 
 J. Bloino, B. G. Janesko, R. Gomperts, B. Mennucci, H. P. Hratchian, 
 J. V. Ortiz, A. F. Izmaylov, J. L. Sonnenberg, D. Williams-Young, 
 F. Ding, F. Lipparini, F. Egidi, J. Goings, B. Peng, A. Petrone, 
 T. Henderson, D. Ranasinghe, V. G. Zakrzewski, J. Gao, N. Rega, 
 G. Zheng, W. Liang, M. Hada, M. Ehara, K. Toyota, R. Fukuda, 
 J. Hasegawa, M. Ishida, T. Nakajima, Y. Honda, O. Kitao, H. Nakai, 
 T. Vreven, K. Throssell, J. A. Montgomery, Jr., J. E. Peralta, 
 F. Ogliaro, M. J. Bearpark, J. J. Heyd, E. N. Brothers, K. N. Kudin, 
 V. N. Staroverov, T. A. Keith, R. Kobayashi, J. Normand, 
 K. Raghavachari, A. P. Rendell, J. C. Burant, S. S. Iyengar, 
 J. Tomasi, M. Cossi, J. M. Millam, M. Klene, C. Adamo, R. Cammi, 
 J. W. Ochterski, R. L. Martin, K. Morokuma, O. Farkas, 
 J. B. Foresman, and D. J. Fox, Gaussian, Inc., Wallingford CT, 2019.
 
 ******************************************
 Gaussian 16:  ES64L-G16RevC.01  3-Jul-2019
                 1-May-2024 
 ******************************************
 %chk=geometry.chk
 %mem=9GB
 %nprocshared=12
 Will use up to   12 processors via shared memory.
 --------------------------------------
 #P wB97XD/6-311+G* NoSymm #P Field=X+9
 --------------------------------------
 1/38=1,172=1/1;
 2/12=2,15=1,17=6,18=5,40=1/2;
 3/5=4,6=6,7=11,11=2,14=1,15=9,25=1,30=1,74=-58/1,2,3;
 4//1;
 5/5=2,38=5/2;
 6/7=2,8=2,9=2,10=2,28=1/1;
 99/5=1,9=1/99;
 Leave Link    1 at Wed May  1 14:27:44 2024, MaxMem=  1207959552 cpu:               1.7 elap:               1.7
 (Enter /software/gaussian/g16-c01/sse4/g16/l101.exe)
 -------
 TitleMe
 -------
 Symbolic Z-matrix:
 Charge =  1 Multiplicity = 1
 C                     0.0295    1.3397    0.0682 
 C                     1.4348    1.2867    0.0064 
 C                     2.1118    0.0511   -0.0054 
 C                     1.4451   -1.1372    0.0312 
 C                    -0.6879    0.1682    0.11 
 H                    -0.4713    2.2984    0.0781 
 H                     2.0273    2.1965   -0.0322 
 H                     1.9897   -2.0764    0.0232 
 H                    -1.7716    0.1804    0.1582 
 N                     3.5864    0.051    -0.0675 
 O                     4.1471   -1.0597   -0.0881 
 O                     4.145     1.1639   -0.0901 
 C                    -0.0236   -1.1458    0.0835 
 H                    -0.4367   -1.8725    0.7889 
 Br                   -0.5359   -1.8697   -1.7408 
 
 ITRead=  0  0  0  0  0  0  0  0  0  0  0  0  0  0  0
 MicOpt= -1 -1 -1 -1 -1 -1 -1 -1 -1 -1 -1 -1 -1 -1 -1
 NAtoms=     15 NQM=       15 NQMF=       0 NMMI=      0 NMMIF=      0
                NMic=       0 NMicF=      0.
                    Isotopes and Nuclear Properties:
 (Nuclear quadrupole moments (NQMom) in fm**2, nuclear magnetic moments (NMagM)
  in nuclear magnetons)

  Atom         1           2           3           4           5           6           7           8           9          10
 IAtWgt=          12          12          12          12          12           1           1           1           1          14
 AtmWgt=  12.0000000  12.0000000  12.0000000  12.0000000  12.0000000   1.0078250   1.0078250   1.0078250   1.0078250  14.0030740
 NucSpn=           0           0           0           0           0           1           1           1           1           2
 AtZEff=  -0.0000000  -0.0000000  -0.0000000  -0.0000000  -0.0000000  -0.0000000  -0.0000000  -0.0000000  -0.0000000  -0.0000000
 NQMom=    0.0000000   0.0000000   0.0000000   0.0000000   0.0000000   0.0000000   0.0000000   0.0000000   0.0000000   2.0440000
 NMagM=    0.0000000   0.0000000   0.0000000   0.0000000   0.0000000   2.7928460   2.7928460   2.7928460   2.7928460   0.4037610
 AtZNuc=   6.0000000   6.0000000   6.0000000   6.0000000   6.0000000   1.0000000   1.0000000   1.0000000   1.0000000   7.0000000

  Atom        11          12          13          14          15
 IAtWgt=          16          16          12           1          79
 AtmWgt=  15.9949146  15.9949146  12.0000000   1.0078250  78.9183361
 NucSpn=           0           0           0           1           3
 AtZEff=  -0.0000000  -0.0000000  -0.0000000  -0.0000000  -0.0000000
 NQMom=    0.0000000   0.0000000   0.0000000   0.0000000  31.3000000
 NMagM=    0.0000000   0.0000000   0.0000000   2.7928460   2.1063990
 AtZNuc=   8.0000000   8.0000000   6.0000000   1.0000000  35.0000000
 Leave Link  101 at Wed May  1 14:27:45 2024, MaxMem=  1207959552 cpu:               1.4 elap:               1.4
 (Enter /software/gaussian/g16-c01/sse4/g16/l202.exe)
                          Input orientation:                          
 ---------------------------------------------------------------------
 Center     Atomic      Atomic             Coordinates (Angstroms)
 Number     Number       Type             X           Y           Z
 ---------------------------------------------------------------------
      1          6           0        0.029500    1.339700    0.068200
      2          6           0        1.434800    1.286700    0.006400
      3          6           0        2.111800    0.051100   -0.005400
      4          6           0        1.445100   -1.137200    0.031200
      5          6           0       -0.687900    0.168200    0.110000
      6          1           0       -0.471300    2.298400    0.078100
      7          1           0        2.027300    2.196500   -0.032200
      8          1           0        1.989700   -2.076400    0.023200
      9          1           0       -1.771600    0.180400    0.158200
     10          7           0        3.586400    0.051000   -0.067500
     11          8           0        4.147100   -1.059700   -0.088100
     12          8           0        4.145000    1.163900   -0.090100
     13          6           0       -0.023600   -1.145800    0.083500
     14          1           0       -0.436700   -1.872500    0.788900
     15         35           0       -0.535900   -1.869700   -1.740800
 ---------------------------------------------------------------------
                    Distance matrix (angstroms):
                    1          2          3          4          5
     1  C    0.000000
     2  C    1.407656   0.000000
     3  C    2.449874   1.408963   0.000000
     4  C    2.853126   2.424049   1.363043   0.000000
     5  C    1.374344   2.401589   2.804523   2.501993   0.000000
     6  H    1.081667   2.159142   3.424870   3.934226   2.141421
     7  H    2.176095   1.086408   2.147231   3.384750   3.392128
     8  H    3.938800   3.408612   2.131193   1.085702   3.495040
     9  H    2.143837   3.395283   3.888995   3.478413   1.084840
    10  N    3.785591   2.482297   1.475907   2.450862   4.279589
    11  O    4.768247   3.587631   2.320164   2.705743   4.992415
    12  O    4.122294   2.714696   2.319353   3.549540   4.938459
    13  C    2.486114   2.837240   2.449573   1.469656   1.472614
    14  H    3.324903   3.754379   3.290289   2.157764   2.165286
    15  Br   3.727252   4.110867   3.702891   2.756973   2.757100
                    6          7          8          9         10
     6  H    0.000000
     7  H    2.503108   0.000000
     8  H    5.019802   4.273425   0.000000
     9  H    2.486588   4.304945   4.388479   0.000000
    10  N    4.640790   2.652397   2.661486   5.364313   0.000000
    11  O    5.712624   3.885809   2.387560   6.052233   1.244373
    12  O    4.756638   2.356750   3.893289   6.002923   1.245428
    13  C    3.473180   3.923079   2.218790   2.195425   3.806210
    14  H    4.231175   4.827242   2.552506   2.528663   4.540772
    15  Br   4.548146   5.101303   3.087568   3.055498   4.845862
                   11         12         13         14         15
    11  O    0.000000
    12  O    2.223602   0.000000
    13  C    4.175117   4.768865   0.000000
    14  H    4.737193   5.566358   1.093770   0.000000
    15  Br   5.031700   5.817075   2.028436   2.531646   0.000000
 Symmetry turned off by external request.
 Stoichiometry    C6H5BrNO2(1+)
 Framework group  C1[X(C6H5BrNO2)]
 Deg. of freedom    39
 Full point group                 C1      NOp   1
 Rotational constants (GHZ):           1.8252210           0.5518633           0.4576002
 Leave Link  202 at Wed May  1 14:27:47 2024, MaxMem=  1207959552 cpu:               1.2 elap:               1.3
 (Enter /software/gaussian/g16-c01/sse4/g16/l301.exe)
 Standard basis: 6-311+G(d) (5D, 7F)
 Ernie: Thresh=  0.10000D-02 Tol=  0.10000D-05 Strict=F.
 The following finite field(s) will be applied:
 An electric field of              0.0009  0.0000  0.0000
   261 basis functions,   443 primitive gaussians,   273 cartesian basis functions
    49 alpha electrons       49 beta electrons
       nuclear repulsion energy       739.2122215416 Hartrees.
 IExCor= 4639 DFT=T Ex+Corr=wB97XD ExCW=0 ScaHFX=  1.000000
 ScaDFX=  1.000000  1.000000  1.000000  1.000000 ScalE2=  1.000000  1.000000
 IRadAn=      5 IRanWt=     -1 IRanGd=            0 ICorTp=0 IEmpDi=121
 HFx  wShort=  0.000000 wLong=  0.200000 cFull=  0.222036 cShort=  0.000000 cLong=  0.777964
 DFx  wShort=  0.000000 wLong=  0.200000 cFull=  0.000000 cShort=  0.000000 cLong=  1.000000
 NAtoms=   15 NActive=   15 NUniq=   15 SFac= 1.00D+00 NAtFMM=   60 NAOKFM=F Big=F
 Integral buffers will be    131072 words long.
 Raffenetti 2 integral format.
 Two-electron integral symmetry is turned off.
 R6Disp:  Grimme-D2 Dispersion energy=       -0.0077368520 Hartrees.
 Nuclear repulsion after empirical dispersion term =      739.2044846896 Hartrees.
 Leave Link  301 at Wed May  1 14:27:48 2024, MaxMem=  1207959552 cpu:               0.9 elap:               0.9
 (Enter /software/gaussian/g16-c01/sse4/g16/l302.exe)
 NPDir=0 NMtPBC=     1 NCelOv=     1 NCel=       1 NClECP=     1 NCelD=      1
         NCelK=      1 NCelE2=     1 NClLst=     1 CellRange=     0.0.
 One-electron integrals computed using PRISM.
 NBasis=   261 RedAO= T EigKep=  2.35D-06  NBF=   261
 NBsUse=   261 1.00D-06 EigRej= -1.00D+00 NBFU=   261
 Precomputing XC quadrature grid using
 IXCGrd= 4 IRadAn=           5 IRanWt=          -1 IRanGd=           0 AccXCQ= 0.00D+00.
 Generated NRdTot=       0 NPtTot=           0 NUsed=           0 NTot=          32
 NSgBfM=   273   273   273   273   273 MxSgAt=    15 MxSgA2=    15.
 Leave Link  302 at Wed May  1 14:28:10 2024, MaxMem=  1207959552 cpu:              21.4 elap:              21.4
 (Enter /software/gaussian/g16-c01/sse4/g16/l303.exe)
 DipDrv:  MaxL=1.
 The nuclear repulsion energy is now       739.3743571409 hartrees.
 Leave Link  303 at Wed May  1 14:28:13 2024, MaxMem=  1207959552 cpu:               3.3 elap:               3.3
 (Enter /software/gaussian/g16-c01/sse4/g16/l401.exe)
 ExpMin= 3.50D-02 ExpMax= 4.40D+05 ExpMxC= 1.51D+04 IAcc=3 IRadAn=         5 AccDes= 0.00D+00
 Harris functional with IExCor= 4639 and IRadAn=       5 diagonalized for initial guess.
 HarFok:  IExCor= 4639 AccDes= 0.00D+00 IRadAn=         5 IDoV= 1 UseB2=F ITyADJ=14
 ICtDFT=  3500011 ScaDFX=  1.000000  1.000000  1.000000  1.000000
 FoFCou: FMM=F IPFlag=           0 FMFlag=      100000 FMFlg1=           0
         NFxFlg=           0 DoJE=T BraDBF=F KetDBF=T FulRan=T
         wScrn=  0.000000 ICntrl=       500 IOpCl=  0 I1Cent=   200000004 NGrid=           0
         NMat0=    1 NMatS0=      1 NMatT0=    0 NMatD0=    1 NMtDS0=    0 NMtDT0=    0
 Symmetry not used in FoFCou.
 Harris En= -2970.59596995803    
 JPrj=0 DoOrth=F DoCkMO=F.
 Leave Link  401 at Wed May  1 14:28:42 2024, MaxMem=  1207959552 cpu:              29.3 elap:              29.3
 (Enter /software/gaussian/g16-c01/sse4/g16/l502.exe)
 Two-electron integral symmetry not used.
 Closed shell SCF:
 Using DIIS extrapolation, IDIIS=  1040.
 NGot=  1207959552 LenX=  1207804877 LenY=  1207729907
 Requested convergence on RMS density matrix=1.00D-08 within 128 cycles.
 Requested convergence on MAX density matrix=1.00D-06.
 Requested convergence on             energy=1.00D-06.
 No special actions if energy rises.
 Fock matrices will be formed incrementally for  20 cycles.

 Cycle   1  Pass 1  IDiag  1:
 FoFJK:  IHMeth= 1 ICntrl=       0 DoSepK=T KAlg= 0 I1Cent=           0 FoldK=F
 IRaf=         1 NMat=       1 IRICut=       1 DoRegI=T DoRafI=F ISym2E= 0 IDoP0=0 IntGTp=1.
 FoFCou: FMM=F IPFlag=           0 FMFlag=      100000 FMFlg1=           0
         NFxFlg=           0 DoJE=T BraDBF=F KetDBF=F FulRan=T
         wScrn=  0.000000 ICntrl=       500 IOpCl=  0 I1Cent=           0 NGrid=           0
         NMat0=    1 NMatS0=      1 NMatT0=    0 NMatD0=    1 NMtDS0=    0 NMtDT0=    0
 Symmetry not used in FoFCou.
 E= -3009.72883414630    
 DIIS: error= 3.20D-01 at cycle   1 NSaved=   1.
 NSaved= 1 IEnMin= 1 EnMin= -3009.72883414630     IErMin= 1 ErrMin= 3.20D-01
 ErrMax= 3.20D-01  0.00D+00 EMaxC= 1.00D-01 BMatC= 1.19D+01 BMatP= 1.19D+01
 IDIUse=3 WtCom= 0.00D+00 WtEn= 1.00D+00
 Coeff-Com:  0.100D+01
 Coeff-En:   0.100D+01
 Coeff:      0.100D+01
 Gap=     0.321 Goal=   None    Shift=    0.000
 GapD=    0.321 DampG=1.000 DampE=0.250 DampFc=0.2500 IDamp=-1.
 Damping current iteration by 2.50D-01
 RMSDP=4.01D-02 MaxDP=4.12D+00              OVMax= 2.56D-01

 Cycle   2  Pass 1  IDiag  1:
 RMSU=  3.99D-03    CP:  8.97D-01
 E= -3010.01038113029     Delta-E=       -0.281546983997 Rises=F Damp=T
 DIIS: error= 2.25D-01 at cycle   2 NSaved=   2.
 NSaved= 2 IEnMin= 2 EnMin= -3010.01038113029     IErMin= 2 ErrMin= 2.25D-01
 ErrMax= 2.25D-01  0.00D+00 EMaxC= 1.00D-01 BMatC= 5.45D+00 BMatP= 1.19D+01
 IDIUse=3 WtCom= 0.00D+00 WtEn= 1.00D+00
 Coeff-Com: -0.184D+01 0.284D+01
 Coeff-En:   0.000D+00 0.100D+01
 Coeff:      0.000D+00 0.100D+01
 Gap=     0.295 Goal=   None    Shift=    0.000
 RMSDP=3.15D-02 MaxDP=3.21D+00 DE=-2.82D-01 OVMax= 7.53D-02

 Cycle   3  Pass 1  IDiag  1:
 RMSU=  4.20D-03    CP:  5.65D-01  3.00D+00
 E= -3010.38729575617     Delta-E=       -0.376914625878 Rises=F Damp=F
 DIIS: error= 6.56D-02 at cycle   3 NSaved=   3.
 NSaved= 3 IEnMin= 3 EnMin= -3010.38729575617     IErMin= 3 ErrMin= 6.56D-02
 ErrMax= 6.56D-02  0.00D+00 EMaxC= 1.00D-01 BMatC= 7.30D-01 BMatP= 5.45D+00
 IDIUse=3 WtCom= 3.44D-01 WtEn= 6.56D-01
 Coeff-Com:  0.277D+01-0.364D+01 0.187D+01
 Coeff-En:   0.250D-01 0.000D+00 0.975D+00
 Coeff:      0.969D+00-0.125D+01 0.128D+01
 Gap=     0.261 Goal=   None    Shift=    0.000
 RMSDP=8.19D-03 MaxDP=4.40D-01 DE=-3.77D-01 OVMax= 6.30D-02

 Cycle   4  Pass 1  IDiag  1:
 RMSU=  4.45D-03    CP:  5.80D-01  2.12D+00  2.11D+00
 E= -3010.48989476741     Delta-E=       -0.102599011237 Rises=F Damp=F
 DIIS: error= 3.83D-02 at cycle   4 NSaved=   4.
 NSaved= 4 IEnMin= 4 EnMin= -3010.48989476741     IErMin= 4 ErrMin= 3.83D-02
 ErrMax= 3.83D-02  0.00D+00 EMaxC= 1.00D-01 BMatC= 2.30D-01 BMatP= 7.30D-01
 IDIUse=3 WtCom= 6.17D-01 WtEn= 3.83D-01
 Coeff-Com: -0.187D+00 0.262D+00 0.269D+00 0.656D+00
 Coeff-En:   0.000D+00 0.000D+00 0.196D+00 0.804D+00
 Coeff:     -0.115D+00 0.162D+00 0.241D+00 0.713D+00
 Gap=     0.265 Goal=   None    Shift=    0.000
 RMSDP=3.28D-03 MaxDP=2.58D-01 DE=-1.03D-01 OVMax= 2.76D-02

 Cycle   5  Pass 1  IDiag  1:
 RMSU=  1.18D-03    CP:  5.52D-01  2.52D+00  1.96D+00  8.93D-01
 E= -3010.53409515162     Delta-E=       -0.044200384212 Rises=F Damp=F
 DIIS: error= 6.82D-03 at cycle   5 NSaved=   5.
 NSaved= 5 IEnMin= 5 EnMin= -3010.53409515162     IErMin= 5 ErrMin= 6.82D-03
 ErrMax= 6.82D-03  0.00D+00 EMaxC= 1.00D-01 BMatC= 7.26D-03 BMatP= 2.30D-01
 IDIUse=3 WtCom= 9.32D-01 WtEn= 6.82D-02
 Coeff-Com: -0.135D+00 0.183D+00 0.397D-01 0.316D+00 0.596D+00
 Coeff-En:   0.000D+00 0.000D+00 0.000D+00 0.000D+00 0.100D+01
 Coeff:     -0.126D+00 0.171D+00 0.370D-01 0.295D+00 0.623D+00
 Gap=     0.255 Goal=   None    Shift=    0.000
 RMSDP=5.36D-04 MaxDP=3.63D-02 DE=-4.42D-02 OVMax= 1.03D-02

 Cycle   6  Pass 1  IDiag  1:
 RMSU=  4.11D-04    CP:  5.50D-01  2.50D+00  1.97D+00  8.87D-01  7.29D-01
 E= -3010.53554893854     Delta-E=       -0.001453786916 Rises=F Damp=F
 DIIS: error= 1.22D-03 at cycle   6 NSaved=   6.
 NSaved= 6 IEnMin= 6 EnMin= -3010.53554893854     IErMin= 6 ErrMin= 1.22D-03
 ErrMax= 1.22D-03  0.00D+00 EMaxC= 1.00D-01 BMatC= 1.58D-04 BMatP= 7.26D-03
 IDIUse=3 WtCom= 9.88D-01 WtEn= 1.22D-02
 Coeff-Com: -0.862D-01 0.116D+00-0.456D-02 0.144D+00 0.360D+00 0.471D+00
 Coeff-En:   0.000D+00 0.000D+00 0.000D+00 0.000D+00 0.000D+00 0.100D+01
 Coeff:     -0.852D-01 0.114D+00-0.450D-02 0.143D+00 0.355D+00 0.477D+00
 Gap=     0.256 Goal=   None    Shift=    0.000
 RMSDP=1.77D-04 MaxDP=1.13D-02 DE=-1.45D-03 OVMax= 5.40D-03

 Cycle   7  Pass 1  IDiag  1:
 RMSU=  1.04D-04    CP:  5.50D-01  2.49D+00  1.98D+00  8.93D-01  8.17D-01
                    CP:  8.67D-01
 E= -3010.53565927900     Delta-E=       -0.000110340468 Rises=F Damp=F
 DIIS: error= 5.15D-04 at cycle   7 NSaved=   7.
 NSaved= 7 IEnMin= 7 EnMin= -3010.53565927900     IErMin= 7 ErrMin= 5.15D-04
 ErrMax= 5.15D-04  0.00D+00 EMaxC= 1.00D-01 BMatC= 2.31D-05 BMatP= 1.58D-04
 IDIUse=3 WtCom= 9.95D-01 WtEn= 5.15D-03
 Coeff-Com: -0.357D-01 0.475D-01-0.128D-01 0.359D-01 0.109D+00 0.289D+00
 Coeff-Com:  0.567D+00
 Coeff-En:   0.000D+00 0.000D+00 0.000D+00 0.000D+00 0.000D+00 0.264D-01
 Coeff-En:   0.974D+00
 Coeff:     -0.355D-01 0.473D-01-0.127D-01 0.357D-01 0.109D+00 0.287D+00
 Coeff:      0.569D+00
 Gap=     0.256 Goal=   None    Shift=    0.000
 RMSDP=8.50D-05 MaxDP=5.95D-03 DE=-1.10D-04 OVMax= 2.29D-03

 Cycle   8  Pass 1  IDiag  1:
 RMSU=  4.75D-05    CP:  5.50D-01  2.48D+00  1.99D+00  9.00D-01  8.44D-01
                    CP:  9.17D-01  8.52D-01
 E= -3010.53567927091     Delta-E=       -0.000019991910 Rises=F Damp=F
 DIIS: error= 1.12D-04 at cycle   8 NSaved=   8.
 NSaved= 8 IEnMin= 8 EnMin= -3010.53567927091     IErMin= 8 ErrMin= 1.12D-04
 ErrMax= 1.12D-04  0.00D+00 EMaxC= 1.00D-01 BMatC= 2.20D-06 BMatP= 2.31D-05
 IDIUse=3 WtCom= 9.99D-01 WtEn= 1.12D-03
 Coeff-Com:  0.535D-02-0.735D-02-0.291D-02-0.146D-01-0.375D-01-0.203D-01
 Coeff-Com:  0.169D+00 0.908D+00
 Coeff-En:   0.000D+00 0.000D+00 0.000D+00 0.000D+00 0.000D+00 0.000D+00
 Coeff-En:   0.000D+00 0.100D+01
 Coeff:      0.534D-02-0.734D-02-0.291D-02-0.146D-01-0.374D-01-0.202D-01
 Coeff:      0.169D+00 0.908D+00
 Gap=     0.256 Goal=   None    Shift=    0.000
 RMSDP=5.31D-05 MaxDP=4.28D-03 DE=-2.00D-05 OVMax= 1.56D-03

 Cycle   9  Pass 1  IDiag  1:
 RMSU=  2.11D-05    CP:  5.50D-01  2.47D+00  1.99D+00  9.00D-01  8.48D-01
                    CP:  9.98D-01  1.03D+00  1.27D+00
 E= -3010.53568336959     Delta-E=       -0.000004098674 Rises=F Damp=F
 DIIS: error= 3.90D-05 at cycle   9 NSaved=   9.
 NSaved= 9 IEnMin= 9 EnMin= -3010.53568336959     IErMin= 9 ErrMin= 3.90D-05
 ErrMax= 3.90D-05  0.00D+00 EMaxC= 1.00D-01 BMatC= 2.06D-07 BMatP= 2.20D-06
 IDIUse=1 WtCom= 1.00D+00 WtEn= 0.00D+00
 Coeff-Com:  0.632D-02-0.849D-02 0.681D-03-0.935D-02-0.242D-01-0.453D-01
 Coeff-Com: -0.273D-01 0.280D+00 0.828D+00
 Coeff:      0.632D-02-0.849D-02 0.681D-03-0.935D-02-0.242D-01-0.453D-01
 Coeff:     -0.273D-01 0.280D+00 0.828D+00
 Gap=     0.256 Goal=   None    Shift=    0.000
 RMSDP=1.54D-05 MaxDP=8.69D-04 DE=-4.10D-06 OVMax= 7.58D-04

 Cycle  10  Pass 1  IDiag  1:
 RMSU=  6.50D-06    CP:  5.50D-01  2.47D+00  1.99D+00  9.00D-01  8.52D-01
                    CP:  1.01D+00  1.08D+00  1.38D+00  1.09D+00
 E= -3010.53568398533     Delta-E=       -0.000000615739 Rises=F Damp=F
 DIIS: error= 1.37D-05 at cycle  10 NSaved=  10.
 NSaved=10 IEnMin=10 EnMin= -3010.53568398533     IErMin=10 ErrMin= 1.37D-05
 ErrMax= 1.37D-05  0.00D+00 EMaxC= 1.00D-01 BMatC= 4.62D-08 BMatP= 2.06D-07
 IDIUse=1 WtCom= 1.00D+00 WtEn= 0.00D+00
 Coeff-Com:  0.519D-03-0.676D-03 0.311D-03-0.418D-03 0.736D-03-0.637D-02
 Coeff-Com: -0.291D-01-0.510D-01 0.236D+00 0.850D+00
 Coeff:      0.519D-03-0.676D-03 0.311D-03-0.418D-03 0.736D-03-0.637D-02
 Coeff:     -0.291D-01-0.510D-01 0.236D+00 0.850D+00
 Gap=     0.256 Goal=   None    Shift=    0.000
 RMSDP=7.27D-06 MaxDP=5.38D-04 DE=-6.16D-07 OVMax= 2.95D-04

 Cycle  11  Pass 1  IDiag  1:
 RMSU=  3.40D-06    CP:  5.50D-01  2.47D+00  1.99D+00  9.00D-01  8.52D-01
                    CP:  1.02D+00  1.09D+00  1.40D+00  1.22D+00  1.05D+00
 E= -3010.53568407799     Delta-E=       -0.000000092667 Rises=F Damp=F
 DIIS: error= 6.12D-06 at cycle  11 NSaved=  11.
 NSaved=11 IEnMin=11 EnMin= -3010.53568407799     IErMin=11 ErrMin= 6.12D-06
 ErrMax= 6.12D-06  0.00D+00 EMaxC= 1.00D-01 BMatC= 2.62D-09 BMatP= 4.62D-08
 IDIUse=1 WtCom= 1.00D+00 WtEn= 0.00D+00
 Coeff-Com: -0.234D-03 0.315D-03 0.356D-04 0.664D-03 0.234D-02 0.448D-02
 Coeff-Com:  0.357D-02-0.263D-01-0.909D-01-0.984D-04 0.111D+01
 Coeff:     -0.234D-03 0.315D-03 0.356D-04 0.664D-03 0.234D-02 0.448D-02
 Coeff:      0.357D-02-0.263D-01-0.909D-01-0.984D-04 0.111D+01
 Gap=     0.256 Goal=   None    Shift=    0.000
 RMSDP=2.59D-06 MaxDP=1.32D-04 DE=-9.27D-08 OVMax= 1.49D-04

 Cycle  12  Pass 1  IDiag  1:
 RMSU=  9.12D-07    CP:  5.50D-01  2.47D+00  1.99D+00  9.00D-01  8.52D-01
                    CP:  1.02D+00  1.09D+00  1.40D+00  1.26D+00  1.21D+00
                    CP:  1.27D+00
 E= -3010.53568409243     Delta-E=       -0.000000014435 Rises=F Damp=F
 DIIS: error= 1.86D-06 at cycle  12 NSaved=  12.
 NSaved=12 IEnMin=12 EnMin= -3010.53568409243     IErMin=12 ErrMin= 1.86D-06
 ErrMax= 1.86D-06  0.00D+00 EMaxC= 1.00D-01 BMatC= 8.35D-10 BMatP= 2.62D-09
 IDIUse=1 WtCom= 1.00D+00 WtEn= 0.00D+00
 Coeff-Com: -0.158D-03 0.209D-03-0.135D-04 0.340D-03 0.760D-03 0.252D-02
 Coeff-Com:  0.557D-02-0.432D-02-0.735D-01-0.125D+00 0.505D+00 0.689D+00
 Coeff:     -0.158D-03 0.209D-03-0.135D-04 0.340D-03 0.760D-03 0.252D-02
 Coeff:      0.557D-02-0.432D-02-0.735D-01-0.125D+00 0.505D+00 0.689D+00
 Gap=     0.256 Goal=   None    Shift=    0.000
 RMSDP=1.05D-06 MaxDP=7.64D-05 DE=-1.44D-08 OVMax= 4.40D-05

 Cycle  13  Pass 1  IDiag  1:
 RMSU=  3.21D-07    CP:  5.50D-01  2.47D+00  1.99D+00  9.00D-01  8.51D-01
                    CP:  1.02D+00  1.09D+00  1.40D+00  1.27D+00  1.22D+00
                    CP:  1.43D+00  8.12D-01
 E= -3010.53568409428     Delta-E=       -0.000000001853 Rises=F Damp=F
 DIIS: error= 5.87D-07 at cycle  13 NSaved=  13.
 NSaved=13 IEnMin=13 EnMin= -3010.53568409428     IErMin=13 ErrMin= 5.87D-07
 ErrMax= 5.87D-07  0.00D+00 EMaxC= 1.00D-01 BMatC= 7.60D-11 BMatP= 8.35D-10
 IDIUse=1 WtCom= 1.00D+00 WtEn= 0.00D+00
 Coeff-Com: -0.264D-04 0.353D-04-0.711D-05-0.835D-05-0.270D-03-0.447D-03
 Coeff-Com:  0.116D-03 0.242D-02 0.136D-02-0.186D-01-0.464D-01 0.145D+00
 Coeff-Com:  0.917D+00
 Coeff:     -0.264D-04 0.353D-04-0.711D-05-0.835D-05-0.270D-03-0.447D-03
 Coeff:      0.116D-03 0.242D-02 0.136D-02-0.186D-01-0.464D-01 0.145D+00
 Coeff:      0.917D+00
 Gap=     0.256 Goal=   None    Shift=    0.000
 RMSDP=2.34D-07 MaxDP=1.21D-05 DE=-1.85D-09 OVMax= 1.17D-05

 Cycle  14  Pass 1  IDiag  1:
 RMSU=  1.43D-07    CP:  5.50D-01  2.47D+00  1.99D+00  9.00D-01  8.51D-01
                    CP:  1.02D+00  1.09D+00  1.40D+00  1.27D+00  1.22D+00
                    CP:  1.46D+00  9.31D-01  1.07D+00
 E= -3010.53568409442     Delta-E=       -0.000000000135 Rises=F Damp=F
 DIIS: error= 1.65D-07 at cycle  14 NSaved=  14.
 NSaved=14 IEnMin=14 EnMin= -3010.53568409442     IErMin=14 ErrMin= 1.65D-07
 ErrMax= 1.65D-07  0.00D+00 EMaxC= 1.00D-01 BMatC= 8.89D-12 BMatP= 7.60D-11
 IDIUse=1 WtCom= 1.00D+00 WtEn= 0.00D+00
 Coeff-Com: -0.223D-05 0.316D-05-0.346D-05-0.315D-04-0.175D-03-0.438D-03
 Coeff-Com: -0.507D-03 0.154D-02 0.848D-02 0.534D-02-0.773D-01-0.137D-01
 Coeff-Com:  0.328D+00 0.749D+00
 Coeff:     -0.223D-05 0.316D-05-0.346D-05-0.315D-04-0.175D-03-0.438D-03
 Coeff:     -0.507D-03 0.154D-02 0.848D-02 0.534D-02-0.773D-01-0.137D-01
 Coeff:      0.328D+00 0.749D+00
 Gap=     0.256 Goal=   None    Shift=    0.000
 RMSDP=6.36D-08 MaxDP=5.07D-06 DE=-1.35D-10 OVMax= 3.26D-06

 Cycle  15  Pass 1  IDiag  1:
 RMSU=  3.25D-08    CP:  5.50D-01  2.47D+00  1.99D+00  9.00D-01  8.51D-01
                    CP:  1.02D+00  1.09D+00  1.40D+00  1.27D+00  1.22D+00
                    CP:  1.47D+00  9.61D-01  1.14D+00  1.08D+00
 E= -3010.53568409446     Delta-E=       -0.000000000046 Rises=F Damp=F
 DIIS: error= 9.68D-08 at cycle  15 NSaved=  15.
 NSaved=15 IEnMin=15 EnMin= -3010.53568409446     IErMin=15 ErrMin= 9.68D-08
 ErrMax= 9.68D-08  0.00D+00 EMaxC= 1.00D-01 BMatC= 1.30D-12 BMatP= 8.89D-12
 IDIUse=1 WtCom= 1.00D+00 WtEn= 0.00D+00
 Coeff-Com:  0.319D-05-0.426D-05-0.921D-07-0.523D-05 0.505D-05-0.336D-04
 Coeff-Com: -0.113D-03 0.151D-04 0.163D-02 0.386D-02-0.116D-01-0.198D-01
 Coeff-Com: -0.771D-01 0.227D+00 0.876D+00
 Coeff:      0.319D-05-0.426D-05-0.921D-07-0.523D-05 0.505D-05-0.336D-04
 Coeff:     -0.113D-03 0.151D-04 0.163D-02 0.386D-02-0.116D-01-0.198D-01
 Coeff:     -0.771D-01 0.227D+00 0.876D+00
 Gap=     0.256 Goal=   None    Shift=    0.000
 RMSDP=2.72D-08 MaxDP=1.06D-06 DE=-4.64D-11 OVMax= 1.05D-06

 Cycle  16  Pass 1  IDiag  1:
 RMSU=  1.64D-08    CP:  5.50D-01  2.47D+00  1.99D+00  9.00D-01  8.51D-01
                    CP:  1.02D+00  1.09D+00  1.40D+00  1.27D+00  1.22D+00
                    CP:  1.47D+00  9.63D-01  1.15D+00  1.18D+00  1.16D+00
 E= -3010.53568409445     Delta-E=        0.000000000011 Rises=F Damp=F
 DIIS: error= 2.25D-08 at cycle  16 NSaved=  16.
 NSaved=16 IEnMin=15 EnMin= -3010.53568409446     IErMin=16 ErrMin= 2.25D-08
 ErrMax= 2.25D-08  0.00D+00 EMaxC= 1.00D-01 BMatC= 2.26D-13 BMatP= 1.30D-12
 IDIUse=1 WtCom= 1.00D+00 WtEn= 0.00D+00
 Coeff-Com:  0.855D-06-0.116D-05 0.334D-06 0.281D-05 0.246D-04 0.449D-04
 Coeff-Com:  0.246D-04-0.213D-03-0.576D-03 0.791D-03 0.549D-02-0.276D-02
 Coeff-Com: -0.722D-01-0.627D-02 0.313D+00 0.763D+00
 Coeff:      0.855D-06-0.116D-05 0.334D-06 0.281D-05 0.246D-04 0.449D-04
 Coeff:      0.246D-04-0.213D-03-0.576D-03 0.791D-03 0.549D-02-0.276D-02
 Coeff:     -0.722D-01-0.627D-02 0.313D+00 0.763D+00
 Gap=     0.256 Goal=   None    Shift=    0.000
 RMSDP=1.48D-08 MaxDP=7.19D-07 DE= 1.09D-11 OVMax= 4.21D-07

 Cycle  17  Pass 1  IDiag  1:
 RMSU=  5.42D-09    CP:  5.50D-01  2.47D+00  1.99D+00  9.00D-01  8.51D-01
                    CP:  1.02D+00  1.09D+00  1.40D+00  1.27D+00  1.22D+00
                    CP:  1.47D+00  9.68D-01  1.14D+00  1.21D+00  1.39D+00
                    CP:  1.17D+00
 E= -3010.53568409442     Delta-E=        0.000000000030 Rises=F Damp=F
 DIIS: error= 1.00D-08 at cycle  17 NSaved=  17.
 NSaved=17 IEnMin=15 EnMin= -3010.53568409446     IErMin=17 ErrMin= 1.00D-08
 ErrMax= 1.00D-08  0.00D+00 EMaxC= 1.00D-01 BMatC= 3.57D-14 BMatP= 2.26D-13
 IDIUse=1 WtCom= 1.00D+00 WtEn= 0.00D+00
 Coeff-Com: -0.115D-06 0.149D-06 0.125D-06 0.125D-05 0.491D-05 0.152D-04
 Coeff-Com:  0.238D-04-0.444D-04-0.393D-03-0.239D-03 0.291D-02 0.297D-02
 Coeff-Com: -0.108D-01-0.374D-01-0.686D-01 0.136D+00 0.976D+00
 Coeff:     -0.115D-06 0.149D-06 0.125D-06 0.125D-05 0.491D-05 0.152D-04
 Coeff:      0.238D-04-0.444D-04-0.393D-03-0.239D-03 0.291D-02 0.297D-02
 Coeff:     -0.108D-01-0.374D-01-0.686D-01 0.136D+00 0.976D+00
 Gap=     0.256 Goal=   None    Shift=    0.000
 RMSDP=9.25D-09 MaxDP=7.49D-07 DE= 3.00D-11 OVMax= 3.76D-07

 SCF Done:  E(RwB97XD) =  -3010.53568409     A.U. after   17 cycles
            NFock= 17  Conv=0.92D-08     -V/T= 2.0016
 KE= 3.005853445089D+03 PE=-8.632298774009D+03 EE= 1.876535287685D+03
 Leave Link  502 at Wed May  1 14:44:41 2024, MaxMem=  1207959552 cpu:             958.9 elap:             959.0
 (Enter /software/gaussian/g16-c01/sse4/g16/l601.exe)
 Copying SCF densities to generalized density rwf, IOpCl= 0 IROHF=0.

 **********************************************************************

            Population analysis using the SCF Density.

 **********************************************************************

 Alpha  occ. eigenvalues -- -483.31135 -62.86160 -56.65851 -56.65281 -56.65278
 Alpha  occ. eigenvalues --  -19.46125 -19.46052 -14.85616 -10.58167 -10.57445
 Alpha  occ. eigenvalues --  -10.57185 -10.56956 -10.56613 -10.52809  -9.01966
 Alpha  occ. eigenvalues --   -6.84640  -6.82773  -6.82758  -2.94545  -2.94050
 Alpha  occ. eigenvalues --   -2.94036  -2.92543  -2.92543  -1.49888  -1.32869
 Alpha  occ. eigenvalues --   -1.22564  -1.14007  -1.11661  -1.04304  -1.01060
 Alpha  occ. eigenvalues --   -0.95362  -0.90896  -0.85313  -0.80813  -0.80626
 Alpha  occ. eigenvalues --   -0.80176  -0.78200  -0.76296  -0.75820  -0.72198
 Alpha  occ. eigenvalues --   -0.69220  -0.67449  -0.63594  -0.60032  -0.57374
 Alpha  occ. eigenvalues --   -0.56472  -0.56260  -0.55859  -0.55125
 Alpha virt. eigenvalues --   -0.29513  -0.21422  -0.15521  -0.13357  -0.08527
 Alpha virt. eigenvalues --   -0.05963  -0.05482  -0.04748  -0.04506  -0.03108
 Alpha virt. eigenvalues --   -0.02412  -0.02227  -0.01241  -0.00861   0.00522
 Alpha virt. eigenvalues --    0.01023   0.01656   0.01902   0.02643   0.02890
 Alpha virt. eigenvalues --    0.04481   0.04854   0.05028   0.06014   0.06608
 Alpha virt. eigenvalues --    0.07113   0.07362   0.07748   0.08698   0.09388
 Alpha virt. eigenvalues --    0.10612   0.10995   0.11054   0.11881   0.12328
 Alpha virt. eigenvalues --    0.12699   0.13032   0.13358   0.15000   0.16097
 Alpha virt. eigenvalues --    0.16468   0.17221   0.17620   0.18414   0.18948
 Alpha virt. eigenvalues --    0.19319   0.20716   0.21133   0.21632   0.24187
 Alpha virt. eigenvalues --    0.24872   0.27341   0.28023   0.29398   0.31499
 Alpha virt. eigenvalues --    0.32954   0.33282   0.34061   0.34492   0.35902
 Alpha virt. eigenvalues --    0.37250   0.37808   0.39082   0.40676   0.41748
 Alpha virt. eigenvalues --    0.42578   0.43700   0.44146   0.46382   0.47305
 Alpha virt. eigenvalues --    0.47649   0.50175   0.50824   0.52279   0.53384
 Alpha virt. eigenvalues --    0.54125   0.55155   0.56690   0.56919   0.59430
 Alpha virt. eigenvalues --    0.61325   0.62259   0.64160   0.66880   0.68624
 Alpha virt. eigenvalues --    0.70252   0.71918   0.72714   0.73276   0.74262
 Alpha virt. eigenvalues --    0.74505   0.79158   0.79843   0.83045   0.85059
 Alpha virt. eigenvalues --    0.86360   0.87779   0.91751   0.93003   0.98380
 Alpha virt. eigenvalues --    0.99266   1.00981   1.04595   1.05271   1.06518
 Alpha virt. eigenvalues --    1.08998   1.10791   1.11757   1.12199   1.13913
 Alpha virt. eigenvalues --    1.21729   1.24378   1.26611   1.32976   1.36486
 Alpha virt. eigenvalues --    1.36871   1.38010   1.45156   1.54329   1.57058
 Alpha virt. eigenvalues --    1.58325   1.58645   1.60558   1.62270   1.66324
 Alpha virt. eigenvalues --    1.69032   1.69716   1.73566   1.75048   1.79020
 Alpha virt. eigenvalues --    1.81167   1.85428   1.87301   1.93461   1.95552
 Alpha virt. eigenvalues --    1.97764   2.02800   2.03725   2.06866   2.08047
 Alpha virt. eigenvalues --    2.09587   2.14738   2.20366   2.22544   2.29384
 Alpha virt. eigenvalues --    2.37485   2.41034   2.42512   2.43449   2.52471
 Alpha virt. eigenvalues --    2.56687   2.63012   2.66058   2.68155   2.71474
 Alpha virt. eigenvalues --    2.73175   2.76259   2.77245   2.80792   2.81717
 Alpha virt. eigenvalues --    2.93519   2.96322   3.00386   3.05587   3.08868
 Alpha virt. eigenvalues --    3.12947   3.14905   3.19054   3.23456   3.24264
 Alpha virt. eigenvalues --    3.27055   3.38985   3.47655   3.51115   3.54320
 Alpha virt. eigenvalues --    3.56693   3.69673   3.73833   3.82161   3.87151
 Alpha virt. eigenvalues --    4.08986   4.09218   4.16706   4.21926   4.42745
 Alpha virt. eigenvalues --    4.44053   4.57423   4.59675   4.92894   4.95556
 Alpha virt. eigenvalues --    5.04207   5.08374   5.62550   6.15470   6.64696
 Alpha virt. eigenvalues --    7.47662   7.49237   7.59012  23.21313  23.61290
 Alpha virt. eigenvalues --   23.69632  23.79465  23.96052  24.01380  35.32342
 Alpha virt. eigenvalues --   47.91274  49.85297  49.94108 289.80603 289.82271
 Alpha virt. eigenvalues --  289.947121020.91695
          Condensed to atoms (all electrons):
               1          2          3          4          5          6
     1  C    8.780066  -2.276356   0.233139  -1.549724  -0.621687   0.308861
     2  C   -2.276356  12.729652  -1.780466  -2.602773   0.751345  -0.014613
     3  C    0.233139  -1.780466  13.004381  -3.082708  -1.260975   0.023042
     4  C   -1.549724  -2.602773  -3.082708  14.570686   1.252659   0.010085
     5  C   -0.621687   0.751345  -1.260975   1.252659   7.335002   0.015961
     6  H    0.308861  -0.014613   0.023042   0.010085   0.015961   0.334133
     7  H    0.066758   0.233236   0.077596  -0.032855  -0.019889  -0.001814
     8  H    0.003471  -0.010215   0.071409   0.250151  -0.017805   0.000001
     9  H    0.030306  -0.012476   0.003155  -0.006280   0.311050  -0.002277
    10  N   -0.139943   0.339416  -0.917896   0.316041   0.019352  -0.000613
    11  O    0.014538  -0.065736  -0.261420  -0.015361  -0.055581  -0.000022
    12  O    0.318912  -0.037531  -0.280923  -0.082340  -0.042855   0.000011
    13  C    1.376322  -1.775474   0.838752  -3.297854  -1.704612  -0.008085
    14  H   -0.009392  -0.003723   0.004824  -0.063095  -0.025919  -0.000053
    15  Br   0.044508   0.005063   0.047477   0.050325   0.057245  -0.000394
               7          8          9         10         11         12
     1  C    0.066758   0.003471   0.030306  -0.139943   0.014538   0.318912
     2  C    0.233236  -0.010215  -0.012476   0.339416  -0.065736  -0.037531
     3  C    0.077596   0.071409   0.003155  -0.917896  -0.261420  -0.280923
     4  C   -0.032855   0.250151  -0.006280   0.316041  -0.015361  -0.082340
     5  C   -0.019889  -0.017805   0.311050   0.019352  -0.055581  -0.042855
     6  H   -0.001814   0.000001  -0.002277  -0.000613  -0.000022   0.000011
     7  H    0.302904  -0.000001   0.000013  -0.025753  -0.001491   0.021818
     8  H   -0.000001   0.296223   0.000104  -0.023632   0.022243  -0.000888
     9  H    0.000013   0.000104   0.322510   0.000395   0.000005   0.000006
    10  N   -0.025753  -0.023632   0.000395   7.334244   0.196324   0.161271
    11  O   -0.001491   0.022243   0.000005   0.196324   7.838068  -0.000432
    12  O    0.021818  -0.000888   0.000006   0.161271  -0.000432   7.874793
    13  C    0.014922   0.038473   0.003141  -0.156376   0.301776   0.042373
    14  H   -0.000018  -0.004181  -0.005405  -0.000254  -0.000259  -0.000071
    15  Br  -0.000093   0.002240   0.000926   0.004059   0.000323   0.002011
              13         14         15
     1  C    1.376322  -0.009392   0.044508
     2  C   -1.775474  -0.003723   0.005063
     3  C    0.838752   0.004824   0.047477
     4  C   -3.297854  -0.063095   0.050325
     5  C   -1.704612  -0.025919   0.057245
     6  H   -0.008085  -0.000053  -0.000394
     7  H    0.014922  -0.000018  -0.000093
     8  H    0.038473  -0.004181   0.002240
     9  H    0.003141  -0.005405   0.000926
    10  N   -0.156376  -0.000254   0.004059
    11  O    0.301776  -0.000259   0.000323
    12  O    0.042373  -0.000071   0.002011
    13  C   10.427391   0.401677  -0.033830
    14  H    0.401677   0.341103  -0.040672
    15  Br  -0.033830  -0.040672  34.680808
 Mulliken charges:
               1
     1  C   -0.579778
     2  C    0.520651
     3  C   -0.719387
     4  C    0.283044
     5  C    0.006709
     6  H    0.335778
     7  H    0.364667
     8  H    0.372408
     9  H    0.354826
    10  N   -0.106635
    11  O    0.027025
    12  O    0.023847
    13  C   -0.468597
    14  H    0.405437
    15  Br   0.180004
 Sum of Mulliken charges =   1.00000
 Mulliken charges with hydrogens summed into heavy atoms:
               1
     1  C   -0.243999
     2  C    0.885318
     3  C   -0.719387
     4  C    0.655451
     5  C    0.361535
    10  N   -0.106635
    11  O    0.027025
    12  O    0.023847
    13  C   -0.063160
    15  Br   0.180004
 Electronic spatial extent (au):  <R**2>=           2798.7727
 Charge=              1.0000 electrons
 Dipole moment (field-independent basis, Debye):
    X=             -1.0973    Y=             -0.6170    Z=             -0.0419  Tot=              1.2596
 Quadrupole moment (field-independent basis, Debye-Ang):
   XX=            -71.8768   YY=            -51.9612   ZZ=            -62.5538
   XY=              1.3427   XZ=              1.1799   YZ=              1.7237
 Traceless Quadrupole moment (field-independent basis, Debye-Ang):
   XX=             -9.7462   YY=             10.1694   ZZ=             -0.4232
   XY=              1.3427   XZ=              1.1799   YZ=              1.7237
 Octapole moment (field-independent basis, Debye-Ang**2):
  XXX=           -303.1978  YYY=             87.3623  ZZZ=             77.1254  XYY=            -76.7502
  XXY=             29.9109  XXZ=             32.1987  XZZ=            -78.4507  YZZ=             16.0434
  YYZ=             25.2088  XYZ=             -3.5138
 Hexadecapole moment (field-independent basis, Debye-Ang**3):
 XXXX=          -2294.9485 YYYY=           -675.9942 ZZZZ=           -346.9177 XXXY=            -68.3467
 XXXZ=            -21.1078 YYYX=            -59.3019 YYYZ=           -154.8196 ZZZX=            -17.8081
 ZZZY=           -134.9263 XXYY=           -457.2992 XXZZ=           -370.4986 YYZZ=           -162.7222
 XXYZ=            -54.3594 YYXZ=             -1.7177 ZZXY=             -8.2231
 N-N= 7.393743571409D+02 E-N=-8.632298773336D+03  KE= 3.005853445089D+03
 No NMR shielding tensors so no spin-rotation constants.
 Leave Link  601 at Wed May  1 14:44:49 2024, MaxMem=  1207959552 cpu:               7.2 elap:               7.3
 (Enter /software/gaussian/g16-c01/sse4/g16/l9999.exe)
 Unable to Open any file for archive entry.
 1\1\GINC-BHX0016\SP\RwB97XD\6-311+G(d)\C6H5Br1N1O2(1+)\BWEIGHT\01-May-
 2024\0\\#P wB97XD/6-311+G* NoSymm #P Field=X+9\\TitleMe\\1,1\C,0,0.029
 5,1.3397,0.0682\C,0,1.4348,1.2867,0.0064\C,0,2.1118,0.0511,-0.0054\C,0
 ,1.4451,-1.1372,0.0312\C,0,-0.6879,0.1682,0.11\H,0,-0.4713,2.2984,0.07
 81\H,0,2.0273,2.1965,-0.0322\H,0,1.9897,-2.0764,0.0232\H,0,-1.7716,0.1
 804,0.1582\N,0,3.5864,0.051,-0.0675\O,0,4.1471,-1.0597,-0.0881\O,0,4.1
 45,1.1639,-0.0901\C,0,-0.0236,-1.1458,0.0835\H,0,-0.4367,-1.8725,0.788
 9\Br,0,-0.5359,-1.8697,-1.7408\\Version=ES64L-G16RevC.01\HF=-3010.5356
 841\RMSD=9.245e-09\Dipole=-2.3382582,0.9053531,1.1296932\Quadrupole=-7
 .2460416,7.5606755,-0.3146339,0.9982362,0.87723,1.281523\PG=C01 [X(C6H
 5Br1N1O2)]\\@
 The archive entry for this job was punched.


 THEORY:  SUPPOSITION WHICH HAS SCIENTIFIC BASIS,
          BUT NOT EXPERIMENTALLY PROVEN.
 FACT:    A THEORY WHICH HAS BEEN PROVEN BY ENOUGH 
          MONEY TO PAY FOR THE EXPERIMENTS.

                          --  THE WIZARD OF ID
 Job cpu time:       0 days  0 hours 17 minutes  6.0 seconds.
 Elapsed time:       0 days  0 hours 17 minutes  6.4 seconds.
 File lengths (MBytes):  RWF=     40 Int=      0 D2E=      0 Chk=     32 Scr=      1
 Normal termination of Gaussian 16 at Wed May  1 14:44:50 2024.
