 Entering Gaussian System, Link 0=g16
 Initial command:
 /software/gaussian/g16-c01/sse4/g16/l1.exe "/local_scratch/24665356/Gau-10229.inp" -scrdir="/local_scratch/24665356/"
 Entering Link 1 = /software/gaussian/g16-c01/sse4/g16/l1.exe PID=     10251.
  
 Copyright (c) 1988-2019, Gaussian, Inc.  All Rights Reserved.
  
 This is part of the Gaussian(R) 16 program.  It is based on
 the Gaussian(R) 09 system (copyright 2009, Gaussian, Inc.),
 the Gaussian(R) 03 system (copyright 2003, Gaussian, Inc.),
 the Gaussian(R) 98 system (copyright 1998, Gaussian, Inc.),
 the Gaussian(R) 94 system (copyright 1995, Gaussian, Inc.),
 the Gaussian 92(TM) system (copyright 1992, Gaussian, Inc.),
 the Gaussian 90(TM) system (copyright 1990, Gaussian, Inc.),
 the Gaussian 88(TM) system (copyright 1988, Gaussian, Inc.),
 the Gaussian 86(TM) system (copyright 1986, Carnegie Mellon
 University), and the Gaussian 82(TM) system (copyright 1983,
 Carnegie Mellon University). Gaussian is a federally registered
 trademark of Gaussian, Inc.
  
 This software contains proprietary and confidential information,
 including trade secrets, belonging to Gaussian, Inc.
  
 This software is provided under written license and may be
 used, copied, transmitted, or stored only in accord with that
 written license.
  
 The following legend is applicable only to US Government
 contracts under FAR:
  
                    RESTRICTED RIGHTS LEGEND
  
 Use, reproduction and disclosure by the US Government is
 subject to restrictions as set forth in subparagraphs (a)
 and (c) of the Commercial Computer Software - Restricted
 Rights clause in FAR 52.227-19.
  
 Gaussian, Inc.
 340 Quinnipiac St., Bldg. 40, Wallingford CT 06492
  
  
 ---------------------------------------------------------------
 Warning -- This program may not be used in any manner that
 competes with the business of Gaussian, Inc. or will provide
 assistance to any competitor of Gaussian, Inc.  The licensee
 of this program is prohibited from giving any competitor of
 Gaussian, Inc. access to this program.  By using this program,
 the user acknowledges that Gaussian, Inc. is engaged in the
 business of creating and licensing software in the field of
 computational chemistry and represents and warrants to the
 licensee that it is not a competitor of Gaussian, Inc. and that
 it will not use this program in any manner prohibited above.
 ---------------------------------------------------------------
  

 Cite this work as:
 Gaussian 16, Revision C.01,
 M. J. Frisch, G. W. Trucks, H. B. Schlegel, G. E. Scuseria, 
 M. A. Robb, J. R. Cheeseman, G. Scalmani, V. Barone, 
 G. A. Petersson, H. Nakatsuji, X. Li, M. Caricato, A. V. Marenich, 
 J. Bloino, B. G. Janesko, R. Gomperts, B. Mennucci, H. P. Hratchian, 
 J. V. Ortiz, A. F. Izmaylov, J. L. Sonnenberg, D. Williams-Young, 
 F. Ding, F. Lipparini, F. Egidi, J. Goings, B. Peng, A. Petrone, 
 T. Henderson, D. Ranasinghe, V. G. Zakrzewski, J. Gao, N. Rega, 
 G. Zheng, W. Liang, M. Hada, M. Ehara, K. Toyota, R. Fukuda, 
 J. Hasegawa, M. Ishida, T. Nakajima, Y. Honda, O. Kitao, H. Nakai, 
 T. Vreven, K. Throssell, J. A. Montgomery, Jr., J. E. Peralta, 
 F. Ogliaro, M. J. Bearpark, J. J. Heyd, E. N. Brothers, K. N. Kudin, 
 V. N. Staroverov, T. A. Keith, R. Kobayashi, J. Normand, 
 K. Raghavachari, A. P. Rendell, J. C. Burant, S. S. Iyengar, 
 J. Tomasi, M. Cossi, J. M. Millam, M. Klene, C. Adamo, R. Cammi, 
 J. W. Ochterski, R. L. Martin, K. Morokuma, O. Farkas, 
 J. B. Foresman, and D. J. Fox, Gaussian, Inc., Wallingford CT, 2019.
 
 ******************************************
 Gaussian 16:  ES64L-G16RevC.01  3-Jul-2019
                 2-May-2024 
 ******************************************
 %chk=geometry.chk
 %mem=1GB
 %nprocshared=12
 Will use up to   12 processors via shared memory.
 ----------------------------------------
 #P wB97XD/6-311+G* NoSymm #P Field=Z-262
 ----------------------------------------
 1/38=1,172=1/1;
 2/12=2,15=1,17=6,18=5,40=1/2;
 3/5=4,6=6,7=11,11=2,14=3,15=-262,25=1,30=1,74=-58/1,2,3;
 4//1;
 5/5=2,38=5/2;
 6/7=2,8=2,9=2,10=2,28=1/1;
 99/5=1,9=1/99;
 Leave Link    1 at Thu May  2 13:58:19 2024, MaxMem=   134217728 cpu:               1.6 elap:               1.7
 (Enter /software/gaussian/g16-c01/sse4/g16/l101.exe)
 -------
 TitleMe
 -------
 Symbolic Z-matrix:
 Charge =  1 Multiplicity = 1
 C                     0.5193    1.233    -0.0319 
 C                     1.9445    1.2692   -0.0367 
 C                     2.6204    0.0928   -0.025 
 C                    -0.196     0.0301    0.001 
 H                    -0.0207    2.1742   -0.0434 
 H                     2.4828    2.2089   -0.0361 
 H                    -1.2777    0.0399    0.0117 
 N                     4.0921    0.0959    0.0366 
 O                     4.6393   -1.0217    0.1446 
 O                     4.6649    1.1984   -0.0233 
 C                     0.4943   -1.1671    0.021 
 H                    -0.0325   -2.1149    0.0545 
 C                     1.9629   -1.2165   -0.0211 
 H                     2.4436   -1.9631    0.6151 
 Br                    2.173    -1.9491   -1.9062 
 
 ITRead=  0  0  0  0  0  0  0  0  0  0  0  0  0  0  0
 MicOpt= -1 -1 -1 -1 -1 -1 -1 -1 -1 -1 -1 -1 -1 -1 -1
 NAtoms=     15 NQM=       15 NQMF=       0 NMMI=      0 NMMIF=      0
                NMic=       0 NMicF=      0.
                    Isotopes and Nuclear Properties:
 (Nuclear quadrupole moments (NQMom) in fm**2, nuclear magnetic moments (NMagM)
  in nuclear magnetons)

  Atom         1           2           3           4           5           6           7           8           9          10
 IAtWgt=          12          12          12          12           1           1           1          14          16          16
 AtmWgt=  12.0000000  12.0000000  12.0000000  12.0000000   1.0078250   1.0078250   1.0078250  14.0030740  15.9949146  15.9949146
 NucSpn=           0           0           0           0           1           1           1           2           0           0
 AtZEff=  -0.0000000  -0.0000000  -0.0000000  -0.0000000  -0.0000000  -0.0000000  -0.0000000  -0.0000000  -0.0000000  -0.0000000
 NQMom=    0.0000000   0.0000000   0.0000000   0.0000000   0.0000000   0.0000000   0.0000000   2.0440000   0.0000000   0.0000000
 NMagM=    0.0000000   0.0000000   0.0000000   0.0000000   2.7928460   2.7928460   2.7928460   0.4037610   0.0000000   0.0000000
 AtZNuc=   6.0000000   6.0000000   6.0000000   6.0000000   1.0000000   1.0000000   1.0000000   7.0000000   8.0000000   8.0000000

  Atom        11          12          13          14          15
 IAtWgt=          12           1          12           1          79
 AtmWgt=  12.0000000   1.0078250  12.0000000   1.0078250  78.9183361
 NucSpn=           0           1           0           1           3
 AtZEff=  -0.0000000  -0.0000000  -0.0000000  -0.0000000  -0.0000000
 NQMom=    0.0000000   0.0000000   0.0000000   0.0000000  31.3000000
 NMagM=    0.0000000   2.7928460   0.0000000   2.7928460   2.1063990
 AtZNuc=   6.0000000   1.0000000   6.0000000   1.0000000  35.0000000
 Leave Link  101 at Thu May  2 13:58:21 2024, MaxMem=   134217728 cpu:               1.9 elap:               1.9
 (Enter /software/gaussian/g16-c01/sse4/g16/l202.exe)
                          Input orientation:                          
 ---------------------------------------------------------------------
 Center     Atomic      Atomic             Coordinates (Angstroms)
 Number     Number       Type             X           Y           Z
 ---------------------------------------------------------------------
      1          6           0        0.519300    1.233000   -0.031900
      2          6           0        1.944500    1.269200   -0.036700
      3          6           0        2.620400    0.092800   -0.025000
      4          6           0       -0.196000    0.030100    0.001000
      5          1           0       -0.020700    2.174200   -0.043400
      6          1           0        2.482800    2.208900   -0.036100
      7          1           0       -1.277700    0.039900    0.011700
      8          7           0        4.092100    0.095900    0.036600
      9          8           0        4.639300   -1.021700    0.144600
     10          8           0        4.664900    1.198400   -0.023300
     11          6           0        0.494300   -1.167100    0.021000
     12          1           0       -0.032500   -2.114900    0.054500
     13          6           0        1.962900   -1.216500   -0.021100
     14          1           0        2.443600   -1.963100    0.615100
     15         35           0        2.173000   -1.949100   -1.906200
 ---------------------------------------------------------------------
                    Distance matrix (angstroms):
                    1          2          3          4          5
     1  C    0.000000
     2  C    1.425668   0.000000
     3  C    2.390549   1.356796   0.000000
     4  C    1.399895   2.473566   2.817218   0.000000
     5  H    1.085168   2.163581   3.362733   2.151712   0.000000
     6  H    2.192654   1.082960   2.120598   3.453189   2.503751
     7  H    2.157452   3.449071   3.898632   1.081797   2.477564
     8  N    3.750012   2.448304   1.472992   4.288753   4.608780
     9  O    4.699917   3.541615   2.312322   4.950458   5.653735
    10  O    4.145753   2.721354   2.324292   4.999386   4.786171
    11  C    2.400813   2.835836   2.471794   1.382101   3.381369
    12  H    3.394169   3.920329   3.452266   2.151887   4.290233
    13  C    2.843264   2.485817   1.465124   2.493060   3.928360
    14  H    3.786370   3.334922   2.160489   3.364142   4.860416
    15  Br   4.046416   3.728900   2.812194   3.628609   5.028314
                    6          7          8          9         10
     6  H    0.000000
     7  H    4.341452   0.000000
     8  N    2.657047   5.370150   0.000000
     9  O    3.888434   6.012948   1.249048   0.000000
    10  O    2.404752   6.054572   1.243863   2.226587   0.000000
    11  C    3.918516   2.144043   3.813080   4.149391   4.794941
    12  H    5.003018   2.489080   4.679774   4.798846   5.748876
    13  C    3.464662   3.475788   2.501842   2.688591   3.623886
    14  H    4.222698   4.268978   2.700314   2.434893   3.916224
    15  Br   4.569706   4.420610   3.411663   3.338935   4.434144
                   11         12         13         14         15
    11  C    0.000000
    12  H    1.084880   0.000000
    13  C    1.470034   2.189625   0.000000
    14  H    2.187771   2.543302   1.092353   0.000000
    15  Br   2.672762   2.955683   2.033334   2.535818   0.000000
 Symmetry turned off by external request.
 Stoichiometry    C6H5BrNO2(1+)
 Framework group  C1[X(C6H5BrNO2)]
 Deg. of freedom    39
 Full point group                 C1      NOp   1
 Rotational constants (GHZ):           1.1632986           0.9594224           0.5957624
 Leave Link  202 at Thu May  2 13:58:23 2024, MaxMem=   134217728 cpu:               1.2 elap:               1.2
 (Enter /software/gaussian/g16-c01/sse4/g16/l301.exe)
 Standard basis: 6-311+G(d) (5D, 7F)
 Ernie: Thresh=  0.10000D-02 Tol=  0.10000D-05 Strict=F.
 The following finite field(s) will be applied:
 An electric field of              0.0000  0.0000 -0.0262
   261 basis functions,   443 primitive gaussians,   273 cartesian basis functions
    49 alpha electrons       49 beta electrons
       nuclear repulsion energy       772.8945969580 Hartrees.
 IExCor= 4639 DFT=T Ex+Corr=wB97XD ExCW=0 ScaHFX=  1.000000
 ScaDFX=  1.000000  1.000000  1.000000  1.000000 ScalE2=  1.000000  1.000000
 IRadAn=      5 IRanWt=     -1 IRanGd=            0 ICorTp=0 IEmpDi=121
 HFx  wShort=  0.000000 wLong=  0.200000 cFull=  0.222036 cShort=  0.000000 cLong=  0.777964
 DFx  wShort=  0.000000 wLong=  0.200000 cFull=  0.000000 cShort=  0.000000 cLong=  1.000000
 NAtoms=   15 NActive=   15 NUniq=   15 SFac= 1.00D+00 NAtFMM=   60 NAOKFM=F Big=F
 Integral buffers will be    131072 words long.
 Raffenetti 2 integral format.
 Two-electron integral symmetry is turned off.
 R6Disp:  Grimme-D2 Dispersion energy=       -0.0080346408 Hartrees.
 Nuclear repulsion after empirical dispersion term =      772.8865623173 Hartrees.
 Leave Link  301 at Thu May  2 13:58:24 2024, MaxMem=   134217728 cpu:               1.0 elap:               1.0
 (Enter /software/gaussian/g16-c01/sse4/g16/l302.exe)
 NPDir=0 NMtPBC=     1 NCelOv=     1 NCel=       1 NClECP=     1 NCelD=      1
         NCelK=      1 NCelE2=     1 NClLst=     1 CellRange=     0.0.
 One-electron integrals computed using PRISM.
 NBasis=   261 RedAO= T EigKep=  2.52D-06  NBF=   261
 NBsUse=   261 1.00D-06 EigRej= -1.00D+00 NBFU=   261
 Precomputing XC quadrature grid using
 IXCGrd= 4 IRadAn=           5 IRanWt=          -1 IRanGd=           0 AccXCQ= 0.00D+00.
 Generated NRdTot=       0 NPtTot=           0 NUsed=           0 NTot=          32
 NSgBfM=   273   273   273   273   273 MxSgAt=    15 MxSgA2=    15.
 Leave Link  302 at Thu May  2 13:58:46 2024, MaxMem=   134217728 cpu:              21.9 elap:              21.9
 (Enter /software/gaussian/g16-c01/sse4/g16/l303.exe)
 DipDrv:  MaxL=1.
 The nuclear repulsion energy is now       776.1267883221 hartrees.
 Leave Link  303 at Thu May  2 13:58:49 2024, MaxMem=   134217728 cpu:               3.4 elap:               3.4
 (Enter /software/gaussian/g16-c01/sse4/g16/l401.exe)
 ExpMin= 3.50D-02 ExpMax= 4.40D+05 ExpMxC= 1.51D+04 IAcc=3 IRadAn=         5 AccDes= 0.00D+00
 Harris functional with IExCor= 4639 and IRadAn=       5 diagonalized for initial guess.
 HarFok:  IExCor= 4639 AccDes= 0.00D+00 IRadAn=         5 IDoV= 1 UseB2=F ITyADJ=14
 ICtDFT=  3500011 ScaDFX=  1.000000  1.000000  1.000000  1.000000
 FoFCou: FMM=F IPFlag=           0 FMFlag=      100000 FMFlg1=           0
         NFxFlg=           0 DoJE=T BraDBF=F KetDBF=T FulRan=T
         wScrn=  0.000000 ICntrl=       500 IOpCl=  0 I1Cent=   200000004 NGrid=           0
         NMat0=    1 NMatS0=      1 NMatT0=    0 NMatD0=    1 NMtDS0=    0 NMtDT0=    0
 Symmetry not used in FoFCou.
 Harris En= -2970.76870167414    
 JPrj=0 DoOrth=F DoCkMO=F.
 Leave Link  401 at Thu May  2 13:59:20 2024, MaxMem=   134217728 cpu:              30.9 elap:              31.0
 (Enter /software/gaussian/g16-c01/sse4/g16/l502.exe)
 Two-electron integral symmetry not used.
 Closed shell SCF:
 Using DIIS extrapolation, IDIIS=  1040.
 NGot=   134217728 LenX=   134063053 LenY=   133988083
 Requested convergence on RMS density matrix=1.00D-08 within 128 cycles.
 Requested convergence on MAX density matrix=1.00D-06.
 Requested convergence on             energy=1.00D-06.
 No special actions if energy rises.
 Fock matrices will be formed incrementally for  20 cycles.

 Cycle   1  Pass 1  IDiag  1:
 FoFJK:  IHMeth= 1 ICntrl=       0 DoSepK=T KAlg= 0 I1Cent=           0 FoldK=F
 IRaf=         1 NMat=       1 IRICut=       1 DoRegI=T DoRafI=F ISym2E= 0 IDoP0=0 IntGTp=1.
 FoFCou: FMM=F IPFlag=           0 FMFlag=      100000 FMFlg1=           0
         NFxFlg=           0 DoJE=T BraDBF=F KetDBF=F FulRan=T
         wScrn=  0.000000 ICntrl=       500 IOpCl=  0 I1Cent=           0 NGrid=           0
         NMat0=    1 NMatS0=      1 NMatT0=    0 NMatD0=    1 NMtDS0=    0 NMtDT0=    0
 Symmetry not used in FoFCou.
 E= -3008.13675146949    
 DIIS: error= 2.93D-01 at cycle   1 NSaved=   1.
 NSaved= 1 IEnMin= 1 EnMin= -3008.13675146949     IErMin= 1 ErrMin= 2.93D-01
 ErrMax= 2.93D-01  0.00D+00 EMaxC= 1.00D-01 BMatC= 1.25D+01 BMatP= 1.25D+01
 IDIUse=3 WtCom= 0.00D+00 WtEn= 1.00D+00
 Coeff-Com:  0.100D+01
 Coeff-En:   0.100D+01
 Coeff:      0.100D+01
 Gap=     0.120 Goal=   None    Shift=    0.000
 GapD=    0.120 DampG=1.000 DampE=0.250 DampFc=0.2500 IDamp=-1.
 Damping current iteration by 2.50D-01
 RMSDP=3.20D+00 MaxDP=3.38D+02              OVMax= 8.93D-01

 Cycle   2  Pass 1  IDiag  1:
 RMSU=  2.65D-02    CP:  7.54D-01
 E= -3008.73622621769     Delta-E=       -0.599474748195 Rises=F Damp=T
 DIIS: error= 2.20D-01 at cycle   2 NSaved=   2.
 NSaved= 2 IEnMin= 2 EnMin= -3008.73622621769     IErMin= 2 ErrMin= 2.20D-01
 ErrMax= 2.20D-01  0.00D+00 EMaxC= 1.00D-01 BMatC= 5.64D+00 BMatP= 1.25D+01
 IDIUse=3 WtCom= 0.00D+00 WtEn= 1.00D+00
 Coeff-Com: -0.134D+01 0.234D+01
 Coeff-En:   0.162D+00 0.838D+00
 Coeff:      0.162D+00 0.838D+00
 Gap=     0.596 Goal=   None    Shift=    0.000
 RMSDP=2.40D+00 MaxDP=2.53D+02 DE=-5.99D-01 OVMax= 7.42D-01

 Cycle   3  Pass 1  IDiag  1:
 RMSU=  2.25D-02    CP:  1.58D-02  2.75D+00
 E= -3010.06840938299     Delta-E=       -1.332183165304 Rises=F Damp=F
 DIIS: error= 8.36D-02 at cycle   3 NSaved=   3.
 NSaved= 3 IEnMin= 3 EnMin= -3010.06840938299     IErMin= 3 ErrMin= 8.36D-02
 ErrMax= 8.36D-02  0.00D+00 EMaxC= 1.00D-01 BMatC= 1.46D+00 BMatP= 5.64D+00
 IDIUse=3 WtCom= 1.64D-01 WtEn= 8.36D-01
 Coeff-Com:  0.114D+00 0.142D+00 0.744D+00
 Coeff-En:   0.850D-01 0.000D+00 0.915D+00
 Coeff:      0.898D-01 0.233D-01 0.887D+00
 Gap=     0.221 Goal=   None    Shift=    0.000
 RMSDP=3.47D-02 MaxDP=2.49D+00 DE=-1.33D+00 OVMax= 3.00D-01

 Cycle   4  Pass 1  IDiag  1:
 RMSU=  3.10D-02    CP:  1.59D-02  2.20D+00  7.63D-01
 E= -3010.17043950469     Delta-E=       -0.102030121699 Rises=F Damp=F
 DIIS: error= 6.05D-02 at cycle   4 NSaved=   4.
 NSaved= 4 IEnMin= 4 EnMin= -3010.17043950469     IErMin= 4 ErrMin= 6.05D-02
 ErrMax= 6.05D-02  0.00D+00 EMaxC= 1.00D-01 BMatC= 9.26D-01 BMatP= 1.46D+00
 IDIUse=3 WtCom= 3.95D-01 WtEn= 6.05D-01
 Coeff-Com:  0.758D-01-0.568D-01 0.475D+00 0.506D+00
 Coeff-En:   0.000D+00 0.000D+00 0.439D+00 0.561D+00
 Coeff:      0.299D-01-0.224D-01 0.453D+00 0.539D+00
 Gap=     0.295 Goal=   None    Shift=    0.000
 RMSDP=1.92D-02 MaxDP=1.90D+00 DE=-1.02D-01 OVMax= 2.08D-01

 Cycle   5  Pass 1  IDiag  1:
 RMSU=  8.99D-03    CP:  1.35D-02  2.03D+00  8.12D-01  5.39D-01
 E= -3010.47700316463     Delta-E=       -0.306563659945 Rises=F Damp=F
 DIIS: error= 3.67D-02 at cycle   5 NSaved=   5.
 NSaved= 5 IEnMin= 5 EnMin= -3010.47700316463     IErMin= 5 ErrMin= 3.67D-02
 ErrMax= 3.67D-02  0.00D+00 EMaxC= 1.00D-01 BMatC= 9.97D-02 BMatP= 9.26D-01
 IDIUse=3 WtCom= 6.33D-01 WtEn= 3.67D-01
 Coeff-Com:  0.421D-01-0.465D-01 0.276D+00 0.344D+00 0.384D+00
 Coeff-En:   0.000D+00 0.000D+00 0.000D+00 0.134D+00 0.866D+00
 Coeff:      0.266D-01-0.294D-01 0.175D+00 0.267D+00 0.561D+00
 Gap=     0.285 Goal=   None    Shift=    0.000
 RMSDP=7.52D-03 MaxDP=6.11D-01 DE=-3.07D-01 OVMax= 1.77D-01

 Cycle   6  Pass 1  IDiag  1:
 RMSU=  4.70D-03    CP:  1.38D-02  1.84D+00  7.92D-01  6.02D-01  7.53D-01
 E= -3010.52474463625     Delta-E=       -0.047741471618 Rises=F Damp=F
 DIIS: error= 2.30D-02 at cycle   6 NSaved=   6.
 NSaved= 6 IEnMin= 6 EnMin= -3010.52474463625     IErMin= 6 ErrMin= 2.30D-02
 ErrMax= 2.30D-02  0.00D+00 EMaxC= 1.00D-01 BMatC= 3.52D-02 BMatP= 9.97D-02
 IDIUse=3 WtCom= 7.70D-01 WtEn= 2.30D-01
 Coeff-Com:  0.348D-02-0.491D-02 0.359D-01 0.649D-01 0.372D+00 0.528D+00
 Coeff-En:   0.000D+00 0.000D+00 0.000D+00 0.000D+00 0.293D+00 0.707D+00
 Coeff:      0.268D-02-0.378D-02 0.276D-01 0.499D-01 0.354D+00 0.570D+00
 Gap=     0.243 Goal=   None    Shift=    0.000
 RMSDP=3.38D-03 MaxDP=3.48D-01 DE=-4.77D-02 OVMax= 8.00D-02

 Cycle   7  Pass 1  IDiag  1:
 RMSU=  1.55D-03    CP:  1.44D-02  1.88D+00  8.23D-01  5.74D-01  9.08D-01
                    CP:  7.34D-01
 E= -3010.54743689458     Delta-E=       -0.022692258328 Rises=F Damp=F
 DIIS: error= 3.76D-03 at cycle   7 NSaved=   7.
 NSaved= 7 IEnMin= 7 EnMin= -3010.54743689458     IErMin= 7 ErrMin= 3.76D-03
 ErrMax= 3.76D-03  0.00D+00 EMaxC= 1.00D-01 BMatC= 1.33D-03 BMatP= 3.52D-02
 IDIUse=3 WtCom= 9.62D-01 WtEn= 3.76D-02
 Coeff-Com:  0.144D-03-0.416D-03-0.106D-01-0.672D-02 0.135D+00 0.311D+00
 Coeff-Com:  0.572D+00
 Coeff-En:   0.000D+00 0.000D+00 0.000D+00 0.000D+00 0.000D+00 0.000D+00
 Coeff-En:   0.100D+01
 Coeff:      0.139D-03-0.400D-03-0.102D-01-0.647D-02 0.130D+00 0.299D+00
 Coeff:      0.588D+00
 Gap=     0.242 Goal=   None    Shift=    0.000
 RMSDP=1.04D-03 MaxDP=1.22D-01 DE=-2.27D-02 OVMax= 1.18D-02

 Cycle   8  Pass 1  IDiag  1:
 RMSU=  5.40D-04    CP:  1.43D-02  1.86D+00  8.15D-01  5.72D-01  9.36D-01
                    CP:  8.57D-01  9.15D-01
 E= -3010.54835257582     Delta-E=       -0.000915681237 Rises=F Damp=F
 DIIS: error= 6.83D-04 at cycle   8 NSaved=   8.
 NSaved= 8 IEnMin= 8 EnMin= -3010.54835257582     IErMin= 8 ErrMin= 6.83D-04
 ErrMax= 6.83D-04  0.00D+00 EMaxC= 1.00D-01 BMatC= 8.40D-05 BMatP= 1.33D-03
 IDIUse=3 WtCom= 9.93D-01 WtEn= 6.83D-03
 Coeff-Com: -0.114D-02 0.123D-02-0.760D-02-0.803D-02 0.124D-01 0.572D-01
 Coeff-Com:  0.269D+00 0.677D+00
 Coeff-En:   0.000D+00 0.000D+00 0.000D+00 0.000D+00 0.000D+00 0.000D+00
 Coeff-En:   0.000D+00 0.100D+01
 Coeff:     -0.113D-02 0.122D-02-0.755D-02-0.798D-02 0.123D-01 0.568D-01
 Coeff:      0.267D+00 0.679D+00
 Gap=     0.240 Goal=   None    Shift=    0.000
 RMSDP=3.84D-04 MaxDP=3.89D-02 DE=-9.16D-04 OVMax= 2.39D-03

 Cycle   9  Pass 1  IDiag  1:
 RMSU=  9.51D-05    CP:  1.44D-02  1.86D+00  8.17D-01  5.73D-01  9.46D-01
                    CP:  8.63D-01  9.99D-01  1.09D+00
 E= -3010.54841493290     Delta-E=       -0.000062357083 Rises=F Damp=F
 DIIS: error= 1.51D-04 at cycle   9 NSaved=   9.
 NSaved= 9 IEnMin= 9 EnMin= -3010.54841493290     IErMin= 9 ErrMin= 1.51D-04
 ErrMax= 1.51D-04  0.00D+00 EMaxC= 1.00D-01 BMatC= 4.92D-06 BMatP= 8.40D-05
 IDIUse=3 WtCom= 9.98D-01 WtEn= 1.51D-03
 Coeff-Com: -0.668D-03 0.847D-03-0.153D-02-0.181D-02-0.638D-02-0.620D-02
 Coeff-Com:  0.475D-01 0.256D+00 0.712D+00
 Coeff-En:   0.000D+00 0.000D+00 0.000D+00 0.000D+00 0.000D+00 0.000D+00
 Coeff-En:   0.000D+00 0.000D+00 0.100D+01
 Coeff:     -0.667D-03 0.846D-03-0.152D-02-0.181D-02-0.637D-02-0.619D-02
 Coeff:      0.475D-01 0.256D+00 0.713D+00
 Gap=     0.240 Goal=   None    Shift=    0.000
 RMSDP=8.91D-05 MaxDP=9.64D-03 DE=-6.24D-05 OVMax= 1.08D-03

 Cycle  10  Pass 1  IDiag  1:
 RMSU=  6.49D-05    CP:  1.44D-02  1.86D+00  8.17D-01  5.73D-01  9.44D-01
                    CP:  8.63D-01  9.97D-01  1.07D+00  8.52D-01
 E= -3010.54842142540     Delta-E=       -0.000006492504 Rises=F Damp=F
 DIIS: error= 8.35D-05 at cycle  10 NSaved=  10.
 NSaved=10 IEnMin=10 EnMin= -3010.54842142540     IErMin=10 ErrMin= 8.35D-05
 ErrMax= 8.35D-05  0.00D+00 EMaxC= 1.00D-01 BMatC= 1.04D-06 BMatP= 4.92D-06
 IDIUse=1 WtCom= 1.00D+00 WtEn= 0.00D+00
 Coeff-Com: -0.521D-03 0.740D-03 0.321D-03 0.275D-03-0.470D-02-0.109D-01
 Coeff-Com: -0.262D-01-0.155D-01 0.284D+00 0.773D+00
 Coeff:     -0.521D-03 0.740D-03 0.321D-03 0.275D-03-0.470D-02-0.109D-01
 Coeff:     -0.262D-01-0.155D-01 0.284D+00 0.773D+00
 Gap=     0.240 Goal=   None    Shift=    0.000
 RMSDP=4.73D-05 MaxDP=3.76D-03 DE=-6.49D-06 OVMax= 6.65D-04

 Cycle  11  Pass 1  IDiag  1:
 RMSU=  1.80D-05    CP:  1.44D-02  1.86D+00  8.17D-01  5.72D-01  9.42D-01
                    CP:  8.64D-01  9.96D-01  1.02D+00  8.72D-01  1.34D+00
 E= -3010.54842323019     Delta-E=       -0.000001804788 Rises=F Damp=F
 DIIS: error= 2.25D-05 at cycle  11 NSaved=  11.
 NSaved=11 IEnMin=11 EnMin= -3010.54842323019     IErMin=11 ErrMin= 2.25D-05
 ErrMax= 2.25D-05  0.00D+00 EMaxC= 1.00D-01 BMatC= 1.78D-07 BMatP= 1.04D-06
 IDIUse=1 WtCom= 1.00D+00 WtEn= 0.00D+00
 Coeff-Com: -0.322D-03 0.448D-03 0.189D-03 0.370D-03-0.397D-03-0.194D-02
 Coeff-Com: -0.165D-01-0.415D-01-0.169D-01 0.229D+00 0.847D+00
 Coeff:     -0.322D-03 0.448D-03 0.189D-03 0.370D-03-0.397D-03-0.194D-02
 Coeff:     -0.165D-01-0.415D-01-0.169D-01 0.229D+00 0.847D+00
 Gap=     0.240 Goal=   None    Shift=    0.000
 RMSDP=3.15D-05 MaxDP=2.97D-03 DE=-1.80D-06 OVMax= 4.51D-04

 Cycle  12  Pass 1  IDiag  1:
 RMSU=  8.25D-06    CP:  1.44D-02  1.86D+00  8.16D-01  5.72D-01  9.42D-01
                    CP:  8.63D-01  9.89D-01  1.02D+00  8.94D-01  1.52D+00
                    CP:  1.30D+00
 E= -3010.54842364071     Delta-E=       -0.000000410521 Rises=F Damp=F
 DIIS: error= 9.65D-06 at cycle  12 NSaved=  12.
 NSaved=12 IEnMin=12 EnMin= -3010.54842364071     IErMin=12 ErrMin= 9.65D-06
 ErrMax= 9.65D-06  0.00D+00 EMaxC= 1.00D-01 BMatC= 4.64D-08 BMatP= 1.78D-07
 IDIUse=1 WtCom= 1.00D+00 WtEn= 0.00D+00
 Coeff-Com: -0.144D-03 0.189D-03-0.590D-04 0.125D-03 0.776D-03 0.134D-02
 Coeff-Com: -0.838D-03-0.892D-02-0.632D-01-0.882D-01 0.286D+00 0.873D+00
 Coeff:     -0.144D-03 0.189D-03-0.590D-04 0.125D-03 0.776D-03 0.134D-02
 Coeff:     -0.838D-03-0.892D-02-0.632D-01-0.882D-01 0.286D+00 0.873D+00
 Gap=     0.240 Goal=   None    Shift=    0.000
 RMSDP=2.05D-05 MaxDP=2.23D-03 DE=-4.11D-07 OVMax= 3.15D-04

 Cycle  13  Pass 1  IDiag  1:
 RMSU=  3.05D-06    CP:  1.44D-02  1.86D+00  8.16D-01  5.73D-01  9.41D-01
                    CP:  8.63D-01  9.86D-01  1.00D+00  8.71D-01  1.62D+00
                    CP:  1.60D+00  1.38D+00
 E= -3010.54842377278     Delta-E=       -0.000000132065 Rises=F Damp=F
 DIIS: error= 7.78D-06 at cycle  13 NSaved=  13.
 NSaved=13 IEnMin=13 EnMin= -3010.54842377278     IErMin=13 ErrMin= 7.78D-06
 ErrMax= 7.78D-06  0.00D+00 EMaxC= 1.00D-01 BMatC= 8.18D-09 BMatP= 4.64D-08
 IDIUse=1 WtCom= 1.00D+00 WtEn= 0.00D+00
 Coeff-Com: -0.246D-04 0.311D-04-0.374D-04-0.199D-04 0.196D-03 0.481D-03
 Coeff-Com:  0.366D-02 0.884D-02-0.241D-03-0.517D-01-0.159D+00 0.126D+00
 Coeff-Com:  0.107D+01
 Coeff:     -0.246D-04 0.311D-04-0.374D-04-0.199D-04 0.196D-03 0.481D-03
 Coeff:      0.366D-02 0.884D-02-0.241D-03-0.517D-01-0.159D+00 0.126D+00
 Coeff:      0.107D+01
 Gap=     0.240 Goal=   None    Shift=    0.000
 RMSDP=1.04D-05 MaxDP=1.05D-03 DE=-1.32D-07 OVMax= 2.01D-04

 Cycle  14  Pass 1  IDiag  1:
 RMSU=  1.68D-06    CP:  1.44D-02  1.86D+00  8.16D-01  5.73D-01  9.40D-01
                    CP:  8.62D-01  9.84D-01  9.99D-01  8.65D-01  1.66D+00
                    CP:  1.73D+00  1.79D+00  1.64D+00
 E= -3010.54842380919     Delta-E=       -0.000000036412 Rises=F Damp=F
 DIIS: error= 2.80D-06 at cycle  14 NSaved=  14.
 NSaved=14 IEnMin=14 EnMin= -3010.54842380919     IErMin=14 ErrMin= 2.80D-06
 ErrMax= 2.80D-06  0.00D+00 EMaxC= 1.00D-01 BMatC= 1.26D-09 BMatP= 8.18D-09
 IDIUse=1 WtCom= 1.00D+00 WtEn= 0.00D+00
 Coeff-Com:  0.121D-04-0.152D-04 0.134D-05-0.305D-04-0.109D-03-0.151D-03
 Coeff-Com:  0.146D-02 0.483D-02 0.135D-01 0.216D-02-0.118D+00-0.135D+00
 Coeff-Com:  0.368D+00 0.864D+00
 Coeff:      0.121D-04-0.152D-04 0.134D-05-0.305D-04-0.109D-03-0.151D-03
 Coeff:      0.146D-02 0.483D-02 0.135D-01 0.216D-02-0.118D+00-0.135D+00
 Coeff:      0.368D+00 0.864D+00
 Gap=     0.240 Goal=   None    Shift=    0.000
 RMSDP=3.01D-06 MaxDP=2.72D-04 DE=-3.64D-08 OVMax= 9.62D-05

 Cycle  15  Pass 1  IDiag  1:
 RMSU=  7.93D-07    CP:  1.44D-02  1.86D+00  8.16D-01  5.73D-01  9.40D-01
                    CP:  8.62D-01  9.84D-01  9.98D-01  8.62D-01  1.66D+00
                    CP:  1.79D+00  1.94D+00  1.96D+00  1.48D+00
 E= -3010.54842381641     Delta-E=       -0.000000007217 Rises=F Damp=F
 DIIS: error= 1.76D-06 at cycle  15 NSaved=  15.
 NSaved=15 IEnMin=15 EnMin= -3010.54842381641     IErMin=15 ErrMin= 1.76D-06
 ErrMax= 1.76D-06  0.00D+00 EMaxC= 1.00D-01 BMatC= 2.13D-10 BMatP= 1.26D-09
 IDIUse=1 WtCom= 1.00D+00 WtEn= 0.00D+00
 Coeff-Com:  0.128D-04-0.172D-04 0.515D-05-0.177D-05-0.459D-04-0.713D-04
 Coeff-Com: -0.514D-03-0.137D-02 0.195D-03 0.859D-02 0.217D-01-0.296D-01
 Coeff-Com: -0.156D+00 0.561D-01 0.110D+01
 Coeff:      0.128D-04-0.172D-04 0.515D-05-0.177D-05-0.459D-04-0.713D-04
 Coeff:     -0.514D-03-0.137D-02 0.195D-03 0.859D-02 0.217D-01-0.296D-01
 Coeff:     -0.156D+00 0.561D-01 0.110D+01
 Gap=     0.240 Goal=   None    Shift=    0.000
 RMSDP=2.14D-06 MaxDP=1.81D-04 DE=-7.22D-09 OVMax= 4.79D-05

 Cycle  16  Pass 1  IDiag  1:
 RMSU=  3.11D-07    CP:  1.44D-02  1.86D+00  8.16D-01  5.73D-01  9.40D-01
                    CP:  8.62D-01  9.85D-01  9.98D-01  8.63D-01  1.67D+00
                    CP:  1.81D+00  2.00D+00  2.10D+00  1.93D+00  1.43D+00
 E= -3010.54842381791     Delta-E=       -0.000000001504 Rises=F Damp=F
 DIIS: error= 7.35D-07 at cycle  16 NSaved=  16.
 NSaved=16 IEnMin=16 EnMin= -3010.54842381791     IErMin=16 ErrMin= 7.35D-07
 ErrMax= 7.35D-07  0.00D+00 EMaxC= 1.00D-01 BMatC= 6.46D-11 BMatP= 2.13D-10
 IDIUse=1 WtCom= 1.00D+00 WtEn= 0.00D+00
 Coeff-Com:  0.629D-05-0.877D-05-0.992D-07 0.186D-05 0.178D-04 0.404D-04
 Coeff-Com: -0.290D-03-0.109D-02-0.300D-02-0.677D-03 0.259D-01 0.251D-01
 Coeff-Com: -0.791D-01-0.180D+00 0.670D-01 0.115D+01
 Coeff:      0.629D-05-0.877D-05-0.992D-07 0.186D-05 0.178D-04 0.404D-04
 Coeff:     -0.290D-03-0.109D-02-0.300D-02-0.677D-03 0.259D-01 0.251D-01
 Coeff:     -0.791D-01-0.180D+00 0.670D-01 0.115D+01
 Gap=     0.240 Goal=   None    Shift=    0.000
 RMSDP=1.13D-06 MaxDP=8.53D-05 DE=-1.50D-09 OVMax= 2.45D-05

 Cycle  17  Pass 1  IDiag  1:
 RMSU=  1.54D-07    CP:  1.44D-02  1.86D+00  8.16D-01  5.73D-01  9.40D-01
                    CP:  8.62D-01  9.85D-01  9.98D-01  8.63D-01  1.67D+00
                    CP:  1.81D+00  2.02D+00  2.17D+00  2.13D+00  1.76D+00
                    CP:  1.40D+00
 E= -3010.54842381821     Delta-E=       -0.000000000296 Rises=F Damp=F
 DIIS: error= 1.78D-07 at cycle  17 NSaved=  17.
 NSaved=17 IEnMin=17 EnMin= -3010.54842381821     IErMin=17 ErrMin= 1.78D-07
 ErrMax= 1.78D-07  0.00D+00 EMaxC= 1.00D-01 BMatC= 1.40D-11 BMatP= 6.46D-11
 IDIUse=1 WtCom= 1.00D+00 WtEn= 0.00D+00
 Coeff-Com:  0.200D-05-0.279D-05-0.755D-06-0.239D-06 0.168D-04 0.316D-04
 Coeff-Com:  0.268D-04-0.606D-04-0.103D-02-0.231D-02 0.385D-02 0.143D-01
 Coeff-Com:  0.986D-02-0.690D-01-0.194D+00 0.360D+00 0.879D+00
 Coeff:      0.200D-05-0.279D-05-0.755D-06-0.239D-06 0.168D-04 0.316D-04
 Coeff:      0.268D-04-0.606D-04-0.103D-02-0.231D-02 0.385D-02 0.143D-01
 Coeff:      0.986D-02-0.690D-01-0.194D+00 0.360D+00 0.879D+00
 Gap=     0.240 Goal=   None    Shift=    0.000
 RMSDP=2.59D-07 MaxDP=2.40D-05 DE=-2.96D-10 OVMax= 7.51D-06

 Cycle  18  Pass 1  IDiag  1:
 RMSU=  4.54D-08    CP:  1.44D-02  1.86D+00  8.16D-01  5.73D-01  9.40D-01
                    CP:  8.62D-01  9.85D-01  9.98D-01  8.64D-01  1.67D+00
                    CP:  1.82D+00  2.03D+00  2.19D+00  2.18D+00  1.88D+00
                    CP:  1.53D+00  1.35D+00
 E= -3010.54842381831     Delta-E=       -0.000000000102 Rises=F Damp=F
 DIIS: error= 7.20D-08 at cycle  18 NSaved=  18.
 NSaved=18 IEnMin=18 EnMin= -3010.54842381831     IErMin=18 ErrMin= 7.20D-08
 ErrMax= 7.20D-08  0.00D+00 EMaxC= 1.00D-01 BMatC= 1.66D-12 BMatP= 1.40D-11
 IDIUse=1 WtCom= 1.00D+00 WtEn= 0.00D+00
 Coeff-Com:  0.204D-06-0.254D-06 0.308D-06-0.264D-06 0.381D-05 0.436D-05
 Coeff-Com:  0.550D-04 0.151D-03 0.175D-03-0.611D-03-0.325D-02-0.161D-03
 Coeff-Com:  0.163D-01 0.129D-01-0.581D-01-0.105D+00 0.179D+00 0.958D+00
 Coeff:      0.204D-06-0.254D-06 0.308D-06-0.264D-06 0.381D-05 0.436D-05
 Coeff:      0.550D-04 0.151D-03 0.175D-03-0.611D-03-0.325D-02-0.161D-03
 Coeff:      0.163D-01 0.129D-01-0.581D-01-0.105D+00 0.179D+00 0.958D+00
 Gap=     0.240 Goal=   None    Shift=    0.000
 RMSDP=7.36D-08 MaxDP=5.32D-06 DE=-1.02D-10 OVMax= 2.44D-06

 Cycle  19  Pass 1  IDiag  1:
 RMSU=  2.10D-08    CP:  1.44D-02  1.86D+00  8.16D-01  5.73D-01  9.40D-01
                    CP:  8.62D-01  9.85D-01  9.98D-01  8.64D-01  1.67D+00
                    CP:  1.82D+00  2.03D+00  2.19D+00  2.19D+00  1.91D+00
                    CP:  1.57D+00  1.52D+00  1.33D+00
 E= -3010.54842381830     Delta-E=        0.000000000014 Rises=F Damp=F
 DIIS: error= 2.29D-08 at cycle  19 NSaved=  19.
 NSaved=19 IEnMin=18 EnMin= -3010.54842381831     IErMin=19 ErrMin= 2.29D-08
 ErrMax= 2.29D-08  0.00D+00 EMaxC= 1.00D-01 BMatC= 2.39D-13 BMatP= 1.66D-12
 IDIUse=1 WtCom= 1.00D+00 WtEn= 0.00D+00
 Coeff-Com: -0.131D-07 0.378D-07 0.210D-06-0.768D-07-0.478D-06-0.205D-05
 Coeff-Com:  0.117D-04 0.487D-04 0.166D-03 0.389D-04-0.145D-02-0.180D-02
 Coeff-Com:  0.228D-02 0.122D-01 0.142D-01-0.694D-01-0.785D-01 0.305D+00
 Coeff-Com:  0.817D+00
 Coeff:     -0.131D-07 0.378D-07 0.210D-06-0.768D-07-0.478D-06-0.205D-05
 Coeff:      0.117D-04 0.487D-04 0.166D-03 0.389D-04-0.145D-02-0.180D-02
 Coeff:      0.228D-02 0.122D-01 0.142D-01-0.694D-01-0.785D-01 0.305D+00
 Coeff:      0.817D+00
 Gap=     0.240 Goal=   None    Shift=    0.000
 RMSDP=4.63D-08 MaxDP=3.78D-06 DE= 1.36D-11 OVMax= 6.18D-07

 Cycle  20  Pass 1  IDiag  1:
 RMSU=  7.86D-09    CP:  1.44D-02  1.86D+00  8.16D-01  5.73D-01  9.40D-01
                    CP:  8.62D-01  9.85D-01  9.98D-01  8.64D-01  1.67D+00
                    CP:  1.82D+00  2.03D+00  2.19D+00  2.19D+00  1.91D+00
                    CP:  1.57D+00  1.54D+00  1.47D+00  1.26D+00
 E= -3010.54842381829     Delta-E=        0.000000000004 Rises=F Damp=F
 DIIS: error= 1.13D-08 at cycle  20 NSaved=  20.
 NSaved=20 IEnMin=18 EnMin= -3010.54842381831     IErMin=20 ErrMin= 1.13D-08
 ErrMax= 1.13D-08  0.00D+00 EMaxC= 1.00D-01 BMatC= 3.29D-14 BMatP= 2.39D-13
 IDIUse=1 WtCom= 1.00D+00 WtEn= 0.00D+00
 Coeff-Com: -0.883D-07 0.118D-06-0.118D-07 0.743D-07-0.518D-06-0.107D-05
 Coeff-Com: -0.857D-05-0.194D-04 0.213D-05 0.119D-03 0.367D-03-0.166D-03
 Coeff-Com: -0.297D-02-0.300D-03 0.135D-01 0.641D-02-0.537D-01-0.861D-01
 Coeff-Com:  0.136D+00 0.987D+00
 Coeff:     -0.883D-07 0.118D-06-0.118D-07 0.743D-07-0.518D-06-0.107D-05
 Coeff:     -0.857D-05-0.194D-04 0.213D-05 0.119D-03 0.367D-03-0.166D-03
 Coeff:     -0.297D-02-0.300D-03 0.135D-01 0.641D-02-0.537D-01-0.861D-01
 Coeff:      0.136D+00 0.987D+00
 Gap=     0.240 Goal=   None    Shift=    0.000
 RMSDP=1.88D-08 MaxDP=1.77D-06 DE= 3.64D-12 OVMax= 2.72D-07

 Cycle  21  Pass 1  IDiag  1:
 Restarting incremental Fock formation.
 E= -3010.54842381831     Delta-E=       -0.000000000015 Rises=F Damp=F
 DIIS: error= 6.70D-09 at cycle  21 NSaved=  20.
 NSaved=20 IEnMin=17 EnMin= -3010.54842381831     IErMin=20 ErrMin= 6.70D-09
 ErrMax= 6.70D-09  0.00D+00 EMaxC= 1.00D-01 BMatC= 1.23D-14 BMatP= 3.29D-14
 IDIUse=1 WtCom= 1.00D+00 WtEn= 0.00D+00
 Coeff-Com: -0.322D-08-0.226D-07 0.383D-07 0.256D-07 0.103D-06-0.329D-05
 Coeff-Com: -0.135D-04-0.311D-04 0.792D-05 0.305D-03 0.277D-03-0.116D-02
 Coeff-Com: -0.229D-02 0.369D-03 0.159D-01 0.488D-02-0.564D-01-0.149D+00
 Coeff-Com:  0.196D+00 0.992D+00
 Coeff:     -0.322D-08-0.226D-07 0.383D-07 0.256D-07 0.103D-06-0.329D-05
 Coeff:     -0.135D-04-0.311D-04 0.792D-05 0.305D-03 0.277D-03-0.116D-02
 Coeff:     -0.229D-02 0.369D-03 0.159D-01 0.488D-02-0.564D-01-0.149D+00
 Coeff:      0.196D+00 0.992D+00
 Gap=     0.240 Goal=   None    Shift=    0.000
 RMSDP=1.21D-08 MaxDP=1.23D-06 DE=-1.55D-11 OVMax= 1.39D-07

 Cycle  22  Pass 1  IDiag  1:
 RMSU=  8.91D-09    CP:  1.00D+00
 E= -3010.54842381829     Delta-E=        0.000000000020 Rises=F Damp=F
 DIIS: error= 4.19D-09 at cycle  22 NSaved=  20.
 NSaved=20 IEnMin=16 EnMin= -3010.54842381831     IErMin=20 ErrMin= 4.19D-09
 ErrMax= 4.19D-09  0.00D+00 EMaxC= 1.00D-01 BMatC= 1.75D-15 BMatP= 1.23D-14
 IDIUse=1 WtCom= 1.00D+00 WtEn= 0.00D+00
 Large coefficients: NSaved= 20 BigCof=    0.00 CofMax=   10.00 Det=-3.95D-15
 Inversion failed.  Reducing to 19 matrices.
 Large coefficients: NSaved= 19 BigCof=    0.00 CofMax=   10.00 Det=-4.48D-15
 Inversion failed.  Reducing to 18 matrices.
 Large coefficients: NSaved= 18 BigCof=    0.00 CofMax=   10.00 Det=-4.87D-15
 Inversion failed.  Reducing to 17 matrices.
 Large coefficients: NSaved= 17 BigCof=    0.00 CofMax=   10.00 Det=-4.99D-15
 Inversion failed.  Reducing to 16 matrices.
 Large coefficients: NSaved= 16 BigCof=    0.00 CofMax=   10.00 Det=-5.00D-15
 Inversion failed.  Reducing to 15 matrices.
 Coeff-Com: -0.225D-05-0.851D-05-0.210D-05 0.518D-04 0.121D-03 0.915D-04
 Coeff-Com: -0.529D-03-0.198D-02 0.247D-02 0.779D-02-0.141D-02-0.610D-01
 Coeff-Com: -0.130D+00 0.246D+00 0.938D+00
 Coeff:     -0.225D-05-0.851D-05-0.210D-05 0.518D-04 0.121D-03 0.915D-04
 Coeff:     -0.529D-03-0.198D-02 0.247D-02 0.779D-02-0.141D-02-0.610D-01
 Coeff:     -0.130D+00 0.246D+00 0.938D+00
 Gap=     0.240 Goal=   None    Shift=    0.000
 RMSDP=2.44D-09 MaxDP=8.48D-08 DE= 2.05D-11 OVMax= 9.31D-08

 SCF Done:  E(RwB97XD) =  -3010.54842382     A.U. after   22 cycles
            NFock= 22  Conv=0.24D-08     -V/T= 2.0016
 KE= 3.005856469200D+03 PE=-8.703366177886D+03 EE= 1.910834496546D+03
 Leave Link  502 at Thu May  2 14:21:45 2024, MaxMem=   134217728 cpu:            1344.8 elap:            1345.1
 (Enter /software/gaussian/g16-c01/sse4/g16/l601.exe)
 Copying SCF densities to generalized density rwf, IOpCl= 0 IROHF=0.

 **********************************************************************

            Population analysis using the SCF Density.

 **********************************************************************

 Alpha  occ. eigenvalues -- -483.35885 -62.90959 -56.70576 -56.70112 -56.70108
 Alpha  occ. eigenvalues --  -19.47045 -19.46965 -14.86486 -10.60832 -10.60724
 Alpha  occ. eigenvalues --  -10.58980 -10.58899 -10.54981 -10.54265  -9.06800
 Alpha  occ. eigenvalues --   -6.89271  -6.87720  -6.87713  -2.99224  -2.98806
 Alpha  occ. eigenvalues --   -2.98800  -2.97557  -2.97557  -1.50686  -1.33627
 Alpha  occ. eigenvalues --   -1.24389  -1.15537  -1.14055  -1.08065  -1.02064
 Alpha  occ. eigenvalues --   -0.97123  -0.92149  -0.86099  -0.82212  -0.81529
 Alpha  occ. eigenvalues --   -0.81116  -0.79379  -0.77359  -0.76977  -0.74566
 Alpha  occ. eigenvalues --   -0.70225  -0.69216  -0.65895  -0.63433  -0.61640
 Alpha  occ. eigenvalues --   -0.58592  -0.58052  -0.56787  -0.56515
 Alpha virt. eigenvalues --   -0.32467  -0.22845  -0.21424  -0.18729  -0.16124
 Alpha virt. eigenvalues --   -0.14832  -0.13963  -0.11068  -0.09555  -0.08891
 Alpha virt. eigenvalues --   -0.06279  -0.06045  -0.03940  -0.03331  -0.02555
 Alpha virt. eigenvalues --   -0.02093  -0.00425   0.00726   0.01602   0.01909
 Alpha virt. eigenvalues --    0.03512   0.04270   0.04450   0.05098   0.06462
 Alpha virt. eigenvalues --    0.07357   0.07619   0.08052   0.08620   0.08916
 Alpha virt. eigenvalues --    0.09783   0.10830   0.11149   0.11776   0.12767
 Alpha virt. eigenvalues --    0.13206   0.13422   0.14400   0.15260   0.15602
 Alpha virt. eigenvalues --    0.16377   0.17806   0.17993   0.18448   0.18957
 Alpha virt. eigenvalues --    0.20016   0.20841   0.21869   0.22402   0.23012
 Alpha virt. eigenvalues --    0.23999   0.24714   0.26449   0.28145   0.28505
 Alpha virt. eigenvalues --    0.30195   0.32708   0.33162   0.33780   0.34855
 Alpha virt. eigenvalues --    0.36259   0.37566   0.37945   0.38822   0.40280
 Alpha virt. eigenvalues --    0.42978   0.43658   0.44487   0.45902   0.46933
 Alpha virt. eigenvalues --    0.47345   0.48438   0.49053   0.50042   0.52532
 Alpha virt. eigenvalues --    0.53367   0.54954   0.56782   0.57278   0.58809
 Alpha virt. eigenvalues --    0.59739   0.61001   0.62341   0.64489   0.66854
 Alpha virt. eigenvalues --    0.70134   0.70395   0.72055   0.72616   0.73303
 Alpha virt. eigenvalues --    0.73734   0.76574   0.78946   0.79716   0.83807
 Alpha virt. eigenvalues --    0.85102   0.86745   0.90436   0.92471   0.97782
 Alpha virt. eigenvalues --    0.99313   1.01037   1.02592   1.04228   1.05865
 Alpha virt. eigenvalues --    1.07596   1.11932   1.12641   1.13233   1.16927
 Alpha virt. eigenvalues --    1.20349   1.22068   1.26884   1.31997   1.34995
 Alpha virt. eigenvalues --    1.35550   1.37634   1.41174   1.53298   1.55462
 Alpha virt. eigenvalues --    1.56216   1.58705   1.59948   1.62724   1.64080
 Alpha virt. eigenvalues --    1.67053   1.69886   1.73021   1.74014   1.77981
 Alpha virt. eigenvalues --    1.82645   1.83958   1.85869   1.89803   1.92098
 Alpha virt. eigenvalues --    1.96539   2.00236   2.01580   2.05406   2.06615
 Alpha virt. eigenvalues --    2.10832   2.12987   2.21085   2.22688   2.26230
 Alpha virt. eigenvalues --    2.32267   2.38862   2.40555   2.43283   2.51883
 Alpha virt. eigenvalues --    2.56876   2.61890   2.64572   2.67412   2.70979
 Alpha virt. eigenvalues --    2.72711   2.75541   2.76333   2.79493   2.80634
 Alpha virt. eigenvalues --    2.91511   2.96851   3.00261   3.04249   3.07505
 Alpha virt. eigenvalues --    3.13495   3.15069   3.16326   3.21635   3.25729
 Alpha virt. eigenvalues --    3.26687   3.36898   3.45217   3.48980   3.53802
 Alpha virt. eigenvalues --    3.56383   3.68126   3.73465   3.82152   3.85795
 Alpha virt. eigenvalues --    4.04964   4.05763   4.14853   4.18818   4.38839
 Alpha virt. eigenvalues --    4.44331   4.53054   4.58856   4.92871   4.95762
 Alpha virt. eigenvalues --    5.04547   5.09076   5.61247   6.14471   6.63123
 Alpha virt. eigenvalues --    7.43704   7.46109   7.56445  23.20513  23.59787
 Alpha virt. eigenvalues --   23.69492  23.76306  23.94205  24.00628  35.30678
 Alpha virt. eigenvalues --   47.89359  49.84463  49.93128 289.77040 289.79386
 Alpha virt. eigenvalues --  289.920621020.90612
          Condensed to atoms (all electrons):
               1          2          3          4          5          6
     1  C    8.621896  -3.299280   1.482344  -0.351816   0.312291   0.039380
     2  C   -3.299280  20.048194  -6.975447   0.913943  -0.043625   0.176074
     3  C    1.482344  -6.975447  21.780664  -1.923247   0.057004   0.135708
     4  C   -0.351816   0.913943  -1.923247   6.757718  -0.004732  -0.017846
     5  H    0.312291  -0.043625   0.057004  -0.004732   0.322916  -0.001421
     6  H    0.039380   0.176074   0.135708  -0.017846  -0.001421   0.304633
     7  H    0.011068  -0.017768   0.025876   0.327512  -0.002556  -0.000006
     8  N   -0.165289   0.762123  -1.948331   0.034832  -0.000920  -0.032347
     9  O   -0.051876   0.127249  -0.477950  -0.001767  -0.000047  -0.002231
    10  O    0.272424  -0.627889   0.147110  -0.041362   0.000118   0.022157
    11  C    1.193566  -1.982745   2.337239  -0.520352  -0.022589   0.010752
    12  H   -0.011881   0.009095   0.015258  -0.002232   0.000018  -0.000019
    13  C   -1.907520  -3.136506  -8.253537   1.061691   0.028477   0.005291
    14  H   -0.002647   0.019135   0.045591   0.005599  -0.000023   0.000012
    15  Br  -0.099094  -0.040601  -0.345675   0.135335   0.000028  -0.000602
               7          8          9         10         11         12
     1  C    0.011068  -0.165289  -0.051876   0.272424   1.193566  -0.011881
     2  C   -0.017768   0.762123   0.127249  -0.627889  -1.982745   0.009095
     3  C    0.025876  -1.948331  -0.477950   0.147110   2.337239   0.015258
     4  C    0.327512   0.034832  -0.001767  -0.041362  -0.520352  -0.002232
     5  H   -0.002556  -0.000920  -0.000047   0.000118  -0.022589   0.000018
     6  H   -0.000006  -0.032347  -0.002231   0.022157   0.010752  -0.000019
     7  H    0.326819   0.000025   0.000017  -0.000022   0.023270  -0.001904
     8  N    0.000025   7.775962   0.152173   0.013003  -0.261343   0.000092
     9  O    0.000017   0.152173   7.803246   0.006352   0.195297   0.000075
    10  O   -0.000022   0.013003   0.006352   7.922461   0.052270   0.000007
    11  C    0.023270  -0.261343   0.195297   0.052270   9.096789   0.324922
    12  H   -0.001904   0.000092   0.000075   0.000007   0.324922   0.305443
    13  C   -0.036123   0.778376   0.183172   0.162159  -4.167587  -0.001892
    14  H    0.000023  -0.014128  -0.000872  -0.001899  -0.024299  -0.002455
    15  Br  -0.000248   0.098863  -0.026821  -0.005298  -0.132368  -0.003743
              13         14         15
     1  C   -1.907520  -0.002647  -0.099094
     2  C   -3.136506   0.019135  -0.040601
     3  C   -8.253537   0.045591  -0.345675
     4  C    1.061691   0.005599   0.135335
     5  H    0.028477  -0.000023   0.000028
     6  H    0.005291   0.000012  -0.000602
     7  H   -0.036123   0.000023  -0.000248
     8  N    0.778376  -0.014128   0.098863
     9  O    0.183172  -0.000872  -0.026821
    10  O    0.162159  -0.001899  -0.005298
    11  C   -4.167587  -0.024299  -0.132368
    12  H   -0.001892  -0.002455  -0.003743
    13  C   20.862231   0.267448   0.403224
    14  H    0.267448   0.229382  -0.016156
    15  Br   0.403224  -0.016156  35.113374
 Mulliken charges:
               1
     1  C   -0.043566
     2  C    0.068049
     3  C   -0.102607
     4  C   -0.373278
     5  H    0.355063
     6  H    0.360464
     7  H    0.344016
     8  N   -0.193091
     9  O    0.093980
    10  O    0.078409
    11  C   -0.122822
    12  H    0.369215
    13  C   -0.248903
    14  H    0.495289
    15  Br  -0.080217
 Sum of Mulliken charges =   1.00000
 Mulliken charges with hydrogens summed into heavy atoms:
               1
     1  C    0.311497
     2  C    0.428513
     3  C   -0.102607
     4  C   -0.029262
     8  N   -0.193091
     9  O    0.093980
    10  O    0.078409
    11  C    0.246392
    13  C    0.246386
    15  Br  -0.080217
 Electronic spatial extent (au):  <R**2>=           3952.3322
 Charge=              1.0000 electrons
 Dipole moment (field-independent basis, Debye):
    X=              2.4449    Y=              0.1102    Z=              3.9752  Tot=              4.6682
 Quadrupole moment (field-independent basis, Debye-Ang):
   XX=            -67.7589   YY=            -52.8449   ZZ=            -68.9019
   XY=             -0.9659   XZ=              7.1647   YZ=             -2.1723
 Traceless Quadrupole moment (field-independent basis, Debye-Ang):
   XX=             -4.5903   YY=             10.3237   ZZ=             -5.7334
   XY=             -0.9659   XZ=              7.1647   YZ=             -2.1723
 Octapole moment (field-independent basis, Debye-Ang**2):
  XXX=           -509.4382  YYY=            100.2471  ZZZ=            109.4168  XYY=           -141.2499
  XXY=             28.8337  XXZ=             55.8090  XZZ=           -147.2123  YZZ=             30.5052
  YYZ=             41.2630  XYZ=             -2.2800
 Hexadecapole moment (field-independent basis, Debye-Ang**3):
 XXXX=          -3417.1253 YYYY=           -722.3138 ZZZZ=           -466.4082 XXXY=            188.4936
 XXXZ=            289.3673 YYYX=            202.8738 YYYZ=           -202.5130 ZZZX=            223.3112
 ZZZY=           -186.7098 XXYY=           -635.1374 XXZZ=           -563.5534 YYZZ=           -203.9204
 XXYZ=            -67.5431 YYXZ=             82.8118 ZZXY=             57.9512
 N-N= 7.761267883221D+02 E-N=-8.703366178144D+03  KE= 3.005856469200D+03
 No NMR shielding tensors so no spin-rotation constants.
 Leave Link  601 at Thu May  2 14:21:53 2024, MaxMem=   134217728 cpu:               7.2 elap:               7.2
 (Enter /software/gaussian/g16-c01/sse4/g16/l9999.exe)
 Unable to Open any file for archive entry.
 1\1\GINC-BHX0014\SP\RwB97XD\6-311+G(d)\C6H5Br1N1O2(1+)\BWEIGHT\02-May-
 2024\0\\#P wB97XD/6-311+G* NoSymm #P Field=Z-262\\TitleMe\\1,1\C,0,0.5
 193,1.233,-0.0319\C,0,1.9445,1.2692,-0.0367\C,0,2.6204,0.0928,-0.025\C
 ,0,-0.196,0.0301,0.001\H,0,-0.0207,2.1742,-0.0434\H,0,2.4828,2.2089,-0
 .0361\H,0,-1.2777,0.0399,0.0117\N,0,4.0921,0.0959,0.0366\O,0,4.6393,-1
 .0217,0.1446\O,0,4.6649,1.1984,-0.0233\C,0,0.4943,-1.1671,0.021\H,0,-0
 .0325,-2.1149,0.0545\C,0,1.9629,-1.2165,-0.0211\H,0,2.4436,-1.9631,0.6
 151\Br,0,2.173,-1.9491,-1.9062\\Version=ES64L-G16RevC.01\HF=-3010.5484
 238\RMSD=2.439e-09\Dipole=-3.3673038,1.2714665,2.8131858\Quadrupole=-3
 .4127941,7.6754062,-4.2626121,-0.7181111,5.3268032,-1.6150408\PG=C01 [
 X(C6H5Br1N1O2)]\\@
 The archive entry for this job was punched.


 TO DETECT ERRORS, THE PROGRAMMER MUST HAVE A CONNIVING MIND,
 ONE THAT DELIGHTS IN UNCOVERING FLAWS WHERE BEAUTY AND
 PERFECTION WERE ONCE THOUGHT TO LIE.

             -- THE PSYCHOLOGY OF COMPUTER PROGRAMMING
                GERALD M. WEINBERG
 Job cpu time:       0 days  0 hours 23 minutes 34.9 seconds.
 Elapsed time:       0 days  0 hours 23 minutes 35.2 seconds.
 File lengths (MBytes):  RWF=     40 Int=      0 D2E=      0 Chk=     32 Scr=      1
 Normal termination of Gaussian 16 at Thu May  2 14:21:53 2024.
