 Entering Gaussian System, Link 0=g16
 Initial command:
 /software/gaussian/g16-c01/sse4/g16/l1.exe "/local_scratch/24665268/Gau-22283.inp" -scrdir="/local_scratch/24665268/"
 Entering Link 1 = /software/gaussian/g16-c01/sse4/g16/l1.exe PID=     22289.
  
 Copyright (c) 1988-2019, Gaussian, Inc.  All Rights Reserved.
  
 This is part of the Gaussian(R) 16 program.  It is based on
 the Gaussian(R) 09 system (copyright 2009, Gaussian, Inc.),
 the Gaussian(R) 03 system (copyright 2003, Gaussian, Inc.),
 the Gaussian(R) 98 system (copyright 1998, Gaussian, Inc.),
 the Gaussian(R) 94 system (copyright 1995, Gaussian, Inc.),
 the Gaussian 92(TM) system (copyright 1992, Gaussian, Inc.),
 the Gaussian 90(TM) system (copyright 1990, Gaussian, Inc.),
 the Gaussian 88(TM) system (copyright 1988, Gaussian, Inc.),
 the Gaussian 86(TM) system (copyright 1986, Carnegie Mellon
 University), and the Gaussian 82(TM) system (copyright 1983,
 Carnegie Mellon University). Gaussian is a federally registered
 trademark of Gaussian, Inc.
  
 This software contains proprietary and confidential information,
 including trade secrets, belonging to Gaussian, Inc.
  
 This software is provided under written license and may be
 used, copied, transmitted, or stored only in accord with that
 written license.
  
 The following legend is applicable only to US Government
 contracts under FAR:
  
                    RESTRICTED RIGHTS LEGEND
  
 Use, reproduction and disclosure by the US Government is
 subject to restrictions as set forth in subparagraphs (a)
 and (c) of the Commercial Computer Software - Restricted
 Rights clause in FAR 52.227-19.
  
 Gaussian, Inc.
 340 Quinnipiac St., Bldg. 40, Wallingford CT 06492
  
  
 ---------------------------------------------------------------
 Warning -- This program may not be used in any manner that
 competes with the business of Gaussian, Inc. or will provide
 assistance to any competitor of Gaussian, Inc.  The licensee
 of this program is prohibited from giving any competitor of
 Gaussian, Inc. access to this program.  By using this program,
 the user acknowledges that Gaussian, Inc. is engaged in the
 business of creating and licensing software in the field of
 computational chemistry and represents and warrants to the
 licensee that it is not a competitor of Gaussian, Inc. and that
 it will not use this program in any manner prohibited above.
 ---------------------------------------------------------------
  

 Cite this work as:
 Gaussian 16, Revision C.01,
 M. J. Frisch, G. W. Trucks, H. B. Schlegel, G. E. Scuseria, 
 M. A. Robb, J. R. Cheeseman, G. Scalmani, V. Barone, 
 G. A. Petersson, H. Nakatsuji, X. Li, M. Caricato, A. V. Marenich, 
 J. Bloino, B. G. Janesko, R. Gomperts, B. Mennucci, H. P. Hratchian, 
 J. V. Ortiz, A. F. Izmaylov, J. L. Sonnenberg, D. Williams-Young, 
 F. Ding, F. Lipparini, F. Egidi, J. Goings, B. Peng, A. Petrone, 
 T. Henderson, D. Ranasinghe, V. G. Zakrzewski, J. Gao, N. Rega, 
 G. Zheng, W. Liang, M. Hada, M. Ehara, K. Toyota, R. Fukuda, 
 J. Hasegawa, M. Ishida, T. Nakajima, Y. Honda, O. Kitao, H. Nakai, 
 T. Vreven, K. Throssell, J. A. Montgomery, Jr., J. E. Peralta, 
 F. Ogliaro, M. J. Bearpark, J. J. Heyd, E. N. Brothers, K. N. Kudin, 
 V. N. Staroverov, T. A. Keith, R. Kobayashi, J. Normand, 
 K. Raghavachari, A. P. Rendell, J. C. Burant, S. S. Iyengar, 
 J. Tomasi, M. Cossi, J. M. Millam, M. Klene, C. Adamo, R. Cammi, 
 J. W. Ochterski, R. L. Martin, K. Morokuma, O. Farkas, 
 J. B. Foresman, and D. J. Fox, Gaussian, Inc., Wallingford CT, 2019.
 
 ******************************************
 Gaussian 16:  ES64L-G16RevC.01  3-Jul-2019
                 2-May-2024 
 ******************************************
 %chk=geometry.chk
 %mem=1GB
 %nprocshared=12
 Will use up to   12 processors via shared memory.
 ---------------------------------------
 #P wB97XD/6-311+G* NoSymm #P Field=X+48
 ---------------------------------------
 1/38=1,172=1/1;
 2/12=2,15=1,17=6,18=5,40=1/2;
 3/5=4,6=6,7=11,11=2,14=1,15=48,25=1,30=1,74=-58/1,2,3;
 4//1;
 5/5=2,38=5/2;
 6/7=2,8=2,9=2,10=2,28=1/1;
 99/5=1,9=1/99;
 Leave Link    1 at Thu May  2 13:57:34 2024, MaxMem=   134217728 cpu:               2.7 elap:               2.8
 (Enter /software/gaussian/g16-c01/sse4/g16/l101.exe)
 -------
 TitleMe
 -------
 Symbolic Z-matrix:
 Charge =  1 Multiplicity = 1
 C                     0.5193    1.233    -0.0319 
 C                     1.9445    1.2692   -0.0367 
 C                     2.6204    0.0928   -0.025 
 C                    -0.196     0.0301    0.001 
 H                    -0.0207    2.1742   -0.0434 
 H                     2.4828    2.2089   -0.0361 
 H                    -1.2777    0.0399    0.0117 
 N                     4.0921    0.0959    0.0366 
 O                     4.6393   -1.0217    0.1446 
 O                     4.6649    1.1984   -0.0233 
 C                     0.4943   -1.1671    0.021 
 H                    -0.0325   -2.1149    0.0545 
 C                     1.9629   -1.2165   -0.0211 
 H                     2.4436   -1.9631    0.6151 
 Br                    2.173    -1.9491   -1.9062 
 
 ITRead=  0  0  0  0  0  0  0  0  0  0  0  0  0  0  0
 MicOpt= -1 -1 -1 -1 -1 -1 -1 -1 -1 -1 -1 -1 -1 -1 -1
 NAtoms=     15 NQM=       15 NQMF=       0 NMMI=      0 NMMIF=      0
                NMic=       0 NMicF=      0.
                    Isotopes and Nuclear Properties:
 (Nuclear quadrupole moments (NQMom) in fm**2, nuclear magnetic moments (NMagM)
  in nuclear magnetons)

  Atom         1           2           3           4           5           6           7           8           9          10
 IAtWgt=          12          12          12          12           1           1           1          14          16          16
 AtmWgt=  12.0000000  12.0000000  12.0000000  12.0000000   1.0078250   1.0078250   1.0078250  14.0030740  15.9949146  15.9949146
 NucSpn=           0           0           0           0           1           1           1           2           0           0
 AtZEff=  -0.0000000  -0.0000000  -0.0000000  -0.0000000  -0.0000000  -0.0000000  -0.0000000  -0.0000000  -0.0000000  -0.0000000
 NQMom=    0.0000000   0.0000000   0.0000000   0.0000000   0.0000000   0.0000000   0.0000000   2.0440000   0.0000000   0.0000000
 NMagM=    0.0000000   0.0000000   0.0000000   0.0000000   2.7928460   2.7928460   2.7928460   0.4037610   0.0000000   0.0000000
 AtZNuc=   6.0000000   6.0000000   6.0000000   6.0000000   1.0000000   1.0000000   1.0000000   7.0000000   8.0000000   8.0000000

  Atom        11          12          13          14          15
 IAtWgt=          12           1          12           1          79
 AtmWgt=  12.0000000   1.0078250  12.0000000   1.0078250  78.9183361
 NucSpn=           0           1           0           1           3
 AtZEff=  -0.0000000  -0.0000000  -0.0000000  -0.0000000  -0.0000000
 NQMom=    0.0000000   0.0000000   0.0000000   0.0000000  31.3000000
 NMagM=    0.0000000   2.7928460   0.0000000   2.7928460   2.1063990
 AtZNuc=   6.0000000   1.0000000   6.0000000   1.0000000  35.0000000
 Leave Link  101 at Thu May  2 13:57:37 2024, MaxMem=   134217728 cpu:               2.1 elap:               2.1
 (Enter /software/gaussian/g16-c01/sse4/g16/l202.exe)
                          Input orientation:                          
 ---------------------------------------------------------------------
 Center     Atomic      Atomic             Coordinates (Angstroms)
 Number     Number       Type             X           Y           Z
 ---------------------------------------------------------------------
      1          6           0        0.519300    1.233000   -0.031900
      2          6           0        1.944500    1.269200   -0.036700
      3          6           0        2.620400    0.092800   -0.025000
      4          6           0       -0.196000    0.030100    0.001000
      5          1           0       -0.020700    2.174200   -0.043400
      6          1           0        2.482800    2.208900   -0.036100
      7          1           0       -1.277700    0.039900    0.011700
      8          7           0        4.092100    0.095900    0.036600
      9          8           0        4.639300   -1.021700    0.144600
     10          8           0        4.664900    1.198400   -0.023300
     11          6           0        0.494300   -1.167100    0.021000
     12          1           0       -0.032500   -2.114900    0.054500
     13          6           0        1.962900   -1.216500   -0.021100
     14          1           0        2.443600   -1.963100    0.615100
     15         35           0        2.173000   -1.949100   -1.906200
 ---------------------------------------------------------------------
                    Distance matrix (angstroms):
                    1          2          3          4          5
     1  C    0.000000
     2  C    1.425668   0.000000
     3  C    2.390549   1.356796   0.000000
     4  C    1.399895   2.473566   2.817218   0.000000
     5  H    1.085168   2.163581   3.362733   2.151712   0.000000
     6  H    2.192654   1.082960   2.120598   3.453189   2.503751
     7  H    2.157452   3.449071   3.898632   1.081797   2.477564
     8  N    3.750012   2.448304   1.472992   4.288753   4.608780
     9  O    4.699917   3.541615   2.312322   4.950458   5.653735
    10  O    4.145753   2.721354   2.324292   4.999386   4.786171
    11  C    2.400813   2.835836   2.471794   1.382101   3.381369
    12  H    3.394169   3.920329   3.452266   2.151887   4.290233
    13  C    2.843264   2.485817   1.465124   2.493060   3.928360
    14  H    3.786370   3.334922   2.160489   3.364142   4.860416
    15  Br   4.046416   3.728900   2.812194   3.628609   5.028314
                    6          7          8          9         10
     6  H    0.000000
     7  H    4.341452   0.000000
     8  N    2.657047   5.370150   0.000000
     9  O    3.888434   6.012948   1.249048   0.000000
    10  O    2.404752   6.054572   1.243863   2.226587   0.000000
    11  C    3.918516   2.144043   3.813080   4.149391   4.794941
    12  H    5.003018   2.489080   4.679774   4.798846   5.748876
    13  C    3.464662   3.475788   2.501842   2.688591   3.623886
    14  H    4.222698   4.268978   2.700314   2.434893   3.916224
    15  Br   4.569706   4.420610   3.411663   3.338935   4.434144
                   11         12         13         14         15
    11  C    0.000000
    12  H    1.084880   0.000000
    13  C    1.470034   2.189625   0.000000
    14  H    2.187771   2.543302   1.092353   0.000000
    15  Br   2.672762   2.955683   2.033334   2.535818   0.000000
 Symmetry turned off by external request.
 Stoichiometry    C6H5BrNO2(1+)
 Framework group  C1[X(C6H5BrNO2)]
 Deg. of freedom    39
 Full point group                 C1      NOp   1
 Rotational constants (GHZ):           1.1632986           0.9594224           0.5957624
 Leave Link  202 at Thu May  2 13:57:38 2024, MaxMem=   134217728 cpu:               1.3 elap:               1.3
 (Enter /software/gaussian/g16-c01/sse4/g16/l301.exe)
 Standard basis: 6-311+G(d) (5D, 7F)
 Ernie: Thresh=  0.10000D-02 Tol=  0.10000D-05 Strict=F.
 The following finite field(s) will be applied:
 An electric field of              0.0048  0.0000  0.0000
   261 basis functions,   443 primitive gaussians,   273 cartesian basis functions
    49 alpha electrons       49 beta electrons
       nuclear repulsion energy       772.8945969580 Hartrees.
 IExCor= 4639 DFT=T Ex+Corr=wB97XD ExCW=0 ScaHFX=  1.000000
 ScaDFX=  1.000000  1.000000  1.000000  1.000000 ScalE2=  1.000000  1.000000
 IRadAn=      5 IRanWt=     -1 IRanGd=            0 ICorTp=0 IEmpDi=121
 HFx  wShort=  0.000000 wLong=  0.200000 cFull=  0.222036 cShort=  0.000000 cLong=  0.777964
 DFx  wShort=  0.000000 wLong=  0.200000 cFull=  0.000000 cShort=  0.000000 cLong=  1.000000
 NAtoms=   15 NActive=   15 NUniq=   15 SFac= 1.00D+00 NAtFMM=   60 NAOKFM=F Big=F
 Integral buffers will be    131072 words long.
 Raffenetti 2 integral format.
 Two-electron integral symmetry is turned off.
 R6Disp:  Grimme-D2 Dispersion energy=       -0.0080346408 Hartrees.
 Nuclear repulsion after empirical dispersion term =      772.8865623173 Hartrees.
 Leave Link  301 at Thu May  2 13:57:40 2024, MaxMem=   134217728 cpu:               1.1 elap:               1.1
 (Enter /software/gaussian/g16-c01/sse4/g16/l302.exe)
 NPDir=0 NMtPBC=     1 NCelOv=     1 NCel=       1 NClECP=     1 NCelD=      1
         NCelK=      1 NCelE2=     1 NClLst=     1 CellRange=     0.0.
 One-electron integrals computed using PRISM.
 NBasis=   261 RedAO= T EigKep=  2.52D-06  NBF=   261
 NBsUse=   261 1.00D-06 EigRej= -1.00D+00 NBFU=   261
 Precomputing XC quadrature grid using
 IXCGrd= 4 IRadAn=           5 IRanWt=          -1 IRanGd=           0 AccXCQ= 0.00D+00.
 Generated NRdTot=       0 NPtTot=           0 NUsed=           0 NTot=          32
 NSgBfM=   273   273   273   273   273 MxSgAt=    15 MxSgA2=    15.
 Leave Link  302 at Thu May  2 13:58:02 2024, MaxMem=   134217728 cpu:              22.1 elap:              22.1
 (Enter /software/gaussian/g16-c01/sse4/g16/l303.exe)
 DipDrv:  MaxL=1.
 The nuclear repulsion energy is now       774.9438046504 hartrees.
 Leave Link  303 at Thu May  2 13:58:05 2024, MaxMem=   134217728 cpu:               3.3 elap:               3.3
 (Enter /software/gaussian/g16-c01/sse4/g16/l401.exe)
 ExpMin= 3.50D-02 ExpMax= 4.40D+05 ExpMxC= 1.51D+04 IAcc=3 IRadAn=         5 AccDes= 0.00D+00
 Harris functional with IExCor= 4639 and IRadAn=       5 diagonalized for initial guess.
 HarFok:  IExCor= 4639 AccDes= 0.00D+00 IRadAn=         5 IDoV= 1 UseB2=F ITyADJ=14
 ICtDFT=  3500011 ScaDFX=  1.000000  1.000000  1.000000  1.000000
 FoFCou: FMM=F IPFlag=           0 FMFlag=      100000 FMFlg1=           0
         NFxFlg=           0 DoJE=T BraDBF=F KetDBF=T FulRan=T
         wScrn=  0.000000 ICntrl=       500 IOpCl=  0 I1Cent=   200000004 NGrid=           0
         NMat0=    1 NMatS0=      1 NMatT0=    0 NMatD0=    1 NMtDS0=    0 NMtDT0=    0
 Symmetry not used in FoFCou.
 Harris En= -2970.59513469591    
 JPrj=0 DoOrth=F DoCkMO=F.
 Leave Link  401 at Thu May  2 13:58:36 2024, MaxMem=   134217728 cpu:              31.0 elap:              31.0
 (Enter /software/gaussian/g16-c01/sse4/g16/l502.exe)
 Two-electron integral symmetry not used.
 Closed shell SCF:
 Using DIIS extrapolation, IDIIS=  1040.
 NGot=   134217728 LenX=   134063053 LenY=   133988083
 Requested convergence on RMS density matrix=1.00D-08 within 128 cycles.
 Requested convergence on MAX density matrix=1.00D-06.
 Requested convergence on             energy=1.00D-06.
 No special actions if energy rises.
 Fock matrices will be formed incrementally for  20 cycles.

 Cycle   1  Pass 1  IDiag  1:
 FoFJK:  IHMeth= 1 ICntrl=       0 DoSepK=T KAlg= 0 I1Cent=           0 FoldK=F
 IRaf=         1 NMat=       1 IRICut=       1 DoRegI=T DoRafI=F ISym2E= 0 IDoP0=0 IntGTp=1.
 FoFCou: FMM=F IPFlag=           0 FMFlag=      100000 FMFlg1=           0
         NFxFlg=           0 DoJE=T BraDBF=F KetDBF=F FulRan=T
         wScrn=  0.000000 ICntrl=       500 IOpCl=  0 I1Cent=           0 NGrid=           0
         NMat0=    1 NMatS0=      1 NMatT0=    0 NMatD0=    1 NMtDS0=    0 NMtDT0=    0
 Symmetry not used in FoFCou.
 E= -3009.71042646993    
 DIIS: error= 2.90D-01 at cycle   1 NSaved=   1.
 NSaved= 1 IEnMin= 1 EnMin= -3009.71042646993     IErMin= 1 ErrMin= 2.90D-01
 ErrMax= 2.90D-01  0.00D+00 EMaxC= 1.00D-01 BMatC= 1.19D+01 BMatP= 1.19D+01
 IDIUse=3 WtCom= 0.00D+00 WtEn= 1.00D+00
 Coeff-Com:  0.100D+01
 Coeff-En:   0.100D+01
 Coeff:      0.100D+01
 Gap=     0.305 Goal=   None    Shift=    0.000
 GapD=    0.305 DampG=1.000 DampE=0.250 DampFc=0.2500 IDamp=-1.
 Damping current iteration by 2.50D-01
 RMSDP=4.39D-02 MaxDP=4.48D+00              OVMax= 2.64D-01

 Cycle   2  Pass 1  IDiag  1:
 RMSU=  5.96D-03    CP:  9.13D-01
 E= -3009.99590598526     Delta-E=       -0.285479515332 Rises=F Damp=T
 DIIS: error= 2.19D-01 at cycle   2 NSaved=   2.
 NSaved= 2 IEnMin= 2 EnMin= -3009.99590598526     IErMin= 2 ErrMin= 2.19D-01
 ErrMax= 2.19D-01  0.00D+00 EMaxC= 1.00D-01 BMatC= 5.45D+00 BMatP= 1.19D+01
 IDIUse=3 WtCom= 0.00D+00 WtEn= 1.00D+00
 Coeff-Com: -0.183D+01 0.283D+01
 Coeff-En:   0.000D+00 0.100D+01
 Coeff:      0.000D+00 0.100D+01
 Gap=     0.265 Goal=   None    Shift=    0.000
 RMSDP=3.43D-02 MaxDP=3.68D+00 DE=-2.85D-01 OVMax= 7.11D-02

 Cycle   3  Pass 1  IDiag  1:
 RMSU=  4.76D-03    CP:  6.13D-01  3.00D+00
 E= -3010.37649001057     Delta-E=       -0.380584025303 Rises=F Damp=F
 DIIS: error= 6.58D-02 at cycle   3 NSaved=   3.
 NSaved= 3 IEnMin= 3 EnMin= -3010.37649001057     IErMin= 3 ErrMin= 6.58D-02
 ErrMax= 6.58D-02  0.00D+00 EMaxC= 1.00D-01 BMatC= 7.30D-01 BMatP= 5.45D+00
 IDIUse=3 WtCom= 3.42D-01 WtEn= 6.58D-01
 Coeff-Com:  0.264D+01-0.346D+01 0.182D+01
 Coeff-En:   0.315D-01 0.000D+00 0.968D+00
 Coeff:      0.923D+00-0.118D+01 0.126D+01
 Gap=     0.256 Goal=   None    Shift=    0.000
 RMSDP=1.12D-02 MaxDP=7.29D-01 DE=-3.81D-01 OVMax= 6.90D-02

 Cycle   4  Pass 1  IDiag  1:
 RMSU=  5.54D-03    CP:  6.45D-01  1.82D+00  2.17D+00
 E= -3010.48151684752     Delta-E=       -0.105026836955 Rises=F Damp=F
 DIIS: error= 3.81D-02 at cycle   4 NSaved=   4.
 NSaved= 4 IEnMin= 4 EnMin= -3010.48151684752     IErMin= 4 ErrMin= 3.81D-02
 ErrMax= 3.81D-02  0.00D+00 EMaxC= 1.00D-01 BMatC= 2.26D-01 BMatP= 7.30D-01
 IDIUse=3 WtCom= 6.19D-01 WtEn= 3.81D-01
 Coeff-Com: -0.405D-01 0.677D-01 0.344D+00 0.628D+00
 Coeff-En:   0.000D+00 0.000D+00 0.197D+00 0.803D+00
 Coeff:     -0.251D-01 0.420D-01 0.288D+00 0.695D+00
 Gap=     0.256 Goal=   None    Shift=    0.000
 RMSDP=5.11D-03 MaxDP=6.05D-01 DE=-1.05D-01 OVMax= 3.12D-02

 Cycle   5  Pass 1  IDiag  1:
 RMSU=  1.48D-03    CP:  6.07D-01  2.04D+00  2.03D+00  5.55D-01
 E= -3010.52497031994     Delta-E=       -0.043453472419 Rises=F Damp=F
 DIIS: error= 6.52D-03 at cycle   5 NSaved=   5.
 NSaved= 5 IEnMin= 5 EnMin= -3010.52497031994     IErMin= 5 ErrMin= 6.52D-03
 ErrMax= 6.52D-03  0.00D+00 EMaxC= 1.00D-01 BMatC= 8.79D-03 BMatP= 2.26D-01
 IDIUse=3 WtCom= 9.35D-01 WtEn= 6.52D-02
 Coeff-Com: -0.113D+00 0.156D+00 0.108D+00 0.387D+00 0.461D+00
 Coeff-En:   0.000D+00 0.000D+00 0.000D+00 0.000D+00 0.100D+01
 Coeff:     -0.106D+00 0.146D+00 0.101D+00 0.362D+00 0.497D+00
 Gap=     0.246 Goal=   None    Shift=    0.000
 RMSDP=1.45D-03 MaxDP=1.78D-01 DE=-4.35D-02 OVMax= 2.42D-02

 Cycle   6  Pass 1  IDiag  1:
 RMSU=  5.63D-04    CP:  6.14D-01  2.04D+00  2.10D+00  7.34D-01  6.83D-01
 E= -3010.52749226032     Delta-E=       -0.002521940376 Rises=F Damp=F
 DIIS: error= 2.67D-03 at cycle   6 NSaved=   6.
 NSaved= 6 IEnMin= 6 EnMin= -3010.52749226032     IErMin= 6 ErrMin= 2.67D-03
 ErrMax= 2.67D-03  0.00D+00 EMaxC= 1.00D-01 BMatC= 6.18D-04 BMatP= 8.79D-03
 IDIUse=3 WtCom= 9.73D-01 WtEn= 2.67D-02
 Coeff-Com: -0.980D-01 0.132D+00 0.148D-02 0.165D+00 0.338D+00 0.462D+00
 Coeff-En:   0.000D+00 0.000D+00 0.000D+00 0.000D+00 0.929D-01 0.907D+00
 Coeff:     -0.954D-01 0.128D+00 0.144D-02 0.160D+00 0.332D+00 0.474D+00
 Gap=     0.246 Goal=   None    Shift=    0.000
 RMSDP=4.03D-04 MaxDP=3.67D-02 DE=-2.52D-03 OVMax= 8.35D-03

 Cycle   7  Pass 1  IDiag  1:
 RMSU=  2.03D-04    CP:  6.12D-01  2.04D+00  2.10D+00  6.98D-01  7.86D-01
                    CP:  6.82D-01
 E= -3010.52792226085     Delta-E=       -0.000430000538 Rises=F Damp=F
 DIIS: error= 3.07D-04 at cycle   7 NSaved=   7.
 NSaved= 7 IEnMin= 7 EnMin= -3010.52792226085     IErMin= 7 ErrMin= 3.07D-04
 ErrMax= 3.07D-04  0.00D+00 EMaxC= 1.00D-01 BMatC= 1.36D-05 BMatP= 6.18D-04
 IDIUse=3 WtCom= 9.97D-01 WtEn= 3.07D-03
 Coeff-Com: -0.356D-01 0.475D-01-0.116D-01 0.348D-01 0.850D-01 0.178D+00
 Coeff-Com:  0.701D+00
 Coeff-En:   0.000D+00 0.000D+00 0.000D+00 0.000D+00 0.000D+00 0.000D+00
 Coeff-En:   0.100D+01
 Coeff:     -0.355D-01 0.474D-01-0.115D-01 0.347D-01 0.848D-01 0.178D+00
 Coeff:      0.702D+00
 Gap=     0.247 Goal=   None    Shift=    0.000
 RMSDP=1.27D-04 MaxDP=8.59D-03 DE=-4.30D-04 OVMax= 1.06D-03

 Cycle   8  Pass 1  IDiag  1:
 RMSU=  5.20D-05    CP:  6.12D-01  2.03D+00  2.11D+00  7.09D-01  8.21D-01
                    CP:  7.10D-01  9.23D-01
 E= -3010.52793566612     Delta-E=       -0.000013405270 Rises=F Damp=F
 DIIS: error= 1.08D-04 at cycle   8 NSaved=   8.
 NSaved= 8 IEnMin= 8 EnMin= -3010.52793566612     IErMin= 8 ErrMin= 1.08D-04
 ErrMax= 1.08D-04  0.00D+00 EMaxC= 1.00D-01 BMatC= 1.95D-06 BMatP= 1.36D-05
 IDIUse=3 WtCom= 9.99D-01 WtEn= 1.08D-03
 Coeff-Com:  0.297D-02-0.417D-02-0.340D-02-0.104D-01-0.226D-01-0.278D-01
 Coeff-Com:  0.180D+00 0.885D+00
 Coeff-En:   0.000D+00 0.000D+00 0.000D+00 0.000D+00 0.000D+00 0.000D+00
 Coeff-En:   0.000D+00 0.100D+01
 Coeff:      0.297D-02-0.416D-02-0.340D-02-0.104D-01-0.226D-01-0.278D-01
 Coeff:      0.180D+00 0.886D+00
 Gap=     0.247 Goal=   None    Shift=    0.000
 RMSDP=6.77D-05 MaxDP=6.57D-03 DE=-1.34D-05 OVMax= 7.70D-04

 Cycle   9  Pass 1  IDiag  1:
 RMSU=  2.10D-05    CP:  6.12D-01  2.03D+00  2.11D+00  7.14D-01  8.29D-01
                    CP:  7.15D-01  1.07D+00  1.15D+00
 E= -3010.52793824457     Delta-E=       -0.000002578451 Rises=F Damp=F
 DIIS: error= 2.07D-05 at cycle   9 NSaved=   9.
 NSaved= 9 IEnMin= 9 EnMin= -3010.52793824457     IErMin= 9 ErrMin= 2.07D-05
 ErrMax= 2.07D-05  0.00D+00 EMaxC= 1.00D-01 BMatC= 1.78D-07 BMatP= 1.95D-06
 IDIUse=1 WtCom= 1.00D+00 WtEn= 0.00D+00
 Coeff-Com:  0.546D-02-0.735D-02 0.380D-03-0.763D-02-0.159D-01-0.294D-01
 Coeff-Com: -0.440D-01 0.272D+00 0.826D+00
 Coeff:      0.546D-02-0.735D-02 0.380D-03-0.763D-02-0.159D-01-0.294D-01
 Coeff:     -0.440D-01 0.272D+00 0.826D+00
 Gap=     0.247 Goal=   None    Shift=    0.000
 RMSDP=2.82D-05 MaxDP=2.85D-03 DE=-2.58D-06 OVMax= 2.86D-04

 Cycle  10  Pass 1  IDiag  1:
 RMSU=  6.93D-06    CP:  6.12D-01  2.02D+00  2.11D+00  7.13D-01  8.33D-01
                    CP:  7.04D-01  1.11D+00  1.38D+00  1.01D+00
 E= -3010.52793861803     Delta-E=       -0.000000373450 Rises=F Damp=F
 DIIS: error= 1.17D-05 at cycle  10 NSaved=  10.
 NSaved=10 IEnMin=10 EnMin= -3010.52793861803     IErMin=10 ErrMin= 1.17D-05
 ErrMax= 1.17D-05  0.00D+00 EMaxC= 1.00D-01 BMatC= 3.79D-08 BMatP= 1.78D-07
 IDIUse=1 WtCom= 1.00D+00 WtEn= 0.00D+00
 Coeff-Com:  0.633D-03-0.833D-03 0.268D-03-0.607D-03 0.622D-03 0.355D-03
 Coeff-Com: -0.346D-01-0.408D-01 0.210D+00 0.865D+00
 Coeff:      0.633D-03-0.833D-03 0.268D-03-0.607D-03 0.622D-03 0.355D-03
 Coeff:     -0.346D-01-0.408D-01 0.210D+00 0.865D+00
 Gap=     0.247 Goal=   None    Shift=    0.000
 RMSDP=9.08D-06 MaxDP=8.73D-04 DE=-3.73D-07 OVMax= 1.59D-04

 Cycle  11  Pass 1  IDiag  1:
 RMSU=  5.23D-06    CP:  6.12D-01  2.02D+00  2.11D+00  7.13D-01  8.33D-01
                    CP:  7.00D-01  1.10D+00  1.45D+00  1.07D+00  1.16D+00
 E= -3010.52793868436     Delta-E=       -0.000000066338 Rises=F Damp=F
 DIIS: error= 2.88D-06 at cycle  11 NSaved=  11.
 NSaved=11 IEnMin=11 EnMin= -3010.52793868436     IErMin=11 ErrMin= 2.88D-06
 ErrMax= 2.88D-06  0.00D+00 EMaxC= 1.00D-01 BMatC= 3.37D-09 BMatP= 3.79D-08
 IDIUse=1 WtCom= 1.00D+00 WtEn= 0.00D+00
 Coeff-Com: -0.122D-03 0.164D-03 0.551D-04 0.449D-03 0.138D-02 0.294D-02
 Coeff-Com:  0.587D-02-0.170D-01-0.108D+00-0.713D-01 0.119D+01
 Coeff:     -0.122D-03 0.164D-03 0.551D-04 0.449D-03 0.138D-02 0.294D-02
 Coeff:      0.587D-02-0.170D-01-0.108D+00-0.713D-01 0.119D+01
 Gap=     0.247 Goal=   None    Shift=    0.000
 RMSDP=9.30D-06 MaxDP=9.25D-04 DE=-6.63D-08 OVMax= 1.13D-04

 Cycle  12  Pass 1  IDiag  1:
 RMSU=  1.16D-06    CP:  6.12D-01  2.03D+00  2.11D+00  7.13D-01  8.33D-01
                    CP:  6.95D-01  1.10D+00  1.50D+00  1.07D+00  1.38D+00
                    CP:  1.64D+00
 E= -3010.52793870285     Delta-E=       -0.000000018485 Rises=F Damp=F
 DIIS: error= 2.15D-06 at cycle  12 NSaved=  12.
 NSaved=12 IEnMin=12 EnMin= -3010.52793870285     IErMin=12 ErrMin= 2.15D-06
 ErrMax= 2.15D-06  0.00D+00 EMaxC= 1.00D-01 BMatC= 8.75D-10 BMatP= 3.37D-09
 IDIUse=1 WtCom= 1.00D+00 WtEn= 0.00D+00
 Coeff-Com: -0.125D-03 0.166D-03-0.118D-04 0.280D-03 0.371D-03 0.994D-03
 Coeff-Com:  0.903D-02 0.119D-02-0.864D-01-0.206D+00 0.483D+00 0.797D+00
 Coeff:     -0.125D-03 0.166D-03-0.118D-04 0.280D-03 0.371D-03 0.994D-03
 Coeff:      0.903D-02 0.119D-02-0.864D-01-0.206D+00 0.483D+00 0.797D+00
 Gap=     0.247 Goal=   None    Shift=    0.000
 RMSDP=2.64D-06 MaxDP=2.75D-04 DE=-1.85D-08 OVMax= 6.04D-05

 Cycle  13  Pass 1  IDiag  1:
 RMSU=  5.40D-07    CP:  6.12D-01  2.03D+00  2.11D+00  7.13D-01  8.33D-01
                    CP:  6.94D-01  1.10D+00  1.52D+00  1.07D+00  1.43D+00
                    CP:  1.89D+00  1.28D+00
 E= -3010.52793870705     Delta-E=       -0.000000004206 Rises=F Damp=F
 DIIS: error= 8.55D-07 at cycle  13 NSaved=  13.
 NSaved=13 IEnMin=13 EnMin= -3010.52793870705     IErMin=13 ErrMin= 8.55D-07
 ErrMax= 8.55D-07  0.00D+00 EMaxC= 1.00D-01 BMatC= 1.84D-10 BMatP= 8.75D-10
 IDIUse=1 WtCom= 1.00D+00 WtEn= 0.00D+00
 Coeff-Com:  0.860D-05-0.116D-04-0.132D-04-0.781D-04-0.342D-03-0.706D-03
 Coeff-Com: -0.126D-02 0.299D-02 0.234D-01 0.458D-02-0.248D+00 0.159D+00
 Coeff-Com:  0.106D+01
 Coeff:      0.860D-05-0.116D-04-0.132D-04-0.781D-04-0.342D-03-0.706D-03
 Coeff:     -0.126D-02 0.299D-02 0.234D-01 0.458D-02-0.248D+00 0.159D+00
 Coeff:      0.106D+01
 Gap=     0.247 Goal=   None    Shift=    0.000
 RMSDP=9.51D-07 MaxDP=7.31D-05 DE=-4.21D-09 OVMax= 3.48D-05

 Cycle  14  Pass 1  IDiag  1:
 RMSU=  2.83D-07    CP:  6.12D-01  2.03D+00  2.11D+00  7.13D-01  8.33D-01
                    CP:  6.93D-01  1.10D+00  1.52D+00  1.07D+00  1.43D+00
                    CP:  1.96D+00  1.57D+00  1.57D+00
 E= -3010.52793870804     Delta-E=       -0.000000000981 Rises=F Damp=F
 DIIS: error= 3.11D-07 at cycle  14 NSaved=  14.
 NSaved=14 IEnMin=14 EnMin= -3010.52793870804     IErMin=14 ErrMin= 3.11D-07
 ErrMax= 3.11D-07  0.00D+00 EMaxC= 1.00D-01 BMatC= 3.44D-11 BMatP= 1.84D-10
 IDIUse=1 WtCom= 1.00D+00 WtEn= 0.00D+00
 Coeff-Com:  0.104D-04-0.136D-04-0.686D-05-0.637D-04-0.164D-03-0.358D-03
 Coeff-Com: -0.180D-02 0.613D-03 0.231D-01 0.324D-01-0.186D+00-0.612D-01
 Coeff-Com:  0.365D+00 0.828D+00
 Coeff:      0.104D-04-0.136D-04-0.686D-05-0.637D-04-0.164D-03-0.358D-03
 Coeff:     -0.180D-02 0.613D-03 0.231D-01 0.324D-01-0.186D+00-0.612D-01
 Coeff:      0.365D+00 0.828D+00
 Gap=     0.247 Goal=   None    Shift=    0.000
 RMSDP=4.25D-07 MaxDP=3.57D-05 DE=-9.81D-10 OVMax= 1.50D-05

 Cycle  15  Pass 1  IDiag  1:
 RMSU=  9.70D-08    CP:  6.12D-01  2.03D+00  2.11D+00  7.13D-01  8.33D-01
                    CP:  6.93D-01  1.09D+00  1.52D+00  1.07D+00  1.42D+00
                    CP:  1.98D+00  1.68D+00  1.86D+00  1.42D+00
 E= -3010.52793870823     Delta-E=       -0.000000000192 Rises=F Damp=F
 DIIS: error= 1.54D-07 at cycle  15 NSaved=  15.
 NSaved=15 IEnMin=15 EnMin= -3010.52793870823     IErMin=15 ErrMin= 1.54D-07
 ErrMax= 1.54D-07  0.00D+00 EMaxC= 1.00D-01 BMatC= 7.51D-12 BMatP= 3.44D-11
 IDIUse=1 WtCom= 1.00D+00 WtEn= 0.00D+00
 Coeff-Com:  0.707D-05-0.940D-05 0.208D-05-0.573D-05 0.288D-04 0.698D-04
 Coeff-Com: -0.182D-03-0.444D-03 0.171D-02 0.760D-02 0.260D-02-0.466D-01
 Coeff-Com: -0.160D+00 0.286D+00 0.909D+00
 Coeff:      0.707D-05-0.940D-05 0.208D-05-0.573D-05 0.288D-04 0.698D-04
 Coeff:     -0.182D-03-0.444D-03 0.171D-02 0.760D-02 0.260D-02-0.466D-01
 Coeff:     -0.160D+00 0.286D+00 0.909D+00
 Gap=     0.247 Goal=   None    Shift=    0.000
 RMSDP=1.46D-07 MaxDP=9.26D-06 DE=-1.92D-10 OVMax= 6.84D-06

 Cycle  16  Pass 1  IDiag  1:
 RMSU=  4.73D-08    CP:  6.12D-01  2.03D+00  2.11D+00  7.13D-01  8.33D-01
                    CP:  6.93D-01  1.09D+00  1.52D+00  1.06D+00  1.42D+00
                    CP:  1.98D+00  1.71D+00  1.98D+00  1.68D+00  1.33D+00
 E= -3010.52793870826     Delta-E=       -0.000000000036 Rises=F Damp=F
 DIIS: error= 4.23D-08 at cycle  16 NSaved=  16.
 NSaved=16 IEnMin=16 EnMin= -3010.52793870826     IErMin=16 ErrMin= 4.23D-08
 ErrMax= 4.23D-08  0.00D+00 EMaxC= 1.00D-01 BMatC= 5.85D-13 BMatP= 7.51D-12
 IDIUse=1 WtCom= 1.00D+00 WtEn= 0.00D+00
 Coeff-Com:  0.115D-05-0.155D-05 0.144D-05 0.507D-05 0.234D-04 0.561D-04
 Coeff-Com:  0.136D-03-0.257D-03-0.206D-02-0.142D-02 0.195D-01-0.579D-02
 Coeff-Com: -0.785D-01-0.280D-01 0.184D+00 0.912D+00
 Coeff:      0.115D-05-0.155D-05 0.144D-05 0.507D-05 0.234D-04 0.561D-04
 Coeff:      0.136D-03-0.257D-03-0.206D-02-0.142D-02 0.195D-01-0.579D-02
 Coeff:     -0.785D-01-0.280D-01 0.184D+00 0.912D+00
 Gap=     0.247 Goal=   None    Shift=    0.000
 RMSDP=8.12D-08 MaxDP=9.53D-06 DE=-3.64D-11 OVMax= 2.12D-06

 Cycle  17  Pass 1  IDiag  1:
 RMSU=  1.54D-08    CP:  6.12D-01  2.03D+00  2.11D+00  7.13D-01  8.33D-01
                    CP:  6.93D-01  1.09D+00  1.52D+00  1.06D+00  1.42D+00
                    CP:  1.99D+00  1.71D+00  2.02D+00  1.80D+00  1.57D+00
                    CP:  1.08D+00
 E= -3010.52793870825     Delta-E=        0.000000000014 Rises=F Damp=F
 DIIS: error= 1.80D-08 at cycle  17 NSaved=  17.
 NSaved=17 IEnMin=16 EnMin= -3010.52793870826     IErMin=17 ErrMin= 1.80D-08
 ErrMax= 1.80D-08  0.00D+00 EMaxC= 1.00D-01 BMatC= 1.39D-13 BMatP= 5.85D-13
 IDIUse=1 WtCom= 1.00D+00 WtEn= 0.00D+00
 Coeff-Com: -0.840D-06 0.112D-05 0.184D-06 0.279D-05 0.540D-05 0.129D-04
 Coeff-Com:  0.657D-04-0.116D-04-0.872D-03-0.126D-02 0.696D-02 0.445D-02
 Coeff-Com: -0.319D-02-0.458D-01-0.590D-01 0.303D+00 0.796D+00
 Coeff:     -0.840D-06 0.112D-05 0.184D-06 0.279D-05 0.540D-05 0.129D-04
 Coeff:      0.657D-04-0.116D-04-0.872D-03-0.126D-02 0.696D-02 0.445D-02
 Coeff:     -0.319D-02-0.458D-01-0.590D-01 0.303D+00 0.796D+00
 Gap=     0.247 Goal=   None    Shift=    0.000
 RMSDP=1.79D-08 MaxDP=1.22D-06 DE= 1.36D-11 OVMax= 3.60D-07

 Cycle  18  Pass 1  IDiag  1:
 RMSU=  4.58D-09    CP:  6.12D-01  2.03D+00  2.11D+00  7.13D-01  8.33D-01
                    CP:  6.93D-01  1.09D+00  1.52D+00  1.06D+00  1.42D+00
                    CP:  1.99D+00  1.71D+00  2.02D+00  1.81D+00  1.64D+00
                    CP:  1.27D+00  1.19D+00
 E= -3010.52793870827     Delta-E=       -0.000000000023 Rises=F Damp=F
 DIIS: error= 8.56D-09 at cycle  18 NSaved=  18.
 NSaved=18 IEnMin=18 EnMin= -3010.52793870827     IErMin=18 ErrMin= 8.56D-09
 ErrMax= 8.56D-09  0.00D+00 EMaxC= 1.00D-01 BMatC= 2.81D-14 BMatP= 1.39D-13
 IDIUse=1 WtCom= 1.00D+00 WtEn= 0.00D+00
 Coeff-Com: -0.243D-06 0.325D-06-0.238D-06-0.860D-06-0.559D-05-0.123D-04
 Coeff-Com: -0.205D-04 0.786D-04 0.245D-03-0.141D-03-0.327D-02 0.198D-02
 Coeff-Com:  0.197D-01-0.881D-02-0.659D-01-0.131D+00 0.253D+00 0.934D+00
 Coeff:     -0.243D-06 0.325D-06-0.238D-06-0.860D-06-0.559D-05-0.123D-04
 Coeff:     -0.205D-04 0.786D-04 0.245D-03-0.141D-03-0.327D-02 0.198D-02
 Coeff:      0.197D-01-0.881D-02-0.659D-01-0.131D+00 0.253D+00 0.934D+00
 Gap=     0.247 Goal=   None    Shift=    0.000
 RMSDP=2.26D-08 MaxDP=2.18D-06 DE=-2.27D-11 OVMax= 4.06D-07

 Cycle  19  Pass 1  IDiag  1:
 RMSU=  2.28D-09    CP:  6.12D-01  2.03D+00  2.11D+00  7.13D-01  8.33D-01
                    CP:  6.93D-01  1.09D+00  1.52D+00  1.06D+00  1.42D+00
                    CP:  1.99D+00  1.71D+00  2.03D+00  1.82D+00  1.69D+00
                    CP:  1.35D+00  1.45D+00  1.47D+00
 E= -3010.52793870825     Delta-E=        0.000000000023 Rises=F Damp=F
 DIIS: error= 4.55D-09 at cycle  19 NSaved=  19.
 NSaved=19 IEnMin=18 EnMin= -3010.52793870827     IErMin=19 ErrMin= 4.55D-09
 ErrMax= 4.55D-09  0.00D+00 EMaxC= 1.00D-01 BMatC= 2.60D-15 BMatP= 2.81D-14
 IDIUse=1 WtCom= 1.00D+00 WtEn= 0.00D+00
 Large coefficients: NSaved= 19 BigCof=    0.00 CofMax=   10.00 Det=-5.13D-15
 Inversion failed.  Reducing to 18 matrices.
 Large coefficients: NSaved= 18 BigCof=    0.00 CofMax=   10.00 Det=-5.20D-15
 Inversion failed.  Reducing to 17 matrices.
 Large coefficients: NSaved= 17 BigCof=    0.00 CofMax=   10.00 Det=-6.60D-15
 Inversion failed.  Reducing to 16 matrices.
 Large coefficients: NSaved= 16 BigCof=    0.00 CofMax=   10.00 Det=-7.04D-15
 Inversion failed.  Reducing to 15 matrices.
 Coeff-Com:  0.704D-07-0.233D-06-0.329D-05 0.834D-06 0.346D-04 0.578D-04
 Coeff-Com: -0.263D-03-0.318D-03 0.419D-03 0.315D-02 0.632D-02-0.297D-01
 Coeff-Com: -0.781D-01 0.544D-02 0.109D+01
 Coeff:      0.704D-07-0.233D-06-0.329D-05 0.834D-06 0.346D-04 0.578D-04
 Coeff:     -0.263D-03-0.318D-03 0.419D-03 0.315D-02 0.632D-02-0.297D-01
 Coeff:     -0.781D-01 0.544D-02 0.109D+01
 Gap=     0.247 Goal=   None    Shift=    0.000
 RMSDP=4.93D-09 MaxDP=4.40D-07 DE= 2.27D-11 OVMax= 9.73D-08

 SCF Done:  E(RwB97XD) =  -3010.52793871     A.U. after   19 cycles
            NFock= 19  Conv=0.49D-08     -V/T= 2.0016
 KE= 3.005857667004D+03 PE=-8.701755369455D+03 EE= 1.910425959093D+03
 Leave Link  502 at Thu May  2 14:17:57 2024, MaxMem=   134217728 cpu:            1158.1 elap:            1160.6
 (Enter /software/gaussian/g16-c01/sse4/g16/l601.exe)
 Copying SCF densities to generalized density rwf, IOpCl= 0 IROHF=0.

 **********************************************************************

            Population analysis using the SCF Density.

 **********************************************************************

 Alpha  occ. eigenvalues -- -483.32688 -62.87713 -56.67404 -56.66837 -56.66827
 Alpha  occ. eigenvalues --  -19.49188 -19.49147 -14.88525 -10.60843 -10.59626
 Alpha  occ. eigenvalues --  -10.58527 -10.58124 -10.55147 -10.53709  -9.03520
 Alpha  occ. eigenvalues --   -6.86196  -6.84333  -6.84304  -2.96101  -2.95610
 Alpha  occ. eigenvalues --   -2.95587  -2.94096  -2.94095  -1.52839  -1.35831
 Alpha  occ. eigenvalues --   -1.23958  -1.14342  -1.14049  -1.06349  -1.02095
 Alpha  occ. eigenvalues --   -0.96748  -0.92155  -0.87159  -0.83310  -0.82248
 Alpha  occ. eigenvalues --   -0.81975  -0.79372  -0.78649  -0.77132  -0.73421
 Alpha  occ. eigenvalues --   -0.69650  -0.68939  -0.64694  -0.61426  -0.60287
 Alpha  occ. eigenvalues --   -0.59661  -0.58941  -0.57827  -0.56290
 Alpha virt. eigenvalues --   -0.31586  -0.22594  -0.17246  -0.14776  -0.09675
 Alpha virt. eigenvalues --   -0.07146  -0.06391  -0.05931  -0.05499  -0.04180
 Alpha virt. eigenvalues --   -0.03563  -0.03248  -0.02720  -0.01998  -0.01140
 Alpha virt. eigenvalues --   -0.00755   0.00161   0.00543   0.01205   0.02048
 Alpha virt. eigenvalues --    0.02940   0.03781   0.04260   0.04996   0.05551
 Alpha virt. eigenvalues --    0.05965   0.06081   0.06803   0.07742   0.08093
 Alpha virt. eigenvalues --    0.08783   0.09376   0.09796   0.10201   0.11010
 Alpha virt. eigenvalues --    0.11078   0.11449   0.11782   0.13209   0.14617
 Alpha virt. eigenvalues --    0.15334   0.15657   0.16206   0.16879   0.18133
 Alpha virt. eigenvalues --    0.18528   0.19119   0.19487   0.20097   0.21317
 Alpha virt. eigenvalues --    0.22182   0.23483   0.25714   0.27281   0.30021
 Alpha virt. eigenvalues --    0.30391   0.30684   0.31599   0.32130   0.33898
 Alpha virt. eigenvalues --    0.35780   0.36221   0.38282   0.39357   0.40622
 Alpha virt. eigenvalues --    0.42265   0.42538   0.43946   0.45629   0.45780
 Alpha virt. eigenvalues --    0.46923   0.48154   0.49238   0.50745   0.51757
 Alpha virt. eigenvalues --    0.53723   0.54559   0.56439   0.56966   0.58968
 Alpha virt. eigenvalues --    0.60258   0.60908   0.62862   0.66060   0.67278
 Alpha virt. eigenvalues --    0.70195   0.70537   0.72085   0.72394   0.73459
 Alpha virt. eigenvalues --    0.73632   0.75847   0.77538   0.81646   0.83842
 Alpha virt. eigenvalues --    0.84842   0.85891   0.89535   0.92770   0.96278
 Alpha virt. eigenvalues --    0.97753   1.00447   1.02255   1.04111   1.05204
 Alpha virt. eigenvalues --    1.06351   1.09918   1.10829   1.11438   1.15500
 Alpha virt. eigenvalues --    1.18462   1.20071   1.26544   1.32013   1.34948
 Alpha virt. eigenvalues --    1.35597   1.37463   1.41783   1.53234   1.54831
 Alpha virt. eigenvalues --    1.55491   1.57560   1.59673   1.62345   1.64435
 Alpha virt. eigenvalues --    1.66253   1.70039   1.71493   1.74026   1.78042
 Alpha virt. eigenvalues --    1.83105   1.83869   1.85569   1.93344   1.94633
 Alpha virt. eigenvalues --    1.95880   2.00662   2.01367   2.05631   2.07530
 Alpha virt. eigenvalues --    2.11446   2.13310   2.20876   2.21787   2.26493
 Alpha virt. eigenvalues --    2.32226   2.38081   2.39502   2.42736   2.52031
 Alpha virt. eigenvalues --    2.56777   2.61625   2.64690   2.67356   2.68784
 Alpha virt. eigenvalues --    2.71369   2.73636   2.75678   2.77859   2.80566
 Alpha virt. eigenvalues --    2.91781   2.96126   2.99159   3.04216   3.07538
 Alpha virt. eigenvalues --    3.13517   3.15041   3.16483   3.19872   3.23703
 Alpha virt. eigenvalues --    3.26209   3.35776   3.45642   3.48412   3.51992
 Alpha virt. eigenvalues --    3.55760   3.66029   3.71360   3.82343   3.85992
 Alpha virt. eigenvalues --    4.08522   4.09380   4.17924   4.22074   4.41328
 Alpha virt. eigenvalues --    4.42694   4.53124   4.57483   4.90502   4.93308
 Alpha virt. eigenvalues --    5.02181   5.06655   5.59081   6.12126   6.66549
 Alpha virt. eigenvalues --    7.47402   7.49723   7.59840  23.20924  23.59982
 Alpha virt. eigenvalues --   23.70435  23.76900  23.94645  24.00641  35.28644
 Alpha virt. eigenvalues --   47.92638  49.82279  49.90942 289.80282 289.82622
 Alpha virt. eigenvalues --  289.952441020.93824
          Condensed to atoms (all electrons):
               1          2          3          4          5          6
     1  C    7.477084  -2.273170   0.700105  -0.003923   0.296408   0.056459
     2  C   -2.273170  16.687586  -3.758329   0.459594  -0.019999   0.204163
     3  C    0.700105  -3.758329  18.286510  -1.201069   0.023302   0.114317
     4  C   -0.003923   0.459594  -1.201069   6.303603   0.026998  -0.016767
     5  H    0.296408  -0.019999   0.023302   0.026998   0.320009  -0.001644
     6  H    0.056459   0.204163   0.114317  -0.016767  -0.001644   0.318009
     7  H    0.024385  -0.022909   0.018087   0.305728  -0.002473  -0.000000
     8  N   -0.071355  -0.054352  -1.716221   0.011815  -0.000445  -0.030247
     9  O   -0.014045   0.273206  -0.072049  -0.012832  -0.000029  -0.002368
    10  O    0.243717  -0.193645  -0.246504  -0.022021  -0.000013   0.019402
    11  C    0.640509  -0.668087   2.023768  -0.195864  -0.023767   0.009364
    12  H   -0.011299   0.019389   0.003918   0.022864   0.000026  -0.000017
    13  C   -0.957451  -4.657040  -7.885656   0.650838   0.024081  -0.014407
    14  H   -0.002697   0.021829   0.065604   0.002158  -0.000031   0.000057
    15  Br   0.010370  -0.203607  -0.255196   0.000302  -0.000014  -0.000641
               7          8          9         10         11         12
     1  C    0.024385  -0.071355  -0.014045   0.243717   0.640509  -0.011299
     2  C   -0.022909  -0.054352   0.273206  -0.193645  -0.668087   0.019389
     3  C    0.018087  -1.716221  -0.072049  -0.246504   2.023768   0.003918
     4  C    0.305728   0.011815  -0.012832  -0.022021  -0.195864   0.022864
     5  H   -0.002473  -0.000445  -0.000029  -0.000013  -0.023767   0.000026
     6  H   -0.000000  -0.030247  -0.002368   0.019402   0.009364  -0.000017
     7  H    0.317534   0.000047   0.000000   0.000002   0.027686  -0.002109
     8  N    0.000047   7.538538   0.098102   0.228744  -0.233008   0.000267
     9  O    0.000000   0.098102   7.892465  -0.004148   0.226614   0.000119
    10  O    0.000002   0.228744  -0.004148   7.824767   0.007530  -0.000022
    11  C    0.027686  -0.233008   0.226614   0.007530   7.529273   0.316667
    12  H   -0.002109   0.000267   0.000119  -0.000022   0.316667   0.309220
    13  C   -0.018685   1.334782  -0.409418   0.092381  -3.523075  -0.023883
    14  H   -0.000026  -0.034193   0.012121  -0.001731  -0.005777  -0.004372
    15  Br  -0.000441   0.166120  -0.057457   0.004815   0.052501   0.000701
              13         14         15
     1  C   -0.957451  -0.002697   0.010370
     2  C   -4.657040   0.021829  -0.203607
     3  C   -7.885656   0.065604  -0.255196
     4  C    0.650838   0.002158   0.000302
     5  H    0.024081  -0.000031  -0.000014
     6  H   -0.014407   0.000057  -0.000641
     7  H   -0.018685  -0.000026  -0.000441
     8  N    1.334782  -0.034193   0.166120
     9  O   -0.409418   0.012121  -0.057457
    10  O    0.092381  -0.001731   0.004815
    11  C   -3.523075  -0.005777   0.052501
    12  H   -0.023883  -0.004372   0.000701
    13  C   21.028525   0.252595   0.440325
    14  H    0.252595   0.332595  -0.043418
    15  Br   0.440325  -0.043418  34.712424
 Mulliken charges:
               1
     1  C   -0.115094
     2  C    0.185371
     3  C   -0.100585
     4  C   -0.331424
     5  H    0.357592
     6  H    0.344322
     7  H    0.353175
     8  N   -0.238592
     9  O    0.069719
    10  O    0.046727
    11  C   -0.184335
    12  H    0.368530
    13  C   -0.333911
    14  H    0.405287
    15  Br   0.173216
 Sum of Mulliken charges =   1.00000
 Mulliken charges with hydrogens summed into heavy atoms:
               1
     1  C    0.242499
     2  C    0.529692
     3  C   -0.100585
     4  C    0.021752
     8  N   -0.238592
     9  O    0.069719
    10  O    0.046727
    11  C    0.184195
    13  C    0.071376
    15  Br   0.173216
 Electronic spatial extent (au):  <R**2>=           3950.2924
 Charge=              1.0000 electrons
 Dipole moment (field-independent basis, Debye):
    X=              1.4188    Y=             -0.8348    Z=             -0.6829  Tot=              1.7822
 Quadrupole moment (field-independent basis, Debye-Ang):
   XX=            -73.2140   YY=            -51.2339   ZZ=            -62.3143
   XY=             -2.6289   XZ=             -2.1815   YZ=              2.2964
 Traceless Quadrupole moment (field-independent basis, Debye-Ang):
   XX=            -10.9600   YY=             11.0202   ZZ=             -0.0602
   XY=             -2.6289   XZ=             -2.1815   YZ=              2.2964
 Octapole moment (field-independent basis, Debye-Ang**2):
  XXX=           -540.6367  YYY=             92.5933  ZZZ=             83.3597  XYY=           -139.7056
  XXY=             25.3091  XXZ=             26.7398  XZZ=           -134.2534  YZZ=             17.5423
  YYZ=             26.0311  XYZ=              7.1807
 Hexadecapole moment (field-independent basis, Debye-Ang**3):
 XXXX=          -3586.1562 YYYY=           -702.4689 ZZZZ=           -396.3860 XXXY=            181.0224
 XXXZ=            187.5004 YYYX=            187.5101 YYYZ=           -172.9954 ZZZX=            169.9230
 ZZZY=           -145.3463 XXYY=           -636.6957 XXZZ=           -532.6537 YYZZ=           -172.2859
 XXYZ=            -43.9023 YYXZ=             51.3427 ZZXY=             30.9367
 N-N= 7.749438046504D+02 E-N=-8.701755369125D+03  KE= 3.005857667004D+03
 No NMR shielding tensors so no spin-rotation constants.
 Leave Link  601 at Thu May  2 14:18:05 2024, MaxMem=   134217728 cpu:               7.6 elap:               7.6
 (Enter /software/gaussian/g16-c01/sse4/g16/l9999.exe)
 Unable to Open any file for archive entry.
 1\1\GINC-BHX0006\SP\RwB97XD\6-311+G(d)\C6H5Br1N1O2(1+)\BWEIGHT\02-May-
 2024\0\\#P wB97XD/6-311+G* NoSymm #P Field=X+48\\TitleMe\\1,1\C,0,0.51
 93,1.233,-0.0319\C,0,1.9445,1.2692,-0.0367\C,0,2.6204,0.0928,-0.025\C,
 0,-0.196,0.0301,0.001\H,0,-0.0207,2.1742,-0.0434\H,0,2.4828,2.2089,-0.
 0361\H,0,-1.2777,0.0399,0.0117\N,0,4.0921,0.0959,0.0366\O,0,4.6393,-1.
 0217,0.1446\O,0,4.6649,1.1984,-0.0233\C,0,0.4943,-1.1671,0.021\H,0,-0.
 0325,-2.1149,0.0545\C,0,1.9629,-1.2165,-0.0211\H,0,2.4436,-1.9631,0.61
 51\Br,0,2.173,-1.9491,-1.9062\\Version=ES64L-G16RevC.01\HF=-3010.52793
 87\RMSD=4.929e-09\Dipole=-3.771031,0.8996961,0.9805452\Quadrupole=-8.1
 484724,8.1932525,-0.0447801,-1.9545359,-1.6218786,1.7073512\PG=C01 [X(
 C6H5Br1N1O2)]\\@
 The archive entry for this job was punched.


 BETTER TO HUNT IN FIELDS, FOR HEALTH UNBOUGHT
 THAN FEE THE DOCTOR FOR A NAUSEOUS DRAUGHT.
 THE WISE, FOR CURE, ON EXERCISE DEPEND;
 GOD NEVER MADE HIS WORK FOR MAN TO MEND.
     -- JOHN DRYDEN (1631-1700)
 Job cpu time:       0 days  0 hours 20 minutes 30.2 seconds.
 Elapsed time:       0 days  0 hours 20 minutes 32.7 seconds.
 File lengths (MBytes):  RWF=     40 Int=      0 D2E=      0 Chk=     32 Scr=      1
 Normal termination of Gaussian 16 at Thu May  2 14:18:05 2024.
