 Entering Gaussian System, Link 0=g16
 Initial command:
 /software/gaussian/g16-c01/sse4/g16/l1.exe "/local_scratch/24657486/Gau-29997.inp" -scrdir="/local_scratch/24657486/"
 Entering Link 1 = /software/gaussian/g16-c01/sse4/g16/l1.exe PID=     29998.
  
 Copyright (c) 1988-2019, Gaussian, Inc.  All Rights Reserved.
  
 This is part of the Gaussian(R) 16 program.  It is based on
 the Gaussian(R) 09 system (copyright 2009, Gaussian, Inc.),
 the Gaussian(R) 03 system (copyright 2003, Gaussian, Inc.),
 the Gaussian(R) 98 system (copyright 1998, Gaussian, Inc.),
 the Gaussian(R) 94 system (copyright 1995, Gaussian, Inc.),
 the Gaussian 92(TM) system (copyright 1992, Gaussian, Inc.),
 the Gaussian 90(TM) system (copyright 1990, Gaussian, Inc.),
 the Gaussian 88(TM) system (copyright 1988, Gaussian, Inc.),
 the Gaussian 86(TM) system (copyright 1986, Carnegie Mellon
 University), and the Gaussian 82(TM) system (copyright 1983,
 Carnegie Mellon University). Gaussian is a federally registered
 trademark of Gaussian, Inc.
  
 This software contains proprietary and confidential information,
 including trade secrets, belonging to Gaussian, Inc.
  
 This software is provided under written license and may be
 used, copied, transmitted, or stored only in accord with that
 written license.
  
 The following legend is applicable only to US Government
 contracts under FAR:
  
                    RESTRICTED RIGHTS LEGEND
  
 Use, reproduction and disclosure by the US Government is
 subject to restrictions as set forth in subparagraphs (a)
 and (c) of the Commercial Computer Software - Restricted
 Rights clause in FAR 52.227-19.
  
 Gaussian, Inc.
 340 Quinnipiac St., Bldg. 40, Wallingford CT 06492
  
  
 ---------------------------------------------------------------
 Warning -- This program may not be used in any manner that
 competes with the business of Gaussian, Inc. or will provide
 assistance to any competitor of Gaussian, Inc.  The licensee
 of this program is prohibited from giving any competitor of
 Gaussian, Inc. access to this program.  By using this program,
 the user acknowledges that Gaussian, Inc. is engaged in the
 business of creating and licensing software in the field of
 computational chemistry and represents and warrants to the
 licensee that it is not a competitor of Gaussian, Inc. and that
 it will not use this program in any manner prohibited above.
 ---------------------------------------------------------------
  

 Cite this work as:
 Gaussian 16, Revision C.01,
 M. J. Frisch, G. W. Trucks, H. B. Schlegel, G. E. Scuseria, 
 M. A. Robb, J. R. Cheeseman, G. Scalmani, V. Barone, 
 G. A. Petersson, H. Nakatsuji, X. Li, M. Caricato, A. V. Marenich, 
 J. Bloino, B. G. Janesko, R. Gomperts, B. Mennucci, H. P. Hratchian, 
 J. V. Ortiz, A. F. Izmaylov, J. L. Sonnenberg, D. Williams-Young, 
 F. Ding, F. Lipparini, F. Egidi, J. Goings, B. Peng, A. Petrone, 
 T. Henderson, D. Ranasinghe, V. G. Zakrzewski, J. Gao, N. Rega, 
 G. Zheng, W. Liang, M. Hada, M. Ehara, K. Toyota, R. Fukuda, 
 J. Hasegawa, M. Ishida, T. Nakajima, Y. Honda, O. Kitao, H. Nakai, 
 T. Vreven, K. Throssell, J. A. Montgomery, Jr., J. E. Peralta, 
 F. Ogliaro, M. J. Bearpark, J. J. Heyd, E. N. Brothers, K. N. Kudin, 
 V. N. Staroverov, T. A. Keith, R. Kobayashi, J. Normand, 
 K. Raghavachari, A. P. Rendell, J. C. Burant, S. S. Iyengar, 
 J. Tomasi, M. Cossi, J. M. Millam, M. Klene, C. Adamo, R. Cammi, 
 J. W. Ochterski, R. L. Martin, K. Morokuma, O. Farkas, 
 J. B. Foresman, and D. J. Fox, Gaussian, Inc., Wallingford CT, 2019.
 
 ******************************************
 Gaussian 16:  ES64L-G16RevC.01  3-Jul-2019
                 1-May-2024 
 ******************************************
 %chk=geometry.chk
 %mem=9GB
 %nprocshared=12
 Will use up to   12 processors via shared memory.
 ----------------------------------------
 #P wB97XD/6-311+G* NoSymm #P Field=Y-145
 ----------------------------------------
 1/38=1,172=1/1;
 2/12=2,15=1,17=6,18=5,40=1/2;
 3/5=4,6=6,7=11,11=2,14=2,15=-145,25=1,30=1,74=-58/1,2,3;
 4//1;
 5/5=2,38=5/2;
 6/7=2,8=2,9=2,10=2,28=1/1;
 99/5=1,9=1/99;
 Leave Link    1 at Wed May  1 14:45:54 2024, MaxMem=  1207959552 cpu:               1.0 elap:               1.0
 (Enter /software/gaussian/g16-c01/sse4/g16/l101.exe)
 -------
 TitleMe
 -------
 Symbolic Z-matrix:
 Charge =  1 Multiplicity = 1
 C                     0.0295    1.3397    0.0682 
 C                     1.4348    1.2867    0.0064 
 C                     2.1118    0.0511   -0.0054 
 C                     1.4451   -1.1372    0.0312 
 C                    -0.6879    0.1682    0.11 
 H                    -0.4713    2.2984    0.0781 
 H                     2.0273    2.1965   -0.0322 
 H                     1.9897   -2.0764    0.0232 
 H                    -1.7716    0.1804    0.1582 
 N                     3.5864    0.051    -0.0675 
 O                     4.1471   -1.0597   -0.0881 
 O                     4.145     1.1639   -0.0901 
 C                    -0.0236   -1.1458    0.0835 
 H                    -0.4367   -1.8725    0.7889 
 Br                   -0.5359   -1.8697   -1.7408 
 
 ITRead=  0  0  0  0  0  0  0  0  0  0  0  0  0  0  0
 MicOpt= -1 -1 -1 -1 -1 -1 -1 -1 -1 -1 -1 -1 -1 -1 -1
 NAtoms=     15 NQM=       15 NQMF=       0 NMMI=      0 NMMIF=      0
                NMic=       0 NMicF=      0.
                    Isotopes and Nuclear Properties:
 (Nuclear quadrupole moments (NQMom) in fm**2, nuclear magnetic moments (NMagM)
  in nuclear magnetons)

  Atom         1           2           3           4           5           6           7           8           9          10
 IAtWgt=          12          12          12          12          12           1           1           1           1          14
 AtmWgt=  12.0000000  12.0000000  12.0000000  12.0000000  12.0000000   1.0078250   1.0078250   1.0078250   1.0078250  14.0030740
 NucSpn=           0           0           0           0           0           1           1           1           1           2
 AtZEff=  -0.0000000  -0.0000000  -0.0000000  -0.0000000  -0.0000000  -0.0000000  -0.0000000  -0.0000000  -0.0000000  -0.0000000
 NQMom=    0.0000000   0.0000000   0.0000000   0.0000000   0.0000000   0.0000000   0.0000000   0.0000000   0.0000000   2.0440000
 NMagM=    0.0000000   0.0000000   0.0000000   0.0000000   0.0000000   2.7928460   2.7928460   2.7928460   2.7928460   0.4037610
 AtZNuc=   6.0000000   6.0000000   6.0000000   6.0000000   6.0000000   1.0000000   1.0000000   1.0000000   1.0000000   7.0000000

  Atom        11          12          13          14          15
 IAtWgt=          16          16          12           1          79
 AtmWgt=  15.9949146  15.9949146  12.0000000   1.0078250  78.9183361
 NucSpn=           0           0           0           1           3
 AtZEff=  -0.0000000  -0.0000000  -0.0000000  -0.0000000  -0.0000000
 NQMom=    0.0000000   0.0000000   0.0000000   0.0000000  31.3000000
 NMagM=    0.0000000   0.0000000   0.0000000   2.7928460   2.1063990
 AtZNuc=   8.0000000   8.0000000   6.0000000   1.0000000  35.0000000
 Leave Link  101 at Wed May  1 14:45:55 2024, MaxMem=  1207959552 cpu:               1.3 elap:               1.3
 (Enter /software/gaussian/g16-c01/sse4/g16/l202.exe)
                          Input orientation:                          
 ---------------------------------------------------------------------
 Center     Atomic      Atomic             Coordinates (Angstroms)
 Number     Number       Type             X           Y           Z
 ---------------------------------------------------------------------
      1          6           0        0.029500    1.339700    0.068200
      2          6           0        1.434800    1.286700    0.006400
      3          6           0        2.111800    0.051100   -0.005400
      4          6           0        1.445100   -1.137200    0.031200
      5          6           0       -0.687900    0.168200    0.110000
      6          1           0       -0.471300    2.298400    0.078100
      7          1           0        2.027300    2.196500   -0.032200
      8          1           0        1.989700   -2.076400    0.023200
      9          1           0       -1.771600    0.180400    0.158200
     10          7           0        3.586400    0.051000   -0.067500
     11          8           0        4.147100   -1.059700   -0.088100
     12          8           0        4.145000    1.163900   -0.090100
     13          6           0       -0.023600   -1.145800    0.083500
     14          1           0       -0.436700   -1.872500    0.788900
     15         35           0       -0.535900   -1.869700   -1.740800
 ---------------------------------------------------------------------
                    Distance matrix (angstroms):
                    1          2          3          4          5
     1  C    0.000000
     2  C    1.407656   0.000000
     3  C    2.449874   1.408963   0.000000
     4  C    2.853126   2.424049   1.363043   0.000000
     5  C    1.374344   2.401589   2.804523   2.501993   0.000000
     6  H    1.081667   2.159142   3.424870   3.934226   2.141421
     7  H    2.176095   1.086408   2.147231   3.384750   3.392128
     8  H    3.938800   3.408612   2.131193   1.085702   3.495040
     9  H    2.143837   3.395283   3.888995   3.478413   1.084840
    10  N    3.785591   2.482297   1.475907   2.450862   4.279589
    11  O    4.768247   3.587631   2.320164   2.705743   4.992415
    12  O    4.122294   2.714696   2.319353   3.549540   4.938459
    13  C    2.486114   2.837240   2.449573   1.469656   1.472614
    14  H    3.324903   3.754379   3.290289   2.157764   2.165286
    15  Br   3.727252   4.110867   3.702891   2.756973   2.757100
                    6          7          8          9         10
     6  H    0.000000
     7  H    2.503108   0.000000
     8  H    5.019802   4.273425   0.000000
     9  H    2.486588   4.304945   4.388479   0.000000
    10  N    4.640790   2.652397   2.661486   5.364313   0.000000
    11  O    5.712624   3.885809   2.387560   6.052233   1.244373
    12  O    4.756638   2.356750   3.893289   6.002923   1.245428
    13  C    3.473180   3.923079   2.218790   2.195425   3.806210
    14  H    4.231175   4.827242   2.552506   2.528663   4.540772
    15  Br   4.548146   5.101303   3.087568   3.055498   4.845862
                   11         12         13         14         15
    11  O    0.000000
    12  O    2.223602   0.000000
    13  C    4.175117   4.768865   0.000000
    14  H    4.737193   5.566358   1.093770   0.000000
    15  Br   5.031700   5.817075   2.028436   2.531646   0.000000
 Symmetry turned off by external request.
 Stoichiometry    C6H5BrNO2(1+)
 Framework group  C1[X(C6H5BrNO2)]
 Deg. of freedom    39
 Full point group                 C1      NOp   1
 Rotational constants (GHZ):           1.8252210           0.5518633           0.4576002
 Leave Link  202 at Wed May  1 14:45:56 2024, MaxMem=  1207959552 cpu:               1.2 elap:               1.2
 (Enter /software/gaussian/g16-c01/sse4/g16/l301.exe)
 Standard basis: 6-311+G(d) (5D, 7F)
 Ernie: Thresh=  0.10000D-02 Tol=  0.10000D-05 Strict=F.
 The following finite field(s) will be applied:
 An electric field of              0.0000 -0.0145  0.0000
   261 basis functions,   443 primitive gaussians,   273 cartesian basis functions
    49 alpha electrons       49 beta electrons
       nuclear repulsion energy       739.2122215416 Hartrees.
 IExCor= 4639 DFT=T Ex+Corr=wB97XD ExCW=0 ScaHFX=  1.000000
 ScaDFX=  1.000000  1.000000  1.000000  1.000000 ScalE2=  1.000000  1.000000
 IRadAn=      5 IRanWt=     -1 IRanGd=            0 ICorTp=0 IEmpDi=121
 HFx  wShort=  0.000000 wLong=  0.200000 cFull=  0.222036 cShort=  0.000000 cLong=  0.777964
 DFx  wShort=  0.000000 wLong=  0.200000 cFull=  0.000000 cShort=  0.000000 cLong=  1.000000
 NAtoms=   15 NActive=   15 NUniq=   15 SFac= 1.00D+00 NAtFMM=   60 NAOKFM=F Big=F
 Integral buffers will be    131072 words long.
 Raffenetti 2 integral format.
 Two-electron integral symmetry is turned off.
 R6Disp:  Grimme-D2 Dispersion energy=       -0.0077368520 Hartrees.
 Nuclear repulsion after empirical dispersion term =      739.2044846896 Hartrees.
 Leave Link  301 at Wed May  1 14:45:57 2024, MaxMem=  1207959552 cpu:               0.9 elap:               0.9
 (Enter /software/gaussian/g16-c01/sse4/g16/l302.exe)
 NPDir=0 NMtPBC=     1 NCelOv=     1 NCel=       1 NClECP=     1 NCelD=      1
         NCelK=      1 NCelE2=     1 NClLst=     1 CellRange=     0.0.
 One-electron integrals computed using PRISM.
 NBasis=   261 RedAO= T EigKep=  2.35D-06  NBF=   261
 NBsUse=   261 1.00D-06 EigRej= -1.00D+00 NBFU=   261
 Precomputing XC quadrature grid using
 IXCGrd= 4 IRadAn=           5 IRanWt=          -1 IRanGd=           0 AccXCQ= 0.00D+00.
 Generated NRdTot=       0 NPtTot=           0 NUsed=           0 NTot=          32
 NSgBfM=   273   273   273   273   273 MxSgAt=    15 MxSgA2=    15.
 Leave Link  302 at Wed May  1 14:46:18 2024, MaxMem=  1207959552 cpu:              21.4 elap:              21.4
 (Enter /software/gaussian/g16-c01/sse4/g16/l303.exe)
 DipDrv:  MaxL=1.
 The nuclear repulsion energy is now       740.8525551884 hartrees.
 Leave Link  303 at Wed May  1 14:46:21 2024, MaxMem=  1207959552 cpu:               3.1 elap:               3.1
 (Enter /software/gaussian/g16-c01/sse4/g16/l401.exe)
 ExpMin= 3.50D-02 ExpMax= 4.40D+05 ExpMxC= 1.51D+04 IAcc=3 IRadAn=         5 AccDes= 0.00D+00
 Harris functional with IExCor= 4639 and IRadAn=       5 diagonalized for initial guess.
 HarFok:  IExCor= 4639 AccDes= 0.00D+00 IRadAn=         5 IDoV= 1 UseB2=F ITyADJ=14
 ICtDFT=  3500011 ScaDFX=  1.000000  1.000000  1.000000  1.000000
 FoFCou: FMM=F IPFlag=           0 FMFlag=      100000 FMFlg1=           0
         NFxFlg=           0 DoJE=T BraDBF=F KetDBF=T FulRan=T
         wScrn=  0.000000 ICntrl=       500 IOpCl=  0 I1Cent=   200000004 NGrid=           0
         NMat0=    1 NMatS0=      1 NMatT0=    0 NMatD0=    1 NMtDS0=    0 NMtDT0=    0
 Symmetry not used in FoFCou.
 Harris En= -2970.62951392561    
 JPrj=0 DoOrth=F DoCkMO=F.
 Leave Link  401 at Wed May  1 14:46:51 2024, MaxMem=  1207959552 cpu:              29.9 elap:              29.8
 (Enter /software/gaussian/g16-c01/sse4/g16/l502.exe)
 Two-electron integral symmetry not used.
 Closed shell SCF:
 Using DIIS extrapolation, IDIIS=  1040.
 NGot=  1207959552 LenX=  1207804877 LenY=  1207729907
 Requested convergence on RMS density matrix=1.00D-08 within 128 cycles.
 Requested convergence on MAX density matrix=1.00D-06.
 Requested convergence on             energy=1.00D-06.
 No special actions if energy rises.
 Fock matrices will be formed incrementally for  20 cycles.

 Cycle   1  Pass 1  IDiag  1:
 FoFJK:  IHMeth= 1 ICntrl=       0 DoSepK=T KAlg= 0 I1Cent=           0 FoldK=F
 IRaf=         1 NMat=       1 IRICut=       1 DoRegI=T DoRafI=F ISym2E= 0 IDoP0=0 IntGTp=1.
 FoFCou: FMM=F IPFlag=           0 FMFlag=      100000 FMFlg1=           0
         NFxFlg=           0 DoJE=T BraDBF=F KetDBF=F FulRan=T
         wScrn=  0.000000 ICntrl=       500 IOpCl=  0 I1Cent=           0 NGrid=           0
         NMat0=    1 NMatS0=      1 NMatT0=    0 NMatD0=    1 NMtDS0=    0 NMtDT0=    0
 Symmetry not used in FoFCou.
 E= -3009.63384549492    
 DIIS: error= 3.21D-01 at cycle   1 NSaved=   1.
 NSaved= 1 IEnMin= 1 EnMin= -3009.63384549492     IErMin= 1 ErrMin= 3.21D-01
 ErrMax= 3.21D-01  0.00D+00 EMaxC= 1.00D-01 BMatC= 1.19D+01 BMatP= 1.19D+01
 IDIUse=3 WtCom= 0.00D+00 WtEn= 1.00D+00
 Coeff-Com:  0.100D+01
 Coeff-En:   0.100D+01
 Coeff:      0.100D+01
 Gap=     0.435 Goal=   None    Shift=    0.000
 GapD=    0.435 DampG=2.000 DampE=0.250 DampFc=0.5000 IDamp=-1.
 Damping current iteration by 5.00D-01
 RMSDP=9.18D-02 MaxDP=1.05D+01              OVMax= 3.55D-01

 Cycle   2  Pass 1  IDiag  1:
 RMSU=  1.40D-02    CP:  6.80D-01
 E= -3010.05689769355     Delta-E=       -0.423052198624 Rises=F Damp=T
 DIIS: error= 1.42D-01 at cycle   2 NSaved=   2.
 NSaved= 2 IEnMin= 2 EnMin= -3010.05689769355     IErMin= 2 ErrMin= 1.42D-01
 ErrMax= 1.42D-01  0.00D+00 EMaxC= 1.00D-01 BMatC= 1.80D+00 BMatP= 1.19D+01
 IDIUse=3 WtCom= 0.00D+00 WtEn= 1.00D+00
 Coeff-Com: -0.408D+00 0.141D+01
 Coeff-En:   0.000D+00 0.100D+01
 Coeff:      0.000D+00 0.100D+01
 Gap=     0.312 Goal=   None    Shift=    0.000
 RMSDP=4.87D-02 MaxDP=4.47D+00 DE=-4.23D-01 OVMax= 2.36D-01

 Cycle   3  Pass 1  IDiag  1:
 RMSU=  1.25D-02    CP:  3.40D-01  1.53D+00
 E= -3010.42135727554     Delta-E=       -0.364459581998 Rises=F Damp=F
 DIIS: error= 4.06D-02 at cycle   3 NSaved=   3.
 NSaved= 3 IEnMin= 3 EnMin= -3010.42135727554     IErMin= 3 ErrMin= 4.06D-02
 ErrMax= 4.06D-02  0.00D+00 EMaxC= 1.00D-01 BMatC= 1.89D-01 BMatP= 1.80D+00
 IDIUse=3 WtCom= 5.94D-01 WtEn= 4.06D-01
 Coeff-Com: -0.751D-01 0.311D+00 0.764D+00
 Coeff-En:   0.000D+00 0.000D+00 0.100D+01
 Coeff:     -0.446D-01 0.185D+00 0.860D+00
 Gap=     0.352 Goal=   None    Shift=    0.000
 RMSDP=9.04D-03 MaxDP=4.38D-01 DE=-3.64D-01 OVMax= 3.32D-01

 Cycle   4  Pass 1  IDiag  1:
 RMSU=  6.53D-03    CP:  3.50D-01  1.76D+00  5.85D-01
 E= -3010.25206071680     Delta-E=        0.169296558739 Rises=F Damp=F
 DIIS: error= 7.22D-02 at cycle   4 NSaved=   4.
 NSaved= 4 IEnMin= 3 EnMin= -3010.42135727554     IErMin= 3 ErrMin= 4.06D-02
 ErrMax= 7.22D-02  0.00D+00 EMaxC= 1.00D-01 BMatC= 4.11D-01 BMatP= 1.89D-01
 IDIUse=2 WtCom= 0.00D+00 WtEn= 1.00D+00
 Coeff-En:   0.000D+00 0.000D+00 0.663D+00 0.337D+00
 Coeff:      0.000D+00 0.000D+00 0.663D+00 0.337D+00
 Gap=     0.247 Goal=   None    Shift=    0.000
 RMSDP=6.11D-03 MaxDP=3.51D-01 DE= 1.69D-01 OVMax= 1.93D-01

 Cycle   5  Pass 1  IDiag  1:
 RMSU=  1.46D-03    CP:  3.32D-01  1.68D+00  9.30D-01  5.32D-01
 E= -3010.53567447625     Delta-E=       -0.283613759443 Rises=F Damp=F
 DIIS: error= 1.03D-02 at cycle   5 NSaved=   5.
 NSaved= 5 IEnMin= 5 EnMin= -3010.53567447625     IErMin= 5 ErrMin= 1.03D-02
 ErrMax= 1.03D-02  0.00D+00 EMaxC= 1.00D-01 BMatC= 1.14D-02 BMatP= 1.89D-01
 IDIUse=3 WtCom= 8.97D-01 WtEn= 1.03D-01
 Coeff-Com:  0.196D-02 0.479D-03 0.195D+00-0.146D-02 0.804D+00
 Coeff-En:   0.000D+00 0.000D+00 0.215D-01 0.000D+00 0.978D+00
 Coeff:      0.176D-02 0.430D-03 0.177D+00-0.131D-02 0.822D+00
 Gap=     0.262 Goal=   None    Shift=    0.000
 RMSDP=1.82D-03 MaxDP=1.15D-01 DE=-2.84D-01 OVMax= 3.32D-02

 Cycle   6  Pass 1  IDiag  1:
 RMSU=  8.09D-04    CP:  3.23D-01  1.65D+00  9.80D-01  4.34D-01  9.77D-01
 E= -3010.54317014278     Delta-E=       -0.007495666530 Rises=F Damp=F
 DIIS: error= 1.91D-03 at cycle   6 NSaved=   6.
 NSaved= 6 IEnMin= 6 EnMin= -3010.54317014278     IErMin= 6 ErrMin= 1.91D-03
 ErrMax= 1.91D-03  0.00D+00 EMaxC= 1.00D-01 BMatC= 6.39D-04 BMatP= 1.14D-02
 IDIUse=3 WtCom= 9.81D-01 WtEn= 1.91D-02
 Coeff-Com: -0.249D-02 0.528D-02 0.226D-01-0.367D-01 0.397D+00 0.615D+00
 Coeff-En:   0.000D+00 0.000D+00 0.000D+00 0.000D+00 0.000D+00 0.100D+01
 Coeff:     -0.244D-02 0.517D-02 0.222D-01-0.360D-01 0.389D+00 0.622D+00
 Gap=     0.254 Goal=   None    Shift=    0.000
 RMSDP=3.68D-04 MaxDP=2.34D-02 DE=-7.50D-03 OVMax= 7.17D-03

 Cycle   7  Pass 1  IDiag  1:
 RMSU=  2.45D-04    CP:  3.22D-01  1.66D+00  9.74D-01  4.46D-01  1.09D+00
                    CP:  1.05D+00
 E= -3010.54377624953     Delta-E=       -0.000606106757 Rises=F Damp=F
 DIIS: error= 4.01D-04 at cycle   7 NSaved=   7.
 NSaved= 7 IEnMin= 7 EnMin= -3010.54377624953     IErMin= 7 ErrMin= 4.01D-04
 ErrMax= 4.01D-04  0.00D+00 EMaxC= 1.00D-01 BMatC= 2.77D-05 BMatP= 6.39D-04
 IDIUse=3 WtCom= 9.96D-01 WtEn= 4.01D-03
 Coeff-Com: -0.764D-03 0.116D-02-0.105D-01-0.103D-01 0.336D-01 0.199D+00
 Coeff-Com:  0.787D+00
 Coeff-En:   0.000D+00 0.000D+00 0.000D+00 0.000D+00 0.000D+00 0.000D+00
 Coeff-En:   0.100D+01
 Coeff:     -0.761D-03 0.116D-02-0.105D-01-0.102D-01 0.334D-01 0.199D+00
 Coeff:      0.788D+00
 Gap=     0.254 Goal=   None    Shift=    0.000
 RMSDP=2.18D-04 MaxDP=1.42D-02 DE=-6.06D-04 OVMax= 5.53D-03

 Cycle   8  Pass 1  IDiag  1:
 RMSU=  1.19D-04    CP:  3.21D-01  1.66D+00  9.84D-01  4.49D-01  1.12D+00
                    CP:  1.08D+00  9.25D-01
 E= -3010.54384861948     Delta-E=       -0.000072369944 Rises=F Damp=F
 DIIS: error= 1.56D-04 at cycle   8 NSaved=   8.
 NSaved= 8 IEnMin= 8 EnMin= -3010.54384861948     IErMin= 8 ErrMin= 1.56D-04
 ErrMax= 1.56D-04  0.00D+00 EMaxC= 1.00D-01 BMatC= 6.21D-06 BMatP= 2.77D-05
 IDIUse=3 WtCom= 9.98D-01 WtEn= 1.56D-03
 Coeff-Com:  0.444D-03-0.117D-02-0.112D-01 0.472D-02-0.876D-01-0.723D-01
 Coeff-Com:  0.309D+00 0.858D+00
 Coeff-En:   0.000D+00 0.000D+00 0.000D+00 0.000D+00 0.000D+00 0.000D+00
 Coeff-En:   0.000D+00 0.100D+01
 Coeff:      0.443D-03-0.117D-02-0.112D-01 0.471D-02-0.875D-01-0.722D-01
 Coeff:      0.309D+00 0.858D+00
 Gap=     0.254 Goal=   None    Shift=    0.000
 RMSDP=1.07D-04 MaxDP=5.66D-03 DE=-7.24D-05 OVMax= 4.51D-03

 Cycle   9  Pass 1  IDiag  1:
 RMSU=  4.95D-05    CP:  3.20D-01  1.66D+00  9.85D-01  4.48D-01  1.13D+00
                    CP:  1.13D+00  1.16D+00  1.27D+00
 E= -3010.54387464736     Delta-E=       -0.000026027882 Rises=F Damp=F
 DIIS: error= 6.30D-05 at cycle   9 NSaved=   9.
 NSaved= 9 IEnMin= 9 EnMin= -3010.54387464736     IErMin= 9 ErrMin= 6.30D-05
 ErrMax= 6.30D-05  0.00D+00 EMaxC= 1.00D-01 BMatC= 1.27D-06 BMatP= 6.21D-06
 IDIUse=1 WtCom= 1.00D+00 WtEn= 0.00D+00
 Coeff-Com:  0.177D-03-0.402D-03-0.268D-02 0.389D-02-0.373D-01-0.498D-01
 Coeff-Com: -0.101D-01 0.312D+00 0.784D+00
 Coeff:      0.177D-03-0.402D-03-0.268D-02 0.389D-02-0.373D-01-0.498D-01
 Coeff:     -0.101D-01 0.312D+00 0.784D+00
 Gap=     0.254 Goal=   None    Shift=    0.000
 RMSDP=3.66D-05 MaxDP=2.63D-03 DE=-2.60D-05 OVMax= 1.87D-03

 Cycle  10  Pass 1  IDiag  1:
 RMSU=  1.60D-05    CP:  3.20D-01  1.65D+00  9.84D-01  4.48D-01  1.12D+00
                    CP:  1.13D+00  1.22D+00  1.45D+00  1.21D+00
 E= -3010.54387921736     Delta-E=       -0.000004570002 Rises=F Damp=F
 DIIS: error= 2.98D-05 at cycle  10 NSaved=  10.
 NSaved=10 IEnMin=10 EnMin= -3010.54387921736     IErMin=10 ErrMin= 2.98D-05
 ErrMax= 2.98D-05  0.00D+00 EMaxC= 1.00D-01 BMatC= 2.72D-07 BMatP= 1.27D-06
 IDIUse=1 WtCom= 1.00D+00 WtEn= 0.00D+00
 Coeff-Com: -0.108D-03 0.265D-03 0.138D-02 0.680D-04 0.914D-02 0.179D-02
 Coeff-Com: -0.952D-01-0.113D+00 0.306D+00 0.890D+00
 Coeff:     -0.108D-03 0.265D-03 0.138D-02 0.680D-04 0.914D-02 0.179D-02
 Coeff:     -0.952D-01-0.113D+00 0.306D+00 0.890D+00
 Gap=     0.254 Goal=   None    Shift=    0.000
 RMSDP=3.36D-05 MaxDP=1.80D-03 DE=-4.57D-06 OVMax= 1.21D-03

 Cycle  11  Pass 1  IDiag  1:
 RMSU=  9.11D-06    CP:  3.20D-01  1.65D+00  9.84D-01  4.49D-01  1.11D+00
                    CP:  1.12D+00  1.25D+00  1.55D+00  1.44D+00  1.25D+00
 E= -3010.54388037697     Delta-E=       -0.000001159607 Rises=F Damp=F
 DIIS: error= 9.91D-06 at cycle  11 NSaved=  11.
 NSaved=11 IEnMin=11 EnMin= -3010.54388037697     IErMin=11 ErrMin= 9.91D-06
 ErrMax= 9.91D-06  0.00D+00 EMaxC= 1.00D-01 BMatC= 4.05D-08 BMatP= 2.72D-07
 IDIUse=1 WtCom= 1.00D+00 WtEn= 0.00D+00
 Coeff-Com: -0.501D-04 0.130D-03 0.113D-02-0.501D-03 0.922D-02 0.792D-02
 Coeff-Com: -0.330D-01-0.922D-01 0.415D-02 0.340D+00 0.764D+00
 Coeff:     -0.501D-04 0.130D-03 0.113D-02-0.501D-03 0.922D-02 0.792D-02
 Coeff:     -0.330D-01-0.922D-01 0.415D-02 0.340D+00 0.764D+00
 Gap=     0.254 Goal=   None    Shift=    0.000
 RMSDP=1.11D-05 MaxDP=5.93D-04 DE=-1.16D-06 OVMax= 3.14D-04

 Cycle  12  Pass 1  IDiag  1:
 RMSU=  2.45D-06    CP:  3.20D-01  1.65D+00  9.83D-01  4.49D-01  1.11D+00
                    CP:  1.12D+00  1.26D+00  1.56D+00  1.51D+00  1.44D+00
                    CP:  1.20D+00
 E= -3010.54388048734     Delta-E=       -0.000000110372 Rises=F Damp=F
 DIIS: error= 9.22D-06 at cycle  12 NSaved=  12.
 NSaved=12 IEnMin=12 EnMin= -3010.54388048734     IErMin=12 ErrMin= 9.22D-06
 ErrMax= 9.22D-06  0.00D+00 EMaxC= 1.00D-01 BMatC= 8.93D-09 BMatP= 4.05D-08
 IDIUse=1 WtCom= 1.00D+00 WtEn= 0.00D+00
 Coeff-Com:  0.161D-04-0.290D-04 0.197D-03-0.189D-03 0.124D-02 0.153D-02
 Coeff-Com:  0.783D-02-0.118D-01-0.509D-01-0.454D-01 0.241D+00 0.856D+00
 Coeff:      0.161D-04-0.290D-04 0.197D-03-0.189D-03 0.124D-02 0.153D-02
 Coeff:      0.783D-02-0.118D-01-0.509D-01-0.454D-01 0.241D+00 0.856D+00
 Gap=     0.254 Goal=   None    Shift=    0.000
 RMSDP=4.47D-06 MaxDP=2.55D-04 DE=-1.10D-07 OVMax= 1.18D-04

 Cycle  13  Pass 1  IDiag  1:
 RMSU=  1.60D-06    CP:  3.20D-01  1.65D+00  9.83D-01  4.49D-01  1.11D+00
                    CP:  1.12D+00  1.27D+00  1.56D+00  1.53D+00  1.47D+00
                    CP:  1.32D+00  1.19D+00
 E= -3010.54388051171     Delta-E=       -0.000000024364 Rises=F Damp=F
 DIIS: error= 2.09D-06 at cycle  13 NSaved=  13.
 NSaved=13 IEnMin=13 EnMin= -3010.54388051171     IErMin=13 ErrMin= 2.09D-06
 ErrMax= 2.09D-06  0.00D+00 EMaxC= 1.00D-01 BMatC= 1.04D-09 BMatP= 8.93D-09
 IDIUse=1 WtCom= 1.00D+00 WtEn= 0.00D+00
 Coeff-Com:  0.797D-05-0.188D-04-0.969D-04 0.294D-04-0.943D-03-0.707D-03
 Coeff-Com:  0.556D-02 0.824D-02-0.424D-02-0.499D-01-0.101D+00 0.140D+00
 Coeff-Com:  0.100D+01
 Coeff:      0.797D-05-0.188D-04-0.969D-04 0.294D-04-0.943D-03-0.707D-03
 Coeff:      0.556D-02 0.824D-02-0.424D-02-0.499D-01-0.101D+00 0.140D+00
 Coeff:      0.100D+01
 Gap=     0.254 Goal=   None    Shift=    0.000
 RMSDP=1.41D-06 MaxDP=6.22D-05 DE=-2.44D-08 OVMax= 5.12D-05

 Cycle  14  Pass 1  IDiag  1:
 RMSU=  6.70D-07    CP:  3.20D-01  1.65D+00  9.83D-01  4.49D-01  1.11D+00
                    CP:  1.12D+00  1.27D+00  1.56D+00  1.54D+00  1.48D+00
                    CP:  1.37D+00  1.38D+00  1.20D+00
 E= -3010.54388051690     Delta-E=       -0.000000005198 Rises=F Damp=F
 DIIS: error= 1.23D-06 at cycle  14 NSaved=  14.
 NSaved=14 IEnMin=14 EnMin= -3010.54388051690     IErMin=14 ErrMin= 1.23D-06
 ErrMax= 1.23D-06  0.00D+00 EMaxC= 1.00D-01 BMatC= 1.79D-10 BMatP= 1.04D-09
 IDIUse=1 WtCom= 1.00D+00 WtEn= 0.00D+00
 Coeff-Com: -0.235D-05 0.331D-05-0.629D-04 0.290D-04-0.352D-03-0.214D-03
 Coeff-Com:  0.147D-03 0.339D-02 0.853D-02-0.453D-02-0.675D-01-0.968D-01
 Coeff-Com:  0.235D+00 0.923D+00
 Coeff:     -0.235D-05 0.331D-05-0.629D-04 0.290D-04-0.352D-03-0.214D-03
 Coeff:      0.147D-03 0.339D-02 0.853D-02-0.453D-02-0.675D-01-0.968D-01
 Coeff:      0.235D+00 0.923D+00
 Gap=     0.254 Goal=   None    Shift=    0.000
 RMSDP=5.13D-07 MaxDP=2.55D-05 DE=-5.20D-09 OVMax= 2.43D-05

 Cycle  15  Pass 1  IDiag  1:
 RMSU=  2.51D-07    CP:  3.20D-01  1.65D+00  9.83D-01  4.49D-01  1.11D+00
                    CP:  1.12D+00  1.27D+00  1.56D+00  1.54D+00  1.48D+00
                    CP:  1.37D+00  1.44D+00  1.28D+00  1.27D+00
 E= -3010.54388051802     Delta-E=       -0.000000001114 Rises=F Damp=F
 DIIS: error= 5.09D-07 at cycle  15 NSaved=  15.
 NSaved=15 IEnMin=15 EnMin= -3010.54388051802     IErMin=15 ErrMin= 5.09D-07
 ErrMax= 5.09D-07  0.00D+00 EMaxC= 1.00D-01 BMatC= 5.49D-11 BMatP= 1.79D-10
 IDIUse=1 WtCom= 1.00D+00 WtEn= 0.00D+00
 Coeff-Com: -0.264D-05 0.546D-05 0.301D-05-0.742D-06 0.141D-03 0.140D-03
 Coeff-Com: -0.135D-02-0.149D-02 0.284D-02 0.959D-02 0.114D-01-0.542D-01
 Coeff-Com: -0.235D+00 0.292D+00 0.976D+00
 Coeff:     -0.264D-05 0.546D-05 0.301D-05-0.742D-06 0.141D-03 0.140D-03
 Coeff:     -0.135D-02-0.149D-02 0.284D-02 0.959D-02 0.114D-01-0.542D-01
 Coeff:     -0.235D+00 0.292D+00 0.976D+00
 Gap=     0.254 Goal=   None    Shift=    0.000
 RMSDP=4.01D-07 MaxDP=2.21D-05 DE=-1.11D-09 OVMax= 1.41D-05

 Cycle  16  Pass 1  IDiag  1:
 RMSU=  1.71D-07    CP:  3.20D-01  1.65D+00  9.83D-01  4.49D-01  1.11D+00
                    CP:  1.12D+00  1.27D+00  1.56D+00  1.54D+00  1.48D+00
                    CP:  1.37D+00  1.48D+00  1.35D+00  1.49D+00  1.53D+00
 E= -3010.54388051819     Delta-E=       -0.000000000176 Rises=F Damp=F
 DIIS: error= 1.80D-07 at cycle  16 NSaved=  16.
 NSaved=16 IEnMin=16 EnMin= -3010.54388051819     IErMin=16 ErrMin= 1.80D-07
 ErrMax= 1.80D-07  0.00D+00 EMaxC= 1.00D-01 BMatC= 3.64D-12 BMatP= 5.49D-11
 IDIUse=1 WtCom= 1.00D+00 WtEn= 0.00D+00
 Coeff-Com:  0.151D-06-0.153D-06 0.644D-05-0.164D-05 0.466D-04 0.297D-04
 Coeff-Com: -0.241D-03-0.521D-03-0.263D-03 0.201D-02 0.108D-01 0.138D-02
 Coeff-Com: -0.800D-01-0.256D-01 0.173D+00 0.919D+00
 Coeff:      0.151D-06-0.153D-06 0.644D-05-0.164D-05 0.466D-04 0.297D-04
 Coeff:     -0.241D-03-0.521D-03-0.263D-03 0.201D-02 0.108D-01 0.138D-02
 Coeff:     -0.800D-01-0.256D-01 0.173D+00 0.919D+00
 Gap=     0.254 Goal=   None    Shift=    0.000
 RMSDP=8.22D-08 MaxDP=2.78D-06 DE=-1.76D-10 OVMax= 3.42D-06

 Cycle  17  Pass 1  IDiag  1:
 RMSU=  3.68D-08    CP:  3.20D-01  1.65D+00  9.83D-01  4.49D-01  1.11D+00
                    CP:  1.12D+00  1.27D+00  1.56D+00  1.54D+00  1.48D+00
                    CP:  1.37D+00  1.49D+00  1.34D+00  1.55D+00  1.68D+00
                    CP:  1.04D+00
 E= -3010.54388051827     Delta-E=       -0.000000000075 Rises=F Damp=F
 DIIS: error= 5.07D-08 at cycle  17 NSaved=  17.
 NSaved=17 IEnMin=17 EnMin= -3010.54388051827     IErMin=17 ErrMin= 5.07D-08
 ErrMax= 5.07D-08  0.00D+00 EMaxC= 1.00D-01 BMatC= 9.59D-13 BMatP= 3.64D-12
 IDIUse=1 WtCom= 1.00D+00 WtEn= 0.00D+00
 Coeff-Com:  0.369D-06-0.708D-06 0.209D-05-0.725D-06-0.447D-06-0.180D-05
 Coeff-Com:  0.963D-04 0.978D-06-0.564D-03-0.705D-03 0.242D-02 0.809D-02
 Coeff-Com:  0.132D-02-0.427D-01-0.856D-01 0.336D+00 0.781D+00
 Coeff:      0.369D-06-0.708D-06 0.209D-05-0.725D-06-0.447D-06-0.180D-05
 Coeff:      0.963D-04 0.978D-06-0.564D-03-0.705D-03 0.242D-02 0.809D-02
 Coeff:      0.132D-02-0.427D-01-0.856D-01 0.336D+00 0.781D+00
 Gap=     0.254 Goal=   None    Shift=    0.000
 RMSDP=3.42D-08 MaxDP=1.25D-06 DE=-7.46D-11 OVMax= 1.22D-06

 Cycle  18  Pass 1  IDiag  1:
 RMSU=  1.36D-08    CP:  3.20D-01  1.65D+00  9.83D-01  4.49D-01  1.11D+00
                    CP:  1.12D+00  1.27D+00  1.56D+00  1.54D+00  1.48D+00
                    CP:  1.37D+00  1.49D+00  1.35D+00  1.55D+00  1.73D+00
                    CP:  1.11D+00  1.18D+00
 E= -3010.54388051825     Delta-E=        0.000000000014 Rises=F Damp=F
 DIIS: error= 2.01D-08 at cycle  18 NSaved=  18.
 NSaved=18 IEnMin=17 EnMin= -3010.54388051827     IErMin=18 ErrMin= 2.01D-08
 ErrMax= 2.01D-08  0.00D+00 EMaxC= 1.00D-01 BMatC= 8.82D-14 BMatP= 9.59D-13
 IDIUse=1 WtCom= 1.00D+00 WtEn= 0.00D+00
 Coeff-Com:  0.297D-07-0.759D-07-0.951D-06 0.594D-06-0.106D-04-0.553D-05
 Coeff-Com:  0.615D-04 0.115D-03-0.301D-04-0.459D-03-0.133D-02 0.127D-02
 Coeff-Com:  0.115D-01 0.486D-03-0.449D-01-0.834D-01 0.763D-01 0.104D+01
 Coeff:      0.297D-07-0.759D-07-0.951D-06 0.594D-06-0.106D-04-0.553D-05
 Coeff:      0.615D-04 0.115D-03-0.301D-04-0.459D-03-0.133D-02 0.127D-02
 Coeff:      0.115D-01 0.486D-03-0.449D-01-0.834D-01 0.763D-01 0.104D+01
 Gap=     0.254 Goal=   None    Shift=    0.000
 RMSDP=1.89D-08 MaxDP=9.09D-07 DE= 1.41D-11 OVMax= 7.44D-07

 Cycle  19  Pass 1  IDiag  1:
 RMSU=  6.34D-09    CP:  3.20D-01  1.65D+00  9.83D-01  4.49D-01  1.11D+00
                    CP:  1.12D+00  1.27D+00  1.56D+00  1.54D+00  1.48D+00
                    CP:  1.37D+00  1.49D+00  1.34D+00  1.55D+00  1.74D+00
                    CP:  1.14D+00  1.30D+00  1.43D+00
 E= -3010.54388051824     Delta-E=        0.000000000018 Rises=F Damp=F
 DIIS: error= 1.03D-08 at cycle  19 NSaved=  19.
 NSaved=19 IEnMin=17 EnMin= -3010.54388051827     IErMin=19 ErrMin= 1.03D-08
 ErrMax= 1.03D-08  0.00D+00 EMaxC= 1.00D-01 BMatC= 1.74D-14 BMatP= 8.82D-14
 IDIUse=1 WtCom= 1.00D+00 WtEn= 0.00D+00
 Coeff-Com: -0.395D-07 0.699D-07-0.412D-06 0.186D-06-0.851D-06 0.981D-06
 Coeff-Com: -0.326D-05 0.545D-05 0.561D-04 0.267D-04-0.369D-03-0.555D-03
 Coeff-Com:  0.760D-03 0.521D-02 0.368D-02-0.446D-01-0.894D-01 0.131D+00
 Coeff-Com:  0.994D+00
 Coeff:     -0.395D-07 0.699D-07-0.412D-06 0.186D-06-0.851D-06 0.981D-06
 Coeff:     -0.326D-05 0.545D-05 0.561D-04 0.267D-04-0.369D-03-0.555D-03
 Coeff:      0.760D-03 0.521D-02 0.368D-02-0.446D-01-0.894D-01 0.131D+00
 Coeff:      0.994D+00
 Gap=     0.254 Goal=   None    Shift=    0.000
 RMSDP=5.70D-09 MaxDP=3.41D-07 DE= 1.77D-11 OVMax= 2.27D-07

 SCF Done:  E(RwB97XD) =  -3010.54388052     A.U. after   19 cycles
            NFock= 19  Conv=0.57D-08     -V/T= 2.0016
 KE= 3.005869883695D+03 PE=-8.634268215277D+03 EE= 1.877001895875D+03
 Leave Link  502 at Wed May  1 15:04:31 2024, MaxMem=  1207959552 cpu:            1058.9 elap:            1059.3
 (Enter /software/gaussian/g16-c01/sse4/g16/l601.exe)
 Copying SCF densities to generalized density rwf, IOpCl= 0 IROHF=0.

 **********************************************************************

            Population analysis using the SCF Density.

 **********************************************************************

 Alpha  occ. eigenvalues -- -483.33512 -62.88563 -56.68220 -56.67698 -56.67696
 Alpha  occ. eigenvalues --  -19.46315 -19.45968 -14.85607 -10.60176 -10.57829
 Alpha  occ. eigenvalues --  -10.57758 -10.57238 -10.56672 -10.52208  -9.04389
 Alpha  occ. eigenvalues --   -6.86966  -6.85247  -6.85239  -2.96894  -2.96434
 Alpha  occ. eigenvalues --   -2.96427  -2.95051  -2.95051  -1.49897  -1.32865
 Alpha  occ. eigenvalues --   -1.23269  -1.15090  -1.11847  -1.06103  -1.01278
 Alpha  occ. eigenvalues --   -0.96034  -0.91282  -0.85537  -0.81129  -0.80872
 Alpha  occ. eigenvalues --   -0.80298  -0.79077  -0.76320  -0.75957  -0.73215
 Alpha  occ. eigenvalues --   -0.69417  -0.67402  -0.64122  -0.61429  -0.59179
 Alpha  occ. eigenvalues --   -0.57397  -0.56758  -0.56341  -0.55749
 Alpha virt. eigenvalues --   -0.30346  -0.21647  -0.17181  -0.14712  -0.13237
 Alpha virt. eigenvalues --   -0.09988  -0.09929  -0.07243  -0.06012  -0.05332
 Alpha virt. eigenvalues --   -0.04472  -0.04176  -0.02660  -0.02471  -0.01452
 Alpha virt. eigenvalues --    0.00134   0.00296   0.01797   0.02204   0.02400
 Alpha virt. eigenvalues --    0.03075   0.03868   0.04466   0.04943   0.06445
 Alpha virt. eigenvalues --    0.06974   0.07582   0.08614   0.09213   0.09700
 Alpha virt. eigenvalues --    0.09869   0.11012   0.11489   0.11986   0.12506
 Alpha virt. eigenvalues --    0.13326   0.13473   0.14068   0.14796   0.15905
 Alpha virt. eigenvalues --    0.16913   0.18352   0.19178   0.19738   0.20237
 Alpha virt. eigenvalues --    0.20398   0.21399   0.21869   0.23794   0.25343
 Alpha virt. eigenvalues --    0.26080   0.26727   0.27818   0.28061   0.28520
 Alpha virt. eigenvalues --    0.30462   0.31883   0.33116   0.34931   0.36071
 Alpha virt. eigenvalues --    0.36812   0.37634   0.39899   0.40080   0.40922
 Alpha virt. eigenvalues --    0.42903   0.43424   0.44507   0.46081   0.47033
 Alpha virt. eigenvalues --    0.48313   0.48910   0.50661   0.51212   0.52742
 Alpha virt. eigenvalues --    0.53277   0.53583   0.56032   0.56759   0.60026
 Alpha virt. eigenvalues --    0.61160   0.62240   0.62567   0.65285   0.68315
 Alpha virt. eigenvalues --    0.69281   0.71611   0.72709   0.73428   0.74592
 Alpha virt. eigenvalues --    0.75832   0.79602   0.80013   0.81565   0.84676
 Alpha virt. eigenvalues --    0.85711   0.87904   0.91253   0.92498   0.97702
 Alpha virt. eigenvalues --    0.99559   1.01178   1.03819   1.05211   1.06121
 Alpha virt. eigenvalues --    1.08288   1.10646   1.11910   1.12353   1.14265
 Alpha virt. eigenvalues --    1.22173   1.24220   1.26328   1.32953   1.36110
 Alpha virt. eigenvalues --    1.36515   1.36993   1.44390   1.53996   1.56789
 Alpha virt. eigenvalues --    1.57958   1.58314   1.60400   1.61751   1.65785
 Alpha virt. eigenvalues --    1.68684   1.69038   1.73535   1.75072   1.78812
 Alpha virt. eigenvalues --    1.80513   1.85187   1.87629   1.91101   1.93166
 Alpha virt. eigenvalues --    1.97041   2.02526   2.03265   2.05254   2.07279
 Alpha virt. eigenvalues --    2.08448   2.14432   2.20511   2.22687   2.30573
 Alpha virt. eigenvalues --    2.37080   2.40545   2.41470   2.43182   2.52242
 Alpha virt. eigenvalues --    2.56556   2.62895   2.65828   2.67926   2.71596
 Alpha virt. eigenvalues --    2.72839   2.76078   2.77158   2.80716   2.81203
 Alpha virt. eigenvalues --    2.92843   2.95517   3.00332   3.04262   3.08556
 Alpha virt. eigenvalues --    3.12762   3.15328   3.19336   3.23467   3.24107
 Alpha virt. eigenvalues --    3.27084   3.38850   3.48076   3.51018   3.53935
 Alpha virt. eigenvalues --    3.56431   3.69616   3.73849   3.81923   3.86719
 Alpha virt. eigenvalues --    4.06361   4.06613   4.14333   4.19467   4.40363
 Alpha virt. eigenvalues --    4.44095   4.56945   4.59612   4.92895   4.95637
 Alpha virt. eigenvalues --    5.04199   5.08470   5.62542   6.15503   6.62126
 Alpha virt. eigenvalues --    7.45046   7.46615   7.56515  23.20939  23.60976
 Alpha virt. eigenvalues --   23.67931  23.79491  23.95979  24.01150  35.32347
 Alpha virt. eigenvalues --   47.88846  49.85248  49.94066 289.78203 289.79873
 Alpha virt. eigenvalues --  289.923411020.89310
          Condensed to atoms (all electrons):
               1          2          3          4          5          6
     1  C    8.550843  -1.868116   0.178098  -1.461101  -0.842169   0.305599
     2  C   -1.868116  12.042247  -1.759817  -2.769257   1.032367  -0.010400
     3  C    0.178098  -1.759817  12.809684  -2.642850  -1.325381   0.022464
     4  C   -1.461101  -2.769257  -2.642850  15.324740   0.882031   0.004774
     5  C   -0.842169   1.032367  -1.325381   0.882031   7.550729   0.008617
     6  H    0.305599  -0.010400   0.022464   0.004774   0.008617   0.285423
     7  H    0.048762   0.250955   0.051663  -0.020388  -0.015047  -0.001068
     8  H    0.008891  -0.030463   0.114659   0.173995  -0.026439   0.000003
     9  H    0.056015  -0.024698   0.008381  -0.018148   0.297315  -0.002016
    10  N   -0.094422   0.288063  -0.907614   0.316215   0.031032  -0.000434
    11  O    0.036663  -0.103717  -0.245762  -0.063387  -0.066731  -0.000027
    12  O    0.279851   0.040761  -0.292102  -0.088758  -0.035487  -0.000005
    13  C    1.344613  -1.599940   0.694257  -3.912375  -1.528618  -0.003899
    14  H   -0.018164   0.021823  -0.014831   0.050085  -0.006918  -0.000018
    15  Br   0.020275   0.037728  -0.043201  -0.039872   0.002895  -0.000313
               7          8          9         10         11         12
     1  C    0.048762   0.008891   0.056015  -0.094422   0.036663   0.279851
     2  C    0.250955  -0.030463  -0.024698   0.288063  -0.103717   0.040761
     3  C    0.051663   0.114659   0.008381  -0.907614  -0.245762  -0.292102
     4  C   -0.020388   0.173995  -0.018148   0.316215  -0.063387  -0.088758
     5  C   -0.015047  -0.026439   0.297315   0.031032  -0.066731  -0.035487
     6  H   -0.001068   0.000003  -0.002016  -0.000434  -0.000027  -0.000005
     7  H    0.260839   0.000016   0.000044  -0.020234  -0.001050   0.017857
     8  H    0.000016   0.339619   0.000093  -0.028875   0.026863  -0.001303
     9  H    0.000044   0.000093   0.317458   0.000292   0.000007   0.000005
    10  N   -0.020234  -0.028875   0.000292   7.368963   0.127469   0.208868
    11  O   -0.001050   0.026863   0.000007   0.127469   7.973400   0.000957
    12  O    0.017857  -0.001303   0.000005   0.208868   0.000957   7.730316
    13  C    0.010902   0.099679   0.009519  -0.193697   0.358110   0.024930
    14  H   -0.000025  -0.005696  -0.005132  -0.000199  -0.000133  -0.000085
    15  Br   0.000041   0.005497   0.005555   0.013891  -0.001141   0.002151
              13         14         15
     1  C    1.344613  -0.018164   0.020275
     2  C   -1.599940   0.021823   0.037728
     3  C    0.694257  -0.014831  -0.043201
     4  C   -3.912375   0.050085  -0.039872
     5  C   -1.528618  -0.006918   0.002895
     6  H   -0.003899  -0.000018  -0.000313
     7  H    0.010902  -0.000025   0.000041
     8  H    0.099679  -0.005696   0.005497
     9  H    0.009519  -0.005132   0.005555
    10  N   -0.193697  -0.000199   0.013891
    11  O    0.358110  -0.000133  -0.001141
    12  O    0.024930  -0.000085   0.002151
    13  C   10.717148   0.282894   0.155789
    14  H    0.282894   0.387477  -0.057566
    15  Br   0.155789  -0.057566  34.818741
 Mulliken charges:
               1
     1  C   -0.545637
     2  C    0.452465
     3  C   -0.647649
     4  C    0.264296
     5  C    0.041803
     6  H    0.391303
     7  H    0.416733
     8  H    0.323462
     9  H    0.355311
    10  N   -0.109317
    11  O   -0.041520
    12  O    0.112045
    13  C   -0.459313
    14  H    0.366487
    15  Br   0.079530
 Sum of Mulliken charges =   1.00000
 Mulliken charges with hydrogens summed into heavy atoms:
               1
     1  C   -0.154334
     2  C    0.869198
     3  C   -0.647649
     4  C    0.587758
     5  C    0.397114
    10  N   -0.109317
    11  O   -0.041520
    12  O    0.112045
    13  C   -0.092826
    15  Br   0.079530
 Electronic spatial extent (au):  <R**2>=           2800.2798
 Charge=              1.0000 electrons
 Dipole moment (field-independent basis, Debye):
    X=             -0.3133    Y=              3.5823    Z=              0.5136  Tot=              3.6324
 Quadrupole moment (field-independent basis, Debye-Ang):
   XX=            -70.4005   YY=            -54.1445   ZZ=            -63.8738
   XY=              5.9622   XZ=              0.6473   YZ=             -0.2497
 Traceless Quadrupole moment (field-independent basis, Debye-Ang):
   XX=             -7.5942   YY=              8.6618   ZZ=             -1.0675
   XY=              5.9622   XZ=              0.6473   YZ=             -0.2497
 Octapole moment (field-independent basis, Debye-Ang**2):
  XXX=           -294.4229  YYY=            112.9428  ZZZ=             80.9146  XYY=            -73.3456
  XXY=             52.3916  XXZ=             32.7765  XZZ=            -76.9313  YZZ=             23.0152
  YYZ=             31.2011  XYZ=             -2.4619
 Hexadecapole moment (field-independent basis, Debye-Ang**3):
 XXXX=          -2260.6504 YYYY=           -703.6889 ZZZZ=           -357.5896 XXXY=              8.8540
 XXXZ=            -23.4603 YYYX=            -45.4714 YYYZ=           -173.1565 ZZZX=            -20.7929
 ZZZY=           -146.8071 XXYY=           -456.1732 XXZZ=           -371.5602 YYZZ=           -176.4530
 XXYZ=            -58.0826 YYXZ=             -5.6868 ZZXY=             -8.1210
 N-N= 7.408525551884D+02 E-N=-8.634268214063D+03  KE= 3.005869883695D+03
 No NMR shielding tensors so no spin-rotation constants.
 Leave Link  601 at Wed May  1 15:04:38 2024, MaxMem=  1207959552 cpu:               7.4 elap:               7.4
 (Enter /software/gaussian/g16-c01/sse4/g16/l9999.exe)
 Unable to Open any file for archive entry.
 1\1\GINC-BHX0019\SP\RwB97XD\6-311+G(d)\C6H5Br1N1O2(1+)\BWEIGHT\01-May-
 2024\0\\#P wB97XD/6-311+G* NoSymm #P Field=Y-145\\TitleMe\\1,1\C,0,0.0
 295,1.3397,0.0682\C,0,1.4348,1.2867,0.0064\C,0,2.1118,0.0511,-0.0054\C
 ,0,1.4451,-1.1372,0.0312\C,0,-0.6879,0.1682,0.11\H,0,-0.4713,2.2984,0.
 0781\H,0,2.0273,2.1965,-0.0322\H,0,1.9897,-2.0764,0.0232\H,0,-1.7716,0
 .1804,0.1582\N,0,3.5864,0.051,-0.0675\O,0,4.1471,-1.0597,-0.0881\O,0,4
 .145,1.1639,-0.0901\C,0,-0.0236,-1.1458,0.0835\H,0,-0.4367,-1.8725,0.7
 889\Br,0,-0.5359,-1.8697,-1.7408\\Version=ES64L-G16RevC.01\HF=-3010.54
 38805\RMSD=5.700e-09\Dipole=-2.0297872,2.5574483,1.3482588\Quadrupole=
 -5.6461306,6.4398277,-0.7936971,4.4327189,0.4812766,-0.1856522\PG=C01 
 [X(C6H5Br1N1O2)]\\@
 The archive entry for this job was punched.


 WHEN IT COMES TO CASH FLOW, IT SEEMS LIKE THE TIDE IS ALWAYS GOING OUT.
 Job cpu time:       0 days  0 hours 18 minutes 45.9 seconds.
 Elapsed time:       0 days  0 hours 18 minutes 46.2 seconds.
 File lengths (MBytes):  RWF=     40 Int=      0 D2E=      0 Chk=     32 Scr=      1
 Normal termination of Gaussian 16 at Wed May  1 15:04:39 2024.
