 Entering Gaussian System, Link 0=g16
 Initial command:
 /software/gaussian/g16-c01/sse4/g16/l1.exe "/local_scratch/24665256/Gau-12839.inp" -scrdir="/local_scratch/24665256/"
 Entering Link 1 = /software/gaussian/g16-c01/sse4/g16/l1.exe PID=     13080.
  
 Copyright (c) 1988-2019, Gaussian, Inc.  All Rights Reserved.
  
 This is part of the Gaussian(R) 16 program.  It is based on
 the Gaussian(R) 09 system (copyright 2009, Gaussian, Inc.),
 the Gaussian(R) 03 system (copyright 2003, Gaussian, Inc.),
 the Gaussian(R) 98 system (copyright 1998, Gaussian, Inc.),
 the Gaussian(R) 94 system (copyright 1995, Gaussian, Inc.),
 the Gaussian 92(TM) system (copyright 1992, Gaussian, Inc.),
 the Gaussian 90(TM) system (copyright 1990, Gaussian, Inc.),
 the Gaussian 88(TM) system (copyright 1988, Gaussian, Inc.),
 the Gaussian 86(TM) system (copyright 1986, Carnegie Mellon
 University), and the Gaussian 82(TM) system (copyright 1983,
 Carnegie Mellon University). Gaussian is a federally registered
 trademark of Gaussian, Inc.
  
 This software contains proprietary and confidential information,
 including trade secrets, belonging to Gaussian, Inc.
  
 This software is provided under written license and may be
 used, copied, transmitted, or stored only in accord with that
 written license.
  
 The following legend is applicable only to US Government
 contracts under FAR:
  
                    RESTRICTED RIGHTS LEGEND
  
 Use, reproduction and disclosure by the US Government is
 subject to restrictions as set forth in subparagraphs (a)
 and (c) of the Commercial Computer Software - Restricted
 Rights clause in FAR 52.227-19.
  
 Gaussian, Inc.
 340 Quinnipiac St., Bldg. 40, Wallingford CT 06492
  
  
 ---------------------------------------------------------------
 Warning -- This program may not be used in any manner that
 competes with the business of Gaussian, Inc. or will provide
 assistance to any competitor of Gaussian, Inc.  The licensee
 of this program is prohibited from giving any competitor of
 Gaussian, Inc. access to this program.  By using this program,
 the user acknowledges that Gaussian, Inc. is engaged in the
 business of creating and licensing software in the field of
 computational chemistry and represents and warrants to the
 licensee that it is not a competitor of Gaussian, Inc. and that
 it will not use this program in any manner prohibited above.
 ---------------------------------------------------------------
  

 Cite this work as:
 Gaussian 16, Revision C.01,
 M. J. Frisch, G. W. Trucks, H. B. Schlegel, G. E. Scuseria, 
 M. A. Robb, J. R. Cheeseman, G. Scalmani, V. Barone, 
 G. A. Petersson, H. Nakatsuji, X. Li, M. Caricato, A. V. Marenich, 
 J. Bloino, B. G. Janesko, R. Gomperts, B. Mennucci, H. P. Hratchian, 
 J. V. Ortiz, A. F. Izmaylov, J. L. Sonnenberg, D. Williams-Young, 
 F. Ding, F. Lipparini, F. Egidi, J. Goings, B. Peng, A. Petrone, 
 T. Henderson, D. Ranasinghe, V. G. Zakrzewski, J. Gao, N. Rega, 
 G. Zheng, W. Liang, M. Hada, M. Ehara, K. Toyota, R. Fukuda, 
 J. Hasegawa, M. Ishida, T. Nakajima, Y. Honda, O. Kitao, H. Nakai, 
 T. Vreven, K. Throssell, J. A. Montgomery, Jr., J. E. Peralta, 
 F. Ogliaro, M. J. Bearpark, J. J. Heyd, E. N. Brothers, K. N. Kudin, 
 V. N. Staroverov, T. A. Keith, R. Kobayashi, J. Normand, 
 K. Raghavachari, A. P. Rendell, J. C. Burant, S. S. Iyengar, 
 J. Tomasi, M. Cossi, J. M. Millam, M. Klene, C. Adamo, R. Cammi, 
 J. W. Ochterski, R. L. Martin, K. Morokuma, O. Farkas, 
 J. B. Foresman, and D. J. Fox, Gaussian, Inc., Wallingford CT, 2019.
 
 ******************************************
 Gaussian 16:  ES64L-G16RevC.01  3-Jul-2019
                 2-May-2024 
 ******************************************
 %chk=geometry.chk
 %mem=1GB
 %nprocshared=12
 Will use up to   12 processors via shared memory.
 ---------------------------------------
 #P wB97XD/6-311+G* NoSymm #P Field=X-68
 ---------------------------------------
 1/38=1,172=1/1;
 2/12=2,15=1,17=6,18=5,40=1/2;
 3/5=4,6=6,7=11,11=2,14=1,15=-68,25=1,30=1,74=-58/1,2,3;
 4//1;
 5/5=2,38=5/2;
 6/7=2,8=2,9=2,10=2,28=1/1;
 99/5=1,9=1/99;
 Leave Link    1 at Thu May  2 13:57:33 2024, MaxMem=   134217728 cpu:               3.2 elap:               3.4
 (Enter /software/gaussian/g16-c01/sse4/g16/l101.exe)
 -------
 TitleMe
 -------
 Symbolic Z-matrix:
 Charge =  1 Multiplicity = 1
 C                     0.5193    1.233    -0.0319 
 C                     1.9445    1.2692   -0.0367 
 C                     2.6204    0.0928   -0.025 
 C                    -0.196     0.0301    0.001 
 H                    -0.0207    2.1742   -0.0434 
 H                     2.4828    2.2089   -0.0361 
 H                    -1.2777    0.0399    0.0117 
 N                     4.0921    0.0959    0.0366 
 O                     4.6393   -1.0217    0.1446 
 O                     4.6649    1.1984   -0.0233 
 C                     0.4943   -1.1671    0.021 
 H                    -0.0325   -2.1149    0.0545 
 C                     1.9629   -1.2165   -0.0211 
 H                     2.4436   -1.9631    0.6151 
 Br                    2.173    -1.9491   -1.9062 
 
 ITRead=  0  0  0  0  0  0  0  0  0  0  0  0  0  0  0
 MicOpt= -1 -1 -1 -1 -1 -1 -1 -1 -1 -1 -1 -1 -1 -1 -1
 NAtoms=     15 NQM=       15 NQMF=       0 NMMI=      0 NMMIF=      0
                NMic=       0 NMicF=      0.
                    Isotopes and Nuclear Properties:
 (Nuclear quadrupole moments (NQMom) in fm**2, nuclear magnetic moments (NMagM)
  in nuclear magnetons)

  Atom         1           2           3           4           5           6           7           8           9          10
 IAtWgt=          12          12          12          12           1           1           1          14          16          16
 AtmWgt=  12.0000000  12.0000000  12.0000000  12.0000000   1.0078250   1.0078250   1.0078250  14.0030740  15.9949146  15.9949146
 NucSpn=           0           0           0           0           1           1           1           2           0           0
 AtZEff=  -0.0000000  -0.0000000  -0.0000000  -0.0000000  -0.0000000  -0.0000000  -0.0000000  -0.0000000  -0.0000000  -0.0000000
 NQMom=    0.0000000   0.0000000   0.0000000   0.0000000   0.0000000   0.0000000   0.0000000   2.0440000   0.0000000   0.0000000
 NMagM=    0.0000000   0.0000000   0.0000000   0.0000000   2.7928460   2.7928460   2.7928460   0.4037610   0.0000000   0.0000000
 AtZNuc=   6.0000000   6.0000000   6.0000000   6.0000000   1.0000000   1.0000000   1.0000000   7.0000000   8.0000000   8.0000000

  Atom        11          12          13          14          15
 IAtWgt=          12           1          12           1          79
 AtmWgt=  12.0000000   1.0078250  12.0000000   1.0078250  78.9183361
 NucSpn=           0           1           0           1           3
 AtZEff=  -0.0000000  -0.0000000  -0.0000000  -0.0000000  -0.0000000
 NQMom=    0.0000000   0.0000000   0.0000000   0.0000000  31.3000000
 NMagM=    0.0000000   2.7928460   0.0000000   2.7928460   2.1063990
 AtZNuc=   6.0000000   1.0000000   6.0000000   1.0000000  35.0000000
 Leave Link  101 at Thu May  2 13:57:35 2024, MaxMem=   134217728 cpu:               1.8 elap:               1.8
 (Enter /software/gaussian/g16-c01/sse4/g16/l202.exe)
                          Input orientation:                          
 ---------------------------------------------------------------------
 Center     Atomic      Atomic             Coordinates (Angstroms)
 Number     Number       Type             X           Y           Z
 ---------------------------------------------------------------------
      1          6           0        0.519300    1.233000   -0.031900
      2          6           0        1.944500    1.269200   -0.036700
      3          6           0        2.620400    0.092800   -0.025000
      4          6           0       -0.196000    0.030100    0.001000
      5          1           0       -0.020700    2.174200   -0.043400
      6          1           0        2.482800    2.208900   -0.036100
      7          1           0       -1.277700    0.039900    0.011700
      8          7           0        4.092100    0.095900    0.036600
      9          8           0        4.639300   -1.021700    0.144600
     10          8           0        4.664900    1.198400   -0.023300
     11          6           0        0.494300   -1.167100    0.021000
     12          1           0       -0.032500   -2.114900    0.054500
     13          6           0        1.962900   -1.216500   -0.021100
     14          1           0        2.443600   -1.963100    0.615100
     15         35           0        2.173000   -1.949100   -1.906200
 ---------------------------------------------------------------------
                    Distance matrix (angstroms):
                    1          2          3          4          5
     1  C    0.000000
     2  C    1.425668   0.000000
     3  C    2.390549   1.356796   0.000000
     4  C    1.399895   2.473566   2.817218   0.000000
     5  H    1.085168   2.163581   3.362733   2.151712   0.000000
     6  H    2.192654   1.082960   2.120598   3.453189   2.503751
     7  H    2.157452   3.449071   3.898632   1.081797   2.477564
     8  N    3.750012   2.448304   1.472992   4.288753   4.608780
     9  O    4.699917   3.541615   2.312322   4.950458   5.653735
    10  O    4.145753   2.721354   2.324292   4.999386   4.786171
    11  C    2.400813   2.835836   2.471794   1.382101   3.381369
    12  H    3.394169   3.920329   3.452266   2.151887   4.290233
    13  C    2.843264   2.485817   1.465124   2.493060   3.928360
    14  H    3.786370   3.334922   2.160489   3.364142   4.860416
    15  Br   4.046416   3.728900   2.812194   3.628609   5.028314
                    6          7          8          9         10
     6  H    0.000000
     7  H    4.341452   0.000000
     8  N    2.657047   5.370150   0.000000
     9  O    3.888434   6.012948   1.249048   0.000000
    10  O    2.404752   6.054572   1.243863   2.226587   0.000000
    11  C    3.918516   2.144043   3.813080   4.149391   4.794941
    12  H    5.003018   2.489080   4.679774   4.798846   5.748876
    13  C    3.464662   3.475788   2.501842   2.688591   3.623886
    14  H    4.222698   4.268978   2.700314   2.434893   3.916224
    15  Br   4.569706   4.420610   3.411663   3.338935   4.434144
                   11         12         13         14         15
    11  C    0.000000
    12  H    1.084880   0.000000
    13  C    1.470034   2.189625   0.000000
    14  H    2.187771   2.543302   1.092353   0.000000
    15  Br   2.672762   2.955683   2.033334   2.535818   0.000000
 Symmetry turned off by external request.
 Stoichiometry    C6H5BrNO2(1+)
 Framework group  C1[X(C6H5BrNO2)]
 Deg. of freedom    39
 Full point group                 C1      NOp   1
 Rotational constants (GHZ):           1.1632986           0.9594224           0.5957624
 Leave Link  202 at Thu May  2 13:57:36 2024, MaxMem=   134217728 cpu:               1.3 elap:               1.3
 (Enter /software/gaussian/g16-c01/sse4/g16/l301.exe)
 Standard basis: 6-311+G(d) (5D, 7F)
 Ernie: Thresh=  0.10000D-02 Tol=  0.10000D-05 Strict=F.
 The following finite field(s) will be applied:
 An electric field of             -0.0068  0.0000  0.0000
   261 basis functions,   443 primitive gaussians,   273 cartesian basis functions
    49 alpha electrons       49 beta electrons
       nuclear repulsion energy       772.8945969580 Hartrees.
 IExCor= 4639 DFT=T Ex+Corr=wB97XD ExCW=0 ScaHFX=  1.000000
 ScaDFX=  1.000000  1.000000  1.000000  1.000000 ScalE2=  1.000000  1.000000
 IRadAn=      5 IRanWt=     -1 IRanGd=            0 ICorTp=0 IEmpDi=121
 HFx  wShort=  0.000000 wLong=  0.200000 cFull=  0.222036 cShort=  0.000000 cLong=  0.777964
 DFx  wShort=  0.000000 wLong=  0.200000 cFull=  0.000000 cShort=  0.000000 cLong=  1.000000
 NAtoms=   15 NActive=   15 NUniq=   15 SFac= 1.00D+00 NAtFMM=   60 NAOKFM=F Big=F
 Integral buffers will be    131072 words long.
 Raffenetti 2 integral format.
 Two-electron integral symmetry is turned off.
 R6Disp:  Grimme-D2 Dispersion energy=       -0.0080346408 Hartrees.
 Nuclear repulsion after empirical dispersion term =      772.8865623173 Hartrees.
 Leave Link  301 at Thu May  2 13:57:38 2024, MaxMem=   134217728 cpu:               1.1 elap:               1.1
 (Enter /software/gaussian/g16-c01/sse4/g16/l302.exe)
 NPDir=0 NMtPBC=     1 NCelOv=     1 NCel=       1 NClECP=     1 NCelD=      1
         NCelK=      1 NCelE2=     1 NClLst=     1 CellRange=     0.0.
 One-electron integrals computed using PRISM.
 NBasis=   261 RedAO= T EigKep=  2.52D-06  NBF=   261
 NBsUse=   261 1.00D-06 EigRej= -1.00D+00 NBFU=   261
 Precomputing XC quadrature grid using
 IXCGrd= 4 IRadAn=           5 IRanWt=          -1 IRanGd=           0 AccXCQ= 0.00D+00.
 Generated NRdTot=       0 NPtTot=           0 NUsed=           0 NTot=          32
 NSgBfM=   273   273   273   273   273 MxSgAt=    15 MxSgA2=    15.
 Leave Link  302 at Thu May  2 13:57:59 2024, MaxMem=   134217728 cpu:              21.5 elap:              21.6
 (Enter /software/gaussian/g16-c01/sse4/g16/l303.exe)
 DipDrv:  MaxL=1.
 The nuclear repulsion energy is now       769.9721356788 hartrees.
 Leave Link  303 at Thu May  2 13:58:03 2024, MaxMem=   134217728 cpu:               3.3 elap:               3.3
 (Enter /software/gaussian/g16-c01/sse4/g16/l401.exe)
 ExpMin= 3.50D-02 ExpMax= 4.40D+05 ExpMxC= 1.51D+04 IAcc=3 IRadAn=         5 AccDes= 0.00D+00
 Harris functional with IExCor= 4639 and IRadAn=       5 diagonalized for initial guess.
 HarFok:  IExCor= 4639 AccDes= 0.00D+00 IRadAn=         5 IDoV= 1 UseB2=F ITyADJ=14
 ICtDFT=  3500011 ScaDFX=  1.000000  1.000000  1.000000  1.000000
 FoFCou: FMM=F IPFlag=           0 FMFlag=      100000 FMFlg1=           0
         NFxFlg=           0 DoJE=T BraDBF=F KetDBF=T FulRan=T
         wScrn=  0.000000 ICntrl=       500 IOpCl=  0 I1Cent=   200000004 NGrid=           0
         NMat0=    1 NMatS0=      1 NMatT0=    0 NMatD0=    1 NMtDS0=    0 NMtDT0=    0
 Symmetry not used in FoFCou.
 Harris En= -2970.63023736723    
 JPrj=0 DoOrth=F DoCkMO=F.
 Leave Link  401 at Thu May  2 13:58:34 2024, MaxMem=   134217728 cpu:              31.2 elap:              31.2
 (Enter /software/gaussian/g16-c01/sse4/g16/l502.exe)
 Two-electron integral symmetry not used.
 Closed shell SCF:
 Using DIIS extrapolation, IDIIS=  1040.
 NGot=   134217728 LenX=   134063053 LenY=   133988083
 Requested convergence on RMS density matrix=1.00D-08 within 128 cycles.
 Requested convergence on MAX density matrix=1.00D-06.
 Requested convergence on             energy=1.00D-06.
 No special actions if energy rises.
 Fock matrices will be formed incrementally for  20 cycles.

 Cycle   1  Pass 1  IDiag  1:
 FoFJK:  IHMeth= 1 ICntrl=       0 DoSepK=T KAlg= 0 I1Cent=           0 FoldK=F
 IRaf=         1 NMat=       1 IRICut=       1 DoRegI=T DoRafI=F ISym2E= 0 IDoP0=0 IntGTp=1.
 FoFCou: FMM=F IPFlag=           0 FMFlag=      100000 FMFlg1=           0
         NFxFlg=           0 DoJE=T BraDBF=F KetDBF=F FulRan=T
         wScrn=  0.000000 ICntrl=       500 IOpCl=  0 I1Cent=           0 NGrid=           0
         NMat0=    1 NMatS0=      1 NMatT0=    0 NMatD0=    1 NMtDS0=    0 NMtDT0=    0
 Symmetry not used in FoFCou.
 E= -3008.83186017463    
 DIIS: error= 2.90D-01 at cycle   1 NSaved=   1.
 NSaved= 1 IEnMin= 1 EnMin= -3008.83186017463     IErMin= 1 ErrMin= 2.90D-01
 ErrMax= 2.90D-01  0.00D+00 EMaxC= 1.00D-01 BMatC= 1.23D+01 BMatP= 1.23D+01
 IDIUse=3 WtCom= 0.00D+00 WtEn= 1.00D+00
 Coeff-Com:  0.100D+01
 Coeff-En:   0.100D+01
 Coeff:      0.100D+01
 Gap=    -0.424 Goal=   None    Shift=    0.000
 GapD=   -0.424 DampG=0.250 DampE=0.250 DampFc=0.2500 IDamp=-1.
 Damping current iteration by 2.50D-01
 RMSDP=7.18D-02 MaxDP=5.68D+00              OVMax= 9.74D-01

 Cycle   2  Pass 1  IDiag  1:
 RMSU=  1.79D-02    CP:  9.96D-01
 E= -3008.57106213892     Delta-E=        0.260798035711 Rises=F Damp=T
 DIIS: error= 2.19D-01 at cycle   2 NSaved=   2.
 NSaved= 2 IEnMin= 1 EnMin= -3008.83186017463     IErMin= 2 ErrMin= 2.19D-01
 ErrMax= 2.19D-01  0.00D+00 EMaxC= 1.00D-01 BMatC= 5.45D+00 BMatP= 1.23D+01
 IDIUse=3 WtCom= 0.00D+00 WtEn= 1.00D+00
 Coeff-Com: -0.945D+00 0.195D+01
 Coeff-En:   0.589D+00 0.411D+00
 Coeff:      0.589D+00 0.411D+00
 Gap=    -0.407 Goal=   None    Shift=    0.000
 RMSDP=5.42D-02 MaxDP=4.90D+00 DE= 2.61D-01 OVMax= 9.25D-01

 Cycle   3  Pass 1  IDiag  1:
 RMSU=  2.32D-02    CP:  6.48D-01  2.11D+00
 E= -3009.13130625192     Delta-E=       -0.560244113003 Rises=F Damp=F
 DIIS: error= 1.40D-01 at cycle   3 NSaved=   3.
 NSaved= 3 IEnMin= 3 EnMin= -3009.13130625192     IErMin= 3 ErrMin= 1.40D-01
 ErrMax= 1.40D-01  0.00D+00 EMaxC= 1.00D-01 BMatC= 2.43D+00 BMatP= 5.45D+00
 IDIUse=3 WtCom= 0.00D+00 WtEn= 1.00D+00
 Coeff-Com:  0.567D+00-0.429D+00 0.863D+00
 Coeff-En:   0.457D+00 0.000D+00 0.543D+00
 Coeff:      0.457D+00 0.000D+00 0.543D+00
 Gap=     0.147 Goal=   None    Shift=    0.000
 RMSDP=2.43D-02 MaxDP=1.77D+00 DE=-5.60D-01 OVMax= 5.17D-01

 Cycle   4  Pass 1  IDiag  1:
 RMSU=  1.22D-02    CP:  6.49D-01  9.52D-01  8.74D-01
 E= -3010.33869598714     Delta-E=       -1.207389735218 Rises=F Damp=F
 DIIS: error= 2.56D-02 at cycle   4 NSaved=   4.
 NSaved= 4 IEnMin= 4 EnMin= -3010.33869598714     IErMin= 4 ErrMin= 2.56D-02
 ErrMax= 2.56D-02  0.00D+00 EMaxC= 1.00D-01 BMatC= 1.69D-01 BMatP= 2.43D+00
 IDIUse=3 WtCom= 7.44D-01 WtEn= 2.56D-01
 Coeff-Com: -0.870D-01 0.203D+00 0.624D-01 0.821D+00
 Coeff-En:   0.000D+00 0.000D+00 0.498D-01 0.950D+00
 Coeff:     -0.647D-01 0.151D+00 0.592D-01 0.854D+00
 Gap=     0.177 Goal=   None    Shift=    0.000
 RMSDP=1.76D-02 MaxDP=1.57D+00 DE=-1.21D+00 OVMax= 3.29D-01

 Cycle   5  Pass 1  IDiag  1:
 RMSU=  7.68D-03    CP:  5.39D-01  1.22D+00  9.29D-01  6.00D-01
 E= -3010.39645115605     Delta-E=       -0.057755168908 Rises=F Damp=F
 DIIS: error= 4.08D-02 at cycle   5 NSaved=   5.
 NSaved= 5 IEnMin= 5 EnMin= -3010.39645115605     IErMin= 4 ErrMin= 2.56D-02
 ErrMax= 4.08D-02  0.00D+00 EMaxC= 1.00D-01 BMatC= 1.92D-01 BMatP= 1.69D-01
 IDIUse=2 WtCom= 0.00D+00 WtEn= 1.00D+00
 Coeff-En:   0.000D+00 0.000D+00 0.000D+00 0.401D+00 0.599D+00
 Coeff:      0.000D+00 0.000D+00 0.000D+00 0.401D+00 0.599D+00
 Gap=     0.233 Goal=   None    Shift=    0.000
 RMSDP=1.14D-02 MaxDP=1.07D+00 DE=-5.78D-02 OVMax= 1.16D-01

 Cycle   6  Pass 1  IDiag  1:
 RMSU=  6.22D-03    CP:  5.95D-01  1.12D+00  9.42D-01  9.51D-01  4.80D-01
 E= -3010.49291081960     Delta-E=       -0.096459663551 Rises=F Damp=F
 DIIS: error= 1.74D-02 at cycle   6 NSaved=   6.
 NSaved= 6 IEnMin= 6 EnMin= -3010.49291081960     IErMin= 6 ErrMin= 1.74D-02
 ErrMax= 1.74D-02  0.00D+00 EMaxC= 1.00D-01 BMatC= 4.96D-02 BMatP= 1.69D-01
 IDIUse=3 WtCom= 8.26D-01 WtEn= 1.74D-01
 Coeff-Com: -0.125D-01 0.178D-01-0.148D-01 0.256D+00 0.352D+00 0.402D+00
 Coeff-En:   0.000D+00 0.000D+00 0.000D+00 0.000D+00 0.183D+00 0.817D+00
 Coeff:     -0.103D-01 0.147D-01-0.122D-01 0.211D+00 0.322D+00 0.474D+00
 Gap=     0.223 Goal=   None    Shift=    0.000
 RMSDP=5.21D-03 MaxDP=5.54D-01 DE=-9.65D-02 OVMax= 6.34D-02

 Cycle   7  Pass 1  IDiag  1:
 RMSU=  2.32D-03    CP:  5.76D-01  9.59D-01  8.79D-01  8.88D-01  6.70D-01
                    CP:  7.32D-01
 E= -3010.53106460081     Delta-E=       -0.038153781205 Rises=F Damp=F
 DIIS: error= 6.76D-03 at cycle   7 NSaved=   7.
 NSaved= 7 IEnMin= 7 EnMin= -3010.53106460081     IErMin= 7 ErrMin= 6.76D-03
 ErrMax= 6.76D-03  0.00D+00 EMaxC= 1.00D-01 BMatC= 5.18D-03 BMatP= 4.96D-02
 IDIUse=3 WtCom= 9.32D-01 WtEn= 6.76D-02
 Coeff-Com:  0.152D-01-0.227D-01-0.826D-02-0.253D-01-0.309D-02 0.257D+00
 Coeff-Com:  0.787D+00
 Coeff-En:   0.000D+00 0.000D+00 0.000D+00 0.000D+00 0.000D+00 0.000D+00
 Coeff-En:   0.100D+01
 Coeff:      0.142D-01-0.212D-01-0.770D-02-0.236D-01-0.288D-02 0.240D+00
 Coeff:      0.801D+00
 Gap=     0.236 Goal=   None    Shift=    0.000
 RMSDP=3.91D-03 MaxDP=3.37D-01 DE=-3.82D-02 OVMax= 6.14D-02

 Cycle   8  Pass 1  IDiag  1:
 RMSU=  1.40D-03    CP:  5.69D-01  8.29D-01  8.26D-01  9.02D-01  6.20D-01
                    CP:  1.09D+00  1.31D+00
 E= -3010.53802054393     Delta-E=       -0.006955943125 Rises=F Damp=F
 DIIS: error= 4.00D-03 at cycle   8 NSaved=   8.
 NSaved= 8 IEnMin= 8 EnMin= -3010.53802054393     IErMin= 8 ErrMin= 4.00D-03
 ErrMax= 4.00D-03  0.00D+00 EMaxC= 1.00D-01 BMatC= 1.55D-03 BMatP= 5.18D-03
 IDIUse=3 WtCom= 9.60D-01 WtEn= 4.00D-02
 Coeff-Com:  0.568D-02-0.900D-02-0.756D-02-0.594D-01-0.829D-01 0.264D-01
 Coeff-Com:  0.553D+00 0.574D+00
 Coeff-En:   0.000D+00 0.000D+00 0.000D+00 0.000D+00 0.000D+00 0.000D+00
 Coeff-En:   0.000D+00 0.100D+01
 Coeff:      0.546D-02-0.864D-02-0.726D-02-0.570D-01-0.796D-01 0.253D-01
 Coeff:      0.531D+00 0.591D+00
 Gap=     0.236 Goal=   None    Shift=    0.000
 RMSDP=1.49D-03 MaxDP=1.28D-01 DE=-6.96D-03 OVMax= 3.69D-02

 Cycle   9  Pass 1  IDiag  1:
 RMSU=  5.07D-04    CP:  5.75D-01  7.96D-01  8.07D-01  9.14D-01  6.22D-01
                    CP:  1.16D+00  1.62D+00  8.67D-01
 E= -3010.54057242139     Delta-E=       -0.002551877457 Rises=F Damp=F
 DIIS: error= 1.67D-03 at cycle   9 NSaved=   9.
 NSaved= 9 IEnMin= 9 EnMin= -3010.54057242139     IErMin= 9 ErrMin= 1.67D-03
 ErrMax= 1.67D-03  0.00D+00 EMaxC= 1.00D-01 BMatC= 2.25D-04 BMatP= 1.55D-03
 IDIUse=3 WtCom= 9.83D-01 WtEn= 1.67D-02
 Coeff-Com: -0.667D-03 0.747D-03 0.101D-02-0.210D-01-0.289D-01-0.773D-01
 Coeff-Com: -0.280D-01 0.308D+00 0.846D+00
 Coeff-En:   0.000D+00 0.000D+00 0.000D+00 0.000D+00 0.000D+00 0.000D+00
 Coeff-En:   0.000D+00 0.000D+00 0.100D+01
 Coeff:     -0.656D-03 0.734D-03 0.998D-03-0.206D-01-0.284D-01-0.760D-01
 Coeff:     -0.275D-01 0.303D+00 0.848D+00
 Gap=     0.234 Goal=   None    Shift=    0.000
 RMSDP=1.19D-03 MaxDP=1.38D-01 DE=-2.55D-03 OVMax= 2.88D-02

 Cycle  10  Pass 1  IDiag  1:
 RMSU=  3.98D-04    CP:  5.71D-01  7.75D-01  7.96D-01  8.88D-01  6.23D-01
                    CP:  1.24D+00  1.70D+00  1.28D+00  1.11D+00
 E= -3010.54153412254     Delta-E=       -0.000961701149 Rises=F Damp=F
 DIIS: error= 5.02D-04 at cycle  10 NSaved=  10.
 NSaved=10 IEnMin=10 EnMin= -3010.54153412254     IErMin=10 ErrMin= 5.02D-04
 ErrMax= 5.02D-04  0.00D+00 EMaxC= 1.00D-01 BMatC= 5.60D-05 BMatP= 2.25D-04
 IDIUse=3 WtCom= 9.95D-01 WtEn= 5.02D-03
 Coeff-Com: -0.140D-02 0.187D-02 0.225D-02-0.561D-02 0.526D-02-0.121D-01
 Coeff-Com: -0.685D-01-0.102D-01 0.192D+00 0.896D+00
 Coeff-En:   0.000D+00 0.000D+00 0.000D+00 0.000D+00 0.000D+00 0.000D+00
 Coeff-En:   0.000D+00 0.000D+00 0.000D+00 0.100D+01
 Coeff:     -0.140D-02 0.186D-02 0.224D-02-0.558D-02 0.524D-02-0.120D-01
 Coeff:     -0.682D-01-0.102D-01 0.191D+00 0.897D+00
 Gap=     0.234 Goal=   None    Shift=    0.000
 RMSDP=5.48D-04 MaxDP=6.60D-02 DE=-9.62D-04 OVMax= 1.42D-02

 Cycle  11  Pass 1  IDiag  1:
 RMSU=  1.10D-04    CP:  5.68D-01  7.78D-01  7.96D-01  8.69D-01  6.27D-01
                    CP:  1.27D+00  1.69D+00  1.43D+00  1.19D+00  1.51D+00
 E= -3010.54180284827     Delta-E=       -0.000268725737 Rises=F Damp=F
 DIIS: error= 2.70D-04 at cycle  11 NSaved=  11.
 NSaved=11 IEnMin=11 EnMin= -3010.54180284827     IErMin=11 ErrMin= 2.70D-04
 ErrMax= 2.70D-04  0.00D+00 EMaxC= 1.00D-01 BMatC= 1.79D-05 BMatP= 5.60D-05
 IDIUse=3 WtCom= 9.97D-01 WtEn= 2.70D-03
 Coeff-Com: -0.509D-03 0.568D-03-0.136D-03-0.246D-02 0.907D-02 0.365D-01
 Coeff-Com:  0.236D-01-0.989D-01-0.278D+00 0.179D+00 0.113D+01
 Coeff-En:   0.000D+00 0.000D+00 0.000D+00 0.000D+00 0.000D+00 0.000D+00
 Coeff-En:   0.000D+00 0.000D+00 0.000D+00 0.000D+00 0.100D+01
 Coeff:     -0.508D-03 0.567D-03-0.136D-03-0.246D-02 0.905D-02 0.364D-01
 Coeff:      0.236D-01-0.986D-01-0.277D+00 0.179D+00 0.113D+01
 Gap=     0.234 Goal=   None    Shift=    0.000
 RMSDP=5.11D-04 MaxDP=4.77D-02 DE=-2.69D-04 OVMax= 1.17D-02

 Cycle  12  Pass 1  IDiag  1:
 RMSU=  6.26D-05    CP:  5.66D-01  7.89D-01  7.99D-01  8.51D-01  6.33D-01
                    CP:  1.28D+00  1.65D+00  1.56D+00  1.23D+00  2.06D+00
                    CP:  1.56D+00
 E= -3010.54191656447     Delta-E=       -0.000113716192 Rises=F Damp=F
 DIIS: error= 1.33D-04 at cycle  12 NSaved=  12.
 NSaved=12 IEnMin=12 EnMin= -3010.54191656447     IErMin=12 ErrMin= 1.33D-04
 ErrMax= 1.33D-04  0.00D+00 EMaxC= 1.00D-01 BMatC= 2.13D-06 BMatP= 1.79D-05
 IDIUse=3 WtCom= 9.99D-01 WtEn= 1.33D-03
 Coeff-Com:  0.884D-04-0.133D-03-0.397D-03 0.355D-03 0.678D-03 0.713D-02
 Coeff-Com:  0.878D-02-0.183D-01-0.754D-01-0.201D+00 0.202D+00 0.108D+01
 Coeff-En:   0.000D+00 0.000D+00 0.000D+00 0.000D+00 0.000D+00 0.000D+00
 Coeff-En:   0.000D+00 0.000D+00 0.000D+00 0.000D+00 0.000D+00 0.100D+01
 Coeff:      0.883D-04-0.133D-03-0.397D-03 0.354D-03 0.677D-03 0.712D-02
 Coeff:      0.877D-02-0.182D-01-0.753D-01-0.200D+00 0.202D+00 0.108D+01
 Gap=     0.234 Goal=   None    Shift=    0.000
 RMSDP=2.56D-04 MaxDP=3.00D-02 DE=-1.14D-04 OVMax= 6.61D-03

 Cycle  13  Pass 1  IDiag  1:
 RMSU=  2.89D-05    CP:  5.65D-01  7.90D-01  7.99D-01  8.43D-01  6.33D-01
                    CP:  1.30D+00  1.64D+00  1.64D+00  1.26D+00  2.33D+00
                    CP:  1.95D+00  1.23D+00
 E= -3010.54193751911     Delta-E=       -0.000020954648 Rises=F Damp=F
 DIIS: error= 4.71D-05 at cycle  13 NSaved=  13.
 NSaved=13 IEnMin=13 EnMin= -3010.54193751911     IErMin=13 ErrMin= 4.71D-05
 ErrMax= 4.71D-05  0.00D+00 EMaxC= 1.00D-01 BMatC= 4.62D-07 BMatP= 2.13D-06
 IDIUse=1 WtCom= 1.00D+00 WtEn= 0.00D+00
 Coeff-Com:  0.226D-03-0.290D-03-0.159D-05 0.478D-03-0.136D-02-0.398D-02
 Coeff-Com: -0.220D-02 0.749D-02 0.190D-01-0.913D-01-0.945D-01 0.394D+00
 Coeff-Com:  0.773D+00
 Coeff:      0.226D-03-0.290D-03-0.159D-05 0.478D-03-0.136D-02-0.398D-02
 Coeff:     -0.220D-02 0.749D-02 0.190D-01-0.913D-01-0.945D-01 0.394D+00
 Coeff:      0.773D+00
 Gap=     0.234 Goal=   None    Shift=    0.000
 RMSDP=2.98D-05 MaxDP=1.10D-03 DE=-2.10D-05 OVMax= 1.34D-03

 Cycle  14  Pass 1  IDiag  1:
 RMSU=  1.28D-05    CP:  5.65D-01  7.89D-01  7.98D-01  8.42D-01  6.34D-01
                    CP:  1.30D+00  1.64D+00  1.65D+00  1.27D+00  2.37D+00
                    CP:  1.98D+00  1.42D+00  1.16D+00
 E= -3010.54193901440     Delta-E=       -0.000001495285 Rises=F Damp=F
 DIIS: error= 2.24D-05 at cycle  14 NSaved=  14.
 NSaved=14 IEnMin=14 EnMin= -3010.54193901440     IErMin=14 ErrMin= 2.24D-05
 ErrMax= 2.24D-05  0.00D+00 EMaxC= 1.00D-01 BMatC= 9.20D-08 BMatP= 4.62D-07
 IDIUse=1 WtCom= 1.00D+00 WtEn= 0.00D+00
 Coeff-Com:  0.589D-04-0.735D-04 0.547D-04 0.245D-03-0.362D-03-0.212D-02
 Coeff-Com: -0.718D-03 0.464D-02 0.147D-01 0.323D-01-0.557D-01-0.163D+00
 Coeff-Com:  0.125D+00 0.105D+01
 Coeff:      0.589D-04-0.735D-04 0.547D-04 0.245D-03-0.362D-03-0.212D-02
 Coeff:     -0.718D-03 0.464D-02 0.147D-01 0.323D-01-0.557D-01-0.163D+00
 Coeff:      0.125D+00 0.105D+01
 Gap=     0.234 Goal=   None    Shift=    0.000
 RMSDP=1.57D-05 MaxDP=8.05D-04 DE=-1.50D-06 OVMax= 5.01D-04

 Cycle  15  Pass 1  IDiag  1:
 RMSU=  5.80D-06    CP:  5.65D-01  7.89D-01  7.99D-01  8.43D-01  6.34D-01
                    CP:  1.30D+00  1.64D+00  1.65D+00  1.27D+00  2.37D+00
                    CP:  1.99D+00  1.46D+00  1.43D+00  1.56D+00
 E= -3010.54193939707     Delta-E=       -0.000000382674 Rises=F Damp=F
 DIIS: error= 8.91D-06 at cycle  15 NSaved=  15.
 NSaved=15 IEnMin=15 EnMin= -3010.54193939707     IErMin=15 ErrMin= 8.91D-06
 ErrMax= 8.91D-06  0.00D+00 EMaxC= 1.00D-01 BMatC= 2.06D-08 BMatP= 9.20D-08
 IDIUse=1 WtCom= 1.00D+00 WtEn= 0.00D+00
 Coeff-Com: -0.262D-04 0.405D-04-0.261D-05 0.262D-03 0.274D-03-0.451D-05
 Coeff-Com: -0.517D-03-0.424D-03 0.330D-03 0.260D-01-0.529D-02-0.102D+00
 Coeff-Com: -0.810D-01 0.344D+00 0.819D+00
 Coeff:     -0.262D-04 0.405D-04-0.261D-05 0.262D-03 0.274D-03-0.451D-05
 Coeff:     -0.517D-03-0.424D-03 0.330D-03 0.260D-01-0.529D-02-0.102D+00
 Coeff:     -0.810D-01 0.344D+00 0.819D+00
 Gap=     0.234 Goal=   None    Shift=    0.000
 RMSDP=6.27D-06 MaxDP=4.69D-04 DE=-3.83D-07 OVMax= 1.89D-04

 Cycle  16  Pass 1  IDiag  1:
 RMSU=  2.21D-06    CP:  5.65D-01  7.89D-01  7.99D-01  8.43D-01  6.34D-01
                    CP:  1.30D+00  1.64D+00  1.65D+00  1.27D+00  2.37D+00
                    CP:  1.99D+00  1.47D+00  1.51D+00  1.77D+00  1.17D+00
 E= -3010.54193945107     Delta-E=       -0.000000053998 Rises=F Damp=F
 DIIS: error= 5.65D-06 at cycle  16 NSaved=  16.
 NSaved=16 IEnMin=16 EnMin= -3010.54193945107     IErMin=16 ErrMin= 5.65D-06
 ErrMax= 5.65D-06  0.00D+00 EMaxC= 1.00D-01 BMatC= 5.92D-09 BMatP= 2.06D-08
 IDIUse=1 WtCom= 1.00D+00 WtEn= 0.00D+00
 Coeff-Com:  0.294D-06 0.411D-06-0.493D-06 0.439D-04 0.108D-03 0.241D-03
 Coeff-Com: -0.536D-03-0.569D-03-0.889D-03 0.706D-02 0.375D-02-0.108D-01
 Coeff-Com: -0.571D-01-0.516D-01 0.296D+00 0.814D+00
 Coeff:      0.294D-06 0.411D-06-0.493D-06 0.439D-04 0.108D-03 0.241D-03
 Coeff:     -0.536D-03-0.569D-03-0.889D-03 0.706D-02 0.375D-02-0.108D-01
 Coeff:     -0.571D-01-0.516D-01 0.296D+00 0.814D+00
 Gap=     0.234 Goal=   None    Shift=    0.000
 RMSDP=4.61D-06 MaxDP=3.59D-04 DE=-5.40D-08 OVMax= 9.82D-05

 Cycle  17  Pass 1  IDiag  1:
 RMSU=  1.27D-06    CP:  5.65D-01  7.89D-01  7.99D-01  8.43D-01  6.34D-01
                    CP:  1.30D+00  1.64D+00  1.65D+00  1.27D+00  2.37D+00
                    CP:  1.99D+00  1.46D+00  1.52D+00  1.85D+00  1.23D+00
                    CP:  1.42D+00
 E= -3010.54193946360     Delta-E=       -0.000000012530 Rises=F Damp=F
 DIIS: error= 9.85D-07 at cycle  17 NSaved=  17.
 NSaved=17 IEnMin=17 EnMin= -3010.54193946360     IErMin=17 ErrMin= 9.85D-07
 ErrMax= 9.85D-07  0.00D+00 EMaxC= 1.00D-01 BMatC= 2.84D-10 BMatP= 5.92D-09
 IDIUse=1 WtCom= 1.00D+00 WtEn= 0.00D+00
 Coeff-Com:  0.383D-06-0.312D-07 0.125D-05 0.140D-04 0.484D-05-0.301D-06
 Coeff-Com: -0.147D-03-0.615D-04-0.147D-03-0.133D-02-0.452D-04 0.112D-01
 Coeff-Com: -0.121D-02-0.372D-01-0.600D-01 0.138D+00 0.951D+00
 Coeff:      0.383D-06-0.312D-07 0.125D-05 0.140D-04 0.484D-05-0.301D-06
 Coeff:     -0.147D-03-0.615D-04-0.147D-03-0.133D-02-0.452D-04 0.112D-01
 Coeff:     -0.121D-02-0.372D-01-0.600D-01 0.138D+00 0.951D+00
 Gap=     0.234 Goal=   None    Shift=    0.000
 RMSDP=1.46D-06 MaxDP=1.67D-04 DE=-1.25D-08 OVMax= 2.92D-05

 Cycle  18  Pass 1  IDiag  1:
 RMSU=  3.36D-07    CP:  5.65D-01  7.89D-01  7.99D-01  8.43D-01  6.34D-01
                    CP:  1.30D+00  1.64D+00  1.65D+00  1.27D+00  2.37D+00
                    CP:  1.99D+00  1.47D+00  1.52D+00  1.87D+00  1.24D+00
                    CP:  1.64D+00  1.23D+00
 E= -3010.54193946466     Delta-E=       -0.000000001059 Rises=F Damp=F
 DIIS: error= 3.10D-07 at cycle  18 NSaved=  18.
 NSaved=18 IEnMin=18 EnMin= -3010.54193946466     IErMin=18 ErrMin= 3.10D-07
 ErrMax= 3.10D-07  0.00D+00 EMaxC= 1.00D-01 BMatC= 5.37D-11 BMatP= 2.84D-10
 IDIUse=1 WtCom= 1.00D+00 WtEn= 0.00D+00
 Coeff-Com: -0.150D-05 0.223D-05 0.226D-06 0.445D-05-0.108D-04-0.379D-04
 Coeff-Com:  0.411D-04 0.960D-04 0.804D-04-0.134D-02-0.845D-03 0.560D-02
 Coeff-Com:  0.737D-02-0.347D-02-0.694D-01-0.624D-01 0.329D+00 0.796D+00
 Coeff:     -0.150D-05 0.223D-05 0.226D-06 0.445D-05-0.108D-04-0.379D-04
 Coeff:      0.411D-04 0.960D-04 0.804D-04-0.134D-02-0.845D-03 0.560D-02
 Coeff:      0.737D-02-0.347D-02-0.694D-01-0.624D-01 0.329D+00 0.796D+00
 Gap=     0.234 Goal=   None    Shift=    0.000
 RMSDP=3.40D-07 MaxDP=1.34D-05 DE=-1.06D-09 OVMax= 1.54D-05

 Cycle  19  Pass 1  IDiag  1:
 RMSU=  1.03D-07    CP:  5.65D-01  7.89D-01  7.99D-01  8.43D-01  6.34D-01
                    CP:  1.30D+00  1.64D+00  1.65D+00  1.27D+00  2.37D+00
                    CP:  1.99D+00  1.47D+00  1.52D+00  1.88D+00  1.25D+00
                    CP:  1.70D+00  1.33D+00  1.04D+00
 E= -3010.54193946478     Delta-E=       -0.000000000120 Rises=F Damp=F
 DIIS: error= 1.61D-07 at cycle  19 NSaved=  19.
 NSaved=19 IEnMin=19 EnMin= -3010.54193946478     IErMin=19 ErrMin= 1.61D-07
 ErrMax= 1.61D-07  0.00D+00 EMaxC= 1.00D-01 BMatC= 8.28D-12 BMatP= 5.37D-11
 IDIUse=1 WtCom= 1.00D+00 WtEn= 0.00D+00
 Coeff-Com: -0.723D-06 0.100D-05-0.439D-06 0.105D-05-0.406D-05-0.141D-04
 Coeff-Com:  0.156D-04 0.557D-04 0.983D-04-0.290D-03-0.514D-03 0.539D-03
 Coeff-Com:  0.294D-02 0.350D-02-0.151D-01-0.274D-01-0.326D-01 0.217D+00
 Coeff-Com:  0.852D+00
 Coeff:     -0.723D-06 0.100D-05-0.439D-06 0.105D-05-0.406D-05-0.141D-04
 Coeff:      0.156D-04 0.557D-04 0.983D-04-0.290D-03-0.514D-03 0.539D-03
 Coeff:      0.294D-02 0.350D-02-0.151D-01-0.274D-01-0.326D-01 0.217D+00
 Coeff:      0.852D+00
 Gap=     0.234 Goal=   None    Shift=    0.000
 RMSDP=1.71D-07 MaxDP=1.27D-05 DE=-1.20D-10 OVMax= 3.72D-06

 Cycle  20  Pass 1  IDiag  1:
 RMSU=  4.95D-08    CP:  5.65D-01  7.89D-01  7.99D-01  8.43D-01  6.34D-01
                    CP:  1.30D+00  1.64D+00  1.65D+00  1.27D+00  2.37D+00
                    CP:  1.99D+00  1.47D+00  1.52D+00  1.88D+00  1.24D+00
                    CP:  1.72D+00  1.33D+00  1.16D+00  1.19D+00
 E= -3010.54193946486     Delta-E=       -0.000000000084 Rises=F Damp=F
 DIIS: error= 8.92D-08 at cycle  20 NSaved=  20.
 NSaved=20 IEnMin=20 EnMin= -3010.54193946486     IErMin=20 ErrMin= 8.92D-08
 ErrMax= 8.92D-08  0.00D+00 EMaxC= 1.00D-01 BMatC= 1.38D-12 BMatP= 8.28D-12
 IDIUse=1 WtCom= 1.00D+00 WtEn= 0.00D+00
 Coeff-Com: -0.145D-07-0.137D-07-0.118D-06-0.568D-06-0.316D-06 0.455D-06
 Coeff-Com: -0.610D-05 0.120D-04 0.335D-04 0.120D-03-0.523D-04-0.735D-03
 Coeff-Com: -0.571D-04 0.164D-02 0.429D-02 0.107D-02-0.558D-01-0.479D-01
 Coeff-Com:  0.207D+00 0.891D+00
 Coeff:     -0.145D-07-0.137D-07-0.118D-06-0.568D-06-0.316D-06 0.455D-06
 Coeff:     -0.610D-05 0.120D-04 0.335D-04 0.120D-03-0.523D-04-0.735D-03
 Coeff:     -0.571D-04 0.164D-02 0.429D-02 0.107D-02-0.558D-01-0.479D-01
 Coeff:      0.207D+00 0.891D+00
 Gap=     0.234 Goal=   None    Shift=    0.000
 RMSDP=7.19D-08 MaxDP=7.12D-06 DE=-8.37D-11 OVMax= 2.05D-06

 Cycle  21  Pass 1  IDiag  1:
 Restarting incremental Fock formation.
 E= -3010.54193946485     Delta-E=        0.000000000011 Rises=F Damp=F
 DIIS: error= 3.75D-08 at cycle  21 NSaved=  20.
 NSaved=20 IEnMin=19 EnMin= -3010.54193946486     IErMin=20 ErrMin= 3.75D-08
 ErrMax= 3.75D-08  0.00D+00 EMaxC= 1.00D-01 BMatC= 2.13D-13 BMatP= 1.38D-12
 IDIUse=1 WtCom= 1.00D+00 WtEn= 0.00D+00
 Coeff-Com:  0.692D-08 0.153D-07 0.311D-06 0.704D-06 0.106D-05-0.423D-05
 Coeff-Com: -0.517D-05-0.195D-04 0.146D-04 0.111D-03-0.609D-04-0.337D-03
 Coeff-Com: -0.468D-03 0.156D-02 0.289D-02 0.120D-01-0.196D-01-0.169D+00
 Coeff-Com: -0.773D-01 0.125D+01
 Coeff:      0.692D-08 0.153D-07 0.311D-06 0.704D-06 0.106D-05-0.423D-05
 Coeff:     -0.517D-05-0.195D-04 0.146D-04 0.111D-03-0.609D-04-0.337D-03
 Coeff:     -0.468D-03 0.156D-02 0.289D-02 0.120D-01-0.196D-01-0.169D+00
 Coeff:     -0.773D-01 0.125D+01
 Gap=     0.234 Goal=   None    Shift=    0.000
 RMSDP=5.45D-08 MaxDP=6.52D-06 DE= 1.09D-11 OVMax= 1.16D-06

 Cycle  22  Pass 1  IDiag  1:
 RMSU=  4.71D-08    CP:  1.00D+00
 E= -3010.54193946489     Delta-E=       -0.000000000038 Rises=F Damp=F
 DIIS: error= 1.18D-08 at cycle  22 NSaved=  20.
 NSaved=20 IEnMin=20 EnMin= -3010.54193946489     IErMin=20 ErrMin= 1.18D-08
 ErrMax= 1.18D-08  0.00D+00 EMaxC= 1.00D-01 BMatC= 3.66D-14 BMatP= 2.13D-13
 IDIUse=1 WtCom= 1.00D+00 WtEn= 0.00D+00
 Coeff-Com:  0.457D-07 0.771D-07 0.199D-06 0.458D-06 0.185D-05-0.219D-05
 Coeff-Com: -0.930D-05-0.199D-04 0.370D-04 0.842D-04 0.733D-05-0.334D-03
 Coeff-Com: -0.599D-03-0.899D-04 0.111D-01 0.925D-02-0.587D-01-0.173D+00
 Coeff-Com:  0.956D-01 0.112D+01
 Coeff:      0.457D-07 0.771D-07 0.199D-06 0.458D-06 0.185D-05-0.219D-05
 Coeff:     -0.930D-05-0.199D-04 0.370D-04 0.842D-04 0.733D-05-0.334D-03
 Coeff:     -0.599D-03-0.899D-04 0.111D-01 0.925D-02-0.587D-01-0.173D+00
 Coeff:      0.956D-01 0.112D+01
 Gap=     0.234 Goal=   None    Shift=    0.000
 RMSDP=2.23D-08 MaxDP=2.17D-06 DE=-3.77D-11 OVMax= 6.19D-07

 Cycle  23  Pass 1  IDiag  1:
 RMSU=  8.99D-09    CP:  1.00D+00  1.40D+00
 E= -3010.54193946490     Delta-E=       -0.000000000009 Rises=F Damp=F
 DIIS: error= 4.10D-09 at cycle  23 NSaved=  20.
 NSaved=20 IEnMin=20 EnMin= -3010.54193946490     IErMin=20 ErrMin= 4.10D-09
 ErrMax= 4.10D-09  0.00D+00 EMaxC= 1.00D-01 BMatC= 8.11D-15 BMatP= 3.66D-14
 IDIUse=1 WtCom= 1.00D+00 WtEn= 0.00D+00
 Coeff-Com:  0.241D-07 0.155D-07-0.275D-07 0.798D-06 0.240D-06 0.301D-05
 Coeff-Com: -0.963D-05-0.143D-04 0.224D-04 0.973D-04 0.894D-05-0.384D-03
 Coeff-Com: -0.553D-03-0.380D-03 0.618D-02 0.187D-01-0.105D-01-0.258D+00
 Coeff-Com:  0.215D+00 0.103D+01
 Coeff:      0.241D-07 0.155D-07-0.275D-07 0.798D-06 0.240D-06 0.301D-05
 Coeff:     -0.963D-05-0.143D-04 0.224D-04 0.973D-04 0.894D-05-0.384D-03
 Coeff:     -0.553D-03-0.380D-03 0.618D-02 0.187D-01-0.105D-01-0.258D+00
 Coeff:      0.215D+00 0.103D+01
 Gap=     0.234 Goal=   None    Shift=    0.000
 RMSDP=1.36D-08 MaxDP=1.07D-06 DE=-8.64D-12 OVMax= 2.31D-07

 Cycle  24  Pass 1  IDiag  1:
 RMSU=  5.61D-09    CP:  1.00D+00  1.64D+00  1.57D+00
 E= -3010.54193946489     Delta-E=        0.000000000006 Rises=F Damp=F
 DIIS: error= 1.41D-09 at cycle  24 NSaved=  20.
 NSaved=20 IEnMin=19 EnMin= -3010.54193946490     IErMin=20 ErrMin= 1.41D-09
 ErrMax= 1.41D-09  0.00D+00 EMaxC= 1.00D-01 BMatC= 8.34D-16 BMatP= 8.11D-15
 IDIUse=1 WtCom= 1.00D+00 WtEn= 0.00D+00
 Large coefficients: NSaved= 20 BigCof=    0.00 CofMax=   10.00 Det=-1.80D-15
 Inversion failed.  Reducing to 19 matrices.
 Large coefficients: NSaved= 19 BigCof=    0.00 CofMax=   10.00 Det=-1.80D-15
 Inversion failed.  Reducing to 18 matrices.
 Large coefficients: NSaved= 18 BigCof=    0.00 CofMax=   10.00 Det=-1.81D-15
 Inversion failed.  Reducing to 17 matrices.
 Large coefficients: NSaved= 17 BigCof=    0.00 CofMax=   10.00 Det=-2.28D-15
 Inversion failed.  Reducing to 16 matrices.
 Large coefficients: NSaved= 16 BigCof=    0.00 CofMax=   10.00 Det=-2.29D-15
 Inversion failed.  Reducing to 15 matrices.
 Coeff-Com: -0.802D-06 0.139D-05-0.456D-05 0.149D-04 0.253D-04-0.822D-04
 Coeff-Com: -0.223D-03-0.241D-03 0.134D-02 0.313D-02 0.571D-02-0.801D-02
 Coeff-Com: -0.753D-01 0.331D-01 0.104D+01
 Coeff:     -0.802D-06 0.139D-05-0.456D-05 0.149D-04 0.253D-04-0.822D-04
 Coeff:     -0.223D-03-0.241D-03 0.134D-02 0.313D-02 0.571D-02-0.801D-02
 Coeff:     -0.753D-01 0.331D-01 0.104D+01
 Gap=     0.234 Goal=   None    Shift=    0.000
 RMSDP=2.36D-09 MaxDP=2.62D-07 DE= 5.91D-12 OVMax= 6.34D-08

 SCF Done:  E(RwB97XD) =  -3010.54193946     A.U. after   24 cycles
            NFock= 24  Conv=0.24D-08     -V/T= 2.0016
 KE= 3.005841675077D+03 PE=-8.696322079211D+03 EE= 1.909966328991D+03
 Leave Link  502 at Thu May  2 14:23:32 2024, MaxMem=   134217728 cpu:            1489.1 elap:            1498.4
 (Enter /software/gaussian/g16-c01/sse4/g16/l601.exe)
 Copying SCF densities to generalized density rwf, IOpCl= 0 IROHF=0.

 **********************************************************************

            Population analysis using the SCF Density.

 **********************************************************************

 Alpha  occ. eigenvalues -- -483.28718 -62.83731 -56.63432 -56.62855 -56.62841
 Alpha  occ. eigenvalues --  -19.41960 -19.41931 -14.81471 -10.56722 -10.55520
 Alpha  occ. eigenvalues --  -10.55330 -10.55045 -10.51173 -10.50714  -8.99530
 Alpha  occ. eigenvalues --   -6.82228  -6.80335  -6.80294  -2.92127  -2.91632
 Alpha  occ. eigenvalues --   -2.91599  -2.90085  -2.90084  -1.45665  -1.28576
 Alpha  occ. eigenvalues --   -1.20087  -1.10611  -1.09921  -1.02305  -0.97545
 Alpha  occ. eigenvalues --   -0.93141  -0.88179  -0.82089  -0.77969  -0.77228
 Alpha  occ. eigenvalues --   -0.76617  -0.75461  -0.73263  -0.72054  -0.69655
 Alpha  occ. eigenvalues --   -0.66629  -0.65341  -0.61233  -0.57365  -0.53742
 Alpha  occ. eigenvalues --   -0.53301  -0.52729  -0.51576  -0.51181
 Alpha virt. eigenvalues --   -0.27755  -0.17319  -0.13111  -0.10252  -0.08659
 Alpha virt. eigenvalues --   -0.05842  -0.04714  -0.03360  -0.02880  -0.01725
 Alpha virt. eigenvalues --   -0.00675   0.00122   0.00772   0.01624   0.02845
 Alpha virt. eigenvalues --    0.03405   0.03543   0.04499   0.04716   0.05692
 Alpha virt. eigenvalues --    0.06429   0.06690   0.07763   0.08098   0.08485
 Alpha virt. eigenvalues --    0.09198   0.09766   0.10730   0.11022   0.12097
 Alpha virt. eigenvalues --    0.12383   0.12831   0.13872   0.14401   0.14933
 Alpha virt. eigenvalues --    0.15122   0.16521   0.17187   0.17814   0.18428
 Alpha virt. eigenvalues --    0.19269   0.19345   0.20667   0.21084   0.21660
 Alpha virt. eigenvalues --    0.22775   0.24343   0.24954   0.27077   0.27557
 Alpha virt. eigenvalues --    0.28988   0.31063   0.31864   0.32827   0.34686
 Alpha virt. eigenvalues --    0.35164   0.36248   0.37846   0.38508   0.39924
 Alpha virt. eigenvalues --    0.40204   0.40626   0.41686   0.43236   0.44158
 Alpha virt. eigenvalues --    0.45142   0.46964   0.47844   0.48793   0.49974
 Alpha virt. eigenvalues --    0.51425   0.53031   0.54284   0.54924   0.56543
 Alpha virt. eigenvalues --    0.57648   0.58678   0.59904   0.60964   0.61829
 Alpha virt. eigenvalues --    0.63463   0.64837   0.67275   0.69709   0.70167
 Alpha virt. eigenvalues --    0.72698   0.73827   0.73969   0.76452   0.77048
 Alpha virt. eigenvalues --    0.78300   0.79908   0.82910   0.85986   0.87968
 Alpha virt. eigenvalues --    0.89749   0.91413   0.94823   0.96605   1.02241
 Alpha virt. eigenvalues --    1.04073   1.06003   1.06527   1.08160   1.09827
 Alpha virt. eigenvalues --    1.12656   1.16702   1.17108   1.18097   1.21850
 Alpha virt. eigenvalues --    1.24933   1.27103   1.30762   1.35924   1.38666
 Alpha virt. eigenvalues --    1.39214   1.41593   1.45614   1.57630   1.59097
 Alpha virt. eigenvalues --    1.60679   1.62759   1.64449   1.66673   1.68165
 Alpha virt. eigenvalues --    1.71388   1.73933   1.76955   1.78262   1.81966
 Alpha virt. eigenvalues --    1.85486   1.88105   1.90193   1.97643   1.98937
 Alpha virt. eigenvalues --    2.01071   2.05502   2.05632   2.10097   2.11422
 Alpha virt. eigenvalues --    2.15359   2.17033   2.24584   2.26869   2.29185
 Alpha virt. eigenvalues --    2.35778   2.42817   2.44862   2.47182   2.55451
 Alpha virt. eigenvalues --    2.60388   2.65724   2.68227   2.71090   2.75992
 Alpha virt. eigenvalues --    2.77004   2.80434   2.80735   2.83958   2.85486
 Alpha virt. eigenvalues --    2.95703   3.01218   3.05135   3.08595   3.11476
 Alpha virt. eigenvalues --    3.16951   3.18444   3.20005   3.26439   3.29998
 Alpha virt. eigenvalues --    3.31354   3.41256   3.48502   3.52997   3.58676
 Alpha virt. eigenvalues --    3.60759   3.73126   3.78426   3.86021   3.89814
 Alpha virt. eigenvalues --    4.12590   4.13446   4.22006   4.26123   4.45953
 Alpha virt. eigenvalues --    4.49484   4.57167   4.63582   4.98015   5.00870
 Alpha virt. eigenvalues --    5.09730   5.14197   5.66289   6.19570   6.70598
 Alpha virt. eigenvalues --    7.51467   7.53786   7.63867  23.24417  23.63644
 Alpha virt. eigenvalues --   23.74447  23.80138  23.97625  24.04713  35.35686
 Alpha virt. eigenvalues --   47.96630  49.89532  49.98195 289.84260 289.86598
 Alpha virt. eigenvalues --  289.992141020.97796
          Condensed to atoms (all electrons):
               1          2          3          4          5          6
     1  C    8.397417  -2.879195   0.993225  -0.171765   0.297388   0.061859
     2  C   -2.879195  18.200968  -4.605343   0.372307  -0.004610   0.171673
     3  C    0.993225  -4.605343  20.303134  -1.527477   0.025922   0.122155
     4  C   -0.171765   0.372307  -1.527477   6.624981   0.012386  -0.013410
     5  H    0.297388  -0.004610   0.025922   0.012386   0.348677  -0.001682
     6  H    0.061859   0.171673   0.122155  -0.013410  -0.001682   0.304011
     7  H    0.033344  -0.033941   0.027065   0.301913  -0.003283  -0.000008
     8  N   -0.142742   0.041270  -1.787413   0.033157  -0.000431  -0.029924
     9  O   -0.021003   0.255356  -0.074792  -0.023176  -0.000038  -0.002622
    10  O    0.312869  -0.202255  -0.239405  -0.023532   0.000038   0.024223
    11  C    0.953774  -0.536756   2.808117  -0.482308  -0.027112   0.008229
    12  H   -0.011659   0.013487   0.018065   0.009289   0.000008  -0.000017
    13  C   -1.716303  -4.767533  -9.824605   1.209302   0.025147  -0.002884
    14  H   -0.004587   0.000902  -0.017158   0.004707  -0.000031   0.000028
    15  Br   0.000567  -0.201874  -0.185492   0.003013  -0.000050  -0.000443
               7          8          9         10         11         12
     1  C    0.033344  -0.142742  -0.021003   0.312869   0.953774  -0.011659
     2  C   -0.033941   0.041270   0.255356  -0.202255  -0.536756   0.013487
     3  C    0.027065  -1.787413  -0.074792  -0.239405   2.808117   0.018065
     4  C    0.301913   0.033157  -0.023176  -0.023532  -0.482308   0.009289
     5  H   -0.003283  -0.000431  -0.000038   0.000038  -0.027112   0.000008
     6  H   -0.000008  -0.029924  -0.002622   0.024223   0.008229  -0.000017
     7  H    0.371256  -0.000052   0.000009  -0.000000   0.037481  -0.002708
     8  N   -0.000052   7.806307  -0.014278   0.145110  -0.442370   0.000821
     9  O    0.000009  -0.014278   7.896710   0.014626   0.325412   0.000088
    10  O   -0.000000   0.145110   0.014626   7.812585   0.001056  -0.000024
    11  C    0.037481  -0.442370   0.325412   0.001056   8.715853   0.302584
    12  H   -0.002708   0.000821   0.000088  -0.000024   0.302584   0.342038
    13  C   -0.027805   1.495196  -0.427708   0.050795  -5.544049  -0.003557
    14  H   -0.000038  -0.026437   0.013519  -0.001801   0.046651  -0.005093
    15  Br  -0.000356   0.163669  -0.056810   0.003247   0.068247  -0.002962
              13         14         15
     1  C   -1.716303  -0.004587   0.000567
     2  C   -4.767533   0.000902  -0.201874
     3  C   -9.824605  -0.017158  -0.185492
     4  C    1.209302   0.004707   0.003013
     5  H    0.025147  -0.000031  -0.000050
     6  H   -0.002884   0.000028  -0.000443
     7  H   -0.027805  -0.000038  -0.000356
     8  N    1.495196  -0.026437   0.163669
     9  O   -0.427708   0.013519  -0.056810
    10  O    0.050795  -0.001801   0.003247
    11  C   -5.544049   0.046651   0.068247
    12  H   -0.003557  -0.005093  -0.002962
    13  C   25.265617   0.294496   0.363185
    14  H    0.294496   0.312020  -0.036919
    15  Br   0.363185  -0.036919  34.684131
 Mulliken charges:
               1
     1  C   -0.103188
     2  C    0.175545
     3  C   -0.035999
     4  C   -0.329387
     5  H    0.327673
     6  H    0.358811
     7  H    0.297121
     8  N   -0.241883
     9  O    0.114708
    10  O    0.102470
    11  C   -0.234807
    12  H    0.339640
    13  C   -0.389293
    14  H    0.419744
    15  Br   0.198846
 Sum of Mulliken charges =   1.00000
 Mulliken charges with hydrogens summed into heavy atoms:
               1
     1  C    0.224485
     2  C    0.534355
     3  C   -0.035999
     4  C   -0.032265
     8  N   -0.241883
     9  O    0.114708
    10  O    0.102470
    11  C    0.104833
    13  C    0.030451
    15  Br   0.198846
 Electronic spatial extent (au):  <R**2>=           3940.3132
 Charge=              1.0000 electrons
 Dipole moment (field-independent basis, Debye):
    X=              4.7225    Y=             -1.0068    Z=             -0.8498  Tot=              4.9028
 Quadrupole moment (field-independent basis, Debye-Ang):
   XX=            -60.3509   YY=            -51.0250   ZZ=            -61.9639
   XY=             -3.4384   XZ=             -3.1027   YZ=              2.6936
 Traceless Quadrupole moment (field-independent basis, Debye-Ang):
   XX=             -2.5710   YY=              6.7549   ZZ=             -4.1839
   XY=             -3.4384   XZ=             -3.1027   YZ=              2.6936
 Octapole moment (field-independent basis, Debye-Ang**2):
  XXX=           -474.8915  YYY=             91.3013  ZZZ=             82.1787  XYY=           -131.9800
  XXY=             23.1282  XXZ=             23.5968  XZZ=           -129.9741  YZZ=             16.4545
  YYZ=             25.0769  XYZ=              9.1500
 Hexadecapole moment (field-independent basis, Debye-Ang**3):
 XXXX=          -3261.0370 YYYY=           -701.3386 ZZZZ=           -393.4712 XXXY=            176.7226
 XXXZ=            177.7224 YYYX=            181.7485 YYYZ=           -170.3204 ZZZX=            163.7413
 ZZZY=           -142.7012 XXYY=           -606.0654 XXZZ=           -516.8444 YYZZ=           -169.9811
 XXYZ=            -37.1542 YYXZ=             46.4583 ZZXY=             25.7427
 N-N= 7.699721356788D+02 E-N=-8.696322079415D+03  KE= 3.005841675077D+03
 No NMR shielding tensors so no spin-rotation constants.
 Leave Link  601 at Thu May  2 14:23:40 2024, MaxMem=   134217728 cpu:               7.2 elap:               7.2
 (Enter /software/gaussian/g16-c01/sse4/g16/l9999.exe)
 Unable to Open any file for archive entry.
 1\1\GINC-BHX0004\SP\RwB97XD\6-311+G(d)\C6H5Br1N1O2(1+)\BWEIGHT\02-May-
 2024\0\\#P wB97XD/6-311+G* NoSymm #P Field=X-68\\TitleMe\\1,1\C,0,0.51
 93,1.233,-0.0319\C,0,1.9445,1.2692,-0.0367\C,0,2.6204,0.0928,-0.025\C,
 0,-0.196,0.0301,0.001\H,0,-0.0207,2.1742,-0.0434\H,0,2.4828,2.2089,-0.
 0361\H,0,-1.2777,0.0399,0.0117\N,0,4.0921,0.0959,0.0366\O,0,4.6393,-1.
 0217,0.1446\O,0,4.6649,1.1984,-0.0233\C,0,0.4943,-1.1671,0.021\H,0,-0.
 0325,-2.1149,0.0545\C,0,1.9629,-1.2165,-0.0211\H,0,2.4436,-1.9631,0.61
 51\Br,0,2.173,-1.9491,-1.9062\\Version=ES64L-G16RevC.01\HF=-3010.54193
 95\RMSD=2.364e-09\Dipole=-2.4712402,0.8320328,0.914891\Quadrupole=-1.9
 114583,5.0221211,-3.1106628,-2.5563761,-2.3067715,2.0026426\PG=C01 [X(
 C6H5Br1N1O2)]\\@
 The archive entry for this job was punched.


 REPARTEE - WHAT YOU THINK OF AFTER YOU BECOME A DEPARTEE.
 Job cpu time:       0 days  0 hours 26 minutes  0.6 seconds.
 Elapsed time:       0 days  0 hours 26 minutes 10.1 seconds.
 File lengths (MBytes):  RWF=     40 Int=      0 D2E=      0 Chk=     32 Scr=      1
 Normal termination of Gaussian 16 at Thu May  2 14:23:40 2024.
