 Entering Gaussian System, Link 0=g16
 Initial command:
 /software/gaussian/g16-c01/sse4/g16/l1.exe "/local_scratch/24657514/Gau-31035.inp" -scrdir="/local_scratch/24657514/"
 Entering Link 1 = /software/gaussian/g16-c01/sse4/g16/l1.exe PID=     31042.
  
 Copyright (c) 1988-2019, Gaussian, Inc.  All Rights Reserved.
  
 This is part of the Gaussian(R) 16 program.  It is based on
 the Gaussian(R) 09 system (copyright 2009, Gaussian, Inc.),
 the Gaussian(R) 03 system (copyright 2003, Gaussian, Inc.),
 the Gaussian(R) 98 system (copyright 1998, Gaussian, Inc.),
 the Gaussian(R) 94 system (copyright 1995, Gaussian, Inc.),
 the Gaussian 92(TM) system (copyright 1992, Gaussian, Inc.),
 the Gaussian 90(TM) system (copyright 1990, Gaussian, Inc.),
 the Gaussian 88(TM) system (copyright 1988, Gaussian, Inc.),
 the Gaussian 86(TM) system (copyright 1986, Carnegie Mellon
 University), and the Gaussian 82(TM) system (copyright 1983,
 Carnegie Mellon University). Gaussian is a federally registered
 trademark of Gaussian, Inc.
  
 This software contains proprietary and confidential information,
 including trade secrets, belonging to Gaussian, Inc.
  
 This software is provided under written license and may be
 used, copied, transmitted, or stored only in accord with that
 written license.
  
 The following legend is applicable only to US Government
 contracts under FAR:
  
                    RESTRICTED RIGHTS LEGEND
  
 Use, reproduction and disclosure by the US Government is
 subject to restrictions as set forth in subparagraphs (a)
 and (c) of the Commercial Computer Software - Restricted
 Rights clause in FAR 52.227-19.
  
 Gaussian, Inc.
 340 Quinnipiac St., Bldg. 40, Wallingford CT 06492
  
  
 ---------------------------------------------------------------
 Warning -- This program may not be used in any manner that
 competes with the business of Gaussian, Inc. or will provide
 assistance to any competitor of Gaussian, Inc.  The licensee
 of this program is prohibited from giving any competitor of
 Gaussian, Inc. access to this program.  By using this program,
 the user acknowledges that Gaussian, Inc. is engaged in the
 business of creating and licensing software in the field of
 computational chemistry and represents and warrants to the
 licensee that it is not a competitor of Gaussian, Inc. and that
 it will not use this program in any manner prohibited above.
 ---------------------------------------------------------------
  

 Cite this work as:
 Gaussian 16, Revision C.01,
 M. J. Frisch, G. W. Trucks, H. B. Schlegel, G. E. Scuseria, 
 M. A. Robb, J. R. Cheeseman, G. Scalmani, V. Barone, 
 G. A. Petersson, H. Nakatsuji, X. Li, M. Caricato, A. V. Marenich, 
 J. Bloino, B. G. Janesko, R. Gomperts, B. Mennucci, H. P. Hratchian, 
 J. V. Ortiz, A. F. Izmaylov, J. L. Sonnenberg, D. Williams-Young, 
 F. Ding, F. Lipparini, F. Egidi, J. Goings, B. Peng, A. Petrone, 
 T. Henderson, D. Ranasinghe, V. G. Zakrzewski, J. Gao, N. Rega, 
 G. Zheng, W. Liang, M. Hada, M. Ehara, K. Toyota, R. Fukuda, 
 J. Hasegawa, M. Ishida, T. Nakajima, Y. Honda, O. Kitao, H. Nakai, 
 T. Vreven, K. Throssell, J. A. Montgomery, Jr., J. E. Peralta, 
 F. Ogliaro, M. J. Bearpark, J. J. Heyd, E. N. Brothers, K. N. Kudin, 
 V. N. Staroverov, T. A. Keith, R. Kobayashi, J. Normand, 
 K. Raghavachari, A. P. Rendell, J. C. Burant, S. S. Iyengar, 
 J. Tomasi, M. Cossi, J. M. Millam, M. Klene, C. Adamo, R. Cammi, 
 J. W. Ochterski, R. L. Martin, K. Morokuma, O. Farkas, 
 J. B. Foresman, and D. J. Fox, Gaussian, Inc., Wallingford CT, 2019.
 
 ******************************************
 Gaussian 16:  ES64L-G16RevC.01  3-Jul-2019
                 1-May-2024 
 ******************************************
 %chk=geometry.chk
 %mem=9GB
 %nprocshared=12
 Will use up to   12 processors via shared memory.
 ----------------------------------------
 #P wB97XD/6-311+G* NoSymm #P Field=Y+126
 ----------------------------------------
 1/38=1,172=1/1;
 2/12=2,15=1,17=6,18=5,40=1/2;
 3/5=4,6=6,7=11,11=2,14=2,15=126,25=1,30=1,74=-58/1,2,3;
 4//1;
 5/5=2,38=5/2;
 6/7=2,8=2,9=2,10=2,28=1/1;
 99/5=1,9=1/99;
 Leave Link    1 at Wed May  1 14:49:54 2024, MaxMem=  1207959552 cpu:               1.1 elap:               1.1
 (Enter /software/gaussian/g16-c01/sse4/g16/l101.exe)
 -------
 TitleMe
 -------
 Symbolic Z-matrix:
 Charge =  1 Multiplicity = 1
 C                     0.0295    1.3397    0.0682 
 C                     1.4348    1.2867    0.0064 
 C                     2.1118    0.0511   -0.0054 
 C                     1.4451   -1.1372    0.0312 
 C                    -0.6879    0.1682    0.11 
 H                    -0.4713    2.2984    0.0781 
 H                     2.0273    2.1965   -0.0322 
 H                     1.9897   -2.0764    0.0232 
 H                    -1.7716    0.1804    0.1582 
 N                     3.5864    0.051    -0.0675 
 O                     4.1471   -1.0597   -0.0881 
 O                     4.145     1.1639   -0.0901 
 C                    -0.0236   -1.1458    0.0835 
 H                    -0.4367   -1.8725    0.7889 
 Br                   -0.5359   -1.8697   -1.7408 
 
 ITRead=  0  0  0  0  0  0  0  0  0  0  0  0  0  0  0
 MicOpt= -1 -1 -1 -1 -1 -1 -1 -1 -1 -1 -1 -1 -1 -1 -1
 NAtoms=     15 NQM=       15 NQMF=       0 NMMI=      0 NMMIF=      0
                NMic=       0 NMicF=      0.
                    Isotopes and Nuclear Properties:
 (Nuclear quadrupole moments (NQMom) in fm**2, nuclear magnetic moments (NMagM)
  in nuclear magnetons)

  Atom         1           2           3           4           5           6           7           8           9          10
 IAtWgt=          12          12          12          12          12           1           1           1           1          14
 AtmWgt=  12.0000000  12.0000000  12.0000000  12.0000000  12.0000000   1.0078250   1.0078250   1.0078250   1.0078250  14.0030740
 NucSpn=           0           0           0           0           0           1           1           1           1           2
 AtZEff=  -0.0000000  -0.0000000  -0.0000000  -0.0000000  -0.0000000  -0.0000000  -0.0000000  -0.0000000  -0.0000000  -0.0000000
 NQMom=    0.0000000   0.0000000   0.0000000   0.0000000   0.0000000   0.0000000   0.0000000   0.0000000   0.0000000   2.0440000
 NMagM=    0.0000000   0.0000000   0.0000000   0.0000000   0.0000000   2.7928460   2.7928460   2.7928460   2.7928460   0.4037610
 AtZNuc=   6.0000000   6.0000000   6.0000000   6.0000000   6.0000000   1.0000000   1.0000000   1.0000000   1.0000000   7.0000000

  Atom        11          12          13          14          15
 IAtWgt=          16          16          12           1          79
 AtmWgt=  15.9949146  15.9949146  12.0000000   1.0078250  78.9183361
 NucSpn=           0           0           0           1           3
 AtZEff=  -0.0000000  -0.0000000  -0.0000000  -0.0000000  -0.0000000
 NQMom=    0.0000000   0.0000000   0.0000000   0.0000000  31.3000000
 NMagM=    0.0000000   0.0000000   0.0000000   2.7928460   2.1063990
 AtZNuc=   8.0000000   8.0000000   6.0000000   1.0000000  35.0000000
 Leave Link  101 at Wed May  1 14:49:55 2024, MaxMem=  1207959552 cpu:               1.3 elap:               1.3
 (Enter /software/gaussian/g16-c01/sse4/g16/l202.exe)
                          Input orientation:                          
 ---------------------------------------------------------------------
 Center     Atomic      Atomic             Coordinates (Angstroms)
 Number     Number       Type             X           Y           Z
 ---------------------------------------------------------------------
      1          6           0        0.029500    1.339700    0.068200
      2          6           0        1.434800    1.286700    0.006400
      3          6           0        2.111800    0.051100   -0.005400
      4          6           0        1.445100   -1.137200    0.031200
      5          6           0       -0.687900    0.168200    0.110000
      6          1           0       -0.471300    2.298400    0.078100
      7          1           0        2.027300    2.196500   -0.032200
      8          1           0        1.989700   -2.076400    0.023200
      9          1           0       -1.771600    0.180400    0.158200
     10          7           0        3.586400    0.051000   -0.067500
     11          8           0        4.147100   -1.059700   -0.088100
     12          8           0        4.145000    1.163900   -0.090100
     13          6           0       -0.023600   -1.145800    0.083500
     14          1           0       -0.436700   -1.872500    0.788900
     15         35           0       -0.535900   -1.869700   -1.740800
 ---------------------------------------------------------------------
                    Distance matrix (angstroms):
                    1          2          3          4          5
     1  C    0.000000
     2  C    1.407656   0.000000
     3  C    2.449874   1.408963   0.000000
     4  C    2.853126   2.424049   1.363043   0.000000
     5  C    1.374344   2.401589   2.804523   2.501993   0.000000
     6  H    1.081667   2.159142   3.424870   3.934226   2.141421
     7  H    2.176095   1.086408   2.147231   3.384750   3.392128
     8  H    3.938800   3.408612   2.131193   1.085702   3.495040
     9  H    2.143837   3.395283   3.888995   3.478413   1.084840
    10  N    3.785591   2.482297   1.475907   2.450862   4.279589
    11  O    4.768247   3.587631   2.320164   2.705743   4.992415
    12  O    4.122294   2.714696   2.319353   3.549540   4.938459
    13  C    2.486114   2.837240   2.449573   1.469656   1.472614
    14  H    3.324903   3.754379   3.290289   2.157764   2.165286
    15  Br   3.727252   4.110867   3.702891   2.756973   2.757100
                    6          7          8          9         10
     6  H    0.000000
     7  H    2.503108   0.000000
     8  H    5.019802   4.273425   0.000000
     9  H    2.486588   4.304945   4.388479   0.000000
    10  N    4.640790   2.652397   2.661486   5.364313   0.000000
    11  O    5.712624   3.885809   2.387560   6.052233   1.244373
    12  O    4.756638   2.356750   3.893289   6.002923   1.245428
    13  C    3.473180   3.923079   2.218790   2.195425   3.806210
    14  H    4.231175   4.827242   2.552506   2.528663   4.540772
    15  Br   4.548146   5.101303   3.087568   3.055498   4.845862
                   11         12         13         14         15
    11  O    0.000000
    12  O    2.223602   0.000000
    13  C    4.175117   4.768865   0.000000
    14  H    4.737193   5.566358   1.093770   0.000000
    15  Br   5.031700   5.817075   2.028436   2.531646   0.000000
 Symmetry turned off by external request.
 Stoichiometry    C6H5BrNO2(1+)
 Framework group  C1[X(C6H5BrNO2)]
 Deg. of freedom    39
 Full point group                 C1      NOp   1
 Rotational constants (GHZ):           1.8252210           0.5518633           0.4576002
 Leave Link  202 at Wed May  1 14:49:56 2024, MaxMem=  1207959552 cpu:               1.2 elap:               1.2
 (Enter /software/gaussian/g16-c01/sse4/g16/l301.exe)
 Standard basis: 6-311+G(d) (5D, 7F)
 Ernie: Thresh=  0.10000D-02 Tol=  0.10000D-05 Strict=F.
 The following finite field(s) will be applied:
 An electric field of              0.0000  0.0126  0.0000
   261 basis functions,   443 primitive gaussians,   273 cartesian basis functions
    49 alpha electrons       49 beta electrons
       nuclear repulsion energy       739.2122215416 Hartrees.
 IExCor= 4639 DFT=T Ex+Corr=wB97XD ExCW=0 ScaHFX=  1.000000
 ScaDFX=  1.000000  1.000000  1.000000  1.000000 ScalE2=  1.000000  1.000000
 IRadAn=      5 IRanWt=     -1 IRanGd=            0 ICorTp=0 IEmpDi=121
 HFx  wShort=  0.000000 wLong=  0.200000 cFull=  0.222036 cShort=  0.000000 cLong=  0.777964
 DFx  wShort=  0.000000 wLong=  0.200000 cFull=  0.000000 cShort=  0.000000 cLong=  1.000000
 NAtoms=   15 NActive=   15 NUniq=   15 SFac= 1.00D+00 NAtFMM=   60 NAOKFM=F Big=F
 Integral buffers will be    131072 words long.
 Raffenetti 2 integral format.
 Two-electron integral symmetry is turned off.
 R6Disp:  Grimme-D2 Dispersion energy=       -0.0077368520 Hartrees.
 Nuclear repulsion after empirical dispersion term =      739.2044846896 Hartrees.
 Leave Link  301 at Wed May  1 14:49:57 2024, MaxMem=  1207959552 cpu:               1.0 elap:               1.0
 (Enter /software/gaussian/g16-c01/sse4/g16/l302.exe)
 NPDir=0 NMtPBC=     1 NCelOv=     1 NCel=       1 NClECP=     1 NCelD=      1
         NCelK=      1 NCelE2=     1 NClLst=     1 CellRange=     0.0.
 One-electron integrals computed using PRISM.
 NBasis=   261 RedAO= T EigKep=  2.35D-06  NBF=   261
 NBsUse=   261 1.00D-06 EigRej= -1.00D+00 NBFU=   261
 Precomputing XC quadrature grid using
 IXCGrd= 4 IRadAn=           5 IRanWt=          -1 IRanGd=           0 AccXCQ= 0.00D+00.
 Generated NRdTot=       0 NPtTot=           0 NUsed=           0 NTot=          32
 NSgBfM=   273   273   273   273   273 MxSgAt=    15 MxSgA2=    15.
 Leave Link  302 at Wed May  1 14:50:18 2024, MaxMem=  1207959552 cpu:              20.8 elap:              20.9
 (Enter /software/gaussian/g16-c01/sse4/g16/l303.exe)
 DipDrv:  MaxL=1.
 The nuclear repulsion energy is now       737.7723682560 hartrees.
 Leave Link  303 at Wed May  1 14:50:21 2024, MaxMem=  1207959552 cpu:               3.3 elap:               3.3
 (Enter /software/gaussian/g16-c01/sse4/g16/l401.exe)
 ExpMin= 3.50D-02 ExpMax= 4.40D+05 ExpMxC= 1.51D+04 IAcc=3 IRadAn=         5 AccDes= 0.00D+00
 Harris functional with IExCor= 4639 and IRadAn=       5 diagonalized for initial guess.
 HarFok:  IExCor= 4639 AccDes= 0.00D+00 IRadAn=         5 IDoV= 1 UseB2=F ITyADJ=14
 ICtDFT=  3500011 ScaDFX=  1.000000  1.000000  1.000000  1.000000
 FoFCou: FMM=F IPFlag=           0 FMFlag=      100000 FMFlg1=           0
         NFxFlg=           0 DoJE=T BraDBF=F KetDBF=T FulRan=T
         wScrn=  0.000000 ICntrl=       500 IOpCl=  0 I1Cent=   200000004 NGrid=           0
         NMat0=    1 NMatS0=      1 NMatT0=    0 NMatD0=    1 NMtDS0=    0 NMtDT0=    0
 Symmetry not used in FoFCou.
 Harris En= -2970.62409549807    
 JPrj=0 DoOrth=F DoCkMO=F.
 Leave Link  401 at Wed May  1 14:50:51 2024, MaxMem=  1207959552 cpu:              29.1 elap:              29.1
 (Enter /software/gaussian/g16-c01/sse4/g16/l502.exe)
 Two-electron integral symmetry not used.
 Closed shell SCF:
 Using DIIS extrapolation, IDIIS=  1040.
 NGot=  1207959552 LenX=  1207804877 LenY=  1207729907
 Requested convergence on RMS density matrix=1.00D-08 within 128 cycles.
 Requested convergence on MAX density matrix=1.00D-06.
 Requested convergence on             energy=1.00D-06.
 No special actions if energy rises.
 Fock matrices will be formed incrementally for  20 cycles.

 Cycle   1  Pass 1  IDiag  1:
 FoFJK:  IHMeth= 1 ICntrl=       0 DoSepK=T KAlg= 0 I1Cent=           0 FoldK=F
 IRaf=         1 NMat=       1 IRICut=       1 DoRegI=T DoRafI=F ISym2E= 0 IDoP0=0 IntGTp=1.
 FoFCou: FMM=F IPFlag=           0 FMFlag=      100000 FMFlg1=           0
         NFxFlg=           0 DoJE=T BraDBF=F KetDBF=F FulRan=T
         wScrn=  0.000000 ICntrl=       500 IOpCl=  0 I1Cent=           0 NGrid=           0
         NMat0=    1 NMatS0=      1 NMatT0=    0 NMatD0=    1 NMtDS0=    0 NMtDT0=    0
 Symmetry not used in FoFCou.
 E= -3009.66985527293    
 DIIS: error= 3.20D-01 at cycle   1 NSaved=   1.
 NSaved= 1 IEnMin= 1 EnMin= -3009.66985527293     IErMin= 1 ErrMin= 3.20D-01
 ErrMax= 3.20D-01  0.00D+00 EMaxC= 1.00D-01 BMatC= 1.20D+01 BMatP= 1.20D+01
 IDIUse=3 WtCom= 0.00D+00 WtEn= 1.00D+00
 Coeff-Com:  0.100D+01
 Coeff-En:   0.100D+01
 Coeff:      0.100D+01
 Gap=     0.386 Goal=   None    Shift=    0.000
 GapD=    0.386 DampG=1.000 DampE=0.250 DampFc=0.2500 IDamp=-1.
 Damping current iteration by 2.50D-01
 RMSDP=8.10D-02 MaxDP=8.69D+00              OVMax= 2.85D-01

 Cycle   2  Pass 1  IDiag  1:
 RMSU=  6.04D-03    CP:  8.53D-01
 E= -3009.97624597312     Delta-E=       -0.306390700190 Rises=F Damp=T
 DIIS: error= 2.25D-01 at cycle   2 NSaved=   2.
 NSaved= 2 IEnMin= 2 EnMin= -3009.97624597312     IErMin= 2 ErrMin= 2.25D-01
 ErrMax= 2.25D-01  0.00D+00 EMaxC= 1.00D-01 BMatC= 5.46D+00 BMatP= 1.20D+01
 IDIUse=3 WtCom= 0.00D+00 WtEn= 1.00D+00
 Coeff-Com: -0.180D+01 0.280D+01
 Coeff-En:   0.000D+00 0.100D+01
 Coeff:      0.000D+00 0.100D+01
 Gap=     0.273 Goal=   None    Shift=    0.000
 RMSDP=6.10D-02 MaxDP=6.39D+00 DE=-3.06D-01 OVMax= 1.27D-01

 Cycle   3  Pass 1  IDiag  1:
 RMSU=  6.04D-03    CP:  4.08D-01  3.00D+00
 E= -3010.38264712921     Delta-E=       -0.406401156089 Rises=F Damp=F
 DIIS: error= 6.63D-02 at cycle   3 NSaved=   3.
 NSaved= 3 IEnMin= 3 EnMin= -3010.38264712921     IErMin= 3 ErrMin= 6.63D-02
 ErrMax= 6.63D-02  0.00D+00 EMaxC= 1.00D-01 BMatC= 7.58D-01 BMatP= 5.46D+00
 IDIUse=3 WtCom= 3.37D-01 WtEn= 6.63D-01
 Coeff-Com:  0.211D+01-0.273D+01 0.162D+01
 Coeff-En:   0.399D-01 0.000D+00 0.960D+00
 Coeff:      0.740D+00-0.921D+00 0.118D+01
 Gap=     0.296 Goal=   None    Shift=    0.000
 RMSDP=9.57D-03 MaxDP=5.53D-01 DE=-4.06D-01 OVMax= 9.41D-02

 Cycle   4  Pass 1  IDiag  1:
 RMSU=  7.50D-03    CP:  4.45D-01  3.00D+00  1.54D+00
 E= -3010.48162602122     Delta-E=       -0.098978892009 Rises=F Damp=F
 DIIS: error= 3.95D-02 at cycle   4 NSaved=   4.
 NSaved= 4 IEnMin= 4 EnMin= -3010.48162602122     IErMin= 4 ErrMin= 3.95D-02
 ErrMax= 3.95D-02  0.00D+00 EMaxC= 1.00D-01 BMatC= 2.67D-01 BMatP= 7.58D-01
 IDIUse=3 WtCom= 6.05D-01 WtEn= 3.95D-01
 Coeff-Com:  0.446D+00-0.577D+00 0.611D+00 0.520D+00
 Coeff-En:   0.000D+00 0.000D+00 0.250D+00 0.750D+00
 Coeff:      0.270D+00-0.349D+00 0.468D+00 0.611D+00
 Gap=     0.261 Goal=   None    Shift=    0.000
 RMSDP=6.08D-03 MaxDP=4.05D-01 DE=-9.90D-02 OVMax= 8.23D-02

 Cycle   5  Pass 1  IDiag  1:
 RMSU=  2.21D-03    CP:  4.09D-01  3.00D+00  1.65D+00  6.00D-01
 E= -3010.53626780706     Delta-E=       -0.054641785836 Rises=F Damp=F
 DIIS: error= 1.33D-02 at cycle   5 NSaved=   5.
 NSaved= 5 IEnMin= 5 EnMin= -3010.53626780706     IErMin= 5 ErrMin= 1.33D-02
 ErrMax= 1.33D-02  0.00D+00 EMaxC= 1.00D-01 BMatC= 1.78D-02 BMatP= 2.67D-01
 IDIUse=3 WtCom= 8.67D-01 WtEn= 1.33D-01
 Coeff-Com: -0.356D-01 0.531D-01 0.156D+00 0.356D+00 0.470D+00
 Coeff-En:   0.000D+00 0.000D+00 0.000D+00 0.652D-01 0.935D+00
 Coeff:     -0.309D-01 0.460D-01 0.136D+00 0.317D+00 0.532D+00
 Gap=     0.273 Goal=   None    Shift=    0.000
 RMSDP=1.56D-03 MaxDP=8.40D-02 DE=-5.46D-02 OVMax= 5.27D-02

 Cycle   6  Pass 1  IDiag  1:
 RMSU=  8.07D-04    CP:  4.06D-01  3.00D+00  1.63D+00  7.09D-01  5.71D-01
 E= -3010.54610789824     Delta-E=       -0.009840091183 Rises=F Damp=F
 DIIS: error= 3.36D-03 at cycle   6 NSaved=   6.
 NSaved= 6 IEnMin= 6 EnMin= -3010.54610789824     IErMin= 6 ErrMin= 3.36D-03
 ErrMax= 3.36D-03  0.00D+00 EMaxC= 1.00D-01 BMatC= 1.61D-03 BMatP= 1.78D-02
 IDIUse=3 WtCom= 9.66D-01 WtEn= 3.36D-02
 Coeff-Com: -0.722D-01 0.972D-01 0.373D-02 0.123D+00 0.337D+00 0.511D+00
 Coeff-En:   0.000D+00 0.000D+00 0.000D+00 0.000D+00 0.797D-01 0.920D+00
 Coeff:     -0.697D-01 0.939D-01 0.361D-02 0.119D+00 0.329D+00 0.525D+00
 Gap=     0.245 Goal=   None    Shift=    0.000
 RMSDP=4.74D-04 MaxDP=2.24D-02 DE=-9.84D-03 OVMax= 1.20D-02

 Cycle   7  Pass 1  IDiag  1:
 RMSU=  3.93D-04    CP:  4.06D-01  3.00D+00  1.65D+00  6.96D-01  6.65D-01
                    CP:  9.35D-01
 E= -3010.54720124092     Delta-E=       -0.001093342677 Rises=F Damp=F
 DIIS: error= 3.81D-04 at cycle   7 NSaved=   7.
 NSaved= 7 IEnMin= 7 EnMin= -3010.54720124092     IErMin= 7 ErrMin= 3.81D-04
 ErrMax= 3.81D-04  0.00D+00 EMaxC= 1.00D-01 BMatC= 2.64D-05 BMatP= 1.61D-03
 IDIUse=3 WtCom= 9.96D-01 WtEn= 3.81D-03
 Coeff-Com: -0.320D-01 0.426D-01-0.126D-01 0.245D-01 0.852D-01 0.187D+00
 Coeff-Com:  0.706D+00
 Coeff-En:   0.000D+00 0.000D+00 0.000D+00 0.000D+00 0.000D+00 0.000D+00
 Coeff-En:   0.100D+01
 Coeff:     -0.319D-01 0.424D-01-0.125D-01 0.244D-01 0.848D-01 0.186D+00
 Coeff:      0.707D+00
 Gap=     0.246 Goal=   None    Shift=    0.000
 RMSDP=2.47D-04 MaxDP=1.51D-02 DE=-1.09D-03 OVMax= 2.84D-03

 Cycle   8  Pass 1  IDiag  1:
 RMSU=  1.26D-04    CP:  4.05D-01  3.00D+00  1.66D+00  7.00D-01  7.00D-01
                    CP:  1.03D+00  9.06D-01
 E= -3010.54723825469     Delta-E=       -0.000037013774 Rises=F Damp=F
 DIIS: error= 1.68D-04 at cycle   8 NSaved=   8.
 NSaved= 8 IEnMin= 8 EnMin= -3010.54723825469     IErMin= 8 ErrMin= 1.68D-04
 ErrMax= 1.68D-04  0.00D+00 EMaxC= 1.00D-01 BMatC= 3.93D-06 BMatP= 2.64D-05
 IDIUse=3 WtCom= 9.98D-01 WtEn= 1.68D-03
 Coeff-Com:  0.375D-02-0.523D-02-0.409D-02-0.133D-01-0.414D-01-0.630D-01
 Coeff-Com:  0.183D+00 0.940D+00
 Coeff-En:   0.000D+00 0.000D+00 0.000D+00 0.000D+00 0.000D+00 0.000D+00
 Coeff-En:   0.000D+00 0.100D+01
 Coeff:      0.374D-02-0.522D-02-0.408D-02-0.133D-01-0.413D-01-0.629D-01
 Coeff:      0.183D+00 0.940D+00
 Gap=     0.246 Goal=   None    Shift=    0.000
 RMSDP=1.24D-04 MaxDP=7.15D-03 DE=-3.70D-05 OVMax= 2.18D-03

 Cycle   9  Pass 1  IDiag  1:
 RMSU=  2.95D-05    CP:  4.05D-01  3.00D+00  1.67D+00  7.04D-01  7.10D-01
                    CP:  1.09D+00  1.12D+00  1.31D+00
 E= -3010.54724922185     Delta-E=       -0.000010967153 Rises=F Damp=F
 DIIS: error= 5.14D-05 at cycle   9 NSaved=   9.
 NSaved= 9 IEnMin= 9 EnMin= -3010.54724922185     IErMin= 9 ErrMin= 5.14D-05
 ErrMax= 5.14D-05  0.00D+00 EMaxC= 1.00D-01 BMatC= 4.04D-07 BMatP= 3.93D-06
 IDIUse=1 WtCom= 1.00D+00 WtEn= 0.00D+00
 Coeff-Com:  0.531D-02-0.713D-02 0.513D-03-0.696D-02-0.203D-01-0.382D-01
 Coeff-Com: -0.432D-01 0.202D+00 0.908D+00
 Coeff:      0.531D-02-0.713D-02 0.513D-03-0.696D-02-0.203D-01-0.382D-01
 Coeff:     -0.432D-01 0.202D+00 0.908D+00
 Gap=     0.246 Goal=   None    Shift=    0.000
 RMSDP=4.26D-05 MaxDP=3.54D-03 DE=-1.10D-05 OVMax= 1.00D-03

 Cycle  10  Pass 1  IDiag  1:
 RMSU=  1.73D-05    CP:  4.05D-01  3.00D+00  1.67D+00  7.06D-01  7.10D-01
                    CP:  1.10D+00  1.18D+00  1.46D+00  1.31D+00
 E= -3010.54725137694     Delta-E=       -0.000002155094 Rises=F Damp=F
 DIIS: error= 1.67D-05 at cycle  10 NSaved=  10.
 NSaved=10 IEnMin=10 EnMin= -3010.54725137694     IErMin=10 ErrMin= 1.67D-05
 ErrMax= 1.67D-05  0.00D+00 EMaxC= 1.00D-01 BMatC= 1.17D-07 BMatP= 4.04D-07
 IDIUse=1 WtCom= 1.00D+00 WtEn= 0.00D+00
 Coeff-Com: -0.157D-03 0.245D-03 0.578D-03 0.118D-02 0.702D-02 0.114D-01
 Coeff-Com: -0.438D-01-0.181D+00 0.211D+00 0.994D+00
 Coeff:     -0.157D-03 0.245D-03 0.578D-03 0.118D-02 0.702D-02 0.114D-01
 Coeff:     -0.438D-01-0.181D+00 0.211D+00 0.994D+00
 Gap=     0.246 Goal=   None    Shift=    0.000
 RMSDP=2.75D-05 MaxDP=1.71D-03 DE=-2.16D-06 OVMax= 6.58D-04

 Cycle  11  Pass 1  IDiag  1:
 RMSU=  8.18D-06    CP:  4.05D-01  3.00D+00  1.67D+00  7.06D-01  7.08D-01
                    CP:  1.10D+00  1.20D+00  1.48D+00  1.54D+00  1.52D+00
 E= -3010.54725200780     Delta-E=       -0.000000630864 Rises=F Damp=F
 DIIS: error= 6.68D-06 at cycle  11 NSaved=  11.
 NSaved=11 IEnMin=11 EnMin= -3010.54725200780     IErMin=11 ErrMin= 6.68D-06
 ErrMax= 6.68D-06  0.00D+00 EMaxC= 1.00D-01 BMatC= 1.87D-08 BMatP= 1.17D-07
 IDIUse=1 WtCom= 1.00D+00 WtEn= 0.00D+00
 Coeff-Com: -0.508D-03 0.690D-03 0.137D-03 0.104D-02 0.318D-02 0.593D-02
 Coeff-Com: -0.218D-02-0.502D-01-0.106D+00 0.156D+00 0.992D+00
 Coeff:     -0.508D-03 0.690D-03 0.137D-03 0.104D-02 0.318D-02 0.593D-02
 Coeff:     -0.218D-02-0.502D-01-0.106D+00 0.156D+00 0.992D+00
 Gap=     0.246 Goal=   None    Shift=    0.000
 RMSDP=1.76D-05 MaxDP=1.33D-03 DE=-6.31D-07 OVMax= 3.23D-04

 Cycle  12  Pass 1  IDiag  1:
 RMSU=  3.04D-06    CP:  4.05D-01  3.00D+00  1.67D+00  7.06D-01  7.06D-01
                    CP:  1.10D+00  1.21D+00  1.49D+00  1.61D+00  2.01D+00
                    CP:  1.37D+00
 E= -3010.54725214038     Delta-E=       -0.000000132577 Rises=F Damp=F
 DIIS: error= 4.10D-06 at cycle  12 NSaved=  12.
 NSaved=12 IEnMin=12 EnMin= -3010.54725214038     IErMin=12 ErrMin= 4.10D-06
 ErrMax= 4.10D-06  0.00D+00 EMaxC= 1.00D-01 BMatC= 6.63D-09 BMatP= 1.87D-08
 IDIUse=1 WtCom= 1.00D+00 WtEn= 0.00D+00
 Coeff-Com: -0.154D-03 0.200D-03-0.710D-04 0.166D-03-0.934D-03-0.130D-02
 Coeff-Com:  0.136D-01 0.376D-01-0.124D+00-0.246D+00 0.473D+00 0.848D+00
 Coeff:     -0.154D-03 0.200D-03-0.710D-04 0.166D-03-0.934D-03-0.130D-02
 Coeff:      0.136D-01 0.376D-01-0.124D+00-0.246D+00 0.473D+00 0.848D+00
 Gap=     0.246 Goal=   None    Shift=    0.000
 RMSDP=8.76D-06 MaxDP=4.47D-04 DE=-1.33D-07 OVMax= 2.22D-04

 Cycle  13  Pass 1  IDiag  1:
 RMSU=  1.54D-06    CP:  4.05D-01  3.00D+00  1.67D+00  7.06D-01  7.04D-01
                    CP:  1.10D+00  1.21D+00  1.49D+00  1.63D+00  2.24D+00
                    CP:  1.66D+00  1.24D+00
 E= -3010.54725218023     Delta-E=       -0.000000039847 Rises=F Damp=F
 DIIS: error= 1.40D-06 at cycle  13 NSaved=  13.
 NSaved=13 IEnMin=13 EnMin= -3010.54725218023     IErMin=13 ErrMin= 1.40D-06
 ErrMax= 1.40D-06  0.00D+00 EMaxC= 1.00D-01 BMatC= 6.52D-10 BMatP= 6.63D-09
 IDIUse=1 WtCom= 1.00D+00 WtEn= 0.00D+00
 Coeff-Com:  0.286D-04-0.399D-04-0.383D-04-0.124D-03-0.449D-03-0.886D-03
 Coeff-Com:  0.812D-03 0.716D-02 0.877D-02-0.222D-01-0.145D+00 0.258D-01
 Coeff-Com:  0.113D+01
 Coeff:      0.286D-04-0.399D-04-0.383D-04-0.124D-03-0.449D-03-0.886D-03
 Coeff:      0.812D-03 0.716D-02 0.877D-02-0.222D-01-0.145D+00 0.258D-01
 Coeff:      0.113D+01
 Gap=     0.246 Goal=   None    Shift=    0.000
 RMSDP=2.38D-06 MaxDP=1.60D-04 DE=-3.98D-08 OVMax= 9.48D-05

 Cycle  14  Pass 1  IDiag  1:
 RMSU=  7.22D-07    CP:  4.05D-01  3.00D+00  1.67D+00  7.06D-01  7.04D-01
                    CP:  1.10D+00  1.21D+00  1.50D+00  1.64D+00  2.31D+00
                    CP:  1.75D+00  1.52D+00  1.38D+00
 E= -3010.54725218643     Delta-E=       -0.000000006208 Rises=F Damp=F
 DIIS: error= 7.21D-07 at cycle  14 NSaved=  14.
 NSaved=14 IEnMin=14 EnMin= -3010.54725218643     IErMin=14 ErrMin= 7.21D-07
 ErrMax= 7.21D-07  0.00D+00 EMaxC= 1.00D-01 BMatC= 1.81D-10 BMatP= 6.52D-10
 IDIUse=1 WtCom= 1.00D+00 WtEn= 0.00D+00
 Coeff-Com:  0.295D-04-0.392D-04-0.954D-05-0.833D-04 0.104D-04-0.618D-04
 Coeff-Com: -0.212D-02-0.450D-02 0.264D-01 0.388D-01-0.149D+00-0.154D+00
 Coeff-Com:  0.435D+00 0.810D+00
 Coeff:      0.295D-04-0.392D-04-0.954D-05-0.833D-04 0.104D-04-0.618D-04
 Coeff:     -0.212D-02-0.450D-02 0.264D-01 0.388D-01-0.149D+00-0.154D+00
 Coeff:      0.435D+00 0.810D+00
 Gap=     0.246 Goal=   None    Shift=    0.000
 RMSDP=1.07D-06 MaxDP=9.23D-05 DE=-6.21D-09 OVMax= 3.46D-05

 Cycle  15  Pass 1  IDiag  1:
 RMSU=  2.01D-07    CP:  4.05D-01  3.00D+00  1.67D+00  7.06D-01  7.04D-01
                    CP:  1.10D+00  1.21D+00  1.50D+00  1.65D+00  2.34D+00
                    CP:  1.77D+00  1.64D+00  1.60D+00  1.17D+00
 E= -3010.54725218735     Delta-E=       -0.000000000911 Rises=F Damp=F
 DIIS: error= 3.12D-07 at cycle  15 NSaved=  15.
 NSaved=15 IEnMin=15 EnMin= -3010.54725218735     IErMin=15 ErrMin= 3.12D-07
 ErrMax= 3.12D-07  0.00D+00 EMaxC= 1.00D-01 BMatC= 2.31D-11 BMatP= 1.81D-10
 IDIUse=1 WtCom= 1.00D+00 WtEn= 0.00D+00
 Coeff-Com:  0.612D-05-0.788D-05 0.448D-05-0.305D-05 0.609D-04 0.125D-03
 Coeff-Com: -0.533D-03-0.177D-02 0.442D-02 0.119D-01-0.221D-02-0.382D-01
 Coeff-Com: -0.123D+00 0.179D+00 0.971D+00
 Coeff:      0.612D-05-0.788D-05 0.448D-05-0.305D-05 0.609D-04 0.125D-03
 Coeff:     -0.533D-03-0.177D-02 0.442D-02 0.119D-01-0.221D-02-0.382D-01
 Coeff:     -0.123D+00 0.179D+00 0.971D+00
 Gap=     0.246 Goal=   None    Shift=    0.000
 RMSDP=3.66D-07 MaxDP=2.35D-05 DE=-9.11D-10 OVMax= 1.25D-05

 Cycle  16  Pass 1  IDiag  1:
 RMSU=  9.52D-08    CP:  4.05D-01  3.00D+00  1.67D+00  7.06D-01  7.04D-01
                    CP:  1.10D+00  1.21D+00  1.50D+00  1.65D+00  2.34D+00
                    CP:  1.77D+00  1.67D+00  1.69D+00  1.27D+00  1.43D+00
 E= -3010.54725218756     Delta-E=       -0.000000000216 Rises=F Damp=F
 DIIS: error= 7.29D-08 at cycle  16 NSaved=  16.
 NSaved=16 IEnMin=16 EnMin= -3010.54725218756     IErMin=16 ErrMin= 7.29D-08
 ErrMax= 7.29D-08  0.00D+00 EMaxC= 1.00D-01 BMatC= 3.73D-12 BMatP= 2.31D-11
 IDIUse=1 WtCom= 1.00D+00 WtEn= 0.00D+00
 Coeff-Com:  0.296D-05-0.394D-05 0.374D-05 0.544D-05 0.372D-05 0.273D-04
 Coeff-Com:  0.111D-03 0.151D-03-0.250D-02-0.271D-02 0.171D-01 0.798D-02
 Coeff-Com: -0.774D-01-0.540D-01 0.208D+00 0.903D+00
 Coeff:      0.296D-05-0.394D-05 0.374D-05 0.544D-05 0.372D-05 0.273D-04
 Coeff:      0.111D-03 0.151D-03-0.250D-02-0.271D-02 0.171D-01 0.798D-02
 Coeff:     -0.774D-01-0.540D-01 0.208D+00 0.903D+00
 Gap=     0.246 Goal=   None    Shift=    0.000
 RMSDP=1.39D-07 MaxDP=1.14D-05 DE=-2.16D-10 OVMax= 5.83D-06

 Cycle  17  Pass 1  IDiag  1:
 RMSU=  3.71D-08    CP:  4.05D-01  3.00D+00  1.67D+00  7.06D-01  7.04D-01
                    CP:  1.10D+00  1.21D+00  1.50D+00  1.65D+00  2.35D+00
                    CP:  1.77D+00  1.69D+00  1.70D+00  1.33D+00  1.62D+00
                    CP:  1.02D+00
 E= -3010.54725218761     Delta-E=       -0.000000000046 Rises=F Damp=F
 DIIS: error= 5.56D-08 at cycle  17 NSaved=  17.
 NSaved=17 IEnMin=17 EnMin= -3010.54725218761     IErMin=17 ErrMin= 5.56D-08
 ErrMax= 5.56D-08  0.00D+00 EMaxC= 1.00D-01 BMatC= 9.82D-13 BMatP= 3.73D-12
 IDIUse=1 WtCom= 1.00D+00 WtEn= 0.00D+00
 Coeff-Com: -0.637D-06 0.802D-06 0.179D-06 0.290D-05-0.486D-05-0.373D-05
 Coeff-Com:  0.146D-03 0.390D-03-0.153D-02-0.278D-02 0.617D-02 0.887D-02
 Coeff-Com: -0.143D-03-0.522D-01-0.127D+00 0.309D+00 0.859D+00
 Coeff:     -0.637D-06 0.802D-06 0.179D-06 0.290D-05-0.486D-05-0.373D-05
 Coeff:      0.146D-03 0.390D-03-0.153D-02-0.278D-02 0.617D-02 0.887D-02
 Coeff:     -0.143D-03-0.522D-01-0.127D+00 0.309D+00 0.859D+00
 Gap=     0.246 Goal=   None    Shift=    0.000
 RMSDP=3.98D-08 MaxDP=1.77D-06 DE=-4.59D-11 OVMax= 1.92D-06

 Cycle  18  Pass 1  IDiag  1:
 RMSU=  1.59D-08    CP:  4.05D-01  3.00D+00  1.67D+00  7.06D-01  7.04D-01
                    CP:  1.10D+00  1.21D+00  1.50D+00  1.65D+00  2.35D+00
                    CP:  1.77D+00  1.69D+00  1.70D+00  1.35D+00  1.67D+00
                    CP:  1.16D+00  1.41D+00
 E= -3010.54725218760     Delta-E=        0.000000000010 Rises=F Damp=F
 DIIS: error= 1.84D-08 at cycle  18 NSaved=  18.
 NSaved=18 IEnMin=17 EnMin= -3010.54725218761     IErMin=18 ErrMin= 1.84D-08
 ErrMax= 1.84D-08  0.00D+00 EMaxC= 1.00D-01 BMatC= 1.63D-13 BMatP= 9.82D-13
 IDIUse=1 WtCom= 1.00D+00 WtEn= 0.00D+00
 Coeff-Com: -0.228D-06 0.302D-06-0.611D-06-0.125D-05-0.734D-06-0.660D-05
 Coeff-Com: -0.285D-04-0.315D-04 0.457D-03 0.458D-03-0.371D-02-0.116D-02
 Coeff-Com:  0.202D-01 0.552D-02-0.656D-01-0.171D+00 0.121D+00 0.109D+01
 Coeff:     -0.228D-06 0.302D-06-0.611D-06-0.125D-05-0.734D-06-0.660D-05
 Coeff:     -0.285D-04-0.315D-04 0.457D-03 0.458D-03-0.371D-02-0.116D-02
 Coeff:      0.202D-01 0.552D-02-0.656D-01-0.171D+00 0.121D+00 0.109D+01
 Gap=     0.246 Goal=   None    Shift=    0.000
 RMSDP=3.32D-08 MaxDP=2.14D-06 DE= 9.55D-12 OVMax= 1.26D-06

 Cycle  19  Pass 1  IDiag  1:
 RMSU=  7.75D-09    CP:  4.05D-01  3.00D+00  1.67D+00  7.06D-01  7.04D-01
                    CP:  1.10D+00  1.21D+00  1.50D+00  1.65D+00  2.35D+00
                    CP:  1.77D+00  1.69D+00  1.70D+00  1.34D+00  1.70D+00
                    CP:  1.17D+00  1.80D+00  1.52D+00
 E= -3010.54725218758     Delta-E=        0.000000000018 Rises=F Damp=F
 DIIS: error= 7.23D-09 at cycle  19 NSaved=  19.
 NSaved=19 IEnMin=17 EnMin= -3010.54725218761     IErMin=19 ErrMin= 7.23D-09
 ErrMax= 7.23D-09  0.00D+00 EMaxC= 1.00D-01 BMatC= 2.33D-14 BMatP= 1.63D-13
 IDIUse=1 WtCom= 1.00D+00 WtEn= 0.00D+00
 Coeff-Com:  0.532D-07-0.627D-07 0.521D-07-0.188D-06 0.666D-06-0.889D-07
 Coeff-Com: -0.233D-04-0.506D-04 0.224D-03 0.358D-03-0.899D-03-0.579D-03
 Coeff-Com: -0.142D-02 0.442D-02 0.251D-01-0.299D-01-0.120D+00-0.130D+00
 Coeff-Com:  0.125D+01
 Coeff:      0.532D-07-0.627D-07 0.521D-07-0.188D-06 0.666D-06-0.889D-07
 Coeff:     -0.233D-04-0.506D-04 0.224D-03 0.358D-03-0.899D-03-0.579D-03
 Coeff:     -0.142D-02 0.442D-02 0.251D-01-0.299D-01-0.120D+00-0.130D+00
 Coeff:      0.125D+01
 Gap=     0.246 Goal=   None    Shift=    0.000
 RMSDP=1.28D-08 MaxDP=7.83D-07 DE= 1.77D-11 OVMax= 5.61D-07

 Cycle  20  Pass 1  IDiag  1:
 RMSU=  3.42D-09    CP:  4.05D-01  3.00D+00  1.67D+00  7.06D-01  7.04D-01
                    CP:  1.10D+00  1.21D+00  1.50D+00  1.65D+00  2.35D+00
                    CP:  1.77D+00  1.69D+00  1.70D+00  1.35D+00  1.70D+00
                    CP:  1.15D+00  1.97D+00  1.81D+00  1.35D+00
 E= -3010.54725218759     Delta-E=       -0.000000000010 Rises=F Damp=F
 DIIS: error= 5.03D-09 at cycle  20 NSaved=  20.
 NSaved=20 IEnMin=17 EnMin= -3010.54725218761     IErMin=20 ErrMin= 5.03D-09
 ErrMax= 5.03D-09  0.00D+00 EMaxC= 1.00D-01 BMatC= 7.96D-15 BMatP= 2.33D-14
 IDIUse=1 WtCom= 1.00D+00 WtEn= 0.00D+00
 Large coefficients: NSaved= 20 BigCof=    0.00 CofMax=   10.00 Det=-1.21D-14
 Inversion failed.  Reducing to 19 matrices.
 Coeff-Com:  0.387D-08 0.139D-06 0.271D-06 0.479D-06 0.111D-05-0.285D-05
 Coeff-Com: -0.778D-05-0.990D-05 0.149D-04 0.316D-03 0.207D-03-0.452D-02
 Coeff-Com: -0.192D-03 0.243D-01 0.247D-01-0.646D-01-0.296D+00 0.462D+00
 Coeff-Com:  0.854D+00
 Coeff:      0.387D-08 0.139D-06 0.271D-06 0.479D-06 0.111D-05-0.285D-05
 Coeff:     -0.778D-05-0.990D-05 0.149D-04 0.316D-03 0.207D-03-0.452D-02
 Coeff:     -0.192D-03 0.243D-01 0.247D-01-0.646D-01-0.296D+00 0.462D+00
 Coeff:      0.854D+00
 Gap=     0.246 Goal=   None    Shift=    0.000
 RMSDP=5.15D-09 MaxDP=1.85D-07 DE=-1.05D-11 OVMax= 2.07D-07

 SCF Done:  E(RwB97XD) =  -3010.54725219     A.U. after   20 cycles
            NFock= 20  Conv=0.51D-08     -V/T= 2.0016
 KE= 3.005827937743D+03 PE=-8.630147757476D+03 EE= 1.876000199289D+03
 Leave Link  502 at Wed May  1 15:09:24 2024, MaxMem=  1207959552 cpu:            1112.6 elap:            1112.9
 (Enter /software/gaussian/g16-c01/sse4/g16/l601.exe)
 Copying SCF densities to generalized density rwf, IOpCl= 0 IROHF=0.

 **********************************************************************

            Population analysis using the SCF Density.

 **********************************************************************

 Alpha  occ. eigenvalues -- -483.29244 -62.84242 -56.63959 -56.63354 -56.63351
 Alpha  occ. eigenvalues --  -19.45470 -19.45335 -14.84891 -10.57430 -10.56447
 Alpha  occ. eigenvalues --  -10.56446 -10.56393 -10.55951 -10.53277  -9.00028
 Alpha  occ. eigenvalues --   -6.82769  -6.80796  -6.80778  -2.92658  -2.92136
 Alpha  occ. eigenvalues --   -2.92120  -2.90543  -2.90543  -1.49181  -1.32167
 Alpha  occ. eigenvalues --   -1.21903  -1.13019  -1.11297  -1.02748  -1.00539
 Alpha  occ. eigenvalues --   -0.94677  -0.90361  -0.84928  -0.80352  -0.80025
 Alpha  occ. eigenvalues --   -0.79472  -0.77633  -0.75581  -0.75258  -0.71463
 Alpha  occ. eigenvalues --   -0.68689  -0.67021  -0.62894  -0.59125  -0.56716
 Alpha  occ. eigenvalues --   -0.55732  -0.55103  -0.53935  -0.53332
 Alpha virt. eigenvalues --   -0.28743  -0.20657  -0.14877  -0.12945  -0.11940
 Alpha virt. eigenvalues --   -0.08920  -0.06711  -0.05802  -0.04990  -0.03408
 Alpha virt. eigenvalues --   -0.01844  -0.01230  -0.01073  -0.00091   0.00431
 Alpha virt. eigenvalues --    0.01823   0.02404   0.03316   0.03648   0.04235
 Alpha virt. eigenvalues --    0.04902   0.05779   0.06046   0.06354   0.06804
 Alpha virt. eigenvalues --    0.07848   0.07930   0.08143   0.08584   0.09471
 Alpha virt. eigenvalues --    0.10870   0.11502   0.11586   0.12613   0.12995
 Alpha virt. eigenvalues --    0.13759   0.14238   0.14760   0.15736   0.16377
 Alpha virt. eigenvalues --    0.16778   0.17440   0.18742   0.19125   0.20851
 Alpha virt. eigenvalues --    0.21235   0.21994   0.22369   0.23487   0.25309
 Alpha virt. eigenvalues --    0.26296   0.28403   0.28632   0.31658   0.32396
 Alpha virt. eigenvalues --    0.34088   0.34522   0.35830   0.36187   0.37383
 Alpha virt. eigenvalues --    0.37602   0.38091   0.40123   0.41944   0.42656
 Alpha virt. eigenvalues --    0.43660   0.43925   0.45025   0.46677   0.47657
 Alpha virt. eigenvalues --    0.48408   0.51201   0.51783   0.52751   0.53773
 Alpha virt. eigenvalues --    0.55554   0.55996   0.57453   0.58330   0.59449
 Alpha virt. eigenvalues --    0.61532   0.63540   0.65796   0.67763   0.69740
 Alpha virt. eigenvalues --    0.70517   0.71338   0.72426   0.73953   0.74290
 Alpha virt. eigenvalues --    0.75656   0.79396   0.80899   0.84679   0.85890
 Alpha virt. eigenvalues --    0.87184   0.88301   0.92508   0.93768   0.98819
 Alpha virt. eigenvalues --    1.00266   1.01231   1.05294   1.05862   1.07204
 Alpha virt. eigenvalues --    1.09993   1.10984   1.12295   1.12928   1.14970
 Alpha virt. eigenvalues --    1.22519   1.25046   1.27229   1.33295   1.36963
 Alpha virt. eigenvalues --    1.37298   1.39106   1.46015   1.54897   1.57555
 Alpha virt. eigenvalues --    1.58931   1.59464   1.61020   1.63105   1.66963
 Alpha virt. eigenvalues --    1.69619   1.70477   1.73869   1.75747   1.79430
 Alpha virt. eigenvalues --    1.81751   1.85449   1.87901   1.95326   1.97447
 Alpha virt. eigenvalues --    1.99036   2.03400   2.04399   2.08046   2.09021
 Alpha virt. eigenvalues --    2.11000   2.15225   2.20502   2.22865   2.28423
 Alpha virt. eigenvalues --    2.38003   2.41869   2.43227   2.44681   2.52802
 Alpha virt. eigenvalues --    2.57105   2.63346   2.66506   2.68698   2.71923
 Alpha virt. eigenvalues --    2.74120   2.76985   2.77685   2.81418   2.82454
 Alpha virt. eigenvalues --    2.94343   2.97194   3.01100   3.06768   3.09514
 Alpha virt. eigenvalues --    3.13328   3.14722   3.19000   3.23825   3.24997
 Alpha virt. eigenvalues --    3.27767   3.39538   3.47471   3.51601   3.55112
 Alpha virt. eigenvalues --    3.57453   3.70412   3.74552   3.82587   3.87742
 Alpha virt. eigenvalues --    4.11104   4.11315   4.18635   4.23928   4.44664
 Alpha virt. eigenvalues --    4.44791   4.58043   4.60327   4.93546   4.96310
 Alpha virt. eigenvalues --    5.04877   5.09111   5.63251   6.16180   6.66778
 Alpha virt. eigenvalues --    7.49777   7.51360   7.61043  23.21769  23.61752
 Alpha virt. eigenvalues --   23.71133  23.79650  23.96181  24.01862  35.33066
 Alpha virt. eigenvalues --   47.93216  49.85986  49.94793 289.82514 289.84181
 Alpha virt. eigenvalues --  289.966011020.93593
          Condensed to atoms (all electrons):
               1          2          3          4          5          6
     1  C    9.781021  -3.364932   0.632471  -2.113812  -0.659395   0.299549
     2  C   -3.364932  14.590336  -2.501092  -1.660435   0.761120  -0.017721
     3  C    0.632471  -2.501092  14.439012  -4.374829  -1.703085   0.018955
     4  C   -2.113812  -1.660435  -4.374829  15.808844   1.868145   0.015588
     5  C   -0.659395   0.761120  -1.703085   1.868145   7.793443   0.035570
     6  H    0.299549  -0.017721   0.018955   0.015588   0.035570   0.390997
     7  H    0.091206   0.188330   0.120089  -0.046018  -0.028315  -0.002739
     8  H    0.001384   0.001875   0.048794   0.277776  -0.014888  -0.000001
     9  H    0.014903  -0.004415   0.000556   0.007088   0.303554  -0.002619
    10  N   -0.234209   0.438647  -0.993211   0.369304   0.025039  -0.000701
    11  O   -0.004984  -0.050947  -0.272158   0.040548  -0.050491  -0.000022
    12  O    0.381255  -0.101852  -0.277956  -0.100621  -0.049023   0.000026
    13  C    1.729343  -2.821671   1.514564  -4.344235  -2.322606  -0.015385
    14  H   -0.005482  -0.022497   0.021641  -0.135503  -0.032623  -0.000082
    15  Br   0.049954  -0.024150   0.116576   0.046707   0.118426  -0.000395
               7          8          9         10         11         12
     1  C    0.091206   0.001384   0.014903  -0.234209  -0.004984   0.381255
     2  C    0.188330   0.001875  -0.004415   0.438647  -0.050947  -0.101852
     3  C    0.120089   0.048794   0.000556  -0.993211  -0.272158  -0.277956
     4  C   -0.046018   0.277776   0.007088   0.369304   0.040548  -0.100621
     5  C   -0.028315  -0.014888   0.303554   0.025039  -0.050491  -0.049023
     6  H   -0.002739  -0.000001  -0.002619  -0.000701  -0.000022   0.000026
     7  H    0.345381   0.000001  -0.000008  -0.032110  -0.001914   0.026653
     8  H    0.000001   0.263153   0.000122  -0.019917   0.019136  -0.000536
     9  H   -0.000008   0.000122   0.336010   0.000446   0.000009   0.000005
    10  N   -0.032110  -0.019917   0.000446   7.367889   0.234789   0.100219
    11  O   -0.001914   0.019136   0.000009   0.234789   7.724577  -0.000129
    12  O    0.026653  -0.000536   0.000005   0.100219  -0.000129   8.004607
    13  C    0.021501   0.010857   0.005161  -0.151272   0.265605   0.058588
    14  H   -0.000015  -0.003173  -0.005900  -0.000281  -0.000342  -0.000058
    15  Br  -0.000153   0.001545  -0.002408  -0.000953   0.000687   0.001991
              13         14         15
     1  C    1.729343  -0.005482   0.049954
     2  C   -2.821671  -0.022497  -0.024150
     3  C    1.514564   0.021641   0.116576
     4  C   -4.344235  -0.135503   0.046707
     5  C   -2.322606  -0.032623   0.118426
     6  H   -0.015385  -0.000082  -0.000395
     7  H    0.021501  -0.000015  -0.000153
     8  H    0.010857  -0.003173   0.001545
     9  H    0.005161  -0.005900  -0.002408
    10  N   -0.151272  -0.000281  -0.000953
    11  O    0.265605  -0.000342   0.000687
    12  O    0.058588  -0.000058   0.001991
    13  C   12.204541   0.469792  -0.122324
    14  H    0.469792   0.310545  -0.031735
    15  Br  -0.122324  -0.031735  34.584111
 Mulliken charges:
               1
     1  C   -0.598273
     2  C    0.589403
     3  C   -0.790328
     4  C    0.341452
     5  C   -0.044870
     6  H    0.278979
     7  H    0.318110
     8  H    0.413871
     9  H    0.347494
    10  N   -0.103680
    11  O    0.095637
    12  O   -0.043168
    13  C   -0.502462
    14  H    0.435713
    15  Br   0.262121
 Sum of Mulliken charges =   1.00000
 Mulliken charges with hydrogens summed into heavy atoms:
               1
     1  C   -0.319294
     2  C    0.907513
     3  C   -0.790328
     4  C    0.755324
     5  C    0.302625
    10  N   -0.103680
    11  O    0.095637
    12  O   -0.043168
    13  C   -0.066749
    15  Br   0.262121
 Electronic spatial extent (au):  <R**2>=           2797.0520
 Charge=              1.0000 electrons
 Dipole moment (field-independent basis, Debye):
    X=             -1.2365    Y=             -4.2252    Z=             -0.5088  Tot=              4.4317
 Quadrupole moment (field-independent basis, Debye-Ang):
   XX=            -71.8980   YY=            -50.5801   ZZ=            -61.5992
   XY=             -2.7386   XZ=              1.5226   YZ=              3.3320
 Traceless Quadrupole moment (field-independent basis, Debye-Ang):
   XX=            -10.5389   YY=             10.7790   ZZ=             -0.2401
   XY=             -2.7386   XZ=              1.5226   YZ=              3.3320
 Octapole moment (field-independent basis, Debye-Ang**2):
  XXX=           -303.2739  YYY=             65.9905  ZZZ=             74.2147  XYY=            -78.8608
  XXY=             10.6546  XXZ=             31.7589  XZZ=            -79.2949  YZZ=             10.3068
  YYZ=             20.4198  XYZ=             -4.1929
 Hexadecapole moment (field-independent basis, Debye-Ang**3):
 XXXX=          -2293.6035 YYYY=           -660.3076 ZZZZ=           -339.5091 XXXY=           -135.7049
 XXXZ=            -20.0273 YYYX=            -72.2933 YYYZ=           -140.6493 ZZZX=            -15.9307
 ZZZY=           -125.7284 XXYY=           -458.0691 XXZZ=           -369.7050 YYZZ=           -152.5551
 XXYZ=            -51.5403 YYXZ=              1.1055 ZZXY=             -8.8527
 N-N= 7.377723682560D+02 E-N=-8.630147757797D+03  KE= 3.005827937743D+03
 No NMR shielding tensors so no spin-rotation constants.
 Leave Link  601 at Wed May  1 15:09:31 2024, MaxMem=  1207959552 cpu:               7.5 elap:               7.6
 (Enter /software/gaussian/g16-c01/sse4/g16/l9999.exe)
 Unable to Open any file for archive entry.
 1\1\GINC-BHX0010\SP\RwB97XD\6-311+G(d)\C6H5Br1N1O2(1+)\BWEIGHT\01-May-
 2024\0\\#P wB97XD/6-311+G* NoSymm #P Field=Y+126\\TitleMe\\1,1\C,0,0.0
 295,1.3397,0.0682\C,0,1.4348,1.2867,0.0064\C,0,2.1118,0.0511,-0.0054\C
 ,0,1.4451,-1.1372,0.0312\C,0,-0.6879,0.1682,0.11\H,0,-0.4713,2.2984,0.
 0781\H,0,2.0273,2.1965,-0.0322\H,0,1.9897,-2.0764,0.0232\H,0,-1.7716,0
 .1804,0.1582\N,0,3.5864,0.051,-0.0675\O,0,4.1471,-1.0597,-0.0881\O,0,4
 .145,1.1639,-0.0901\C,0,-0.0236,-1.1458,0.0835\H,0,-0.4367,-1.8725,0.7
 889\Br,0,-0.5359,-1.8697,-1.7408\\Version=ES64L-G16RevC.01\HF=-3010.54
 72522\RMSD=5.148e-09\Dipole=-2.3930001,-0.5142213,0.9459944\Quadrupole
 =-7.8354201,8.0139323,-0.1785122,-2.0360681,1.132015,2.4772942\PG=C01 
 [X(C6H5Br1N1O2)]\\@
 The archive entry for this job was punched.


 ALL SCIENCE IS EITHER PHYSICS, OR STAMP COLLECTING.
   --ERNEST RUTHERFORD, 1871-1937.
 Job cpu time:       0 days  0 hours 19 minutes 38.9 seconds.
 Elapsed time:       0 days  0 hours 19 minutes 39.2 seconds.
 File lengths (MBytes):  RWF=     40 Int=      0 D2E=      0 Chk=     32 Scr=      1
 Normal termination of Gaussian 16 at Wed May  1 15:09:32 2024.
