 Entering Gaussian System, Link 0=g16
 Initial command:
 /software/gaussian/g16-c01/sse4/g16/l1.exe "/local_scratch/24665391/Gau-7769.inp" -scrdir="/local_scratch/24665391/"
 Entering Link 1 = /software/gaussian/g16-c01/sse4/g16/l1.exe PID=      7804.
  
 Copyright (c) 1988-2019, Gaussian, Inc.  All Rights Reserved.
  
 This is part of the Gaussian(R) 16 program.  It is based on
 the Gaussian(R) 09 system (copyright 2009, Gaussian, Inc.),
 the Gaussian(R) 03 system (copyright 2003, Gaussian, Inc.),
 the Gaussian(R) 98 system (copyright 1998, Gaussian, Inc.),
 the Gaussian(R) 94 system (copyright 1995, Gaussian, Inc.),
 the Gaussian 92(TM) system (copyright 1992, Gaussian, Inc.),
 the Gaussian 90(TM) system (copyright 1990, Gaussian, Inc.),
 the Gaussian 88(TM) system (copyright 1988, Gaussian, Inc.),
 the Gaussian 86(TM) system (copyright 1986, Carnegie Mellon
 University), and the Gaussian 82(TM) system (copyright 1983,
 Carnegie Mellon University). Gaussian is a federally registered
 trademark of Gaussian, Inc.
  
 This software contains proprietary and confidential information,
 including trade secrets, belonging to Gaussian, Inc.
  
 This software is provided under written license and may be
 used, copied, transmitted, or stored only in accord with that
 written license.
  
 The following legend is applicable only to US Government
 contracts under FAR:
  
                    RESTRICTED RIGHTS LEGEND
  
 Use, reproduction and disclosure by the US Government is
 subject to restrictions as set forth in subparagraphs (a)
 and (c) of the Commercial Computer Software - Restricted
 Rights clause in FAR 52.227-19.
  
 Gaussian, Inc.
 340 Quinnipiac St., Bldg. 40, Wallingford CT 06492
  
  
 ---------------------------------------------------------------
 Warning -- This program may not be used in any manner that
 competes with the business of Gaussian, Inc. or will provide
 assistance to any competitor of Gaussian, Inc.  The licensee
 of this program is prohibited from giving any competitor of
 Gaussian, Inc. access to this program.  By using this program,
 the user acknowledges that Gaussian, Inc. is engaged in the
 business of creating and licensing software in the field of
 computational chemistry and represents and warrants to the
 licensee that it is not a competitor of Gaussian, Inc. and that
 it will not use this program in any manner prohibited above.
 ---------------------------------------------------------------
  

 Cite this work as:
 Gaussian 16, Revision C.01,
 M. J. Frisch, G. W. Trucks, H. B. Schlegel, G. E. Scuseria, 
 M. A. Robb, J. R. Cheeseman, G. Scalmani, V. Barone, 
 G. A. Petersson, H. Nakatsuji, X. Li, M. Caricato, A. V. Marenich, 
 J. Bloino, B. G. Janesko, R. Gomperts, B. Mennucci, H. P. Hratchian, 
 J. V. Ortiz, A. F. Izmaylov, J. L. Sonnenberg, D. Williams-Young, 
 F. Ding, F. Lipparini, F. Egidi, J. Goings, B. Peng, A. Petrone, 
 T. Henderson, D. Ranasinghe, V. G. Zakrzewski, J. Gao, N. Rega, 
 G. Zheng, W. Liang, M. Hada, M. Ehara, K. Toyota, R. Fukuda, 
 J. Hasegawa, M. Ishida, T. Nakajima, Y. Honda, O. Kitao, H. Nakai, 
 T. Vreven, K. Throssell, J. A. Montgomery, Jr., J. E. Peralta, 
 F. Ogliaro, M. J. Bearpark, J. J. Heyd, E. N. Brothers, K. N. Kudin, 
 V. N. Staroverov, T. A. Keith, R. Kobayashi, J. Normand, 
 K. Raghavachari, A. P. Rendell, J. C. Burant, S. S. Iyengar, 
 J. Tomasi, M. Cossi, J. M. Millam, M. Klene, C. Adamo, R. Cammi, 
 J. W. Ochterski, R. L. Martin, K. Morokuma, O. Farkas, 
 J. B. Foresman, and D. J. Fox, Gaussian, Inc., Wallingford CT, 2019.
 
 ******************************************
 Gaussian 16:  ES64L-G16RevC.01  3-Jul-2019
                 2-May-2024 
 ******************************************
 %chk=geometry.chk
 %mem=1GB
 %nprocshared=12
 Will use up to   12 processors via shared memory.
 ---------------------------------------
 #P wB97XD/6-311+G* NoSymm #P Field=Z+77
 ---------------------------------------
 1/38=1,172=1/1;
 2/12=2,15=1,17=6,18=5,40=1/2;
 3/5=4,6=6,7=11,11=2,14=3,15=77,25=1,30=1,74=-58/1,2,3;
 4//1;
 5/5=2,38=5/2;
 6/7=2,8=2,9=2,10=2,28=1/1;
 99/5=1,9=1/99;
 Leave Link    1 at Thu May  2 13:58:19 2024, MaxMem=   134217728 cpu:               1.7 elap:               1.7
 (Enter /software/gaussian/g16-c01/sse4/g16/l101.exe)
 -------
 TitleMe
 -------
 Symbolic Z-matrix:
 Charge =  1 Multiplicity = 1
 C                     0.5193    1.233    -0.0319 
 C                     1.9445    1.2692   -0.0367 
 C                     2.6204    0.0928   -0.025 
 C                    -0.196     0.0301    0.001 
 H                    -0.0207    2.1742   -0.0434 
 H                     2.4828    2.2089   -0.0361 
 H                    -1.2777    0.0399    0.0117 
 N                     4.0921    0.0959    0.0366 
 O                     4.6393   -1.0217    0.1446 
 O                     4.6649    1.1984   -0.0233 
 C                     0.4943   -1.1671    0.021 
 H                    -0.0325   -2.1149    0.0545 
 C                     1.9629   -1.2165   -0.0211 
 H                     2.4436   -1.9631    0.6151 
 Br                    2.173    -1.9491   -1.9062 
 
 ITRead=  0  0  0  0  0  0  0  0  0  0  0  0  0  0  0
 MicOpt= -1 -1 -1 -1 -1 -1 -1 -1 -1 -1 -1 -1 -1 -1 -1
 NAtoms=     15 NQM=       15 NQMF=       0 NMMI=      0 NMMIF=      0
                NMic=       0 NMicF=      0.
                    Isotopes and Nuclear Properties:
 (Nuclear quadrupole moments (NQMom) in fm**2, nuclear magnetic moments (NMagM)
  in nuclear magnetons)

  Atom         1           2           3           4           5           6           7           8           9          10
 IAtWgt=          12          12          12          12           1           1           1          14          16          16
 AtmWgt=  12.0000000  12.0000000  12.0000000  12.0000000   1.0078250   1.0078250   1.0078250  14.0030740  15.9949146  15.9949146
 NucSpn=           0           0           0           0           1           1           1           2           0           0
 AtZEff=  -0.0000000  -0.0000000  -0.0000000  -0.0000000  -0.0000000  -0.0000000  -0.0000000  -0.0000000  -0.0000000  -0.0000000
 NQMom=    0.0000000   0.0000000   0.0000000   0.0000000   0.0000000   0.0000000   0.0000000   2.0440000   0.0000000   0.0000000
 NMagM=    0.0000000   0.0000000   0.0000000   0.0000000   2.7928460   2.7928460   2.7928460   0.4037610   0.0000000   0.0000000
 AtZNuc=   6.0000000   6.0000000   6.0000000   6.0000000   1.0000000   1.0000000   1.0000000   7.0000000   8.0000000   8.0000000

  Atom        11          12          13          14          15
 IAtWgt=          12           1          12           1          79
 AtmWgt=  12.0000000   1.0078250  12.0000000   1.0078250  78.9183361
 NucSpn=           0           1           0           1           3
 AtZEff=  -0.0000000  -0.0000000  -0.0000000  -0.0000000  -0.0000000
 NQMom=    0.0000000   0.0000000   0.0000000   0.0000000  31.3000000
 NMagM=    0.0000000   2.7928460   0.0000000   2.7928460   2.1063990
 AtZNuc=   6.0000000   1.0000000   6.0000000   1.0000000  35.0000000
 Leave Link  101 at Thu May  2 13:58:21 2024, MaxMem=   134217728 cpu:               1.8 elap:               1.8
 (Enter /software/gaussian/g16-c01/sse4/g16/l202.exe)
                          Input orientation:                          
 ---------------------------------------------------------------------
 Center     Atomic      Atomic             Coordinates (Angstroms)
 Number     Number       Type             X           Y           Z
 ---------------------------------------------------------------------
      1          6           0        0.519300    1.233000   -0.031900
      2          6           0        1.944500    1.269200   -0.036700
      3          6           0        2.620400    0.092800   -0.025000
      4          6           0       -0.196000    0.030100    0.001000
      5          1           0       -0.020700    2.174200   -0.043400
      6          1           0        2.482800    2.208900   -0.036100
      7          1           0       -1.277700    0.039900    0.011700
      8          7           0        4.092100    0.095900    0.036600
      9          8           0        4.639300   -1.021700    0.144600
     10          8           0        4.664900    1.198400   -0.023300
     11          6           0        0.494300   -1.167100    0.021000
     12          1           0       -0.032500   -2.114900    0.054500
     13          6           0        1.962900   -1.216500   -0.021100
     14          1           0        2.443600   -1.963100    0.615100
     15         35           0        2.173000   -1.949100   -1.906200
 ---------------------------------------------------------------------
                    Distance matrix (angstroms):
                    1          2          3          4          5
     1  C    0.000000
     2  C    1.425668   0.000000
     3  C    2.390549   1.356796   0.000000
     4  C    1.399895   2.473566   2.817218   0.000000
     5  H    1.085168   2.163581   3.362733   2.151712   0.000000
     6  H    2.192654   1.082960   2.120598   3.453189   2.503751
     7  H    2.157452   3.449071   3.898632   1.081797   2.477564
     8  N    3.750012   2.448304   1.472992   4.288753   4.608780
     9  O    4.699917   3.541615   2.312322   4.950458   5.653735
    10  O    4.145753   2.721354   2.324292   4.999386   4.786171
    11  C    2.400813   2.835836   2.471794   1.382101   3.381369
    12  H    3.394169   3.920329   3.452266   2.151887   4.290233
    13  C    2.843264   2.485817   1.465124   2.493060   3.928360
    14  H    3.786370   3.334922   2.160489   3.364142   4.860416
    15  Br   4.046416   3.728900   2.812194   3.628609   5.028314
                    6          7          8          9         10
     6  H    0.000000
     7  H    4.341452   0.000000
     8  N    2.657047   5.370150   0.000000
     9  O    3.888434   6.012948   1.249048   0.000000
    10  O    2.404752   6.054572   1.243863   2.226587   0.000000
    11  C    3.918516   2.144043   3.813080   4.149391   4.794941
    12  H    5.003018   2.489080   4.679774   4.798846   5.748876
    13  C    3.464662   3.475788   2.501842   2.688591   3.623886
    14  H    4.222698   4.268978   2.700314   2.434893   3.916224
    15  Br   4.569706   4.420610   3.411663   3.338935   4.434144
                   11         12         13         14         15
    11  C    0.000000
    12  H    1.084880   0.000000
    13  C    1.470034   2.189625   0.000000
    14  H    2.187771   2.543302   1.092353   0.000000
    15  Br   2.672762   2.955683   2.033334   2.535818   0.000000
 Symmetry turned off by external request.
 Stoichiometry    C6H5BrNO2(1+)
 Framework group  C1[X(C6H5BrNO2)]
 Deg. of freedom    39
 Full point group                 C1      NOp   1
 Rotational constants (GHZ):           1.1632986           0.9594224           0.5957624
 Leave Link  202 at Thu May  2 13:58:23 2024, MaxMem=   134217728 cpu:               1.3 elap:               1.3
 (Enter /software/gaussian/g16-c01/sse4/g16/l301.exe)
 Standard basis: 6-311+G(d) (5D, 7F)
 Ernie: Thresh=  0.10000D-02 Tol=  0.10000D-05 Strict=F.
 The following finite field(s) will be applied:
 An electric field of              0.0000  0.0000  0.0077
   261 basis functions,   443 primitive gaussians,   273 cartesian basis functions
    49 alpha electrons       49 beta electrons
       nuclear repulsion energy       772.8945969580 Hartrees.
 IExCor= 4639 DFT=T Ex+Corr=wB97XD ExCW=0 ScaHFX=  1.000000
 ScaDFX=  1.000000  1.000000  1.000000  1.000000 ScalE2=  1.000000  1.000000
 IRadAn=      5 IRanWt=     -1 IRanGd=            0 ICorTp=0 IEmpDi=121
 HFx  wShort=  0.000000 wLong=  0.200000 cFull=  0.222036 cShort=  0.000000 cLong=  0.777964
 DFx  wShort=  0.000000 wLong=  0.200000 cFull=  0.000000 cShort=  0.000000 cLong=  1.000000
 NAtoms=   15 NActive=   15 NUniq=   15 SFac= 1.00D+00 NAtFMM=   60 NAOKFM=F Big=F
 Integral buffers will be    131072 words long.
 Raffenetti 2 integral format.
 Two-electron integral symmetry is turned off.
 R6Disp:  Grimme-D2 Dispersion energy=       -0.0080346408 Hartrees.
 Nuclear repulsion after empirical dispersion term =      772.8865623173 Hartrees.
 Leave Link  301 at Thu May  2 13:58:24 2024, MaxMem=   134217728 cpu:               0.9 elap:               0.9
 (Enter /software/gaussian/g16-c01/sse4/g16/l302.exe)
 NPDir=0 NMtPBC=     1 NCelOv=     1 NCel=       1 NClECP=     1 NCelD=      1
         NCelK=      1 NCelE2=     1 NClLst=     1 CellRange=     0.0.
 One-electron integrals computed using PRISM.
 NBasis=   261 RedAO= T EigKep=  2.52D-06  NBF=   261
 NBsUse=   261 1.00D-06 EigRej= -1.00D+00 NBFU=   261
 Precomputing XC quadrature grid using
 IXCGrd= 4 IRadAn=           5 IRanWt=          -1 IRanGd=           0 AccXCQ= 0.00D+00.
 Generated NRdTot=       0 NPtTot=           0 NUsed=           0 NTot=          32
 NSgBfM=   273   273   273   273   273 MxSgAt=    15 MxSgA2=    15.
 Leave Link  302 at Thu May  2 13:58:46 2024, MaxMem=   134217728 cpu:              21.8 elap:              21.8
 (Enter /software/gaussian/g16-c01/sse4/g16/l303.exe)
 DipDrv:  MaxL=1.
 The nuclear repulsion energy is now       771.9342821556 hartrees.
 Leave Link  303 at Thu May  2 13:58:49 2024, MaxMem=   134217728 cpu:               3.2 elap:               3.2
 (Enter /software/gaussian/g16-c01/sse4/g16/l401.exe)
 ExpMin= 3.50D-02 ExpMax= 4.40D+05 ExpMxC= 1.51D+04 IAcc=3 IRadAn=         5 AccDes= 0.00D+00
 Harris functional with IExCor= 4639 and IRadAn=       5 diagonalized for initial guess.
 HarFok:  IExCor= 4639 AccDes= 0.00D+00 IRadAn=         5 IDoV= 1 UseB2=F ITyADJ=14
 ICtDFT=  3500011 ScaDFX=  1.000000  1.000000  1.000000  1.000000
 FoFCou: FMM=F IPFlag=           0 FMFlag=      100000 FMFlg1=           0
         NFxFlg=           0 DoJE=T BraDBF=F KetDBF=T FulRan=T
         wScrn=  0.000000 ICntrl=       500 IOpCl=  0 I1Cent=   200000004 NGrid=           0
         NMat0=    1 NMatS0=      1 NMatT0=    0 NMatD0=    1 NMtDS0=    0 NMtDT0=    0
 Symmetry not used in FoFCou.
 Harris En= -2970.60419412056    
 JPrj=0 DoOrth=F DoCkMO=F.
 Leave Link  401 at Thu May  2 13:59:20 2024, MaxMem=   134217728 cpu:              31.2 elap:              31.2
 (Enter /software/gaussian/g16-c01/sse4/g16/l502.exe)
 Two-electron integral symmetry not used.
 Closed shell SCF:
 Using DIIS extrapolation, IDIIS=  1040.
 NGot=   134217728 LenX=   134063053 LenY=   133988083
 Requested convergence on RMS density matrix=1.00D-08 within 128 cycles.
 Requested convergence on MAX density matrix=1.00D-06.
 Requested convergence on             energy=1.00D-06.
 No special actions if energy rises.
 Fock matrices will be formed incrementally for  20 cycles.

 Cycle   1  Pass 1  IDiag  1:
 FoFJK:  IHMeth= 1 ICntrl=       0 DoSepK=T KAlg= 0 I1Cent=           0 FoldK=F
 IRaf=         1 NMat=       1 IRICut=       1 DoRegI=T DoRafI=F ISym2E= 0 IDoP0=0 IntGTp=1.
 FoFCou: FMM=F IPFlag=           0 FMFlag=      100000 FMFlg1=           0
         NFxFlg=           0 DoJE=T BraDBF=F KetDBF=F FulRan=T
         wScrn=  0.000000 ICntrl=       500 IOpCl=  0 I1Cent=           0 NGrid=           0
         NMat0=    1 NMatS0=      1 NMatT0=    0 NMatD0=    1 NMtDS0=    0 NMtDT0=    0
 Symmetry not used in FoFCou.
 E= -3009.69496955416    
 DIIS: error= 2.91D-01 at cycle   1 NSaved=   1.
 NSaved= 1 IEnMin= 1 EnMin= -3009.69496955416     IErMin= 1 ErrMin= 2.91D-01
 ErrMax= 2.91D-01  0.00D+00 EMaxC= 1.00D-01 BMatC= 1.20D+01 BMatP= 1.20D+01
 IDIUse=3 WtCom= 0.00D+00 WtEn= 1.00D+00
 Coeff-Com:  0.100D+01
 Coeff-En:   0.100D+01
 Coeff:      0.100D+01
 Gap=     0.317 Goal=   None    Shift=    0.000
 GapD=    0.317 DampG=1.000 DampE=0.250 DampFc=0.2500 IDamp=-1.
 Damping current iteration by 2.50D-01
 RMSDP=6.79D-02 MaxDP=7.79D+00              OVMax= 2.61D-01

 Cycle   2  Pass 1  IDiag  1:
 RMSU=  6.40D-03    CP:  8.87D-01
 E= -3009.99035098654     Delta-E=       -0.295381432386 Rises=F Damp=T
 DIIS: error= 2.19D-01 at cycle   2 NSaved=   2.
 NSaved= 2 IEnMin= 2 EnMin= -3009.99035098654     IErMin= 2 ErrMin= 2.19D-01
 ErrMax= 2.19D-01  0.00D+00 EMaxC= 1.00D-01 BMatC= 5.46D+00 BMatP= 1.20D+01
 IDIUse=3 WtCom= 0.00D+00 WtEn= 1.00D+00
 Coeff-Com: -0.182D+01 0.282D+01
 Coeff-En:   0.000D+00 0.100D+01
 Coeff:      0.000D+00 0.100D+01
 Gap=     0.269 Goal=   None    Shift=    0.000
 RMSDP=5.04D-02 MaxDP=6.19D+00 DE=-2.95D-01 OVMax= 7.50D-02

 Cycle   3  Pass 1  IDiag  1:
 RMSU=  4.81D-03    CP:  5.40D-01  3.00D+00
 E= -3010.37550542326     Delta-E=       -0.385154436720 Rises=F Damp=F
 DIIS: error= 6.64D-02 at cycle   3 NSaved=   3.
 NSaved= 3 IEnMin= 3 EnMin= -3010.37550542326     IErMin= 3 ErrMin= 6.64D-02
 ErrMax= 6.64D-02  0.00D+00 EMaxC= 1.00D-01 BMatC= 7.50D-01 BMatP= 5.46D+00
 IDIUse=3 WtCom= 3.36D-01 WtEn= 6.64D-01
 Coeff-Com:  0.260D+01-0.341D+01 0.181D+01
 Coeff-En:   0.468D-01 0.000D+00 0.953D+00
 Coeff:      0.907D+00-0.115D+01 0.124D+01
 Gap=     0.265 Goal=   None    Shift=    0.000
 RMSDP=1.43D-02 MaxDP=1.29D+00 DE=-3.85D-01 OVMax= 8.64D-02

 Cycle   4  Pass 1  IDiag  1:
 RMSU=  4.15D-03    CP:  6.10D-01  1.69D+00  1.96D+00
 E= -3010.49019443128     Delta-E=       -0.114689008020 Rises=F Damp=F
 DIIS: error= 3.71D-02 at cycle   4 NSaved=   4.
 NSaved= 4 IEnMin= 4 EnMin= -3010.49019443128     IErMin= 4 ErrMin= 3.71D-02
 ErrMax= 3.71D-02  0.00D+00 EMaxC= 1.00D-01 BMatC= 2.17D-01 BMatP= 7.50D-01
 IDIUse=3 WtCom= 6.29D-01 WtEn= 3.71D-01
 Coeff-Com: -0.907D-01 0.134D+00 0.310D+00 0.647D+00
 Coeff-En:   0.000D+00 0.000D+00 0.184D+00 0.816D+00
 Coeff:     -0.571D-01 0.846D-01 0.263D+00 0.709D+00
 Gap=     0.250 Goal=   None    Shift=    0.000
 RMSDP=8.46D-03 MaxDP=1.16D+00 DE=-1.15D-01 OVMax= 3.51D-02

 Cycle   5  Pass 1  IDiag  1:
 RMSU=  1.66D-03    CP:  5.55D-01  2.05D+00  1.90D+00  5.03D-01
 E= -3010.53365971168     Delta-E=       -0.043465280395 Rises=F Damp=F
 DIIS: error= 6.69D-03 at cycle   5 NSaved=   5.
 NSaved= 5 IEnMin= 5 EnMin= -3010.53365971168     IErMin= 5 ErrMin= 6.69D-03
 ErrMax= 6.69D-03  0.00D+00 EMaxC= 1.00D-01 BMatC= 8.48D-03 BMatP= 2.17D-01
 IDIUse=3 WtCom= 9.33D-01 WtEn= 6.69D-02
 Coeff-Com: -0.129D+00 0.176D+00 0.815D-01 0.378D+00 0.493D+00
 Coeff-En:   0.000D+00 0.000D+00 0.000D+00 0.000D+00 0.100D+01
 Coeff:     -0.120D+00 0.164D+00 0.761D-01 0.353D+00 0.527D+00
 Gap=     0.239 Goal=   None    Shift=    0.000
 RMSDP=2.01D-03 MaxDP=2.67D-01 DE=-4.35D-02 OVMax= 2.10D-02

 Cycle   6  Pass 1  IDiag  1:
 RMSU=  5.59D-04    CP:  5.66D-01  1.97D+00  1.94D+00  6.56D-01  6.17D-01
 E= -3010.53585071930     Delta-E=       -0.002191007628 Rises=F Damp=F
 DIIS: error= 2.71D-03 at cycle   6 NSaved=   6.
 NSaved= 6 IEnMin= 6 EnMin= -3010.53585071930     IErMin= 6 ErrMin= 2.71D-03
 ErrMax= 2.71D-03  0.00D+00 EMaxC= 1.00D-01 BMatC= 5.68D-04 BMatP= 8.48D-03
 IDIUse=3 WtCom= 9.73D-01 WtEn= 2.71D-02
 Coeff-Com: -0.995D-01 0.134D+00-0.781D-03 0.172D+00 0.358D+00 0.436D+00
 Coeff-En:   0.000D+00 0.000D+00 0.000D+00 0.000D+00 0.839D-01 0.916D+00
 Coeff:     -0.968D-01 0.130D+00-0.760D-03 0.168D+00 0.350D+00 0.449D+00
 Gap=     0.239 Goal=   None    Shift=    0.000
 RMSDP=6.52D-04 MaxDP=8.04D-02 DE=-2.19D-03 OVMax= 8.73D-03

 Cycle   7  Pass 1  IDiag  1:
 RMSU=  2.31D-04    CP:  5.63D-01  1.99D+00  1.95D+00  6.29D-01  7.88D-01
                    CP:  6.70D-01
 E= -3010.53625216469     Delta-E=       -0.000401445385 Rises=F Damp=F
 DIIS: error= 4.02D-04 at cycle   7 NSaved=   7.
 NSaved= 7 IEnMin= 7 EnMin= -3010.53625216469     IErMin= 7 ErrMin= 4.02D-04
 ErrMax= 4.02D-04  0.00D+00 EMaxC= 1.00D-01 BMatC= 1.87D-05 BMatP= 5.68D-04
 IDIUse=3 WtCom= 9.96D-01 WtEn= 4.02D-03
 Coeff-Com: -0.377D-01 0.503D-01-0.123D-01 0.387D-01 0.931D-01 0.193D+00
 Coeff-Com:  0.675D+00
 Coeff-En:   0.000D+00 0.000D+00 0.000D+00 0.000D+00 0.000D+00 0.000D+00
 Coeff-En:   0.100D+01
 Coeff:     -0.375D-01 0.501D-01-0.123D-01 0.386D-01 0.927D-01 0.192D+00
 Coeff:      0.676D+00
 Gap=     0.240 Goal=   None    Shift=    0.000
 RMSDP=1.61D-04 MaxDP=1.83D-02 DE=-4.01D-04 OVMax= 1.55D-03

 Cycle   8  Pass 1  IDiag  1:
 RMSU=  6.38D-05    CP:  5.62D-01  1.99D+00  1.95D+00  6.34D-01  8.24D-01
                    CP:  6.87D-01  8.90D-01
 E= -3010.53627145893     Delta-E=       -0.000019294238 Rises=F Damp=F
 DIIS: error= 1.18D-04 at cycle   8 NSaved=   8.
 NSaved= 8 IEnMin= 8 EnMin= -3010.53627145893     IErMin= 8 ErrMin= 1.18D-04
 ErrMax= 1.18D-04  0.00D+00 EMaxC= 1.00D-01 BMatC= 2.52D-06 BMatP= 1.87D-05
 IDIUse=3 WtCom= 9.99D-01 WtEn= 1.18D-03
 Coeff-Com:  0.338D-02-0.474D-02-0.374D-02-0.128D-01-0.292D-01-0.242D-01
 Coeff-Com:  0.185D+00 0.887D+00
 Coeff-En:   0.000D+00 0.000D+00 0.000D+00 0.000D+00 0.000D+00 0.000D+00
 Coeff-En:   0.000D+00 0.100D+01
 Coeff:      0.337D-02-0.473D-02-0.374D-02-0.128D-01-0.291D-01-0.242D-01
 Coeff:      0.184D+00 0.887D+00
 Gap=     0.240 Goal=   None    Shift=    0.000
 RMSDP=7.03D-05 MaxDP=6.07D-03 DE=-1.93D-05 OVMax= 9.67D-04

 Cycle   9  Pass 1  IDiag  1:
 RMSU=  2.61D-05    CP:  5.62D-01  1.99D+00  1.96D+00  6.39D-01  8.43D-01
                    CP:  6.87D-01  1.07D+00  1.23D+00
 E= -3010.53627598543     Delta-E=       -0.000004526499 Rises=F Damp=F
 DIIS: error= 2.15D-05 at cycle   9 NSaved=   9.
 NSaved= 9 IEnMin= 9 EnMin= -3010.53627598543     IErMin= 9 ErrMin= 2.15D-05
 ErrMax= 2.15D-05  0.00D+00 EMaxC= 1.00D-01 BMatC= 2.27D-07 BMatP= 2.52D-06
 IDIUse=1 WtCom= 1.00D+00 WtEn= 0.00D+00
 Coeff-Com:  0.645D-02-0.867D-02 0.621D-03-0.939D-02-0.200D-01-0.315D-01
 Coeff-Com: -0.493D-01 0.238D+00 0.874D+00
 Coeff:      0.645D-02-0.867D-02 0.621D-03-0.939D-02-0.200D-01-0.315D-01
 Coeff:     -0.493D-01 0.238D+00 0.874D+00
 Gap=     0.240 Goal=   None    Shift=    0.000
 RMSDP=5.94D-05 MaxDP=7.74D-03 DE=-4.53D-06 OVMax= 6.35D-04

 Cycle  10  Pass 1  IDiag  1:
 RMSU=  8.83D-06    CP:  5.62D-01  1.99D+00  1.96D+00  6.37D-01  8.54D-01
                    CP:  6.73D-01  1.12D+00  1.51D+00  1.09D+00
 E= -3010.53627687217     Delta-E=       -0.000000886749 Rises=F Damp=F
 DIIS: error= 1.42D-05 at cycle  10 NSaved=  10.
 NSaved=10 IEnMin=10 EnMin= -3010.53627687217     IErMin=10 ErrMin= 1.42D-05
 ErrMax= 1.42D-05  0.00D+00 EMaxC= 1.00D-01 BMatC= 6.44D-08 BMatP= 2.27D-07
 IDIUse=1 WtCom= 1.00D+00 WtEn= 0.00D+00
 Coeff-Com:  0.580D-03-0.754D-03 0.397D-03-0.359D-03 0.145D-02 0.154D-02
 Coeff-Com: -0.363D-01-0.818D-01 0.222D+00 0.894D+00
 Coeff:      0.580D-03-0.754D-03 0.397D-03-0.359D-03 0.145D-02 0.154D-02
 Coeff:     -0.363D-01-0.818D-01 0.222D+00 0.894D+00
 Gap=     0.240 Goal=   None    Shift=    0.000
 RMSDP=1.08D-05 MaxDP=8.51D-04 DE=-8.87D-07 OVMax= 3.75D-04

 Cycle  11  Pass 1  IDiag  1:
 RMSU=  6.91D-06    CP:  5.62D-01  1.99D+00  1.96D+00  6.38D-01  8.54D-01
                    CP:  6.72D-01  1.11D+00  1.59D+00  1.20D+00  1.26D+00
 E= -3010.53627708928     Delta-E=       -0.000000217106 Rises=F Damp=F
 DIIS: error= 4.94D-06 at cycle  11 NSaved=  11.
 NSaved=11 IEnMin=11 EnMin= -3010.53627708928     IErMin=11 ErrMin= 4.94D-06
 ErrMax= 4.94D-06  0.00D+00 EMaxC= 1.00D-01 BMatC= 8.18D-09 BMatP= 6.44D-08
 IDIUse=1 WtCom= 1.00D+00 WtEn= 0.00D+00
 Coeff-Com: -0.396D-03 0.534D-03 0.513D-04 0.929D-03 0.250D-02 0.469D-02
 Coeff-Com:  0.832D-02-0.323D-01-0.140D+00-0.330D-02 0.116D+01
 Coeff:     -0.396D-03 0.534D-03 0.513D-04 0.929D-03 0.250D-02 0.469D-02
 Coeff:      0.832D-02-0.323D-01-0.140D+00-0.330D-02 0.116D+01
 Gap=     0.240 Goal=   None    Shift=    0.000
 RMSDP=1.10D-05 MaxDP=9.98D-04 DE=-2.17D-07 OVMax= 2.72D-04

 Cycle  12  Pass 1  IDiag  1:
 RMSU=  1.54D-06    CP:  5.62D-01  1.99D+00  1.96D+00  6.37D-01  8.55D-01
                    CP:  6.69D-01  1.10D+00  1.64D+00  1.22D+00  1.58D+00
                    CP:  1.49D+00
 E= -3010.53627715832     Delta-E=       -0.000000069037 Rises=F Damp=F
 DIIS: error= 3.72D-06 at cycle  12 NSaved=  12.
 NSaved=12 IEnMin=12 EnMin= -3010.53627715832     IErMin=12 ErrMin= 3.72D-06
 ErrMax= 3.72D-06  0.00D+00 EMaxC= 1.00D-01 BMatC= 3.59D-09 BMatP= 8.18D-09
 IDIUse=1 WtCom= 1.00D+00 WtEn= 0.00D+00
 Coeff-Com: -0.280D-03 0.370D-03-0.511D-04 0.516D-03 0.642D-03 0.164D-02
 Coeff-Com:  0.143D-01 0.493D-02-0.133D+00-0.247D+00 0.593D+00 0.766D+00
 Coeff:     -0.280D-03 0.370D-03-0.511D-04 0.516D-03 0.642D-03 0.164D-02
 Coeff:      0.143D-01 0.493D-02-0.133D+00-0.247D+00 0.593D+00 0.766D+00
 Gap=     0.240 Goal=   None    Shift=    0.000
 RMSDP=2.47D-06 MaxDP=1.29D-04 DE=-6.90D-08 OVMax= 1.46D-04

 Cycle  13  Pass 1  IDiag  1:
 RMSU=  9.99D-07    CP:  5.62D-01  1.99D+00  1.96D+00  6.37D-01  8.55D-01
                    CP:  6.69D-01  1.10D+00  1.64D+00  1.24D+00  1.71D+00
                    CP:  1.71D+00  1.26D+00
 E= -3010.53627717465     Delta-E=       -0.000000016336 Rises=F Damp=F
 DIIS: error= 1.36D-06 at cycle  13 NSaved=  13.
 NSaved=13 IEnMin=13 EnMin= -3010.53627717465     IErMin=13 ErrMin= 1.36D-06
 ErrMax= 1.36D-06  0.00D+00 EMaxC= 1.00D-01 BMatC= 4.47D-10 BMatP= 3.59D-09
 IDIUse=1 WtCom= 1.00D+00 WtEn= 0.00D+00
 Coeff-Com: -0.853D-05 0.111D-04-0.250D-04-0.106D-03-0.540D-03-0.108D-02
 Coeff-Com: -0.143D-02 0.407D-02 0.281D-01-0.839D-03-0.215D+00 0.716D-01
 Coeff-Com:  0.112D+01
 Coeff:     -0.853D-05 0.111D-04-0.250D-04-0.106D-03-0.540D-03-0.108D-02
 Coeff:     -0.143D-02 0.407D-02 0.281D-01-0.839D-03-0.215D+00 0.716D-01
 Coeff:      0.112D+01
 Gap=     0.240 Goal=   None    Shift=    0.000
 RMSDP=1.55D-06 MaxDP=1.09D-04 DE=-1.63D-08 OVMax= 5.95D-05

 Cycle  14  Pass 1  IDiag  1:
 RMSU=  4.12D-07    CP:  5.62D-01  1.99D+00  1.96D+00  6.37D-01  8.55D-01
                    CP:  6.69D-01  1.11D+00  1.64D+00  1.24D+00  1.75D+00
                    CP:  1.70D+00  1.57D+00  1.63D+00
 E= -3010.53627717698     Delta-E=       -0.000000002324 Rises=F Damp=F
 DIIS: error= 4.64D-07 at cycle  14 NSaved=  14.
 NSaved=14 IEnMin=14 EnMin= -3010.53627717698     IErMin=14 ErrMin= 4.64D-07
 ErrMax= 4.64D-07  0.00D+00 EMaxC= 1.00D-01 BMatC= 6.72D-11 BMatP= 4.47D-10
 IDIUse=1 WtCom= 1.00D+00 WtEn= 0.00D+00
 Coeff-Com:  0.155D-04-0.202D-04-0.751D-05-0.908D-04-0.231D-03-0.534D-03
 Coeff-Com: -0.232D-02 0.150D-03 0.288D-01 0.354D-01-0.165D+00-0.800D-01
 Coeff-Com:  0.376D+00 0.808D+00
 Coeff:      0.155D-04-0.202D-04-0.751D-05-0.908D-04-0.231D-03-0.534D-03
 Coeff:     -0.232D-02 0.150D-03 0.288D-01 0.354D-01-0.165D+00-0.800D-01
 Coeff:      0.376D+00 0.808D+00
 Gap=     0.240 Goal=   None    Shift=    0.000
 RMSDP=7.67D-07 MaxDP=8.30D-05 DE=-2.32D-09 OVMax= 1.77D-05

 Cycle  15  Pass 1  IDiag  1:
 RMSU=  1.60D-07    CP:  5.62D-01  1.99D+00  1.96D+00  6.37D-01  8.55D-01
                    CP:  6.69D-01  1.11D+00  1.64D+00  1.23D+00  1.75D+00
                    CP:  1.70D+00  1.67D+00  1.87D+00  1.33D+00
 E= -3010.53627717727     Delta-E=       -0.000000000290 Rises=F Damp=F
 DIIS: error= 2.65D-07 at cycle  15 NSaved=  15.
 NSaved=15 IEnMin=15 EnMin= -3010.53627717727     IErMin=15 ErrMin= 2.65D-07
 ErrMax= 2.65D-07  0.00D+00 EMaxC= 1.00D-01 BMatC= 1.12D-11 BMatP= 6.72D-11
 IDIUse=1 WtCom= 1.00D+00 WtEn= 0.00D+00
 Coeff-Com:  0.578D-05-0.767D-05 0.257D-05 0.231D-05 0.704D-04 0.114D-03
 Coeff-Com: -0.183D-04-0.730D-03 0.637D-04 0.673D-02 0.603D-02-0.280D-01
 Coeff-Com: -0.141D+00 0.208D+00 0.949D+00
 Coeff:      0.578D-05-0.767D-05 0.257D-05 0.231D-05 0.704D-04 0.114D-03
 Coeff:     -0.183D-04-0.730D-03 0.637D-04 0.673D-02 0.603D-02-0.280D-01
 Coeff:     -0.141D+00 0.208D+00 0.949D+00
 Gap=     0.240 Goal=   None    Shift=    0.000
 RMSDP=2.94D-07 MaxDP=2.63D-05 DE=-2.90D-10 OVMax= 6.79D-06

 Cycle  16  Pass 1  IDiag  1:
 RMSU=  5.30D-08    CP:  5.62D-01  1.99D+00  1.96D+00  6.37D-01  8.55D-01
                    CP:  6.69D-01  1.11D+00  1.64D+00  1.23D+00  1.76D+00
                    CP:  1.69D+00  1.70D+00  1.97D+00  1.55D+00  1.39D+00
 E= -3010.53627717735     Delta-E=       -0.000000000080 Rises=F Damp=F
 DIIS: error= 7.27D-08 at cycle  16 NSaved=  16.
 NSaved=16 IEnMin=16 EnMin= -3010.53627717735     IErMin=16 ErrMin= 7.27D-08
 ErrMax= 7.27D-08  0.00D+00 EMaxC= 1.00D-01 BMatC= 8.81D-13 BMatP= 1.12D-11
 IDIUse=1 WtCom= 1.00D+00 WtEn= 0.00D+00
 Coeff-Com: -0.178D-05 0.236D-05 0.893D-06 0.106D-04 0.334D-04 0.626D-04
 Coeff-Com:  0.230D-03-0.184D-03-0.295D-02-0.190D-02 0.167D-01 0.375D-02
 Coeff-Com: -0.508D-01-0.650D-01 0.742D-01 0.103D+01
 Coeff:     -0.178D-05 0.236D-05 0.893D-06 0.106D-04 0.334D-04 0.626D-04
 Coeff:      0.230D-03-0.184D-03-0.295D-02-0.190D-02 0.167D-01 0.375D-02
 Coeff:     -0.508D-01-0.650D-01 0.742D-01 0.103D+01
 Gap=     0.240 Goal=   None    Shift=    0.000
 RMSDP=8.80D-08 MaxDP=7.38D-06 DE=-8.05D-11 OVMax= 1.46D-06

 Cycle  17  Pass 1  IDiag  1:
 RMSU=  1.96D-08    CP:  5.62D-01  1.99D+00  1.96D+00  6.37D-01  8.55D-01
                    CP:  6.69D-01  1.11D+00  1.64D+00  1.23D+00  1.76D+00
                    CP:  1.69D+00  1.70D+00  2.00D+00  1.60D+00  1.63D+00
                    CP:  1.33D+00
 E= -3010.53627717734     Delta-E=        0.000000000010 Rises=F Damp=F
 DIIS: error= 2.93D-08 at cycle  17 NSaved=  17.
 NSaved=17 IEnMin=16 EnMin= -3010.53627717735     IErMin=17 ErrMin= 2.93D-08
 ErrMax= 2.93D-08  0.00D+00 EMaxC= 1.00D-01 BMatC= 1.48D-13 BMatP= 8.81D-13
 IDIUse=1 WtCom= 1.00D+00 WtEn= 0.00D+00
 Coeff-Com: -0.232D-05 0.310D-05-0.429D-06 0.275D-05-0.567D-06-0.250D-05
 Coeff-Com:  0.397D-04 0.741D-04-0.494D-03-0.959D-03 0.203D-02 0.363D-02
 Coeff-Com:  0.105D-01-0.367D-01-0.108D+00 0.142D+00 0.989D+00
 Coeff:     -0.232D-05 0.310D-05-0.429D-06 0.275D-05-0.567D-06-0.250D-05
 Coeff:      0.397D-04 0.741D-04-0.494D-03-0.959D-03 0.203D-02 0.363D-02
 Coeff:      0.105D-01-0.367D-01-0.108D+00 0.142D+00 0.989D+00
 Gap=     0.240 Goal=   None    Shift=    0.000
 RMSDP=3.48D-08 MaxDP=3.41D-06 DE= 9.55D-12 OVMax= 6.91D-07

 Cycle  18  Pass 1  IDiag  1:
 RMSU=  7.04D-09    CP:  5.62D-01  1.99D+00  1.96D+00  6.37D-01  8.55D-01
                    CP:  6.69D-01  1.11D+00  1.64D+00  1.23D+00  1.76D+00
                    CP:  1.69D+00  1.70D+00  2.00D+00  1.59D+00  1.69D+00
                    CP:  1.57D+00  1.25D+00
 E= -3010.53627717739     Delta-E=       -0.000000000048 Rises=F Damp=F
 DIIS: error= 1.69D-08 at cycle  18 NSaved=  18.
 NSaved=18 IEnMin=18 EnMin= -3010.53627717739     IErMin=18 ErrMin= 1.69D-08
 ErrMax= 1.69D-08  0.00D+00 EMaxC= 1.00D-01 BMatC= 3.94D-14 BMatP= 1.48D-13
 IDIUse=1 WtCom= 1.00D+00 WtEn= 0.00D+00
 Coeff-Com: -0.115D-06 0.155D-06-0.237D-06-0.143D-05-0.803D-05-0.160D-04
 Coeff-Com: -0.298D-04 0.784D-04 0.321D-03-0.103D-03-0.231D-02 0.586D-03
 Coeff-Com:  0.142D-01-0.219D-02-0.542D-01-0.124D+00 0.394D+00 0.774D+00
 Coeff:     -0.115D-06 0.155D-06-0.237D-06-0.143D-05-0.803D-05-0.160D-04
 Coeff:     -0.298D-04 0.784D-04 0.321D-03-0.103D-03-0.231D-02 0.586D-03
 Coeff:      0.142D-01-0.219D-02-0.542D-01-0.124D+00 0.394D+00 0.774D+00
 Gap=     0.240 Goal=   None    Shift=    0.000
 RMSDP=2.12D-08 MaxDP=2.31D-06 DE=-4.82D-11 OVMax= 2.67D-07

 Cycle  19  Pass 1  IDiag  1:
 RMSU=  2.53D-09    CP:  5.62D-01  1.99D+00  1.96D+00  6.37D-01  8.55D-01
                    CP:  6.69D-01  1.11D+00  1.64D+00  1.23D+00  1.76D+00
                    CP:  1.69D+00  1.70D+00  2.00D+00  1.58D+00  1.71D+00
                    CP:  1.64D+00  1.44D+00  1.16D+00
 E= -3010.53627717736     Delta-E=        0.000000000025 Rises=F Damp=F
 DIIS: error= 9.42D-09 at cycle  19 NSaved=  19.
 NSaved=19 IEnMin=18 EnMin= -3010.53627717739     IErMin=19 ErrMin= 9.42D-09
 ErrMax= 9.42D-09  0.00D+00 EMaxC= 1.00D-01 BMatC= 4.48D-15 BMatP= 3.94D-14
 IDIUse=1 WtCom= 1.00D+00 WtEn= 0.00D+00
 Large coefficients: NSaved= 19 BigCof=    0.00 CofMax=   10.00 Det=-7.83D-15
 Inversion failed.  Reducing to 18 matrices.
 Large coefficients: NSaved= 18 BigCof=    0.00 CofMax=   10.00 Det=-7.88D-15
 Inversion failed.  Reducing to 17 matrices.
 Coeff-Com: -0.140D-07 0.165D-08 0.682D-06 0.975D-06-0.392D-05-0.110D-04
 Coeff-Com:  0.553D-04 0.127D-03-0.201D-03-0.540D-03-0.111D-02 0.479D-02
 Coeff-Com:  0.129D-01-0.308D-01-0.138D+00 0.352D-01 0.112D+01
 Coeff:     -0.140D-07 0.165D-08 0.682D-06 0.975D-06-0.392D-05-0.110D-04
 Coeff:      0.553D-04 0.127D-03-0.201D-03-0.540D-03-0.111D-02 0.479D-02
 Coeff:      0.129D-01-0.308D-01-0.138D+00 0.352D-01 0.112D+01
 Gap=     0.240 Goal=   None    Shift=    0.000
 RMSDP=5.97D-09 MaxDP=5.25D-07 DE= 2.50D-11 OVMax= 1.86D-07

 SCF Done:  E(RwB97XD) =  -3010.53627718     A.U. after   19 cycles
            NFock= 19  Conv=0.60D-08     -V/T= 2.0016
 KE= 3.005839871766D+03 PE=-8.698286189797D+03 EE= 1.909975758698D+03
 Leave Link  502 at Thu May  2 14:19:04 2024, MaxMem=   134217728 cpu:            1182.9 elap:            1183.3
 (Enter /software/gaussian/g16-c01/sse4/g16/l601.exe)
 Copying SCF densities to generalized density rwf, IOpCl= 0 IROHF=0.

 **********************************************************************

            Population analysis using the SCF Density.

 **********************************************************************

 Alpha  occ. eigenvalues -- -483.29810 -62.84809 -56.64528 -56.63926 -56.63911
 Alpha  occ. eigenvalues --  -19.45991 -19.45987 -14.85397 -10.58683 -10.57215
 Alpha  occ. eigenvalues --  -10.56730 -10.56310 -10.52859 -10.52245  -9.00598
 Alpha  occ. eigenvalues --   -6.83344  -6.81377  -6.81333  -2.93232  -2.92719
 Alpha  occ. eigenvalues --   -2.92683  -2.91110  -2.91109  -1.49673  -1.32639
 Alpha  occ. eigenvalues --   -1.21814  -1.12277  -1.11724  -1.03789  -0.99654
 Alpha  occ. eigenvalues --   -0.94747  -0.90053  -0.84584  -0.80513  -0.79752
 Alpha  occ. eigenvalues --   -0.79654  -0.77425  -0.75878  -0.75051  -0.71216
 Alpha  occ. eigenvalues --   -0.67978  -0.67030  -0.62491  -0.59015  -0.57149
 Alpha  occ. eigenvalues --   -0.56393  -0.55688  -0.54598  -0.53357
 Alpha virt. eigenvalues --   -0.29366  -0.20011  -0.14646  -0.12612  -0.09132
 Alpha virt. eigenvalues --   -0.06504  -0.06148  -0.05046  -0.03139  -0.02813
 Alpha virt. eigenvalues --   -0.01857  -0.01702  -0.00297   0.00532   0.01478
 Alpha virt. eigenvalues --    0.01597   0.02742   0.03721   0.04334   0.04623
 Alpha virt. eigenvalues --    0.04762   0.05691   0.06286   0.06735   0.07463
 Alpha virt. eigenvalues --    0.07839   0.08042   0.09110   0.09323   0.09967
 Alpha virt. eigenvalues --    0.10234   0.11146   0.11912   0.12780   0.13012
 Alpha virt. eigenvalues --    0.13341   0.13528   0.14540   0.15384   0.15785
 Alpha virt. eigenvalues --    0.17067   0.17172   0.17924   0.18957   0.19091
 Alpha virt. eigenvalues --    0.20617   0.21246   0.21941   0.22659   0.24894
 Alpha virt. eigenvalues --    0.25100   0.26351   0.28685   0.30356   0.32964
 Alpha virt. eigenvalues --    0.33745   0.34339   0.34861   0.34876   0.37054
 Alpha virt. eigenvalues --    0.38012   0.38686   0.39992   0.41240   0.42625
 Alpha virt. eigenvalues --    0.43954   0.44509   0.45996   0.47570   0.47726
 Alpha virt. eigenvalues --    0.49173   0.51016   0.51683   0.53222   0.54072
 Alpha virt. eigenvalues --    0.55695   0.56534   0.58570   0.58728   0.60753
 Alpha virt. eigenvalues --    0.61807   0.62924   0.65397   0.68618   0.68869
 Alpha virt. eigenvalues --    0.71856   0.72170   0.73316   0.74789   0.75304
 Alpha virt. eigenvalues --    0.75562   0.77751   0.80058   0.84486   0.86225
 Alpha virt. eigenvalues --    0.87691   0.88310   0.91952   0.94892   0.99166
 Alpha virt. eigenvalues --    1.00766   1.03183   1.04421   1.06237   1.07424
 Alpha virt. eigenvalues --    1.09296   1.12871   1.13685   1.14447   1.18369
 Alpha virt. eigenvalues --    1.21319   1.23198   1.28649   1.34056   1.36862
 Alpha virt. eigenvalues --    1.37505   1.39580   1.43962   1.55580   1.57230
 Alpha virt. eigenvalues --    1.57782   1.60322   1.61799   1.64499   1.66483
 Alpha virt. eigenvalues --    1.68599   1.72116   1.74349   1.75857   1.80099
 Alpha virt. eigenvalues --    1.84531   1.85943   1.87867   1.96581   1.97369
 Alpha virt. eigenvalues --    1.98547   2.03309   2.03715   2.07925   2.09855
 Alpha virt. eigenvalues --    2.13730   2.15380   2.22884   2.24137   2.27941
 Alpha virt. eigenvalues --    2.34103   2.40349   2.41972   2.44858   2.53891
 Alpha virt. eigenvalues --    2.58627   2.63740   2.66584   2.69342   2.71966
 Alpha virt. eigenvalues --    2.74084   2.76691   2.77938   2.80962   2.82734
 Alpha virt. eigenvalues --    2.93932   2.98659   3.01886   3.06480   3.09629
 Alpha virt. eigenvalues --    3.15457   3.16946   3.18124   3.22834   3.26854
 Alpha virt. eigenvalues --    3.28335   3.38365   3.47241   3.50672   3.55042
 Alpha virt. eigenvalues --    3.58115   3.69158   3.74491   3.84311   3.88036
 Alpha virt. eigenvalues --    4.11578   4.12457   4.20860   4.25044   4.44409
 Alpha virt. eigenvalues --    4.45781   4.55322   4.60235   4.93789   4.96590
 Alpha virt. eigenvalues --    5.05487   5.09934   5.62259   6.15378   6.69565
 Alpha virt. eigenvalues --    7.50506   7.52798   7.62843  23.22863  23.61953
 Alpha virt. eigenvalues --   23.72764  23.78749  23.96332  24.02770  35.31768
 Alpha virt. eigenvalues --   47.95561  49.85469  49.94131 289.83180 289.85517
 Alpha virt. eigenvalues --  289.981211020.96709
          Condensed to atoms (all electrons):
               1          2          3          4          5          6
     1  C    7.753436  -2.171130   0.632238   0.007931   0.295471   0.058998
     2  C   -2.171130  17.891959  -3.442034   0.388011  -0.007414   0.194355
     3  C    0.632238  -3.442034  19.917387  -1.341152   0.013980   0.114171
     4  C    0.007931   0.388011  -1.341152   6.403956   0.026530  -0.014576
     5  H    0.295471  -0.007414   0.013980   0.026530   0.332699  -0.001708
     6  H    0.058998   0.194355   0.114171  -0.014576  -0.001708   0.313257
     7  H    0.026358  -0.027528   0.018697   0.306779  -0.002724  -0.000002
     8  N   -0.099913  -0.248506  -2.010713   0.023172  -0.000257  -0.030478
     9  O    0.000883   0.393254   0.113474  -0.018893  -0.000029  -0.002529
    10  O    0.260945  -0.174058  -0.300309  -0.017493  -0.000010   0.021258
    11  C    0.758796  -0.397352   2.544722  -0.315695  -0.027268   0.008691
    12  H   -0.013710   0.021909   0.003228   0.023440   0.000035  -0.000019
    13  C   -1.390074  -6.398807 -10.013410   0.875477   0.026299  -0.010026
    14  H    0.000875   0.015986   0.052715  -0.001543  -0.000043   0.000075
    15  Br   0.008787  -0.248417  -0.243641  -0.014314   0.000222  -0.000594
               7          8          9         10         11         12
     1  C    0.026358  -0.099913   0.000883   0.260945   0.758796  -0.013710
     2  C   -0.027528  -0.248506   0.393254  -0.174058  -0.397352   0.021909
     3  C    0.018697  -2.010713   0.113474  -0.300309   2.544722   0.003228
     4  C    0.306779   0.023172  -0.018893  -0.017493  -0.315695   0.023440
     5  H   -0.002724  -0.000257  -0.000029  -0.000010  -0.027268   0.000035
     6  H   -0.000002  -0.030478  -0.002529   0.021258   0.008691  -0.000019
     7  H    0.340234   0.000051  -0.000005   0.000006   0.025576  -0.002330
     8  N    0.000051   7.732410  -0.011123   0.227340  -0.334279   0.000644
     9  O   -0.000005  -0.011123   7.942553  -0.004177   0.275340   0.000128
    10  O    0.000006   0.227340  -0.004177   7.806911  -0.007550  -0.000033
    11  C    0.025576  -0.334279   0.275340  -0.007550   8.054543   0.302888
    12  H   -0.002330   0.000644   0.000128  -0.000033   0.302888   0.326898
    13  C   -0.013459   1.862526  -0.730128   0.112506  -4.744718  -0.012945
    14  H   -0.000040  -0.039222   0.016983  -0.001699   0.038512  -0.005801
    15  Br  -0.000290   0.184709  -0.063813   0.007021   0.040491   0.001354
              13         14         15
     1  C   -1.390074   0.000875   0.008787
     2  C   -6.398807   0.015986  -0.248417
     3  C  -10.013410   0.052715  -0.243641
     4  C    0.875477  -0.001543  -0.014314
     5  H    0.026299  -0.000043   0.000222
     6  H   -0.010026   0.000075  -0.000594
     7  H   -0.013459  -0.000040  -0.000290
     8  N    1.862526  -0.039222   0.184709
     9  O   -0.730128   0.016983  -0.063813
    10  O    0.112506  -0.001699   0.007021
    11  C   -4.744718   0.038512   0.040491
    12  H   -0.012945  -0.005801   0.001354
    13  C   26.097979   0.222624   0.504740
    14  H    0.222624   0.361565  -0.047342
    15  Br   0.504740  -0.047342  34.612462
 Mulliken charges:
               1
     1  C   -0.129892
     2  C    0.209771
     3  C   -0.059352
     4  C   -0.331631
     5  H    0.344218
     6  H    0.349127
     7  H    0.328677
     8  N   -0.256360
     9  O    0.088083
    10  O    0.069342
    11  C   -0.222694
    12  H    0.354315
    13  C   -0.388584
    14  H    0.386355
    15  Br   0.258625
 Sum of Mulliken charges =   1.00000
 Mulliken charges with hydrogens summed into heavy atoms:
               1
     1  C    0.214326
     2  C    0.558899
     3  C   -0.059352
     4  C   -0.002954
     8  N   -0.256360
     9  O    0.088083
    10  O    0.069342
    11  C    0.131621
    13  C   -0.002229
    15  Br   0.258625
 Electronic spatial extent (au):  <R**2>=           3944.4978
 Charge=              1.0000 electrons
 Dipole moment (field-independent basis, Debye):
    X=              2.8965    Y=             -1.2180    Z=             -2.1375  Tot=              3.8002
 Quadrupole moment (field-independent basis, Debye-Ang):
   XX=            -67.8731   YY=            -50.6532   ZZ=            -60.4420
   XY=             -3.6019   XZ=             -5.4206   YZ=              3.8108
 Traceless Quadrupole moment (field-independent basis, Debye-Ang):
   XX=             -8.2170   YY=              9.0029   ZZ=             -0.7859
   XY=             -3.6019   XZ=             -5.4206   YZ=              3.8108
 Octapole moment (field-independent basis, Debye-Ang**2):
  XXX=           -514.3580  YYY=             89.7106  ZZZ=             75.7478  XYY=           -135.0913
  XXY=             23.0015  XXZ=             16.5369  XZZ=           -128.5852  YZZ=             13.3689
  YYZ=             21.1106  XYZ=             11.0325
 Hexadecapole moment (field-independent basis, Debye-Ang**3):
 XXXX=          -3460.2575 YYYY=           -696.6063 ZZZZ=           -378.0748 XXXY=            176.3891
 XXXZ=            152.5241 YYYX=            179.9010 YYYZ=           -163.2960 ZZZX=            152.2486
 ZZZY=           -132.9453 XXYY=           -620.6851 XXZZ=           -516.4861 YYZZ=           -162.7256
 XXYZ=            -33.3243 YYXZ=             39.5555 ZZXY=             20.5975
 N-N= 7.719342821556D+02 E-N=-8.698286189386D+03  KE= 3.005839871766D+03
 No NMR shielding tensors so no spin-rotation constants.
 Leave Link  601 at Thu May  2 14:19:11 2024, MaxMem=   134217728 cpu:               7.4 elap:               7.4
 (Enter /software/gaussian/g16-c01/sse4/g16/l9999.exe)
 Unable to Open any file for archive entry.
 1\1\GINC-BHX0018\SP\RwB97XD\6-311+G(d)\C6H5Br1N1O2(1+)\BWEIGHT\02-May-
 2024\0\\#P wB97XD/6-311+G* NoSymm #P Field=Z+77\\TitleMe\\1,1\C,0,0.51
 93,1.233,-0.0319\C,0,1.9445,1.2692,-0.0367\C,0,2.6204,0.0928,-0.025\C,
 0,-0.196,0.0301,0.001\H,0,-0.0207,2.1742,-0.0434\H,0,2.4828,2.2089,-0.
 0361\H,0,-1.2777,0.0399,0.0117\N,0,4.0921,0.0959,0.0366\O,0,4.6393,-1.
 0217,0.1446\O,0,4.6649,1.1984,-0.0233\C,0,0.4943,-1.1671,0.021\H,0,-0.
 0325,-2.1149,0.0545\C,0,1.9629,-1.2165,-0.0211\H,0,2.4436,-1.9631,0.61
 51\Br,0,2.173,-1.9491,-1.9062\\Version=ES64L-G16RevC.01\HF=-3010.53627
 72\RMSD=5.975e-09\Dipole=-3.1896493,0.7489445,0.4082723\Quadrupole=-6.
 109125,6.6934496,-0.5843246,-2.6779191,-4.030118,2.8332658\PG=C01 [X(C
 6H5Br1N1O2)]\\@
 The archive entry for this job was punched.


 SCIENCE IS A VERY HUMAN FORM OF KNOWLEDGE.
 WE ARE ALWAYS AT THE BRINK OF THE KNOWN,
 WE ALWAYS FEEL FORWARD FOR WHAT IS HOPED.
 EVERY JUDGEMENT IN SCIENCE STANDS ON THE EDGE OF ERROR, AND IS PERSONAL.
 SCIENCE IS A TRIBUTE TO WHAT WE CAN KNOW ALTHOUGH WE ARE FALLIBLE.

                     -- J. BRONOWSKI
 Job cpu time:       0 days  0 hours 20 minutes 53.0 seconds.
 Elapsed time:       0 days  0 hours 20 minutes 53.6 seconds.
 File lengths (MBytes):  RWF=     40 Int=      0 D2E=      0 Chk=     32 Scr=      1
 Normal termination of Gaussian 16 at Thu May  2 14:19:12 2024.
