 Entering Gaussian System, Link 0=g16
 Initial command:
 /software/gaussian/g16-c01/sse4/g16/l1.exe "/local_scratch/24657446/Gau-26286.inp" -scrdir="/local_scratch/24657446/"
 Entering Link 1 = /software/gaussian/g16-c01/sse4/g16/l1.exe PID=     26287.
  
 Copyright (c) 1988-2019, Gaussian, Inc.  All Rights Reserved.
  
 This is part of the Gaussian(R) 16 program.  It is based on
 the Gaussian(R) 09 system (copyright 2009, Gaussian, Inc.),
 the Gaussian(R) 03 system (copyright 2003, Gaussian, Inc.),
 the Gaussian(R) 98 system (copyright 1998, Gaussian, Inc.),
 the Gaussian(R) 94 system (copyright 1995, Gaussian, Inc.),
 the Gaussian 92(TM) system (copyright 1992, Gaussian, Inc.),
 the Gaussian 90(TM) system (copyright 1990, Gaussian, Inc.),
 the Gaussian 88(TM) system (copyright 1988, Gaussian, Inc.),
 the Gaussian 86(TM) system (copyright 1986, Carnegie Mellon
 University), and the Gaussian 82(TM) system (copyright 1983,
 Carnegie Mellon University). Gaussian is a federally registered
 trademark of Gaussian, Inc.
  
 This software contains proprietary and confidential information,
 including trade secrets, belonging to Gaussian, Inc.
  
 This software is provided under written license and may be
 used, copied, transmitted, or stored only in accord with that
 written license.
  
 The following legend is applicable only to US Government
 contracts under FAR:
  
                    RESTRICTED RIGHTS LEGEND
  
 Use, reproduction and disclosure by the US Government is
 subject to restrictions as set forth in subparagraphs (a)
 and (c) of the Commercial Computer Software - Restricted
 Rights clause in FAR 52.227-19.
  
 Gaussian, Inc.
 340 Quinnipiac St., Bldg. 40, Wallingford CT 06492
  
  
 ---------------------------------------------------------------
 Warning -- This program may not be used in any manner that
 competes with the business of Gaussian, Inc. or will provide
 assistance to any competitor of Gaussian, Inc.  The licensee
 of this program is prohibited from giving any competitor of
 Gaussian, Inc. access to this program.  By using this program,
 the user acknowledges that Gaussian, Inc. is engaged in the
 business of creating and licensing software in the field of
 computational chemistry and represents and warrants to the
 licensee that it is not a competitor of Gaussian, Inc. and that
 it will not use this program in any manner prohibited above.
 ---------------------------------------------------------------
  

 Cite this work as:
 Gaussian 16, Revision C.01,
 M. J. Frisch, G. W. Trucks, H. B. Schlegel, G. E. Scuseria, 
 M. A. Robb, J. R. Cheeseman, G. Scalmani, V. Barone, 
 G. A. Petersson, H. Nakatsuji, X. Li, M. Caricato, A. V. Marenich, 
 J. Bloino, B. G. Janesko, R. Gomperts, B. Mennucci, H. P. Hratchian, 
 J. V. Ortiz, A. F. Izmaylov, J. L. Sonnenberg, D. Williams-Young, 
 F. Ding, F. Lipparini, F. Egidi, J. Goings, B. Peng, A. Petrone, 
 T. Henderson, D. Ranasinghe, V. G. Zakrzewski, J. Gao, N. Rega, 
 G. Zheng, W. Liang, M. Hada, M. Ehara, K. Toyota, R. Fukuda, 
 J. Hasegawa, M. Ishida, T. Nakajima, Y. Honda, O. Kitao, H. Nakai, 
 T. Vreven, K. Throssell, J. A. Montgomery, Jr., J. E. Peralta, 
 F. Ogliaro, M. J. Bearpark, J. J. Heyd, E. N. Brothers, K. N. Kudin, 
 V. N. Staroverov, T. A. Keith, R. Kobayashi, J. Normand, 
 K. Raghavachari, A. P. Rendell, J. C. Burant, S. S. Iyengar, 
 J. Tomasi, M. Cossi, J. M. Millam, M. Klene, C. Adamo, R. Cammi, 
 J. W. Ochterski, R. L. Martin, K. Morokuma, O. Farkas, 
 J. B. Foresman, and D. J. Fox, Gaussian, Inc., Wallingford CT, 2019.
 
 ******************************************
 Gaussian 16:  ES64L-G16RevC.01  3-Jul-2019
                 1-May-2024 
 ******************************************
 %chk=geometry.chk
 %mem=9GB
 %nprocshared=12
 Will use up to   12 processors via shared memory.
 ---------------------------------------
 #P wB97XD/6-311+G* NoSymm #P Field=X+48
 ---------------------------------------
 1/38=1,172=1/1;
 2/12=2,15=1,17=6,18=5,40=1/2;
 3/5=4,6=6,7=11,11=2,14=1,15=48,25=1,30=1,74=-58/1,2,3;
 4//1;
 5/5=2,38=5/2;
 6/7=2,8=2,9=2,10=2,28=1/1;
 99/5=1,9=1/99;
 Leave Link    1 at Wed May  1 14:27:44 2024, MaxMem=  1207959552 cpu:               1.6 elap:               1.6
 (Enter /software/gaussian/g16-c01/sse4/g16/l101.exe)
 -------
 TitleMe
 -------
 Symbolic Z-matrix:
 Charge =  1 Multiplicity = 1
 C                     0.0295    1.3397    0.0682 
 C                     1.4348    1.2867    0.0064 
 C                     2.1118    0.0511   -0.0054 
 C                     1.4451   -1.1372    0.0312 
 C                    -0.6879    0.1682    0.11 
 H                    -0.4713    2.2984    0.0781 
 H                     2.0273    2.1965   -0.0322 
 H                     1.9897   -2.0764    0.0232 
 H                    -1.7716    0.1804    0.1582 
 N                     3.5864    0.051    -0.0675 
 O                     4.1471   -1.0597   -0.0881 
 O                     4.145     1.1639   -0.0901 
 C                    -0.0236   -1.1458    0.0835 
 H                    -0.4367   -1.8725    0.7889 
 Br                   -0.5359   -1.8697   -1.7408 
 
 ITRead=  0  0  0  0  0  0  0  0  0  0  0  0  0  0  0
 MicOpt= -1 -1 -1 -1 -1 -1 -1 -1 -1 -1 -1 -1 -1 -1 -1
 NAtoms=     15 NQM=       15 NQMF=       0 NMMI=      0 NMMIF=      0
                NMic=       0 NMicF=      0.
                    Isotopes and Nuclear Properties:
 (Nuclear quadrupole moments (NQMom) in fm**2, nuclear magnetic moments (NMagM)
  in nuclear magnetons)

  Atom         1           2           3           4           5           6           7           8           9          10
 IAtWgt=          12          12          12          12          12           1           1           1           1          14
 AtmWgt=  12.0000000  12.0000000  12.0000000  12.0000000  12.0000000   1.0078250   1.0078250   1.0078250   1.0078250  14.0030740
 NucSpn=           0           0           0           0           0           1           1           1           1           2
 AtZEff=  -0.0000000  -0.0000000  -0.0000000  -0.0000000  -0.0000000  -0.0000000  -0.0000000  -0.0000000  -0.0000000  -0.0000000
 NQMom=    0.0000000   0.0000000   0.0000000   0.0000000   0.0000000   0.0000000   0.0000000   0.0000000   0.0000000   2.0440000
 NMagM=    0.0000000   0.0000000   0.0000000   0.0000000   0.0000000   2.7928460   2.7928460   2.7928460   2.7928460   0.4037610
 AtZNuc=   6.0000000   6.0000000   6.0000000   6.0000000   6.0000000   1.0000000   1.0000000   1.0000000   1.0000000   7.0000000

  Atom        11          12          13          14          15
 IAtWgt=          16          16          12           1          79
 AtmWgt=  15.9949146  15.9949146  12.0000000   1.0078250  78.9183361
 NucSpn=           0           0           0           1           3
 AtZEff=  -0.0000000  -0.0000000  -0.0000000  -0.0000000  -0.0000000
 NQMom=    0.0000000   0.0000000   0.0000000   0.0000000  31.3000000
 NMagM=    0.0000000   0.0000000   0.0000000   2.7928460   2.1063990
 AtZNuc=   8.0000000   8.0000000   6.0000000   1.0000000  35.0000000
 Leave Link  101 at Wed May  1 14:27:45 2024, MaxMem=  1207959552 cpu:               1.4 elap:               1.4
 (Enter /software/gaussian/g16-c01/sse4/g16/l202.exe)
                          Input orientation:                          
 ---------------------------------------------------------------------
 Center     Atomic      Atomic             Coordinates (Angstroms)
 Number     Number       Type             X           Y           Z
 ---------------------------------------------------------------------
      1          6           0        0.029500    1.339700    0.068200
      2          6           0        1.434800    1.286700    0.006400
      3          6           0        2.111800    0.051100   -0.005400
      4          6           0        1.445100   -1.137200    0.031200
      5          6           0       -0.687900    0.168200    0.110000
      6          1           0       -0.471300    2.298400    0.078100
      7          1           0        2.027300    2.196500   -0.032200
      8          1           0        1.989700   -2.076400    0.023200
      9          1           0       -1.771600    0.180400    0.158200
     10          7           0        3.586400    0.051000   -0.067500
     11          8           0        4.147100   -1.059700   -0.088100
     12          8           0        4.145000    1.163900   -0.090100
     13          6           0       -0.023600   -1.145800    0.083500
     14          1           0       -0.436700   -1.872500    0.788900
     15         35           0       -0.535900   -1.869700   -1.740800
 ---------------------------------------------------------------------
                    Distance matrix (angstroms):
                    1          2          3          4          5
     1  C    0.000000
     2  C    1.407656   0.000000
     3  C    2.449874   1.408963   0.000000
     4  C    2.853126   2.424049   1.363043   0.000000
     5  C    1.374344   2.401589   2.804523   2.501993   0.000000
     6  H    1.081667   2.159142   3.424870   3.934226   2.141421
     7  H    2.176095   1.086408   2.147231   3.384750   3.392128
     8  H    3.938800   3.408612   2.131193   1.085702   3.495040
     9  H    2.143837   3.395283   3.888995   3.478413   1.084840
    10  N    3.785591   2.482297   1.475907   2.450862   4.279589
    11  O    4.768247   3.587631   2.320164   2.705743   4.992415
    12  O    4.122294   2.714696   2.319353   3.549540   4.938459
    13  C    2.486114   2.837240   2.449573   1.469656   1.472614
    14  H    3.324903   3.754379   3.290289   2.157764   2.165286
    15  Br   3.727252   4.110867   3.702891   2.756973   2.757100
                    6          7          8          9         10
     6  H    0.000000
     7  H    2.503108   0.000000
     8  H    5.019802   4.273425   0.000000
     9  H    2.486588   4.304945   4.388479   0.000000
    10  N    4.640790   2.652397   2.661486   5.364313   0.000000
    11  O    5.712624   3.885809   2.387560   6.052233   1.244373
    12  O    4.756638   2.356750   3.893289   6.002923   1.245428
    13  C    3.473180   3.923079   2.218790   2.195425   3.806210
    14  H    4.231175   4.827242   2.552506   2.528663   4.540772
    15  Br   4.548146   5.101303   3.087568   3.055498   4.845862
                   11         12         13         14         15
    11  O    0.000000
    12  O    2.223602   0.000000
    13  C    4.175117   4.768865   0.000000
    14  H    4.737193   5.566358   1.093770   0.000000
    15  Br   5.031700   5.817075   2.028436   2.531646   0.000000
 Symmetry turned off by external request.
 Stoichiometry    C6H5BrNO2(1+)
 Framework group  C1[X(C6H5BrNO2)]
 Deg. of freedom    39
 Full point group                 C1      NOp   1
 Rotational constants (GHZ):           1.8252210           0.5518633           0.4576002
 Leave Link  202 at Wed May  1 14:27:47 2024, MaxMem=  1207959552 cpu:               1.2 elap:               1.2
 (Enter /software/gaussian/g16-c01/sse4/g16/l301.exe)
 Standard basis: 6-311+G(d) (5D, 7F)
 Ernie: Thresh=  0.10000D-02 Tol=  0.10000D-05 Strict=F.
 The following finite field(s) will be applied:
 An electric field of              0.0048  0.0000  0.0000
   261 basis functions,   443 primitive gaussians,   273 cartesian basis functions
    49 alpha electrons       49 beta electrons
       nuclear repulsion energy       739.2122215416 Hartrees.
 IExCor= 4639 DFT=T Ex+Corr=wB97XD ExCW=0 ScaHFX=  1.000000
 ScaDFX=  1.000000  1.000000  1.000000  1.000000 ScalE2=  1.000000  1.000000
 IRadAn=      5 IRanWt=     -1 IRanGd=            0 ICorTp=0 IEmpDi=121
 HFx  wShort=  0.000000 wLong=  0.200000 cFull=  0.222036 cShort=  0.000000 cLong=  0.777964
 DFx  wShort=  0.000000 wLong=  0.200000 cFull=  0.000000 cShort=  0.000000 cLong=  1.000000
 NAtoms=   15 NActive=   15 NUniq=   15 SFac= 1.00D+00 NAtFMM=   60 NAOKFM=F Big=F
 Integral buffers will be    131072 words long.
 Raffenetti 2 integral format.
 Two-electron integral symmetry is turned off.
 R6Disp:  Grimme-D2 Dispersion energy=       -0.0077368520 Hartrees.
 Nuclear repulsion after empirical dispersion term =      739.2044846896 Hartrees.
 Leave Link  301 at Wed May  1 14:27:48 2024, MaxMem=  1207959552 cpu:               0.9 elap:               0.9
 (Enter /software/gaussian/g16-c01/sse4/g16/l302.exe)
 NPDir=0 NMtPBC=     1 NCelOv=     1 NCel=       1 NClECP=     1 NCelD=      1
         NCelK=      1 NCelE2=     1 NClLst=     1 CellRange=     0.0.
 One-electron integrals computed using PRISM.
 NBasis=   261 RedAO= T EigKep=  2.35D-06  NBF=   261
 NBsUse=   261 1.00D-06 EigRej= -1.00D+00 NBFU=   261
 Precomputing XC quadrature grid using
 IXCGrd= 4 IRadAn=           5 IRanWt=          -1 IRanGd=           0 AccXCQ= 0.00D+00.
 Generated NRdTot=       0 NPtTot=           0 NUsed=           0 NTot=          32
 NSgBfM=   273   273   273   273   273 MxSgAt=    15 MxSgA2=    15.
 Leave Link  302 at Wed May  1 14:28:10 2024, MaxMem=  1207959552 cpu:              21.5 elap:              21.5
 (Enter /software/gaussian/g16-c01/sse4/g16/l303.exe)
 DipDrv:  MaxL=1.
 The nuclear repulsion energy is now       740.1104710966 hartrees.
 Leave Link  303 at Wed May  1 14:28:13 2024, MaxMem=  1207959552 cpu:               3.2 elap:               3.2
 (Enter /software/gaussian/g16-c01/sse4/g16/l401.exe)
 ExpMin= 3.50D-02 ExpMax= 4.40D+05 ExpMxC= 1.51D+04 IAcc=3 IRadAn=         5 AccDes= 0.00D+00
 Harris functional with IExCor= 4639 and IRadAn=       5 diagonalized for initial guess.
 HarFok:  IExCor= 4639 AccDes= 0.00D+00 IRadAn=         5 IDoV= 1 UseB2=F ITyADJ=14
 ICtDFT=  3500011 ScaDFX=  1.000000  1.000000  1.000000  1.000000
 FoFCou: FMM=F IPFlag=           0 FMFlag=      100000 FMFlg1=           0
         NFxFlg=           0 DoJE=T BraDBF=F KetDBF=T FulRan=T
         wScrn=  0.000000 ICntrl=       500 IOpCl=  0 I1Cent=   200000004 NGrid=           0
         NMat0=    1 NMatS0=      1 NMatT0=    0 NMatD0=    1 NMtDS0=    0 NMtDT0=    0
 Symmetry not used in FoFCou.
 Harris En= -2970.59893171251    
 JPrj=0 DoOrth=F DoCkMO=F.
 Leave Link  401 at Wed May  1 14:28:42 2024, MaxMem=  1207959552 cpu:              29.4 elap:              29.4
 (Enter /software/gaussian/g16-c01/sse4/g16/l502.exe)
 Two-electron integral symmetry not used.
 Closed shell SCF:
 Using DIIS extrapolation, IDIIS=  1040.
 NGot=  1207959552 LenX=  1207804877 LenY=  1207729907
 Requested convergence on RMS density matrix=1.00D-08 within 128 cycles.
 Requested convergence on MAX density matrix=1.00D-06.
 Requested convergence on             energy=1.00D-06.
 No special actions if energy rises.
 Fock matrices will be formed incrementally for  20 cycles.

 Cycle   1  Pass 1  IDiag  1:
 FoFJK:  IHMeth= 1 ICntrl=       0 DoSepK=T KAlg= 0 I1Cent=           0 FoldK=F
 IRaf=         1 NMat=       1 IRICut=       1 DoRegI=T DoRafI=F ISym2E= 0 IDoP0=0 IntGTp=1.
 FoFCou: FMM=F IPFlag=           0 FMFlag=      100000 FMFlg1=           0
         NFxFlg=           0 DoJE=T BraDBF=F KetDBF=F FulRan=T
         wScrn=  0.000000 ICntrl=       500 IOpCl=  0 I1Cent=           0 NGrid=           0
         NMat0=    1 NMatS0=      1 NMatT0=    0 NMatD0=    1 NMtDS0=    0 NMtDT0=    0
 Symmetry not used in FoFCou.
 E= -3009.73409267134    
 DIIS: error= 3.20D-01 at cycle   1 NSaved=   1.
 NSaved= 1 IEnMin= 1 EnMin= -3009.73409267134     IErMin= 1 ErrMin= 3.20D-01
 ErrMax= 3.20D-01  0.00D+00 EMaxC= 1.00D-01 BMatC= 1.19D+01 BMatP= 1.19D+01
 IDIUse=3 WtCom= 0.00D+00 WtEn= 1.00D+00
 Coeff-Com:  0.100D+01
 Coeff-En:   0.100D+01
 Coeff:      0.100D+01
 Gap=     0.318 Goal=   None    Shift=    0.000
 GapD=    0.318 DampG=1.000 DampE=0.250 DampFc=0.2500 IDamp=-1.
 Damping current iteration by 2.50D-01
 RMSDP=4.23D-02 MaxDP=4.11D+00              OVMax= 2.59D-01

 Cycle   2  Pass 1  IDiag  1:
 RMSU=  4.03D-03    CP:  8.93D-01
 E= -3010.01490135227     Delta-E=       -0.280808680930 Rises=F Damp=T
 DIIS: error= 2.25D-01 at cycle   2 NSaved=   2.
 NSaved= 2 IEnMin= 2 EnMin= -3010.01490135227     IErMin= 2 ErrMin= 2.25D-01
 ErrMax= 2.25D-01  0.00D+00 EMaxC= 1.00D-01 BMatC= 5.45D+00 BMatP= 1.19D+01
 IDIUse=3 WtCom= 0.00D+00 WtEn= 1.00D+00
 Coeff-Com: -0.184D+01 0.284D+01
 Coeff-En:   0.000D+00 0.100D+01
 Coeff:      0.000D+00 0.100D+01
 Gap=     0.293 Goal=   None    Shift=    0.000
 RMSDP=3.31D-02 MaxDP=3.25D+00 DE=-2.81D-01 OVMax= 7.40D-02

 Cycle   3  Pass 1  IDiag  1:
 RMSU=  4.19D-03    CP:  5.48D-01  3.00D+00
 E= -3010.38961193206     Delta-E=       -0.374710579783 Rises=F Damp=F
 DIIS: error= 6.57D-02 at cycle   3 NSaved=   3.
 NSaved= 3 IEnMin= 3 EnMin= -3010.38961193206     IErMin= 3 ErrMin= 6.57D-02
 ErrMax= 6.57D-02  0.00D+00 EMaxC= 1.00D-01 BMatC= 7.33D-01 BMatP= 5.45D+00
 IDIUse=3 WtCom= 3.43D-01 WtEn= 6.57D-01
 Coeff-Com:  0.276D+01-0.364D+01 0.187D+01
 Coeff-En:   0.275D-01 0.000D+00 0.972D+00
 Coeff:      0.965D+00-0.125D+01 0.128D+01
 Gap=     0.260 Goal=   None    Shift=    0.000
 RMSDP=8.05D-03 MaxDP=4.44D-01 DE=-3.75D-01 OVMax= 6.67D-02

 Cycle   4  Pass 1  IDiag  1:
 RMSU=  4.64D-03    CP:  5.60D-01  2.20D+00  2.08D+00
 E= -3010.49242806074     Delta-E=       -0.102816128681 Rises=F Damp=F
 DIIS: error= 3.82D-02 at cycle   4 NSaved=   4.
 NSaved= 4 IEnMin= 4 EnMin= -3010.49242806074     IErMin= 4 ErrMin= 3.82D-02
 ErrMax= 3.82D-02  0.00D+00 EMaxC= 1.00D-01 BMatC= 2.29D-01 BMatP= 7.33D-01
 IDIUse=3 WtCom= 6.18D-01 WtEn= 3.82D-01
 Coeff-Com: -0.203D+00 0.283D+00 0.260D+00 0.660D+00
 Coeff-En:   0.000D+00 0.000D+00 0.197D+00 0.803D+00
 Coeff:     -0.125D+00 0.175D+00 0.236D+00 0.714D+00
 Gap=     0.264 Goal=   None    Shift=    0.000
 RMSDP=3.16D-03 MaxDP=2.15D-01 DE=-1.03D-01 OVMax= 2.85D-02

 Cycle   5  Pass 1  IDiag  1:
 RMSU=  1.24D-03    CP:  5.34D-01  2.57D+00  1.95D+00  9.02D-01
 E= -3010.53672162610     Delta-E=       -0.044293565362 Rises=F Damp=F
 DIIS: error= 6.75D-03 at cycle   5 NSaved=   5.
 NSaved= 5 IEnMin= 5 EnMin= -3010.53672162610     IErMin= 5 ErrMin= 6.75D-03
 ErrMax= 6.75D-03  0.00D+00 EMaxC= 1.00D-01 BMatC= 7.11D-03 BMatP= 2.29D-01
 IDIUse=3 WtCom= 9.32D-01 WtEn= 6.75D-02
 Coeff-Com: -0.136D+00 0.184D+00 0.372D-01 0.314D+00 0.601D+00
 Coeff-En:   0.000D+00 0.000D+00 0.000D+00 0.000D+00 0.100D+01
 Coeff:     -0.127D+00 0.172D+00 0.347D-01 0.292D+00 0.628D+00
 Gap=     0.254 Goal=   None    Shift=    0.000
 RMSDP=5.55D-04 MaxDP=4.30D-02 DE=-4.43D-02 OVMax= 1.04D-02

 Cycle   6  Pass 1  IDiag  1:
 RMSU=  4.15D-04    CP:  5.33D-01  2.55D+00  1.96D+00  8.96D-01  7.22D-01
 E= -3010.53814284017     Delta-E=       -0.001421214068 Rises=F Damp=F
 DIIS: error= 1.15D-03 at cycle   6 NSaved=   6.
 NSaved= 6 IEnMin= 6 EnMin= -3010.53814284017     IErMin= 6 ErrMin= 1.15D-03
 ErrMax= 1.15D-03  0.00D+00 EMaxC= 1.00D-01 BMatC= 1.44D-04 BMatP= 7.11D-03
 IDIUse=3 WtCom= 9.89D-01 WtEn= 1.15D-02
 Coeff-Com: -0.844D-01 0.113D+00-0.515D-02 0.141D+00 0.357D+00 0.478D+00
 Coeff-En:   0.000D+00 0.000D+00 0.000D+00 0.000D+00 0.000D+00 0.100D+01
 Coeff:     -0.835D-01 0.112D+00-0.509D-02 0.139D+00 0.353D+00 0.484D+00
 Gap=     0.254 Goal=   None    Shift=    0.000
 RMSDP=1.80D-04 MaxDP=1.14D-02 DE=-1.42D-03 OVMax= 5.02D-03

 Cycle   7  Pass 1  IDiag  1:
 RMSU=  9.49D-05    CP:  5.32D-01  2.54D+00  1.97D+00  9.04D-01  8.07D-01
                    CP:  8.37D-01
 E= -3010.53824232578     Delta-E=       -0.000099485613 Rises=F Damp=F
 DIIS: error= 4.91D-04 at cycle   7 NSaved=   7.
 NSaved= 7 IEnMin= 7 EnMin= -3010.53824232578     IErMin= 7 ErrMin= 4.91D-04
 ErrMax= 4.91D-04  0.00D+00 EMaxC= 1.00D-01 BMatC= 2.16D-05 BMatP= 1.44D-04
 IDIUse=3 WtCom= 9.95D-01 WtEn= 4.91D-03
 Coeff-Com: -0.346D-01 0.461D-01-0.121D-01 0.358D-01 0.110D+00 0.292D+00
 Coeff-Com:  0.562D+00
 Coeff-En:   0.000D+00 0.000D+00 0.000D+00 0.000D+00 0.000D+00 0.353D-01
 Coeff-En:   0.965D+00
 Coeff:     -0.344D-01 0.458D-01-0.121D-01 0.357D-01 0.109D+00 0.291D+00
 Coeff:      0.564D+00
 Gap=     0.255 Goal=   None    Shift=    0.000
 RMSDP=8.38D-05 MaxDP=5.36D-03 DE=-9.95D-05 OVMax= 1.93D-03

 Cycle   8  Pass 1  IDiag  1:
 RMSU=  4.66D-05    CP:  5.32D-01  2.54D+00  1.98D+00  9.11D-01  8.32D-01
                    CP:  8.66D-01  8.53D-01
 E= -3010.53825916408     Delta-E=       -0.000016838297 Rises=F Damp=F
 DIIS: error= 1.17D-04 at cycle   8 NSaved=   8.
 NSaved= 8 IEnMin= 8 EnMin= -3010.53825916408     IErMin= 8 ErrMin= 1.17D-04
 ErrMax= 1.17D-04  0.00D+00 EMaxC= 1.00D-01 BMatC= 2.08D-06 BMatP= 2.16D-05
 IDIUse=3 WtCom= 9.99D-01 WtEn= 1.17D-03
 Coeff-Com:  0.450D-02-0.621D-02-0.292D-02-0.131D-01-0.333D-01-0.925D-02
 Coeff-Com:  0.184D+00 0.876D+00
 Coeff-En:   0.000D+00 0.000D+00 0.000D+00 0.000D+00 0.000D+00 0.000D+00
 Coeff-En:   0.000D+00 0.100D+01
 Coeff:      0.450D-02-0.621D-02-0.292D-02-0.131D-01-0.333D-01-0.924D-02
 Coeff:      0.184D+00 0.877D+00
 Gap=     0.254 Goal=   None    Shift=    0.000
 RMSDP=4.71D-05 MaxDP=3.45D-03 DE=-1.68D-05 OVMax= 8.38D-04

 Cycle   9  Pass 1  IDiag  1:
 RMSU=  1.88D-05    CP:  5.32D-01  2.53D+00  1.98D+00  9.12D-01  8.34D-01
                    CP:  9.33D-01  1.02D+00  1.19D+00
 E= -3010.53826199415     Delta-E=       -0.000002830070 Rises=F Damp=F
 DIIS: error= 2.07D-05 at cycle   9 NSaved=   9.
 NSaved= 9 IEnMin= 9 EnMin= -3010.53826199415     IErMin= 9 ErrMin= 2.07D-05
 ErrMax= 2.07D-05  0.00D+00 EMaxC= 1.00D-01 BMatC= 1.68D-07 BMatP= 2.08D-06
 IDIUse=1 WtCom= 1.00D+00 WtEn= 0.00D+00
 Coeff-Com:  0.599D-02-0.805D-02 0.510D-03-0.902D-02-0.229D-01-0.387D-01
 Coeff-Com: -0.134D-01 0.276D+00 0.809D+00
 Coeff:      0.599D-02-0.805D-02 0.510D-03-0.902D-02-0.229D-01-0.387D-01
 Coeff:     -0.134D-01 0.276D+00 0.809D+00
 Gap=     0.255 Goal=   None    Shift=    0.000
 RMSDP=1.43D-05 MaxDP=7.58D-04 DE=-2.83D-06 OVMax= 3.59D-04

 Cycle  10  Pass 1  IDiag  1:
 RMSU=  6.32D-06    CP:  5.32D-01  2.53D+00  1.98D+00  9.13D-01  8.38D-01
                    CP:  9.45D-01  1.06D+00  1.29D+00  1.09D+00
 E= -3010.53826236405     Delta-E=       -0.000000369907 Rises=F Damp=F
 DIIS: error= 1.40D-05 at cycle  10 NSaved=  10.
 NSaved=10 IEnMin=10 EnMin= -3010.53826236405     IErMin=10 ErrMin= 1.40D-05
 ErrMax= 1.40D-05  0.00D+00 EMaxC= 1.00D-01 BMatC= 4.02D-08 BMatP= 1.68D-07
 IDIUse=1 WtCom= 1.00D+00 WtEn= 0.00D+00
 Coeff-Com:  0.757D-03-0.100D-02 0.262D-03-0.842D-03-0.149D-03-0.588D-02
 Coeff-Com: -0.250D-01-0.394D-01 0.250D+00 0.821D+00
 Coeff:      0.757D-03-0.100D-02 0.262D-03-0.842D-03-0.149D-03-0.588D-02
 Coeff:     -0.250D-01-0.394D-01 0.250D+00 0.821D+00
 Gap=     0.255 Goal=   None    Shift=    0.000
 RMSDP=6.18D-06 MaxDP=4.48D-04 DE=-3.70D-07 OVMax= 1.36D-04

 Cycle  11  Pass 1  IDiag  1:
 RMSU=  2.72D-06    CP:  5.32D-01  2.53D+00  1.98D+00  9.12D-01  8.38D-01
                    CP:  9.51D-01  1.07D+00  1.29D+00  1.21D+00  9.94D-01
 E= -3010.53826242117     Delta-E=       -0.000000057115 Rises=F Damp=F
 DIIS: error= 3.86D-06 at cycle  11 NSaved=  11.
 NSaved=11 IEnMin=11 EnMin= -3010.53826242117     IErMin=11 ErrMin= 3.86D-06
 ErrMax= 3.86D-06  0.00D+00 EMaxC= 1.00D-01 BMatC= 2.17D-09 BMatP= 4.02D-08
 IDIUse=1 WtCom= 1.00D+00 WtEn= 0.00D+00
 Coeff-Com: -0.124D-03 0.167D-03 0.334D-04 0.465D-03 0.201D-02 0.390D-02
 Coeff-Com:  0.231D-02-0.240D-01-0.643D-01 0.770D-02 0.107D+01
 Coeff:     -0.124D-03 0.167D-03 0.334D-04 0.465D-03 0.201D-02 0.390D-02
 Coeff:      0.231D-02-0.240D-01-0.643D-01 0.770D-02 0.107D+01
 Gap=     0.255 Goal=   None    Shift=    0.000
 RMSDP=2.49D-06 MaxDP=1.21D-04 DE=-5.71D-08 OVMax= 8.29D-05

 Cycle  12  Pass 1  IDiag  1:
 RMSU=  7.90D-07    CP:  5.33D-01  2.53D+00  1.98D+00  9.12D-01  8.38D-01
                    CP:  9.53D-01  1.07D+00  1.29D+00  1.26D+00  1.15D+00
                    CP:  1.26D+00
 E= -3010.53826243216     Delta-E=       -0.000000010990 Rises=F Damp=F
 DIIS: error= 1.39D-06 at cycle  12 NSaved=  12.
 NSaved=12 IEnMin=12 EnMin= -3010.53826243216     IErMin=12 ErrMin= 1.39D-06
 ErrMax= 1.39D-06  0.00D+00 EMaxC= 1.00D-01 BMatC= 1.03D-09 BMatP= 2.17D-09
 IDIUse=1 WtCom= 1.00D+00 WtEn= 0.00D+00
 Coeff-Com: -0.165D-03 0.219D-03-0.166D-04 0.360D-03 0.861D-03 0.286D-02
 Coeff-Com:  0.601D-02-0.521D-02-0.816D-01-0.175D+00 0.547D+00 0.705D+00
 Coeff:     -0.165D-03 0.219D-03-0.166D-04 0.360D-03 0.861D-03 0.286D-02
 Coeff:      0.601D-02-0.521D-02-0.816D-01-0.175D+00 0.547D+00 0.705D+00
 Gap=     0.255 Goal=   None    Shift=    0.000
 RMSDP=1.35D-06 MaxDP=6.71D-05 DE=-1.10D-08 OVMax= 3.34D-05

 Cycle  13  Pass 1  IDiag  1:
 RMSU=  4.85D-07    CP:  5.33D-01  2.53D+00  1.98D+00  9.12D-01  8.37D-01
                    CP:  9.55D-01  1.07D+00  1.29D+00  1.29D+00  1.18D+00
                    CP:  1.53D+00  1.13D+00
 E= -3010.53826243493     Delta-E=       -0.000000002769 Rises=F Damp=F
 DIIS: error= 5.55D-07 at cycle  13 NSaved=  13.
 NSaved=13 IEnMin=13 EnMin= -3010.53826243493     IErMin=13 ErrMin= 5.55D-07
 ErrMax= 5.55D-07  0.00D+00 EMaxC= 1.00D-01 BMatC= 9.29D-11 BMatP= 1.03D-09
 IDIUse=1 WtCom= 1.00D+00 WtEn= 0.00D+00
 Coeff-Com: -0.126D-04 0.169D-04-0.780D-05-0.489D-04-0.408D-03-0.739D-03
 Coeff-Com: -0.303D-03 0.332D-02 0.110D-01-0.128D-01-0.102D+00-0.350D-01
 Coeff-Com:  0.114D+01
 Coeff:     -0.126D-04 0.169D-04-0.780D-05-0.489D-04-0.408D-03-0.739D-03
 Coeff:     -0.303D-03 0.332D-02 0.110D-01-0.128D-01-0.102D+00-0.350D-01
 Coeff:      0.114D+01
 Gap=     0.255 Goal=   None    Shift=    0.000
 RMSDP=3.65D-07 MaxDP=2.12D-05 DE=-2.77D-09 OVMax= 2.47D-05

 Cycle  14  Pass 1  IDiag  1:
 RMSU=  1.67D-07    CP:  5.33D-01  2.53D+00  1.98D+00  9.12D-01  8.37D-01
                    CP:  9.55D-01  1.06D+00  1.29D+00  1.29D+00  1.18D+00
                    CP:  1.60D+00  1.27D+00  1.36D+00
 E= -3010.53826243549     Delta-E=       -0.000000000564 Rises=F Damp=F
 DIIS: error= 2.33D-07 at cycle  14 NSaved=  14.
 NSaved=14 IEnMin=14 EnMin= -3010.53826243549     IErMin=14 ErrMin= 2.33D-07
 ErrMax= 2.33D-07  0.00D+00 EMaxC= 1.00D-01 BMatC= 2.74D-11 BMatP= 9.29D-11
 IDIUse=1 WtCom= 1.00D+00 WtEn= 0.00D+00
 Coeff-Com:  0.120D-04-0.157D-04-0.298D-05-0.641D-04-0.245D-03-0.648D-03
 Coeff-Com: -0.997D-03 0.189D-02 0.175D-01 0.219D-01-0.121D+00-0.173D+00
 Coeff-Com:  0.396D+00 0.859D+00
 Coeff:      0.120D-04-0.157D-04-0.298D-05-0.641D-04-0.245D-03-0.648D-03
 Coeff:     -0.997D-03 0.189D-02 0.175D-01 0.219D-01-0.121D+00-0.173D+00
 Coeff:      0.396D+00 0.859D+00
 Gap=     0.255 Goal=   None    Shift=    0.000
 RMSDP=2.22D-07 MaxDP=1.42D-05 DE=-5.64D-10 OVMax= 1.28D-05

 Cycle  15  Pass 1  IDiag  1:
 RMSU=  5.94D-08    CP:  5.33D-01  2.53D+00  1.98D+00  9.12D-01  8.37D-01
                    CP:  9.55D-01  1.06D+00  1.28D+00  1.30D+00  1.19D+00
                    CP:  1.64D+00  1.34D+00  1.62D+00  1.17D+00
 E= -3010.53826243564     Delta-E=       -0.000000000146 Rises=F Damp=F
 DIIS: error= 1.43D-07 at cycle  15 NSaved=  15.
 NSaved=15 IEnMin=15 EnMin= -3010.53826243564     IErMin=15 ErrMin= 1.43D-07
 ErrMax= 1.43D-07  0.00D+00 EMaxC= 1.00D-01 BMatC= 6.30D-12 BMatP= 2.74D-11
 IDIUse=1 WtCom= 1.00D+00 WtEn= 0.00D+00
 Coeff-Com:  0.103D-04-0.137D-04 0.126D-05-0.581D-05 0.606D-04 0.659D-04
 Coeff-Com: -0.139D-03-0.535D-03 0.174D-02 0.865D-02 0.819D-03-0.594D-01
 Coeff-Com: -0.199D+00 0.298D+00 0.950D+00
 Coeff:      0.103D-04-0.137D-04 0.126D-05-0.581D-05 0.606D-04 0.659D-04
 Coeff:     -0.139D-03-0.535D-03 0.174D-02 0.865D-02 0.819D-03-0.594D-01
 Coeff:     -0.199D+00 0.298D+00 0.950D+00
 Gap=     0.255 Goal=   None    Shift=    0.000
 RMSDP=1.26D-07 MaxDP=5.55D-06 DE=-1.46D-10 OVMax= 7.50D-06

 Cycle  16  Pass 1  IDiag  1:
 RMSU=  3.61D-08    CP:  5.33D-01  2.53D+00  1.98D+00  9.12D-01  8.37D-01
                    CP:  9.55D-01  1.06D+00  1.28D+00  1.30D+00  1.19D+00
                    CP:  1.66D+00  1.35D+00  1.77D+00  1.42D+00  1.37D+00
 E= -3010.53826243570     Delta-E=       -0.000000000062 Rises=F Damp=F
 DIIS: error= 5.63D-08 at cycle  16 NSaved=  16.
 NSaved=16 IEnMin=16 EnMin= -3010.53826243570     IErMin=16 ErrMin= 5.63D-08
 ErrMax= 5.63D-08  0.00D+00 EMaxC= 1.00D-01 BMatC= 7.07D-13 BMatP= 6.30D-12
 IDIUse=1 WtCom= 1.00D+00 WtEn= 0.00D+00
 Coeff-Com:  0.169D-05-0.229D-05 0.986D-06 0.751D-05 0.557D-04 0.126D-03
 Coeff-Com:  0.980D-04-0.533D-03-0.204D-02-0.305D-03 0.202D-01 0.367D-02
 Coeff-Com: -0.113D+00-0.192D-01 0.253D+00 0.858D+00
 Coeff:      0.169D-05-0.229D-05 0.986D-06 0.751D-05 0.557D-04 0.126D-03
 Coeff:      0.980D-04-0.533D-03-0.204D-02-0.305D-03 0.202D-01 0.367D-02
 Coeff:     -0.113D+00-0.192D-01 0.253D+00 0.858D+00
 Gap=     0.255 Goal=   None    Shift=    0.000
 RMSDP=3.00D-08 MaxDP=1.03D-06 DE=-6.18D-11 OVMax= 2.21D-06

 Cycle  17  Pass 1  IDiag  1:
 RMSU=  1.03D-08    CP:  5.33D-01  2.53D+00  1.98D+00  9.12D-01  8.37D-01
                    CP:  9.55D-01  1.06D+00  1.28D+00  1.30D+00  1.19D+00
                    CP:  1.67D+00  1.35D+00  1.80D+00  1.47D+00  1.64D+00
                    CP:  1.16D+00
 E= -3010.53826243565     Delta-E=        0.000000000047 Rises=F Damp=F
 DIIS: error= 1.80D-08 at cycle  17 NSaved=  17.
 NSaved=17 IEnMin=16 EnMin= -3010.53826243570     IErMin=17 ErrMin= 1.80D-08
 ErrMax= 1.80D-08  0.00D+00 EMaxC= 1.00D-01 BMatC= 1.43D-13 BMatP= 7.07D-13
 IDIUse=1 WtCom= 1.00D+00 WtEn= 0.00D+00
 Coeff-Com: -0.444D-06 0.592D-06 0.163D-06 0.130D-05 0.334D-07 0.136D-04
 Coeff-Com:  0.381D-04-0.101D-04-0.597D-03-0.111D-02 0.380D-02 0.802D-02
 Coeff-Com:  0.446D-02-0.515D-01-0.127D+00 0.213D+00 0.950D+00
 Coeff:     -0.444D-06 0.592D-06 0.163D-06 0.130D-05 0.334D-07 0.136D-04
 Coeff:      0.381D-04-0.101D-04-0.597D-03-0.111D-02 0.380D-02 0.802D-02
 Coeff:      0.446D-02-0.515D-01-0.127D+00 0.213D+00 0.950D+00
 Gap=     0.255 Goal=   None    Shift=    0.000
 RMSDP=1.97D-08 MaxDP=1.00D-06 DE= 4.73D-11 OVMax= 1.20D-06

 Cycle  18  Pass 1  IDiag  1:
 RMSU=  5.09D-09    CP:  5.33D-01  2.53D+00  1.98D+00  9.12D-01  8.37D-01
                    CP:  9.55D-01  1.06D+00  1.28D+00  1.30D+00  1.19D+00
                    CP:  1.67D+00  1.35D+00  1.82D+00  1.50D+00  1.72D+00
                    CP:  1.40D+00  1.32D+00
 E= -3010.53826243565     Delta-E=        0.000000000007 Rises=F Damp=F
 DIIS: error= 6.43D-09 at cycle  18 NSaved=  18.
 NSaved=18 IEnMin=16 EnMin= -3010.53826243570     IErMin=18 ErrMin= 6.43D-09
 ErrMax= 6.43D-09  0.00D+00 EMaxC= 1.00D-01 BMatC= 2.65D-14 BMatP= 1.43D-13
 IDIUse=1 WtCom= 1.00D+00 WtEn= 0.00D+00
 Coeff-Com: -0.620D-07 0.854D-07-0.912D-07-0.148D-05-0.110D-04-0.196D-04
 Coeff-Com: -0.674D-05 0.108D-03 0.220D-03-0.338D-03-0.277D-02 0.892D-03
 Coeff-Com:  0.251D-01-0.442D-02-0.816D-01-0.114D+00 0.270D+00 0.907D+00
 Coeff:     -0.620D-07 0.854D-07-0.912D-07-0.148D-05-0.110D-04-0.196D-04
 Coeff:     -0.674D-05 0.108D-03 0.220D-03-0.338D-03-0.277D-02 0.892D-03
 Coeff:      0.251D-01-0.442D-02-0.816D-01-0.114D+00 0.270D+00 0.907D+00
 Gap=     0.255 Goal=   None    Shift=    0.000
 RMSDP=7.05D-09 MaxDP=5.50D-07 DE= 7.28D-12 OVMax= 2.77D-07

 SCF Done:  E(RwB97XD) =  -3010.53826244     A.U. after   18 cycles
            NFock= 18  Conv=0.71D-08     -V/T= 2.0016
 KE= 3.005850258228D+03 PE=-8.632984317856D+03 EE= 1.876485326096D+03
 Leave Link  502 at Wed May  1 14:45:39 2024, MaxMem=  1207959552 cpu:            1016.8 elap:            1016.8
 (Enter /software/gaussian/g16-c01/sse4/g16/l601.exe)
 Copying SCF densities to generalized density rwf, IOpCl= 0 IROHF=0.

 **********************************************************************

            Population analysis using the SCF Density.

 **********************************************************************

 Alpha  occ. eigenvalues -- -483.31401 -62.86420 -56.66117 -56.65539 -56.65535
 Alpha  occ. eigenvalues --  -19.48135 -19.48060 -14.87571 -10.58490 -10.58158
 Alpha  occ. eigenvalues --  -10.58084 -10.57756 -10.57024 -10.53189  -9.02221
 Alpha  occ. eigenvalues --   -6.84912  -6.83019  -6.83002  -2.94814  -2.94312
 Alpha  occ. eigenvalues --   -2.94296  -2.92783  -2.92782  -1.51889  -1.34893
 Alpha  occ. eigenvalues --   -1.23227  -1.14734  -1.12246  -1.04736  -1.02125
 Alpha  occ. eigenvalues --   -0.95934  -0.91666  -0.86567  -0.82061  -0.81968
 Alpha  occ. eigenvalues --   -0.81566  -0.78724  -0.78038  -0.76375  -0.72762
 Alpha  occ. eigenvalues --   -0.69668  -0.67996  -0.64201  -0.60541  -0.59365
 Alpha  occ. eigenvalues --   -0.58586  -0.57964  -0.56443  -0.55462
 Alpha virt. eigenvalues --   -0.30008  -0.22945  -0.15966  -0.14191  -0.09027
 Alpha virt. eigenvalues --   -0.06494  -0.06068  -0.05237  -0.04984  -0.03568
 Alpha virt. eigenvalues --   -0.03008  -0.02486  -0.01683  -0.00765   0.00204
 Alpha virt. eigenvalues --    0.00505   0.01169   0.01541   0.02079   0.02698
 Alpha virt. eigenvalues --    0.03511   0.04245   0.04474   0.05198   0.05467
 Alpha virt. eigenvalues --    0.06473   0.06593   0.07098   0.08125   0.09026
 Alpha virt. eigenvalues --    0.09852   0.10063   0.10319   0.10536   0.11452
 Alpha virt. eigenvalues --    0.11557   0.11956   0.12587   0.14236   0.15016
 Alpha virt. eigenvalues --    0.15891   0.16674   0.16870   0.17266   0.18305
 Alpha virt. eigenvalues --    0.18857   0.19199   0.19791   0.20969   0.22428
 Alpha virt. eigenvalues --    0.22745   0.25041   0.26830   0.29212   0.30882
 Alpha virt. eigenvalues --    0.31508   0.31712   0.33017   0.33886   0.34388
 Alpha virt. eigenvalues --    0.36683   0.36993   0.38437   0.40264   0.41365
 Alpha virt. eigenvalues --    0.42034   0.42907   0.43043   0.45801   0.45931
 Alpha virt. eigenvalues --    0.46893   0.49741   0.50153   0.51833   0.52178
 Alpha virt. eigenvalues --    0.53401   0.54487   0.56125   0.56380   0.58639
 Alpha virt. eigenvalues --    0.61113   0.61661   0.63837   0.66591   0.67991
 Alpha virt. eigenvalues --    0.69855   0.70445   0.72516   0.72874   0.73694
 Alpha virt. eigenvalues --    0.74034   0.77818   0.78835   0.82472   0.83974
 Alpha virt. eigenvalues --    0.85687   0.86458   0.90866   0.92126   0.96883
 Alpha virt. eigenvalues --    0.97112   0.99993   1.03595   1.04268   1.05747
 Alpha virt. eigenvalues --    1.07721   1.09290   1.10027   1.10455   1.11993
 Alpha virt. eigenvalues --    1.19694   1.23148   1.25461   1.32373   1.35803
 Alpha virt. eigenvalues --    1.36240   1.37381   1.44585   1.53466   1.56096
 Alpha virt. eigenvalues --    1.56869   1.57334   1.59792   1.61250   1.65748
 Alpha virt. eigenvalues --    1.67983   1.69109   1.73019   1.73297   1.78322
 Alpha virt. eigenvalues --    1.80753   1.84692   1.86359   1.93101   1.95120
 Alpha virt. eigenvalues --    1.96947   2.01527   2.02777   2.06406   2.07469
 Alpha virt. eigenvalues --    2.08950   2.14121   2.19575   2.21420   2.28891
 Alpha virt. eigenvalues --    2.36298   2.39826   2.41769   2.42707   2.51801
 Alpha virt. eigenvalues --    2.56123   2.62257   2.65272   2.67248   2.69735
 Alpha virt. eigenvalues --    2.71509   2.74447   2.76209   2.78863   2.81092
 Alpha virt. eigenvalues --    2.92959   2.95670   2.98480   3.05030   3.07953
 Alpha virt. eigenvalues --    3.12057   3.14151   3.18408   3.21746   3.23552
 Alpha virt. eigenvalues --    3.24986   3.37667   3.47110   3.49940   3.52823
 Alpha virt. eigenvalues --    3.55469   3.67781   3.71850   3.81510   3.86472
 Alpha virt. eigenvalues --    4.08772   4.09001   4.16442   4.21683   4.41968
 Alpha virt. eigenvalues --    4.42488   4.56638   4.58105   4.90783   4.93426
 Alpha virt. eigenvalues --    5.02087   5.06254   5.60549   6.13381   6.64474
 Alpha virt. eigenvalues --    7.47453   7.49024   7.58777  23.20721  23.60664
 Alpha virt. eigenvalues --   23.69249  23.78834  23.95460  24.00674  35.30393
 Alpha virt. eigenvalues --   47.91020  49.83277  49.92087 289.80342 289.82009
 Alpha virt. eigenvalues --  289.944451020.91431
          Condensed to atoms (all electrons):
               1          2          3          4          5          6
     1  C    8.605503  -2.236472   0.320484  -1.470827  -0.658680   0.306730
     2  C   -2.236472  12.786602  -1.898926  -2.691197   0.884530  -0.016109
     3  C    0.320484  -1.898926  12.881525  -2.859119  -1.295669   0.021171
     4  C   -1.470827  -2.691197  -2.859119  14.091152   1.251644   0.009967
     5  C   -0.658680   0.884530  -1.295669   1.251644   7.305106   0.021085
     6  H    0.306730  -0.016109   0.021171   0.009967   0.021085   0.326638
     7  H    0.061609   0.240844   0.079249  -0.032798  -0.020580  -0.001825
     8  H    0.002178  -0.009894   0.066160   0.261457  -0.013198   0.000002
     9  H    0.025654  -0.007907   0.001278  -0.005117   0.317227  -0.002071
    10  N   -0.121151   0.328379  -0.918648   0.293924   0.028456  -0.000570
    11  O    0.017920  -0.048248  -0.259175  -0.026616  -0.053470  -0.000020
    12  O    0.293535  -0.039899  -0.281170  -0.061358  -0.042887  -0.000007
    13  C    1.395907  -1.819050   0.811060  -3.034362  -1.763300  -0.008433
    14  H   -0.004787  -0.008726   0.007641  -0.057089  -0.044745  -0.000056
    15  Br   0.052199   0.001582   0.054160   0.066182   0.065443  -0.000396
               7          8          9         10         11         12
     1  C    0.061609   0.002178   0.025654  -0.121151   0.017920   0.293535
     2  C    0.240844  -0.009894  -0.007907   0.328379  -0.048248  -0.039899
     3  C    0.079249   0.066160   0.001278  -0.918648  -0.259175  -0.281170
     4  C   -0.032798   0.261457  -0.005117   0.293924  -0.026616  -0.061358
     5  C   -0.020580  -0.013198   0.317227   0.028456  -0.053470  -0.042887
     6  H   -0.001825   0.000002  -0.002071  -0.000570  -0.000020  -0.000007
     7  H    0.309666   0.000003   0.000013  -0.026113  -0.001498   0.019749
     8  H    0.000003   0.303223   0.000110  -0.023498   0.020333  -0.000910
     9  H    0.000013   0.000110   0.306688   0.000418   0.000004   0.000005
    10  N   -0.026113  -0.023498   0.000418   7.270336   0.222740   0.188424
    11  O   -0.001498   0.020333   0.000004   0.222740   7.842728  -0.006064
    12  O    0.019749  -0.000910   0.000005   0.188424  -0.006064   7.878623
    13  C    0.014251   0.030846  -0.004190  -0.139913   0.281491   0.043723
    14  H   -0.000016  -0.004510  -0.005010  -0.000623  -0.000218  -0.000070
    15  Br  -0.000144   0.001004   0.000899   0.002979   0.000535   0.001980
              13         14         15
     1  C    1.395907  -0.004787   0.052199
     2  C   -1.819050  -0.008726   0.001582
     3  C    0.811060   0.007641   0.054160
     4  C   -3.034362  -0.057089   0.066182
     5  C   -1.763300  -0.044745   0.065443
     6  H   -0.008433  -0.000056  -0.000396
     7  H    0.014251  -0.000016  -0.000144
     8  H    0.030846  -0.004510   0.001004
     9  H   -0.004190  -0.005010   0.000899
    10  N   -0.139913  -0.000623   0.002979
    11  O    0.281491  -0.000218   0.000535
    12  O    0.043723  -0.000070   0.001980
    13  C   10.306581   0.410314  -0.062827
    14  H    0.410314   0.335115  -0.039101
    15  Br  -0.062827  -0.039101  34.654063
 Mulliken charges:
               1
     1  C   -0.589803
     2  C    0.534491
     3  C   -0.730020
     4  C    0.264156
     5  C    0.019039
     6  H    0.343893
     7  H    0.357588
     8  H    0.366693
     9  H    0.371998
    10  N   -0.105139
    11  O    0.009557
    12  O    0.006325
    13  C   -0.462098
    14  H    0.411879
    15  Br   0.201441
 Sum of Mulliken charges =   1.00000
 Mulliken charges with hydrogens summed into heavy atoms:
               1
     1  C   -0.245910
     2  C    0.892078
     3  C   -0.730020
     4  C    0.630849
     5  C    0.391037
    10  N   -0.105139
    11  O    0.009557
    12  O    0.006325
    13  C   -0.050219
    15  Br   0.201441
 Electronic spatial extent (au):  <R**2>=           2800.5228
 Charge=              1.0000 electrons
 Dipole moment (field-independent basis, Debye):
    X=             -2.2646    Y=             -0.7501    Z=             -0.1381  Tot=              2.3896
 Quadrupole moment (field-independent basis, Debye-Ang):
   XX=            -74.6334   YY=            -51.8401   ZZ=            -62.2722
   XY=              1.5252   XZ=              1.4788   YZ=              1.9952
 Traceless Quadrupole moment (field-independent basis, Debye-Ang):
   XX=            -11.7182   YY=             11.0751   ZZ=              0.6430
   XY=              1.5252   XZ=              1.4788   YZ=              1.9952
 Octapole moment (field-independent basis, Debye-Ang**2):
  XXX=           -319.2675  YYY=             86.4071  ZZZ=             76.3940  XYY=            -79.4991
  XXY=             29.3774  XXZ=             32.1074  XZZ=            -79.7472  YZZ=             15.3642
  YYZ=             24.6004  XYZ=             -4.0651
 Hexadecapole moment (field-independent basis, Debye-Ang**3):
 XXXX=          -2364.0240 YYYY=           -673.8775 ZZZZ=           -344.7382 XXXY=            -68.2165
 XXXZ=            -19.1578 YYYX=            -58.0289 YYYZ=           -153.0406 ZZZX=            -16.2592
 ZZZY=           -133.2661 XXYY=           -462.5290 XXZZ=           -371.4890 YYZZ=           -161.2004
 XXYZ=            -53.6413 YYXZ=             -0.3926 ZZXY=             -7.0898
 N-N= 7.401104710966D+02 E-N=-8.632984319736D+03  KE= 3.005850258228D+03
 No NMR shielding tensors so no spin-rotation constants.
 Leave Link  601 at Wed May  1 14:45:46 2024, MaxMem=  1207959552 cpu:               7.2 elap:               7.2
 (Enter /software/gaussian/g16-c01/sse4/g16/l9999.exe)
 Unable to Open any file for archive entry.
 1\1\GINC-BHX0018\SP\RwB97XD\6-311+G(d)\C6H5Br1N1O2(1+)\BWEIGHT\01-May-
 2024\0\\#P wB97XD/6-311+G* NoSymm #P Field=X+48\\TitleMe\\1,1\C,0,0.02
 95,1.3397,0.0682\C,0,1.4348,1.2867,0.0064\C,0,2.1118,0.0511,-0.0054\C,
 0,1.4451,-1.1372,0.0312\C,0,-0.6879,0.1682,0.11\H,0,-0.4713,2.2984,0.0
 781\H,0,2.0273,2.1965,-0.0322\H,0,1.9897,-2.0764,0.0232\H,0,-1.7716,0.
 1804,0.1582\N,0,3.5864,0.051,-0.0675\O,0,4.1471,-1.0597,-0.0881\O,0,4.
 145,1.1639,-0.0901\C,0,-0.0236,-1.1458,0.0835\H,0,-0.4367,-1.8725,0.78
 89\Br,0,-0.5359,-1.8697,-1.7408\\Version=ES64L-G16RevC.01\HF=-3010.538
 2624\RMSD=7.052e-09\Dipole=-2.7975009,0.8529575,1.0918525\Quadrupole=-
 8.7121592,8.2340957,0.4780636,1.1339374,1.0994507,1.4833539\PG=C01 [X(
 C6H5Br1N1O2)]\\@
 The archive entry for this job was punched.


 I DON'T EXACTLY UNDERSTAND WHAT YOU ARE SAYING,
 BUT YOU ARE ABSOLUTELY RIGHT.
     M.S.GORDON, IN A NDSU FACULTY MEETING
 Job cpu time:       0 days  0 hours 18 minutes  4.0 seconds.
 Elapsed time:       0 days  0 hours 18 minutes  4.0 seconds.
 File lengths (MBytes):  RWF=     40 Int=      0 D2E=      0 Chk=     32 Scr=      1
 Normal termination of Gaussian 16 at Wed May  1 14:45:47 2024.
