 Entering Gaussian System, Link 0=g16
 Initial command:
 /software/gaussian/g16-c01/sse4/g16/l1.exe "/local_scratch/24665281/Gau-23620.inp" -scrdir="/local_scratch/24665281/"
 Entering Link 1 = /software/gaussian/g16-c01/sse4/g16/l1.exe PID=     23624.
  
 Copyright (c) 1988-2019, Gaussian, Inc.  All Rights Reserved.
  
 This is part of the Gaussian(R) 16 program.  It is based on
 the Gaussian(R) 09 system (copyright 2009, Gaussian, Inc.),
 the Gaussian(R) 03 system (copyright 2003, Gaussian, Inc.),
 the Gaussian(R) 98 system (copyright 1998, Gaussian, Inc.),
 the Gaussian(R) 94 system (copyright 1995, Gaussian, Inc.),
 the Gaussian 92(TM) system (copyright 1992, Gaussian, Inc.),
 the Gaussian 90(TM) system (copyright 1990, Gaussian, Inc.),
 the Gaussian 88(TM) system (copyright 1988, Gaussian, Inc.),
 the Gaussian 86(TM) system (copyright 1986, Carnegie Mellon
 University), and the Gaussian 82(TM) system (copyright 1983,
 Carnegie Mellon University). Gaussian is a federally registered
 trademark of Gaussian, Inc.
  
 This software contains proprietary and confidential information,
 including trade secrets, belonging to Gaussian, Inc.
  
 This software is provided under written license and may be
 used, copied, transmitted, or stored only in accord with that
 written license.
  
 The following legend is applicable only to US Government
 contracts under FAR:
  
                    RESTRICTED RIGHTS LEGEND
  
 Use, reproduction and disclosure by the US Government is
 subject to restrictions as set forth in subparagraphs (a)
 and (c) of the Commercial Computer Software - Restricted
 Rights clause in FAR 52.227-19.
  
 Gaussian, Inc.
 340 Quinnipiac St., Bldg. 40, Wallingford CT 06492
  
  
 ---------------------------------------------------------------
 Warning -- This program may not be used in any manner that
 competes with the business of Gaussian, Inc. or will provide
 assistance to any competitor of Gaussian, Inc.  The licensee
 of this program is prohibited from giving any competitor of
 Gaussian, Inc. access to this program.  By using this program,
 the user acknowledges that Gaussian, Inc. is engaged in the
 business of creating and licensing software in the field of
 computational chemistry and represents and warrants to the
 licensee that it is not a competitor of Gaussian, Inc. and that
 it will not use this program in any manner prohibited above.
 ---------------------------------------------------------------
  

 Cite this work as:
 Gaussian 16, Revision C.01,
 M. J. Frisch, G. W. Trucks, H. B. Schlegel, G. E. Scuseria, 
 M. A. Robb, J. R. Cheeseman, G. Scalmani, V. Barone, 
 G. A. Petersson, H. Nakatsuji, X. Li, M. Caricato, A. V. Marenich, 
 J. Bloino, B. G. Janesko, R. Gomperts, B. Mennucci, H. P. Hratchian, 
 J. V. Ortiz, A. F. Izmaylov, J. L. Sonnenberg, D. Williams-Young, 
 F. Ding, F. Lipparini, F. Egidi, J. Goings, B. Peng, A. Petrone, 
 T. Henderson, D. Ranasinghe, V. G. Zakrzewski, J. Gao, N. Rega, 
 G. Zheng, W. Liang, M. Hada, M. Ehara, K. Toyota, R. Fukuda, 
 J. Hasegawa, M. Ishida, T. Nakajima, Y. Honda, O. Kitao, H. Nakai, 
 T. Vreven, K. Throssell, J. A. Montgomery, Jr., J. E. Peralta, 
 F. Ogliaro, M. J. Bearpark, J. J. Heyd, E. N. Brothers, K. N. Kudin, 
 V. N. Staroverov, T. A. Keith, R. Kobayashi, J. Normand, 
 K. Raghavachari, A. P. Rendell, J. C. Burant, S. S. Iyengar, 
 J. Tomasi, M. Cossi, J. M. Millam, M. Klene, C. Adamo, R. Cammi, 
 J. W. Ochterski, R. L. Martin, K. Morokuma, O. Farkas, 
 J. B. Foresman, and D. J. Fox, Gaussian, Inc., Wallingford CT, 2019.
 
 ******************************************
 Gaussian 16:  ES64L-G16RevC.01  3-Jul-2019
                 2-May-2024 
 ******************************************
 %chk=geometry.chk
 %mem=1GB
 %nprocshared=12
 Will use up to   12 processors via shared memory.
 ----------------------------------------
 #P wB97XD/6-311+G* NoSymm #P Field=X+175
 ----------------------------------------
 1/38=1,172=1/1;
 2/12=2,15=1,17=6,18=5,40=1/2;
 3/5=4,6=6,7=11,11=2,14=1,15=175,25=1,30=1,74=-58/1,2,3;
 4//1;
 5/5=2,38=5/2;
 6/7=2,8=2,9=2,10=2,28=1/1;
 99/5=1,9=1/99;
 Leave Link    1 at Thu May  2 13:57:39 2024, MaxMem=   134217728 cpu:               1.9 elap:               2.0
 (Enter /software/gaussian/g16-c01/sse4/g16/l101.exe)
 -------
 TitleMe
 -------
 Symbolic Z-matrix:
 Charge =  1 Multiplicity = 1
 C                     0.5193    1.233    -0.0319 
 C                     1.9445    1.2692   -0.0367 
 C                     2.6204    0.0928   -0.025 
 C                    -0.196     0.0301    0.001 
 H                    -0.0207    2.1742   -0.0434 
 H                     2.4828    2.2089   -0.0361 
 H                    -1.2777    0.0399    0.0117 
 N                     4.0921    0.0959    0.0366 
 O                     4.6393   -1.0217    0.1446 
 O                     4.6649    1.1984   -0.0233 
 C                     0.4943   -1.1671    0.021 
 H                    -0.0325   -2.1149    0.0545 
 C                     1.9629   -1.2165   -0.0211 
 H                     2.4436   -1.9631    0.6151 
 Br                    2.173    -1.9491   -1.9062 
 
 ITRead=  0  0  0  0  0  0  0  0  0  0  0  0  0  0  0
 MicOpt= -1 -1 -1 -1 -1 -1 -1 -1 -1 -1 -1 -1 -1 -1 -1
 NAtoms=     15 NQM=       15 NQMF=       0 NMMI=      0 NMMIF=      0
                NMic=       0 NMicF=      0.
                    Isotopes and Nuclear Properties:
 (Nuclear quadrupole moments (NQMom) in fm**2, nuclear magnetic moments (NMagM)
  in nuclear magnetons)

  Atom         1           2           3           4           5           6           7           8           9          10
 IAtWgt=          12          12          12          12           1           1           1          14          16          16
 AtmWgt=  12.0000000  12.0000000  12.0000000  12.0000000   1.0078250   1.0078250   1.0078250  14.0030740  15.9949146  15.9949146
 NucSpn=           0           0           0           0           1           1           1           2           0           0
 AtZEff=  -0.0000000  -0.0000000  -0.0000000  -0.0000000  -0.0000000  -0.0000000  -0.0000000  -0.0000000  -0.0000000  -0.0000000
 NQMom=    0.0000000   0.0000000   0.0000000   0.0000000   0.0000000   0.0000000   0.0000000   2.0440000   0.0000000   0.0000000
 NMagM=    0.0000000   0.0000000   0.0000000   0.0000000   2.7928460   2.7928460   2.7928460   0.4037610   0.0000000   0.0000000
 AtZNuc=   6.0000000   6.0000000   6.0000000   6.0000000   1.0000000   1.0000000   1.0000000   7.0000000   8.0000000   8.0000000

  Atom        11          12          13          14          15
 IAtWgt=          12           1          12           1          79
 AtmWgt=  12.0000000   1.0078250  12.0000000   1.0078250  78.9183361
 NucSpn=           0           1           0           1           3
 AtZEff=  -0.0000000  -0.0000000  -0.0000000  -0.0000000  -0.0000000
 NQMom=    0.0000000   0.0000000   0.0000000   0.0000000  31.3000000
 NMagM=    0.0000000   2.7928460   0.0000000   2.7928460   2.1063990
 AtZNuc=   6.0000000   1.0000000   6.0000000   1.0000000  35.0000000
 Leave Link  101 at Thu May  2 13:57:40 2024, MaxMem=   134217728 cpu:               1.7 elap:               1.7
 (Enter /software/gaussian/g16-c01/sse4/g16/l202.exe)
                          Input orientation:                          
 ---------------------------------------------------------------------
 Center     Atomic      Atomic             Coordinates (Angstroms)
 Number     Number       Type             X           Y           Z
 ---------------------------------------------------------------------
      1          6           0        0.519300    1.233000   -0.031900
      2          6           0        1.944500    1.269200   -0.036700
      3          6           0        2.620400    0.092800   -0.025000
      4          6           0       -0.196000    0.030100    0.001000
      5          1           0       -0.020700    2.174200   -0.043400
      6          1           0        2.482800    2.208900   -0.036100
      7          1           0       -1.277700    0.039900    0.011700
      8          7           0        4.092100    0.095900    0.036600
      9          8           0        4.639300   -1.021700    0.144600
     10          8           0        4.664900    1.198400   -0.023300
     11          6           0        0.494300   -1.167100    0.021000
     12          1           0       -0.032500   -2.114900    0.054500
     13          6           0        1.962900   -1.216500   -0.021100
     14          1           0        2.443600   -1.963100    0.615100
     15         35           0        2.173000   -1.949100   -1.906200
 ---------------------------------------------------------------------
                    Distance matrix (angstroms):
                    1          2          3          4          5
     1  C    0.000000
     2  C    1.425668   0.000000
     3  C    2.390549   1.356796   0.000000
     4  C    1.399895   2.473566   2.817218   0.000000
     5  H    1.085168   2.163581   3.362733   2.151712   0.000000
     6  H    2.192654   1.082960   2.120598   3.453189   2.503751
     7  H    2.157452   3.449071   3.898632   1.081797   2.477564
     8  N    3.750012   2.448304   1.472992   4.288753   4.608780
     9  O    4.699917   3.541615   2.312322   4.950458   5.653735
    10  O    4.145753   2.721354   2.324292   4.999386   4.786171
    11  C    2.400813   2.835836   2.471794   1.382101   3.381369
    12  H    3.394169   3.920329   3.452266   2.151887   4.290233
    13  C    2.843264   2.485817   1.465124   2.493060   3.928360
    14  H    3.786370   3.334922   2.160489   3.364142   4.860416
    15  Br   4.046416   3.728900   2.812194   3.628609   5.028314
                    6          7          8          9         10
     6  H    0.000000
     7  H    4.341452   0.000000
     8  N    2.657047   5.370150   0.000000
     9  O    3.888434   6.012948   1.249048   0.000000
    10  O    2.404752   6.054572   1.243863   2.226587   0.000000
    11  C    3.918516   2.144043   3.813080   4.149391   4.794941
    12  H    5.003018   2.489080   4.679774   4.798846   5.748876
    13  C    3.464662   3.475788   2.501842   2.688591   3.623886
    14  H    4.222698   4.268978   2.700314   2.434893   3.916224
    15  Br   4.569706   4.420610   3.411663   3.338935   4.434144
                   11         12         13         14         15
    11  C    0.000000
    12  H    1.084880   0.000000
    13  C    1.470034   2.189625   0.000000
    14  H    2.187771   2.543302   1.092353   0.000000
    15  Br   2.672762   2.955683   2.033334   2.535818   0.000000
 Symmetry turned off by external request.
 Stoichiometry    C6H5BrNO2(1+)
 Framework group  C1[X(C6H5BrNO2)]
 Deg. of freedom    39
 Full point group                 C1      NOp   1
 Rotational constants (GHZ):           1.1632986           0.9594224           0.5957624
 Leave Link  202 at Thu May  2 13:57:42 2024, MaxMem=   134217728 cpu:               1.3 elap:               1.3
 (Enter /software/gaussian/g16-c01/sse4/g16/l301.exe)
 Standard basis: 6-311+G(d) (5D, 7F)
 Ernie: Thresh=  0.10000D-02 Tol=  0.10000D-05 Strict=F.
 The following finite field(s) will be applied:
 An electric field of              0.0175  0.0000  0.0000
   261 basis functions,   443 primitive gaussians,   273 cartesian basis functions
    49 alpha electrons       49 beta electrons
       nuclear repulsion energy       772.8945969580 Hartrees.
 IExCor= 4639 DFT=T Ex+Corr=wB97XD ExCW=0 ScaHFX=  1.000000
 ScaDFX=  1.000000  1.000000  1.000000  1.000000 ScalE2=  1.000000  1.000000
 IRadAn=      5 IRanWt=     -1 IRanGd=            0 ICorTp=0 IEmpDi=121
 HFx  wShort=  0.000000 wLong=  0.200000 cFull=  0.222036 cShort=  0.000000 cLong=  0.777964
 DFx  wShort=  0.000000 wLong=  0.200000 cFull=  0.000000 cShort=  0.000000 cLong=  1.000000
 NAtoms=   15 NActive=   15 NUniq=   15 SFac= 1.00D+00 NAtFMM=   60 NAOKFM=F Big=F
 Integral buffers will be    131072 words long.
 Raffenetti 2 integral format.
 Two-electron integral symmetry is turned off.
 R6Disp:  Grimme-D2 Dispersion energy=       -0.0080346408 Hartrees.
 Nuclear repulsion after empirical dispersion term =      772.8865623173 Hartrees.
 Leave Link  301 at Thu May  2 13:57:43 2024, MaxMem=   134217728 cpu:               1.0 elap:               1.0
 (Enter /software/gaussian/g16-c01/sse4/g16/l302.exe)
 NPDir=0 NMtPBC=     1 NCelOv=     1 NCel=       1 NClECP=     1 NCelD=      1
         NCelK=      1 NCelE2=     1 NClLst=     1 CellRange=     0.0.
 One-electron integrals computed using PRISM.
 NBasis=   261 RedAO= T EigKep=  2.52D-06  NBF=   261
 NBsUse=   261 1.00D-06 EigRej= -1.00D+00 NBFU=   261
 Precomputing XC quadrature grid using
 IXCGrd= 4 IRadAn=           5 IRanWt=          -1 IRanGd=           0 AccXCQ= 0.00D+00.
 Generated NRdTot=       0 NPtTot=           0 NUsed=           0 NTot=          32
 NSgBfM=   273   273   273   273   273 MxSgAt=    15 MxSgA2=    15.
 Leave Link  302 at Thu May  2 13:58:05 2024, MaxMem=   134217728 cpu:              22.1 elap:              22.1
 (Enter /software/gaussian/g16-c01/sse4/g16/l303.exe)
 DipDrv:  MaxL=1.
 The nuclear repulsion energy is now       780.3869249899 hartrees.
 Leave Link  303 at Thu May  2 13:58:08 2024, MaxMem=   134217728 cpu:               3.4 elap:               3.4
 (Enter /software/gaussian/g16-c01/sse4/g16/l401.exe)
 ExpMin= 3.50D-02 ExpMax= 4.40D+05 ExpMxC= 1.51D+04 IAcc=3 IRadAn=         5 AccDes= 0.00D+00
 Harris functional with IExCor= 4639 and IRadAn=       5 diagonalized for initial guess.
 HarFok:  IExCor= 4639 AccDes= 0.00D+00 IRadAn=         5 IDoV= 1 UseB2=F ITyADJ=14
 ICtDFT=  3500011 ScaDFX=  1.000000  1.000000  1.000000  1.000000
 FoFCou: FMM=F IPFlag=           0 FMFlag=      100000 FMFlg1=           0
         NFxFlg=           0 DoJE=T BraDBF=F KetDBF=T FulRan=T
         wScrn=  0.000000 ICntrl=       500 IOpCl=  0 I1Cent=   200000004 NGrid=           0
         NMat0=    1 NMatS0=      1 NMatT0=    0 NMatD0=    1 NMtDS0=    0 NMtDT0=    0
 Symmetry not used in FoFCou.
 Harris En= -2970.61200225479    
 JPrj=0 DoOrth=F DoCkMO=F.
 Leave Link  401 at Thu May  2 13:58:39 2024, MaxMem=   134217728 cpu:              31.2 elap:              31.2
 (Enter /software/gaussian/g16-c01/sse4/g16/l502.exe)
 Two-electron integral symmetry not used.
 Closed shell SCF:
 Using DIIS extrapolation, IDIIS=  1040.
 NGot=   134217728 LenX=   134063053 LenY=   133988083
 Requested convergence on RMS density matrix=1.00D-08 within 128 cycles.
 Requested convergence on MAX density matrix=1.00D-06.
 Requested convergence on             energy=1.00D-06.
 No special actions if energy rises.
 Fock matrices will be formed incrementally for  20 cycles.

 Cycle   1  Pass 1  IDiag  1:
 FoFJK:  IHMeth= 1 ICntrl=       0 DoSepK=T KAlg= 0 I1Cent=           0 FoldK=F
 IRaf=         1 NMat=       1 IRICut=       1 DoRegI=T DoRafI=F ISym2E= 0 IDoP0=0 IntGTp=1.
 FoFCou: FMM=F IPFlag=           0 FMFlag=      100000 FMFlg1=           0
         NFxFlg=           0 DoJE=T BraDBF=F KetDBF=F FulRan=T
         wScrn=  0.000000 ICntrl=       500 IOpCl=  0 I1Cent=           0 NGrid=           0
         NMat0=    1 NMatS0=      1 NMatT0=    0 NMatD0=    1 NMtDS0=    0 NMtDT0=    0
 Symmetry not used in FoFCou.
 E= -3009.71542835031    
 DIIS: error= 2.90D-01 at cycle   1 NSaved=   1.
 NSaved= 1 IEnMin= 1 EnMin= -3009.71542835031     IErMin= 1 ErrMin= 2.90D-01
 ErrMax= 2.90D-01  0.00D+00 EMaxC= 1.00D-01 BMatC= 1.19D+01 BMatP= 1.19D+01
 IDIUse=3 WtCom= 0.00D+00 WtEn= 1.00D+00
 Coeff-Com:  0.100D+01
 Coeff-En:   0.100D+01
 Coeff:      0.100D+01
 Gap=     0.251 Goal=   None    Shift=    0.000
 GapD=    0.251 DampG=1.000 DampE=0.250 DampFc=0.2500 IDamp=-1.
 Damping current iteration by 2.50D-01
 RMSDP=9.94D-02 MaxDP=1.03D+01              OVMax= 2.62D-01

 Cycle   2  Pass 1  IDiag  1:
 RMSU=  8.09D-03    CP:  8.49D-01
 E= -3009.99727559170     Delta-E=       -0.281847241382 Rises=F Damp=T
 DIIS: error= 2.19D-01 at cycle   2 NSaved=   2.
 NSaved= 2 IEnMin= 2 EnMin= -3009.99727559170     IErMin= 2 ErrMin= 2.19D-01
 ErrMax= 2.19D-01  0.00D+00 EMaxC= 1.00D-01 BMatC= 5.45D+00 BMatP= 1.19D+01
 IDIUse=3 WtCom= 0.00D+00 WtEn= 1.00D+00
 Coeff-Com: -0.184D+01 0.284D+01
 Coeff-En:   0.000D+00 0.100D+01
 Coeff:      0.000D+00 0.100D+01
 Gap=     0.247 Goal=   None    Shift=    0.000
 RMSDP=7.53D-02 MaxDP=8.03D+00 DE=-2.82D-01 OVMax= 6.37D-02

 Cycle   3  Pass 1  IDiag  1:
 RMSU=  5.34D-03    CP:  3.82D-01  3.00D+00
 E= -3010.38369210364     Delta-E=       -0.386416511948 Rises=F Damp=F
 DIIS: error= 6.57D-02 at cycle   3 NSaved=   3.
 NSaved= 3 IEnMin= 3 EnMin= -3010.38369210364     IErMin= 3 ErrMin= 6.57D-02
 ErrMax= 6.57D-02  0.00D+00 EMaxC= 1.00D-01 BMatC= 7.22D-01 BMatP= 5.45D+00
 IDIUse=3 WtCom= 3.43D-01 WtEn= 6.57D-01
 Coeff-Com:  0.272D+01-0.358D+01 0.186D+01
 Coeff-En:   0.105D-01 0.000D+00 0.990D+00
 Coeff:      0.940D+00-0.123D+01 0.129D+01
 Gap=     0.244 Goal=   None    Shift=    0.000
 RMSDP=1.33D-02 MaxDP=8.47D-01 DE=-3.86D-01 OVMax= 6.03D-02

 Cycle   4  Pass 1  IDiag  1:
 RMSU=  7.74D-03    CP:  4.07D-01  2.27D+00  2.27D+00
 E= -3010.47966460511     Delta-E=       -0.095972501465 Rises=F Damp=F
 DIIS: error= 4.02D-02 at cycle   4 NSaved=   4.
 NSaved= 4 IEnMin= 4 EnMin= -3010.47966460511     IErMin= 4 ErrMin= 4.02D-02
 ErrMax= 4.02D-02  0.00D+00 EMaxC= 1.00D-01 BMatC= 2.51D-01 BMatP= 7.22D-01
 IDIUse=3 WtCom= 5.98D-01 WtEn= 4.02D-01
 Coeff-Com: -0.154D+00 0.218D+00 0.299D+00 0.637D+00
 Coeff-En:   0.000D+00 0.000D+00 0.223D+00 0.777D+00
 Coeff:     -0.918D-01 0.130D+00 0.268D+00 0.693D+00
 Gap=     0.254 Goal=   None    Shift=    0.000
 RMSDP=5.58D-03 MaxDP=5.43D-01 DE=-9.60D-02 OVMax= 3.24D-02

 Cycle   5  Pass 1  IDiag  1:
 RMSU=  2.20D-03    CP:  3.79D-01  2.39D+00  2.07D+00  7.10D-01
 E= -3010.52781522298     Delta-E=       -0.048150617875 Rises=F Damp=F
 DIIS: error= 6.54D-03 at cycle   5 NSaved=   5.
 NSaved= 5 IEnMin= 5 EnMin= -3010.52781522298     IErMin= 5 ErrMin= 6.54D-03
 ErrMax= 6.54D-03  0.00D+00 EMaxC= 1.00D-01 BMatC= 7.55D-03 BMatP= 2.51D-01
 IDIUse=3 WtCom= 9.35D-01 WtEn= 6.54D-02
 Coeff-Com: -0.138D+00 0.188D+00 0.812D-01 0.355D+00 0.513D+00
 Coeff-En:   0.000D+00 0.000D+00 0.000D+00 0.000D+00 0.100D+01
 Coeff:     -0.129D+00 0.176D+00 0.759D-01 0.332D+00 0.545D+00
 Gap=     0.246 Goal=   None    Shift=    0.000
 RMSDP=1.28D-03 MaxDP=1.50D-01 DE=-4.82D-02 OVMax= 1.69D-02

 Cycle   6  Pass 1  IDiag  1:
 RMSU=  5.92D-04    CP:  3.82D-01  2.40D+00  2.14D+00  8.16D-01  7.87D-01
 E= -3010.52957402548     Delta-E=       -0.001758802494 Rises=F Damp=F
 DIIS: error= 2.22D-03 at cycle   6 NSaved=   6.
 NSaved= 6 IEnMin= 6 EnMin= -3010.52957402548     IErMin= 6 ErrMin= 2.22D-03
 ErrMax= 2.22D-03  0.00D+00 EMaxC= 1.00D-01 BMatC= 4.40D-04 BMatP= 7.55D-03
 IDIUse=3 WtCom= 9.78D-01 WtEn= 2.22D-02
 Coeff-Com: -0.977D-01 0.131D+00-0.200D-02 0.153D+00 0.363D+00 0.452D+00
 Coeff-En:   0.000D+00 0.000D+00 0.000D+00 0.000D+00 0.585D-01 0.942D+00
 Coeff:     -0.955D-01 0.128D+00-0.196D-02 0.150D+00 0.356D+00 0.463D+00
 Gap=     0.246 Goal=   None    Shift=    0.000
 RMSDP=4.29D-04 MaxDP=3.78D-02 DE=-1.76D-03 OVMax= 5.84D-03

 Cycle   7  Pass 1  IDiag  1:
 RMSU=  2.03D-04    CP:  3.81D-01  2.39D+00  2.14D+00  7.99D-01  8.86D-01
                    CP:  7.84D-01
 E= -3010.52988202649     Delta-E=       -0.000308001011 Rises=F Damp=F
 DIIS: error= 3.20D-04 at cycle   7 NSaved=   7.
 NSaved= 7 IEnMin= 7 EnMin= -3010.52988202649     IErMin= 7 ErrMin= 3.20D-04
 ErrMax= 3.20D-04  0.00D+00 EMaxC= 1.00D-01 BMatC= 1.46D-05 BMatP= 4.40D-04
 IDIUse=3 WtCom= 9.97D-01 WtEn= 3.20D-03
 Coeff-Com: -0.298D-01 0.395D-01-0.135D-01 0.223D-01 0.750D-01 0.173D+00
 Coeff-Com:  0.733D+00
 Coeff-En:   0.000D+00 0.000D+00 0.000D+00 0.000D+00 0.000D+00 0.000D+00
 Coeff-En:   0.100D+01
 Coeff:     -0.297D-01 0.394D-01-0.135D-01 0.223D-01 0.748D-01 0.173D+00
 Coeff:      0.734D+00
 Gap=     0.247 Goal=   None    Shift=    0.000
 RMSDP=2.22D-04 MaxDP=2.07D-02 DE=-3.08D-04 OVMax= 1.98D-03

 Cycle   8  Pass 1  IDiag  1:
 RMSU=  9.72D-05    CP:  3.80D-01  2.38D+00  2.16D+00  8.10D-01  9.26D-01
                    CP:  8.34D-01  1.15D+00
 E= -3010.52989953460     Delta-E=       -0.000017508111 Rises=F Damp=F
 DIIS: error= 1.56D-04 at cycle   8 NSaved=   8.
 NSaved= 8 IEnMin= 8 EnMin= -3010.52989953460     IErMin= 8 ErrMin= 1.56D-04
 ErrMax= 1.56D-04  0.00D+00 EMaxC= 1.00D-01 BMatC= 2.45D-06 BMatP= 1.46D-05
 IDIUse=3 WtCom= 9.98D-01 WtEn= 1.56D-03
 Coeff-Com:  0.821D-02-0.112D-01-0.315D-02-0.172D-01-0.384D-01-0.433D-01
 Coeff-Com:  0.217D+00 0.888D+00
 Coeff-En:   0.000D+00 0.000D+00 0.000D+00 0.000D+00 0.000D+00 0.000D+00
 Coeff-En:   0.000D+00 0.100D+01
 Coeff:      0.820D-02-0.112D-01-0.314D-02-0.172D-01-0.384D-01-0.432D-01
 Coeff:      0.217D+00 0.888D+00
 Gap=     0.247 Goal=   None    Shift=    0.000
 RMSDP=1.11D-04 MaxDP=8.52D-03 DE=-1.75D-05 OVMax= 1.27D-03

 Cycle   9  Pass 1  IDiag  1:
 RMSU=  2.99D-05    CP:  3.81D-01  2.38D+00  2.17D+00  8.16D-01  9.40D-01
                    CP:  8.84D-01  1.38D+00  1.22D+00
 E= -3010.52990401534     Delta-E=       -0.000004480741 Rises=F Damp=F
 DIIS: error= 2.89D-05 at cycle   9 NSaved=   9.
 NSaved= 9 IEnMin= 9 EnMin= -3010.52990401534     IErMin= 9 ErrMin= 2.89D-05
 ErrMax= 2.89D-05  0.00D+00 EMaxC= 1.00D-01 BMatC= 2.99D-07 BMatP= 2.45D-06
 IDIUse=1 WtCom= 1.00D+00 WtEn= 0.00D+00
 Coeff-Com:  0.682D-02-0.915D-02 0.776D-03-0.897D-02-0.210D-01-0.361D-01
 Coeff-Com: -0.344D-01 0.282D+00 0.820D+00
 Coeff:      0.682D-02-0.915D-02 0.776D-03-0.897D-02-0.210D-01-0.361D-01
 Coeff:     -0.344D-01 0.282D+00 0.820D+00
 Gap=     0.247 Goal=   None    Shift=    0.000
 RMSDP=3.85D-05 MaxDP=3.01D-03 DE=-4.48D-06 OVMax= 6.61D-04

 Cycle  10  Pass 1  IDiag  1:
 RMSU=  1.24D-05    CP:  3.80D-01  2.37D+00  2.17D+00  8.16D-01  9.49D-01
                    CP:  8.85D-01  1.43D+00  1.31D+00  1.14D+00
 E= -3010.52990472475     Delta-E=       -0.000000709411 Rises=F Damp=F
 DIIS: error= 1.83D-05 at cycle  10 NSaved=  10.
 NSaved=10 IEnMin=10 EnMin= -3010.52990472475     IErMin=10 ErrMin= 1.83D-05
 ErrMax= 1.83D-05  0.00D+00 EMaxC= 1.00D-01 BMatC= 6.38D-08 BMatP= 2.99D-07
 IDIUse=1 WtCom= 1.00D+00 WtEn= 0.00D+00
 Coeff-Com:  0.361D-03-0.458D-03 0.381D-03-0.226D-03 0.847D-03-0.486D-03
 Coeff-Com: -0.391D-01-0.518D-01 0.223D+00 0.868D+00
 Coeff:      0.361D-03-0.458D-03 0.381D-03-0.226D-03 0.847D-03-0.486D-03
 Coeff:     -0.391D-01-0.518D-01 0.223D+00 0.868D+00
 Gap=     0.247 Goal=   None    Shift=    0.000
 RMSDP=1.02D-05 MaxDP=7.00D-04 DE=-7.09D-07 OVMax= 3.40D-04

 Cycle  11  Pass 1  IDiag  1:
 RMSU=  5.32D-06    CP:  3.80D-01  2.37D+00  2.17D+00  8.16D-01  9.50D-01
                    CP:  8.88D-01  1.42D+00  1.30D+00  1.24D+00  1.33D+00
 E= -3010.52990487377     Delta-E=       -0.000000149018 Rises=F Damp=F
 DIIS: error= 6.60D-06 at cycle  11 NSaved=  11.
 NSaved=11 IEnMin=11 EnMin= -3010.52990487377     IErMin=11 ErrMin= 6.60D-06
 ErrMax= 6.60D-06  0.00D+00 EMaxC= 1.00D-01 BMatC= 5.01D-09 BMatP= 6.38D-08
 IDIUse=1 WtCom= 1.00D+00 WtEn= 0.00D+00
 Coeff-Com: -0.374D-03 0.499D-03 0.974D-05 0.813D-03 0.214D-02 0.435D-02
 Coeff-Com:  0.129D-01-0.301D-01-0.144D+00-0.106D+00 0.126D+01
 Coeff:     -0.374D-03 0.499D-03 0.974D-05 0.813D-03 0.214D-02 0.435D-02
 Coeff:      0.129D-01-0.301D-01-0.144D+00-0.106D+00 0.126D+01
 Gap=     0.247 Goal=   None    Shift=    0.000
 RMSDP=7.92D-06 MaxDP=8.09D-04 DE=-1.49D-07 OVMax= 2.80D-04

 Cycle  12  Pass 1  IDiag  1:
 RMSU=  1.63D-06    CP:  3.80D-01  2.37D+00  2.17D+00  8.16D-01  9.50D-01
                    CP:  8.88D-01  1.41D+00  1.27D+00  1.31D+00  1.62D+00
                    CP:  1.59D+00
 E= -3010.52990491783     Delta-E=       -0.000000044056 Rises=F Damp=F
 DIIS: error= 3.06D-06 at cycle  12 NSaved=  12.
 NSaved=12 IEnMin=12 EnMin= -3010.52990491783     IErMin=12 ErrMin= 3.06D-06
 ErrMax= 3.06D-06  0.00D+00 EMaxC= 1.00D-01 BMatC= 2.58D-09 BMatP= 5.01D-09
 IDIUse=1 WtCom= 1.00D+00 WtEn= 0.00D+00
 Coeff-Com: -0.270D-03 0.357D-03-0.411D-04 0.474D-03 0.741D-03 0.183D-02
 Coeff-Com:  0.124D-01-0.102D-01-0.105D+00-0.205D+00 0.612D+00 0.694D+00
 Coeff:     -0.270D-03 0.357D-03-0.411D-04 0.474D-03 0.741D-03 0.183D-02
 Coeff:      0.124D-01-0.102D-01-0.105D+00-0.205D+00 0.612D+00 0.694D+00
 Gap=     0.247 Goal=   None    Shift=    0.000
 RMSDP=3.03D-06 MaxDP=2.35D-04 DE=-4.41D-08 OVMax= 9.22D-05

 Cycle  13  Pass 1  IDiag  1:
 RMSU=  9.18D-07    CP:  3.80D-01  2.37D+00  2.17D+00  8.16D-01  9.50D-01
                    CP:  8.88D-01  1.40D+00  1.26D+00  1.34D+00  1.72D+00
                    CP:  1.77D+00  1.22D+00
 E= -3010.52990492577     Delta-E=       -0.000000007944 Rises=F Damp=F
 DIIS: error= 8.98D-07 at cycle  13 NSaved=  13.
 NSaved=13 IEnMin=13 EnMin= -3010.52990492577     IErMin=13 ErrMin= 8.98D-07
 ErrMax= 8.98D-07  0.00D+00 EMaxC= 1.00D-01 BMatC= 3.06D-10 BMatP= 2.58D-09
 IDIUse=1 WtCom= 1.00D+00 WtEn= 0.00D+00
 Coeff-Com: -0.247D-04 0.333D-04-0.252D-04-0.952D-04-0.575D-03-0.107D-02
 Coeff-Com: -0.122D-02 0.532D-02 0.277D-01-0.629D-02-0.184D+00 0.236D-01
 Coeff-Com:  0.114D+01
 Coeff:     -0.247D-04 0.333D-04-0.252D-04-0.952D-04-0.575D-03-0.107D-02
 Coeff:     -0.122D-02 0.532D-02 0.277D-01-0.629D-02-0.184D+00 0.236D-01
 Coeff:      0.114D+01
 Gap=     0.247 Goal=   None    Shift=    0.000
 RMSDP=1.58D-06 MaxDP=1.26D-04 DE=-7.94D-09 OVMax= 5.79D-05

 Cycle  14  Pass 1  IDiag  1:
 RMSU=  4.78D-07    CP:  3.80D-01  2.37D+00  2.17D+00  8.16D-01  9.51D-01
                    CP:  8.89D-01  1.40D+00  1.26D+00  1.35D+00  1.73D+00
                    CP:  1.78D+00  1.47D+00  1.70D+00
 E= -3010.52990492758     Delta-E=       -0.000000001808 Rises=F Damp=F
 DIIS: error= 5.32D-07 at cycle  14 NSaved=  14.
 NSaved=14 IEnMin=14 EnMin= -3010.52990492758     IErMin=14 ErrMin= 5.32D-07
 ErrMax= 5.32D-07  0.00D+00 EMaxC= 1.00D-01 BMatC= 7.36D-11 BMatP= 3.06D-10
 IDIUse=1 WtCom= 1.00D+00 WtEn= 0.00D+00
 Coeff-Com:  0.249D-04-0.327D-04-0.534D-05-0.982D-04-0.285D-03-0.586D-03
 Coeff-Com: -0.211D-02 0.331D-02 0.260D-01 0.260D-01-0.154D+00-0.136D+00
 Coeff-Com:  0.397D+00 0.841D+00
 Coeff:      0.249D-04-0.327D-04-0.534D-05-0.982D-04-0.285D-03-0.586D-03
 Coeff:     -0.211D-02 0.331D-02 0.260D-01 0.260D-01-0.154D+00-0.136D+00
 Coeff:      0.397D+00 0.841D+00
 Gap=     0.247 Goal=   None    Shift=    0.000
 RMSDP=7.52D-07 MaxDP=5.61D-05 DE=-1.81D-09 OVMax= 2.20D-05

 Cycle  15  Pass 1  IDiag  1:
 RMSU=  1.54D-07    CP:  3.80D-01  2.37D+00  2.17D+00  8.16D-01  9.51D-01
                    CP:  8.89D-01  1.40D+00  1.26D+00  1.36D+00  1.74D+00
                    CP:  1.77D+00  1.55D+00  2.11D+00  1.28D+00
 E= -3010.52990492794     Delta-E=       -0.000000000362 Rises=F Damp=F
 DIIS: error= 2.59D-07 at cycle  15 NSaved=  15.
 NSaved=15 IEnMin=15 EnMin= -3010.52990492794     IErMin=15 ErrMin= 2.59D-07
 ErrMax= 2.59D-07  0.00D+00 EMaxC= 1.00D-01 BMatC= 1.31D-11 BMatP= 7.36D-11
 IDIUse=1 WtCom= 1.00D+00 WtEn= 0.00D+00
 Coeff-Com:  0.763D-05-0.101D-04 0.262D-05-0.125D-05 0.701D-04 0.115D-03
 Coeff-Com: -0.308D-03-0.593D-03 0.116D-02 0.828D-02-0.498D-02-0.564D-01
 Coeff-Com: -0.112D+00 0.315D+00 0.850D+00
 Coeff:      0.763D-05-0.101D-04 0.262D-05-0.125D-05 0.701D-04 0.115D-03
 Coeff:     -0.308D-03-0.593D-03 0.116D-02 0.828D-02-0.498D-02-0.564D-01
 Coeff:     -0.112D+00 0.315D+00 0.850D+00
 Gap=     0.247 Goal=   None    Shift=    0.000
 RMSDP=3.85D-07 MaxDP=3.51D-05 DE=-3.62D-10 OVMax= 9.77D-06

 Cycle  16  Pass 1  IDiag  1:
 RMSU=  4.64D-08    CP:  3.80D-01  2.37D+00  2.17D+00  8.16D-01  9.51D-01
                    CP:  8.89D-01  1.40D+00  1.26D+00  1.37D+00  1.74D+00
                    CP:  1.76D+00  1.57D+00  2.29D+00  1.48D+00  1.43D+00
 E= -3010.52990492802     Delta-E=       -0.000000000076 Rises=F Damp=F
 DIIS: error= 5.63D-08 at cycle  16 NSaved=  16.
 NSaved=16 IEnMin=16 EnMin= -3010.52990492802     IErMin=16 ErrMin= 5.63D-08
 ErrMax= 5.63D-08  0.00D+00 EMaxC= 1.00D-01 BMatC= 1.61D-12 BMatP= 1.31D-11
 IDIUse=1 WtCom= 1.00D+00 WtEn= 0.00D+00
 Coeff-Com:  0.163D-05-0.222D-05 0.201D-05 0.914D-05 0.494D-04 0.929D-04
 Coeff-Com:  0.132D-03-0.530D-03-0.261D-02 0.612D-03 0.178D-01 0.509D-02
 Coeff-Com: -0.889D-01-0.408D-01 0.195D+00 0.914D+00
 Coeff:      0.163D-05-0.222D-05 0.201D-05 0.914D-05 0.494D-04 0.929D-04
 Coeff:      0.132D-03-0.530D-03-0.261D-02 0.612D-03 0.178D-01 0.509D-02
 Coeff:     -0.889D-01-0.408D-01 0.195D+00 0.914D+00
 Gap=     0.247 Goal=   None    Shift=    0.000
 RMSDP=1.52D-07 MaxDP=1.61D-05 DE=-7.64D-11 OVMax= 2.43D-06

 Cycle  17  Pass 1  IDiag  1:
 RMSU=  2.29D-08    CP:  3.80D-01  2.37D+00  2.17D+00  8.16D-01  9.51D-01
                    CP:  8.89D-01  1.40D+00  1.26D+00  1.37D+00  1.74D+00
                    CP:  1.75D+00  1.57D+00  2.34D+00  1.57D+00  1.70D+00
                    CP:  1.25D+00
 E= -3010.52990492801     Delta-E=        0.000000000003 Rises=F Damp=F
 DIIS: error= 3.32D-08 at cycle  17 NSaved=  17.
 NSaved=17 IEnMin=16 EnMin= -3010.52990492802     IErMin=17 ErrMin= 3.32D-08
 ErrMax= 3.32D-08  0.00D+00 EMaxC= 1.00D-01 BMatC= 3.65D-13 BMatP= 1.61D-12
 IDIUse=1 WtCom= 1.00D+00 WtEn= 0.00D+00
 Coeff-Com: -0.108D-05 0.143D-05 0.115D-06 0.315D-05 0.487D-05 0.101D-04
 Coeff-Com:  0.724D-04-0.454D-04-0.103D-02-0.104D-02 0.420D-02 0.106D-01
 Coeff-Com: -0.128D-01-0.515D-01-0.738D-01 0.306D+00 0.820D+00
 Coeff:     -0.108D-05 0.143D-05 0.115D-06 0.315D-05 0.487D-05 0.101D-04
 Coeff:      0.724D-04-0.454D-04-0.103D-02-0.104D-02 0.420D-02 0.106D-01
 Coeff:     -0.128D-01-0.515D-01-0.738D-01 0.306D+00 0.820D+00
 Gap=     0.247 Goal=   None    Shift=    0.000
 RMSDP=3.46D-08 MaxDP=2.15D-06 DE= 2.73D-12 OVMax= 1.20D-06

 Cycle  18  Pass 1  IDiag  1:
 RMSU=  7.47D-09    CP:  3.80D-01  2.37D+00  2.17D+00  8.16D-01  9.51D-01
                    CP:  8.89D-01  1.40D+00  1.26D+00  1.37D+00  1.74D+00
                    CP:  1.75D+00  1.57D+00  2.36D+00  1.58D+00  1.79D+00
                    CP:  1.48D+00  1.14D+00
 E= -3010.52990492803     Delta-E=       -0.000000000014 Rises=F Damp=F
 DIIS: error= 1.28D-08 at cycle  18 NSaved=  18.
 NSaved=18 IEnMin=18 EnMin= -3010.52990492803     IErMin=18 ErrMin= 1.28D-08
 ErrMax= 1.28D-08  0.00D+00 EMaxC= 1.00D-01 BMatC= 7.76D-14 BMatP= 3.65D-13
 IDIUse=1 WtCom= 1.00D+00 WtEn= 0.00D+00
 Coeff-Com: -0.104D-06 0.140D-06-0.322D-06-0.183D-05-0.112D-04-0.216D-04
 Coeff-Com: -0.118D-04 0.145D-03 0.286D-03-0.337D-03-0.286D-02 0.391D-02
 Coeff-Com:  0.165D-01-0.543D-02-0.824D-01-0.107D+00 0.279D+00 0.898D+00
 Coeff:     -0.104D-06 0.140D-06-0.322D-06-0.183D-05-0.112D-04-0.216D-04
 Coeff:     -0.118D-04 0.145D-03 0.286D-03-0.337D-03-0.286D-02 0.391D-02
 Coeff:      0.165D-01-0.543D-02-0.824D-01-0.107D+00 0.279D+00 0.898D+00
 Gap=     0.247 Goal=   None    Shift=    0.000
 RMSDP=2.19D-08 MaxDP=2.50D-06 DE=-1.36D-11 OVMax= 4.00D-07

 Cycle  19  Pass 1  IDiag  1:
 RMSU=  2.70D-09    CP:  3.80D-01  2.37D+00  2.17D+00  8.16D-01  9.51D-01
                    CP:  8.89D-01  1.40D+00  1.26D+00  1.37D+00  1.74D+00
                    CP:  1.75D+00  1.57D+00  2.36D+00  1.58D+00  1.83D+00
                    CP:  1.60D+00  1.38D+00  1.16D+00
 E= -3010.52990492807     Delta-E=       -0.000000000037 Rises=F Damp=F
 DIIS: error= 2.70D-09 at cycle  19 NSaved=  19.
 NSaved=19 IEnMin=19 EnMin= -3010.52990492807     IErMin=19 ErrMin= 2.70D-09
 ErrMax= 2.70D-09  0.00D+00 EMaxC= 1.00D-01 BMatC= 3.39D-15 BMatP= 7.76D-14
 IDIUse=1 WtCom= 1.00D+00 WtEn= 0.00D+00
 Large coefficients: NSaved= 19 BigCof=    0.00 CofMax=   10.00 Det=-9.06D-15
 Inversion failed.  Reducing to 18 matrices.
 Large coefficients: NSaved= 18 BigCof=    0.00 CofMax=   10.00 Det=-9.12D-15
 Inversion failed.  Reducing to 17 matrices.
 Coeff-Com: -0.419D-07-0.107D-06 0.252D-06-0.405D-06-0.607D-05-0.157D-05
 Coeff-Com:  0.646D-04 0.137D-03-0.557D-03-0.424D-03 0.397D-03 0.501D-02
 Coeff-Com:  0.317D-02-0.223D-01-0.525D-01-0.931D-02 0.108D+01
 Coeff:     -0.419D-07-0.107D-06 0.252D-06-0.405D-06-0.607D-05-0.157D-05
 Coeff:      0.646D-04 0.137D-03-0.557D-03-0.424D-03 0.397D-03 0.501D-02
 Coeff:      0.317D-02-0.223D-01-0.525D-01-0.931D-02 0.108D+01
 Gap=     0.247 Goal=   None    Shift=    0.000
 RMSDP=3.65D-09 MaxDP=3.66D-07 DE=-3.73D-11 OVMax= 1.08D-07

 SCF Done:  E(RwB97XD) =  -3010.52990493     A.U. after   19 cycles
            NFock= 19  Conv=0.36D-08     -V/T= 2.0016
 KE= 3.005870163681D+03 PE=-8.707597488597D+03 EE= 1.910810494997D+03
 Leave Link  502 at Thu May  2 14:18:24 2024, MaxMem=   134217728 cpu:            1184.6 elap:            1185.0
 (Enter /software/gaussian/g16-c01/sse4/g16/l601.exe)
 Copying SCF densities to generalized density rwf, IOpCl= 0 IROHF=0.

 **********************************************************************

            Population analysis using the SCF Density.

 **********************************************************************

 Alpha  occ. eigenvalues -- -483.37239 -62.92273 -56.71954 -56.71400 -56.71392
 Alpha  occ. eigenvalues --  -19.57186 -19.57082 -14.96282 -10.65536 -10.64272
 Alpha  occ. eigenvalues --  -10.62166 -10.61464 -10.60311 -10.56679  -9.08087
 Alpha  occ. eigenvalues --   -6.90735  -6.88914  -6.88888  -3.00646  -3.00165
 Alpha  occ. eigenvalues --   -3.00144  -2.98687  -2.98686  -1.60757  -1.43829
 Alpha  occ. eigenvalues --   -1.28533  -1.19136  -1.18368  -1.10969  -1.07140
 Alpha  occ. eigenvalues --   -1.00853  -0.97066  -0.93698  -0.90756  -0.89147
 Alpha  occ. eigenvalues --   -0.86760  -0.84310  -0.82788  -0.81614  -0.77660
 Alpha  occ. eigenvalues --   -0.72881  -0.72645  -0.69011  -0.68457  -0.67845
 Alpha  occ. eigenvalues --   -0.67080  -0.65473  -0.62560  -0.60860
 Alpha virt. eigenvalues --   -0.36158  -0.29059  -0.21834  -0.19402  -0.16574
 Alpha virt. eigenvalues --   -0.13623  -0.12841  -0.12242  -0.10874  -0.08786
 Alpha virt. eigenvalues --   -0.08272  -0.07746  -0.07553  -0.06524  -0.05628
 Alpha virt. eigenvalues --   -0.05383  -0.04489  -0.03960  -0.03486  -0.02614
 Alpha virt. eigenvalues --   -0.02090  -0.00738  -0.00488   0.00661   0.00975
 Alpha virt. eigenvalues --    0.01466   0.01721   0.02427   0.02855   0.03470
 Alpha virt. eigenvalues --    0.04329   0.04832   0.05733   0.06119   0.06833
 Alpha virt. eigenvalues --    0.07029   0.07900   0.08473   0.09384   0.10055
 Alpha virt. eigenvalues --    0.11163   0.11695   0.11971   0.12765   0.13448
 Alpha virt. eigenvalues --    0.14455   0.14701   0.15792   0.17093   0.17330
 Alpha virt. eigenvalues --    0.18400   0.19318   0.20247   0.20606   0.22096
 Alpha virt. eigenvalues --    0.24528   0.25179   0.25431   0.27593   0.28701
 Alpha virt. eigenvalues --    0.31393   0.31648   0.34234   0.34881   0.36829
 Alpha virt. eigenvalues --    0.38668   0.38889   0.39349   0.40408   0.41741
 Alpha virt. eigenvalues --    0.42829   0.43236   0.44719   0.45961   0.47612
 Alpha virt. eigenvalues --    0.49493   0.50624   0.51887   0.53099   0.54387
 Alpha virt. eigenvalues --    0.57276   0.58102   0.58641   0.61574   0.64091
 Alpha virt. eigenvalues --    0.65076   0.66274   0.67348   0.69172   0.70287
 Alpha virt. eigenvalues --    0.71279   0.71843   0.72702   0.75978   0.77061
 Alpha virt. eigenvalues --    0.80378   0.81423   0.84069   0.87789   0.89420
 Alpha virt. eigenvalues --    0.90515   0.94281   0.96897   0.98919   0.99630
 Alpha virt. eigenvalues --    1.00852   1.02954   1.03401   1.04854   1.09319
 Alpha virt. eigenvalues --    1.11575   1.12842   1.21854   1.27676   1.30905
 Alpha virt. eigenvalues --    1.31496   1.32884   1.37502   1.47255   1.48410
 Alpha virt. eigenvalues --    1.50576   1.51246   1.55431   1.57659   1.60196
 Alpha virt. eigenvalues --    1.61300   1.64361   1.65741   1.70409   1.73711
 Alpha virt. eigenvalues --    1.79120   1.79854   1.81347   1.88400   1.89692
 Alpha virt. eigenvalues --    1.90091   1.95150   1.96334   2.00964   2.03068
 Alpha virt. eigenvalues --    2.07057   2.09151   2.15268   2.17522   2.23284
 Alpha virt. eigenvalues --    2.28123   2.32631   2.34266   2.38153   2.47962
 Alpha virt. eigenvalues --    2.52770   2.56697   2.60122   2.60952   2.63050
 Alpha virt. eigenvalues --    2.64955   2.66104   2.69968   2.71048   2.76341
 Alpha virt. eigenvalues --    2.86851   2.90119   2.93468   2.99337   3.02935
 Alpha virt. eigenvalues --    3.08301   3.11375   3.12773   3.13495   3.15691
 Alpha virt. eigenvalues --    3.21624   3.29580   3.42328   3.43276   3.44536
 Alpha virt. eigenvalues --    3.50634   3.58337   3.63589   3.78240   3.81751
 Alpha virt. eigenvalues --    4.03881   4.04742   4.13263   4.17465   4.33724
 Alpha virt. eigenvalues --    4.37608   4.47734   4.51605   4.82246   4.85004
 Alpha virt. eigenvalues --    4.93872   4.98361   5.51156   6.03939   6.61936
 Alpha virt. eigenvalues --    7.42774   7.45090   7.55256  23.16925  23.55792
 Alpha virt. eigenvalues --   23.65885  23.73334  23.91069  23.96105  35.20903
 Alpha virt. eigenvalues --   47.88071  49.74281  49.82943 289.75724 289.78064
 Alpha virt. eigenvalues --  289.906941020.89270
          Condensed to atoms (all electrons):
               1          2          3          4          5          6
     1  C    6.895382  -1.694019   0.520494   0.035825   0.289642   0.060337
     2  C   -1.694019  16.332920  -3.708752   0.460996  -0.028288   0.237914
     3  C    0.520494  -3.708752  19.020706  -0.917743   0.024434   0.099343
     4  C    0.035825   0.460996  -0.917743   6.206902   0.035215  -0.019405
     5  H    0.289642  -0.028288   0.024434   0.035215   0.292453  -0.001545
     6  H    0.060337   0.237914   0.099343  -0.019405  -0.001545   0.334043
     7  H    0.020677  -0.014093   0.008814   0.299390  -0.001794   0.000009
     8  N   -0.029192  -0.179424  -1.818159  -0.002382  -0.000465  -0.032440
     9  O   -0.003552   0.300811  -0.013231  -0.007549  -0.000020  -0.002143
    10  O    0.178246  -0.207159  -0.249505  -0.023350  -0.000053   0.014856
    11  C    0.448434  -0.713601   0.901234  -0.063515  -0.021973   0.010879
    12  H   -0.012559   0.018676   0.000757   0.034184   0.000053  -0.000015
    13  C   -0.593522  -4.848271  -7.533784   0.282005   0.023494  -0.030434
    14  H    0.000902   0.056021   0.212637  -0.005027  -0.000031   0.000099
    15  Br   0.016837  -0.190584  -0.385451  -0.005526   0.000036  -0.000940
               7          8          9         10         11         12
     1  C    0.020677  -0.029192  -0.003552   0.178246   0.448434  -0.012559
     2  C   -0.014093  -0.179424   0.300811  -0.207159  -0.713601   0.018676
     3  C    0.008814  -1.818159  -0.013231  -0.249505   0.901234   0.000757
     4  C    0.299390  -0.002382  -0.007549  -0.023350  -0.063515   0.034184
     5  H   -0.001794  -0.000465  -0.000020  -0.000053  -0.021973   0.000053
     6  H    0.000009  -0.032440  -0.002143   0.014856   0.010879  -0.000015
     7  H    0.270872   0.000157  -0.000007   0.000004   0.022540  -0.001629
     8  N    0.000157   7.365724   0.181667   0.292746  -0.030181  -0.000300
     9  O   -0.000007   0.181667   7.921677  -0.029827   0.133122   0.000156
    10  O    0.000004   0.292746  -0.029827   7.870194   0.015495  -0.000022
    11  C    0.022540  -0.030181   0.133122   0.015495   6.920695   0.313544
    12  H   -0.001629  -0.000300   0.000156  -0.000022   0.313544   0.279286
    13  C   -0.013317   1.365638  -0.454820   0.148328  -1.776507  -0.032840
    14  H   -0.000011  -0.049853   0.013061  -0.001892  -0.067362  -0.003461
    15  Br  -0.000420   0.172896  -0.059193   0.006875   0.057884   0.004749
              13         14         15
     1  C   -0.593522   0.000902   0.016837
     2  C   -4.848271   0.056021  -0.190584
     3  C   -7.533784   0.212637  -0.385451
     4  C    0.282005  -0.005027  -0.005526
     5  H    0.023494  -0.000031   0.000036
     6  H   -0.030434   0.000099  -0.000940
     7  H   -0.013317  -0.000011  -0.000420
     8  N    1.365638  -0.049853   0.172896
     9  O   -0.454820   0.013061  -0.059193
    10  O    0.148328  -0.001892   0.006875
    11  C   -1.776507  -0.067362   0.057884
    12  H   -0.032840  -0.003461   0.004749
    13  C   19.028172   0.147663   0.544478
    14  H    0.147663   0.359154  -0.052069
    15  Br   0.544478  -0.052069  34.739723
 Mulliken charges:
               1
     1  C   -0.133933
     2  C    0.176853
     3  C   -0.161796
     4  C   -0.310020
     5  H    0.388842
     6  H    0.329442
     7  H    0.408808
     8  N   -0.236433
     9  O    0.019848
    10  O   -0.014936
    11  C   -0.150687
    12  H    0.399421
    13  C   -0.256283
    14  H    0.390172
    15  Br   0.150704
 Sum of Mulliken charges =   1.00000
 Mulliken charges with hydrogens summed into heavy atoms:
               1
     1  C    0.254909
     2  C    0.506295
     3  C   -0.161796
     4  C    0.098788
     8  N   -0.236433
     9  O    0.019848
    10  O   -0.014936
    11  C    0.248733
    13  C    0.133888
    15  Br   0.150704
 Electronic spatial extent (au):  <R**2>=           3961.7925
 Charge=              1.0000 electrons
 Dipole moment (field-independent basis, Debye):
    X=             -2.2215    Y=             -0.6588    Z=             -0.5156  Tot=              2.3738
 Quadrupole moment (field-independent basis, Debye-Ang):
   XX=            -87.9765   YY=            -51.5182   ZZ=            -62.7354
   XY=             -1.6983   XZ=             -1.1941   YZ=              1.8978
 Traceless Quadrupole moment (field-independent basis, Debye-Ang):
   XX=            -20.5665   YY=             15.8918   ZZ=              4.6747
   XY=             -1.6983   XZ=             -1.1941   YZ=              1.8978
 Octapole moment (field-independent basis, Debye-Ang**2):
  XXX=           -616.8648  YYY=             93.9938  ZZZ=             84.6254  XYY=           -148.2459
  XXY=             27.9384  XXZ=             30.2563  XZZ=           -139.0491  YZZ=             18.6727
  YYZ=             27.0146  XYZ=              5.0761
 Hexadecapole moment (field-independent basis, Debye-Ang**3):
 XXXX=          -3970.1751 YYYY=           -704.5356 ZZZZ=           -399.9511 XXXY=            186.6863
 XXXZ=            198.8951 YYYX=            194.1040 YYYZ=           -175.8482 ZZZX=            176.7308
 ZZZY=           -148.1483 XXYY=           -671.9645 XXZZ=           -551.3482 YYZZ=           -174.8869
 XXYZ=            -51.4138 YYXZ=             56.6166 ZZXY=             36.6034
 N-N= 7.803869249899D+02 E-N=-8.707597488019D+03  KE= 3.005870163681D+03
 No NMR shielding tensors so no spin-rotation constants.
 Leave Link  601 at Thu May  2 14:18:32 2024, MaxMem=   134217728 cpu:               7.2 elap:               7.2
 (Enter /software/gaussian/g16-c01/sse4/g16/l9999.exe)
 Unable to Open any file for archive entry.
 1\1\GINC-BHX0008\SP\RwB97XD\6-311+G(d)\C6H5Br1N1O2(1+)\BWEIGHT\02-May-
 2024\0\\#P wB97XD/6-311+G* NoSymm #P Field=X+175\\TitleMe\\1,1\C,0,0.5
 193,1.233,-0.0319\C,0,1.9445,1.2692,-0.0367\C,0,2.6204,0.0928,-0.025\C
 ,0,-0.196,0.0301,0.001\H,0,-0.0207,2.1742,-0.0434\H,0,2.4828,2.2089,-0
 .0361\H,0,-1.2777,0.0399,0.0117\N,0,4.0921,0.0959,0.0366\O,0,4.6393,-1
 .0217,0.1446\O,0,4.6649,1.1984,-0.0233\C,0,0.4943,-1.1671,0.021\H,0,-0
 .0325,-2.1149,0.0545\C,0,1.9629,-1.2165,-0.0211\H,0,2.4436,-1.9631,0.6
 151\Br,0,2.173,-1.9491,-1.9062\\Version=ES64L-G16RevC.01\HF=-3010.5299
 049\RMSD=3.649e-09\Dipole=-5.2032213,0.9689402,1.0463671\Quadrupole=-1
 5.2906821,11.8151842,3.4754979,-1.2626349,-0.8878007,1.4109703\PG=C01 
 [X(C6H5Br1N1O2)]\\@
 The archive entry for this job was punched.


 A COMPLEXITY IS MERELY A DISARRANGEMENT OF SIMPLICITIES.

                                    -- G. O. ABELL IN "EXPLORATION OF THE UNIVERSE"
 Job cpu time:       0 days  0 hours 20 minutes 55.4 seconds.
 Elapsed time:       0 days  0 hours 20 minutes 55.7 seconds.
 File lengths (MBytes):  RWF=     40 Int=      0 D2E=      0 Chk=     32 Scr=      1
 Normal termination of Gaussian 16 at Thu May  2 14:18:33 2024.
