 Entering Gaussian System, Link 0=g16
 Initial command:
 /software/gaussian/g16-c01/sse4/g16/l1.exe "/local_scratch/24665354/Gau-10246.inp" -scrdir="/local_scratch/24665354/"
 Entering Link 1 = /software/gaussian/g16-c01/sse4/g16/l1.exe PID=     10247.
  
 Copyright (c) 1988-2019, Gaussian, Inc.  All Rights Reserved.
  
 This is part of the Gaussian(R) 16 program.  It is based on
 the Gaussian(R) 09 system (copyright 2009, Gaussian, Inc.),
 the Gaussian(R) 03 system (copyright 2003, Gaussian, Inc.),
 the Gaussian(R) 98 system (copyright 1998, Gaussian, Inc.),
 the Gaussian(R) 94 system (copyright 1995, Gaussian, Inc.),
 the Gaussian 92(TM) system (copyright 1992, Gaussian, Inc.),
 the Gaussian 90(TM) system (copyright 1990, Gaussian, Inc.),
 the Gaussian 88(TM) system (copyright 1988, Gaussian, Inc.),
 the Gaussian 86(TM) system (copyright 1986, Carnegie Mellon
 University), and the Gaussian 82(TM) system (copyright 1983,
 Carnegie Mellon University). Gaussian is a federally registered
 trademark of Gaussian, Inc.
  
 This software contains proprietary and confidential information,
 including trade secrets, belonging to Gaussian, Inc.
  
 This software is provided under written license and may be
 used, copied, transmitted, or stored only in accord with that
 written license.
  
 The following legend is applicable only to US Government
 contracts under FAR:
  
                    RESTRICTED RIGHTS LEGEND
  
 Use, reproduction and disclosure by the US Government is
 subject to restrictions as set forth in subparagraphs (a)
 and (c) of the Commercial Computer Software - Restricted
 Rights clause in FAR 52.227-19.
  
 Gaussian, Inc.
 340 Quinnipiac St., Bldg. 40, Wallingford CT 06492
  
  
 ---------------------------------------------------------------
 Warning -- This program may not be used in any manner that
 competes with the business of Gaussian, Inc. or will provide
 assistance to any competitor of Gaussian, Inc.  The licensee
 of this program is prohibited from giving any competitor of
 Gaussian, Inc. access to this program.  By using this program,
 the user acknowledges that Gaussian, Inc. is engaged in the
 business of creating and licensing software in the field of
 computational chemistry and represents and warrants to the
 licensee that it is not a competitor of Gaussian, Inc. and that
 it will not use this program in any manner prohibited above.
 ---------------------------------------------------------------
  

 Cite this work as:
 Gaussian 16, Revision C.01,
 M. J. Frisch, G. W. Trucks, H. B. Schlegel, G. E. Scuseria, 
 M. A. Robb, J. R. Cheeseman, G. Scalmani, V. Barone, 
 G. A. Petersson, H. Nakatsuji, X. Li, M. Caricato, A. V. Marenich, 
 J. Bloino, B. G. Janesko, R. Gomperts, B. Mennucci, H. P. Hratchian, 
 J. V. Ortiz, A. F. Izmaylov, J. L. Sonnenberg, D. Williams-Young, 
 F. Ding, F. Lipparini, F. Egidi, J. Goings, B. Peng, A. Petrone, 
 T. Henderson, D. Ranasinghe, V. G. Zakrzewski, J. Gao, N. Rega, 
 G. Zheng, W. Liang, M. Hada, M. Ehara, K. Toyota, R. Fukuda, 
 J. Hasegawa, M. Ishida, T. Nakajima, Y. Honda, O. Kitao, H. Nakai, 
 T. Vreven, K. Throssell, J. A. Montgomery, Jr., J. E. Peralta, 
 F. Ogliaro, M. J. Bearpark, J. J. Heyd, E. N. Brothers, K. N. Kudin, 
 V. N. Staroverov, T. A. Keith, R. Kobayashi, J. Normand, 
 K. Raghavachari, A. P. Rendell, J. C. Burant, S. S. Iyengar, 
 J. Tomasi, M. Cossi, J. M. Millam, M. Klene, C. Adamo, R. Cammi, 
 J. W. Ochterski, R. L. Martin, K. Morokuma, O. Farkas, 
 J. B. Foresman, and D. J. Fox, Gaussian, Inc., Wallingford CT, 2019.
 
 ******************************************
 Gaussian 16:  ES64L-G16RevC.01  3-Jul-2019
                 2-May-2024 
 ******************************************
 %chk=geometry.chk
 %mem=1GB
 %nprocshared=12
 Will use up to   12 processors via shared memory.
 ----------------------------------------
 #P wB97XD/6-311+G* NoSymm #P Field=Z-282
 ----------------------------------------
 1/38=1,172=1/1;
 2/12=2,15=1,17=6,18=5,40=1/2;
 3/5=4,6=6,7=11,11=2,14=3,15=-282,25=1,30=1,74=-58/1,2,3;
 4//1;
 5/5=2,38=5/2;
 6/7=2,8=2,9=2,10=2,28=1/1;
 99/5=1,9=1/99;
 Leave Link    1 at Thu May  2 13:58:19 2024, MaxMem=   134217728 cpu:               2.4 elap:               2.4
 (Enter /software/gaussian/g16-c01/sse4/g16/l101.exe)
 -------
 TitleMe
 -------
 Symbolic Z-matrix:
 Charge =  1 Multiplicity = 1
 C                     0.5193    1.233    -0.0319 
 C                     1.9445    1.2692   -0.0367 
 C                     2.6204    0.0928   -0.025 
 C                    -0.196     0.0301    0.001 
 H                    -0.0207    2.1742   -0.0434 
 H                     2.4828    2.2089   -0.0361 
 H                    -1.2777    0.0399    0.0117 
 N                     4.0921    0.0959    0.0366 
 O                     4.6393   -1.0217    0.1446 
 O                     4.6649    1.1984   -0.0233 
 C                     0.4943   -1.1671    0.021 
 H                    -0.0325   -2.1149    0.0545 
 C                     1.9629   -1.2165   -0.0211 
 H                     2.4436   -1.9631    0.6151 
 Br                    2.173    -1.9491   -1.9062 
 
 ITRead=  0  0  0  0  0  0  0  0  0  0  0  0  0  0  0
 MicOpt= -1 -1 -1 -1 -1 -1 -1 -1 -1 -1 -1 -1 -1 -1 -1
 NAtoms=     15 NQM=       15 NQMF=       0 NMMI=      0 NMMIF=      0
                NMic=       0 NMicF=      0.
                    Isotopes and Nuclear Properties:
 (Nuclear quadrupole moments (NQMom) in fm**2, nuclear magnetic moments (NMagM)
  in nuclear magnetons)

  Atom         1           2           3           4           5           6           7           8           9          10
 IAtWgt=          12          12          12          12           1           1           1          14          16          16
 AtmWgt=  12.0000000  12.0000000  12.0000000  12.0000000   1.0078250   1.0078250   1.0078250  14.0030740  15.9949146  15.9949146
 NucSpn=           0           0           0           0           1           1           1           2           0           0
 AtZEff=  -0.0000000  -0.0000000  -0.0000000  -0.0000000  -0.0000000  -0.0000000  -0.0000000  -0.0000000  -0.0000000  -0.0000000
 NQMom=    0.0000000   0.0000000   0.0000000   0.0000000   0.0000000   0.0000000   0.0000000   2.0440000   0.0000000   0.0000000
 NMagM=    0.0000000   0.0000000   0.0000000   0.0000000   2.7928460   2.7928460   2.7928460   0.4037610   0.0000000   0.0000000
 AtZNuc=   6.0000000   6.0000000   6.0000000   6.0000000   1.0000000   1.0000000   1.0000000   7.0000000   8.0000000   8.0000000

  Atom        11          12          13          14          15
 IAtWgt=          12           1          12           1          79
 AtmWgt=  12.0000000   1.0078250  12.0000000   1.0078250  78.9183361
 NucSpn=           0           1           0           1           3
 AtZEff=  -0.0000000  -0.0000000  -0.0000000  -0.0000000  -0.0000000
 NQMom=    0.0000000   0.0000000   0.0000000   0.0000000  31.3000000
 NMagM=    0.0000000   2.7928460   0.0000000   2.7928460   2.1063990
 AtZNuc=   6.0000000   1.0000000   6.0000000   1.0000000  35.0000000
 Leave Link  101 at Thu May  2 13:58:21 2024, MaxMem=   134217728 cpu:               1.6 elap:               1.6
 (Enter /software/gaussian/g16-c01/sse4/g16/l202.exe)
                          Input orientation:                          
 ---------------------------------------------------------------------
 Center     Atomic      Atomic             Coordinates (Angstroms)
 Number     Number       Type             X           Y           Z
 ---------------------------------------------------------------------
      1          6           0        0.519300    1.233000   -0.031900
      2          6           0        1.944500    1.269200   -0.036700
      3          6           0        2.620400    0.092800   -0.025000
      4          6           0       -0.196000    0.030100    0.001000
      5          1           0       -0.020700    2.174200   -0.043400
      6          1           0        2.482800    2.208900   -0.036100
      7          1           0       -1.277700    0.039900    0.011700
      8          7           0        4.092100    0.095900    0.036600
      9          8           0        4.639300   -1.021700    0.144600
     10          8           0        4.664900    1.198400   -0.023300
     11          6           0        0.494300   -1.167100    0.021000
     12          1           0       -0.032500   -2.114900    0.054500
     13          6           0        1.962900   -1.216500   -0.021100
     14          1           0        2.443600   -1.963100    0.615100
     15         35           0        2.173000   -1.949100   -1.906200
 ---------------------------------------------------------------------
                    Distance matrix (angstroms):
                    1          2          3          4          5
     1  C    0.000000
     2  C    1.425668   0.000000
     3  C    2.390549   1.356796   0.000000
     4  C    1.399895   2.473566   2.817218   0.000000
     5  H    1.085168   2.163581   3.362733   2.151712   0.000000
     6  H    2.192654   1.082960   2.120598   3.453189   2.503751
     7  H    2.157452   3.449071   3.898632   1.081797   2.477564
     8  N    3.750012   2.448304   1.472992   4.288753   4.608780
     9  O    4.699917   3.541615   2.312322   4.950458   5.653735
    10  O    4.145753   2.721354   2.324292   4.999386   4.786171
    11  C    2.400813   2.835836   2.471794   1.382101   3.381369
    12  H    3.394169   3.920329   3.452266   2.151887   4.290233
    13  C    2.843264   2.485817   1.465124   2.493060   3.928360
    14  H    3.786370   3.334922   2.160489   3.364142   4.860416
    15  Br   4.046416   3.728900   2.812194   3.628609   5.028314
                    6          7          8          9         10
     6  H    0.000000
     7  H    4.341452   0.000000
     8  N    2.657047   5.370150   0.000000
     9  O    3.888434   6.012948   1.249048   0.000000
    10  O    2.404752   6.054572   1.243863   2.226587   0.000000
    11  C    3.918516   2.144043   3.813080   4.149391   4.794941
    12  H    5.003018   2.489080   4.679774   4.798846   5.748876
    13  C    3.464662   3.475788   2.501842   2.688591   3.623886
    14  H    4.222698   4.268978   2.700314   2.434893   3.916224
    15  Br   4.569706   4.420610   3.411663   3.338935   4.434144
                   11         12         13         14         15
    11  C    0.000000
    12  H    1.084880   0.000000
    13  C    1.470034   2.189625   0.000000
    14  H    2.187771   2.543302   1.092353   0.000000
    15  Br   2.672762   2.955683   2.033334   2.535818   0.000000
 Symmetry turned off by external request.
 Stoichiometry    C6H5BrNO2(1+)
 Framework group  C1[X(C6H5BrNO2)]
 Deg. of freedom    39
 Full point group                 C1      NOp   1
 Rotational constants (GHZ):           1.1632986           0.9594224           0.5957624
 Leave Link  202 at Thu May  2 13:58:23 2024, MaxMem=   134217728 cpu:               1.4 elap:               1.4
 (Enter /software/gaussian/g16-c01/sse4/g16/l301.exe)
 Standard basis: 6-311+G(d) (5D, 7F)
 Ernie: Thresh=  0.10000D-02 Tol=  0.10000D-05 Strict=F.
 The following finite field(s) will be applied:
 An electric field of              0.0000  0.0000 -0.0282
   261 basis functions,   443 primitive gaussians,   273 cartesian basis functions
    49 alpha electrons       49 beta electrons
       nuclear repulsion energy       772.8945969580 Hartrees.
 IExCor= 4639 DFT=T Ex+Corr=wB97XD ExCW=0 ScaHFX=  1.000000
 ScaDFX=  1.000000  1.000000  1.000000  1.000000 ScalE2=  1.000000  1.000000
 IRadAn=      5 IRanWt=     -1 IRanGd=            0 ICorTp=0 IEmpDi=121
 HFx  wShort=  0.000000 wLong=  0.200000 cFull=  0.222036 cShort=  0.000000 cLong=  0.777964
 DFx  wShort=  0.000000 wLong=  0.200000 cFull=  0.000000 cShort=  0.000000 cLong=  1.000000
 NAtoms=   15 NActive=   15 NUniq=   15 SFac= 1.00D+00 NAtFMM=   60 NAOKFM=F Big=F
 Integral buffers will be    131072 words long.
 Raffenetti 2 integral format.
 Two-electron integral symmetry is turned off.
 R6Disp:  Grimme-D2 Dispersion energy=       -0.0080346408 Hartrees.
 Nuclear repulsion after empirical dispersion term =      772.8865623173 Hartrees.
 Leave Link  301 at Thu May  2 13:58:24 2024, MaxMem=   134217728 cpu:               1.0 elap:               1.0
 (Enter /software/gaussian/g16-c01/sse4/g16/l302.exe)
 NPDir=0 NMtPBC=     1 NCelOv=     1 NCel=       1 NClECP=     1 NCelD=      1
         NCelK=      1 NCelE2=     1 NClLst=     1 CellRange=     0.0.
 One-electron integrals computed using PRISM.
 NBasis=   261 RedAO= T EigKep=  2.52D-06  NBF=   261
 NBsUse=   261 1.00D-06 EigRej= -1.00D+00 NBFU=   261
 Precomputing XC quadrature grid using
 IXCGrd= 4 IRadAn=           5 IRanWt=          -1 IRanGd=           0 AccXCQ= 0.00D+00.
 Generated NRdTot=       0 NPtTot=           0 NUsed=           0 NTot=          32
 NSgBfM=   273   273   273   273   273 MxSgAt=    15 MxSgA2=    15.
 Leave Link  302 at Thu May  2 13:58:46 2024, MaxMem=   134217728 cpu:              21.9 elap:              21.9
 (Enter /software/gaussian/g16-c01/sse4/g16/l303.exe)
 DipDrv:  MaxL=1.
 The nuclear repulsion energy is now       776.3741338187 hartrees.
 Leave Link  303 at Thu May  2 13:58:49 2024, MaxMem=   134217728 cpu:               3.4 elap:               3.4
 (Enter /software/gaussian/g16-c01/sse4/g16/l401.exe)
 ExpMin= 3.50D-02 ExpMax= 4.40D+05 ExpMxC= 1.51D+04 IAcc=3 IRadAn=         5 AccDes= 0.00D+00
 Harris functional with IExCor= 4639 and IRadAn=       5 diagonalized for initial guess.
 HarFok:  IExCor= 4639 AccDes= 0.00D+00 IRadAn=         5 IDoV= 1 UseB2=F ITyADJ=14
 ICtDFT=  3500011 ScaDFX=  1.000000  1.000000  1.000000  1.000000
 FoFCou: FMM=F IPFlag=           0 FMFlag=      100000 FMFlg1=           0
         NFxFlg=           0 DoJE=T BraDBF=F KetDBF=T FulRan=T
         wScrn=  0.000000 ICntrl=       500 IOpCl=  0 I1Cent=   200000004 NGrid=           0
         NMat0=    1 NMatS0=      1 NMatT0=    0 NMatD0=    1 NMtDS0=    0 NMtDT0=    0
 Symmetry not used in FoFCou.
 Harris En= -2970.81129010433    
 JPrj=0 DoOrth=F DoCkMO=F.
 Leave Link  401 at Thu May  2 13:59:21 2024, MaxMem=   134217728 cpu:              31.3 elap:              31.3
 (Enter /software/gaussian/g16-c01/sse4/g16/l502.exe)
 Two-electron integral symmetry not used.
 Closed shell SCF:
 Using DIIS extrapolation, IDIIS=  1040.
 NGot=   134217728 LenX=   134063053 LenY=   133988083
 Requested convergence on RMS density matrix=1.00D-08 within 128 cycles.
 Requested convergence on MAX density matrix=1.00D-06.
 Requested convergence on             energy=1.00D-06.
 No special actions if energy rises.
 Fock matrices will be formed incrementally for  20 cycles.

 Cycle   1  Pass 1  IDiag  1:
 FoFJK:  IHMeth= 1 ICntrl=       0 DoSepK=T KAlg= 0 I1Cent=           0 FoldK=F
 IRaf=         1 NMat=       1 IRICut=       1 DoRegI=T DoRafI=F ISym2E= 0 IDoP0=0 IntGTp=1.
 FoFCou: FMM=F IPFlag=           0 FMFlag=      100000 FMFlg1=           0
         NFxFlg=           0 DoJE=T BraDBF=F KetDBF=F FulRan=T
         wScrn=  0.000000 ICntrl=       500 IOpCl=  0 I1Cent=           0 NGrid=           0
         NMat0=    1 NMatS0=      1 NMatT0=    0 NMatD0=    1 NMtDS0=    0 NMtDT0=    0
 Symmetry not used in FoFCou.
 E= -3008.11296205293    
 DIIS: error= 2.93D-01 at cycle   1 NSaved=   1.
 NSaved= 1 IEnMin= 1 EnMin= -3008.11296205293     IErMin= 1 ErrMin= 2.93D-01
 ErrMax= 2.93D-01  0.00D+00 EMaxC= 1.00D-01 BMatC= 1.26D+01 BMatP= 1.26D+01
 IDIUse=3 WtCom= 0.00D+00 WtEn= 1.00D+00
 Coeff-Com:  0.100D+01
 Coeff-En:   0.100D+01
 Coeff:      0.100D+01
 Gap=     0.156 Goal=   None    Shift=    0.000
 GapD=    0.156 DampG=1.000 DampE=0.250 DampFc=0.2500 IDamp=-1.
 Damping current iteration by 2.50D-01
 RMSDP=3.42D+00 MaxDP=3.60D+02              OVMax= 8.83D-01

 Cycle   2  Pass 1  IDiag  1:
 RMSU=  2.60D-02    CP:  7.54D-01
 E= -3008.72747717295     Delta-E=       -0.614515120017 Rises=F Damp=T
 DIIS: error= 2.20D-01 at cycle   2 NSaved=   2.
 NSaved= 2 IEnMin= 2 EnMin= -3008.72747717295     IErMin= 2 ErrMin= 2.20D-01
 ErrMax= 2.20D-01  0.00D+00 EMaxC= 1.00D-01 BMatC= 5.65D+00 BMatP= 1.26D+01
 IDIUse=3 WtCom= 0.00D+00 WtEn= 1.00D+00
 Coeff-Com: -0.134D+01 0.234D+01
 Coeff-En:   0.158D+00 0.842D+00
 Coeff:      0.158D+00 0.842D+00
 Gap=     0.537 Goal=   None    Shift=    0.000
 RMSDP=2.56D+00 MaxDP=2.71D+02 DE=-6.15D-01 OVMax= 7.11D-01

 Cycle   3  Pass 1  IDiag  1:
 RMSU=  2.24D-02    CP:  1.52D-02  2.78D+00
 E= -3010.06018583613     Delta-E=       -1.332708663183 Rises=F Damp=F
 DIIS: error= 8.35D-02 at cycle   3 NSaved=   3.
 NSaved= 3 IEnMin= 3 EnMin= -3010.06018583613     IErMin= 3 ErrMin= 8.35D-02
 ErrMax= 8.35D-02  0.00D+00 EMaxC= 1.00D-01 BMatC= 1.47D+00 BMatP= 5.65D+00
 IDIUse=3 WtCom= 1.65D-01 WtEn= 8.35D-01
 Coeff-Com:  0.109D+00 0.150D+00 0.741D+00
 Coeff-En:   0.925D-01 0.000D+00 0.908D+00
 Coeff:      0.952D-01 0.247D-01 0.880D+00
 Gap=     0.210 Goal=   None    Shift=    0.000
 RMSDP=3.47D-02 MaxDP=2.22D+00 DE=-1.33D+00 OVMax= 3.08D-01

 Cycle   4  Pass 1  IDiag  1:
 RMSU=  3.22D-02    CP:  1.54D-02  2.32D+00  7.57D-01
 E= -3010.16685486001     Delta-E=       -0.106669023874 Rises=F Damp=F
 DIIS: error= 5.93D-02 at cycle   4 NSaved=   4.
 NSaved= 4 IEnMin= 4 EnMin= -3010.16685486001     IErMin= 4 ErrMin= 5.93D-02
 ErrMax= 5.93D-02  0.00D+00 EMaxC= 1.00D-01 BMatC= 9.17D-01 BMatP= 1.47D+00
 IDIUse=3 WtCom= 4.07D-01 WtEn= 5.93D-01
 Coeff-Com:  0.788D-01-0.592D-01 0.473D+00 0.507D+00
 Coeff-En:   0.000D+00 0.000D+00 0.438D+00 0.562D+00
 Coeff:      0.321D-01-0.241D-01 0.452D+00 0.540D+00
 Gap=     0.295 Goal=   None    Shift=    0.000
 RMSDP=1.96D-02 MaxDP=1.85D+00 DE=-1.07D-01 OVMax= 2.20D-01

 Cycle   5  Pass 1  IDiag  1:
 RMSU=  9.24D-03    CP:  1.32D-02  2.12D+00  8.08D-01  5.46D-01
 E= -3010.47567309796     Delta-E=       -0.308818237958 Rises=F Damp=F
 DIIS: error= 3.80D-02 at cycle   5 NSaved=   5.
 NSaved= 5 IEnMin= 5 EnMin= -3010.47567309796     IErMin= 5 ErrMin= 3.80D-02
 ErrMax= 3.80D-02  0.00D+00 EMaxC= 1.00D-01 BMatC= 1.06D-01 BMatP= 9.17D-01
 IDIUse=3 WtCom= 6.20D-01 WtEn= 3.80D-01
 Coeff-Com:  0.450D-01-0.505D-01 0.275D+00 0.346D+00 0.385D+00
 Coeff-En:   0.000D+00 0.000D+00 0.000D+00 0.147D+00 0.853D+00
 Coeff:      0.279D-01-0.313D-01 0.170D+00 0.270D+00 0.563D+00
 Gap=     0.285 Goal=   None    Shift=    0.000
 RMSDP=8.02D-03 MaxDP=6.71D-01 DE=-3.09D-01 OVMax= 1.81D-01

 Cycle   6  Pass 1  IDiag  1:
 RMSU=  5.09D-03    CP:  1.34D-02  1.92D+00  7.91D-01  6.04D-01  7.53D-01
 E= -3010.52747691969     Delta-E=       -0.051803821725 Rises=F Damp=F
 DIIS: error= 2.33D-02 at cycle   6 NSaved=   6.
 NSaved= 6 IEnMin= 6 EnMin= -3010.52747691969     IErMin= 6 ErrMin= 2.33D-02
 ErrMax= 2.33D-02  0.00D+00 EMaxC= 1.00D-01 BMatC= 3.64D-02 BMatP= 1.06D-01
 IDIUse=3 WtCom= 7.67D-01 WtEn= 2.33D-01
 Coeff-Com:  0.397D-02-0.556D-02 0.351D-01 0.664D-01 0.369D+00 0.531D+00
 Coeff-En:   0.000D+00 0.000D+00 0.000D+00 0.000D+00 0.286D+00 0.714D+00
 Coeff:      0.304D-02-0.427D-02 0.269D-01 0.510D-01 0.350D+00 0.573D+00
 Gap=     0.242 Goal=   None    Shift=    0.000
 RMSDP=3.57D-03 MaxDP=3.60D-01 DE=-5.18D-02 OVMax= 8.14D-02

 Cycle   7  Pass 1  IDiag  1:
 RMSU=  1.63D-03    CP:  1.40D-02  1.96D+00  8.22D-01  5.77D-01  9.09D-01
                    CP:  7.53D-01
 E= -3010.55064287960     Delta-E=       -0.023165959913 Rises=F Damp=F
 DIIS: error= 3.89D-03 at cycle   7 NSaved=   7.
 NSaved= 7 IEnMin= 7 EnMin= -3010.55064287960     IErMin= 7 ErrMin= 3.89D-03
 ErrMax= 3.89D-03  0.00D+00 EMaxC= 1.00D-01 BMatC= 1.43D-03 BMatP= 3.64D-02
 IDIUse=3 WtCom= 9.61D-01 WtEn= 3.89D-02
 Coeff-Com:  0.254D-03-0.544D-03-0.110D-01-0.647D-02 0.131D+00 0.312D+00
 Coeff-Com:  0.574D+00
 Coeff-En:   0.000D+00 0.000D+00 0.000D+00 0.000D+00 0.000D+00 0.000D+00
 Coeff-En:   0.100D+01
 Coeff:      0.244D-03-0.523D-03-0.106D-01-0.621D-02 0.126D+00 0.300D+00
 Coeff:      0.591D+00
 Gap=     0.241 Goal=   None    Shift=    0.000
 RMSDP=1.12D-03 MaxDP=1.34D-01 DE=-2.32D-02 OVMax= 1.24D-02

 Cycle   8  Pass 1  IDiag  1:
 RMSU=  5.90D-04    CP:  1.40D-02  1.94D+00  8.14D-01  5.76D-01  9.39D-01
                    CP:  8.83D-01  9.27D-01
 E= -3010.55162078990     Delta-E=       -0.000977910300 Rises=F Damp=F
 DIIS: error= 7.18D-04 at cycle   8 NSaved=   8.
 NSaved= 8 IEnMin= 8 EnMin= -3010.55162078990     IErMin= 8 ErrMin= 7.18D-04
 ErrMax= 7.18D-04  0.00D+00 EMaxC= 1.00D-01 BMatC= 9.17D-05 BMatP= 1.43D-03
 IDIUse=3 WtCom= 9.93D-01 WtEn= 7.18D-03
 Coeff-Com: -0.112D-02 0.120D-02-0.766D-02-0.811D-02 0.114D-01 0.572D-01
 Coeff-Com:  0.272D+00 0.675D+00
 Coeff-En:   0.000D+00 0.000D+00 0.000D+00 0.000D+00 0.000D+00 0.000D+00
 Coeff-En:   0.000D+00 0.100D+01
 Coeff:     -0.111D-02 0.119D-02-0.760D-02-0.805D-02 0.113D-01 0.568D-01
 Coeff:      0.270D+00 0.677D+00
 Gap=     0.238 Goal=   None    Shift=    0.000
 RMSDP=4.23D-04 MaxDP=4.34D-02 DE=-9.78D-04 OVMax= 2.50D-03

 Cycle   9  Pass 1  IDiag  1:
 RMSU=  9.82D-05    CP:  1.41D-02  1.95D+00  8.16D-01  5.77D-01  9.50D-01
                    CP:  8.90D-01  1.02D+00  1.09D+00
 E= -3010.55168790305     Delta-E=       -0.000067113146 Rises=F Damp=F
 DIIS: error= 1.50D-04 at cycle   9 NSaved=   9.
 NSaved= 9 IEnMin= 9 EnMin= -3010.55168790305     IErMin= 9 ErrMin= 1.50D-04
 ErrMax= 1.50D-04  0.00D+00 EMaxC= 1.00D-01 BMatC= 4.99D-06 BMatP= 9.17D-05
 IDIUse=3 WtCom= 9.98D-01 WtEn= 1.50D-03
 Coeff-Com: -0.648D-03 0.820D-03-0.152D-02-0.186D-02-0.597D-02-0.512D-02
 Coeff-Com:  0.510D-01 0.255D+00 0.709D+00
 Coeff-En:   0.000D+00 0.000D+00 0.000D+00 0.000D+00 0.000D+00 0.000D+00
 Coeff-En:   0.000D+00 0.000D+00 0.100D+01
 Coeff:     -0.647D-03 0.819D-03-0.152D-02-0.186D-02-0.596D-02-0.511D-02
 Coeff:      0.509D-01 0.254D+00 0.709D+00
 Gap=     0.239 Goal=   None    Shift=    0.000
 RMSDP=9.07D-05 MaxDP=9.50D-03 DE=-6.71D-05 OVMax= 1.07D-03

 Cycle  10  Pass 1  IDiag  1:
 RMSU=  6.61D-05    CP:  1.40D-02  1.94D+00  8.16D-01  5.77D-01  9.48D-01
                    CP:  8.90D-01  1.02D+00  1.07D+00  8.55D-01
 E= -3010.55169438221     Delta-E=       -0.000006479167 Rises=F Damp=F
 DIIS: error= 8.27D-05 at cycle  10 NSaved=  10.
 NSaved=10 IEnMin=10 EnMin= -3010.55169438221     IErMin=10 ErrMin= 8.27D-05
 ErrMax= 8.27D-05  0.00D+00 EMaxC= 1.00D-01 BMatC= 1.08D-06 BMatP= 4.99D-06
 IDIUse=1 WtCom= 1.00D+00 WtEn= 0.00D+00
 Coeff-Com: -0.513D-03 0.728D-03 0.331D-03 0.255D-03-0.448D-02-0.107D-01
 Coeff-Com: -0.249D-01-0.139D-01 0.288D+00 0.765D+00
 Coeff:     -0.513D-03 0.728D-03 0.331D-03 0.255D-03-0.448D-02-0.107D-01
 Coeff:     -0.249D-01-0.139D-01 0.288D+00 0.765D+00
 Gap=     0.239 Goal=   None    Shift=    0.000
 RMSDP=5.17D-05 MaxDP=4.24D-03 DE=-6.48D-06 OVMax= 6.25D-04

 Cycle  11  Pass 1  IDiag  1:
 RMSU=  1.92D-05    CP:  1.40D-02  1.94D+00  8.16D-01  5.76D-01  9.46D-01
                    CP:  8.90D-01  1.02D+00  1.03D+00  8.76D-01  1.35D+00
 E= -3010.55169624500     Delta-E=       -0.000001862790 Rises=F Damp=F
 DIIS: error= 2.31D-05 at cycle  11 NSaved=  11.
 NSaved=11 IEnMin=11 EnMin= -3010.55169624500     IErMin=11 ErrMin= 2.31D-05
 ErrMax= 2.31D-05  0.00D+00 EMaxC= 1.00D-01 BMatC= 1.76D-07 BMatP= 1.08D-06
 IDIUse=1 WtCom= 1.00D+00 WtEn= 0.00D+00
 Coeff-Com: -0.313D-03 0.436D-03 0.187D-03 0.369D-03-0.380D-03-0.198D-02
 Coeff-Com: -0.163D-01-0.406D-01-0.176D-01 0.221D+00 0.855D+00
 Coeff:     -0.313D-03 0.436D-03 0.187D-03 0.369D-03-0.380D-03-0.198D-02
 Coeff:     -0.163D-01-0.406D-01-0.176D-01 0.221D+00 0.855D+00
 Gap=     0.239 Goal=   None    Shift=    0.000
 RMSDP=3.19D-05 MaxDP=3.02D-03 DE=-1.86D-06 OVMax= 4.37D-04

 Cycle  12  Pass 1  IDiag  1:
 RMSU=  8.80D-06    CP:  1.40D-02  1.94D+00  8.16D-01  5.76D-01  9.45D-01
                    CP:  8.89D-01  1.01D+00  1.02D+00  9.00D-01  1.53D+00
                    CP:  1.30D+00
 E= -3010.55169668002     Delta-E=       -0.000000435016 Rises=F Damp=F
 DIIS: error= 9.98D-06 at cycle  12 NSaved=  12.
 NSaved=12 IEnMin=12 EnMin= -3010.55169668002     IErMin=12 ErrMin= 9.98D-06
 ErrMax= 9.98D-06  0.00D+00 EMaxC= 1.00D-01 BMatC= 4.64D-08 BMatP= 1.76D-07
 IDIUse=1 WtCom= 1.00D+00 WtEn= 0.00D+00
 Coeff-Com: -0.135D-03 0.176D-03-0.623D-04 0.126D-03 0.754D-03 0.131D-02
 Coeff-Com: -0.948D-03-0.900D-02-0.660D-01-0.910D-01 0.292D+00 0.873D+00
 Coeff:     -0.135D-03 0.176D-03-0.623D-04 0.126D-03 0.754D-03 0.131D-02
 Coeff:     -0.948D-03-0.900D-02-0.660D-01-0.910D-01 0.292D+00 0.873D+00
 Gap=     0.239 Goal=   None    Shift=    0.000
 RMSDP=2.14D-05 MaxDP=2.36D-03 DE=-4.35D-07 OVMax= 3.08D-04

 Cycle  13  Pass 1  IDiag  1:
 RMSU=  3.17D-06    CP:  1.40D-02  1.94D+00  8.16D-01  5.76D-01  9.44D-01
                    CP:  8.89D-01  1.01D+00  1.01D+00  8.79D-01  1.65D+00
                    CP:  1.60D+00  1.39D+00
 E= -3010.55169682187     Delta-E=       -0.000000141853 Rises=F Damp=F
 DIIS: error= 7.84D-06 at cycle  13 NSaved=  13.
 NSaved=13 IEnMin=13 EnMin= -3010.55169682187     IErMin=13 ErrMin= 7.84D-06
 ErrMax= 7.84D-06  0.00D+00 EMaxC= 1.00D-01 BMatC= 7.76D-09 BMatP= 4.64D-08
 IDIUse=1 WtCom= 1.00D+00 WtEn= 0.00D+00
 Coeff-Com: -0.171D-04 0.211D-04-0.364D-04-0.241D-04 0.188D-03 0.491D-03
 Coeff-Com:  0.365D-02 0.875D-02-0.326D-03-0.492D-01-0.162D+00 0.115D+00
 Coeff-Com:  0.108D+01
 Coeff:     -0.171D-04 0.211D-04-0.364D-04-0.241D-04 0.188D-03 0.491D-03
 Coeff:      0.365D-02 0.875D-02-0.326D-03-0.492D-01-0.162D+00 0.115D+00
 Coeff:      0.108D+01
 Gap=     0.239 Goal=   None    Shift=    0.000
 RMSDP=1.06D-05 MaxDP=1.06D-03 DE=-1.42D-07 OVMax= 1.99D-04

 Cycle  14  Pass 1  IDiag  1:
 RMSU=  1.75D-06    CP:  1.40D-02  1.94D+00  8.16D-01  5.76D-01  9.44D-01
                    CP:  8.88D-01  1.01D+00  1.00D+00  8.74D-01  1.68D+00
                    CP:  1.73D+00  1.81D+00  1.65D+00
 E= -3010.55169686074     Delta-E=       -0.000000038868 Rises=F Damp=F
 DIIS: error= 2.66D-06 at cycle  14 NSaved=  14.
 NSaved=14 IEnMin=14 EnMin= -3010.55169686074     IErMin=14 ErrMin= 2.66D-06
 ErrMax= 2.66D-06  0.00D+00 EMaxC= 1.00D-01 BMatC= 1.26D-09 BMatP= 7.76D-09
 IDIUse=1 WtCom= 1.00D+00 WtEn= 0.00D+00
 Coeff-Com:  0.162D-04-0.208D-04 0.302D-05-0.328D-04-0.101D-03-0.127D-03
 Coeff-Com:  0.145D-02 0.471D-02 0.135D-01 0.335D-02-0.117D+00-0.138D+00
 Coeff-Com:  0.368D+00 0.865D+00
 Coeff:      0.162D-04-0.208D-04 0.302D-05-0.328D-04-0.101D-03-0.127D-03
 Coeff:      0.145D-02 0.471D-02 0.135D-01 0.335D-02-0.117D+00-0.138D+00
 Coeff:      0.368D+00 0.865D+00
 Gap=     0.239 Goal=   None    Shift=    0.000
 RMSDP=3.06D-06 MaxDP=2.73D-04 DE=-3.89D-08 OVMax= 9.42D-05

 Cycle  15  Pass 1  IDiag  1:
 RMSU=  8.30D-07    CP:  1.40D-02  1.94D+00  8.16D-01  5.76D-01  9.44D-01
                    CP:  8.88D-01  1.01D+00  1.00D+00  8.72D-01  1.69D+00
                    CP:  1.80D+00  1.96D+00  1.98D+00  1.50D+00
 E= -3010.55169686832     Delta-E=       -0.000000007578 Rises=F Damp=F
 DIIS: error= 1.81D-06 at cycle  15 NSaved=  15.
 NSaved=15 IEnMin=15 EnMin= -3010.55169686832     IErMin=15 ErrMin= 1.81D-06
 ErrMax= 1.81D-06  0.00D+00 EMaxC= 1.00D-01 BMatC= 2.49D-10 BMatP= 1.26D-09
 IDIUse=1 WtCom= 1.00D+00 WtEn= 0.00D+00
 Coeff-Com:  0.142D-04-0.192D-04 0.571D-05-0.170D-05-0.449D-04-0.709D-04
 Coeff-Com: -0.538D-03-0.142D-02 0.112D-03 0.843D-02 0.234D-01-0.297D-01
 Coeff-Com: -0.161D+00 0.596D-01 0.110D+01
 Coeff:      0.142D-04-0.192D-04 0.571D-05-0.170D-05-0.449D-04-0.709D-04
 Coeff:     -0.538D-03-0.142D-02 0.112D-03 0.843D-02 0.234D-01-0.297D-01
 Coeff:     -0.161D+00 0.596D-01 0.110D+01
 Gap=     0.239 Goal=   None    Shift=    0.000
 RMSDP=2.52D-06 MaxDP=2.11D-04 DE=-7.58D-09 OVMax= 4.75D-05

 Cycle  16  Pass 1  IDiag  1:
 RMSU=  3.35D-07    CP:  1.40D-02  1.94D+00  8.16D-01  5.76D-01  9.44D-01
                    CP:  8.88D-01  1.01D+00  1.00D+00  8.73D-01  1.70D+00
                    CP:  1.81D+00  2.02D+00  2.13D+00  1.95D+00  1.43D+00
 E= -3010.55169686992     Delta-E=       -0.000000001606 Rises=F Damp=F
 DIIS: error= 7.30D-07 at cycle  16 NSaved=  16.
 NSaved=16 IEnMin=16 EnMin= -3010.55169686992     IErMin=16 ErrMin= 7.30D-07
 ErrMax= 7.30D-07  0.00D+00 EMaxC= 1.00D-01 BMatC= 7.24D-11 BMatP= 2.49D-10
 IDIUse=1 WtCom= 1.00D+00 WtEn= 0.00D+00
 Coeff-Com:  0.635D-05-0.885D-05-0.102D-06 0.224D-05 0.164D-04 0.362D-04
 Coeff-Com: -0.299D-03-0.109D-02-0.305D-02-0.924D-03 0.262D-01 0.253D-01
 Coeff-Com: -0.805D-01-0.180D+00 0.787D-01 0.114D+01
 Coeff:      0.635D-05-0.885D-05-0.102D-06 0.224D-05 0.164D-04 0.362D-04
 Coeff:     -0.299D-03-0.109D-02-0.305D-02-0.924D-03 0.262D-01 0.253D-01
 Coeff:     -0.805D-01-0.180D+00 0.787D-01 0.114D+01
 Gap=     0.239 Goal=   None    Shift=    0.000
 RMSDP=1.30D-06 MaxDP=9.63D-05 DE=-1.61D-09 OVMax= 2.39D-05

 Cycle  17  Pass 1  IDiag  1:
 RMSU=  1.58D-07    CP:  1.40D-02  1.94D+00  8.16D-01  5.76D-01  9.44D-01
                    CP:  8.88D-01  1.01D+00  1.00D+00  8.74D-01  1.70D+00
                    CP:  1.82D+00  2.03D+00  2.21D+00  2.15D+00  1.78D+00
                    CP:  1.40D+00
 E= -3010.55169687024     Delta-E=       -0.000000000317 Rises=F Damp=F
 DIIS: error= 1.66D-07 at cycle  17 NSaved=  17.
 NSaved=17 IEnMin=17 EnMin= -3010.55169687024     IErMin=17 ErrMin= 1.66D-07
 ErrMax= 1.66D-07  0.00D+00 EMaxC= 1.00D-01 BMatC= 1.43D-11 BMatP= 7.24D-11
 IDIUse=1 WtCom= 1.00D+00 WtEn= 0.00D+00
 Coeff-Com:  0.185D-05-0.259D-05-0.824D-06-0.701D-07 0.160D-04 0.298D-04
 Coeff-Com:  0.183D-04-0.839D-04-0.108D-02-0.230D-02 0.423D-02 0.146D-01
 Coeff-Com:  0.789D-02-0.714D-01-0.179D+00 0.373D+00 0.854D+00
 Coeff:      0.185D-05-0.259D-05-0.824D-06-0.701D-07 0.160D-04 0.298D-04
 Coeff:      0.183D-04-0.839D-04-0.108D-02-0.230D-02 0.423D-02 0.146D-01
 Coeff:      0.789D-02-0.714D-01-0.179D+00 0.373D+00 0.854D+00
 Gap=     0.239 Goal=   None    Shift=    0.000
 RMSDP=2.72D-07 MaxDP=2.59D-05 DE=-3.17D-10 OVMax= 6.85D-06

 Cycle  18  Pass 1  IDiag  1:
 RMSU=  4.68D-08    CP:  1.40D-02  1.94D+00  8.16D-01  5.76D-01  9.44D-01
                    CP:  8.88D-01  1.01D+00  1.00D+00  8.74D-01  1.70D+00
                    CP:  1.82D+00  2.04D+00  2.22D+00  2.20D+00  1.89D+00
                    CP:  1.53D+00  1.32D+00
 E= -3010.55169687031     Delta-E=       -0.000000000063 Rises=F Damp=F
 DIIS: error= 7.06D-08 at cycle  18 NSaved=  18.
 NSaved=18 IEnMin=18 EnMin= -3010.55169687031     IErMin=18 ErrMin= 7.06D-08
 ErrMax= 7.06D-08  0.00D+00 EMaxC= 1.00D-01 BMatC= 1.60D-12 BMatP= 1.43D-11
 IDIUse=1 WtCom= 1.00D+00 WtEn= 0.00D+00
 Coeff-Com:  0.109D-06-0.127D-06 0.279D-06-0.251D-06 0.385D-05 0.443D-05
 Coeff-Com:  0.528D-04 0.141D-03 0.161D-03-0.559D-03-0.309D-02 0.514D-04
 Coeff-Com:  0.154D-01 0.113D-01-0.575D-01-0.918D-01 0.170D+00 0.956D+00
 Coeff:      0.109D-06-0.127D-06 0.279D-06-0.251D-06 0.385D-05 0.443D-05
 Coeff:      0.528D-04 0.141D-03 0.161D-03-0.559D-03-0.309D-02 0.514D-04
 Coeff:      0.154D-01 0.113D-01-0.575D-01-0.918D-01 0.170D+00 0.956D+00
 Gap=     0.239 Goal=   None    Shift=    0.000
 RMSDP=8.18D-08 MaxDP=6.39D-06 DE=-6.32D-11 OVMax= 2.43D-06

 Cycle  19  Pass 1  IDiag  1:
 RMSU=  2.22D-08    CP:  1.40D-02  1.94D+00  8.16D-01  5.76D-01  9.44D-01
                    CP:  8.88D-01  1.01D+00  1.00D+00  8.74D-01  1.69D+00
                    CP:  1.82D+00  2.04D+00  2.22D+00  2.21D+00  1.92D+00
                    CP:  1.57D+00  1.48D+00  1.35D+00
 E= -3010.55169687026     Delta-E=        0.000000000041 Rises=F Damp=F
 DIIS: error= 2.79D-08 at cycle  19 NSaved=  19.
 NSaved=19 IEnMin=18 EnMin= -3010.55169687031     IErMin=19 ErrMin= 2.79D-08
 ErrMax= 2.79D-08  0.00D+00 EMaxC= 1.00D-01 BMatC= 2.70D-13 BMatP= 1.60D-12
 IDIUse=1 WtCom= 1.00D+00 WtEn= 0.00D+00
 Coeff-Com: -0.791D-07 0.128D-06 0.211D-06-0.790D-07-0.509D-06-0.214D-05
 Coeff-Com:  0.119D-04 0.490D-04 0.180D-03 0.738D-04-0.148D-02-0.185D-02
 Coeff-Com:  0.212D-02 0.128D-01 0.138D-01-0.688D-01-0.884D-01 0.305D+00
 Coeff-Com:  0.827D+00
 Coeff:     -0.791D-07 0.128D-06 0.211D-06-0.790D-07-0.509D-06-0.214D-05
 Coeff:      0.119D-04 0.490D-04 0.180D-03 0.738D-04-0.148D-02-0.185D-02
 Coeff:      0.212D-02 0.128D-01 0.138D-01-0.688D-01-0.884D-01 0.305D+00
 Coeff:      0.827D+00
 Gap=     0.239 Goal=   None    Shift=    0.000
 RMSDP=5.63D-08 MaxDP=4.73D-06 DE= 4.14D-11 OVMax= 6.87D-07

 Cycle  20  Pass 1  IDiag  1:
 RMSU=  8.64D-09    CP:  1.40D-02  1.94D+00  8.16D-01  5.76D-01  9.44D-01
                    CP:  8.88D-01  1.01D+00  1.00D+00  8.74D-01  1.69D+00
                    CP:  1.82D+00  2.04D+00  2.22D+00  2.21D+00  1.92D+00
                    CP:  1.57D+00  1.51D+00  1.52D+00  1.29D+00
 E= -3010.55169687029     Delta-E=       -0.000000000022 Rises=F Damp=F
 DIIS: error= 1.37D-08 at cycle  20 NSaved=  20.
 NSaved=20 IEnMin=18 EnMin= -3010.55169687031     IErMin=20 ErrMin= 1.37D-08
 ErrMax= 1.37D-08  0.00D+00 EMaxC= 1.00D-01 BMatC= 4.37D-14 BMatP= 2.70D-13
 IDIUse=1 WtCom= 1.00D+00 WtEn= 0.00D+00
 Coeff-Com: -0.113D-06 0.151D-06-0.215D-07 0.807D-07-0.623D-06-0.124D-05
 Coeff-Com: -0.925D-05-0.209D-04 0.427D-05 0.126D-03 0.407D-03-0.180D-03
 Coeff-Com: -0.329D-02-0.227D-03 0.140D-01 0.803D-02-0.573D-01-0.103D+00
 Coeff-Com:  0.112D+00 0.103D+01
 Coeff:     -0.113D-06 0.151D-06-0.215D-07 0.807D-07-0.623D-06-0.124D-05
 Coeff:     -0.925D-05-0.209D-04 0.427D-05 0.126D-03 0.407D-03-0.180D-03
 Coeff:     -0.329D-02-0.227D-03 0.140D-01 0.803D-02-0.573D-01-0.103D+00
 Coeff:      0.112D+00 0.103D+01
 Gap=     0.239 Goal=   None    Shift=    0.000
 RMSDP=2.59D-08 MaxDP=2.52D-06 DE=-2.18D-11 OVMax= 3.87D-07

 Cycle  21  Pass 1  IDiag  1:
 Restarting incremental Fock formation.
 E= -3010.55169687029     Delta-E=       -0.000000000002 Rises=F Damp=F
 DIIS: error= 7.83D-09 at cycle  21 NSaved=  20.
 NSaved=20 IEnMin=17 EnMin= -3010.55169687031     IErMin=20 ErrMin= 7.83D-09
 ErrMax= 7.83D-09  0.00D+00 EMaxC= 1.00D-01 BMatC= 1.52D-14 BMatP= 4.37D-14
 IDIUse=1 WtCom= 1.00D+00 WtEn= 0.00D+00
 Coeff-Com: -0.373D-08-0.284D-07 0.415D-07-0.101D-07 0.721D-07-0.347D-05
 Coeff-Com: -0.142D-04-0.340D-04 0.206D-05 0.329D-03 0.308D-03-0.119D-02
 Coeff-Com: -0.247D-02 0.103D-03 0.173D-01 0.779D-02-0.625D-01-0.176D+00
 Coeff-Com:  0.182D+00 0.103D+01
 Coeff:     -0.373D-08-0.284D-07 0.415D-07-0.101D-07 0.721D-07-0.347D-05
 Coeff:     -0.142D-04-0.340D-04 0.206D-05 0.329D-03 0.308D-03-0.119D-02
 Coeff:     -0.247D-02 0.103D-03 0.173D-01 0.779D-02-0.625D-01-0.176D+00
 Coeff:      0.182D+00 0.103D+01
 Gap=     0.239 Goal=   None    Shift=    0.000
 RMSDP=1.35D-08 MaxDP=1.25D-06 DE=-1.82D-12 OVMax= 1.89D-07

 Cycle  22  Pass 1  IDiag  1:
 RMSU=  1.12D-08    CP:  1.00D+00
 E= -3010.55169687031     Delta-E=       -0.000000000024 Rises=F Damp=F
 DIIS: error= 4.49D-09 at cycle  22 NSaved=  20.
 NSaved=20 IEnMin=20 EnMin= -3010.55169687031     IErMin=20 ErrMin= 4.49D-09
 ErrMax= 4.49D-09  0.00D+00 EMaxC= 1.00D-01 BMatC= 2.08D-15 BMatP= 1.52D-14
 IDIUse=1 WtCom= 1.00D+00 WtEn= 0.00D+00
 Large coefficients: NSaved= 20 BigCof=    0.00 CofMax=   10.00 Det=-5.03D-15
 Inversion failed.  Reducing to 19 matrices.
 Large coefficients: NSaved= 19 BigCof=    0.00 CofMax=   10.00 Det=-5.27D-15
 Inversion failed.  Reducing to 18 matrices.
 Large coefficients: NSaved= 18 BigCof=    0.00 CofMax=   10.00 Det=-5.70D-15
 Inversion failed.  Reducing to 17 matrices.
 Large coefficients: NSaved= 17 BigCof=    0.00 CofMax=   10.00 Det=-5.86D-15
 Inversion failed.  Reducing to 16 matrices.
 Large coefficients: NSaved= 16 BigCof=    0.00 CofMax=   10.00 Det=-5.86D-15
 Inversion failed.  Reducing to 15 matrices.
 Coeff-Com: -0.226D-05-0.889D-05-0.372D-05 0.496D-04 0.128D-03 0.150D-03
 Coeff-Com: -0.544D-03-0.228D-02 0.220D-02 0.902D-02 0.363D-03-0.605D-01
 Coeff-Com: -0.138D+00 0.270D+00 0.920D+00
 Coeff:     -0.226D-05-0.889D-05-0.372D-05 0.496D-04 0.128D-03 0.150D-03
 Coeff:     -0.544D-03-0.228D-02 0.220D-02 0.902D-02 0.363D-03-0.605D-01
 Coeff:     -0.138D+00 0.270D+00 0.920D+00
 Gap=     0.239 Goal=   None    Shift=    0.000
 RMSDP=3.91D-09 MaxDP=2.74D-07 DE=-2.36D-11 OVMax= 1.10D-07

 SCF Done:  E(RwB97XD) =  -3010.55169687     A.U. after   22 cycles
            NFock= 22  Conv=0.39D-08     -V/T= 2.0016
 KE= 3.005854571744D+03 PE=-8.703635727230D+03 EE= 1.910855324796D+03
 Leave Link  502 at Thu May  2 14:21:46 2024, MaxMem=   134217728 cpu:            1345.4 elap:            1345.8
 (Enter /software/gaussian/g16-c01/sse4/g16/l601.exe)
 Copying SCF densities to generalized density rwf, IOpCl= 0 IROHF=0.

 **********************************************************************

            Population analysis using the SCF Density.

 **********************************************************************

 Alpha  occ. eigenvalues -- -483.36305 -62.91381 -56.70993 -56.70537 -56.70533
 Alpha  occ. eigenvalues --  -19.47130 -19.47043 -14.86570 -10.60991 -10.60957
 Alpha  occ. eigenvalues --  -10.59133 -10.59070 -10.55131 -10.54407  -9.07224
 Alpha  occ. eigenvalues --   -6.89679  -6.88153  -6.88147  -2.99636  -2.99224
 Alpha  occ. eigenvalues --   -2.99219  -2.97996  -2.97995  -1.50764  -1.33704
 Alpha  occ. eigenvalues --   -1.24572  -1.15806  -1.14190  -1.08346  -1.02212
 Alpha  occ. eigenvalues --   -0.97282  -0.92295  -0.86212  -0.82344  -0.81656
 Alpha  occ. eigenvalues --   -0.81223  -0.79516  -0.77502  -0.77073  -0.74805
 Alpha  occ. eigenvalues --   -0.70383  -0.69369  -0.66110  -0.63810  -0.62081
 Alpha  occ. eigenvalues --   -0.58770  -0.58140  -0.56868  -0.56598
 Alpha virt. eigenvalues --   -0.32701  -0.24106  -0.21669  -0.19304  -0.17096
 Alpha virt. eigenvalues --   -0.15654  -0.14354  -0.11759  -0.10151  -0.09543
 Alpha virt. eigenvalues --   -0.06672  -0.06310  -0.04319  -0.03644  -0.02840
 Alpha virt. eigenvalues --   -0.02285  -0.00649   0.00604   0.01407   0.01797
 Alpha virt. eigenvalues --    0.03396   0.04118   0.04360   0.05108   0.06343
 Alpha virt. eigenvalues --    0.07218   0.07616   0.08074   0.08500   0.09143
 Alpha virt. eigenvalues --    0.09803   0.10782   0.11104   0.11722   0.12692
 Alpha virt. eigenvalues --    0.13227   0.13473   0.14484   0.15305   0.15761
 Alpha virt. eigenvalues --    0.16453   0.17776   0.18117   0.18380   0.18873
 Alpha virt. eigenvalues --    0.19931   0.20811   0.21806   0.22508   0.22918
 Alpha virt. eigenvalues --    0.23871   0.24705   0.26477   0.28149   0.28547
 Alpha virt. eigenvalues --    0.30145   0.32705   0.33003   0.33828   0.34819
 Alpha virt. eigenvalues --    0.36182   0.37570   0.37800   0.38727   0.40173
 Alpha virt. eigenvalues --    0.42923   0.43614   0.44467   0.45767   0.46882
 Alpha virt. eigenvalues --    0.47278   0.48193   0.48955   0.49967   0.52435
 Alpha virt. eigenvalues --    0.53221   0.54862   0.56652   0.57199   0.58676
 Alpha virt. eigenvalues --    0.59630   0.60898   0.62176   0.64246   0.66732
 Alpha virt. eigenvalues --    0.70010   0.70301   0.71991   0.72454   0.73174
 Alpha virt. eigenvalues --    0.73661   0.76509   0.78822   0.79500   0.83637
 Alpha virt. eigenvalues --    0.84938   0.86674   0.90337   0.92323   0.97690
 Alpha virt. eigenvalues --    0.99198   1.00914   1.02472   1.04096   1.05765
 Alpha virt. eigenvalues --    1.07485   1.11857   1.12572   1.13162   1.16843
 Alpha virt. eigenvalues --    1.20280   1.21991   1.26769   1.31856   1.34869
 Alpha virt. eigenvalues --    1.35417   1.37502   1.40989   1.53144   1.55340
 Alpha virt. eigenvalues --    1.56107   1.58585   1.59825   1.62605   1.63917
 Alpha virt. eigenvalues --    1.66950   1.69737   1.72916   1.73896   1.77835
 Alpha virt. eigenvalues --    1.82517   1.83813   1.85724   1.89378   1.91719
 Alpha virt. eigenvalues --    1.96416   2.00031   2.01450   2.05210   2.06426
 Alpha virt. eigenvalues --    2.10658   2.12832   2.20960   2.22588   2.26115
 Alpha virt. eigenvalues --    2.32144   2.38756   2.40455   2.43174   2.51747
 Alpha virt. eigenvalues --    2.56754   2.61764   2.64436   2.67281   2.70903
 Alpha virt. eigenvalues --    2.72611   2.75454   2.76224   2.79353   2.80521
 Alpha virt. eigenvalues --    2.91347   2.96719   3.00150   3.04096   3.07360
 Alpha virt. eigenvalues --    3.13361   3.14942   3.16203   3.21546   3.25637
 Alpha virt. eigenvalues --    3.26581   3.36793   3.45081   3.48862   3.53709
 Alpha virt. eigenvalues --    3.56264   3.68048   3.73389   3.82005   3.85642
 Alpha virt. eigenvalues --    4.04520   4.05315   4.14448   4.18400   4.38436
 Alpha virt. eigenvalues --    4.44253   4.52898   4.58759   4.92800   4.95695
 Alpha virt. eigenvalues --    5.04475   5.09006   5.61170   6.14399   6.62691
 Alpha virt. eigenvalues --    7.43251   7.45662   7.56017  23.20351  23.59637
 Alpha virt. eigenvalues --   23.69266  23.76143  23.94058  24.00479  35.30595
 Alpha virt. eigenvalues --   47.88935  49.84383  49.93048 289.76618 289.78964
 Alpha virt. eigenvalues --  289.916441020.90192
          Condensed to atoms (all electrons):
               1          2          3          4          5          6
     1  C    8.725657  -3.333201   1.536837  -0.381801   0.313668   0.037159
     2  C   -3.333201  20.580798  -7.248929   0.965213  -0.045805   0.175182
     3  C    1.536837  -7.248929  22.438095  -2.012384   0.059348   0.136892
     4  C   -0.381801   0.965213  -2.012384   6.816803  -0.007378  -0.017915
     5  H    0.313668  -0.045805   0.059348  -0.007378   0.322011  -0.001397
     6  H    0.037159   0.175182   0.136892  -0.017915  -0.001397   0.303832
     7  H    0.008724  -0.016572   0.025840   0.330617  -0.002510  -0.000006
     8  N   -0.177469   0.822255  -2.051212   0.039360  -0.000940  -0.032790
     9  O   -0.052359   0.136270  -0.489532  -0.000552  -0.000048  -0.002198
    10  O    0.270355  -0.684514   0.190371  -0.043016   0.000130   0.022239
    11  C    1.257684  -2.116077   2.368329  -0.565955  -0.022889   0.010958
    12  H   -0.012627   0.008783   0.014406  -0.003221   0.000022  -0.000020
    13  C   -2.036561  -3.297732  -8.546657   1.101436   0.029507   0.007010
    14  H   -0.001673   0.020401   0.054757   0.004701  -0.000024   0.000014
    15  Br  -0.115480  -0.024743  -0.371854   0.152561   0.000131  -0.000619
               7          8          9         10         11         12
     1  C    0.008724  -0.177469  -0.052359   0.270355   1.257684  -0.012627
     2  C   -0.016572   0.822255   0.136270  -0.684514  -2.116077   0.008783
     3  C    0.025840  -2.051212  -0.489532   0.190371   2.368329   0.014406
     4  C    0.330617   0.039360  -0.000552  -0.043016  -0.565955  -0.003221
     5  H   -0.002510  -0.000940  -0.000048   0.000130  -0.022889   0.000022
     6  H   -0.000006  -0.032790  -0.002198   0.022239   0.010958  -0.000020
     7  H    0.325646   0.000037   0.000018  -0.000024   0.021049  -0.001835
     8  N    0.000037   7.818086   0.151116  -0.006659  -0.261169   0.000106
     9  O    0.000018   0.151116   7.802468   0.004738   0.187929   0.000071
    10  O   -0.000024  -0.006659   0.004738   7.935341   0.056405   0.000009
    11  C    0.021049  -0.261169   0.187929   0.056405   9.301178   0.323014
    12  H   -0.001835   0.000106   0.000071   0.000009   0.323014   0.304281
    13  C   -0.036315   0.809124   0.192637   0.183113  -4.248107   0.002331
    14  H    0.000027  -0.014011  -0.001672  -0.001896  -0.025057  -0.002397
    15  Br  -0.000167   0.094210  -0.023616  -0.006089  -0.171088  -0.003381
              13         14         15
     1  C   -2.036561  -0.001673  -0.115480
     2  C   -3.297732   0.020401  -0.024743
     3  C   -8.546657   0.054757  -0.371854
     4  C    1.101436   0.004701   0.152561
     5  H    0.029507  -0.000024   0.000131
     6  H    0.007010   0.000014  -0.000619
     7  H   -0.036315   0.000027  -0.000167
     8  N    0.809124  -0.014011   0.094210
     9  O    0.192637  -0.001672  -0.023616
    10  O    0.183113  -0.001896  -0.006089
    11  C   -4.248107  -0.025057  -0.171088
    12  H    0.002331  -0.002397  -0.003381
    13  C   21.396438   0.255240   0.427702
    14  H    0.255240   0.224241  -0.014317
    15  Br   0.427702  -0.014317  35.157971
 Mulliken charges:
               1
     1  C   -0.038914
     2  C    0.058671
     3  C   -0.104308
     4  C   -0.378469
     5  H    0.356175
     6  H    0.361661
     7  H    0.345472
     8  N   -0.190045
     9  O    0.094730
    10  O    0.079497
    11  C   -0.116206
    12  H    0.370456
    13  C   -0.239165
    14  H    0.501665
    15  Br  -0.101221
 Sum of Mulliken charges =   1.00000
 Mulliken charges with hydrogens summed into heavy atoms:
               1
     1  C    0.317261
     2  C    0.420333
     3  C   -0.104308
     4  C   -0.032997
     8  N   -0.190045
     9  O    0.094730
    10  O    0.079497
    11  C    0.254251
    13  C    0.262499
    15  Br  -0.101221
 Electronic spatial extent (au):  <R**2>=           3952.8685
 Charge=              1.0000 electrons
 Dipole moment (field-independent basis, Debye):
    X=              2.4221    Y=              0.1862    Z=              4.3445  Tot=              4.9775
 Quadrupole moment (field-independent basis, Debye-Ang):
   XX=            -67.7519   YY=            -52.9810   ZZ=            -69.4942
   XY=             -0.8189   XZ=              7.9210   YZ=             -2.5347
 Traceless Quadrupole moment (field-independent basis, Debye-Ang):
   XX=             -4.3429   YY=             10.4281   ZZ=             -6.0852
   XY=             -0.8189   XZ=              7.9210   YZ=             -2.5347
 Octapole moment (field-independent basis, Debye-Ang**2):
  XXX=           -509.1771  YYY=            100.9073  ZZZ=            111.7121  XYY=           -141.6150
  XXY=             29.1737  XXZ=             58.1874  XZZ=           -148.4764  YZZ=             31.6093
  YYZ=             42.5019  XYZ=             -3.0749
 Hexadecapole moment (field-independent basis, Debye-Ang**3):
 XXXX=          -3414.8686 YYYY=           -724.1100 ZZZZ=           -473.1739 XXXY=            189.2724
 XXXZ=            297.7154 YYYX=            204.2866 YYYZ=           -205.0243 ZZZX=            228.0979
 ZZZY=           -190.3596 XXYY=           -636.0530 XXZZ=           -566.8945 YYZZ=           -206.7296
 XXYZ=            -69.6206 YYXZ=             85.4493 ZZXY=             60.3295
 N-N= 7.763741338187D+02 E-N=-8.703635727538D+03  KE= 3.005854571744D+03
 No NMR shielding tensors so no spin-rotation constants.
 Leave Link  601 at Thu May  2 14:21:54 2024, MaxMem=   134217728 cpu:               7.3 elap:               7.3
 (Enter /software/gaussian/g16-c01/sse4/g16/l9999.exe)
 Unable to Open any file for archive entry.
 1\1\GINC-BHX0014\SP\RwB97XD\6-311+G(d)\C6H5Br1N1O2(1+)\BWEIGHT\02-May-
 2024\0\\#P wB97XD/6-311+G* NoSymm #P Field=Z-282\\TitleMe\\1,1\C,0,0.5
 193,1.233,-0.0319\C,0,1.9445,1.2692,-0.0367\C,0,2.6204,0.0928,-0.025\C
 ,0,-0.196,0.0301,0.001\H,0,-0.0207,2.1742,-0.0434\H,0,2.4828,2.2089,-0
 .0361\H,0,-1.2777,0.0399,0.0117\N,0,4.0921,0.0959,0.0366\O,0,4.6393,-1
 .0217,0.1446\O,0,4.6649,1.1984,-0.0233\C,0,0.4943,-1.1671,0.021\H,0,-0
 .0325,-2.1149,0.0545\C,0,1.9629,-1.2165,-0.0211\H,0,2.4436,-1.9631,0.6
 151\Br,0,2.173,-1.9491,-1.9062\\Version=ES64L-G16RevC.01\HF=-3010.5516
 969\RMSD=3.914e-09\Dipole=-3.3762754,1.3013758,2.958458\Quadrupole=-3.
 2288295,7.7530072,-4.5241777,-0.6088666,5.8890348,-1.8844569\PG=C01 [X
 (C6H5Br1N1O2)]\\@
 The archive entry for this job was punched.


 WE THE UNWILLING
 LED BY THE UNQUALIFIED
 HAVE BEEN DOING THE UNBELIEVABLE SO LONG WITH SO LITTLE
 THAT WE NOW ATTEMPT THE IMPOSSIBLE WITH NOTHING.

                                    -- ANONYMOUS
 Job cpu time:       0 days  0 hours 23 minutes 36.7 seconds.
 Elapsed time:       0 days  0 hours 23 minutes 37.1 seconds.
 File lengths (MBytes):  RWF=     40 Int=      0 D2E=      0 Chk=     32 Scr=      1
 Normal termination of Gaussian 16 at Thu May  2 14:21:54 2024.
