 Entering Gaussian System, Link 0=g16
 Initial command:
 /software/gaussian/g16-a03/l1.exe "/local_scratch/6484838/Gau-7504.inp" -scrdir="/local_scratch/6484838/"
 Entering Link 1 = /software/gaussian/g16-a03/l1.exe PID=      7512.
  
 Copyright (c) 1988,1990,1992,1993,1995,1998,2003,2009,2016,
            Gaussian, Inc.  All Rights Reserved.
  
 This is part of the Gaussian(R) 16 program.  It is based on
 the Gaussian(R) 09 system (copyright 2009, Gaussian, Inc.),
 the Gaussian(R) 03 system (copyright 2003, Gaussian, Inc.),
 the Gaussian(R) 98 system (copyright 1998, Gaussian, Inc.),
 the Gaussian(R) 94 system (copyright 1995, Gaussian, Inc.),
 the Gaussian 92(TM) system (copyright 1992, Gaussian, Inc.),
 the Gaussian 90(TM) system (copyright 1990, Gaussian, Inc.),
 the Gaussian 88(TM) system (copyright 1988, Gaussian, Inc.),
 the Gaussian 86(TM) system (copyright 1986, Carnegie Mellon
 University), and the Gaussian 82(TM) system (copyright 1983,
 Carnegie Mellon University). Gaussian is a federally registered
 trademark of Gaussian, Inc.
  
 This software contains proprietary and confidential information,
 including trade secrets, belonging to Gaussian, Inc.
  
 This software is provided under written license and may be
 used, copied, transmitted, or stored only in accord with that
 written license.
  
 The following legend is applicable only to US Government
 contracts under FAR:
  
                    RESTRICTED RIGHTS LEGEND
  
 Use, reproduction and disclosure by the US Government is
 subject to restrictions as set forth in subparagraphs (a)
 and (c) of the Commercial Computer Software - Restricted
 Rights clause in FAR 52.227-19.
  
 Gaussian, Inc.
 340 Quinnipiac St., Bldg. 40, Wallingford CT 06492
  
  
 ---------------------------------------------------------------
 Warning -- This program may not be used in any manner that
 competes with the business of Gaussian, Inc. or will provide
 assistance to any competitor of Gaussian, Inc.  The licensee
 of this program is prohibited from giving any competitor of
 Gaussian, Inc. access to this program.  By using this program,
 the user acknowledges that Gaussian, Inc. is engaged in the
 business of creating and licensing software in the field of
 computational chemistry and represents and warrants to the
 licensee that it is not a competitor of Gaussian, Inc. and that
 it will not use this program in any manner prohibited above.
 ---------------------------------------------------------------
  

 Cite this work as:
 Gaussian 16, Revision A.03,
 M. J. Frisch, G. W. Trucks, H. B. Schlegel, G. E. Scuseria, 
 M. A. Robb, J. R. Cheeseman, G. Scalmani, V. Barone, 
 G. A. Petersson, H. Nakatsuji, X. Li, M. Caricato, A. V. Marenich, 
 J. Bloino, B. G. Janesko, R. Gomperts, B. Mennucci, H. P. Hratchian, 
 J. V. Ortiz, A. F. Izmaylov, J. L. Sonnenberg, D. Williams-Young, 
 F. Ding, F. Lipparini, F. Egidi, J. Goings, B. Peng, A. Petrone, 
 T. Henderson, D. Ranasinghe, V. G. Zakrzewski, J. Gao, N. Rega, 
 G. Zheng, W. Liang, M. Hada, M. Ehara, K. Toyota, R. Fukuda, 
 J. Hasegawa, M. Ishida, T. Nakajima, Y. Honda, O. Kitao, H. Nakai, 
 T. Vreven, K. Throssell, J. A. Montgomery, Jr., J. E. Peralta, 
 F. Ogliaro, M. J. Bearpark, J. J. Heyd, E. N. Brothers, K. N. Kudin, 
 V. N. Staroverov, T. A. Keith, R. Kobayashi, J. Normand, 
 K. Raghavachari, A. P. Rendell, J. C. Burant, S. S. Iyengar, 
 J. Tomasi, M. Cossi, J. M. Millam, M. Klene, C. Adamo, R. Cammi, 
 J. W. Ochterski, R. L. Martin, K. Morokuma, O. Farkas, 
 J. B. Foresman, and D. J. Fox, Gaussian, Inc., Wallingford CT, 2016.
 
 ******************************************
 Gaussian 16:  ES64L-G16RevA.03 25-Dec-2016
                17-Sep-2021 
 ******************************************
 %chk=geometry.chk
 %mem=2GB
 %nprocshared=1
 Will use up to    1 processors via shared memory.
 --------------------------------------------------------------------
 #p B3LYP/6-311+G** #p TD=(singlets,nstates=30)IOp(6/8=3) IOp(9/40=4)
 --------------------------------------------------------------------
 1/38=1,172=1/1;
 2/12=2,17=6,18=5,40=1/2;
 3/5=4,6=6,7=111,11=9,25=1,30=1,74=-5/1,2,3,8;
 4//1;
 5/5=2,38=5/2;
 8/6=1,10=2,108=30/1;
 9/40=4,41=30,42=1,48=1,70=2/14;
 6/7=2,8=3,9=2,10=2/1;
 99/5=1,9=1/99;
 Leave Link    1 at Fri Sep 17 10:52:08 2021, MaxMem=   268435456 cpu:               0.0 elap:               0.1
 (Enter /software/gaussian/g16-a03/l101.exe)
 ---------------------------------------------
 Scan Step 107, Bond Length 1.0350000000000001
 ---------------------------------------------
 Symbolic Z-matrix:
 Charge =  0 Multiplicity = 1
 C                     0.        0.       -0.52736 
 H                     0.        0.93726  -1.11871 
 H                     0.       -0.93726  -1.11871 
 O                     0.        0.        0.50764 
 
 ITRead=  0  0  0  0
 MicOpt= -1 -1 -1 -1
 NAtoms=      4 NQM=        4 NQMF=       0 NMMI=      0 NMMIF=      0
                NMic=       0 NMicF=      0.
                    Isotopes and Nuclear Properties:
 (Nuclear quadrupole moments (NQMom) in fm**2, nuclear magnetic moments (NMagM)
  in nuclear magnetons)

  Atom         1           2           3           4
 IAtWgt=          12           1           1          16
 AtmWgt=  12.0000000   1.0078250   1.0078250  15.9949146
 NucSpn=           0           1           1           0
 AtZEff=  -0.0000000  -0.0000000  -0.0000000  -0.0000000
 NQMom=    0.0000000   0.0000000   0.0000000   0.0000000
 NMagM=    0.0000000   2.7928460   2.7928460   0.0000000
 AtZNuc=   6.0000000   1.0000000   1.0000000   8.0000000
 Leave Link  101 at Fri Sep 17 10:52:09 2021, MaxMem=   268435456 cpu:               0.1 elap:               0.1
 (Enter /software/gaussian/g16-a03/l202.exe)
                          Input orientation:                          
 ---------------------------------------------------------------------
 Center     Atomic      Atomic             Coordinates (Angstroms)
 Number     Number       Type             X           Y           Z
 ---------------------------------------------------------------------
      1          6           0        0.000000    0.000000   -0.527360
      2          1           0        0.000000    0.937260   -1.118710
      3          1           0        0.000000   -0.937260   -1.118710
      4          8           0        0.000000    0.000000    0.507640
 ---------------------------------------------------------------------
                    Distance matrix (angstroms):
                    1          2          3          4
     1  C    0.000000
     2  H    1.108220   0.000000
     3  H    1.108220   1.874520   0.000000
     4  O    1.035000   1.877091   1.877091   0.000000
 Stoichiometry    CH2O
 Framework group  C2V[C2(CO),SGV(H2)]
 Deg. of freedom     3
 Full point group                 C2V     NOp   4
 Largest Abelian subgroup         C2V     NOp   4
 Largest concise Abelian subgroup C2      NOp   2
                         Standard orientation:                         
 ---------------------------------------------------------------------
 Center     Atomic      Atomic             Coordinates (Angstroms)
 Number     Number       Type             X           Y           Z
 ---------------------------------------------------------------------
      1          6           0        0.000000    0.000000   -0.443581
      2          1           0        0.000000    0.937260   -1.034931
      3          1           0       -0.000000   -0.937260   -1.034931
      4          8           0        0.000000   -0.000000    0.591419
 ---------------------------------------------------------------------
 Rotational constants (GHZ):         285.4183527          50.6665162          43.0282793
 Leave Link  202 at Fri Sep 17 10:52:09 2021, MaxMem=   268435456 cpu:               0.0 elap:               0.0
 (Enter /software/gaussian/g16-a03/l301.exe)
 Standard basis: 6-311+G(d,p) (5D, 7F)
 Ernie: Thresh=  0.10000D-02 Tol=  0.10000D-05 Strict=F.
 There are    29 symmetry adapted cartesian basis functions of A1  symmetry.
 There are     3 symmetry adapted cartesian basis functions of A2  symmetry.
 There are    11 symmetry adapted cartesian basis functions of B1  symmetry.
 There are    15 symmetry adapted cartesian basis functions of B2  symmetry.
 There are    27 symmetry adapted basis functions of A1  symmetry.
 There are     3 symmetry adapted basis functions of A2  symmetry.
 There are    11 symmetry adapted basis functions of B1  symmetry.
 There are    15 symmetry adapted basis functions of B2  symmetry.
    56 basis functions,    88 primitive gaussians,    58 cartesian basis functions
     8 alpha electrons        8 beta electrons
       nuclear repulsion energy        35.0644916367 Hartrees.
 IExCor=  402 DFT=T Ex+Corr=B3LYP ExCW=0 ScaHFX=  0.200000
 ScaDFX=  0.800000  0.720000  1.000000  0.810000 ScalE2=  1.000000  1.000000
 IRadAn=      5 IRanWt=     -1 IRanGd=            0 ICorTp=0 IEmpDi=  4
 NAtoms=    4 NActive=    4 NUniq=    3 SFac= 1.78D+00 NAtFMM=   60 NAOKFM=F Big=F
 Integral buffers will be    131072 words long.
 Regular integral format.
 Two-electron integral symmetry is turned on.
 Leave Link  301 at Fri Sep 17 10:52:09 2021, MaxMem=   268435456 cpu:               0.1 elap:               0.1
 (Enter /software/gaussian/g16-a03/l302.exe)
 NPDir=0 NMtPBC=     1 NCelOv=     1 NCel=       1 NClECP=     1 NCelD=      1
         NCelK=      1 NCelE2=     1 NClLst=     1 CellRange=     0.0.
 One-electron integrals computed using PRISM.
 One-electron integral symmetry used in STVInt
 NBasis=    56 RedAO= T EigKep=  2.27D-03  NBF=    27     3    11    15
 NBsUse=    56 1.00D-06 EigRej= -1.00D+00 NBFU=    27     3    11    15
 Precomputing XC quadrature grid using
 IXCGrd= 4 IRadAn=           5 IRanWt=          -1 IRanGd=           0 AccXCQ= 0.00D+00.
 Generated NRdTot=       0 NPtTot=           0 NUsed=           0 NTot=          32
 NSgBfM=    58    58    58    58    58 MxSgAt=     4 MxSgA2=     4.
 Leave Link  302 at Fri Sep 17 10:52:09 2021, MaxMem=   268435456 cpu:               0.1 elap:               0.1
 (Enter /software/gaussian/g16-a03/l303.exe)
 DipDrv:  MaxL=1.
 Leave Link  303 at Fri Sep 17 10:52:09 2021, MaxMem=   268435456 cpu:               0.0 elap:               0.0
 (Enter /software/gaussian/g16-a03/l308.exe)
 Leave Link  308 at Fri Sep 17 10:52:09 2021, MaxMem=   268435456 cpu:               0.0 elap:               0.0
 (Enter /software/gaussian/g16-a03/l401.exe)
 ExpMin= 4.38D-02 ExpMax= 8.59D+03 ExpMxC= 1.30D+03 IAcc=3 IRadAn=         5 AccDes= 0.00D+00
 Harris functional with IExCor=  402 and IRadAn=       5 diagonalized for initial guess.
 HarFok:  IExCor=  402 AccDes= 0.00D+00 IRadAn=         5 IDoV= 1 UseB2=F ITyADJ=14
 ICtDFT=  3500011 ScaDFX=  1.000000  1.000000  1.000000  1.000000
 FoFCou: FMM=F IPFlag=           0 FMFlag=      100000 FMFlg1=           0
         NFxFlg=           0 DoJE=T BraDBF=F KetDBF=T FulRan=T
         wScrn=  0.000000 ICntrl=       500 IOpCl=  0 I1Cent=   200000004 NGrid=           0
         NMat0=    1 NMatS0=      1 NMatT0=    0 NMatD0=    1 NMtDS0=    0 NMtDT0=    0
 Petite list used in FoFCou.
 Harris En= -114.510665222770    
 JPrj=0 DoOrth=F DoCkMO=F.
 Initial guess orbital symmetries:
       Occupied  (A1) (A1) (A1) (A1) (B2) (A1) (B1) (B2)
       Virtual   (B1) (A1) (A1) (B2) (B1) (A1) (A1) (B2) (B1) (B2)
                 (A1) (A1) (A1) (B2) (B1) (B2) (A1) (A1) (A2) (B1)
                 (B2) (A1) (B1) (A1) (A1) (B2) (B2) (B1) (A2) (A1)
                 (A1) (B2) (A1) (B2) (B1) (A1) (A2) (A1) (B1) (B2)
                 (A1) (A1) (B2) (B1) (B2) (A1) (A1) (A1)
 The electronic state of the initial guess is 1-A1.
 Leave Link  401 at Fri Sep 17 10:52:10 2021, MaxMem=   268435456 cpu:               0.3 elap:               0.3
 (Enter /software/gaussian/g16-a03/l502.exe)
 Keep R1 ints in memory in symmetry-blocked form, NReq=2159909.
 FoFCou: FMM=F IPFlag=           0 FMFlag=           0 FMFlg1=           0
         NFxFlg=           0 DoJE=F BraDBF=F KetDBF=F FulRan=T
         wScrn=  0.000000 ICntrl=       600 IOpCl=  0 I1Cent=           0 NGrid=           0
         NMat0=    1 NMatS0=   1596 NMatT0=    0 NMatD0=    1 NMtDS0=    0 NMtDT0=    0
 Petite list used in FoFCou.
 Closed shell SCF:
 Using DIIS extrapolation, IDIIS=  1040.
 NGot=   268435456 LenX=   268074384 LenY=   268070579
 Requested convergence on RMS density matrix=1.00D-08 within 128 cycles.
 Requested convergence on MAX density matrix=1.00D-06.
 Requested convergence on             energy=1.00D-06.
 No special actions if energy rises.

 Cycle   1  Pass 1  IDiag  1:
 E= -114.397115416728    
 DIIS: error= 5.17D-02 at cycle   1 NSaved=   1.
 NSaved= 1 IEnMin= 1 EnMin= -114.397115416728     IErMin= 1 ErrMin= 5.17D-02
 ErrMax= 5.17D-02  0.00D+00 EMaxC= 1.00D-01 BMatC= 1.22D-01 BMatP= 1.22D-01
 IDIUse=3 WtCom= 4.83D-01 WtEn= 5.17D-01
 Coeff-Com:  0.100D+01
 Coeff-En:   0.100D+01
 Coeff:      0.100D+01
 Gap=     0.178 Goal=   None    Shift=    0.000
 GapD=    0.178 DampG=1.000 DampE=0.500 DampFc=0.5000 IDamp=-1.
 Damping current iteration by 5.00D-01
 RMSDP=1.07D-02 MaxDP=1.23D-01              OVMax= 2.23D-01

 Cycle   2  Pass 1  IDiag  1:
 E= -114.418065608479     Delta-E=       -0.020950191751 Rises=F Damp=T
 DIIS: error= 2.03D-02 at cycle   2 NSaved=   2.
 NSaved= 2 IEnMin= 2 EnMin= -114.418065608479     IErMin= 2 ErrMin= 2.03D-02
 ErrMax= 2.03D-02  0.00D+00 EMaxC= 1.00D-01 BMatC= 1.28D-02 BMatP= 1.22D-01
 IDIUse=3 WtCom= 7.97D-01 WtEn= 2.03D-01
 Coeff-Com:  0.191D+00 0.809D+00
 Coeff-En:   0.357D+00 0.643D+00
 Coeff:      0.224D+00 0.776D+00
 Gap=     0.272 Goal=   None    Shift=    0.000
 RMSDP=2.47D-03 MaxDP=2.75D-02 DE=-2.10D-02 OVMax= 1.59D-01

 Cycle   3  Pass 1  IDiag  1:
 E= -114.473765497103     Delta-E=       -0.055699888624 Rises=F Damp=F
 DIIS: error= 1.05D-02 at cycle   3 NSaved=   3.
 NSaved= 3 IEnMin= 3 EnMin= -114.473765497103     IErMin= 3 ErrMin= 1.05D-02
 ErrMax= 1.05D-02  0.00D+00 EMaxC= 1.00D-01 BMatC= 4.81D-03 BMatP= 1.28D-02
 IDIUse=3 WtCom= 8.95D-01 WtEn= 1.05D-01
 Coeff-Com:  0.367D-01 0.387D+00 0.576D+00
 Coeff-En:   0.000D+00 0.000D+00 0.100D+01
 Coeff:      0.328D-01 0.346D+00 0.621D+00
 Gap=     0.245 Goal=   None    Shift=    0.000
 RMSDP=9.20D-04 MaxDP=1.90D-02 DE=-5.57D-02 OVMax= 3.17D-02

 Cycle   4  Pass 1  IDiag  1:
 E= -114.477211079130     Delta-E=       -0.003445582027 Rises=F Damp=F
 DIIS: error= 3.87D-03 at cycle   4 NSaved=   4.
 NSaved= 4 IEnMin= 4 EnMin= -114.477211079130     IErMin= 4 ErrMin= 3.87D-03
 ErrMax= 3.87D-03  0.00D+00 EMaxC= 1.00D-01 BMatC= 4.61D-04 BMatP= 4.81D-03
 IDIUse=3 WtCom= 9.61D-01 WtEn= 3.87D-02
 Coeff-Com: -0.996D-02 0.455D-01 0.269D+00 0.695D+00
 Coeff-En:   0.000D+00 0.000D+00 0.269D-01 0.973D+00
 Coeff:     -0.957D-02 0.438D-01 0.260D+00 0.706D+00
 Gap=     0.247 Goal=   None    Shift=    0.000
 RMSDP=2.56D-04 MaxDP=5.84D-03 DE=-3.45D-03 OVMax= 5.76D-03

 Cycle   5  Pass 1  IDiag  1:
 E= -114.477595664946     Delta-E=       -0.000384585816 Rises=F Damp=F
 DIIS: error= 1.93D-04 at cycle   5 NSaved=   5.
 NSaved= 5 IEnMin= 5 EnMin= -114.477595664946     IErMin= 5 ErrMin= 1.93D-04
 ErrMax= 1.93D-04  0.00D+00 EMaxC= 1.00D-01 BMatC= 1.87D-06 BMatP= 4.61D-04
 IDIUse=3 WtCom= 9.98D-01 WtEn= 1.93D-03
 Coeff-Com: -0.257D-03-0.245D-02 0.286D-01 0.115D+00 0.859D+00
 Coeff-En:   0.000D+00 0.000D+00 0.000D+00 0.000D+00 0.100D+01
 Coeff:     -0.256D-03-0.245D-02 0.285D-01 0.114D+00 0.860D+00
 Gap=     0.247 Goal=   None    Shift=    0.000
 RMSDP=3.21D-05 MaxDP=3.03D-04 DE=-3.85D-04 OVMax= 5.99D-04

 Cycle   6  Pass 1  IDiag  1:
 E= -114.477597617963     Delta-E=       -0.000001953018 Rises=F Damp=F
 DIIS: error= 1.32D-05 at cycle   6 NSaved=   6.
 NSaved= 6 IEnMin= 6 EnMin= -114.477597617963     IErMin= 6 ErrMin= 1.32D-05
 ErrMax= 1.32D-05  0.00D+00 EMaxC= 1.00D-01 BMatC= 6.64D-09 BMatP= 1.87D-06
 IDIUse=1 WtCom= 1.00D+00 WtEn= 0.00D+00
 Coeff-Com:  0.218D-03-0.583D-03-0.191D-02-0.244D-02 0.140D-01 0.991D+00
 Coeff:      0.218D-03-0.583D-03-0.191D-02-0.244D-02 0.140D-01 0.991D+00
 Gap=     0.247 Goal=   None    Shift=    0.000
 RMSDP=1.78D-06 MaxDP=2.04D-05 DE=-1.95D-06 OVMax= 3.60D-05

 Cycle   7  Pass 1  IDiag  1:
 E= -114.477597625513     Delta-E=       -0.000000007550 Rises=F Damp=F
 DIIS: error= 2.00D-06 at cycle   7 NSaved=   7.
 NSaved= 7 IEnMin= 7 EnMin= -114.477597625513     IErMin= 7 ErrMin= 2.00D-06
 ErrMax= 2.00D-06  0.00D+00 EMaxC= 1.00D-01 BMatC= 1.24D-10 BMatP= 6.64D-09
 IDIUse=1 WtCom= 1.00D+00 WtEn= 0.00D+00
 Coeff-Com: -0.243D-05 0.703D-05-0.996D-04-0.854D-03-0.722D-02 0.304D-01
 Coeff-Com:  0.978D+00
 Coeff:     -0.243D-05 0.703D-05-0.996D-04-0.854D-03-0.722D-02 0.304D-01
 Coeff:      0.978D+00
 Gap=     0.247 Goal=   None    Shift=    0.000
 RMSDP=1.80D-07 MaxDP=2.34D-06 DE=-7.55D-09 OVMax= 3.58D-06

 Cycle   8  Pass 1  IDiag  1:
 E= -114.477597625631     Delta-E=       -0.000000000117 Rises=F Damp=F
 DIIS: error= 3.16D-07 at cycle   8 NSaved=   8.
 NSaved= 8 IEnMin= 8 EnMin= -114.477597625631     IErMin= 8 ErrMin= 3.16D-07
 ErrMax= 3.16D-07  0.00D+00 EMaxC= 1.00D-01 BMatC= 2.17D-12 BMatP= 1.24D-10
 IDIUse=1 WtCom= 1.00D+00 WtEn= 0.00D+00
 Coeff-Com: -0.192D-05 0.377D-05 0.370D-05-0.120D-03-0.124D-02-0.416D-02
 Coeff-Com:  0.139D+00 0.866D+00
 Coeff:     -0.192D-05 0.377D-05 0.370D-05-0.120D-03-0.124D-02-0.416D-02
 Coeff:      0.139D+00 0.866D+00
 Gap=     0.247 Goal=   None    Shift=    0.000
 RMSDP=4.05D-08 MaxDP=4.18D-07 DE=-1.17D-10 OVMax= 5.22D-07

 Cycle   9  Pass 1  IDiag  1:
 E= -114.477597625632     Delta-E=       -0.000000000001 Rises=F Damp=F
 DIIS: error= 2.86D-08 at cycle   9 NSaved=   9.
 NSaved= 9 IEnMin= 9 EnMin= -114.477597625632     IErMin= 9 ErrMin= 2.86D-08
 ErrMax= 2.86D-08  0.00D+00 EMaxC= 1.00D-01 BMatC= 3.93D-14 BMatP= 2.17D-12
 IDIUse=1 WtCom= 1.00D+00 WtEn= 0.00D+00
 Coeff-Com: -0.140D-06 0.444D-06 0.200D-05-0.324D-05-0.164D-04-0.127D-02
 Coeff-Com: -0.666D-02 0.734D-01 0.935D+00
 Coeff:     -0.140D-06 0.444D-06 0.200D-05-0.324D-05-0.164D-04-0.127D-02
 Coeff:     -0.666D-02 0.734D-01 0.935D+00
 Gap=     0.247 Goal=   None    Shift=    0.000
 RMSDP=2.60D-09 MaxDP=5.37D-08 DE=-1.22D-12 OVMax= 5.74D-08

 SCF Done:  E(RB3LYP) =  -114.477597626     A.U. after    9 cycles
            NFock=  9  Conv=0.26D-08     -V/T= 1.9949
 KE= 1.150690670779D+02 PE=-3.395578411172D+02 EE= 7.494668477695D+01
 Leave Link  502 at Fri Sep 17 10:52:12 2021, MaxMem=   268435456 cpu:               1.6 elap:               2.1
 (Enter /software/gaussian/g16-a03/l801.exe)
 DoSCS=F DFT=T ScalE2(SS,OS)=  1.000000  1.000000
 ExpMin= 4.38D-02 ExpMax= 8.59D+03 ExpMxC= 1.30D+03 IAcc=3 IRadAn=         5 AccDes= 0.00D+00
 HarFok:  IExCor=  205 AccDes= 0.00D+00 IRadAn=         5 IDoV=-2 UseB2=F ITyADJ=14
 ICtDFT= 12500011 ScaDFX=  1.000000  1.000000  1.000000  1.000000
 Largest valence mixing into a core orbital is  4.13D-05
 Largest core mixing into a valence orbital is  8.26D-06
 Range of M.O.s used for correlation:     3    56
 NBasis=    56 NAE=     8 NBE=     8 NFC=     2 NFV=     0
 NROrb=     54 NOA=     6 NOB=     6 NVA=    48 NVB=    48
 Leave Link  801 at Fri Sep 17 10:52:12 2021, MaxMem=   268435456 cpu:               0.2 elap:               0.2
 (Enter /software/gaussian/g16-a03/l914.exe)
 RHF ground state
 Keep R1, R2, and R3 ints in memory in symmetry-blocked form, NReq=6042848.
 FoFCou: FMM=F IPFlag=           0 FMFlag=           0 FMFlg1=           0
         NFxFlg=           0 DoJE=F BraDBF=F KetDBF=F FulRan=T
         wScrn=  0.000000 ICntrl=       600 IOpCl=  0 I1Cent=           0 NGrid=           0
         NMat0=    1 NMatS0=   1596 NMatT0=    0 NMatD0=    1 NMtDS0=    0 NMtDT0=    0
 Petite list used in FoFCou.
 MDV=   268435456 DFT=T DoStab=F Mixed=T DoRPA=T DoScal=F NonHer=T
 Making orbital integer symmetry assigments:
 Orbital symmetries:
       Occupied  (A1) (A1) (A1) (A1) (B2) (A1) (B1) (B2)
       Virtual   (B1) (A1) (A1) (B2) (B1) (A1) (A1) (B2) (B1) (B2)
                 (A1) (A1) (A1) (B2) (B1) (B2) (A1) (A1) (A2) (B1)
                 (B2) (A1) (B1) (A1) (A1) (B2) (B2) (B1) (A2) (A1)
                 (A1) (B2) (A1) (B2) (A1) (B1) (A2) (A1) (B1) (B2)
                 (A1) (A1) (B2) (B1) (B2) (A1) (A1) (A1)
   120 initial guesses have been made.
 Convergence on wavefunction:    0.001000000000000
 Davidson Disk Diagonalization:  ConvIn= 1.00D-03 SkipCon=T Conv= 1.00D-03.
 Max sub-space:  1728 roots to seek:   120 dimension of matrix:          576
 Iteration     1 Dimension   120 NMult     0 NNew    120
 CISAX will form   120 AO SS matrices at one time.
 NMat=   120 NSing=   120 JSym2X=-1.
 New state      8 was old state     10
 New state     10 was old state     11
 New state     11 was old state     12
 New state     12 was old state     13
 New state     13 was old state     17
 New state     17 was old state      8
 New state     18 was old state     20
 New state     19 was old state     18
 New state     20 was old state     19
 New state     21 was old state     22
 New state     22 was old state     21
 New state     25 was old state     27
 New state     26 was old state     25
 New state     27 was old state     29
 New state     29 was old state     30
 New state     30 was old state     26
 Excitation Energies [eV] at current iteration:
 Root      1 :     4.936053895080061
 Root      2 :     6.479806190672557
 Root      3 :     7.274348342337494
 Root      4 :     7.415532520609539
 Root      5 :     7.936175533145725
 Root      6 :    10.246502057782840
 Root      7 :    10.858084509605060
 Root      8 :    11.312893802280030
 Root      9 :    11.448433332237200
 Root     10 :    11.875989615654770
 Root     11 :    12.261867983670400
 Root     12 :    12.293448415345160
 Root     13 :    12.458475993336150
 Root     14 :    12.659121897073550
 Root     15 :    13.171046570096240
 Root     16 :    13.179968900511620
 Root     17 :    13.241146342028490
 Root     18 :    13.333536055315490
 Root     19 :    13.571532992185140
 Root     20 :    13.584032515336580
 Root     21 :    14.125360469023120
 Root     22 :    14.151510950641920
 Root     23 :    14.182463934564340
 Root     24 :    15.003890141781260
 Root     25 :    15.260956655888390
 Root     26 :    15.291711748678050
 Root     27 :    15.478098499460250
 Root     28 :    15.578253405262550
 Root     29 :    15.953495969040950
 Root     30 :    16.000751907767350
 Root     31 :    16.521184369894180
 Root     32 :    16.770788710341500
 Root     33 :    17.001382682106740
 Root     34 :    17.008442192846850
 Root     35 :    17.038832514486030
 Root     36 :    17.059529111748940
 Root     37 :    17.411236809096580
 Root     38 :    17.510000585817410
 Root     39 :    17.874898541801670
 Root     40 :    17.885216278039510
 Root     41 :    17.982390316014130
 Root     42 :    18.131373300739100
 Root     43 :    18.334873780788070
 Root     44 :    18.661679940766920
 Root     45 :    19.174122850439860
 Root     46 :    19.216826497920450
 Root     47 :    19.467727991313500
 Root     48 :    19.595003045913020
 Root     49 :    19.626577562822650
 Root     50 :    19.719534665482580
 Root     51 :    19.868891541660240
 Root     52 :    20.469918277012450
 Root     53 :    20.720411846195640
 Root     54 :    20.876349614215560
 Root     55 :    21.037697275385660
 Root     56 :    21.103431809111480
 Root     57 :    21.312274601625350
 Root     58 :    21.730887945784620
 Root     59 :    21.896263684566780
 Root     60 :    22.107802934278990
 Root     61 :    23.074472021528880
 Root     62 :    23.372897848588790
 Root     63 :    23.781751001255690
 Root     64 :    24.179114090417600
 Root     65 :    24.994171897981510
 Root     66 :    25.112675687304950
 Root     67 :    25.290883469989010
 Root     68 :    25.714998180071190
 Root     69 :    25.746195066797700
 Root     70 :    25.761834678504920
 Root     71 :    26.192553084075880
 Root     72 :    26.918749364093390
 Root     73 :    27.027411052641990
 Root     74 :    27.429791254189440
 Root     75 :    28.494501867175070
 Root     76 :    29.079405874747270
 Root     77 :    29.111876004650010
 Root     78 :    29.296193467920960
 Root     79 :    29.459622577669520
 Root     80 :    29.578472958478460
 Root     81 :    30.044578977428830
 Root     82 :    30.301070352718890
 Root     83 :    30.415107569221100
 Root     84 :    31.270360123983340
 Root     85 :    31.483439446934290
 Root     86 :    31.957996344724050
 Root     87 :    32.201137982642000
 Root     88 :    32.264514584353340
 Root     89 :    32.620283815622460
 Root     90 :    32.767208784103090
 Root     91 :    33.221656873760540
 Root     92 :    33.476235308701630
 Root     93 :    34.435377081522620
 Root     94 :    34.753635284430220
 Root     95 :    34.837645263205190
 Root     96 :    35.227017251948030
 Root     97 :    35.744002429269440
 Root     98 :    35.860357245503370
 Root     99 :    36.192623021778910
 Root    100 :    36.944240498879860
 Root    101 :    36.992902777660360
 Root    102 :    37.687582714628720
 Root    103 :    37.829852954980660
 Root    104 :    38.109152179231890
 Root    105 :    38.883545105242280
 Root    106 :    39.046805547703830
 Root    107 :    39.351967894272020
 Root    108 :    39.387733129490860
 Root    109 :    39.599548397198380
 Root    110 :    39.967951319663080
 Root    111 :    40.396137613019290
 Root    112 :    40.480452137065190
 Root    113 :    40.673469261064710
 Root    114 :    41.223503978123080
 Root    115 :    41.262882718307460
 Root    116 :    41.556133198368120
 Root    117 :    41.886377010936020
 Root    118 :    42.699101467288180
 Root    119 :    43.023286761143230
 Root    120 :    47.804768495381360
 Iteration     2 Dimension   180 NMult   120 NNew     60
 CISAX will form    60 AO SS matrices at one time.
 NMat=    60 NSing=    60 JSym2X=-1.
 Root      1 not converged, maximum delta is    0.005783110220572
 Root      2 not converged, maximum delta is    0.003677080867014
 Root      3 not converged, maximum delta is    0.002617792940814
 Root      4 not converged, maximum delta is    0.003550675141496
 Root      5 not converged, maximum delta is    0.001895141500094
 Root      6 not converged, maximum delta is    0.006827446602014
 Root      7 not converged, maximum delta is    0.002136586401966
 Root      8 not converged, maximum delta is    0.011238095117390
 Root      9 not converged, maximum delta is    0.012477137242612
 Root     10 not converged, maximum delta is    0.001749038614391
 Root     11 not converged, maximum delta is    0.028878660247132
 Root     12 not converged, maximum delta is    0.001444386315444
 Root     13 not converged, maximum delta is    0.006513994932347
 Root     14 not converged, maximum delta is    0.042892823007394
 Root     15 not converged, maximum delta is    0.005604901671456
 Root     16 has converged.
 Root     17 not converged, maximum delta is    0.062328503916968
 Root     18 not converged, maximum delta is    0.018276037848572
 Root     19 not converged, maximum delta is    0.045496745224365
 Root     20 not converged, maximum delta is    0.018019674365211
 New state     21 was old state     22
 Root     21 not converged, maximum delta is    0.025923021675594
 New state     22 was old state     21
 Root     22 not converged, maximum delta is    0.003286637189161
 Root     23 not converged, maximum delta is    0.010040628953845
 Root     24 not converged, maximum delta is    0.007097474132739
 Root     25 not converged, maximum delta is    0.039549819948714
 Root     26 not converged, maximum delta is    0.014052374633743
 Root     27 not converged, maximum delta is    0.008394355779932
 Root     28 not converged, maximum delta is    0.002209372180512
 New state     29 was old state     30
 Root     29 not converged, maximum delta is    0.046587885007985
 New state     30 was old state     29
 Root     30 not converged, maximum delta is    0.002984663905259
 Excitation Energies [eV] at current iteration:
 Root      1 :     4.923716383300052   Change is   -0.012337511780009
 Root      2 :     6.477085628862603   Change is   -0.002720561809955
 Root      3 :     7.268723508464594   Change is   -0.005624833872899
 Root      4 :     7.412468446605305   Change is   -0.003064074004235
 Root      5 :     7.934923000166215   Change is   -0.001252532979511
 Root      6 :    10.232431184056790   Change is   -0.014070873726052
 Root      7 :    10.856222485431600   Change is   -0.001862024173460
 Root      8 :    11.241914255284370   Change is   -0.070979546995667
 Root      9 :    11.429126192181820   Change is   -0.019307140055371
 Root     10 :    11.874648786617530   Change is   -0.001340829037242
 Root     11 :    12.236431441691180   Change is   -0.025436541979225
 Root     12 :    12.292579131282920   Change is   -0.000869284062239
 Root     13 :    12.451803731084300   Change is   -0.006672262251849
 Root     14 :    12.632156054881940   Change is   -0.026965842191605
 Root     15 :    13.165653949711900   Change is   -0.005392620384342
 Root     16 :    13.179576947878760   Change is   -0.000391952632867
 Root     17 :    13.193916691107480   Change is   -0.047229650921003
 Root     18 :    13.323605682788010   Change is   -0.009930372527478
 Root     19 :    13.547077873861820   Change is   -0.024455118323322
 Root     20 :    13.576645263012690   Change is   -0.007387252323892
 Root     21 :    14.102793428331710   Change is   -0.048717522310208
 Root     22 :    14.121601671215480   Change is   -0.003758797807638
 Root     23 :    14.172159415203610   Change is   -0.010304519360731
 Root     24 :    14.998951823196390   Change is   -0.004938318584870
 Root     25 :    15.225451475610740   Change is   -0.035505180277652
 Root     26 :    15.268860635734480   Change is   -0.022851112943564
 Root     27 :    15.460782072685520   Change is   -0.017316426774734
 Root     28 :    15.577355882612740   Change is   -0.000897522649805
 Root     29 :    15.913689826053460   Change is   -0.087062081713894
 Root     30 :    15.949239660168180   Change is   -0.004256308872768
 Iteration     3 Dimension   237 NMult   180 NNew     57
 CISAX will form    57 AO SS matrices at one time.
 NMat=    57 NSing=    57 JSym2X=-1.
 Root      1 has converged.
 Root      2 has converged.
 Root      3 has converged.
 Root      4 has converged.
 Root      5 has converged.
 Root      6 has converged.
 Root      7 has converged.
 Root      8 has converged.
 Root      9 has converged.
 Root     10 has converged.
 Root     11 has converged.
 Root     12 has converged.
 Root     13 has converged.
 Root     14 has converged.
 Root     15 has converged.
 Root     16 has converged.
 Root     17 has converged.
 Root     18 has converged.
 Root     19 has converged.
 Root     20 has converged.
 Root     21 has converged.
 Root     22 has converged.
 Root     23 has converged.
 Root     24 has converged.
 Root     25 has converged.
 Root     26 has converged.
 Root     27 has converged.
 Root     28 has converged.
 Root     29 has converged.
 Root     30 has converged.
 Excitation Energies [eV] at current iteration:
 Root      1 :     4.923713948138643   Change is   -0.000002435161409
 Root      2 :     6.477083440225147   Change is   -0.000002188637455
 Root      3 :     7.268720985931599   Change is   -0.000002522532996
 Root      4 :     7.412466478149370   Change is   -0.000001968455935
 Root      5 :     7.934922788963502   Change is   -0.000000211202713
 Root      6 :    10.232424953857860   Change is   -0.000006230198932
 Root      7 :    10.856219143261750   Change is   -0.000003342169849
 Root      8 :    11.241772375837350   Change is   -0.000141879447017
 Root      9 :    11.429100022981070   Change is   -0.000026169200755
 Root     10 :    11.874647879811850   Change is   -0.000000906805673
 Root     11 :    12.236380836023170   Change is   -0.000050605668013
 Root     12 :    12.292577596425210   Change is   -0.000001534857717
 Root     13 :    12.451801279937510   Change is   -0.000002451146797
 Root     14 :    12.632109502172880   Change is   -0.000046552709065
 Root     15 :    13.165639874654790   Change is   -0.000014075057108
 Root     16 :    13.179576769240230   Change is   -0.000000178638527
 Root     17 :    13.193828555212890   Change is   -0.000088135894596
 Root     18 :    13.323592702088360   Change is   -0.000012980699658
 Root     19 :    13.547009503099580   Change is   -0.000068370762239
 Root     20 :    13.576631137328820   Change is   -0.000014125683871
 Root     21 :    14.102704398888320   Change is   -0.000089029443388
 Root     22 :    14.121594096313810   Change is   -0.000007574901671
 Root     23 :    14.172130985485530   Change is   -0.000028429718084
 Root     24 :    14.998939816219630   Change is   -0.000012006976764
 Root     25 :    15.225391678510800   Change is   -0.000059797099944
 Root     26 :    15.268806830369960   Change is   -0.000053805364519
 Root     27 :    15.460753269298870   Change is   -0.000028803386645
 Root     28 :    15.577355474537180   Change is   -0.000000408075564
 Root     29 :    15.913604136188300   Change is   -0.000085689865157
 Root     30 :    15.949229439105570   Change is   -0.000010221062611
 Convergence achieved on expansion vectors.
 ***********************************************************************
 Excited states from <AA,BB:AA,BB> singles matrix:
 ***********************************************************************
 
 1PDM for each excited state written to RWF  633
 Ground to excited state transition densities written to RWF  633
 Ground to excited state transition electric dipole moments (Au):
       state          X           Y           Z        Dip. S.      Osc.
         1        -0.0000      0.0000      0.0000      0.0000      0.0000
         2        -0.0000      0.6131      0.0000      0.3759      0.0597
         3         0.0000      0.3413      0.0000      0.1165      0.0207
         4        -0.0000      0.0000     -0.5421      0.2939      0.0534
         5         0.0000      0.0000      0.0000      0.0000      0.0000
         6        -0.0000      0.9328      0.0000      0.8701      0.2181
         7        -0.0000     -0.0941     -0.0000      0.0088      0.0024
         8         0.0062      0.0000      0.0000      0.0000      0.0000
         9        -0.0000      0.0000     -0.0055      0.0000      0.0000
        10        -0.0000      0.0000     -0.0000      0.0000      0.0000
        11         0.0000     -0.0000      0.3045      0.0927      0.0278
        12        -0.3667      0.0000      0.0000      0.1345      0.0405
        13        -0.0000     -0.0000      0.0000      0.0000      0.0000
        14         0.0000      0.0000     -0.6166      0.3801      0.1176
        15         0.2645      0.0000     -0.0000      0.0700      0.0226
        16         0.0000      0.0000     -0.0000      0.0000      0.0000
        17         0.0000      0.0000      1.0802      1.1668      0.3772
        18         0.0000     -0.3665      0.0000      0.1343      0.0438
        19        -0.0000      0.0000      0.2586      0.0669      0.0222
        20         0.0000     -0.3480     -0.0000      0.1211      0.0403
        21        -0.0000     -0.0000     -0.5880      0.3457      0.1195
        22         0.0000     -0.5187      0.0000      0.2690      0.0931
        23        -0.2738     -0.0000      0.0000      0.0750      0.0260
        24        -0.0000      0.2094      0.0000      0.0438      0.0161
        25        -0.2879     -0.0000      0.0000      0.0829      0.0309
        26        -0.0000      0.0000     -0.2609      0.0681      0.0255
        27        -0.0000     -0.2452     -0.0000      0.0601      0.0228
        28         0.0000     -0.0000     -0.0000      0.0000      0.0000
        29         0.6790     -0.0000      0.0000      0.4611      0.1798
        30        -0.0000      0.0000      0.0536      0.0029      0.0011
 Ground to excited state transition velocity dipole moments (Au):
       state          X           Y           Z        Dip. S.      Osc.
         1         0.0000     -0.0000     -0.0000      0.0000      0.0000
         2         0.0000     -0.1442      0.0000      0.0208      0.0583
         3        -0.0000     -0.0950     -0.0000      0.0090      0.0225
         4         0.0000     -0.0000      0.1421      0.0202      0.0494
         5        -0.0000      0.0000     -0.0000      0.0000      0.0000
         6         0.0000     -0.3503     -0.0000      0.1227      0.2176
         7         0.0000      0.0065     -0.0000      0.0000      0.0001
         8        -0.0125     -0.0000     -0.0000      0.0002      0.0003
         9        -0.0000      0.0000      0.0103      0.0001      0.0002
        10         0.0000      0.0000      0.0000      0.0000      0.0000
        11        -0.0000     -0.0000     -0.1340      0.0180      0.0266
        12         0.1690     -0.0000     -0.0000      0.0286      0.0421
        13        -0.0000     -0.0000     -0.0000      0.0000      0.0000
        14        -0.0000     -0.0000      0.2837      0.0805      0.1156
        15        -0.1368     -0.0000      0.0000      0.0187      0.0258
        16        -0.0000     -0.0000      0.0000      0.0000      0.0000
        17         0.0000     -0.0000     -0.5207      0.2712      0.3728
        18        -0.0000      0.1895     -0.0000      0.0359      0.0489
        19         0.0000      0.0000     -0.1345      0.0181      0.0242
        20        -0.0000      0.1719      0.0000      0.0295      0.0395
        21         0.0000      0.0000      0.3086      0.0952      0.1225
        22        -0.0000      0.2671     -0.0000      0.0714      0.0917
        23         0.1362      0.0000     -0.0000      0.0185      0.0237
        24         0.0000     -0.1197     -0.0000      0.0143      0.0173
        25         0.1790      0.0000     -0.0000      0.0320      0.0382
        26         0.0000     -0.0000      0.1526      0.0233      0.0277
        27         0.0000      0.1363      0.0000      0.0186      0.0218
        28         0.0000      0.0000      0.0000      0.0000      0.0000
        29        -0.3918      0.0000     -0.0000      0.1535      0.1750
        30         0.0000     -0.0000     -0.0343      0.0012      0.0013
 Ground to excited state transition magnetic dipole moments (Au):
       state          X           Y           Z
         1         0.0000     -0.0000      1.2887
         2        -0.4385      0.0000     -0.0000
         3         0.7821     -0.0000      0.0000
         4         0.0000     -0.0000     -0.0000
         5        -0.0000      0.0000     -0.1639
         6        -0.9150     -0.0000     -0.0000
         7         0.7579     -0.0000     -0.0000
         8        -0.0000     -1.3739     -0.0000
         9        -0.0000     -0.0000      0.0000
        10        -0.0000     -0.0000     -0.0364
        11         0.0000      0.0000      0.0000
        12        -0.0000     -0.0412      0.0000
        13        -0.0000      0.0000     -0.4715
        14         0.0000      0.0000      0.0000
        15         0.0000     -0.0276     -0.0000
        16         0.0000     -0.0000      0.0499
        17         0.0000      0.0000      0.0000
        18        -0.5820     -0.0000      0.0000
        19         0.0000     -0.0000     -0.0000
        20        -0.2435     -0.0000      0.0000
        21         0.0000      0.0000     -0.0000
        22         0.2735     -0.0000      0.0000
        23         0.0000      0.5984      0.0000
        24        -0.1753     -0.0000     -0.0000
        25         0.0000     -0.4501      0.0000
        26        -0.0000     -0.0000      0.0000
        27         1.0329     -0.0000     -0.0000
        28         0.0000      0.0000      0.0778
        29         0.0000      0.2703     -0.0000
        30        -0.0000     -0.0000      0.0000
 Ground to excited state transition velocity quadrupole moments (Au):
       state          XX          YY          ZZ          XY          XZ          YZ
         1        -0.0000     -0.0000      0.0000     -0.1610     -0.0000      0.0000
         2        -0.0000      0.0000     -0.0000      0.0000      0.0000      0.5358
         3        -0.0000     -0.0000      0.0000     -0.0000      0.0000      0.1542
         4        -0.1304     -0.5312     -0.2322     -0.0000     -0.0000     -0.0000
         5         0.0000     -0.0000      0.0000     -0.1312      0.0000     -0.0000
         6        -0.0000      0.0000     -0.0000      0.0000      0.0000      0.7949
         7         0.0000     -0.0000     -0.0000     -0.0000     -0.0000      0.2874
         8        -0.0000     -0.0000      0.0000     -0.0000     -0.4511     -0.0000
         9         0.1782     -0.5963     -0.7534      0.0000      0.0000     -0.0000
        10        -0.0000     -0.0000     -0.0000      0.3225     -0.0000      0.0000
        11        -0.2592     -0.2924     -0.1143      0.0000      0.0000     -0.0000
        12         0.0000      0.0000      0.0000     -0.0000     -0.0449      0.0000
        13         0.0000      0.0000      0.0000      0.1955      0.0000     -0.0000
        14        -0.0663     -0.1103      0.1067     -0.0000      0.0000     -0.0000
        15        -0.0000     -0.0000     -0.0000     -0.0000     -0.2722     -0.0000
        16        -0.0000     -0.0000     -0.0000      0.2536     -0.0000      0.0000
        17         0.4578      0.7776      0.6929      0.0000      0.0000     -0.0000
        18        -0.0000     -0.0000      0.0000     -0.0000     -0.0000      0.1433
        19        -0.4085     -0.4153     -0.1318      0.0000      0.0000     -0.0000
        20         0.0000      0.0000      0.0000      0.0000     -0.0000     -0.0152
        21         0.4392     -0.3875     -0.0464      0.0000      0.0000     -0.0000
        22        -0.0000      0.0000      0.0000     -0.0000     -0.0000     -0.3892
        23        -0.0000      0.0000      0.0000      0.0000      0.2185     -0.0000
        24        -0.0000     -0.0000     -0.0000      0.0000     -0.0000     -0.3512
        25        -0.0000     -0.0000      0.0000      0.0000     -0.2736      0.0000
        26         0.2678      0.6436     -0.0057     -0.0000     -0.0000      0.0000
        27         0.0000      0.0000     -0.0000      0.0000     -0.0000     -0.0658
        28         0.0000      0.0000     -0.0000      0.2778      0.0000     -0.0000
        29        -0.0000      0.0000     -0.0000      0.0000      0.4385     -0.0000
        30        -0.2952      0.2967     -0.1871      0.0000     -0.0000     -0.0000
 <0|del|b> * <b|rxdel|0> + <0|del|b> * <b|delr+rdel|0>
 Rotatory Strengths (R) in cgs (10**-40 erg-esu-cm/Gauss)
       state          XX          YY          ZZ    R(velocity)    E-M Angle
         1        -0.0000     -0.0000      0.0000     -0.0000       90.00
         2        -0.0000      0.0000     -0.0000     -0.0000       90.00
         3         0.0000     -0.0000     -0.0000     -0.0000       90.00
         4        -0.0000      0.0000      0.0000     -0.0000       90.00
         5         0.0000      0.0000      0.0000      0.0000       90.00
         6         0.0000     -0.0000     -0.0000     -0.0000       90.00
         7        -0.0000      0.0000      0.0000      0.0000       90.00
         8         0.0000      0.0000      0.0000      0.0000       90.00
         9         0.0000     -0.0000     -0.0000      0.0000       90.00
        10         0.0000     -0.0000     -0.0000     -0.0000       90.00
        11        -0.0000     -0.0000     -0.0000     -0.0000       90.00
        12        -0.0000     -0.0000     -0.0000     -0.0000       90.00
        13         0.0000      0.0000     -0.0000      0.0000       90.00
        14         0.0000      0.0000     -0.0000      0.0000       90.00
        15        -0.0000     -0.0000     -0.0000     -0.0000       90.00
        16         0.0000     -0.0000      0.0000      0.0000       90.00
        17        -0.0000     -0.0000      0.0000     -0.0000       90.00
        18         0.0000      0.0000     -0.0000      0.0000       90.00
        19         0.0000      0.0000      0.0000      0.0000       90.00
        20         0.0000      0.0000     -0.0000     -0.0000       90.00
        21        -0.0000     -0.0000      0.0000     -0.0000       90.00
        22        -0.0000      0.0000     -0.0000     -0.0000       90.00
        23         0.0000     -0.0000      0.0000      0.0000       90.00
        24         0.0000     -0.0000      0.0000      0.0000       90.00
        25        -0.0000      0.0000     -0.0000     -0.0000       90.00
        26        -0.0000      0.0000     -0.0000      0.0000       90.00
        27        -0.0000      0.0000      0.0000      0.0000       90.00
        28         0.0000     -0.0000      0.0000      0.0000       90.00
        29        -0.0000      0.0000     -0.0000     -0.0000       90.00
        30        -0.0000      0.0000     -0.0000     -0.0000       90.00
 1/2[<0|r|b>*<b|rxdel|0> + (<0|rxdel|b>*<b|r|0>)*]
 Rotatory Strengths (R) in cgs (10**-40 erg-esu-cm/Gauss)
       state          XX          YY          ZZ     R(length)
         1         0.0000      0.0000     -0.0000     -0.0000
         2        -0.0000     -0.0000      0.0000     -0.0000
         3        -0.0000      0.0000     -0.0000      0.0000
         4         0.0000      0.0000     -0.0000     -0.0000
         5         0.0000     -0.0000      0.0000      0.0000
         6        -0.0000      0.0000      0.0000      0.0000
         7         0.0000     -0.0000     -0.0000     -0.0000
         8         0.0000      0.0000      0.0000      0.0000
         9        -0.0000      0.0000      0.0000      0.0000
        10        -0.0000      0.0000     -0.0000     -0.0000
        11        -0.0000      0.0000     -0.0000     -0.0000
        12        -0.0000      0.0000     -0.0000     -0.0000
        13        -0.0000      0.0000      0.0000      0.0000
        14        -0.0000     -0.0000      0.0000      0.0000
        15        -0.0000      0.0000     -0.0000     -0.0000
        16        -0.0000      0.0000      0.0000      0.0000
        17        -0.0000     -0.0000     -0.0000     -0.0000
        18         0.0000     -0.0000     -0.0000      0.0000
        19         0.0000      0.0000      0.0000      0.0000
        20         0.0000     -0.0000      0.0000     -0.0000
        21         0.0000      0.0000     -0.0000     -0.0000
        22        -0.0000     -0.0000     -0.0000     -0.0000
        23         0.0000      0.0000     -0.0000      0.0000
        24        -0.0000      0.0000      0.0000      0.0000
        25         0.0000     -0.0000     -0.0000     -0.0000
        26        -0.0000      0.0000      0.0000      0.0000
        27         0.0000     -0.0000     -0.0000      0.0000
        28        -0.0000      0.0000      0.0000      0.0000
        29        -0.0000      0.0000      0.0000     -0.0000
        30        -0.0000      0.0000     -0.0000     -0.0000
  1/2[<0|del|b>*<b|r|0> + (<0|r|b>*<b|del|0>)*] (Au)
       state          X           Y           Z        Dip. S.   Osc.(frdel)
         1        -0.0000     -0.0000     -0.0000      0.0000      0.0000
         2        -0.0000     -0.0884      0.0000      0.0884      0.0590
         3        -0.0000     -0.0324     -0.0000      0.0324      0.0216
         4        -0.0000     -0.0000     -0.0770      0.0770      0.0514
         5        -0.0000      0.0000     -0.0000      0.0000      0.0000
         6        -0.0000     -0.3268     -0.0000      0.3268      0.2178
         7        -0.0000     -0.0006      0.0000      0.0006      0.0004
         8        -0.0001     -0.0000     -0.0000      0.0001      0.0001
         9         0.0000      0.0000     -0.0001      0.0001      0.0000
        10        -0.0000      0.0000     -0.0000      0.0000      0.0000
        11        -0.0000      0.0000     -0.0408      0.0408      0.0272
        12        -0.0620     -0.0000     -0.0000      0.0620      0.0413
        13         0.0000      0.0000     -0.0000      0.0000      0.0000
        14        -0.0000     -0.0000     -0.1749      0.1749      0.1166
        15        -0.0362     -0.0000     -0.0000      0.0362      0.0241
        16        -0.0000     -0.0000     -0.0000      0.0000      0.0000
        17         0.0000     -0.0000     -0.5625      0.5625      0.3750
        18        -0.0000     -0.0694     -0.0000      0.0694      0.0463
        19        -0.0000      0.0000     -0.0348      0.0348      0.0232
        20        -0.0000     -0.0598     -0.0000      0.0598      0.0399
        21        -0.0000     -0.0000     -0.1815      0.1815      0.1210
        22        -0.0000     -0.1386     -0.0000      0.1386      0.0924
        23        -0.0373     -0.0000     -0.0000      0.0373      0.0249
        24        -0.0000     -0.0251     -0.0000      0.0251      0.0167
        25        -0.0515     -0.0000     -0.0000      0.0515      0.0344
        26        -0.0000     -0.0000     -0.0398      0.0398      0.0265
        27        -0.0000     -0.0334     -0.0000      0.0334      0.0223
        28         0.0000     -0.0000     -0.0000      0.0000      0.0000
        29        -0.2661     -0.0000     -0.0000      0.2661      0.1774
        30        -0.0000     -0.0000     -0.0018      0.0018      0.0012

 Excitation energies and oscillator strengths:
 
 Excited State   1:      Singlet-A2     4.9237 eV  251.81 nm  f=0.0000  <S**2>=0.000
       3 -> 27         0.00295
       3 -> 37         0.00246
       3 -> 45         0.00184
       4 -> 27         0.00282
       4 -> 37        -0.00074
       4 -> 45        -0.00101
       5 ->  9         0.01805
       5 -> 13        -0.00786
       5 -> 17         0.00620
       5 -> 23        -0.00241
       5 -> 28         0.00374
       5 -> 31         0.00288
       5 -> 36         0.00402
       5 -> 44         0.00068
       5 -> 47         0.00012
       5 -> 52         0.00085
       6 -> 27         0.00053
       6 -> 37        -0.00060
       6 -> 45         0.00160
       7 -> 12        -0.00062
       7 -> 16         0.00182
       7 -> 18         0.00169
       7 -> 22         0.00154
       7 -> 24         0.00115
       7 -> 29        -0.00070
       7 -> 34         0.00035
       7 -> 35         0.00050
       7 -> 40        -0.00035
       7 -> 42        -0.00027
       7 -> 48         0.00061
       7 -> 51        -0.00019
       7 -> 53         0.00039
       8 ->  9         0.70107
       8 -> 13        -0.08691
       8 -> 17         0.02584
       8 -> 23        -0.01177
       8 -> 28         0.00688
       8 -> 31         0.00349
       8 -> 36        -0.00143
       8 -> 44        -0.00025
       8 -> 47        -0.00016
       8 -> 52         0.00132
       3 <- 27         0.00206
       3 <- 37         0.00209
       3 <- 45         0.00192
       4 <- 27         0.00357
       4 <- 37        -0.00022
       4 <- 45        -0.00092
       5 <- 13        -0.00098
       5 <- 17        -0.00059
       5 <- 23         0.00049
       5 <- 28        -0.00039
       5 <- 31        -0.00111
       5 <- 36         0.00180
       5 <- 44         0.00039
       5 <- 47         0.00017
       5 <- 52         0.00022
       6 <- 27         0.00091
       6 <- 37        -0.00058
       6 <- 45         0.00124
       7 <- 12        -0.00096
       7 <- 16        -0.00494
       7 <- 18         0.00169
       7 <- 22         0.00634
       7 <- 24        -0.00092
       7 <- 29         0.00229
       7 <- 34        -0.00125
       7 <- 35         0.00249
       7 <- 40        -0.00068
       7 <- 42        -0.00081
       7 <- 48         0.00044
       7 <- 53         0.00104
       8 <-  9        -0.01618
       8 <- 13         0.00578
       8 <- 17        -0.00385
       8 <- 23         0.00070
       8 <- 28        -0.00050
       8 <- 31         0.00190
       8 <- 36        -0.00208
       8 <- 52         0.00039
 This state for optimization and/or second-order correction.
 Total Energy, E(TD-HF/TD-DFT) =  -114.296654467    
 Copying the excited state density for this state as the 1-particle RhoCI density.
 
 Excited State   2:      Singlet-B2     6.4771 eV  191.42 nm  f=0.0597  <S**2>=0.000
       3 -> 12         0.00114
       3 -> 16         0.00050
       3 -> 18        -0.00112
       3 -> 22        -0.00020
       3 -> 24         0.00128
       3 -> 29        -0.00013
       3 -> 35        -0.00022
       3 -> 51        -0.00011
       4 -> 12        -0.00476
       4 -> 16         0.00067
       4 -> 18        -0.00236
       4 -> 22        -0.00322
       4 -> 24         0.00388
       4 -> 34        -0.00084
       4 -> 35         0.00085
       4 -> 40        -0.00042
       4 -> 42        -0.00028
       5 -> 10        -0.00186
       5 -> 11        -0.00893
       5 -> 14         0.00653
       5 -> 15        -0.00135
       5 -> 19         0.00315
       5 -> 20        -0.00017
       5 -> 21         0.00426
       5 -> 25         0.00046
       5 -> 26        -0.00209
       5 -> 30         0.00241
       5 -> 32        -0.00032
       5 -> 33        -0.00053
       5 -> 38        -0.00048
       5 -> 39        -0.00027
       5 -> 43        -0.00053
       5 -> 46        -0.00056
       5 -> 49         0.00023
       6 -> 12         0.00147
       6 -> 16         0.00053
       6 -> 18        -0.00396
       6 -> 22        -0.00269
       6 -> 24         0.00183
       6 -> 29        -0.00025
       6 -> 34        -0.00011
       6 -> 42         0.00036
       6 -> 48         0.00036
       6 -> 51         0.00051
       7 -> 27         0.00057
       7 -> 37        -0.00019
       7 -> 45         0.00074
       8 -> 10         0.70533
       8 -> 11        -0.04312
       8 -> 14        -0.00223
       8 -> 15        -0.01010
       8 -> 19         0.01804
       8 -> 20         0.01010
       8 -> 21        -0.00554
       8 -> 25         0.00082
       8 -> 26        -0.00115
       8 -> 30         0.00047
       8 -> 32         0.00154
       8 -> 33         0.00204
       8 -> 38         0.00058
       8 -> 39         0.00055
       8 -> 41        -0.00017
       8 -> 43         0.00069
       8 -> 46        -0.00090
       8 -> 54         0.00017
       3 <- 12         0.00033
       3 <- 16         0.00045
       3 <- 18        -0.00051
       3 <- 22        -0.00029
       3 <- 24         0.00085
       3 <- 29        -0.00012
       3 <- 35        -0.00022
       4 <- 12         0.00046
       4 <- 16         0.00117
       4 <- 18        -0.00261
       4 <- 22        -0.00196
       4 <- 24         0.00280
       4 <- 34        -0.00058
       4 <- 35         0.00058
       4 <- 40        -0.00028
       5 <- 10         0.00241
       5 <- 11        -0.00014
       5 <- 14         0.00484
       5 <- 15        -0.00129
       5 <- 19         0.00077
       5 <- 20         0.00019
       5 <- 21         0.00221
       5 <- 25         0.00167
       5 <- 26        -0.00144
       5 <- 30         0.00077
       5 <- 32        -0.00055
       5 <- 33        -0.00053
       5 <- 38        -0.00042
       5 <- 39        -0.00017
       5 <- 41         0.00016
       5 <- 43        -0.00037
       5 <- 46        -0.00047
       5 <- 49         0.00021
       6 <- 12         0.00042
       6 <- 16        -0.00043
       6 <- 18        -0.00178
       6 <- 22        -0.00098
       6 <- 24         0.00073
       6 <- 29         0.00044
       6 <- 34        -0.00018
       6 <- 35         0.00023
       6 <- 42         0.00034
       6 <- 48         0.00031
       6 <- 51         0.00052
       7 <- 27         0.00044
       7 <- 37        -0.00014
       7 <- 45         0.00063
       8 <- 10        -0.00299
       8 <- 11        -0.00094
       8 <- 14        -0.00913
       8 <- 15         0.00042
       8 <- 19        -0.00058
       8 <- 20        -0.00037
       8 <- 21        -0.00331
       8 <- 25        -0.00290
       8 <- 26        -0.00023
       8 <- 30        -0.00067
       8 <- 32         0.00038
       8 <- 33         0.00162
       8 <- 38         0.00059
       8 <- 39         0.00045
       8 <- 43         0.00054
       8 <- 46        -0.00061
       8 <- 49         0.00014
       8 <- 50         0.00013
 
 Excited State   3:      Singlet-B2     7.2687 eV  170.57 nm  f=0.0207  <S**2>=0.000
       3 -> 12        -0.00019
       3 -> 16        -0.00066
       3 -> 18        -0.00047
       3 -> 22         0.00023
       3 -> 24         0.00034
       3 -> 29         0.00141
       3 -> 34         0.00014
       3 -> 35        -0.00033
       3 -> 40         0.00018
       3 -> 42         0.00030
       3 -> 48         0.00024
       3 -> 51         0.00026
       4 -> 12         0.00313
       4 -> 16        -0.00148
       4 -> 18        -0.00336
       4 -> 22        -0.00156
       4 -> 24         0.00338
       4 -> 29        -0.00106
       4 -> 34         0.00054
       4 -> 35        -0.00036
       4 -> 40        -0.00013
       4 -> 42         0.00016
       4 -> 48         0.00018
       4 -> 51         0.00016
       5 -> 10        -0.00716
       5 -> 11         0.00034
       5 -> 14         0.00519
       5 -> 15        -0.00624
       5 -> 19        -0.00387
       5 -> 20        -0.00241
       5 -> 21         0.00105
       5 -> 25         0.00135
       5 -> 26         0.00091
       5 -> 30         0.00121
       5 -> 32        -0.00151
       5 -> 33        -0.00106
       5 -> 39         0.00051
       5 -> 41        -0.00086
       5 -> 46         0.00074
       5 -> 49        -0.00037
       5 -> 50        -0.00031
       6 -> 12        -0.00321
       6 -> 16        -0.00170
       6 -> 18         0.00173
       6 -> 22         0.00147
       6 -> 29         0.00042
       6 -> 34        -0.00040
       6 -> 35         0.00141
       6 -> 40        -0.00066
       6 -> 42        -0.00060
       6 -> 48        -0.00075
       6 -> 51        -0.00068
       6 -> 53         0.00013
       7 -> 27        -0.00055
       7 -> 37        -0.00120
       7 -> 45        -0.00136
       8 -> 10         0.04376
       8 -> 11         0.70480
       8 -> 14        -0.01282
       8 -> 15         0.01824
       8 -> 19        -0.02296
       8 -> 20         0.01283
       8 -> 21        -0.00205
       8 -> 25         0.00041
       8 -> 26         0.00117
       8 -> 30        -0.00116
       8 -> 32        -0.00020
       8 -> 33         0.00036
       8 -> 39         0.00010
       8 -> 41        -0.00142
       8 -> 46         0.00109
       8 -> 49        -0.00071
       8 -> 50        -0.00044
       8 -> 54        -0.00017
       3 <- 12         0.00031
       3 <- 16        -0.00034
       3 <- 18        -0.00070
       3 <- 24         0.00043
       3 <- 29         0.00088
       3 <- 34         0.00020
       3 <- 35        -0.00038
       3 <- 40         0.00016
       3 <- 42         0.00025
       3 <- 48         0.00020
       3 <- 51         0.00016
       3 <- 53        -0.00022
       4 <- 12         0.00035
       4 <- 16         0.00034
       4 <- 18        -0.00105
       4 <- 22        -0.00122
       4 <- 24         0.00143
       4 <- 29        -0.00044
       4 <- 34         0.00051
       4 <- 42         0.00020
       4 <- 48         0.00011
       4 <- 51         0.00022
       5 <- 10         0.00132
       5 <- 11        -0.00070
       5 <- 14         0.00214
       5 <- 15        -0.00046
       5 <- 19         0.00072
       5 <- 21         0.00093
       5 <- 25         0.00107
       5 <- 26         0.00070
       5 <- 30         0.00076
       5 <- 33        -0.00126
       5 <- 38         0.00016
       5 <- 39         0.00027
       5 <- 41        -0.00088
       5 <- 46         0.00069
       5 <- 49        -0.00024
       5 <- 50        -0.00030
       6 <- 12        -0.00035
       6 <- 16        -0.00012
       6 <- 18         0.00026
       6 <- 22         0.00042
       6 <- 34        -0.00019
       6 <- 35         0.00104
       6 <- 40        -0.00049
       6 <- 42        -0.00042
       6 <- 48        -0.00063
       6 <- 51        -0.00059
       7 <- 27        -0.00015
       7 <- 37        -0.00097
       7 <- 45        -0.00116
       8 <- 10        -0.00097
       8 <- 11         0.00056
       8 <- 14        -0.00470
       8 <- 15         0.00073
       8 <- 19         0.00272
       8 <- 20        -0.00150
       8 <- 21        -0.00221
       8 <- 26         0.00142
       8 <- 30        -0.00067
       8 <- 32         0.00124
       8 <- 38        -0.00020
       8 <- 39        -0.00013
       8 <- 41        -0.00120
       8 <- 46         0.00089
       8 <- 49        -0.00044
       8 <- 50        -0.00038
 
 Excited State   4:      Singlet-A1     7.4125 eV  167.26 nm  f=0.0534  <S**2>=0.000
       3 -> 10         0.00156
       3 -> 11        -0.00100
       3 -> 14         0.00044
       3 -> 15        -0.00042
       3 -> 19         0.00103
       3 -> 20         0.00091
       3 -> 21         0.00019
       3 -> 25        -0.00011
       3 -> 26        -0.00058
       3 -> 30         0.00121
       3 -> 32        -0.00033
       3 -> 33        -0.00026
       3 -> 38        -0.00032
       3 -> 39         0.00015
       3 -> 41        -0.00020
       3 -> 50        -0.00036
       3 -> 54        -0.00021
       4 -> 10         0.00543
       4 -> 11         0.00844
       4 -> 14         0.00591
       4 -> 15        -0.00043
       4 -> 19         0.00056
       4 -> 20         0.00575
       4 -> 21         0.00245
       4 -> 25         0.00711
       4 -> 26        -0.00089
       4 -> 30        -0.00053
       4 -> 33        -0.00084
       4 -> 39        -0.00039
       4 -> 41         0.00021
       4 -> 43         0.00013
       4 -> 46        -0.00026
       4 -> 49        -0.00022
       5 -> 12         0.00768
       5 -> 16        -0.00146
       5 -> 18        -0.01152
       5 -> 22        -0.00080
       5 -> 24         0.00494
       5 -> 29         0.00026
       5 -> 34        -0.00016
       5 -> 35         0.00085
       5 -> 42         0.00014
       5 -> 51        -0.00034
       5 -> 53        -0.00015
       6 -> 10         0.01336
       6 -> 11        -0.00432
       6 -> 14         0.00403
       6 -> 15         0.00151
       6 -> 19         0.00543
       6 -> 20         0.00433
       6 -> 21         0.00178
       6 -> 25         0.00238
       6 -> 26        -0.00058
       6 -> 30        -0.00075
       6 -> 32         0.00056
       6 -> 33        -0.00066
       6 -> 43         0.00011
       6 -> 49        -0.00023
       6 -> 50         0.00055
       7 ->  9         0.01099
       7 -> 13         0.00683
       7 -> 17         0.00469
       7 -> 23         0.00495
       7 -> 31         0.00085
       7 -> 36         0.00055
       7 -> 44         0.00063
       7 -> 47        -0.00036
       7 -> 52        -0.00010
       8 -> 12         0.70567
       8 -> 16        -0.02562
       8 -> 18        -0.02549
       8 -> 22         0.00516
       8 -> 24         0.00197
       8 -> 29         0.00185
       8 -> 34         0.00151
       8 -> 35        -0.00221
       8 -> 40        -0.00044
       8 -> 42        -0.00094
       8 -> 48        -0.00036
       8 -> 51        -0.00027
       8 -> 53        -0.00018
       3 <- 10         0.00058
       3 <- 11        -0.00025
       3 <- 14         0.00028
       3 <- 15        -0.00013
       3 <- 19         0.00047
       3 <- 20         0.00042
       3 <- 21         0.00023
       3 <- 25         0.00015
       3 <- 26        -0.00030
       3 <- 30         0.00075
       3 <- 32        -0.00027
       3 <- 33        -0.00012
       3 <- 38        -0.00025
       3 <- 39         0.00013
       3 <- 41        -0.00017
       3 <- 46         0.00015
       3 <- 49        -0.00010
       3 <- 50        -0.00032
       3 <- 54        -0.00019
       4 <- 10         0.00510
       4 <- 11         0.00247
       4 <- 14         0.00433
       4 <- 15        -0.00080
       4 <- 19         0.00042
       4 <- 20         0.00325
       4 <- 21         0.00100
       4 <- 25         0.00407
       4 <- 26        -0.00049
       4 <- 32        -0.00035
       4 <- 33        -0.00101
       4 <- 38        -0.00013
       4 <- 39        -0.00040
       4 <- 46        -0.00025
       4 <- 49        -0.00019
       5 <- 12         0.00277
       5 <- 16         0.00096
       5 <- 18        -0.00437
       5 <- 24         0.00267
       5 <- 34        -0.00033
       5 <- 35         0.00077
       5 <- 42         0.00012
       5 <- 51        -0.00024
       5 <- 53        -0.00014
       6 <- 10         0.00391
       6 <- 11        -0.00065
       6 <- 14         0.00175
       6 <- 15         0.00050
       6 <- 19         0.00201
       6 <- 20         0.00224
       6 <- 21         0.00070
       6 <- 25         0.00130
       6 <- 26        -0.00058
       6 <- 30        -0.00037
       6 <- 32         0.00032
       6 <- 33        -0.00055
       6 <- 39        -0.00018
       6 <- 41         0.00014
       6 <- 49        -0.00012
       6 <- 50         0.00051
       7 <-  9         0.00218
       7 <- 13         0.00208
       7 <- 17         0.00170
       7 <- 23         0.00268
       7 <- 31         0.00061
       7 <- 36         0.00044
       7 <- 44         0.00053
       7 <- 47        -0.00031
       8 <- 12        -0.00208
       8 <- 16        -0.00819
       8 <- 18         0.00415
       8 <- 22         0.00058
       8 <- 24        -0.00233
       8 <- 29         0.00047
       8 <- 34         0.00090
       8 <- 35        -0.00131
       8 <- 40        -0.00041
       8 <- 42        -0.00079
       8 <- 48        -0.00042
       8 <- 51        -0.00022
       8 <- 53        -0.00020
 
 Excited State   5:      Singlet-A2     7.9349 eV  156.25 nm  f=0.0000  <S**2>=0.000
       3 -> 27        -0.00085
       3 -> 37        -0.00075
       3 -> 45        -0.00043
       4 -> 37         0.00059
       4 -> 45         0.00013
       5 ->  9        -0.00975
       5 -> 13         0.00082
       5 -> 17         0.00523
       5 -> 23        -0.00085
       5 -> 31        -0.00191
       5 -> 36        -0.00148
       5 -> 44        -0.00026
       5 -> 52        -0.00019
       6 -> 27         0.00016
       6 -> 37         0.00028
       6 -> 45        -0.00045
       7 -> 12        -0.00050
       7 -> 16        -0.00185
       7 -> 18        -0.00162
       7 -> 22        -0.00079
       7 -> 24        -0.00022
       7 -> 29         0.00019
       7 -> 35        -0.00021
       7 -> 40         0.00012
       7 -> 42         0.00013
       7 -> 48        -0.00016
       7 -> 53        -0.00011
       8 ->  9         0.08704
       8 -> 13         0.70129
       8 -> 17         0.01042
       8 -> 23         0.01983
       8 -> 28        -0.00036
       8 -> 31        -0.00126
       8 -> 47         0.00018
       8 -> 52        -0.00025
       3 <- 27        -0.00039
       3 <- 37        -0.00057
       3 <- 45        -0.00053
       4 <- 27        -0.00043
       4 <- 45         0.00014
       5 <-  9        -0.00025
       5 <- 13        -0.00021
       5 <- 17         0.00063
       5 <- 36        -0.00037
       6 <- 27        -0.00012
       6 <- 37         0.00023
       6 <- 45        -0.00016
       7 <- 12        -0.00065
       7 <- 16        -0.00067
       7 <- 18        -0.00062
       7 <- 22        -0.00154
       7 <- 24        -0.00025
       7 <- 29         0.00015
       7 <- 34         0.00051
       7 <- 35        -0.00087
       7 <- 40         0.00028
       7 <- 42         0.00041
       7 <- 53        -0.00020
       8 <-  9         0.00387
       8 <- 13         0.00125
       8 <- 17         0.00027
       8 <- 23        -0.00032
       8 <- 28         0.00011
       8 <- 31        -0.00027
       8 <- 36         0.00036
       8 <- 52        -0.00011
 
 Excited State   6:      Singlet-B2    10.2324 eV  121.17 nm  f=0.2181  <S**2>=0.000
       3 -> 12        -0.00037
       3 -> 16        -0.00197
       3 -> 18        -0.00041
       3 -> 22         0.00145
       3 -> 24         0.00091
       3 -> 29         0.00138
       3 -> 34        -0.00079
       3 -> 42        -0.00062
       3 -> 48         0.00032
       3 -> 51         0.00019
       4 -> 12        -0.00883
       4 -> 16        -0.00078
       4 -> 18        -0.00438
       4 -> 22        -0.01537
       4 -> 24         0.00930
       4 -> 29         0.00024
       4 -> 34         0.00247
       4 -> 35        -0.00286
       4 -> 40        -0.00140
       4 -> 42        -0.00200
       4 -> 48         0.00023
       4 -> 51         0.00013
       5 -> 10         0.01544
       5 -> 11        -0.00681
       5 -> 14         0.03245
       5 -> 15        -0.00810
       5 -> 19         0.00529
       5 -> 20        -0.01500
       5 -> 21         0.01604
       5 -> 25         0.00782
       5 -> 26        -0.00253
       5 -> 30        -0.00061
       5 -> 32         0.00153
       5 -> 33         0.00338
       5 -> 39         0.00224
       5 -> 41        -0.00083
       5 -> 43        -0.00068
       5 -> 49        -0.00014
       5 -> 50        -0.00027
       6 -> 12         0.00366
       6 -> 16         0.00192
       6 -> 18        -0.00996
       6 -> 22        -0.00876
       6 -> 24         0.00580
       6 -> 29         0.00114
       6 -> 34         0.00173
       6 -> 35        -0.00067
       6 -> 40        -0.00096
       6 -> 42        -0.00066
       6 -> 48        -0.00049
       6 -> 51        -0.00024
       7 -> 27         0.00724
       7 -> 37         0.00018
       7 -> 45        -0.00066
       8 -> 10         0.00182
       8 -> 11         0.01363
       8 -> 14         0.70486
       8 -> 15        -0.01501
       8 -> 19         0.02009
       8 -> 20         0.00740
       8 -> 21        -0.02768
       8 -> 25        -0.00790
       8 -> 26        -0.00128
       8 -> 30        -0.00094
       8 -> 32         0.00223
       8 -> 33         0.00274
       8 -> 38         0.00126
       8 -> 39        -0.00423
       8 -> 41        -0.00045
       8 -> 43         0.00196
       8 -> 46        -0.00034
       8 -> 49        -0.00087
       8 -> 50        -0.00017
       3 <- 12        -0.00030
       3 <- 16        -0.00098
       3 <- 22         0.00057
       3 <- 24         0.00048
       3 <- 29         0.00080
       3 <- 34        -0.00042
       3 <- 42        -0.00045
       3 <- 48         0.00032
       3 <- 51         0.00014
       3 <- 53        -0.00015
       4 <- 12        -0.00134
       4 <- 16         0.00070
       4 <- 18        -0.00353
       4 <- 22        -0.00769
       4 <- 24         0.00553
       4 <- 29         0.00032
       4 <- 34         0.00090
       4 <- 35        -0.00208
       4 <- 40        -0.00113
       4 <- 42        -0.00127
       4 <- 51         0.00026
       5 <- 10         0.00392
       5 <- 11        -0.00174
       5 <- 14         0.01138
       5 <- 15        -0.00256
       5 <- 19         0.00248
       5 <- 20        -0.00580
       5 <- 21         0.00780
       5 <- 25         0.00473
       5 <- 26        -0.00133
       5 <- 30        -0.00091
       5 <- 32         0.00130
       5 <- 33         0.00143
       5 <- 39         0.00169
       5 <- 41        -0.00046
       5 <- 43        -0.00051
       5 <- 46         0.00011
       5 <- 50        -0.00020
       6 <- 12         0.00054
       6 <- 16         0.00056
       6 <- 18        -0.00319
       6 <- 22        -0.00389
       6 <- 24         0.00269
       6 <- 29         0.00078
       6 <- 34         0.00092
       6 <- 35        -0.00039
       6 <- 40        -0.00078
       6 <- 42        -0.00040
       6 <- 48        -0.00042
       6 <- 51        -0.00014
       7 <- 27         0.00460
       7 <- 45        -0.00070
       8 <- 10        -0.00937
       8 <- 11        -0.00432
       8 <- 14        -0.02123
       8 <- 15         0.00042
       8 <- 19         0.00243
       8 <- 20         0.00385
       8 <- 21        -0.01465
       8 <- 25        -0.00599
       8 <- 26         0.00066
       8 <- 30        -0.00073
       8 <- 32         0.00113
       8 <- 33         0.00064
       8 <- 38         0.00075
       8 <- 39        -0.00262
       8 <- 41        -0.00031
       8 <- 43         0.00136
       8 <- 46         0.00013
       8 <- 49        -0.00060
       8 <- 50        -0.00012
 
 Excited State   7:      Singlet-B2    10.8562 eV  114.21 nm  f=0.0024  <S**2>=0.000
       3 -> 16         0.00074
       3 -> 18        -0.00028
       3 -> 22        -0.00142
       3 -> 24        -0.00013
       3 -> 29        -0.00041
       3 -> 34         0.00014
       3 -> 35        -0.00044
       3 -> 40         0.00016
       3 -> 42         0.00011
       3 -> 53         0.00011
       4 -> 12         0.00073
       4 -> 16        -0.00280
       4 -> 18        -0.00024
       4 -> 22         0.00257
       4 -> 24         0.00256
       4 -> 29         0.00017
       4 -> 34         0.00090
       4 -> 35        -0.00015
       4 -> 40        -0.00026
       4 -> 48        -0.00021
       4 -> 51        -0.00016
       5 -> 10         0.00141
       5 -> 11        -0.01271
       5 -> 14         0.00164
       5 -> 15         0.01488
       5 -> 19         0.00078
       5 -> 20        -0.00065
       5 -> 21         0.00170
       5 -> 25         0.00140
       5 -> 26         0.00224
       5 -> 30         0.00288
       5 -> 32        -0.00081
       5 -> 33         0.00081
       5 -> 38        -0.00072
       5 -> 39         0.00062
       5 -> 41         0.00062
       5 -> 43         0.00037
       5 -> 46        -0.00039
       5 -> 49         0.00034
       5 -> 54         0.00022
       6 -> 12         0.00156
       6 -> 16         0.00024
       6 -> 18        -0.00256
       6 -> 22        -0.00313
       6 -> 24        -0.00020
       6 -> 29        -0.00063
       6 -> 34         0.00029
       6 -> 35        -0.00054
       6 -> 40         0.00035
       6 -> 42         0.00019
       6 -> 48         0.00030
       6 -> 51         0.00040
       7 -> 27         0.00013
       7 -> 45         0.00062
       8 -> 10         0.00903
       8 -> 11        -0.01920
       8 -> 14         0.01574
       8 -> 15         0.70580
       8 -> 19        -0.01546
       8 -> 20         0.01733
       8 -> 21         0.00788
       8 -> 25        -0.00523
       8 -> 26         0.00812
       8 -> 30         0.00320
       8 -> 32         0.00028
       8 -> 33         0.00104
       8 -> 38        -0.00093
       8 -> 39        -0.00045
       8 -> 41         0.00045
       8 -> 46        -0.00070
       8 -> 54         0.00027
       3 <- 12         0.00022
       3 <- 16         0.00090
       3 <- 18        -0.00015
       3 <- 22        -0.00066
       3 <- 24         0.00046
       3 <- 29        -0.00054
       3 <- 34         0.00021
       3 <- 35        -0.00038
       4 <- 12        -0.00022
       4 <- 16        -0.00020
       4 <- 18         0.00029
       4 <- 24         0.00023
       4 <- 29        -0.00021
       4 <- 34         0.00061
       4 <- 35         0.00013
       4 <- 40        -0.00022
       4 <- 42        -0.00012
       4 <- 48        -0.00021
       4 <- 51        -0.00020
       5 <- 10        -0.00024
       5 <- 11         0.00042
       5 <- 14         0.00037
       5 <- 15         0.00020
       5 <- 19        -0.00097
       5 <- 20         0.00013
       5 <- 21         0.00058
       5 <- 30         0.00028
       5 <- 32        -0.00038
       5 <- 38         0.00012
       5 <- 39         0.00033
       5 <- 41         0.00014
       5 <- 43         0.00013
       5 <- 46        -0.00022
       5 <- 49         0.00025
       5 <- 50         0.00016
       6 <- 12        -0.00022
       6 <- 16        -0.00138
       6 <- 18        -0.00048
       6 <- 22        -0.00036
       6 <- 24        -0.00063
       6 <- 29         0.00087
       6 <- 34         0.00015
       6 <- 35        -0.00013
       6 <- 40         0.00025
       6 <- 42         0.00024
       6 <- 48         0.00035
       6 <- 51         0.00055
       6 <- 53         0.00027
       7 <- 27         0.00027
       7 <- 37        -0.00012
       7 <- 45         0.00031
       8 <- 10         0.00025
       8 <- 11         0.00044
       8 <- 15         0.00108
       8 <- 19        -0.00040
       8 <- 20        -0.00052
       8 <- 21        -0.00084
       8 <- 25         0.00011
       8 <- 26        -0.00031
       8 <- 30        -0.00052
       8 <- 32        -0.00019
       8 <- 33         0.00036
       8 <- 38        -0.00056
       8 <- 39        -0.00033
       8 <- 41         0.00020
       8 <- 43        -0.00012
       8 <- 46        -0.00043
       8 <- 49         0.00013
       8 <- 50         0.00024
       8 <- 54         0.00010
 
 Excited State   8:      Singlet-B1    11.2418 eV  110.29 nm  f=0.0000  <S**2>=0.000
       3 ->  9        -0.02683
       3 -> 13         0.01040
       3 -> 17        -0.00793
       3 -> 23         0.00606
       3 -> 28        -0.00373
       3 -> 31        -0.00086
       3 -> 36        -0.00030
       3 -> 44         0.00080
       3 -> 47        -0.00038
       3 -> 52         0.00101
       4 ->  9         0.01512
       4 -> 13        -0.00280
       4 -> 17         0.00071
       4 -> 23        -0.00217
       4 -> 28        -0.00065
       4 -> 31         0.00354
       4 -> 44        -0.00032
       4 -> 47        -0.00171
       4 -> 52        -0.00099
       5 -> 27        -0.00189
       5 -> 37         0.00276
       5 -> 45         0.00447
       6 ->  9         0.70079
       6 -> 13        -0.07601
       6 -> 17         0.03177
       6 -> 23        -0.01139
       6 -> 28         0.01096
       6 -> 31        -0.00147
       6 -> 36        -0.00230
       6 -> 44        -0.00275
       6 -> 47         0.00612
       6 -> 52         0.00197
       7 -> 10         0.00481
       7 -> 11         0.02722
       7 -> 14         0.00349
       7 -> 15        -0.01390
       7 -> 19        -0.00772
       7 -> 20         0.00416
       7 -> 21         0.00425
       7 -> 25        -0.00352
       7 -> 26        -0.00875
       7 -> 30         0.00114
       7 -> 32        -0.00074
       7 -> 33        -0.00098
       7 -> 38        -0.00224
       7 -> 39         0.00171
       7 -> 41        -0.00267
       7 -> 43         0.00154
       7 -> 46         0.00503
       7 -> 49        -0.00114
       7 -> 50         0.00194
       7 -> 54         0.00046
       8 -> 27         0.00663
       8 -> 37         0.00163
       8 -> 45         0.00620
       3 <-  9        -0.00780
       3 <- 13         0.00277
       3 <- 17        -0.00312
       3 <- 23         0.00173
       3 <- 28        -0.00176
       3 <- 31        -0.00061
       3 <- 36        -0.00037
       3 <- 52         0.00087
       4 <-  9         0.00272
       4 <- 13        -0.00021
       4 <- 17         0.00205
       4 <- 23        -0.00068
       4 <- 28         0.00142
       4 <- 31         0.00376
       4 <- 36         0.00087
       4 <- 47        -0.00143
       4 <- 52        -0.00047
       5 <- 27        -0.00157
       5 <- 37         0.00201
       5 <- 45         0.00376
       6 <-  9        -0.01685
       6 <- 13         0.00730
       6 <- 17        -0.00335
       6 <- 23         0.00286
       6 <- 28        -0.00011
       6 <- 31        -0.00356
       6 <- 36        -0.00288
       6 <- 44        -0.00155
       6 <- 47         0.00500
       6 <- 52         0.00057
       7 <- 10         0.00082
       7 <- 11         0.00107
       7 <- 14         0.00016
       7 <- 15        -0.00054
       7 <- 20         0.00329
       7 <- 21         0.00328
       7 <- 25        -0.00459
[...]
  46        4PY         0.00000   0.00000  -0.05102  -0.10725  -0.14438
  47        4PZ        -0.00041   0.00000   0.00844   0.01557   0.00262
  48        5S          0.00030   0.00000  -0.00158   0.00058   0.00042
  49        5PX        -0.00000  -0.00000   0.00000   0.00000   0.00000
  50        5PY         0.00000   0.00000  -0.02976  -0.05247  -0.05052
  51        5PZ        -0.00029   0.00000   0.00362   0.00494   0.00067
  52        6D 0        0.00009   0.00000  -0.00159  -0.00310  -0.00050
  53        6D+1       -0.00000   0.00000   0.00000   0.00000   0.00000
  54        6D-1       -0.00000   0.00000  -0.00322  -0.00328   0.00255
  55        6D+2        0.00001   0.00000  -0.00008  -0.00013  -0.00001
  56        6D-2        0.00000   0.00000   0.00000   0.00000   0.00000
                          26        27        28        29        30
  26        4PX         0.00018
  27        4PY         0.00000   0.00124
  28        4PZ         0.00000  -0.00049   0.00034
  29 3   H  1S          0.00000  -0.00309  -0.00141   0.08272
  30        2S          0.00000  -0.00420  -0.00228   0.12274   0.18726
  31        3S          0.00000  -0.00101  -0.00138   0.06519   0.11222
  32        4PX         0.00018   0.00000   0.00000   0.00000   0.00000
  33        4PY         0.00000  -0.00063  -0.00003   0.00740   0.00954
  34        4PZ         0.00000   0.00003  -0.00016   0.00430   0.00584
  35 4   O  1S          0.00000  -0.00068  -0.00078   0.00309   0.00389
  36        2S          0.00000  -0.00149  -0.00065   0.00533   0.00744
  37        2PX         0.00448   0.00000   0.00000   0.00000   0.00000
  38        2PY         0.00000  -0.00492   0.00250   0.02571   0.06281
  39        2PZ         0.00000  -0.00335  -0.00107   0.00978   0.01982
  40        3S          0.00000   0.00568  -0.00019  -0.01773  -0.02653
  41        3PX         0.00657   0.00000   0.00000   0.00000   0.00000
  42        3PY         0.00000  -0.00714   0.00362   0.03740   0.09130
  43        3PZ         0.00000  -0.00469  -0.00150   0.01367   0.02771
  44        4S          0.00000   0.00278  -0.00131  -0.01252  -0.01291
  45        4PX         0.00480   0.00000   0.00000   0.00000   0.00000
  46        4PY         0.00000  -0.00495   0.00181   0.05102   0.10725
  47        4PZ         0.00000  -0.00240  -0.00062   0.00844   0.01557
  48        5S          0.00000  -0.00025  -0.00065  -0.00158   0.00058
  49        5PX         0.00022   0.00000   0.00000   0.00000   0.00000
  50        5PY         0.00000  -0.00010  -0.00077   0.02976   0.05247
  51        5PZ         0.00000  -0.00069   0.00012   0.00362   0.00494
  52        6D 0        0.00000   0.00056   0.00015  -0.00159  -0.00310
  53        6D+1       -0.00057   0.00000   0.00000   0.00000   0.00000
  54        6D-1        0.00000   0.00065  -0.00052   0.00322   0.00328
  55        6D+2        0.00000   0.00003   0.00000  -0.00008  -0.00013
  56        6D-2       -0.00000   0.00000   0.00000   0.00000   0.00000
                          31        32        33        34        35
  31        3S          0.10170
  32        4PX         0.00000   0.00018
  33        4PY         0.00079   0.00000   0.00124
  34        4PZ         0.00182   0.00000   0.00049   0.00034
  35 4   O  1S          0.00164   0.00000   0.00068  -0.00078   0.63929
  36        2S          0.00189   0.00000   0.00149  -0.00065   0.56864
  37        2PX         0.00000   0.00448   0.00000   0.00000   0.00000
  38        2PY         0.10205   0.00000  -0.00492  -0.00250   0.00000
  39        2PZ         0.00338   0.00000   0.00335  -0.00107  -0.00813
  40        3S         -0.00314   0.00000  -0.00568  -0.00019  -0.12836
  41        3PX         0.00000   0.00657   0.00000   0.00000   0.00000
  42        3PY         0.14817   0.00000  -0.00714  -0.00362   0.00000
  43        3PZ         0.00473   0.00000   0.00469  -0.00150  -0.01180
  44        4S         -0.00085   0.00000  -0.00278  -0.00131  -0.12745
  45        4PX         0.00000   0.00480   0.00000   0.00000   0.00000
  46        4PY         0.14438   0.00000  -0.00495  -0.00181   0.00000
  47        4PZ         0.00262   0.00000   0.00240  -0.00062  -0.01401
  48        5S          0.00042   0.00000   0.00025  -0.00065  -0.00750
  49        5PX         0.00000   0.00022   0.00000   0.00000   0.00000
  50        5PY         0.05052   0.00000  -0.00010   0.00077  -0.00000
  51        5PZ         0.00067   0.00000   0.00069   0.00012   0.00152
  52        6D 0       -0.00050   0.00000  -0.00056   0.00015  -0.00178
  53        6D+1        0.00000  -0.00057   0.00000   0.00000   0.00000
  54        6D-1       -0.00255   0.00000   0.00065   0.00052   0.00000
  55        6D+2       -0.00001   0.00000  -0.00003   0.00000  -0.00058
  56        6D-2        0.00000   0.00000   0.00000   0.00000   0.00000
                          36        37        38        39        40
  36        2S          0.52296
  37        2PX         0.00000   0.11452
  38        2PY         0.00000   0.00000   0.17923
  39        2PZ        -0.01267  -0.00000   0.00000   0.16084
  40        3S         -0.21938   0.00000   0.00000   0.04054   0.67063
  41        3PX         0.00000   0.16775   0.00000   0.00000   0.00000
  42        3PY         0.00000   0.00000   0.26007  -0.00000  -0.00000
  43        3PZ        -0.01726  -0.00000   0.00000   0.22451   0.05154
  44        4S         -0.20035   0.00000   0.00000   0.16392   0.56372
  45        4PX         0.00000   0.12253   0.00000   0.00000   0.00000
  46        4PY         0.00000   0.00000   0.22181  -0.00000  -0.00000
  47        4PZ        -0.02297  -0.00000   0.00000   0.11459   0.07092
  48        5S         -0.01368   0.00000   0.00000   0.06277   0.04681
  49        5PX         0.00000   0.00552   0.00000   0.00000   0.00000
  50        5PY        -0.00000   0.00000   0.05181  -0.00000   0.00000
  51        5PZ         0.00184  -0.00000   0.00000   0.00649  -0.00319
  52        6D 0       -0.00370   0.00000  -0.00000  -0.02025   0.01262
  53        6D+1       -0.00000  -0.01453   0.00000  -0.00000   0.00000
  54        6D-1        0.00000   0.00000  -0.01284   0.00000  -0.00000
  55        6D+2       -0.00099  -0.00000  -0.00000   0.00007   0.00307
  56        6D-2        0.00000   0.00000   0.00000   0.00000   0.00000
                          41        42        43        44        45
  41        3PX         0.24572
  42        3PY         0.00000   0.37738
  43        3PZ        -0.00000   0.00000   0.31344
  44        4S          0.00000   0.00000   0.22483   0.58245
  45        4PX         0.17948   0.00000   0.00000   0.00000   0.13109
  46        4PY         0.00000   0.32189  -0.00000  -0.00000   0.00000
  47        4PZ        -0.00000   0.00000   0.15965   0.14937  -0.00000
  48        5S          0.00000   0.00000   0.08745   0.08933   0.00000
  49        5PX         0.00808   0.00000   0.00000   0.00000   0.00590
  50        5PY         0.00000   0.07522  -0.00000  -0.00000   0.00000
  51        5PZ        -0.00000   0.00000   0.00906   0.00213  -0.00000
  52        6D 0        0.00000  -0.00000  -0.02841  -0.00667   0.00000
  53        6D+1       -0.02128   0.00000  -0.00000  -0.00000  -0.01555
  54        6D-1        0.00000  -0.01861   0.00000   0.00000   0.00000
  55        6D+2       -0.00000  -0.00000   0.00007   0.00248  -0.00000
  56        6D-2        0.00000   0.00000   0.00000   0.00000   0.00000
                          46        47        48        49        50
  46        4PY         0.28216
  47        4PZ         0.00000   0.08462
  48        5S          0.00000   0.04634   0.02670
  49        5PX         0.00000   0.00000   0.00000   0.00027
  50        5PY         0.07302  -0.00000  -0.00000   0.00000   0.02533
  51        5PZ         0.00000   0.00458   0.00182  -0.00000   0.00000
  52        6D 0       -0.00000  -0.01329  -0.00711   0.00000  -0.00000
  53        6D+1        0.00000  -0.00000  -0.00000  -0.00070   0.00000
  54        6D-1       -0.01387   0.00000   0.00000   0.00000  -0.00136
  55        6D+2       -0.00000   0.00024   0.00017   0.00000  -0.00000
  56        6D-2        0.00000   0.00000   0.00000   0.00000  -0.00000
                          51        52        53        54        55
  51        5PZ         0.00063
  52        6D 0       -0.00092   0.00303
  53        6D+1       -0.00000  -0.00000   0.00184
  54        6D-1        0.00000   0.00000   0.00000   0.00145
  55        6D+2       -0.00002   0.00007   0.00000   0.00000   0.00001
  56        6D-2        0.00000   0.00000  -0.00000  -0.00000   0.00000
                          56
  56        6D-2        0.00000
          Condensed to atoms (all electrons):
               1          2          3          4
     1  C    4.683147   0.411086   0.411086   0.406012
     2  H    0.411086   0.772634  -0.135417  -0.107559
     3  H    0.411086  -0.135417   0.772634  -0.107559
     4  O    0.406012  -0.107559  -0.107559   8.016285
 Mulliken charges:
               1
     1  C    0.088669
     2  H    0.059255
     3  H    0.059255
     4  O   -0.207180
 Sum of Mulliken charges =  -0.00000
 Mulliken charges with hydrogens summed into heavy atoms:
               1
     1  C    0.207180
     4  O   -0.207180
 Electronic spatial extent (au):  <R**2>=             54.9122
 Charge=             -0.0000 electrons
 Dipole moment (field-independent basis, Debye):
    X=             -0.0000    Y=              0.0000    Z=             -1.5544  Tot=              1.5544
 Quadrupole moment (field-independent basis, Debye-Ang):
   XX=            -11.2302   YY=            -11.9220   ZZ=            -12.8675
   XY=              0.0000   XZ=              0.0000   YZ=             -0.0000
 Traceless Quadrupole moment (field-independent basis, Debye-Ang):
   XX=              0.7763   YY=              0.0846   ZZ=             -0.8609
   XY=              0.0000   XZ=              0.0000   YZ=             -0.0000
 Octapole moment (field-independent basis, Debye-Ang**2):
  XXX=              0.0000  YYY=             -0.0000  ZZZ=              1.9422  XYY=              0.0000
  XXY=             -0.0000  XXZ=              0.9025  XZZ=              0.0000  YZZ=             -0.0000
  YYZ=              0.8048  XYZ=              0.0000
 Hexadecapole moment (field-independent basis, Debye-Ang**3):
 XXXX=             -9.6075 YYYY=            -20.8547 ZZZZ=            -41.4590 XXXY=             -0.0000
 XXXZ=             -0.0000 YYYX=             -0.0000 YYYZ=             -0.0000 ZZZX=             -0.0000
 ZZZY=              0.0000 XXYY=             -5.2562 XXZZ=             -8.3413 YYZZ=            -10.9118
 XXYZ=             -0.0000 YYXZ=             -0.0000 ZZXY=             -0.0000
 N-N= 3.506449163672D+01 E-N=-3.395578406020D+02  KE= 1.150690670779D+02
 Symmetry A1   KE= 1.043934996933D+02
 Symmetry A2   KE= 1.684707503951D-35
 Symmetry B1   KE= 3.886240643334D+00
 Symmetry B2   KE= 6.789326741265D+00
 Leave Link  601 at Fri Sep 17 10:52:36 2021, MaxMem=   268435456 cpu:               0.0 elap:               0.0
 (Enter /software/gaussian/g16-a03/l9999.exe)
 Electronic transition elements 
                 1             2             3             4             5 
      1  -0.114297D+03 -0.114240D+03 -0.114210D+03 -0.114205D+03 -0.114186D+03
      2   0.000000D+00  0.000000D+00  0.000000D+00  0.000000D+00  0.000000D+00
      3   0.000000D+00  0.613121D+00  0.341335D+00  0.000000D+00  0.000000D+00
      4   0.000000D+00  0.000000D+00  0.000000D+00 -0.542084D+00  0.000000D+00
      5   0.000000D+00  0.000000D+00  0.000000D+00  0.000000D+00  0.000000D+00
      6   0.000000D+00 -0.144248D+00 -0.950384D-01  0.000000D+00  0.000000D+00
      7   0.000000D+00  0.000000D+00  0.000000D+00  0.142116D+00  0.000000D+00
      8   0.000000D+00 -0.438469D+00  0.782116D+00  0.000000D+00  0.000000D+00
      9   0.000000D+00  0.000000D+00  0.000000D+00  0.000000D+00  0.000000D+00
     10   0.128870D+01  0.000000D+00  0.000000D+00  0.000000D+00 -0.163882D+00
     11   0.000000D+00  0.000000D+00  0.000000D+00 -0.130399D+00  0.000000D+00
     12   0.000000D+00  0.000000D+00  0.000000D+00 -0.531178D+00  0.000000D+00
     13   0.000000D+00  0.000000D+00  0.000000D+00 -0.232212D+00  0.000000D+00
     14  -0.160976D+00  0.000000D+00  0.000000D+00  0.000000D+00 -0.131235D+00
     15   0.000000D+00  0.000000D+00  0.000000D+00  0.000000D+00  0.000000D+00
     16   0.000000D+00  0.535847D+00  0.154224D+00  0.000000D+00  0.000000D+00
                 6             7             8             9            10 
      1  -0.114102D+03 -0.114079D+03 -0.114064D+03 -0.114058D+03 -0.114041D+03
      2   0.000000D+00  0.000000D+00  0.623195D-02  0.000000D+00  0.000000D+00
      3   0.932770D+00 -0.940626D-01  0.000000D+00  0.000000D+00  0.000000D+00
      4   0.000000D+00  0.000000D+00  0.000000D+00 -0.554865D-02  0.000000D+00
      5   0.000000D+00  0.000000D+00 -0.124785D-01  0.000000D+00  0.000000D+00
      6  -0.350305D+00  0.645662D-02  0.000000D+00  0.000000D+00  0.000000D+00
      7   0.000000D+00  0.000000D+00  0.000000D+00  0.103212D-01  0.000000D+00
      8  -0.914983D+00  0.757914D+00  0.000000D+00  0.000000D+00  0.000000D+00
      9   0.000000D+00  0.000000D+00 -0.137389D+01  0.000000D+00  0.000000D+00
     10   0.000000D+00  0.000000D+00  0.000000D+00  0.000000D+00 -0.363615D-01
     11   0.000000D+00  0.000000D+00  0.000000D+00  0.178160D+00  0.000000D+00
     12   0.000000D+00  0.000000D+00  0.000000D+00 -0.596263D+00  0.000000D+00
     13   0.000000D+00  0.000000D+00  0.000000D+00 -0.753393D+00  0.000000D+00
     14   0.000000D+00  0.000000D+00  0.000000D+00  0.000000D+00  0.322499D+00
     15   0.000000D+00  0.000000D+00 -0.451117D+00  0.000000D+00  0.000000D+00
     16   0.794921D+00  0.287448D+00  0.000000D+00  0.000000D+00  0.000000D+00
                11            12            13            14            15 
      1  -0.114028D+03 -0.114026D+03 -0.114020D+03 -0.114013D+03 -0.113994D+03
      2   0.000000D+00 -0.366684D+00  0.000000D+00  0.000000D+00  0.264499D+00
      3   0.000000D+00  0.000000D+00  0.000000D+00  0.000000D+00  0.000000D+00
      4   0.304510D+00  0.000000D+00  0.000000D+00 -0.616555D+00  0.000000D+00
      5   0.000000D+00  0.168995D+00  0.000000D+00  0.000000D+00 -0.136763D+00
      6   0.000000D+00  0.000000D+00  0.000000D+00  0.000000D+00  0.000000D+00
      7  -0.134030D+00  0.000000D+00  0.000000D+00  0.283661D+00  0.000000D+00
      8   0.000000D+00  0.000000D+00  0.000000D+00  0.000000D+00  0.000000D+00
      9   0.000000D+00 -0.411637D-01  0.000000D+00  0.000000D+00 -0.276040D-01
     10   0.000000D+00  0.000000D+00 -0.471523D+00  0.000000D+00  0.000000D+00
     11  -0.259165D+00  0.000000D+00  0.000000D+00 -0.662820D-01  0.000000D+00
     12  -0.292404D+00  0.000000D+00  0.000000D+00 -0.110275D+00  0.000000D+00
     13  -0.114262D+00  0.000000D+00  0.000000D+00  0.106669D+00  0.000000D+00
     14   0.000000D+00  0.000000D+00  0.195547D+00  0.000000D+00  0.000000D+00
     15   0.000000D+00 -0.448779D-01  0.000000D+00  0.000000D+00 -0.272208D+00
     16   0.000000D+00  0.000000D+00  0.000000D+00  0.000000D+00  0.000000D+00
                16            17            18            19            20 
      1  -0.113993D+03 -0.113993D+03 -0.113988D+03 -0.113980D+03 -0.113979D+03
      2   0.000000D+00  0.000000D+00  0.000000D+00  0.000000D+00  0.000000D+00
      3   0.000000D+00  0.000000D+00 -0.366509D+00  0.000000D+00 -0.347959D+00
      4   0.000000D+00  0.108017D+01  0.000000D+00  0.258566D+00  0.000000D+00
      5   0.000000D+00  0.000000D+00  0.000000D+00  0.000000D+00  0.000000D+00
      6   0.000000D+00  0.000000D+00  0.189450D+00  0.000000D+00  0.171859D+00
      7   0.000000D+00 -0.520735D+00  0.000000D+00 -0.134469D+00  0.000000D+00
      8   0.000000D+00  0.000000D+00 -0.582007D+00  0.000000D+00 -0.243486D+00
      9   0.000000D+00  0.000000D+00  0.000000D+00  0.000000D+00  0.000000D+00
     10   0.499232D-01  0.000000D+00  0.000000D+00  0.000000D+00  0.000000D+00
     11   0.000000D+00  0.457797D+00  0.000000D+00 -0.408497D+00  0.000000D+00
     12   0.000000D+00  0.777556D+00  0.000000D+00 -0.415308D+00  0.000000D+00
     13   0.000000D+00  0.692851D+00  0.000000D+00 -0.131778D+00  0.000000D+00
     14   0.253580D+00  0.000000D+00  0.000000D+00  0.000000D+00  0.000000D+00
     15   0.000000D+00  0.000000D+00  0.000000D+00  0.000000D+00  0.000000D+00
     16   0.000000D+00  0.000000D+00  0.143285D+00  0.000000D+00 -0.152161D-01
                21            22            23            24            25 
      1  -0.113959D+03 -0.113959D+03 -0.113957D+03 -0.113926D+03 -0.113918D+03
      2   0.000000D+00  0.000000D+00 -0.273778D+00  0.000000D+00 -0.287886D+00
      3   0.000000D+00 -0.518694D+00  0.000000D+00  0.209354D+00  0.000000D+00
      4  -0.588000D+00  0.000000D+00  0.000000D+00  0.000000D+00  0.000000D+00
      5   0.000000D+00  0.000000D+00  0.136187D+00  0.000000D+00  0.178997D+00
      6   0.000000D+00  0.267147D+00  0.000000D+00 -0.119708D+00  0.000000D+00
      7   0.308602D+00  0.000000D+00  0.000000D+00  0.000000D+00  0.000000D+00
      8   0.000000D+00  0.273496D+00  0.000000D+00 -0.175276D+00  0.000000D+00
      9   0.000000D+00  0.000000D+00  0.598378D+00  0.000000D+00 -0.450092D+00
     10   0.000000D+00  0.000000D+00  0.000000D+00  0.000000D+00  0.000000D+00
     11   0.439162D+00  0.000000D+00  0.000000D+00  0.000000D+00  0.000000D+00
     12  -0.387540D+00  0.000000D+00  0.000000D+00  0.000000D+00  0.000000D+00
     13  -0.463531D-01  0.000000D+00  0.000000D+00  0.000000D+00  0.000000D+00
     14   0.000000D+00  0.000000D+00  0.000000D+00  0.000000D+00  0.000000D+00
     15   0.000000D+00  0.000000D+00  0.218506D+00  0.000000D+00 -0.273620D+00
     16   0.000000D+00 -0.389161D+00  0.000000D+00 -0.351211D+00  0.000000D+00
                26            27            28            29            30 
      1  -0.113916D+03 -0.113909D+03 -0.113905D+03 -0.113893D+03 -0.113891D+03
      2   0.000000D+00  0.000000D+00  0.000000D+00  0.679044D+00  0.000000D+00
      3   0.000000D+00 -0.245150D+00  0.000000D+00  0.000000D+00  0.000000D+00
      4  -0.260883D+00  0.000000D+00  0.000000D+00  0.000000D+00  0.535991D-01
      5   0.000000D+00  0.000000D+00  0.000000D+00 -0.391824D+00  0.000000D+00
      6   0.000000D+00  0.136252D+00  0.000000D+00  0.000000D+00  0.000000D+00
      7   0.152599D+00  0.000000D+00  0.000000D+00  0.000000D+00 -0.343284D-01
      8   0.000000D+00  0.103291D+01  0.000000D+00  0.000000D+00  0.000000D+00
      9   0.000000D+00  0.000000D+00  0.000000D+00  0.270312D+00  0.000000D+00
     10   0.000000D+00  0.000000D+00  0.778217D-01  0.000000D+00  0.000000D+00
     11   0.267819D+00  0.000000D+00  0.000000D+00  0.000000D+00 -0.295164D+00
     12   0.643606D+00  0.000000D+00  0.000000D+00  0.000000D+00  0.296688D+00
     13  -0.572212D-02  0.000000D+00  0.000000D+00  0.000000D+00 -0.187123D+00
     14   0.000000D+00  0.000000D+00  0.277765D+00  0.000000D+00  0.000000D+00
     15   0.000000D+00  0.000000D+00  0.000000D+00  0.438487D+00  0.000000D+00
     16   0.000000D+00 -0.658006D-01  0.000000D+00  0.000000D+00  0.000000D+00

 Test job not archived.
 1\1\GINC-BHD0009\SP\RB3LYP TD-FC\6-311+G(d,p)\C1H2O1\BWEIGHT\17-Sep-20
 21\0\\#p B3LYP/6-311+G** #p TD=(singlets,nstates=30)IOp(6/8=3) IOp(9/4
 0=4)\\Scan Step 107, Bond Length 1.0350000000000001\\0,1\C,0,0.,0.,-0.
 52736\H,0,0.,0.93726,-1.11871\H,0,0.,-0.93726,-1.11871\O,0,0.,0.,0.507
 64\\Version=ES64L-G16RevA.03\State=1-A1\HF=-114.4775976\RMSD=2.602e-09
 \PG=C02V [C2(C1O1),SGV(H2)]\\@


 THE WISE MAN HAS THE POWER TO REASON AWAY
 WHAT A FOOL BELIEVES.
                     - DOOBIE BROTHERS
 Job cpu time:       0 days  0 hours  0 minutes 26.8 seconds.
 Elapsed time:       0 days  0 hours  0 minutes 27.5 seconds.
 File lengths (MBytes):  RWF=     79 Int=      0 D2E=      0 Chk=     32 Scr=      1
 Normal termination of Gaussian 16 at Fri Sep 17 10:52:36 2021.
