 Entering Gaussian System, Link 0=g16
 Initial command:
 /software/gaussian/g16-a03/l1.exe "/local_scratch/6484884/Gau-1240.inp" -scrdir="/local_scratch/6484884/"
 Entering Link 1 = /software/gaussian/g16-a03/l1.exe PID=      1267.
  
 Copyright (c) 1988,1990,1992,1993,1995,1998,2003,2009,2016,
            Gaussian, Inc.  All Rights Reserved.
  
 This is part of the Gaussian(R) 16 program.  It is based on
 the Gaussian(R) 09 system (copyright 2009, Gaussian, Inc.),
 the Gaussian(R) 03 system (copyright 2003, Gaussian, Inc.),
 the Gaussian(R) 98 system (copyright 1998, Gaussian, Inc.),
 the Gaussian(R) 94 system (copyright 1995, Gaussian, Inc.),
 the Gaussian 92(TM) system (copyright 1992, Gaussian, Inc.),
 the Gaussian 90(TM) system (copyright 1990, Gaussian, Inc.),
 the Gaussian 88(TM) system (copyright 1988, Gaussian, Inc.),
 the Gaussian 86(TM) system (copyright 1986, Carnegie Mellon
 University), and the Gaussian 82(TM) system (copyright 1983,
 Carnegie Mellon University). Gaussian is a federally registered
 trademark of Gaussian, Inc.
  
 This software contains proprietary and confidential information,
 including trade secrets, belonging to Gaussian, Inc.
  
 This software is provided under written license and may be
 used, copied, transmitted, or stored only in accord with that
 written license.
  
 The following legend is applicable only to US Government
 contracts under FAR:
  
                    RESTRICTED RIGHTS LEGEND
  
 Use, reproduction and disclosure by the US Government is
 subject to restrictions as set forth in subparagraphs (a)
 and (c) of the Commercial Computer Software - Restricted
 Rights clause in FAR 52.227-19.
  
 Gaussian, Inc.
 340 Quinnipiac St., Bldg. 40, Wallingford CT 06492
  
  
 ---------------------------------------------------------------
 Warning -- This program may not be used in any manner that
 competes with the business of Gaussian, Inc. or will provide
 assistance to any competitor of Gaussian, Inc.  The licensee
 of this program is prohibited from giving any competitor of
 Gaussian, Inc. access to this program.  By using this program,
 the user acknowledges that Gaussian, Inc. is engaged in the
 business of creating and licensing software in the field of
 computational chemistry and represents and warrants to the
 licensee that it is not a competitor of Gaussian, Inc. and that
 it will not use this program in any manner prohibited above.
 ---------------------------------------------------------------
  

 Cite this work as:
 Gaussian 16, Revision A.03,
 M. J. Frisch, G. W. Trucks, H. B. Schlegel, G. E. Scuseria, 
 M. A. Robb, J. R. Cheeseman, G. Scalmani, V. Barone, 
 G. A. Petersson, H. Nakatsuji, X. Li, M. Caricato, A. V. Marenich, 
 J. Bloino, B. G. Janesko, R. Gomperts, B. Mennucci, H. P. Hratchian, 
 J. V. Ortiz, A. F. Izmaylov, J. L. Sonnenberg, D. Williams-Young, 
 F. Ding, F. Lipparini, F. Egidi, J. Goings, B. Peng, A. Petrone, 
 T. Henderson, D. Ranasinghe, V. G. Zakrzewski, J. Gao, N. Rega, 
 G. Zheng, W. Liang, M. Hada, M. Ehara, K. Toyota, R. Fukuda, 
 J. Hasegawa, M. Ishida, T. Nakajima, Y. Honda, O. Kitao, H. Nakai, 
 T. Vreven, K. Throssell, J. A. Montgomery, Jr., J. E. Peralta, 
 F. Ogliaro, M. J. Bearpark, J. J. Heyd, E. N. Brothers, K. N. Kudin, 
 V. N. Staroverov, T. A. Keith, R. Kobayashi, J. Normand, 
 K. Raghavachari, A. P. Rendell, J. C. Burant, S. S. Iyengar, 
 J. Tomasi, M. Cossi, J. M. Millam, M. Klene, C. Adamo, R. Cammi, 
 J. W. Ochterski, R. L. Martin, K. Morokuma, O. Farkas, 
 J. B. Foresman, and D. J. Fox, Gaussian, Inc., Wallingford CT, 2016.
 
 ******************************************
 Gaussian 16:  ES64L-G16RevA.03 25-Dec-2016
                17-Sep-2021 
 ******************************************
 %chk=geometry.chk
 %mem=2GB
 %nprocshared=1
 Will use up to    1 processors via shared memory.
 --------------------------------------------------------------------
 #p B3LYP/6-311+G** #p TD=(singlets,nstates=30)IOp(6/8=3) IOp(9/40=4)
 --------------------------------------------------------------------
 1/38=1,172=1/1;
 2/12=2,17=6,18=5,40=1/2;
 3/5=4,6=6,7=111,11=9,25=1,30=1,74=-5/1,2,3,8;
 4//1;
 5/5=2,38=5/2;
 8/6=1,10=2,108=30/1;
 9/40=4,41=30,42=1,48=1,70=2/14;
 6/7=2,8=3,9=2,10=2/1;
 99/5=1,9=1/99;
 Leave Link    1 at Fri Sep 17 10:52:18 2021, MaxMem=   268435456 cpu:               0.0 elap:               0.4
 (Enter /software/gaussian/g16-a03/l101.exe)
 ---------------------------------------------
 Scan Step 153, Bond Length 1.2650000000000001
 ---------------------------------------------
 Symbolic Z-matrix:
 Charge =  0 Multiplicity = 1
 C                     0.        0.       -0.52736 
 H                     0.        0.93726  -1.11871 
 H                     0.       -0.93726  -1.11871 
 O                     0.        0.        0.73764 
 
 ITRead=  0  0  0  0
 MicOpt= -1 -1 -1 -1
 NAtoms=      4 NQM=        4 NQMF=       0 NMMI=      0 NMMIF=      0
                NMic=       0 NMicF=      0.
                    Isotopes and Nuclear Properties:
 (Nuclear quadrupole moments (NQMom) in fm**2, nuclear magnetic moments (NMagM)
  in nuclear magnetons)

  Atom         1           2           3           4
 IAtWgt=          12           1           1          16
 AtmWgt=  12.0000000   1.0078250   1.0078250  15.9949146
 NucSpn=           0           1           1           0
 AtZEff=  -0.0000000  -0.0000000  -0.0000000  -0.0000000
 NQMom=    0.0000000   0.0000000   0.0000000   0.0000000
 NMagM=    0.0000000   2.7928460   2.7928460   0.0000000
 AtZNuc=   6.0000000   1.0000000   1.0000000   8.0000000
 Leave Link  101 at Fri Sep 17 10:52:18 2021, MaxMem=   268435456 cpu:               0.1 elap:               0.1
 (Enter /software/gaussian/g16-a03/l202.exe)
                          Input orientation:                          
 ---------------------------------------------------------------------
 Center     Atomic      Atomic             Coordinates (Angstroms)
 Number     Number       Type             X           Y           Z
 ---------------------------------------------------------------------
      1          6           0        0.000000    0.000000   -0.527360
      2          1           0        0.000000    0.937260   -1.118710
      3          1           0        0.000000   -0.937260   -1.118710
      4          8           0        0.000000    0.000000    0.737640
 ---------------------------------------------------------------------
                    Distance matrix (angstroms):
                    1          2          3          4
     1  C    0.000000
     2  H    1.108220   0.000000
     3  H    1.108220   1.874520   0.000000
     4  O    1.265000   2.079541   2.079541   0.000000
 Stoichiometry    CH2O
 Framework group  C2V[C2(CO),SGV(H2)]
 Deg. of freedom     3
 Full point group                 C2V     NOp   4
 Largest Abelian subgroup         C2V     NOp   4
 Largest concise Abelian subgroup C2      NOp   2
                         Standard orientation:                         
 ---------------------------------------------------------------------
 Center     Atomic      Atomic             Coordinates (Angstroms)
 Number     Number       Type             X           Y           Z
 ---------------------------------------------------------------------
      1          6           0        0.000000   -0.000000   -0.558581
      2          1           0        0.000000    0.937260   -1.149931
      3          1           0       -0.000000   -0.937260   -1.149931
      4          8           0        0.000000    0.000000    0.706419
 ---------------------------------------------------------------------
 Rotational constants (GHZ):         285.4183527          35.5438157          31.6076420
 Leave Link  202 at Fri Sep 17 10:52:18 2021, MaxMem=   268435456 cpu:               0.0 elap:               0.0
 (Enter /software/gaussian/g16-a03/l301.exe)
 Standard basis: 6-311+G(d,p) (5D, 7F)
 Ernie: Thresh=  0.10000D-02 Tol=  0.10000D-05 Strict=F.
 There are    29 symmetry adapted cartesian basis functions of A1  symmetry.
 There are     3 symmetry adapted cartesian basis functions of A2  symmetry.
 There are    11 symmetry adapted cartesian basis functions of B1  symmetry.
 There are    15 symmetry adapted cartesian basis functions of B2  symmetry.
 There are    27 symmetry adapted basis functions of A1  symmetry.
 There are     3 symmetry adapted basis functions of A2  symmetry.
 There are    11 symmetry adapted basis functions of B1  symmetry.
 There are    15 symmetry adapted basis functions of B2  symmetry.
    56 basis functions,    88 primitive gaussians,    58 cartesian basis functions
     8 alpha electrons        8 beta electrons
       nuclear repulsion energy        30.1632680118 Hartrees.
 IExCor=  402 DFT=T Ex+Corr=B3LYP ExCW=0 ScaHFX=  0.200000
 ScaDFX=  0.800000  0.720000  1.000000  0.810000 ScalE2=  1.000000  1.000000
 IRadAn=      5 IRanWt=     -1 IRanGd=            0 ICorTp=0 IEmpDi=  4
 NAtoms=    4 NActive=    4 NUniq=    3 SFac= 1.78D+00 NAtFMM=   60 NAOKFM=F Big=F
 Integral buffers will be    131072 words long.
 Regular integral format.
 Two-electron integral symmetry is turned on.
 Leave Link  301 at Fri Sep 17 10:52:18 2021, MaxMem=   268435456 cpu:               0.1 elap:               0.1
 (Enter /software/gaussian/g16-a03/l302.exe)
 NPDir=0 NMtPBC=     1 NCelOv=     1 NCel=       1 NClECP=     1 NCelD=      1
         NCelK=      1 NCelE2=     1 NClLst=     1 CellRange=     0.0.
 One-electron integrals computed using PRISM.
 One-electron integral symmetry used in STVInt
 NBasis=    56 RedAO= T EigKep=  4.76D-03  NBF=    27     3    11    15
 NBsUse=    56 1.00D-06 EigRej= -1.00D+00 NBFU=    27     3    11    15
 Precomputing XC quadrature grid using
 IXCGrd= 4 IRadAn=           5 IRanWt=          -1 IRanGd=           0 AccXCQ= 0.00D+00.
 Generated NRdTot=       0 NPtTot=           0 NUsed=           0 NTot=          32
 NSgBfM=    58    58    58    58    58 MxSgAt=     4 MxSgA2=     4.
 Leave Link  302 at Fri Sep 17 10:52:18 2021, MaxMem=   268435456 cpu:               0.1 elap:               0.1
 (Enter /software/gaussian/g16-a03/l303.exe)
 DipDrv:  MaxL=1.
 Leave Link  303 at Fri Sep 17 10:52:18 2021, MaxMem=   268435456 cpu:               0.0 elap:               0.0
 (Enter /software/gaussian/g16-a03/l308.exe)
 Leave Link  308 at Fri Sep 17 10:52:18 2021, MaxMem=   268435456 cpu:               0.0 elap:               0.0
 (Enter /software/gaussian/g16-a03/l401.exe)
 ExpMin= 4.38D-02 ExpMax= 8.59D+03 ExpMxC= 1.30D+03 IAcc=3 IRadAn=         5 AccDes= 0.00D+00
 Harris functional with IExCor=  402 and IRadAn=       5 diagonalized for initial guess.
 HarFok:  IExCor=  402 AccDes= 0.00D+00 IRadAn=         5 IDoV= 1 UseB2=F ITyADJ=14
 ICtDFT=  3500011 ScaDFX=  1.000000  1.000000  1.000000  1.000000
 FoFCou: FMM=F IPFlag=           0 FMFlag=      100000 FMFlg1=           0
         NFxFlg=           0 DoJE=T BraDBF=F KetDBF=T FulRan=T
         wScrn=  0.000000 ICntrl=       500 IOpCl=  0 I1Cent=   200000004 NGrid=           0
         NMat0=    1 NMatS0=      1 NMatT0=    0 NMatD0=    1 NMtDS0=    0 NMtDT0=    0
 Petite list used in FoFCou.
 Harris En= -114.545596619464    
 JPrj=0 DoOrth=F DoCkMO=F.
 Initial guess orbital symmetries:
       Occupied  (A1) (A1) (A1) (A1) (B2) (A1) (B1) (B2)
       Virtual   (B1) (A1) (A1) (B2) (B1) (A1) (B2) (A1) (B1) (B2)
                 (A1) (A1) (A1) (B2) (B1) (A1) (B2) (A1) (A1) (A2)
                 (B1) (B2) (B1) (A1) (B2) (A1) (B2) (A1) (B1) (A2)
                 (A1) (B2) (A1) (B2) (B1) (A1) (A2) (A1) (A1) (B1)
                 (B2) (B2) (A1) (B1) (B2) (A1) (A1) (A1)
 The electronic state of the initial guess is 1-A1.
 Leave Link  401 at Fri Sep 17 10:52:19 2021, MaxMem=   268435456 cpu:               0.3 elap:               0.3
 (Enter /software/gaussian/g16-a03/l502.exe)
 Keep R1 ints in memory in symmetry-blocked form, NReq=2159909.
 FoFCou: FMM=F IPFlag=           0 FMFlag=           0 FMFlg1=           0
         NFxFlg=           0 DoJE=F BraDBF=F KetDBF=F FulRan=T
         wScrn=  0.000000 ICntrl=       600 IOpCl=  0 I1Cent=           0 NGrid=           0
         NMat0=    1 NMatS0=   1596 NMatT0=    0 NMatD0=    1 NMtDS0=    0 NMtDT0=    0
 Petite list used in FoFCou.
 Closed shell SCF:
 Using DIIS extrapolation, IDIIS=  1040.
 NGot=   268435456 LenX=   268074384 LenY=   268070579
 Requested convergence on RMS density matrix=1.00D-08 within 128 cycles.
 Requested convergence on MAX density matrix=1.00D-06.
 Requested convergence on             energy=1.00D-06.
 No special actions if energy rises.

 Cycle   1  Pass 1  IDiag  1:
 E= -114.482412291029    
 DIIS: error= 4.50D-02 at cycle   1 NSaved=   1.
 NSaved= 1 IEnMin= 1 EnMin= -114.482412291029     IErMin= 1 ErrMin= 4.50D-02
 ErrMax= 4.50D-02  0.00D+00 EMaxC= 1.00D-01 BMatC= 7.48D-02 BMatP= 7.48D-02
 IDIUse=3 WtCom= 5.50D-01 WtEn= 4.50D-01
 Coeff-Com:  0.100D+01
 Coeff-En:   0.100D+01
 Coeff:      0.100D+01
 Gap=     0.137 Goal=   None    Shift=    0.000
 GapD=    0.137 DampG=1.000 DampE=0.500 DampFc=0.5000 IDamp=-1.
 Damping current iteration by 5.00D-01
 RMSDP=1.04D-02 MaxDP=8.86D-02              OVMax= 3.25D-01

 Cycle   2  Pass 1  IDiag  1:
 E= -114.466233469135     Delta-E=        0.016178821895 Rises=F Damp=T
 DIIS: error= 3.72D-02 at cycle   2 NSaved=   2.
 NSaved= 2 IEnMin= 1 EnMin= -114.482412291029     IErMin= 2 ErrMin= 3.72D-02
 ErrMax= 3.72D-02  0.00D+00 EMaxC= 1.00D-01 BMatC= 3.46D-02 BMatP= 7.48D-02
 IDIUse=3 WtCom= 6.28D-01 WtEn= 3.72D-01
 Coeff-Com:  0.391D+00 0.609D+00
 Coeff-En:   0.583D+00 0.417D+00
 Coeff:      0.462D+00 0.538D+00
 Gap=     0.194 Goal=   None    Shift=    0.000
 RMSDP=2.18D-03 MaxDP=2.74D-02 DE= 1.62D-02 OVMax= 2.34D-01

 Cycle   3  Pass 1  IDiag  1:
 E= -114.533997995573     Delta-E=       -0.067764526439 Rises=F Damp=F
 DIIS: error= 8.61D-03 at cycle   3 NSaved=   3.
 NSaved= 3 IEnMin= 3 EnMin= -114.533997995573     IErMin= 3 ErrMin= 8.61D-03
 ErrMax= 8.61D-03  0.00D+00 EMaxC= 1.00D-01 BMatC= 2.44D-03 BMatP= 3.46D-02
 IDIUse=3 WtCom= 9.14D-01 WtEn= 8.61D-02
 Coeff-Com:  0.160D+00 0.167D+00 0.674D+00
 Coeff-En:   0.000D+00 0.000D+00 0.100D+01
 Coeff:      0.146D+00 0.152D+00 0.702D+00
 Gap=     0.203 Goal=   None    Shift=    0.000
 RMSDP=8.17D-04 MaxDP=1.72D-02 DE=-6.78D-02 OVMax= 1.78D-02

 Cycle   4  Pass 1  IDiag  1:
 E= -114.535914024638     Delta-E=       -0.001916029064 Rises=F Damp=F
 DIIS: error= 3.55D-03 at cycle   4 NSaved=   4.
 NSaved= 4 IEnMin= 4 EnMin= -114.535914024638     IErMin= 4 ErrMin= 3.55D-03
 ErrMax= 3.55D-03  0.00D+00 EMaxC= 1.00D-01 BMatC= 3.33D-04 BMatP= 2.44D-03
 IDIUse=3 WtCom= 9.64D-01 WtEn= 3.55D-02
 Coeff-Com:  0.239D-01-0.125D-02 0.295D+00 0.682D+00
 Coeff-En:   0.000D+00 0.000D+00 0.138D-01 0.986D+00
 Coeff:      0.231D-01-0.121D-02 0.285D+00 0.693D+00
 Gap=     0.205 Goal=   None    Shift=    0.000
 RMSDP=2.27D-04 MaxDP=5.23D-03 DE=-1.92D-03 OVMax= 5.86D-03

 Cycle   5  Pass 1  IDiag  1:
 E= -114.536224857842     Delta-E=       -0.000310833205 Rises=F Damp=F
 DIIS: error= 4.49D-04 at cycle   5 NSaved=   5.
 NSaved= 5 IEnMin= 5 EnMin= -114.536224857842     IErMin= 5 ErrMin= 4.49D-04
 ErrMax= 4.49D-04  0.00D+00 EMaxC= 1.00D-01 BMatC= 6.20D-06 BMatP= 3.33D-04
 IDIUse=3 WtCom= 9.96D-01 WtEn= 4.49D-03
 Coeff-Com:  0.373D-02-0.989D-02 0.536D-01 0.175D+00 0.778D+00
 Coeff-En:   0.000D+00 0.000D+00 0.000D+00 0.000D+00 0.100D+01
 Coeff:      0.372D-02-0.984D-02 0.533D-01 0.174D+00 0.779D+00
 Gap=     0.205 Goal=   None    Shift=    0.000
 RMSDP=3.04D-05 MaxDP=2.16D-04 DE=-3.11D-04 OVMax= 6.97D-04

 Cycle   6  Pass 1  IDiag  1:
 E= -114.536230087151     Delta-E=       -0.000005229309 Rises=F Damp=F
 DIIS: error= 6.20D-05 at cycle   6 NSaved=   6.
 NSaved= 6 IEnMin= 6 EnMin= -114.536230087151     IErMin= 6 ErrMin= 6.20D-05
 ErrMax= 6.20D-05  0.00D+00 EMaxC= 1.00D-01 BMatC= 1.07D-07 BMatP= 6.20D-06
 IDIUse=1 WtCom= 1.00D+00 WtEn= 0.00D+00
 Coeff-Com:  0.380D-03-0.108D-02-0.275D-03-0.354D-02-0.150D-01 0.102D+01
 Coeff:      0.380D-03-0.108D-02-0.275D-03-0.354D-02-0.150D-01 0.102D+01
 Gap=     0.205 Goal=   None    Shift=    0.000
 RMSDP=5.35D-06 MaxDP=4.90D-05 DE=-5.23D-06 OVMax= 9.87D-05

 Cycle   7  Pass 1  IDiag  1:
 E= -114.536230176191     Delta-E=       -0.000000089040 Rises=F Damp=F
 DIIS: error= 2.29D-06 at cycle   7 NSaved=   7.
 NSaved= 7 IEnMin= 7 EnMin= -114.536230176191     IErMin= 7 ErrMin= 2.29D-06
 ErrMax= 2.29D-06  0.00D+00 EMaxC= 1.00D-01 BMatC= 3.17D-10 BMatP= 1.07D-07
 IDIUse=1 WtCom= 1.00D+00 WtEn= 0.00D+00
 Coeff-Com:  0.192D-04-0.240D-04-0.167D-03-0.155D-02-0.887D-02 0.687D-01
 Coeff-Com:  0.942D+00
 Coeff:      0.192D-04-0.240D-04-0.167D-03-0.155D-02-0.887D-02 0.687D-01
 Coeff:      0.942D+00
 Gap=     0.205 Goal=   None    Shift=    0.000
 RMSDP=2.08D-07 MaxDP=3.74D-06 DE=-8.90D-08 OVMax= 5.36D-06

 Cycle   8  Pass 1  IDiag  1:
 E= -114.536230176416     Delta-E=       -0.000000000225 Rises=F Damp=F
 DIIS: error= 1.42D-06 at cycle   8 NSaved=   8.
 NSaved= 8 IEnMin= 8 EnMin= -114.536230176416     IErMin= 8 ErrMin= 1.42D-06
 ErrMax= 1.42D-06  0.00D+00 EMaxC= 1.00D-01 BMatC= 5.65D-11 BMatP= 3.17D-10
 IDIUse=1 WtCom= 1.00D+00 WtEn= 0.00D+00
 Coeff-Com:  0.512D-05-0.321D-05 0.151D-04-0.940D-04-0.228D-03-0.161D-01
 Coeff-Com:  0.631D-01 0.953D+00
 Coeff:      0.512D-05-0.321D-05 0.151D-04-0.940D-04-0.228D-03-0.161D-01
 Coeff:      0.631D-01 0.953D+00
 Gap=     0.205 Goal=   None    Shift=    0.000
 RMSDP=1.17D-07 MaxDP=9.47D-07 DE=-2.25D-10 OVMax= 2.30D-06

 Cycle   9  Pass 1  IDiag  1:
 E= -114.536230176464     Delta-E=       -0.000000000048 Rises=F Damp=F
 DIIS: error= 6.75D-08 at cycle   9 NSaved=   9.
 NSaved= 9 IEnMin= 9 EnMin= -114.536230176464     IErMin= 9 ErrMin= 6.75D-08
 ErrMax= 6.75D-08  0.00D+00 EMaxC= 1.00D-01 BMatC= 2.18D-13 BMatP= 5.65D-11
 IDIUse=1 WtCom= 1.00D+00 WtEn= 0.00D+00
 Coeff-Com:  0.862D-06-0.858D-06 0.320D-05 0.102D-06 0.799D-04-0.279D-02
 Coeff-Com: -0.246D-02 0.100D+00 0.905D+00
 Coeff:      0.862D-06-0.858D-06 0.320D-05 0.102D-06 0.799D-04-0.279D-02
 Coeff:     -0.246D-02 0.100D+00 0.905D+00
 Gap=     0.205 Goal=   None    Shift=    0.000
 RMSDP=4.13D-09 MaxDP=6.55D-08 DE=-4.76D-11 OVMax= 9.18D-08

 SCF Done:  E(RB3LYP) =  -114.536230176     A.U. after    9 cycles
            NFock=  9  Conv=0.41D-08     -V/T= 2.0054
 KE= 1.139167102328D+02 PE=-3.292274063348D+02 EE= 7.061119791376D+01
 Leave Link  502 at Fri Sep 17 10:52:21 2021, MaxMem=   268435456 cpu:               1.6 elap:               2.0
 (Enter /software/gaussian/g16-a03/l801.exe)
 DoSCS=F DFT=T ScalE2(SS,OS)=  1.000000  1.000000
 ExpMin= 4.38D-02 ExpMax= 8.59D+03 ExpMxC= 1.30D+03 IAcc=3 IRadAn=         5 AccDes= 0.00D+00
 HarFok:  IExCor=  205 AccDes= 0.00D+00 IRadAn=         5 IDoV=-2 UseB2=F ITyADJ=14
 ICtDFT= 12500011 ScaDFX=  1.000000  1.000000  1.000000  1.000000
 Largest valence mixing into a core orbital is  4.84D-05
 Largest core mixing into a valence orbital is  1.02D-05
 Range of M.O.s used for correlation:     3    56
 NBasis=    56 NAE=     8 NBE=     8 NFC=     2 NFV=     0
 NROrb=     54 NOA=     6 NOB=     6 NVA=    48 NVB=    48
 Leave Link  801 at Fri Sep 17 10:52:21 2021, MaxMem=   268435456 cpu:               0.2 elap:               0.2
 (Enter /software/gaussian/g16-a03/l914.exe)
 RHF ground state
 Keep R1, R2, and R3 ints in memory in symmetry-blocked form, NReq=6042848.
 FoFCou: FMM=F IPFlag=           0 FMFlag=           0 FMFlg1=           0
         NFxFlg=           0 DoJE=F BraDBF=F KetDBF=F FulRan=T
         wScrn=  0.000000 ICntrl=       600 IOpCl=  0 I1Cent=           0 NGrid=           0
         NMat0=    1 NMatS0=   1596 NMatT0=    0 NMatD0=    1 NMtDS0=    0 NMtDT0=    0
 Petite list used in FoFCou.
 MDV=   268435456 DFT=T DoStab=F Mixed=T DoRPA=T DoScal=F NonHer=T
 Making orbital integer symmetry assigments:
 Orbital symmetries:
       Occupied  (A1) (A1) (A1) (A1) (B2) (A1) (B1) (B2)
       Virtual   (B1) (A1) (A1) (B2) (B1) (A1) (B2) (A1) (B1) (B2)
                 (A1) (A1) (A1) (B2) (B1) (A1) (B2) (A1) (A2) (A1)
                 (B1) (B2) (B1) (A1) (B2) (A1) (B2) (A1) (B1) (A2)
                 (A1) (B2) (A1) (B2) (A1) (B1) (A2) (A1) (A1) (B1)
                 (B2) (B2) (A1) (B1) (B2) (A1) (A1) (A1)
   120 initial guesses have been made.
 Convergence on wavefunction:    0.001000000000000
 Davidson Disk Diagonalization:  ConvIn= 1.00D-03 SkipCon=T Conv= 1.00D-03.
 Max sub-space:  1728 roots to seek:   120 dimension of matrix:          576
 Iteration     1 Dimension   120 NMult     0 NNew    120
 CISAX will form   120 AO SS matrices at one time.
 NMat=   120 NSing=   120 JSym2X=-1.
 New state      3 was old state      4
 New state      4 was old state      5
 New state      5 was old state      6
 New state      6 was old state      7
 New state      7 was old state      3
 New state      8 was old state     10
 New state      9 was old state      8
 New state     10 was old state      9
 New state     13 was old state     16
 New state     14 was old state     15
 New state     15 was old state     14
 New state     16 was old state     13
 New state     17 was old state     19
 New state     18 was old state     17
 New state     19 was old state     18
 New state     21 was old state     23
 New state     22 was old state     21
 New state     23 was old state     22
 New state     24 was old state     26
 New state     25 was old state     24
 New state     26 was old state     25
 New state     27 was old state     28
 New state     28 was old state     27
 New state     29 was old state     30
 New state     30 was old state     31
 Excitation Energies [eV] at current iteration:
 Root      1 :     3.606342277143412
 Root      2 :     6.920890296229620
 Root      3 :     7.687942204389782
 Root      4 :     7.927760935919046
 Root      5 :     8.443970771266510
 Root      6 :     8.453768781483086
 Root      7 :     8.757955062738368
 Root      8 :     9.482136512097075
 Root      9 :     9.882834902999598
 Root     10 :    10.318384747475250
 Root     11 :    10.734221253896920
 Root     12 :    10.868342858450820
 Root     13 :    11.499131996776360
 Root     14 :    11.543479631459800
 Root     15 :    11.605055951493920
 Root     16 :    12.194232181134880
 Root     17 :    12.342864023113330
 Root     18 :    12.443128796697520
 Root     19 :    12.599840763127480
 Root     20 :    12.656393133745850
 Root     21 :    13.014780851191410
 Root     22 :    13.072113525226410
 Root     23 :    13.127723696236910
 Root     24 :    13.423864418450690
 Root     25 :    13.589330984433930
 Root     26 :    13.972466215532040
 Root     27 :    14.037504667563640
 Root     28 :    14.185065584973980
 Root     29 :    14.470148102527750
 Root     30 :    14.784843891401410
 Root     31 :    14.914242015689360
 Root     32 :    15.346987060621620
 Root     33 :    15.645998226601950
 Root     34 :    15.781798748744020
 Root     35 :    15.836581684039360
 Root     36 :    16.200894178298740
 Root     37 :    16.491642785648770
 Root     38 :    16.633801955769940
 Root     39 :    16.986106754521030
 Root     40 :    16.998180273656920
 Root     41 :    17.473501758827190
 Root     42 :    17.518034072719710
 Root     43 :    17.657310089063830
 Root     44 :    17.857731451364170
 Root     45 :    17.888576090073560
 Root     46 :    18.000884146316550
 Root     47 :    18.241435213028030
 Root     48 :    18.395486093093930
 Root     49 :    18.571014591957400
 Root     50 :    18.610795984481480
 Root     51 :    19.139230716402260
 Root     52 :    19.226353739481380
 Root     53 :    19.479337789614830
 Root     54 :    20.054629479192070
 Root     55 :    20.504144863958350
 Root     56 :    20.882481148545170
 Root     57 :    21.134060095187600
 Root     58 :    21.392212260656330
 Root     59 :    21.425240494115220
 Root     60 :    21.545119997228430
 Root     61 :    21.923486654397050
 Root     62 :    22.297133055146770
 Root     63 :    22.710959749980400
 Root     64 :    22.918592555409220
 Root     65 :    23.136598985095580
 Root     66 :    23.445438720359090
 Root     67 :    23.553334929737670
 Root     68 :    23.812497882869720
 Root     69 :    24.149430719707610
 Root     70 :    24.674148757600020
 Root     71 :    24.733152811574200
 Root     72 :    24.810408186180380
 Root     73 :    25.109764262792610
 Root     74 :    25.243122250321810
 Root     75 :    25.528211494415110
 Root     76 :    25.655343540004210
 Root     77 :    25.757836837426200
 Root     78 :    27.298177517029640
 Root     79 :    27.517034013637180
 Root     80 :    27.548472628531400
 Root     81 :    27.655223679343870
 Root     82 :    27.845175760096890
 Root     83 :    28.550565432922510
 Root     84 :    28.590139201388580
 Root     85 :    28.761108405562850
 Root     86 :    29.133707241373350
 Root     87 :    29.354990214056960
 Root     88 :    29.990427415322450
 Root     89 :    30.028449532104180
 Root     90 :    30.294766388899280
 Root     91 :    30.714096637610490
 Root     92 :    31.925408917449540
 Root     93 :    32.245803598001120
 Root     94 :    32.722843227887230
 Root     95 :    32.971110190389350
 Root     96 :    33.143748866663070
 Root     97 :    33.216996326949080
 Root     98 :    33.313153754808200
 Root     99 :    33.500559063676200
 Root    100 :    33.663083401634440
 Root    101 :    33.749245496631560
 Root    102 :    33.932820405036370
 Root    103 :    34.579359451084850
 Root    104 :    35.727640495840210
 Root    105 :    36.085128110716700
 Root    106 :    36.308075706844020
 Root    107 :    36.785029130160250
 Root    108 :    37.638750651978020
 Root    109 :    37.822634248366730
 Root    110 :    38.128246371624930
 Root    111 :    38.367059302717240
 Root    112 :    38.594179098098620
 Root    113 :    39.286511341157970
 Root    114 :    39.318779075928620
 Root    115 :    39.699329239389310
 Root    116 :    39.724700608527800
 Root    117 :    39.915518756182980
 Root    118 :    40.298916801345000
 Root    119 :    40.399446720533870
 Root    120 :    45.114849795289120
 Iteration     2 Dimension   180 NMult   120 NNew     60
 CISAX will form    60 AO SS matrices at one time.
 NMat=    60 NSing=    60 JSym2X=-1.
 Root      1 not converged, maximum delta is    0.005394095799564
 Root      2 not converged, maximum delta is    0.001986280141936
 Root      3 not converged, maximum delta is    0.004096904947012
 Root      4 not converged, maximum delta is    0.006298376732764
 New state      5 was old state      6
 Root      5 not converged, maximum delta is    0.012743577149335
 New state      6 was old state      5
 Root      6 not converged, maximum delta is    0.001251123465867
 Root      7 not converged, maximum delta is    0.018183659128145
 Root      8 not converged, maximum delta is    0.010344437714355
 Root      9 not converged, maximum delta is    0.001984106863185
 Root     10 not converged, maximum delta is    0.003523489405522
 Root     11 not converged, maximum delta is    0.004931470940989
 Root     12 not converged, maximum delta is    0.001845127583014
 Root     13 not converged, maximum delta is    0.002016227296186
 Root     14 not converged, maximum delta is    0.019280554762241
 Root     15 not converged, maximum delta is    0.021298408837606
 Root     16 not converged, maximum delta is    0.021578667473319
 Root     17 not converged, maximum delta is    0.001654344414516
 Root     18 not converged, maximum delta is    0.017278653185998
 Root     19 not converged, maximum delta is    0.017909728477169
 Root     20 not converged, maximum delta is    0.018439278253193
 Root     21 not converged, maximum delta is    0.004224894500503
 Root     22 not converged, maximum delta is    0.009527131875931
 Root     23 not converged, maximum delta is    0.004852144946821
 Root     24 not converged, maximum delta is    0.015398997091875
 Root     25 not converged, maximum delta is    0.014886854464044
 Root     26 not converged, maximum delta is    0.009500393439828
 Root     27 not converged, maximum delta is    0.004680543113794
 Root     28 not converged, maximum delta is    0.004656021386196
 Root     29 not converged, maximum delta is    0.027155891358643
 Root     30 not converged, maximum delta is    0.005581466857212
 Excitation Energies [eV] at current iteration:
 Root      1 :     3.594445480070493   Change is   -0.011896797072919
 Root      2 :     6.919211823228313   Change is   -0.001678473001308
 Root      3 :     7.679302089608244   Change is   -0.008640114781538
 Root      4 :     7.925330050536422   Change is   -0.002430885382623
 Root      5 :     8.391062640277383   Change is   -0.062706141205704
 Root      6 :     8.443596744481191   Change is   -0.000374026785321
 Root      7 :     8.688153707333345   Change is   -0.069801355405023
 Root      8 :     9.468674663037046   Change is   -0.013461849060029
 Root      9 :     9.881875720040160   Change is   -0.000959182959439
 Root     10 :    10.309327437295880   Change is   -0.009057310179366
 Root     11 :    10.727706071416400   Change is   -0.006515182480520
 Root     12 :    10.867782524735240   Change is   -0.000560333715581
 Root     13 :    11.496756258887590   Change is   -0.002375737888775
 Root     14 :    11.535556169817930   Change is   -0.007923461641872
 Root     15 :    11.592262351868810   Change is   -0.012793599625105
 Root     16 :    12.163956223868300   Change is   -0.030275957266578
 Root     17 :    12.342009577088130   Change is   -0.000854446025200
 Root     18 :    12.432300479488360   Change is   -0.010828317209158
 Root     19 :    12.596584736749350   Change is   -0.003256026378126
 Root     20 :    12.650854659957530   Change is   -0.005538473788319
 Root     21 :    13.010991724983970   Change is   -0.003789126207445
 Root     22 :    13.053964308730700   Change is   -0.018149216495709
 Root     23 :    13.125679821098940   Change is   -0.002043875137966
 Root     24 :    13.390208319034830   Change is   -0.033656099415859
 Root     25 :    13.581549056965630   Change is   -0.007781927468307
 Root     26 :    13.958861078971580   Change is   -0.013605136560455
 Root     27 :    14.035104302326940   Change is   -0.002400365236702
 Root     28 :    14.184210509872760   Change is   -0.000855075101226
 Root     29 :    14.462387004065090   Change is   -0.007761098462663
 Root     30 :    14.777748176078090   Change is   -0.007095715323323
 Iteration     3 Dimension   236 NMult   180 NNew     56
 CISAX will form    56 AO SS matrices at one time.
 NMat=    56 NSing=    56 JSym2X=-1.
 Root      1 has converged.
 Root      2 has converged.
 Root      3 has converged.
 Root      4 has converged.
 Root      5 has converged.
 Root      6 has converged.
 Root      7 has converged.
 Root      8 has converged.
 Root      9 has converged.
 Root     10 has converged.
 Root     11 has converged.
 Root     12 has converged.
 Root     13 has converged.
 Root     14 has converged.
 Root     15 has converged.
 Root     16 has converged.
 Root     17 has converged.
 Root     18 has converged.
 Root     19 has converged.
 Root     20 has converged.
 Root     21 has converged.
 Root     22 has converged.
 Root     23 has converged.
 Root     24 has converged.
 Root     25 has converged.
 Root     26 has converged.
 Root     27 has converged.
 Root     28 has converged.
 Root     29 has converged.
 Root     30 has converged.
 Excitation Energies [eV] at current iteration:
 Root      1 :     3.594444286042186   Change is   -0.000001194028308
 Root      2 :     6.919210684546207   Change is   -0.000001138682106
 Root      3 :     7.679296705766346   Change is   -0.000005383841898
 Root      4 :     7.925327858628434   Change is   -0.000002191907988
 Root      5 :     8.390964226858072   Change is   -0.000098413419311
 Root      6 :     8.443596705871430   Change is   -0.000000038609760
 Root      7 :     8.688065555469191   Change is   -0.000088151864155
 Root      8 :     9.468664735544843   Change is   -0.000009927492202
 Root      9 :     9.881874890652758   Change is   -0.000000829387401
 Root     10 :    10.309320780358810   Change is   -0.000006656937074
 Root     11 :    10.727696538390460   Change is   -0.000009533025942
 Root     12 :    10.867782235078990   Change is   -0.000000289656251
 Root     13 :    11.496752842657490   Change is   -0.000003416230101
 Root     14 :    11.535536310519720   Change is   -0.000019859298213
 Root     15 :    11.592232867927070   Change is   -0.000029483941748
 Root     16 :    12.163878601756660   Change is   -0.000077622111645
 Root     17 :    12.342008940747600   Change is   -0.000000636340527
 Root     18 :    12.432266071799680   Change is   -0.000034407688678
 Root     19 :    12.596580027512770   Change is   -0.000004709236584
 Root     20 :    12.650841852003100   Change is   -0.000012807954424
 Root     21 :    13.010985439988250   Change is   -0.000006284995715
 Root     22 :    13.053904351417780   Change is   -0.000059957312921
 Root     23 :    13.125676028892360   Change is   -0.000003792206579
 Root     24 :    13.390154053187260   Change is   -0.000054265847574
 Root     25 :    13.581541311230340   Change is   -0.000007745735286
 Root     26 :    13.958833550823290   Change is   -0.000027528148294
 Root     27 :    14.035099822014030   Change is   -0.000004480312914
 Root     28 :    14.184208939772860   Change is   -0.000001570099892
 Root     29 :    14.462373179192950   Change is   -0.000013824872140
 Root     30 :    14.777731310955600   Change is   -0.000016865122489
 Convergence achieved on expansion vectors.
 ***********************************************************************
 Excited states from <AA,BB:AA,BB> singles matrix:
 ***********************************************************************
 
 1PDM for each excited state written to RWF  633
 Ground to excited state transition densities written to RWF  633
 Ground to excited state transition electric dipole moments (Au):
       state          X           Y           Z        Dip. S.      Osc.
         1         0.0000      0.0000      0.0000      0.0000      0.0000
         2        -0.0000      0.3691      0.0000      0.1362      0.0231
         3         0.0000      0.3806      0.0000      0.1449      0.0273
         4         0.0000     -0.0000     -0.4590      0.2106      0.0409
         5         0.0753      0.0000      0.0000      0.0057      0.0012
         6        -0.0000     -0.0000     -0.0000      0.0000      0.0000
         7        -0.0000      0.0000      0.8340      0.6955      0.1480
         8         0.0000      0.0000      0.0000      0.0000      0.0000
         9        -0.4094     -0.0000     -0.0000      0.1676      0.0406
        10        -0.0000      0.5877      0.0000      0.3454      0.0872
        11         0.4405      0.0000     -0.0000      0.1940      0.0510
        12        -0.0000     -0.0000      0.0000      0.0000      0.0000
        13        -0.0000     -0.0491     -0.0000      0.0024      0.0007
        14         0.0000     -0.0000     -0.0903      0.0082      0.0023
        15        -0.0000      0.0000     -0.2399      0.0576      0.0163
        16        -0.0000      0.0000     -0.6134      0.3762      0.1121
        17        -0.0000     -0.0000      0.0000      0.0000      0.0000
        18        -0.0000      0.0000      0.9739      0.9485      0.2889
        19        -0.0000     -0.3821      0.0000      0.1460      0.0451
        20         0.0000     -0.5843      0.0000      0.3414      0.1058
        21         0.2511      0.0000     -0.0000      0.0631      0.0201
        22         0.0000      0.0000     -0.4960      0.2460      0.0787
        23        -0.2076     -0.0000     -0.0000      0.0431      0.0139
        24         0.0000     -0.1689     -0.0000      0.0285      0.0094
        25         0.0000      0.3055      0.0000      0.0933      0.0311
        26        -0.0000      0.0000      0.0844      0.0071      0.0024
        27         0.0000      0.0000     -0.0000      0.0000      0.0000
        28         0.0000      0.0000      0.0000      0.0000      0.0000
        29        -0.0298     -0.0000     -0.0000      0.0009      0.0003
        30        -0.0000     -0.0000      0.2669      0.0712      0.0258
 Ground to excited state transition velocity dipole moments (Au):
       state          X           Y           Z        Dip. S.      Osc.
         1        -0.0000      0.0000     -0.0000      0.0000      0.0000
         2         0.0000     -0.0955      0.0000      0.0091      0.0239
         3         0.0000     -0.1121      0.0000      0.0126      0.0297
         4        -0.0000      0.0000      0.1309      0.0171      0.0392
         5        -0.0365     -0.0000      0.0000      0.0013      0.0029
         6         0.0000      0.0000      0.0000      0.0000      0.0000
         7         0.0000      0.0000     -0.2549      0.0650      0.1356
         8        -0.0000     -0.0000      0.0000      0.0000      0.0000
         9         0.1525      0.0000     -0.0000      0.0233      0.0427
        10         0.0000     -0.2218      0.0000      0.0492      0.0866
        11        -0.1818     -0.0000     -0.0000      0.0331      0.0559
        12         0.0000      0.0000     -0.0000      0.0000      0.0000
        13         0.0000     -0.0018      0.0000      0.0000      0.0000
        14        -0.0000      0.0000      0.0428      0.0018      0.0029
        15         0.0000     -0.0000      0.1049      0.0110      0.0172
        16        -0.0000      0.0000      0.2666      0.0711      0.1060
        17         0.0000      0.0000     -0.0000      0.0000      0.0000
        18        -0.0000     -0.0000     -0.4526      0.2048      0.2989
        19         0.0000      0.1744     -0.0000      0.0304      0.0438
        20        -0.0000      0.2689     -0.0000      0.0723      0.1037
        21        -0.0988     -0.0000      0.0000      0.0098      0.0136
        22        -0.0000     -0.0000      0.2299      0.0529      0.0735
        23         0.0957     -0.0000      0.0000      0.0091      0.0126
        24        -0.0000      0.0873      0.0000      0.0076      0.0103
        25        -0.0000     -0.1540     -0.0000      0.0237      0.0317
        26         0.0000     -0.0000     -0.0362      0.0013      0.0017
        27        -0.0000     -0.0000     -0.0000      0.0000      0.0000
        28        -0.0000     -0.0000      0.0000      0.0000      0.0000
        29         0.0222      0.0000      0.0000      0.0005      0.0006
        30         0.0000     -0.0000     -0.1438      0.0207      0.0254
 Ground to excited state transition magnetic dipole moments (Au):
       state          X           Y           Z
         1         0.0000      0.0000      1.1934
         2        -0.4157      0.0000     -0.0000
         3         0.6724      0.0000     -0.0000
         4        -0.0000     -0.0000     -0.0000
         5        -0.0000     -1.5839     -0.0000
         6        -0.0000      0.0000     -0.0362
         7        -0.0000      0.0000     -0.0000
         8        -0.0000      0.0000     -0.7266
         9         0.0000     -0.0045     -0.0000
        10        -0.7959      0.0000      0.0000
        11         0.0000      0.0861      0.0000
        12         0.0000     -0.0000      0.0374
        13         0.5141     -0.0000      0.0000
        14        -0.0000      0.0000     -0.0000
        15        -0.0000      0.0000     -0.0000
        16        -0.0000     -0.0000     -0.0000
        17        -0.0000      0.0000     -0.0119
        18        -0.0000     -0.0000      0.0000
        19        -0.1950     -0.0000     -0.0000
        20         0.3567     -0.0000      0.0000
        21        -0.0000     -0.1470     -0.0000
        22         0.0000     -0.0000      0.0000
        23        -0.0000      0.3060      0.0000
        24        -0.5846     -0.0000     -0.0000
        25        -0.5438     -0.0000      0.0000
        26        -0.0000      0.0000      0.0000
        27        -0.0000     -0.0000     -0.0166
        28         0.0000     -0.0000      0.0355
        29         0.0000     -0.1742      0.0000
        30         0.0000      0.0000     -0.0000
 Ground to excited state transition velocity quadrupole moments (Au):
       state          XX          YY          ZZ          XY          XZ          YZ
         1        -0.0000     -0.0000     -0.0000     -0.0833      0.0000      0.0000
         2         0.0000      0.0000     -0.0000      0.0000      0.0000      0.4751
         3         0.0000      0.0000      0.0000     -0.0000      0.0000     -0.0219
         4        -0.0355     -0.2865     -0.2656      0.0000     -0.0000     -0.0000
         5         0.0000      0.0000      0.0000      0.0000     -0.3199      0.0000
         6        -0.0000      0.0000      0.0000     -0.0605      0.0000     -0.0000
         7         0.2272     -0.0253     -0.1977      0.0000      0.0000      0.0000
         8        -0.0000     -0.0000     -0.0000      0.2130     -0.0000      0.0000
         9         0.0000      0.0000      0.0000      0.0000     -0.1286     -0.0000
        10        -0.0000     -0.0000      0.0000     -0.0000     -0.0000      0.5021
        11         0.0000      0.0000      0.0000     -0.0000     -0.2865     -0.0000
        12        -0.0000     -0.0000     -0.0000      0.2809      0.0000      0.0000
        13         0.0000     -0.0000      0.0000      0.0000      0.0000      0.3369
        14         0.4335      0.0657     -0.1082      0.0000      0.0000      0.0000
        15         0.5854     -0.1368      0.0687     -0.0000      0.0000      0.0000
        16        -0.2865     -0.7275     -0.6940      0.0000      0.0000      0.0000
        17        -0.0000      0.0000      0.0000      0.3416     -0.0000     -0.0000
        18        -0.0723      0.2322      0.3367     -0.0000     -0.0000      0.0000
        19        -0.0000      0.0000      0.0000     -0.0000     -0.0000     -0.2267
        20        -0.0000      0.0000      0.0000     -0.0000     -0.0000     -0.6427
        21         0.0000      0.0000      0.0000      0.0000      0.0496      0.0000
        22         0.1963      0.5145      0.2491     -0.0000     -0.0000     -0.0000
        23         0.0000      0.0000      0.0000     -0.0000      0.0027     -0.0000
        24         0.0000      0.0000      0.0000      0.0000      0.0000      0.1875
        25        -0.0000     -0.0000     -0.0000     -0.0000     -0.0000     -0.2806
        26         0.3316      1.0638      0.2525     -0.0000      0.0000      0.0000
        27        -0.0000     -0.0000     -0.0000     -0.2692     -0.0000      0.0000
        28         0.0000      0.0000     -0.0000      0.2950      0.0000      0.0000
        29        -0.0000      0.0000     -0.0000     -0.0000      0.0031      0.0000
        30        -0.1804      0.4572     -0.1463     -0.0000      0.0000     -0.0000
 <0|del|b> * <b|rxdel|0> + <0|del|b> * <b|delr+rdel|0>
 Rotatory Strengths (R) in cgs (10**-40 erg-esu-cm/Gauss)
       state          XX          YY          ZZ    R(velocity)    E-M Angle
         1        -0.0000     -0.0000      0.0000     -0.0000       90.00
         2        -0.0000      0.0000     -0.0000     -0.0000       90.00
         3        -0.0000      0.0000     -0.0000      0.0000       90.00
         4         0.0000     -0.0000     -0.0000     -0.0000       90.00
         5         0.0000      0.0000      0.0000      0.0000       90.00
         6        -0.0000      0.0000      0.0000     -0.0000       90.00
         7        -0.0000      0.0000     -0.0000      0.0000       90.00
         8        -0.0000     -0.0000      0.0000     -0.0000       90.00
         9         0.0000      0.0000      0.0000      0.0000       90.00
        10        -0.0000     -0.0000     -0.0000     -0.0000       90.00
        11        -0.0000     -0.0000     -0.0000     -0.0000       90.00
        12        -0.0000      0.0000     -0.0000     -0.0000       90.00
        13         0.0000      0.0000      0.0000      0.0000       90.00
        14         0.0000     -0.0000      0.0000     -0.0000       90.00
        15        -0.0000      0.0000     -0.0000     -0.0000       90.00
        16         0.0000     -0.0000      0.0000     -0.0000       90.00
        17        -0.0000      0.0000      0.0000      0.0000       90.00
        18         0.0000     -0.0000      0.0000     -0.0000       90.00
        19        -0.0000     -0.0000     -0.0000     -0.0000       90.00
        20        -0.0000      0.0000     -0.0000     -0.0000       90.00
        21         0.0000      0.0000      0.0000      0.0000       90.00
        22        -0.0000      0.0000      0.0000      0.0000       90.00
        23        -0.0000     -0.0000     -0.0000     -0.0000       90.00
        24        -0.0000      0.0000      0.0000      0.0000       90.00
        25         0.0000      0.0000      0.0000      0.0000       90.00
        26         0.0000     -0.0000     -0.0000     -0.0000       90.00
        27         0.0000     -0.0000      0.0000      0.0000       90.00
        28         0.0000     -0.0000     -0.0000      0.0000       90.00
        29        -0.0000      0.0000     -0.0000     -0.0000       90.00
        30         0.0000     -0.0000      0.0000      0.0000       90.00
 1/2[<0|r|b>*<b|rxdel|0> + (<0|rxdel|b>*<b|r|0>)*]
 Rotatory Strengths (R) in cgs (10**-40 erg-esu-cm/Gauss)
       state          XX          YY          ZZ     R(length)
         1        -0.0000     -0.0000     -0.0000     -0.0000
         2        -0.0000     -0.0000      0.0000     -0.0000
         3        -0.0000     -0.0000      0.0000     -0.0000
         4         0.0000     -0.0000     -0.0000     -0.0000
         5         0.0000      0.0000      0.0000      0.0000
         6        -0.0000      0.0000     -0.0000     -0.0000
         7        -0.0000     -0.0000      0.0000      0.0000
         8         0.0000     -0.0000      0.0000      0.0000
         9         0.0000     -0.0000     -0.0000      0.0000
        10        -0.0000     -0.0000     -0.0000     -0.0000
        11        -0.0000     -0.0000      0.0000     -0.0000
        12         0.0000     -0.0000     -0.0000     -0.0000
        13         0.0000     -0.0000      0.0000      0.0000
        14         0.0000      0.0000     -0.0000     -0.0000
        15        -0.0000     -0.0000     -0.0000     -0.0000
        16        -0.0000      0.0000     -0.0000     -0.0000
        17        -0.0000      0.0000      0.0000      0.0000
        18        -0.0000      0.0000     -0.0000     -0.0000
        19        -0.0000     -0.0000      0.0000     -0.0000
        20        -0.0000     -0.0000     -0.0000     -0.0000
        21         0.0000      0.0000     -0.0000      0.0000
        22        -0.0000      0.0000      0.0000      0.0000
        23        -0.0000      0.0000      0.0000     -0.0000
        24         0.0000     -0.0000     -0.0000      0.0000
        25         0.0000      0.0000     -0.0000      0.0000
        26        -0.0000     -0.0000     -0.0000     -0.0000
        27         0.0000      0.0000     -0.0000     -0.0000
        28        -0.0000      0.0000     -0.0000     -0.0000
        29         0.0000     -0.0000      0.0000     -0.0000
        30         0.0000      0.0000      0.0000      0.0000
  1/2[<0|del|b>*<b|r|0> + (<0|r|b>*<b|del|0>)*] (Au)
       state          X           Y           Z        Dip. S.   Osc.(frdel)
         1        -0.0000      0.0000     -0.0000     -0.0000     -0.0000
         2        -0.0000     -0.0352      0.0000      0.0352      0.0235
         3         0.0000     -0.0427      0.0000      0.0427      0.0284
         4        -0.0000     -0.0000     -0.0601      0.0601      0.0400
         5        -0.0027     -0.0000      0.0000      0.0027      0.0018
         6        -0.0000     -0.0000     -0.0000      0.0000      0.0000
         7        -0.0000      0.0000     -0.2126      0.2126      0.1417
         8        -0.0000     -0.0000      0.0000      0.0000      0.0000
         9        -0.0624     -0.0000      0.0000      0.0624      0.0416
        10        -0.0000     -0.1304      0.0000      0.1304      0.0869
        11        -0.0801     -0.0000      0.0000      0.0801      0.0534
        12        -0.0000     -0.0000     -0.0000      0.0000      0.0000
        13        -0.0000      0.0001     -0.0000     -0.0001     -0.0001
        14        -0.0000     -0.0000     -0.0039      0.0039      0.0026
        15        -0.0000     -0.0000     -0.0252      0.0252      0.0168
        16         0.0000      0.0000     -0.1635      0.1635      0.1090
        17        -0.0000     -0.0000     -0.0000      0.0000      0.0000
        18         0.0000     -0.0000     -0.4408      0.4408      0.2939
        19        -0.0000     -0.0667     -0.0000      0.0667      0.0444
        20        -0.0000     -0.1571     -0.0000      0.1571      0.1047
        21        -0.0248     -0.0000     -0.0000      0.0248      0.0165
        22        -0.0000     -0.0000     -0.1141      0.1141      0.0760
        23        -0.0199      0.0000     -0.0000      0.0199      0.0132
        24        -0.0000     -0.0147     -0.0000      0.0147      0.0098
        25        -0.0000     -0.0470     -0.0000      0.0470      0.0314
        26        -0.0000     -0.0000     -0.0031      0.0031      0.0020
        27        -0.0000     -0.0000      0.0000      0.0000      0.0000
        28        -0.0000     -0.0000      0.0000      0.0000      0.0000
        29        -0.0007     -0.0000     -0.0000      0.0007      0.0004
        30        -0.0000      0.0000     -0.0384      0.0384      0.0256

 Excitation energies and oscillator strengths:
 
 Excited State   1:      Singlet-A2     3.5944 eV  344.93 nm  f=0.0000  <S**2>=0.000
       3 -> 27         0.00228
       3 -> 38         0.00192
       3 -> 45         0.00265
       4 -> 27         0.00168
       4 -> 38        -0.00048
       4 -> 45        -0.00135
       5 ->  9         0.01993
       5 -> 13        -0.00210
       5 -> 17         0.00531
       5 -> 23         0.00031
       5 -> 29         0.00435
       5 -> 31        -0.00185
       5 -> 37         0.00312
       5 -> 44         0.00058
       5 -> 48         0.00014
       5 -> 52         0.00072
       6 -> 27        -0.00025
       6 -> 38        -0.00087
       6 -> 45         0.00177
       7 -> 12        -0.00062
       7 -> 15         0.00315
       7 -> 18        -0.00300
       7 -> 22         0.00045
       7 -> 25         0.00142
       7 -> 30        -0.00099
       7 -> 33         0.00044
       7 -> 35         0.00021
       7 -> 40         0.00019
       7 -> 42        -0.00011
       7 -> 49         0.00028
       7 -> 50         0.00032
       7 -> 53         0.00047
       8 ->  9         0.70597
       8 -> 13        -0.03632
       8 -> 17         0.02275
       8 -> 23        -0.00937
       8 -> 29         0.00968
       8 -> 31        -0.00202
       8 -> 37         0.00013
       8 -> 48        -0.00026
       8 -> 52         0.00175
       3 <- 27         0.00144
       3 <- 38         0.00157
       3 <- 45         0.00274
       4 <- 27         0.00248
       4 <- 45        -0.00114
       5 <-  9        -0.00051
       5 <- 13        -0.00079
       5 <- 17        -0.00101
       5 <- 23         0.00052
       5 <- 29        -0.00070
       5 <- 31         0.00080
       5 <- 37         0.00152
       5 <- 44         0.00023
       5 <- 48         0.00015
       5 <- 52         0.00019
       6 <- 27         0.00034
       6 <- 38        -0.00076
       6 <- 45         0.00138
       7 <- 12        -0.00068
       7 <- 15        -0.00773
       7 <- 18         0.00074
       7 <- 22         0.00743
       7 <- 30         0.00375
       7 <- 33        -0.00125
       7 <- 35         0.00224
       7 <- 40         0.00093
       7 <- 50         0.00022
       7 <- 53         0.00133
       8 <-  9        -0.02695
       8 <- 13         0.00257
       8 <- 17        -0.00461
       8 <- 23         0.00078
       8 <- 29        -0.00116
       8 <- 31        -0.00069
       8 <- 37        -0.00127
       8 <- 52         0.00050
 This state for optimization and/or second-order correction.
 Total Energy, E(TD-HF/TD-DFT) =  -114.404136779    
 Copying the excited state density for this state as the 1-particle RhoCI density.
 
 Excited State   2:      Singlet-B2     6.9192 eV  179.19 nm  f=0.0231  <S**2>=0.000
       3 -> 12         0.00160
       3 -> 15         0.00069
       3 -> 18         0.00123
       3 -> 22        -0.00033
       3 -> 25         0.00124
       3 -> 33         0.00023
       3 -> 35        -0.00046
       3 -> 40        -0.00016
       4 -> 12        -0.00277
       4 -> 15         0.00196
       4 -> 18         0.00194
       4 -> 22        -0.00326
       4 -> 25         0.00320
       4 -> 30         0.00034
       4 -> 33        -0.00039
       4 -> 35         0.00051
       4 -> 40         0.00045
       4 -> 42        -0.00013
       5 -> 10        -0.00770
       5 -> 11        -0.00776
       5 -> 14         0.00702
       5 -> 16        -0.00072
       5 -> 19        -0.00136
       5 -> 20         0.00275
       5 -> 21         0.00585
       5 -> 24        -0.00038
       5 -> 26         0.00226
       5 -> 28         0.00105
       5 -> 32        -0.00102
       5 -> 34        -0.00099
       5 -> 36        -0.00018
       5 -> 39        -0.00027
       5 -> 41        -0.00043
       5 -> 43        -0.00051
       5 -> 46        -0.00026
       5 -> 54         0.00012
       6 -> 12        -0.00044
       6 -> 15         0.00148
       6 -> 18         0.00157
       6 -> 22        -0.00237
       6 -> 25         0.00104
       6 -> 30        -0.00053
       6 -> 33        -0.00026
       6 -> 35         0.00050
       6 -> 42        -0.00018
       6 -> 49         0.00046
       6 -> 50        -0.00025
       7 -> 27         0.00011
       7 -> 38        -0.00063
       7 -> 45         0.00029
       8 -> 10         0.70265
       8 -> 11        -0.07374
       8 -> 14         0.01736
       8 -> 16        -0.00491
       8 -> 19         0.00563
       8 -> 20         0.01677
       8 -> 21        -0.00256
       8 -> 26         0.00276
       8 -> 28         0.00091
       8 -> 32         0.00098
       8 -> 34         0.00092
       8 -> 36         0.00034
       8 -> 39         0.00034
       8 -> 41        -0.00022
       8 -> 43         0.00060
       8 -> 46        -0.00047
       8 -> 47         0.00015
       8 -> 51        -0.00012
       8 -> 54         0.00020
       3 <- 12         0.00037
       3 <- 15         0.00053
       3 <- 18         0.00046
       3 <- 22        -0.00049
       3 <- 25         0.00070
       3 <- 30        -0.00011
       3 <- 33         0.00020
       3 <- 35        -0.00042
       3 <- 40        -0.00017
       3 <- 49         0.00014
       4 <- 12         0.00077
       4 <- 15         0.00195
       4 <- 18         0.00185
       4 <- 22        -0.00203
       4 <- 25         0.00217
       4 <- 30         0.00024
       4 <- 33        -0.00020
       4 <- 35         0.00026
       4 <- 40         0.00012
       4 <- 42        -0.00023
       4 <- 50        -0.00013
       5 <- 10         0.00231
       5 <- 11        -0.00024
       5 <- 14         0.00471
       5 <- 16        -0.00061
       5 <- 19        -0.00023
       5 <- 20         0.00082
       5 <- 21         0.00187
       5 <- 24        -0.00205
       5 <- 26         0.00147
       5 <- 28         0.00013
       5 <- 32        -0.00074
       5 <- 34        -0.00092
       5 <- 36        -0.00025
       5 <- 39        -0.00015
       5 <- 41        -0.00025
       5 <- 43        -0.00039
       5 <- 46        -0.00023
       6 <- 15        -0.00018
       6 <- 18         0.00104
       6 <- 22        -0.00057
       6 <- 25         0.00035
       6 <- 30         0.00032
       6 <- 33        -0.00031
       6 <- 35         0.00056
       6 <- 42        -0.00016
       6 <- 49         0.00038
       6 <- 50        -0.00027
       6 <- 53         0.00016
       7 <- 27         0.00011
       7 <- 38        -0.00047
       7 <- 45         0.00027
       8 <- 10        -0.00154
       8 <- 11        -0.00055
       8 <- 14        -0.00470
       8 <- 16        -0.00051
       8 <- 19         0.00014
       8 <- 20        -0.00068
       8 <- 21        -0.00159
       8 <- 24         0.00199
       8 <- 26        -0.00081
       8 <- 28        -0.00047
       8 <- 32         0.00099
       8 <- 36         0.00032
       8 <- 39         0.00024
       8 <- 43         0.00038
       8 <- 46        -0.00028
 
 Excited State   3:      Singlet-B2     7.6793 eV  161.45 nm  f=0.0273  <S**2>=0.000
       3 -> 12        -0.00034
       3 -> 15        -0.00094
       3 -> 18         0.00105
       3 -> 22         0.00049
       3 -> 30         0.00242
       3 -> 33         0.00015
       3 -> 35        -0.00059
       3 -> 40        -0.00051
       3 -> 49         0.00057
       3 -> 50        -0.00019
       4 -> 12         0.00251
       4 -> 15         0.00034
       4 -> 18         0.00197
       4 -> 22        -0.00149
       4 -> 25         0.00284
       4 -> 30        -0.00136
       4 -> 33         0.00049
       4 -> 35        -0.00057
       4 -> 42        -0.00010
       4 -> 49         0.00024
       5 -> 10        -0.00602
       5 -> 11        -0.00021
       5 -> 14         0.00963
       5 -> 16        -0.00693
       5 -> 19        -0.00095
       5 -> 20        -0.00480
       5 -> 21         0.00225
       5 -> 24        -0.00086
       5 -> 26         0.00148
       5 -> 28         0.00156
       5 -> 32        -0.00014
       5 -> 34        -0.00090
       5 -> 36        -0.00036
       5 -> 39         0.00044
       5 -> 41        -0.00068
       5 -> 43         0.00018
       5 -> 46         0.00091
       5 -> 51        -0.00042
       6 -> 12        -0.00289
       6 -> 15        -0.00151
       6 -> 18        -0.00076
       6 -> 22         0.00114
       6 -> 25         0.00017
       6 -> 30         0.00114
       6 -> 33        -0.00055
       6 -> 35         0.00149
       6 -> 40         0.00111
       6 -> 49        -0.00126
       6 -> 50         0.00032
       6 -> 53         0.00012
       7 -> 27         0.00018
       7 -> 38        -0.00084
       7 -> 45        -0.00196
       8 -> 10         0.07394
       8 -> 11         0.70221
       8 -> 14        -0.00250
       8 -> 16         0.00903
       8 -> 19        -0.03396
       8 -> 20         0.00104
       8 -> 21        -0.00290
       8 -> 24         0.00019
       8 -> 26        -0.00079
       8 -> 28         0.00192
       8 -> 32         0.00013
       8 -> 34        -0.00021
       8 -> 36        -0.00020
       8 -> 39        -0.00026
       8 -> 41        -0.00112
       8 -> 43         0.00037
       8 -> 46         0.00228
       8 -> 47        -0.00012
       8 -> 51        -0.00106
       3 <- 12         0.00034
       3 <- 15        -0.00030
       3 <- 18         0.00099
       3 <- 25         0.00024
       3 <- 30         0.00132
       3 <- 33         0.00026
       3 <- 35        -0.00062
       3 <- 40        -0.00047
       3 <- 49         0.00051
       3 <- 50        -0.00013
       3 <- 53        -0.00032
       4 <- 12         0.00031
       4 <- 15         0.00083
       4 <- 18         0.00044
       4 <- 22        -0.00116
       4 <- 25         0.00121
       4 <- 30        -0.00070
       4 <- 33         0.00045
       4 <- 35        -0.00027
       4 <- 42        -0.00011
       4 <- 49         0.00018
       5 <- 10         0.00121
       5 <- 11        -0.00133
       5 <- 14         0.00271
       5 <- 16        -0.00043
       5 <- 19         0.00138
       5 <- 20        -0.00043
       5 <- 21         0.00079
       5 <- 24        -0.00141
       5 <- 28         0.00066
       5 <- 32        -0.00092
       5 <- 36         0.00013
       5 <- 39         0.00011
       5 <- 41        -0.00072
       5 <- 46         0.00086
       5 <- 47        -0.00012
       5 <- 51        -0.00030
       6 <- 12        -0.00028
       6 <- 15        -0.00099
       6 <- 18         0.00031
       6 <- 22         0.00087
       6 <- 25        -0.00014
       6 <- 30         0.00105
       6 <- 33        -0.00046
       6 <- 35         0.00128
       6 <- 40         0.00087
       6 <- 49        -0.00103
       6 <- 50         0.00025
       7 <- 27         0.00033
       7 <- 38        -0.00067
       7 <- 45        -0.00164
       8 <- 10        -0.00078
       8 <- 11        -0.00163
       8 <- 14        -0.00362
       8 <- 16         0.00042
       8 <- 19         0.00511
       8 <- 20        -0.00014
       8 <- 21        -0.00196
       8 <- 24        -0.00045
       8 <- 26        -0.00166
       8 <- 28         0.00055
       8 <- 32        -0.00125
       8 <- 34         0.00157
       8 <- 39        -0.00068
       8 <- 41        -0.00103
       8 <- 43         0.00018
       8 <- 46         0.00182
       8 <- 47        -0.00030
       8 <- 51        -0.00071
 
 Excited State   4:      Singlet-A1     7.9253 eV  156.44 nm  f=0.0409  <S**2>=0.000
       3 -> 10         0.00218
       3 -> 11        -0.00038
       3 -> 14         0.00127
       3 -> 19        -0.00181
       3 -> 20         0.00218
       3 -> 21         0.00106
       3 -> 24         0.00083
       3 -> 26         0.00133
       3 -> 28         0.00084
       3 -> 32         0.00016
       3 -> 34        -0.00084
       3 -> 36        -0.00016
       3 -> 41        -0.00019
       3 -> 46         0.00020
       3 -> 47        -0.00030
       3 -> 51        -0.00015
       3 -> 54        -0.00017
       4 -> 10         0.00490
       4 -> 11         0.00431
       4 -> 14         0.00452
       4 -> 16         0.00065
       4 -> 19         0.00026
       4 -> 20         0.00310
       4 -> 21        -0.00048
       4 -> 24        -0.00685
       4 -> 26         0.00220
       4 -> 28        -0.00028
       4 -> 32        -0.00062
       4 -> 34         0.00024
       4 -> 43         0.00016
       4 -> 46        -0.00020
       4 -> 51        -0.00013
       5 -> 12         0.00562
       5 -> 15         0.00348
       5 -> 18         0.00915
       5 -> 22        -0.00262
       5 -> 25         0.00551
       5 -> 30        -0.00035
       5 -> 33        -0.00022
       5 -> 35         0.00074
       5 -> 50         0.00016
       5 -> 53        -0.00012
       6 -> 10         0.01054
       6 -> 11        -0.00250
       6 -> 14         0.00397
       6 -> 16        -0.00039
       6 -> 19         0.00221
       6 -> 20         0.00188
       6 -> 21        -0.00131
       6 -> 24        -0.00472
       6 -> 26        -0.00051
       6 -> 28        -0.00232
       6 -> 32        -0.00026
       6 -> 34        -0.00014
       6 -> 39         0.00021
       6 -> 43         0.00015
       6 -> 47         0.00071
       6 -> 51         0.00019
       6 -> 54        -0.00012
       7 ->  9         0.03401
       7 -> 13         0.01230
       7 -> 17         0.00050
       7 -> 23         0.00517
       7 -> 29        -0.00090
       7 -> 31        -0.00099
       7 -> 37         0.00058
       7 -> 44         0.00061
       7 -> 48        -0.00031
       8 -> 12         0.70529
       8 -> 15         0.00188
       8 -> 18         0.02934
       8 -> 22         0.00229
       8 -> 25         0.00476
       8 -> 30        -0.00087
       8 -> 33         0.00172
       8 -> 35        -0.00202
       8 -> 40         0.00036
       8 -> 49        -0.00047
       8 -> 50         0.00024
       8 -> 53        -0.00026
       3 <- 10         0.00067
       3 <- 11         0.00039
       3 <- 14         0.00066
       3 <- 16         0.00015
       3 <- 19        -0.00111
       3 <- 20         0.00095
       3 <- 21         0.00072
       3 <- 24         0.00023
       3 <- 26         0.00091
       3 <- 28         0.00056
       3 <- 32         0.00027
       3 <- 34        -0.00057
       3 <- 36        -0.00011
       3 <- 41        -0.00011
       3 <- 46         0.00028
       3 <- 47        -0.00023
       3 <- 51        -0.00012
       3 <- 54        -0.00015
       4 <- 10         0.00398
       4 <- 11         0.00081
       4 <- 14         0.00330
       4 <- 20         0.00179
       4 <- 21        -0.00042
       4 <- 24        -0.00369
       4 <- 26         0.00134
       4 <- 32        -0.00082
       4 <- 34        -0.00017
       4 <- 41        -0.00013
       4 <- 43         0.00012
       4 <- 46        -0.00014
       4 <- 51        -0.00012
       5 <- 12         0.00274
       5 <- 15         0.00301
       5 <- 18         0.00326
       5 <- 22        -0.00101
       5 <- 25         0.00300
       5 <- 30        -0.00018
       5 <- 33        -0.00037
       5 <- 35         0.00066
       5 <- 53        -0.00010
       6 <- 10         0.00248
       6 <- 14         0.00150
       6 <- 16        -0.00018
       6 <- 19         0.00056
       6 <- 20         0.00085
       6 <- 21        -0.00081
       6 <- 24        -0.00228
       6 <- 26        -0.00011
       6 <- 28        -0.00151
       6 <- 32        -0.00033
       6 <- 34        -0.00018
       6 <- 46        -0.00016
       6 <- 47         0.00059
       6 <- 51         0.00022
       6 <- 54        -0.00011
       7 <-  9        -0.00230
       7 <- 13         0.00251
       7 <- 17        -0.00029
       7 <- 23         0.00261
       7 <- 29        -0.00072
       7 <- 31        -0.00065
       7 <- 37         0.00044
       7 <- 44         0.00051
       7 <- 48        -0.00028
       8 <- 12        -0.00040
       8 <- 15        -0.00373
       8 <- 18        -0.00163
       8 <- 22         0.00010
       8 <- 25        -0.00130
       8 <- 30        -0.00118
       8 <- 33         0.00065
       8 <- 35        -0.00076
       8 <- 40         0.00044
       8 <- 42         0.00011
       8 <- 49        -0.00046
       8 <- 50         0.00015
       8 <- 53        -0.00026
 
 Excited State   5:      Singlet-B1     8.3910 eV  147.76 nm  f=0.0012  <S**2>=0.000
       3 ->  9        -0.03337
       3 -> 13         0.00508
       3 -> 17        -0.00704
       3 -> 23         0.00404
       3 -> 29        -0.00260
       3 -> 31        -0.00023
       3 -> 44         0.00066
       3 -> 48         0.00015
       3 -> 52         0.00113
       4 ->  9         0.01689
       4 -> 13        -0.00277
       4 -> 17         0.00099
       4 -> 23        -0.00249
       4 -> 31        -0.00253
       4 -> 37        -0.00039
       4 -> 48        -0.00162
       4 -> 52        -0.00098
       5 -> 27        -0.00176
       5 -> 38         0.00213
       5 -> 45         0.00292
       6 ->  9         0.70497
       6 -> 13        -0.03544
       6 -> 17         0.02294
       6 -> 23        -0.01245
       6 -> 29         0.00806
       6 -> 31         0.00364
       6 -> 37        -0.00262
       6 -> 44        -0.00351
       6 -> 48         0.00559
       6 -> 52         0.00197
       7 -> 10         0.00324
       7 -> 11         0.00936
       7 -> 14         0.00066
       7 -> 16        -0.01263
       7 -> 19        -0.00390
       7 -> 20         0.00280
       7 -> 21         0.00397
       7 -> 24         0.00302
       7 -> 26         0.00270
       7 -> 28        -0.00463
       7 -> 32        -0.00130
       7 -> 36        -0.00156
       7 -> 39         0.00035
       7 -> 41        -0.00220
       7 -> 43         0.00105
       7 -> 46         0.00501
       7 -> 47         0.00228
       7 -> 51         0.00109
       7 -> 54         0.00054
       8 -> 27         0.00312
       8 -> 38         0.00104
       8 -> 45         0.00685
       3 <-  9        -0.01034
       3 <- 13         0.00086
       3 <- 17        -0.00337
       3 <- 23         0.00057
       3 <- 29        -0.00153
       3 <- 31        -0.00011
       3 <- 37        -0.00017
       3 <- 44        -0.00010
       3 <- 48         0.00044
       3 <- 52         0.00092
       4 <-  9         0.00525
       4 <- 17         0.00250
       4 <- 23        -0.00032
       4 <- 29         0.00223
       4 <- 31        -0.00251
       4 <- 37         0.00023
       4 <- 44         0.00020
       4 <- 48        -0.00140
       4 <- 52        -0.00053
       5 <- 27        -0.00174
       5 <- 38         0.00161
       5 <- 45         0.00256
       6 <-  9        -0.02118
       6 <- 13         0.00335
       6 <- 17        -0.00307
       6 <- 23         0.00078
       6 <- 29        -0.00185
       6 <- 31         0.00325
       6 <- 37        -0.00271
       6 <- 44        -0.00217
       6 <- 48         0.00485
       6 <- 52         0.00071
       7 <- 10         0.00157
       7 <- 11         0.00248
       7 <- 14         0.00059
       7 <- 16         0.00027
       7 <- 19        -0.00634
       7 <- 20         0.00844
       7 <- 21         0.00708
       7 <- 24         0.00698
       7 <- 26         0.00468
       7 <- 28         0.00084
       7 <- 32        -0.00127
       7 <- 34         0.00151
       7 <- 36        -0.00249
       7 <- 39         0.00056
       7 <- 41        -0.00155
       7 <- 43         0.00102
       7 <- 46         0.00445
       7 <- 47         0.00183
       7 <- 51         0.00074
       7 <- 54         0.00100
       8 <- 27         0.00267
       8 <- 38         0.00101
       8 <- 45         0.00597
 
 Excited State   6:      Singlet-A2     8.4436 eV  146.84 nm  f=0.0000  <S**2>=0.000
       3 -> 27        -0.00039
       3 -> 38        -0.00033
       3 -> 45        -0.00015
       4 -> 27         0.00014
       4 -> 38         0.00043
       5 ->  9        -0.00085
       5 -> 13        -0.00591
       5 -> 17         0.00664
       5 -> 23        -0.00227
       5 -> 29        -0.00024
       5 -> 31         0.00122
       5 -> 37        -0.00085
       5 -> 44        -0.00018
       6 -> 27         0.00022
       6 -> 38         0.00030
       6 -> 45        -0.00015
       7 -> 12         0.00028
       7 -> 15        -0.00193
       7 -> 18         0.00203
       7 -> 22        -0.00075
       7 -> 35        -0.00012
       8 ->  9         0.03572
       8 -> 13         0.70559
       8 -> 17         0.02288
       8 -> 23         0.01569
       8 -> 29         0.00021
       8 -> 31         0.00176
       8 -> 37        -0.00041
       8 -> 48         0.00016
       3 <- 38        -0.00019
       3 <- 45        -0.00022
       5 <-  9        -0.00043
       5 <- 13        -0.00030
       5 <- 17         0.00045
       5 <- 37        -0.00018
       6 <- 38         0.00018
       7 <- 12        -0.00052
       7 <- 15        -0.00110
       7 <- 18         0.00080
       7 <- 22        -0.00082
       7 <- 25        -0.00043
       7 <- 30         0.00024
       7 <- 33         0.00033
       7 <- 35        -0.00052
       7 <- 40        -0.00033
       8 <-  9         0.00115
       8 <- 13         0.00115
       8 <- 17         0.00024
       8 <- 23        -0.00011
 
 Excited State   7:      Singlet-A1     8.6881 eV  142.71 nm  f=0.1480  <S**2>=0.000
       3 -> 10         0.00403
       3 -> 11         0.01235
       3 -> 14         0.00562
       3 -> 16        -0.00144
       3 -> 19        -0.01993
       3 -> 20         0.00860
       3 -> 21         0.00823
       3 -> 24         0.00837
       3 -> 26         0.01091
       3 -> 28         0.00316
       3 -> 32         0.00351
       3 -> 34        -0.00362
       3 -> 36        -0.00282
       3 -> 39         0.00174
       3 -> 41         0.00031
       3 -> 43         0.00094
       3 -> 46         0.00181
       3 -> 47         0.00038
       3 -> 51        -0.00020
       3 -> 54         0.00027
       4 -> 10         0.03359
       4 -> 11        -0.01285
       4 -> 14         0.01881
       4 -> 16         0.00031
       4 -> 19         0.01184
       4 -> 20         0.00860
       4 -> 21         0.00144
       4 -> 24        -0.00932
       4 -> 26         0.00583
       4 -> 28         0.00059
       4 -> 32        -0.00149
       4 -> 34         0.00344
       4 -> 36         0.00096
       4 -> 39        -0.00018
       4 -> 46        -0.00096
       4 -> 47        -0.00136
       4 -> 51         0.00010
       5 -> 12         0.04115
       5 -> 15         0.04400
       5 -> 18         0.00408
       5 -> 22        -0.00320
       5 -> 25         0.01618
       5 -> 30        -0.00490
       5 -> 33        -0.00255
       5 -> 35         0.00042
       5 -> 40         0.00157
       5 -> 42         0.00086
       5 -> 49         0.00049
       5 -> 50        -0.00036
       5 -> 53        -0.00048
       6 -> 10        -0.02368
       6 -> 11        -0.03054
       6 -> 14        -0.00765
       6 -> 16        -0.02875
       6 -> 19         0.04817
       6 -> 20        -0.05389
       6 -> 21        -0.03292
       6 -> 24        -0.03137
       6 -> 26        -0.01740
       6 -> 28        -0.01290
       6 -> 32        -0.00016
       6 -> 34        -0.00389
       6 -> 36         0.00323
       6 -> 39        -0.00022
       6 -> 41        -0.00139
       6 -> 43         0.00011
       6 -> 46         0.00094
       6 -> 47         0.00164
       6 -> 51         0.00060
       6 -> 54        -0.00010
       7 ->  9         0.66944
       7 -> 13         0.04262
       7 -> 17        -0.02868
       7 -> 23         0.01106
       7 -> 29        -0.00608
       7 -> 31        -0.00010
       7 -> 37        -0.00023
       7 -> 44        -0.00057
       7 -> 48         0.00052
       7 -> 52         0.00098
       8 -> 12        -0.03317
       8 -> 15         0.19196
       8 -> 18        -0.02599
       8 -> 22        -0.05710
       8 -> 25         0.00580
       8 -> 30        -0.01480
       8 -> 33         0.00730
       8 -> 35        -0.00885
       8 -> 40        -0.00330
       8 -> 42        -0.00044
       8 -> 49         0.00054
       8 -> 50         0.00049
       8 -> 53        -0.00111
       3 <- 10         0.00182
       3 <- 11         0.00665
       3 <- 14         0.00381
       3 <- 16        -0.00023
       3 <- 19        -0.01200
       3 <- 20         0.00554
       3 <- 21         0.00634
       3 <- 24         0.00583
       3 <- 26         0.00710
       3 <- 28         0.00222
       3 <- 32         0.00296
       3 <- 34        -0.00214
       3 <- 36        -0.00198
       3 <- 39         0.00128
       3 <- 41         0.00017
       3 <- 43         0.00087
       3 <- 46         0.00193
       3 <- 47         0.00063
       3 <- 51        -0.00019
       3 <- 54         0.00026
       4 <- 10         0.01033
       4 <- 11        -0.00437
       4 <- 14         0.00669
       4 <- 16        -0.00017
       4 <- 19         0.00582
       4 <- 20         0.00430
       4 <- 21         0.00051
       4 <- 24        -0.00502
       4 <- 26         0.00381
       4 <- 28        -0.00014
       4 <- 32        -0.00185
       4 <- 34         0.00238
       4 <- 36         0.00054
       4 <- 39        -0.00013
       4 <- 41        -0.00022
       4 <- 46        -0.00041
       4 <- 47        -0.00127
       4 <- 51         0.00027
       5 <- 12         0.00912
       5 <- 15         0.01364
       5 <- 18         0.00196
       5 <- 22        -0.00154
       5 <- 25         0.00808
       5 <- 30        -0.00267
       5 <- 33        -0.00173
       5 <- 35         0.00051
       5 <- 40         0.00129
       5 <- 42         0.00063
       5 <- 49         0.00039
       5 <- 50        -0.00033
       5 <- 53        -0.00040
       6 <- 10        -0.00359
       6 <- 11        -0.00493
       6 <- 14        -0.00174
       6 <- 16        -0.00810
       6 <- 19         0.01598
       6 <- 20        -0.02018
       6 <- 21        -0.01430
       6 <- 24        -0.01551
       6 <- 26        -0.00974
       6 <- 28        -0.00752
       6 <- 34        -0.00291
       6 <- 36         0.00220
       6 <- 41        -0.00091
       6 <- 46         0.00045
       6 <- 47         0.00135
       6 <- 51         0.00041
       7 <-  9        -0.07948
       7 <- 13         0.01443
       7 <- 17        -0.01360
       7 <- 23         0.00887
       7 <- 29        -0.00606
       7 <- 31         0.00102
       7 <- 37        -0.00045
       7 <- 52         0.00078
       8 <- 12         0.00107
       8 <- 15         0.02423
       8 <- 18        -0.00426
       8 <- 22        -0.01936
       8 <- 25         0.00167
       8 <- 30        -0.00821
       8 <- 33         0.00457
       8 <- 35        -0.00579
       8 <- 40        -0.00246
       8 <- 42        -0.00034
       8 <- 49         0.00034
       8 <- 50         0.00037
       8 <- 53        -0.00095
 
 Excited State   8:      Singlet-A2     9.4687 eV  130.94 nm  f=0.0000  <S**2>=0.000
       3 -> 27        -0.00094
       3 -> 38        -0.00044
       3 -> 45         0.00067
       4 -> 27        -0.00578
       4 -> 38         0.00055
       4 -> 45        -0.00073
       5 ->  9         0.70466
       5 -> 13        -0.04197
       5 -> 17         0.01362
       5 -> 23        -0.01487
       5 -> 29         0.00293
       5 -> 31        -0.00043
       5 -> 37        -0.00504
       5 -> 44        -0.00193
       5 -> 48        -0.00014
       5 -> 52         0.00042
       6 -> 27        -0.00150
       6 -> 38         0.00175
       6 -> 45         0.00073
       7 -> 12         0.01801
       7 -> 15         0.01480
       7 -> 18         0.00133
       7 -> 22        -0.00556
       7 -> 25         0.00109
       7 -> 30        -0.00121
       7 -> 35        -0.00078
       7 -> 40        -0.00024
       7 -> 42        -0.00023
       7 -> 49        -0.00039
       7 -> 50        -0.00063
       7 -> 53         0.00014
       8 ->  9        -0.02073
       8 -> 13         0.00075
       8 -> 17         0.01840
       8 -> 23         0.00237
       8 -> 29         0.00349
       8 -> 31         0.00031
       8 -> 37         0.00394
       8 -> 44         0.00033
       8 -> 48         0.00016
       8 -> 52         0.00068
       3 <- 27        -0.00142
       3 <- 38        -0.00058
       3 <- 45         0.00088
       4 <- 27        -0.00445
       4 <- 38         0.00057
       4 <- 45        -0.00021
       5 <-  9        -0.00958
       5 <- 13         0.00212
       5 <- 17        -0.00099
       5 <- 23         0.00013
       5 <- 29         0.00054
       5 <- 31        -0.00232
       5 <- 37        -0.00286
       5 <- 44        -0.00033
       5 <- 48        -0.00028
       5 <- 52         0.00015
       6 <- 27        -0.00153
       6 <- 38         0.00118
       6 <- 45         0.00046
       7 <- 12        -0.00162
       7 <- 15        -0.00199
       7 <- 22        -0.00169
       7 <- 25        -0.00237
       7 <- 30         0.00090
       7 <- 33         0.00043
       7 <- 35        -0.00069
       7 <- 40        -0.00056
       7 <- 42        -0.00047
       7 <- 49        -0.00055
       7 <- 50        -0.00071
       7 <- 53         0.00046
       8 <-  9         0.00028
       8 <- 13        -0.00043
       8 <- 17        -0.00157
       8 <- 23         0.00066
       8 <- 29        -0.00230
       8 <- 31         0.00262
       8 <- 37         0.00153
       8 <- 44        -0.00012
       8 <- 48         0.00013
       8 <- 52         0.00013
 
 Excited State   9:      Singlet-B1     9.8819 eV  125.47 nm  f=0.0406  <S**2>=0.000
       3 ->  9         0.00316
       3 -> 13         0.00130
       3 -> 17         0.00047
       3 -> 23        -0.00037
       3 -> 29        -0.00032
       3 -> 31        -0.00036
       3 -> 44        -0.00040
       3 -> 48         0.00020
       3 -> 52        -0.00015
       4 ->  9         0.01475
       4 -> 13        -0.00078
       4 -> 23        -0.00233
[...]
  46        4PY        -0.00000  -0.00000  -0.03566  -0.08324  -0.11793
  47        4PZ        -0.00269   0.00000   0.01255   0.01930   0.01040
  48        5S         -0.00138   0.00000   0.00436   0.00742   0.00570
  49        5PX         0.00000   0.00000   0.00000   0.00000   0.00000
  50        5PY        -0.00000  -0.00000  -0.01896  -0.03469  -0.03224
  51        5PZ        -0.00025   0.00000   0.00265   0.00346   0.00054
  52        6D 0        0.00030   0.00000  -0.00080  -0.00137  -0.00113
  53        6D+1        0.00000  -0.00000   0.00000   0.00000   0.00000
  54        6D-1        0.00000  -0.00000  -0.00229  -0.00221   0.00240
  55        6D+2        0.00002   0.00000  -0.00007  -0.00008  -0.00001
  56        6D-2        0.00000   0.00000   0.00000   0.00000   0.00000
                          26        27        28        29        30
  26        4PX         0.00023
  27        4PY         0.00000   0.00111
  28        4PZ         0.00000  -0.00047   0.00044
  29 3   H  1S          0.00000  -0.00217  -0.00218   0.08011
  30        2S          0.00000  -0.00249  -0.00348   0.11616   0.17293
  31        3S          0.00000  -0.00013  -0.00179   0.04671   0.08052
  32        4PX         0.00023   0.00000   0.00000   0.00000   0.00000
  33        4PY         0.00000  -0.00053  -0.00007   0.00787   0.01024
  34        4PZ         0.00000   0.00007  -0.00010   0.00439   0.00606
  35 4   O  1S          0.00000  -0.00019  -0.00085   0.00236   0.00188
  36        2S          0.00000  -0.00048  -0.00097   0.00398   0.00369
  37        2PX         0.00508   0.00000   0.00000   0.00000   0.00000
  38        2PY         0.00000  -0.00347   0.00160   0.02072   0.05412
  39        2PZ         0.00000  -0.00141  -0.00334   0.01219   0.01952
  40        3S          0.00000   0.00215   0.00140  -0.01330  -0.01432
  41        3PX         0.00749   0.00000   0.00000   0.00000   0.00000
  42        3PY         0.00000  -0.00509   0.00239   0.02922   0.07724
  43        3PZ         0.00000  -0.00200  -0.00476   0.01732   0.02770
  44        4S          0.00000   0.00138  -0.00126  -0.00632  -0.00327
  45        4PX         0.00618   0.00000   0.00000   0.00000   0.00000
  46        4PY         0.00000  -0.00384   0.00140   0.03566   0.08324
  47        4PZ         0.00000  -0.00157  -0.00255   0.01255   0.01930
  48        5S          0.00000  -0.00041  -0.00168   0.00436   0.00742
  49        5PX         0.00056   0.00000   0.00000   0.00000   0.00000
  50        5PY         0.00000   0.00002  -0.00058   0.01896   0.03469
  51        5PZ         0.00000  -0.00043   0.00007   0.00265   0.00346
  52        6D 0        0.00000   0.00007   0.00036  -0.00080  -0.00137
  53        6D+1       -0.00050   0.00000   0.00000   0.00000   0.00000
  54        6D-1        0.00000   0.00043  -0.00034   0.00229   0.00221
  55        6D+2        0.00000   0.00001   0.00001  -0.00007  -0.00008
  56        6D-2       -0.00000   0.00000   0.00000   0.00000   0.00000
                          31        32        33        34        35
  31        3S          0.06472
  32        4PX         0.00000   0.00023
  33        4PY         0.00131   0.00000   0.00111
  34        4PZ         0.00146   0.00000   0.00047   0.00044
  35 4   O  1S          0.00079   0.00000   0.00019  -0.00085   0.64003
  36        2S          0.00093   0.00000   0.00048  -0.00097   0.56959
  37        2PX         0.00000   0.00508   0.00000   0.00000   0.00000
  38        2PY         0.08687   0.00000  -0.00347  -0.00160  -0.00000
  39        2PZ         0.01228   0.00000   0.00141  -0.00334  -0.01144
  40        3S         -0.00158   0.00000  -0.00215   0.00140  -0.13686
  41        3PX         0.00000   0.00749   0.00000   0.00000   0.00000
  42        3PY         0.12544   0.00000  -0.00509  -0.00239  -0.00000
  43        3PZ         0.01745   0.00000   0.00200  -0.00476  -0.01391
  44        4S          0.00632   0.00000  -0.00138  -0.00126  -0.13404
  45        4PX         0.00000   0.00618   0.00000   0.00000   0.00000
  46        4PY         0.11793   0.00000  -0.00384  -0.00140  -0.00000
  47        4PZ         0.01040   0.00000   0.00157  -0.00255  -0.01270
  48        5S          0.00570   0.00000   0.00041  -0.00168   0.00009
  49        5PX         0.00000   0.00056   0.00000   0.00000   0.00000
  50        5PY         0.03224   0.00000   0.00002   0.00058  -0.00000
  51        5PZ         0.00054   0.00000   0.00043   0.00007  -0.00145
  52        6D 0       -0.00113   0.00000  -0.00007   0.00036  -0.00066
  53        6D+1        0.00000  -0.00050   0.00000   0.00000   0.00000
  54        6D-1       -0.00240   0.00000   0.00043   0.00034   0.00000
  55        6D+2       -0.00001   0.00000  -0.00001   0.00001  -0.00073
  56        6D-2        0.00000   0.00000   0.00000   0.00000   0.00000
                          36        37        38        39        40
  36        2S          0.52422
  37        2PX         0.00000   0.11134
  38        2PY        -0.00000   0.00000   0.18403
  39        2PZ        -0.01787  -0.00000  -0.00000   0.13169
  40        3S         -0.23063   0.00000   0.00000   0.05184   0.71347
  41        3PX         0.00000   0.16416   0.00000   0.00000   0.00000
  42        3PY        -0.00000   0.00000   0.26700   0.00000   0.00000
  43        3PZ        -0.02263  -0.00000  -0.00000   0.18673   0.06891
  44        4S         -0.20900   0.00000   0.00000   0.12711   0.59348
  45        4PX         0.00000   0.13544   0.00000   0.00000   0.00000
  46        4PY        -0.00000   0.00000   0.23673   0.00000   0.00000
  47        4PZ        -0.02138  -0.00000  -0.00000   0.11000   0.06685
  48        5S         -0.00369   0.00000   0.00000   0.06250   0.02422
  49        5PX         0.00000   0.01219   0.00000   0.00000   0.00000
  50        5PY        -0.00000   0.00000   0.04868   0.00000   0.00000
  51        5PZ        -0.00227  -0.00000  -0.00000   0.00325   0.00637
  52        6D 0       -0.00125   0.00000   0.00000  -0.01188   0.00418
  53        6D+1       -0.00000  -0.01086   0.00000  -0.00000   0.00000
  54        6D-1       -0.00000   0.00000  -0.01006  -0.00000   0.00000
  55        6D+2       -0.00118   0.00000   0.00000   0.00023   0.00351
  56        6D-2        0.00000  -0.00000  -0.00000   0.00000   0.00000
                          41        42        43        44        45
  41        3PX         0.24203
  42        3PY         0.00000   0.38738
  43        3PZ        -0.00000  -0.00000   0.26483
  44        4S          0.00000   0.00000   0.17660   0.54997
  45        4PX         0.19969   0.00000   0.00000   0.00000   0.16476
  46        4PY         0.00000   0.34328   0.00000   0.00000   0.00000
  47        4PZ        -0.00000  -0.00000   0.15582   0.12419  -0.00000
  48        5S          0.00000   0.00000   0.08867   0.06001   0.00000
  49        5PX         0.01797   0.00000   0.00000   0.00000   0.01483
  50        5PY         0.00000   0.07037   0.00000   0.00000   0.00000
  51        5PZ        -0.00000  -0.00000   0.00455   0.00682  -0.00000
  52        6D 0        0.00000   0.00000  -0.01690  -0.00459   0.00000
  53        6D+1       -0.01601   0.00000  -0.00000   0.00000  -0.01321
  54        6D-1        0.00000  -0.01466  -0.00000  -0.00000   0.00000
  55        6D+2        0.00000   0.00000   0.00031   0.00290   0.00000
  56        6D-2       -0.00000  -0.00000   0.00000   0.00000  -0.00000
                          46        47        48        49        50
  46        4PY         0.30625
  47        4PZ        -0.00000   0.09299
  48        5S          0.00000   0.05208   0.02987
  49        5PX         0.00000   0.00000   0.00000   0.00133
  50        5PY         0.06521   0.00000   0.00000   0.00000   0.01676
  51        5PZ        -0.00000   0.00313   0.00138  -0.00000  -0.00000
  52        6D 0        0.00000  -0.00957  -0.00568   0.00000   0.00000
  53        6D+1        0.00000  -0.00000  -0.00000  -0.00119   0.00000
  54        6D-1       -0.01228  -0.00000  -0.00000   0.00000  -0.00167
  55        6D+2        0.00000   0.00031   0.00011  -0.00000   0.00000
  56        6D-2       -0.00000   0.00000   0.00000  -0.00000   0.00000
                          51        52        53        54        55
  51        5PZ         0.00034
  52        6D 0       -0.00018   0.00120
  53        6D+1       -0.00000  -0.00000   0.00106
  54        6D-1       -0.00000  -0.00000   0.00000   0.00080
  55        6D+2        0.00003   0.00002  -0.00000  -0.00000   0.00002
  56        6D-2        0.00000   0.00000   0.00000   0.00000   0.00000
                          56
  56        6D-2        0.00000
          Condensed to atoms (all electrons):
               1          2          3          4
     1  C    4.858154   0.377701   0.377701   0.382136
     2  H    0.377701   0.645623  -0.091693  -0.058838
     3  H    0.377701  -0.091693   0.645623  -0.058838
     4  O    0.382136  -0.058838  -0.058838   7.994265
 Mulliken charges:
               1
     1  C    0.004308
     2  H    0.127208
     3  H    0.127208
     4  O   -0.258724
 Sum of Mulliken charges =   0.00000
 Mulliken charges with hydrogens summed into heavy atoms:
               1
     1  C    0.258724
     4  O   -0.258724
 Electronic spatial extent (au):  <R**2>=             63.3795
 Charge=             -0.0000 electrons
 Dipole moment (field-independent basis, Debye):
    X=             -0.0000    Y=              0.0000    Z=             -2.7566  Tot=              2.7566
 Quadrupole moment (field-independent basis, Debye-Ang):
   XX=            -11.9357   YY=            -11.7302   ZZ=            -12.2724
   XY=              0.0000   XZ=              0.0000   YZ=             -0.0000
 Traceless Quadrupole moment (field-independent basis, Debye-Ang):
   XX=              0.0437   YY=              0.2492   ZZ=             -0.2929
   XY=              0.0000   XZ=              0.0000   YZ=             -0.0000
 Octapole moment (field-independent basis, Debye-Ang**2):
  XXX=              0.0000  YYY=              0.0000  ZZZ=             -0.2859  XYY=             -0.0000
  XXY=             -0.0000  XXZ=              0.6235  XZZ=             -0.0000  YZZ=              0.0000
  YYZ=             -0.9059  XYZ=             -0.0000
 Hexadecapole moment (field-independent basis, Debye-Ang**3):
 XXXX=            -11.1311 YYYY=            -18.7195 ZZZZ=            -49.4599 XXXY=             -0.0000
 XXXZ=             -0.0000 YYYX=             -0.0000 YYYZ=             -0.0000 ZZZX=             -0.0000
 ZZZY=             -0.0000 XXYY=             -5.3115 XXZZ=            -10.1796 YYZZ=            -10.9022
 XXYZ=             -0.0000 YYXZ=              0.0000 ZZXY=              0.0000
 N-N= 3.016326801182D+01 E-N=-3.292274070871D+02  KE= 1.139167102328D+02
 Symmetry A1   KE= 1.034825510987D+02
 Symmetry A2   KE= 1.821169538280D-35
 Symmetry B1   KE= 3.651342550831D+00
 Symmetry B2   KE= 6.782816583264D+00
 Leave Link  601 at Fri Sep 17 10:52:44 2021, MaxMem=   268435456 cpu:               0.0 elap:               0.1
 (Enter /software/gaussian/g16-a03/l9999.exe)
 Electronic transition elements 
                 1             2             3             4             5 
      1  -0.114404D+03 -0.114282D+03 -0.114254D+03 -0.114245D+03 -0.114228D+03
      2   0.000000D+00  0.000000D+00  0.000000D+00  0.000000D+00  0.753249D-01
      3   0.000000D+00  0.369090D+00  0.380635D+00  0.000000D+00  0.000000D+00
      4   0.000000D+00  0.000000D+00  0.000000D+00 -0.458950D+00  0.000000D+00
      5   0.000000D+00  0.000000D+00  0.000000D+00  0.000000D+00 -0.364852D-01
      6   0.000000D+00 -0.954602D-01 -0.112095D+00  0.000000D+00  0.000000D+00
      7   0.000000D+00  0.000000D+00  0.000000D+00  0.130888D+00  0.000000D+00
      8   0.000000D+00 -0.415681D+00  0.672435D+00  0.000000D+00  0.000000D+00
      9   0.000000D+00  0.000000D+00  0.000000D+00  0.000000D+00 -0.158390D+01
     10   0.119340D+01  0.000000D+00  0.000000D+00  0.000000D+00  0.000000D+00
     11   0.000000D+00  0.000000D+00  0.000000D+00 -0.354578D-01  0.000000D+00
     12   0.000000D+00  0.000000D+00  0.000000D+00 -0.286501D+00  0.000000D+00
     13   0.000000D+00  0.000000D+00  0.000000D+00 -0.265551D+00  0.000000D+00
     14  -0.833329D-01  0.000000D+00  0.000000D+00  0.000000D+00  0.000000D+00
     15   0.000000D+00  0.000000D+00  0.000000D+00  0.000000D+00 -0.319868D+00
     16   0.000000D+00  0.475107D+00 -0.218914D-01  0.000000D+00  0.000000D+00
                 6             7             8             9            10 
      1  -0.114226D+03 -0.114217D+03 -0.114188D+03 -0.114173D+03 -0.114157D+03
      2   0.000000D+00  0.000000D+00  0.000000D+00 -0.409438D+00  0.000000D+00
      3   0.000000D+00  0.000000D+00  0.000000D+00  0.000000D+00  0.587675D+00
      4   0.000000D+00  0.833950D+00  0.000000D+00  0.000000D+00  0.000000D+00
      5   0.000000D+00  0.000000D+00  0.000000D+00  0.152522D+00  0.000000D+00
      6   0.000000D+00  0.000000D+00  0.000000D+00  0.000000D+00 -0.221820D+00
      7   0.000000D+00 -0.254872D+00  0.000000D+00  0.000000D+00  0.000000D+00
      8   0.000000D+00  0.000000D+00  0.000000D+00  0.000000D+00 -0.795934D+00
      9   0.000000D+00  0.000000D+00  0.000000D+00 -0.447965D-02  0.000000D+00
     10  -0.362067D-01  0.000000D+00 -0.726591D+00  0.000000D+00  0.000000D+00
     11   0.000000D+00  0.227201D+00  0.000000D+00  0.000000D+00  0.000000D+00
     12   0.000000D+00 -0.253079D-01  0.000000D+00  0.000000D+00  0.000000D+00
     13   0.000000D+00 -0.197746D+00  0.000000D+00  0.000000D+00  0.000000D+00
     14  -0.604628D-01  0.000000D+00  0.213012D+00  0.000000D+00  0.000000D+00
     15   0.000000D+00  0.000000D+00  0.000000D+00 -0.128621D+00  0.000000D+00
     16   0.000000D+00  0.000000D+00  0.000000D+00  0.000000D+00  0.502119D+00
                11            12            13            14            15 
      1  -0.114142D+03 -0.114137D+03 -0.114114D+03 -0.114112D+03 -0.114110D+03
      2   0.440488D+00  0.000000D+00  0.000000D+00  0.000000D+00  0.000000D+00
      3   0.000000D+00  0.000000D+00 -0.490801D-01  0.000000D+00  0.000000D+00
      4   0.000000D+00  0.000000D+00  0.000000D+00 -0.903226D-01 -0.239901D+00
      5  -0.181841D+00  0.000000D+00  0.000000D+00  0.000000D+00  0.000000D+00
      6   0.000000D+00  0.000000D+00 -0.181179D-02  0.000000D+00  0.000000D+00
      7   0.000000D+00  0.000000D+00  0.000000D+00  0.428066D-01  0.104916D+00
      8   0.000000D+00  0.000000D+00  0.514123D+00  0.000000D+00  0.000000D+00
      9   0.860860D-01  0.000000D+00  0.000000D+00  0.000000D+00  0.000000D+00
     10   0.000000D+00  0.374419D-01  0.000000D+00  0.000000D+00  0.000000D+00
     11   0.000000D+00  0.000000D+00  0.000000D+00  0.433469D+00  0.585403D+00
     12   0.000000D+00  0.000000D+00  0.000000D+00  0.657041D-01 -0.136775D+00
     13   0.000000D+00  0.000000D+00  0.000000D+00 -0.108153D+00  0.687354D-01
     14   0.000000D+00  0.280916D+00  0.000000D+00  0.000000D+00  0.000000D+00
     15  -0.286486D+00  0.000000D+00  0.000000D+00  0.000000D+00  0.000000D+00
     16   0.000000D+00  0.000000D+00  0.336908D+00  0.000000D+00  0.000000D+00
                16            17            18            19            20 
      1  -0.114089D+03 -0.114083D+03 -0.114079D+03 -0.114073D+03 -0.114071D+03
      2   0.000000D+00  0.000000D+00  0.000000D+00  0.000000D+00  0.000000D+00
      3   0.000000D+00  0.000000D+00  0.000000D+00 -0.382132D+00 -0.584333D+00
      4  -0.613351D+00  0.000000D+00  0.973924D+00  0.000000D+00  0.000000D+00
      5   0.000000D+00  0.000000D+00  0.000000D+00  0.000000D+00  0.000000D+00
      6   0.000000D+00  0.000000D+00  0.000000D+00  0.174439D+00  0.268888D+00
      7   0.266588D+00  0.000000D+00 -0.452603D+00  0.000000D+00  0.000000D+00
      8   0.000000D+00  0.000000D+00  0.000000D+00 -0.195011D+00  0.356748D+00
      9   0.000000D+00  0.000000D+00  0.000000D+00  0.000000D+00  0.000000D+00
     10   0.000000D+00 -0.118910D-01  0.000000D+00  0.000000D+00  0.000000D+00
     11  -0.286468D+00  0.000000D+00 -0.723387D-01  0.000000D+00  0.000000D+00
     12  -0.727511D+00  0.000000D+00  0.232179D+00  0.000000D+00  0.000000D+00
     13  -0.694015D+00  0.000000D+00  0.336657D+00  0.000000D+00  0.000000D+00
     14   0.000000D+00  0.341557D+00  0.000000D+00  0.000000D+00  0.000000D+00
     15   0.000000D+00  0.000000D+00  0.000000D+00  0.000000D+00  0.000000D+00
     16   0.000000D+00  0.000000D+00  0.000000D+00 -0.226745D+00 -0.642687D+00
                21            22            23            24            25 
      1  -0.114058D+03 -0.114057D+03 -0.114054D+03 -0.114044D+03 -0.114037D+03
      2   0.251105D+00  0.000000D+00 -0.207579D+00  0.000000D+00  0.000000D+00
      3   0.000000D+00  0.000000D+00  0.000000D+00 -0.168869D+00  0.305490D+00
      4   0.000000D+00 -0.496025D+00  0.000000D+00  0.000000D+00  0.000000D+00
      5  -0.988471D-01  0.000000D+00  0.956507D-01  0.000000D+00  0.000000D+00
      6   0.000000D+00  0.000000D+00  0.000000D+00  0.872564D-01 -0.153968D+00
      7   0.000000D+00  0.229932D+00  0.000000D+00  0.000000D+00  0.000000D+00
      8   0.000000D+00  0.000000D+00  0.000000D+00 -0.584556D+00 -0.543755D+00
      9  -0.147021D+00  0.000000D+00  0.305994D+00  0.000000D+00  0.000000D+00
     10   0.000000D+00  0.000000D+00  0.000000D+00  0.000000D+00  0.000000D+00
     11   0.000000D+00  0.196338D+00  0.000000D+00  0.000000D+00  0.000000D+00
     12   0.000000D+00  0.514513D+00  0.000000D+00  0.000000D+00  0.000000D+00
     13   0.000000D+00  0.249056D+00  0.000000D+00  0.000000D+00  0.000000D+00
     14   0.000000D+00  0.000000D+00  0.000000D+00  0.000000D+00  0.000000D+00
     15   0.495743D-01  0.000000D+00  0.270887D-02  0.000000D+00  0.000000D+00
     16   0.000000D+00  0.000000D+00  0.000000D+00  0.187469D+00 -0.280614D+00
                26            27            28            29            30 
      1  -0.114023D+03 -0.114020D+03 -0.114015D+03 -0.114005D+03 -0.113993D+03
      2   0.000000D+00  0.000000D+00  0.000000D+00 -0.298499D-01  0.000000D+00
      3   0.000000D+00  0.000000D+00  0.000000D+00  0.000000D+00  0.000000D+00
      4   0.844199D-01  0.000000D+00  0.000000D+00  0.000000D+00  0.266922D+00
      5   0.000000D+00  0.000000D+00  0.000000D+00  0.221556D-01  0.000000D+00
      6   0.000000D+00  0.000000D+00  0.000000D+00  0.000000D+00  0.000000D+00
      7  -0.362259D-01  0.000000D+00  0.000000D+00  0.000000D+00 -0.143796D+00
      8   0.000000D+00  0.000000D+00  0.000000D+00  0.000000D+00  0.000000D+00
      9   0.000000D+00  0.000000D+00  0.000000D+00 -0.174154D+00  0.000000D+00
     10   0.000000D+00 -0.165684D-01  0.354821D-01  0.000000D+00  0.000000D+00
     11   0.331556D+00  0.000000D+00  0.000000D+00  0.000000D+00 -0.180386D+00
     12   0.106383D+01  0.000000D+00  0.000000D+00  0.000000D+00  0.457220D+00
     13   0.252462D+00  0.000000D+00  0.000000D+00  0.000000D+00 -0.146344D+00
     14   0.000000D+00 -0.269239D+00  0.295018D+00  0.000000D+00  0.000000D+00
     15   0.000000D+00  0.000000D+00  0.000000D+00  0.313872D-02  0.000000D+00
     16   0.000000D+00  0.000000D+00  0.000000D+00  0.000000D+00  0.000000D+00

 Test job not archived.
 1\1\GINC-BHD0013\SP\RB3LYP TD-FC\6-311+G(d,p)\C1H2O1\BWEIGHT\17-Sep-20
 21\0\\#p B3LYP/6-311+G** #p TD=(singlets,nstates=30)IOp(6/8=3) IOp(9/4
 0=4)\\Scan Step 153, Bond Length 1.2650000000000001\\0,1\C,0,0.,0.,-0.
 52736\H,0,0.,0.93726,-1.11871\H,0,0.,-0.93726,-1.11871\O,0,0.,0.,0.737
 64\\Version=ES64L-G16RevA.03\State=1-A1\HF=-114.5362302\RMSD=4.134e-09
 \PG=C02V [C2(C1O1),SGV(H2)]\\@


 THE MEEK SHALL INHERIT THE EARTH.
 (THE REST OF US WILL ESCAPE TO THE STARS)
 Job cpu time:       0 days  0 hours  0 minutes 25.9 seconds.
 Elapsed time:       0 days  0 hours  0 minutes 26.8 seconds.
 File lengths (MBytes):  RWF=     79 Int=      0 D2E=      0 Chk=     32 Scr=      1
 Normal termination of Gaussian 16 at Fri Sep 17 10:52:45 2021.
