 Entering Gaussian System, Link 0=g16
 Initial command:
 /software/gaussian/g16-c01/sse4/g16/l1.exe "/local_scratch/24665238/Gau-25710.inp" -scrdir="/local_scratch/24665238/"
 Entering Link 1 = /software/gaussian/g16-c01/sse4/g16/l1.exe PID=     25740.
  
 Copyright (c) 1988-2019, Gaussian, Inc.  All Rights Reserved.
  
 This is part of the Gaussian(R) 16 program.  It is based on
 the Gaussian(R) 09 system (copyright 2009, Gaussian, Inc.),
 the Gaussian(R) 03 system (copyright 2003, Gaussian, Inc.),
 the Gaussian(R) 98 system (copyright 1998, Gaussian, Inc.),
 the Gaussian(R) 94 system (copyright 1995, Gaussian, Inc.),
 the Gaussian 92(TM) system (copyright 1992, Gaussian, Inc.),
 the Gaussian 90(TM) system (copyright 1990, Gaussian, Inc.),
 the Gaussian 88(TM) system (copyright 1988, Gaussian, Inc.),
 the Gaussian 86(TM) system (copyright 1986, Carnegie Mellon
 University), and the Gaussian 82(TM) system (copyright 1983,
 Carnegie Mellon University). Gaussian is a federally registered
 trademark of Gaussian, Inc.
  
 This software contains proprietary and confidential information,
 including trade secrets, belonging to Gaussian, Inc.
  
 This software is provided under written license and may be
 used, copied, transmitted, or stored only in accord with that
 written license.
  
 The following legend is applicable only to US Government
 contracts under FAR:
  
                    RESTRICTED RIGHTS LEGEND
  
 Use, reproduction and disclosure by the US Government is
 subject to restrictions as set forth in subparagraphs (a)
 and (c) of the Commercial Computer Software - Restricted
 Rights clause in FAR 52.227-19.
  
 Gaussian, Inc.
 340 Quinnipiac St., Bldg. 40, Wallingford CT 06492
  
  
 ---------------------------------------------------------------
 Warning -- This program may not be used in any manner that
 competes with the business of Gaussian, Inc. or will provide
 assistance to any competitor of Gaussian, Inc.  The licensee
 of this program is prohibited from giving any competitor of
 Gaussian, Inc. access to this program.  By using this program,
 the user acknowledges that Gaussian, Inc. is engaged in the
 business of creating and licensing software in the field of
 computational chemistry and represents and warrants to the
 licensee that it is not a competitor of Gaussian, Inc. and that
 it will not use this program in any manner prohibited above.
 ---------------------------------------------------------------
  

 Cite this work as:
 Gaussian 16, Revision C.01,
 M. J. Frisch, G. W. Trucks, H. B. Schlegel, G. E. Scuseria, 
 M. A. Robb, J. R. Cheeseman, G. Scalmani, V. Barone, 
 G. A. Petersson, H. Nakatsuji, X. Li, M. Caricato, A. V. Marenich, 
 J. Bloino, B. G. Janesko, R. Gomperts, B. Mennucci, H. P. Hratchian, 
 J. V. Ortiz, A. F. Izmaylov, J. L. Sonnenberg, D. Williams-Young, 
 F. Ding, F. Lipparini, F. Egidi, J. Goings, B. Peng, A. Petrone, 
 T. Henderson, D. Ranasinghe, V. G. Zakrzewski, J. Gao, N. Rega, 
 G. Zheng, W. Liang, M. Hada, M. Ehara, K. Toyota, R. Fukuda, 
 J. Hasegawa, M. Ishida, T. Nakajima, Y. Honda, O. Kitao, H. Nakai, 
 T. Vreven, K. Throssell, J. A. Montgomery, Jr., J. E. Peralta, 
 F. Ogliaro, M. J. Bearpark, J. J. Heyd, E. N. Brothers, K. N. Kudin, 
 V. N. Staroverov, T. A. Keith, R. Kobayashi, J. Normand, 
 K. Raghavachari, A. P. Rendell, J. C. Burant, S. S. Iyengar, 
 J. Tomasi, M. Cossi, J. M. Millam, M. Klene, C. Adamo, R. Cammi, 
 J. W. Ochterski, R. L. Martin, K. Morokuma, O. Farkas, 
 J. B. Foresman, and D. J. Fox, Gaussian, Inc., Wallingford CT, 2019.
 
 ******************************************
 Gaussian 16:  ES64L-G16RevC.01  3-Jul-2019
                 2-May-2024 
 ******************************************
 %chk=geometry.chk
 %mem=1GB
 %nprocshared=12
 Will use up to   12 processors via shared memory.
 ----------------------------------------
 #P wB97XD/6-311+G* NoSymm #P Field=X-243
 ----------------------------------------
 1/38=1,172=1/1;
 2/12=2,15=1,17=6,18=5,40=1/2;
 3/5=4,6=6,7=11,11=2,14=1,15=-243,25=1,30=1,74=-58/1,2,3;
 4//1;
 5/5=2,38=5/2;
 6/7=2,8=2,9=2,10=2,28=1/1;
 99/5=1,9=1/99;
 Leave Link    1 at Thu May  2 13:57:31 2024, MaxMem=   134217728 cpu:               1.7 elap:               1.7
 (Enter /software/gaussian/g16-c01/sse4/g16/l101.exe)
 -------
 TitleMe
 -------
 Symbolic Z-matrix:
 Charge =  1 Multiplicity = 1
 C                     0.5193    1.233    -0.0319 
 C                     1.9445    1.2692   -0.0367 
 C                     2.6204    0.0928   -0.025 
 C                    -0.196     0.0301    0.001 
 H                    -0.0207    2.1742   -0.0434 
 H                     2.4828    2.2089   -0.0361 
 H                    -1.2777    0.0399    0.0117 
 N                     4.0921    0.0959    0.0366 
 O                     4.6393   -1.0217    0.1446 
 O                     4.6649    1.1984   -0.0233 
 C                     0.4943   -1.1671    0.021 
 H                    -0.0325   -2.1149    0.0545 
 C                     1.9629   -1.2165   -0.0211 
 H                     2.4436   -1.9631    0.6151 
 Br                    2.173    -1.9491   -1.9062 
 
 ITRead=  0  0  0  0  0  0  0  0  0  0  0  0  0  0  0
 MicOpt= -1 -1 -1 -1 -1 -1 -1 -1 -1 -1 -1 -1 -1 -1 -1
 NAtoms=     15 NQM=       15 NQMF=       0 NMMI=      0 NMMIF=      0
                NMic=       0 NMicF=      0.
                    Isotopes and Nuclear Properties:
 (Nuclear quadrupole moments (NQMom) in fm**2, nuclear magnetic moments (NMagM)
  in nuclear magnetons)

  Atom         1           2           3           4           5           6           7           8           9          10
 IAtWgt=          12          12          12          12           1           1           1          14          16          16
 AtmWgt=  12.0000000  12.0000000  12.0000000  12.0000000   1.0078250   1.0078250   1.0078250  14.0030740  15.9949146  15.9949146
 NucSpn=           0           0           0           0           1           1           1           2           0           0
 AtZEff=  -0.0000000  -0.0000000  -0.0000000  -0.0000000  -0.0000000  -0.0000000  -0.0000000  -0.0000000  -0.0000000  -0.0000000
 NQMom=    0.0000000   0.0000000   0.0000000   0.0000000   0.0000000   0.0000000   0.0000000   2.0440000   0.0000000   0.0000000
 NMagM=    0.0000000   0.0000000   0.0000000   0.0000000   2.7928460   2.7928460   2.7928460   0.4037610   0.0000000   0.0000000
 AtZNuc=   6.0000000   6.0000000   6.0000000   6.0000000   1.0000000   1.0000000   1.0000000   7.0000000   8.0000000   8.0000000

  Atom        11          12          13          14          15
 IAtWgt=          12           1          12           1          79
 AtmWgt=  12.0000000   1.0078250  12.0000000   1.0078250  78.9183361
 NucSpn=           0           1           0           1           3
 AtZEff=  -0.0000000  -0.0000000  -0.0000000  -0.0000000  -0.0000000
 NQMom=    0.0000000   0.0000000   0.0000000   0.0000000  31.3000000
 NMagM=    0.0000000   2.7928460   0.0000000   2.7928460   2.1063990
 AtZNuc=   6.0000000   1.0000000   6.0000000   1.0000000  35.0000000
 Leave Link  101 at Thu May  2 13:57:33 2024, MaxMem=   134217728 cpu:               1.6 elap:               1.7
 (Enter /software/gaussian/g16-c01/sse4/g16/l202.exe)
                          Input orientation:                          
 ---------------------------------------------------------------------
 Center     Atomic      Atomic             Coordinates (Angstroms)
 Number     Number       Type             X           Y           Z
 ---------------------------------------------------------------------
      1          6           0        0.519300    1.233000   -0.031900
      2          6           0        1.944500    1.269200   -0.036700
      3          6           0        2.620400    0.092800   -0.025000
      4          6           0       -0.196000    0.030100    0.001000
      5          1           0       -0.020700    2.174200   -0.043400
      6          1           0        2.482800    2.208900   -0.036100
      7          1           0       -1.277700    0.039900    0.011700
      8          7           0        4.092100    0.095900    0.036600
      9          8           0        4.639300   -1.021700    0.144600
     10          8           0        4.664900    1.198400   -0.023300
     11          6           0        0.494300   -1.167100    0.021000
     12          1           0       -0.032500   -2.114900    0.054500
     13          6           0        1.962900   -1.216500   -0.021100
     14          1           0        2.443600   -1.963100    0.615100
     15         35           0        2.173000   -1.949100   -1.906200
 ---------------------------------------------------------------------
                    Distance matrix (angstroms):
                    1          2          3          4          5
     1  C    0.000000
     2  C    1.425668   0.000000
     3  C    2.390549   1.356796   0.000000
     4  C    1.399895   2.473566   2.817218   0.000000
     5  H    1.085168   2.163581   3.362733   2.151712   0.000000
     6  H    2.192654   1.082960   2.120598   3.453189   2.503751
     7  H    2.157452   3.449071   3.898632   1.081797   2.477564
     8  N    3.750012   2.448304   1.472992   4.288753   4.608780
     9  O    4.699917   3.541615   2.312322   4.950458   5.653735
    10  O    4.145753   2.721354   2.324292   4.999386   4.786171
    11  C    2.400813   2.835836   2.471794   1.382101   3.381369
    12  H    3.394169   3.920329   3.452266   2.151887   4.290233
    13  C    2.843264   2.485817   1.465124   2.493060   3.928360
    14  H    3.786370   3.334922   2.160489   3.364142   4.860416
    15  Br   4.046416   3.728900   2.812194   3.628609   5.028314
                    6          7          8          9         10
     6  H    0.000000
     7  H    4.341452   0.000000
     8  N    2.657047   5.370150   0.000000
     9  O    3.888434   6.012948   1.249048   0.000000
    10  O    2.404752   6.054572   1.243863   2.226587   0.000000
    11  C    3.918516   2.144043   3.813080   4.149391   4.794941
    12  H    5.003018   2.489080   4.679774   4.798846   5.748876
    13  C    3.464662   3.475788   2.501842   2.688591   3.623886
    14  H    4.222698   4.268978   2.700314   2.434893   3.916224
    15  Br   4.569706   4.420610   3.411663   3.338935   4.434144
                   11         12         13         14         15
    11  C    0.000000
    12  H    1.084880   0.000000
    13  C    1.470034   2.189625   0.000000
    14  H    2.187771   2.543302   1.092353   0.000000
    15  Br   2.672762   2.955683   2.033334   2.535818   0.000000
 Symmetry turned off by external request.
 Stoichiometry    C6H5BrNO2(1+)
 Framework group  C1[X(C6H5BrNO2)]
 Deg. of freedom    39
 Full point group                 C1      NOp   1
 Rotational constants (GHZ):           1.1632986           0.9594224           0.5957624
 Leave Link  202 at Thu May  2 13:57:34 2024, MaxMem=   134217728 cpu:               1.2 elap:               1.2
 (Enter /software/gaussian/g16-c01/sse4/g16/l301.exe)
 Standard basis: 6-311+G(d) (5D, 7F)
 Ernie: Thresh=  0.10000D-02 Tol=  0.10000D-05 Strict=F.
 The following finite field(s) will be applied:
 An electric field of             -0.0243  0.0000  0.0000
   261 basis functions,   443 primitive gaussians,   273 cartesian basis functions
    49 alpha electrons       49 beta electrons
       nuclear repulsion energy       772.8945969580 Hartrees.
 IExCor= 4639 DFT=T Ex+Corr=wB97XD ExCW=0 ScaHFX=  1.000000
 ScaDFX=  1.000000  1.000000  1.000000  1.000000 ScalE2=  1.000000  1.000000
 IRadAn=      5 IRanWt=     -1 IRanGd=            0 ICorTp=0 IEmpDi=121
 HFx  wShort=  0.000000 wLong=  0.200000 cFull=  0.222036 cShort=  0.000000 cLong=  0.777964
 DFx  wShort=  0.000000 wLong=  0.200000 cFull=  0.000000 cShort=  0.000000 cLong=  1.000000
 NAtoms=   15 NActive=   15 NUniq=   15 SFac= 1.00D+00 NAtFMM=   60 NAOKFM=F Big=F
 Integral buffers will be    131072 words long.
 Raffenetti 2 integral format.
 Two-electron integral symmetry is turned off.
 R6Disp:  Grimme-D2 Dispersion energy=       -0.0080346408 Hartrees.
 Nuclear repulsion after empirical dispersion term =      772.8865623173 Hartrees.
 Leave Link  301 at Thu May  2 13:57:35 2024, MaxMem=   134217728 cpu:               1.0 elap:               1.1
 (Enter /software/gaussian/g16-c01/sse4/g16/l302.exe)
 NPDir=0 NMtPBC=     1 NCelOv=     1 NCel=       1 NClECP=     1 NCelD=      1
         NCelK=      1 NCelE2=     1 NClLst=     1 CellRange=     0.0.
 One-electron integrals computed using PRISM.
 NBasis=   261 RedAO= T EigKep=  2.52D-06  NBF=   261
 NBsUse=   261 1.00D-06 EigRej= -1.00D+00 NBFU=   261
 Precomputing XC quadrature grid using
 IXCGrd= 4 IRadAn=           5 IRanWt=          -1 IRanGd=           0 AccXCQ= 0.00D+00.
 Generated NRdTot=       0 NPtTot=           0 NUsed=           0 NTot=          32
 NSgBfM=   273   273   273   273   273 MxSgAt=    15 MxSgA2=    15.
 Leave Link  302 at Thu May  2 13:57:57 2024, MaxMem=   134217728 cpu:              22.0 elap:              22.2
 (Enter /software/gaussian/g16-c01/sse4/g16/l303.exe)
 DipDrv:  MaxL=1.
 The nuclear repulsion energy is now       762.4717730061 hartrees.
 Leave Link  303 at Thu May  2 13:58:00 2024, MaxMem=   134217728 cpu:               3.3 elap:               3.3
 (Enter /software/gaussian/g16-c01/sse4/g16/l401.exe)
 ExpMin= 3.50D-02 ExpMax= 4.40D+05 ExpMxC= 1.51D+04 IAcc=3 IRadAn=         5 AccDes= 0.00D+00
 Harris functional with IExCor= 4639 and IRadAn=       5 diagonalized for initial guess.
 HarFok:  IExCor= 4639 AccDes= 0.00D+00 IRadAn=         5 IDoV= 1 UseB2=F ITyADJ=14
 ICtDFT=  3500011 ScaDFX=  1.000000  1.000000  1.000000  1.000000
 FoFCou: FMM=F IPFlag=           0 FMFlag=      100000 FMFlg1=           0
         NFxFlg=           0 DoJE=T BraDBF=F KetDBF=T FulRan=T
         wScrn=  0.000000 ICntrl=       500 IOpCl=  0 I1Cent=   200000004 NGrid=           0
         NMat0=    1 NMatS0=      1 NMatT0=    0 NMatD0=    1 NMtDS0=    0 NMtDT0=    0
 Symmetry not used in FoFCou.
 Harris En= -2971.36895189286    
 JPrj=0 DoOrth=F DoCkMO=F.
 Leave Link  401 at Thu May  2 13:58:32 2024, MaxMem=   134217728 cpu:              31.4 elap:              31.4
 (Enter /software/gaussian/g16-c01/sse4/g16/l502.exe)
 Two-electron integral symmetry not used.
 Closed shell SCF:
 Using DIIS extrapolation, IDIIS=  1040.
 NGot=   134217728 LenX=   134063053 LenY=   133988083
 Requested convergence on RMS density matrix=1.00D-08 within 128 cycles.
 Requested convergence on MAX density matrix=1.00D-06.
 Requested convergence on             energy=1.00D-06.
 No special actions if energy rises.
 Fock matrices will be formed incrementally for  20 cycles.

 Cycle   1  Pass 1  IDiag  1:
 FoFJK:  IHMeth= 1 ICntrl=       0 DoSepK=T KAlg= 0 I1Cent=           0 FoldK=F
 IRaf=         1 NMat=       1 IRICut=       1 DoRegI=T DoRafI=F ISym2E= 0 IDoP0=0 IntGTp=1.
 FoFCou: FMM=F IPFlag=           0 FMFlag=      100000 FMFlg1=           0
         NFxFlg=           0 DoJE=T BraDBF=F KetDBF=F FulRan=T
         wScrn=  0.000000 ICntrl=       500 IOpCl=  0 I1Cent=           0 NGrid=           0
         NMat0=    1 NMatS0=      1 NMatT0=    0 NMatD0=    1 NMtDS0=    0 NMtDT0=    0
 Symmetry not used in FoFCou.
 E= -3001.20458996205    
 DIIS: error= 2.91D-01 at cycle   1 NSaved=   1.
 NSaved= 1 IEnMin= 1 EnMin= -3001.20458996205     IErMin= 1 ErrMin= 2.91D-01
 ErrMax= 2.91D-01  0.00D+00 EMaxC= 1.00D-01 BMatC= 1.48D+01 BMatP= 1.48D+01
 IDIUse=3 WtCom= 0.00D+00 WtEn= 1.00D+00
 Coeff-Com:  0.100D+01
 Coeff-En:   0.100D+01
 Coeff:      0.100D+01
 Gap=     0.052 Goal=   None    Shift=    0.000
 GapD=    0.052 DampG=0.500 DampE=0.250 DampFc=0.2500 IDamp=-1.
 Damping current iteration by 2.50D-01
 RMSDP=1.78D+01 MaxDP=1.61D+03              OVMax= 9.96D-01

 Cycle   2  Pass 1  IDiag  1:
 RMSU=  3.22D-01    CP:  7.62D-01
 E= -3002.61920722742     Delta-E=       -1.414617265366 Rises=F Damp=T
 DIIS: error= 2.19D-01 at cycle   2 NSaved=   2.
 NSaved= 2 IEnMin= 2 EnMin= -3002.61920722742     IErMin= 2 ErrMin= 2.19D-01
 ErrMax= 2.19D-01  0.00D+00 EMaxC= 1.00D-01 BMatC= 6.15D+00 BMatP= 1.48D+01
 IDIUse=3 WtCom= 0.00D+00 WtEn= 1.00D+00
 Coeff-Com: -0.353D+00 0.135D+01
 Coeff-En:   0.414D+00 0.586D+00
 Coeff:      0.414D+00 0.586D+00
 Gap=    -0.283 Goal=   None    Shift=    0.000
 RMSDP=1.41D+01 MaxDP=1.36D+03 DE=-1.41D+00 OVMax= 9.80D-01

 Cycle   3  Pass 1  IDiag  1:
 RMSU=  9.01D-02    CP:  4.95D-03  1.55D-01
 E= -2998.83308054951     Delta-E=        3.786126677907 Rises=F Damp=F
 DIIS: error= 1.28D-01 at cycle   3 NSaved=   3.
 NSaved= 3 IEnMin= 2 EnMin= -3002.61920722742     IErMin= 3 ErrMin= 1.28D-01
 ErrMax= 1.28D-01  0.00D+00 EMaxC= 1.00D-01 BMatC= 9.14D+00 BMatP= 6.15D+00
 IDIUse=2 WtCom= 0.00D+00 WtEn= 1.00D+00
 EnCoef did   100 forward-backward iterations
 Coeff-En:   0.536D+00 0.806D-02 0.456D+00
 Coeff:      0.536D+00 0.806D-02 0.456D+00
 Gap=    -0.053 Goal=   None    Shift=    0.000
 RMSDP=3.83D-02 MaxDP=1.81D+00 DE= 3.79D+00 OVMax= 6.68D-01

 Cycle   4  Pass 1  IDiag  1:
 RMSU=  3.53D-02    CP:  5.39D-03  1.53D-01  8.63D-01
 E= -3010.22916956808     Delta-E=      -11.396089018574 Rises=F Damp=F
 DIIS: error= 3.06D-02 at cycle   4 NSaved=   4.
 NSaved= 4 IEnMin= 4 EnMin= -3010.22916956808     IErMin= 4 ErrMin= 3.06D-02
 ErrMax= 3.06D-02  0.00D+00 EMaxC= 1.00D-01 BMatC= 4.22D-01 BMatP= 6.15D+00
 IDIUse=3 WtCom= 6.94D-01 WtEn= 3.06D-01
 Coeff-Com:  0.229D-01 0.101D+00 0.285D-02 0.873D+00
 Coeff-En:   0.000D+00 0.000D+00 0.000D+00 0.100D+01
 Coeff:      0.159D-01 0.699D-01 0.198D-02 0.912D+00
 Gap=     0.291 Goal=   None    Shift=    0.000
 RMSDP=6.14D-02 MaxDP=6.00D+00 DE=-1.14D+01 OVMax= 2.94D-01

 Cycle   5  Pass 1  IDiag  1:
 RMSU=  4.13D-02    CP:  4.76D-03  1.88D-01  3.97D-01  8.26D-01
 E= -3010.38391277704     Delta-E=       -0.154743208962 Rises=F Damp=F
 DIIS: error= 2.47D-02 at cycle   5 NSaved=   5.
 NSaved= 5 IEnMin= 5 EnMin= -3010.38391277704     IErMin= 5 ErrMin= 2.47D-02
 ErrMax= 2.47D-02  0.00D+00 EMaxC= 1.00D-01 BMatC= 2.42D-01 BMatP= 4.22D-01
 IDIUse=3 WtCom= 7.53D-01 WtEn= 2.47D-01
 Coeff-Com: -0.271D-02 0.358D-01-0.551D-02 0.435D+00 0.538D+00
 Coeff-En:   0.000D+00 0.000D+00 0.000D+00 0.337D+00 0.663D+00
 Coeff:     -0.204D-02 0.269D-01-0.415D-02 0.411D+00 0.568D+00
 Gap=     0.192 Goal=   None    Shift=    0.000
 RMSDP=1.98D-02 MaxDP=2.00D+00 DE=-1.55D-01 OVMax= 1.46D-01

 Cycle   6  Pass 1  IDiag  1:
 RMSU=  8.05D-03    CP:  4.24D-03  1.53D-01  4.00D-01  8.49D-01  7.51D-01
 E= -3010.57093591084     Delta-E=       -0.187023133793 Rises=F Damp=F
 DIIS: error= 1.96D-02 at cycle   6 NSaved=   6.
 NSaved= 6 IEnMin= 6 EnMin= -3010.57093591084     IErMin= 6 ErrMin= 1.96D-02
 ErrMax= 1.96D-02  0.00D+00 EMaxC= 1.00D-01 BMatC= 2.83D-02 BMatP= 2.42D-01
 IDIUse=3 WtCom= 8.04D-01 WtEn= 1.96D-01
 Coeff-Com: -0.403D-02 0.137D-01-0.138D-02 0.196D+00 0.310D+00 0.485D+00
 Coeff-En:   0.000D+00 0.000D+00 0.000D+00 0.000D+00 0.000D+00 0.100D+01
 Coeff:     -0.324D-02 0.110D-01-0.111D-02 0.158D+00 0.249D+00 0.586D+00
 Gap=     0.190 Goal=   None    Shift=    0.000
 RMSDP=5.33D-03 MaxDP=6.05D-01 DE=-1.87D-01 OVMax= 1.17D-01

 Cycle   7  Pass 1  IDiag  1:
 RMSU=  3.23D-03    CP:  4.39D-03  1.60D-01  3.93D-01  8.75D-01  7.73D-01
                    CP:  8.00D-01
 E= -3010.57785237328     Delta-E=       -0.006916462445 Rises=F Damp=F
 DIIS: error= 1.79D-02 at cycle   7 NSaved=   7.
 NSaved= 7 IEnMin= 7 EnMin= -3010.57785237328     IErMin= 7 ErrMin= 1.79D-02
 ErrMax= 1.79D-02  0.00D+00 EMaxC= 1.00D-01 BMatC= 1.86D-02 BMatP= 2.83D-02
 IDIUse=3 WtCom= 8.21D-01 WtEn= 1.79D-01
 Coeff-Com: -0.308D-02 0.269D-02 0.113D-02 0.344D-01 0.748D-01 0.442D+00
 Coeff-Com:  0.448D+00
 Coeff-En:   0.000D+00 0.000D+00 0.000D+00 0.000D+00 0.000D+00 0.418D+00
 Coeff-En:   0.582D+00
 Coeff:     -0.253D-02 0.221D-02 0.932D-03 0.283D-01 0.614D-01 0.437D+00
 Coeff:      0.472D+00
 Gap=     0.182 Goal=   None    Shift=    0.000
 RMSDP=4.80D-03 MaxDP=6.56D-01 DE=-6.92D-03 OVMax= 5.66D-02

 Cycle   8  Pass 1  IDiag  1:
 RMSU=  1.56D-03    CP:  4.22D-03  1.53D-01  3.83D-01  8.52D-01  7.78D-01
                    CP:  9.60D-01  4.90D-01
 E= -3010.59107764936     Delta-E=       -0.013225276076 Rises=F Damp=F
 DIIS: error= 2.19D-03 at cycle   8 NSaved=   8.
 NSaved= 8 IEnMin= 8 EnMin= -3010.59107764936     IErMin= 8 ErrMin= 2.19D-03
 ErrMax= 2.19D-03  0.00D+00 EMaxC= 1.00D-01 BMatC= 6.69D-04 BMatP= 1.86D-02
 IDIUse=3 WtCom= 9.78D-01 WtEn= 2.19D-02
 Coeff-Com: -0.223D-02 0.283D-02 0.861D-03-0.819D-02-0.121D-01 0.142D+00
 Coeff-Com:  0.237D+00 0.641D+00
 Coeff-En:   0.000D+00 0.000D+00 0.000D+00 0.000D+00 0.000D+00 0.000D+00
 Coeff-En:   0.000D+00 0.100D+01
 Coeff:     -0.219D-02 0.277D-02 0.842D-03-0.801D-02-0.119D-01 0.139D+00
 Coeff:      0.231D+00 0.648D+00
 Gap=     0.180 Goal=   None    Shift=    0.000
 RMSDP=8.22D-04 MaxDP=8.52D-02 DE=-1.32D-02 OVMax= 9.08D-03

 Cycle   9  Pass 1  IDiag  1:
 RMSU=  4.01D-04    CP:  4.20D-03  1.52D-01  3.84D-01  8.47D-01  7.67D-01
                    CP:  9.67D-01  5.57D-01  1.06D+00
 E= -3010.59170929147     Delta-E=       -0.000631642109 Rises=F Damp=F
 DIIS: error= 7.59D-04 at cycle   9 NSaved=   9.
 NSaved= 9 IEnMin= 9 EnMin= -3010.59170929147     IErMin= 9 ErrMin= 7.59D-04
 ErrMax= 7.59D-04  0.00D+00 EMaxC= 1.00D-01 BMatC= 9.62D-05 BMatP= 6.69D-04
 IDIUse=3 WtCom= 9.92D-01 WtEn= 7.59D-03
 Coeff-Com: -0.240D-02 0.346D-02-0.231D-03-0.791D-02-0.148D-01 0.151D-01
 Coeff-Com:  0.496D-01 0.277D+00 0.680D+00
 Coeff-En:   0.000D+00 0.000D+00 0.000D+00 0.000D+00 0.000D+00 0.000D+00
 Coeff-En:   0.000D+00 0.000D+00 0.100D+01
 Coeff:     -0.238D-02 0.343D-02-0.229D-03-0.785D-02-0.147D-01 0.149D-01
 Coeff:      0.493D-01 0.275D+00 0.683D+00
 Gap=     0.181 Goal=   None    Shift=    0.000
 RMSDP=5.36D-04 MaxDP=6.18D-02 DE=-6.32D-04 OVMax= 7.32D-03

 Cycle  10  Pass 1  IDiag  1:
 RMSU=  1.65D-04    CP:  4.19D-03  1.51D-01  3.83D-01  8.48D-01  7.67D-01
                    CP:  9.71D-01  5.47D-01  1.27D+00  1.05D+00
 E= -3010.59187598145     Delta-E=       -0.000166689987 Rises=F Damp=F
 DIIS: error= 3.23D-04 at cycle  10 NSaved=  10.
 NSaved=10 IEnMin=10 EnMin= -3010.59187598145     IErMin=10 ErrMin= 3.23D-04
 ErrMax= 3.23D-04  0.00D+00 EMaxC= 1.00D-01 BMatC= 1.89D-05 BMatP= 9.62D-05
 IDIUse=3 WtCom= 9.97D-01 WtEn= 3.23D-03
 Coeff-Com: -0.767D-03 0.104D-02 0.221D-03-0.942D-04-0.728D-03-0.199D-01
 Coeff-Com: -0.356D-01-0.120D+00 0.172D-01 0.116D+01
 Coeff-En:   0.000D+00 0.000D+00 0.000D+00 0.000D+00 0.000D+00 0.000D+00
 Coeff-En:   0.000D+00 0.000D+00 0.000D+00 0.100D+01
 Coeff:     -0.765D-03 0.103D-02 0.221D-03-0.939D-04-0.726D-03-0.198D-01
 Coeff:     -0.355D-01-0.120D+00 0.172D-01 0.116D+01
 Gap=     0.182 Goal=   None    Shift=    0.000
 RMSDP=6.72D-04 MaxDP=6.83D-02 DE=-1.67D-04 OVMax= 1.05D-02

 Cycle  11  Pass 1  IDiag  1:
 RMSU=  1.30D-04    CP:  4.17D-03  1.50D-01  3.85D-01  8.47D-01  7.61D-01
                    CP:  9.73D-01  5.29D-01  1.44D+00  1.36D+00  1.99D+00
 E= -3010.59197673161     Delta-E=       -0.000100750152 Rises=F Damp=F
 DIIS: error= 1.84D-04 at cycle  11 NSaved=  11.
 NSaved=11 IEnMin=11 EnMin= -3010.59197673161     IErMin=11 ErrMin= 1.84D-04
 ErrMax= 1.84D-04  0.00D+00 EMaxC= 1.00D-01 BMatC= 5.70D-06 BMatP= 1.89D-05
 IDIUse=3 WtCom= 9.98D-01 WtEn= 1.84D-03
 Coeff-Com: -0.207D-03 0.226D-03 0.166D-03 0.103D-02 0.199D-02-0.593D-02
 Coeff-Com: -0.109D-01-0.783D-01-0.164D+00 0.264D+00 0.992D+00
 Coeff-En:   0.000D+00 0.000D+00 0.000D+00 0.000D+00 0.000D+00 0.000D+00
 Coeff-En:   0.000D+00 0.000D+00 0.000D+00 0.000D+00 0.100D+01
 Coeff:     -0.206D-03 0.226D-03 0.166D-03 0.103D-02 0.198D-02-0.592D-02
 Coeff:     -0.108D-01-0.782D-01-0.164D+00 0.264D+00 0.992D+00
 Gap=     0.182 Goal=   None    Shift=    0.000
 RMSDP=3.04D-04 MaxDP=2.33D-02 DE=-1.01D-04 OVMax= 7.25D-03

 Cycle  12  Pass 1  IDiag  1:
 RMSU=  7.72D-05    CP:  4.16D-03  1.50D-01  3.87D-01  8.47D-01  7.59D-01
                    CP:  9.69D-01  5.22D-01  1.52D+00  1.52D+00  2.73D+00
                    CP:  1.53D+00
 E= -3010.59201258390     Delta-E=       -0.000035852298 Rises=F Damp=F
 DIIS: error= 1.18D-04 at cycle  12 NSaved=  12.
 NSaved=12 IEnMin=12 EnMin= -3010.59201258390     IErMin=12 ErrMin= 1.18D-04
 ErrMax= 1.18D-04  0.00D+00 EMaxC= 1.00D-01 BMatC= 1.40D-06 BMatP= 5.70D-06
 IDIUse=3 WtCom= 9.99D-01 WtEn= 1.18D-03
 Coeff-Com:  0.703D-04-0.728D-04 0.805D-04 0.240D-03 0.904D-03 0.242D-02
 Coeff-Com:  0.574D-02-0.867D-02-0.632D-01-0.157D+00 0.317D+00 0.902D+00
 Coeff-En:   0.000D+00 0.000D+00 0.000D+00 0.000D+00 0.000D+00 0.000D+00
 Coeff-En:   0.000D+00 0.000D+00 0.000D+00 0.000D+00 0.000D+00 0.100D+01
 Coeff:      0.703D-04-0.727D-04 0.804D-04 0.240D-03 0.903D-03 0.242D-02
 Coeff:      0.573D-02-0.866D-02-0.631D-01-0.157D+00 0.317D+00 0.903D+00
 Gap=     0.182 Goal=   None    Shift=    0.000
 RMSDP=2.16D-04 MaxDP=1.95D-02 DE=-3.59D-05 OVMax= 5.07D-03

 Cycle  13  Pass 1  IDiag  1:
 RMSU=  4.24D-05    CP:  4.16D-03  1.50D-01  3.87D-01  8.46D-01  7.57D-01
                    CP:  9.68D-01  5.15D-01  1.55D+00  1.60D+00  3.00D+00
                    CP:  2.14D+00  1.53D+00
 E= -3010.59202661394     Delta-E=       -0.000014030039 Rises=F Damp=F
 DIIS: error= 6.45D-05 at cycle  13 NSaved=  13.
 NSaved=13 IEnMin=13 EnMin= -3010.59202661394     IErMin=13 ErrMin= 6.45D-05
 ErrMax= 6.45D-05  0.00D+00 EMaxC= 1.00D-01 BMatC= 5.65D-07 BMatP= 1.40D-06
 IDIUse=1 WtCom= 1.00D+00 WtEn= 0.00D+00
 Coeff-Com:  0.599D-04-0.817D-04-0.770D-04-0.353D-03-0.301D-03 0.232D-02
 Coeff-Com:  0.641D-02 0.186D-01 0.349D-01-0.109D+00-0.209D+00 0.293D+00
 Coeff-Com:  0.963D+00
 Coeff:      0.599D-04-0.817D-04-0.770D-04-0.353D-03-0.301D-03 0.232D-02
 Coeff:      0.641D-02 0.186D-01 0.349D-01-0.109D+00-0.209D+00 0.293D+00
 Coeff:      0.963D+00
 Gap=     0.182 Goal=   None    Shift=    0.000
 RMSDP=1.12D-04 MaxDP=7.00D-03 DE=-1.40D-05 OVMax= 3.57D-03

 Cycle  14  Pass 1  IDiag  1:
 RMSU=  2.56D-05    CP:  4.16D-03  1.50D-01  3.88D-01  8.46D-01  7.57D-01
                    CP:  9.67D-01  5.12D-01  1.56D+00  1.62D+00  3.00D+00
                    CP:  2.60D+00  2.11D+00  2.05D+00
 E= -3010.59203313421     Delta-E=       -0.000006520265 Rises=F Damp=F
 DIIS: error= 3.85D-05 at cycle  14 NSaved=  14.
 NSaved=14 IEnMin=14 EnMin= -3010.59203313421     IErMin=14 ErrMin= 3.85D-05
 ErrMax= 3.85D-05  0.00D+00 EMaxC= 1.00D-01 BMatC= 3.07D-07 BMatP= 5.65D-07
 IDIUse=1 WtCom= 1.00D+00 WtEn= 0.00D+00
 Coeff-Com:  0.814D-04-0.114D-03-0.635D-04-0.175D-03-0.586D-03-0.111D-02
 Coeff-Com:  0.779D-03 0.121D-01 0.330D-01 0.137D-01-0.149D+00-0.854D-01
 Coeff-Com:  0.106D+00 0.107D+01
 Coeff:      0.814D-04-0.114D-03-0.635D-04-0.175D-03-0.586D-03-0.111D-02
 Coeff:      0.779D-03 0.121D-01 0.330D-01 0.137D-01-0.149D+00-0.854D-01
 Coeff:      0.106D+00 0.107D+01
 Gap=     0.182 Goal=   None    Shift=    0.000
 RMSDP=6.37D-05 MaxDP=2.71D-03 DE=-6.52D-06 OVMax= 2.35D-03

 Cycle  15  Pass 1  IDiag  1:
 RMSU=  1.23D-05    CP:  4.16D-03  1.50D-01  3.88D-01  8.46D-01  7.57D-01
                    CP:  9.67D-01  5.08D-01  1.57D+00  1.64D+00  3.00D+00
                    CP:  2.90D+00  2.47D+00  2.69D+00  1.47D+00
 E= -3010.59203619004     Delta-E=       -0.000003055829 Rises=F Damp=F
 DIIS: error= 2.52D-05 at cycle  15 NSaved=  15.
 NSaved=15 IEnMin=15 EnMin= -3010.59203619004     IErMin=15 ErrMin= 2.52D-05
 ErrMax= 2.52D-05  0.00D+00 EMaxC= 1.00D-01 BMatC= 1.79D-07 BMatP= 3.07D-07
 IDIUse=1 WtCom= 1.00D+00 WtEn= 0.00D+00
 Coeff-Com:  0.662D-04-0.898D-04-0.265D-04 0.723D-04-0.279D-03-0.234D-02
 Coeff-Com: -0.280D-02-0.416D-02-0.923D-02 0.567D-01 0.624D-01-0.785D-01
 Coeff-Com: -0.619D+00 0.259D+00 0.134D+01
 Coeff:      0.662D-04-0.898D-04-0.265D-04 0.723D-04-0.279D-03-0.234D-02
 Coeff:     -0.280D-02-0.416D-02-0.923D-02 0.567D-01 0.624D-01-0.785D-01
 Coeff:     -0.619D+00 0.259D+00 0.134D+01
 Gap=     0.182 Goal=   None    Shift=    0.000
 RMSDP=7.07D-05 MaxDP=4.14D-03 DE=-3.06D-06 OVMax= 2.69D-03

 Cycle  16  Pass 1  IDiag  1:
 RMSU=  3.28D-05    CP:  4.16D-03  1.50D-01  3.88D-01  8.46D-01  7.57D-01
                    CP:  9.68D-01  5.05D-01  1.58D+00  1.66D+00  3.00D+00
                    CP:  3.00D+00  2.88D+00  3.00D+00  2.17D+00  2.08D+00
 E= -3010.59203840842     Delta-E=       -0.000002218380 Rises=F Damp=F
 DIIS: error= 1.09D-05 at cycle  16 NSaved=  16.
 NSaved=16 IEnMin=16 EnMin= -3010.59203840842     IErMin=16 ErrMin= 1.09D-05
 ErrMax= 1.09D-05  0.00D+00 EMaxC= 1.00D-01 BMatC= 4.14D-08 BMatP= 1.79D-07
 IDIUse=1 WtCom= 1.00D+00 WtEn= 0.00D+00
 Coeff-Com:  0.705D-05-0.103D-04-0.505D-05 0.166D-04 0.748D-04 0.655D-03
 Coeff-Com:  0.453D-03-0.355D-02-0.150D-01-0.281D-01 0.562D-01 0.107D+00
 Coeff-Com: -0.712D-01-0.590D+00 0.160D+00 0.138D+01
 Coeff:      0.705D-05-0.103D-04-0.505D-05 0.166D-04 0.748D-04 0.655D-03
 Coeff:      0.453D-03-0.355D-02-0.150D-01-0.281D-01 0.562D-01 0.107D+00
 Coeff:     -0.712D-01-0.590D+00 0.160D+00 0.138D+01
 Gap=     0.182 Goal=   None    Shift=    0.000
 RMSDP=5.65D-05 MaxDP=2.80D-03 DE=-2.22D-06 OVMax= 2.13D-03

 Cycle  17  Pass 1  IDiag  1:
 RMSU=  1.63D-05    CP:  4.15D-03  1.50D-01  3.88D-01  8.46D-01  7.57D-01
                    CP:  9.68D-01  5.01D-01  1.60D+00  1.68D+00  3.00D+00
                    CP:  3.00D+00  3.00D+00  3.00D+00  2.66D+00  2.75D+00
                    CP:  2.13D+00
 E= -3010.59203914021     Delta-E=       -0.000000731795 Rises=F Damp=F
 DIIS: error= 6.28D-06 at cycle  17 NSaved=  17.
 NSaved=17 IEnMin=17 EnMin= -3010.59203914021     IErMin=17 ErrMin= 6.28D-06
 ErrMax= 6.28D-06  0.00D+00 EMaxC= 1.00D-01 BMatC= 5.67D-09 BMatP= 4.14D-08
 IDIUse=1 WtCom= 1.00D+00 WtEn= 0.00D+00
 Coeff-Com: -0.421D-05 0.568D-05 0.230D-05-0.498D-05 0.294D-04 0.513D-03
 Coeff-Com:  0.393D-03-0.403D-03-0.290D-02-0.149D-01 0.382D-02 0.285D-01
 Coeff-Com:  0.539D-01-0.157D+00-0.856D-01 0.328D+00 0.846D+00
 Coeff:     -0.421D-05 0.568D-05 0.230D-05-0.498D-05 0.294D-04 0.513D-03
 Coeff:      0.393D-03-0.403D-03-0.290D-02-0.149D-01 0.382D-02 0.285D-01
 Coeff:      0.539D-01-0.157D+00-0.856D-01 0.328D+00 0.846D+00
 Gap=     0.182 Goal=   None    Shift=    0.000
 RMSDP=1.10D-05 MaxDP=1.03D-03 DE=-7.32D-07 OVMax= 2.97D-04

 Cycle  18  Pass 1  IDiag  1:
 RMSU=  2.42D-06    CP:  4.15D-03  1.50D-01  3.88D-01  8.46D-01  7.57D-01
                    CP:  9.68D-01  5.00D-01  1.60D+00  1.68D+00  3.00D+00
                    CP:  3.00D+00  3.00D+00  3.00D+00  2.71D+00  2.82D+00
                    CP:  2.28D+00  1.24D+00
 E= -3010.59203918001     Delta-E=       -0.000000039796 Rises=F Damp=F
 DIIS: error= 5.41D-06 at cycle  18 NSaved=  18.
 NSaved=18 IEnMin=18 EnMin= -3010.59203918001     IErMin=18 ErrMin= 5.41D-06
 ErrMax= 5.41D-06  0.00D+00 EMaxC= 1.00D-01 BMatC= 2.70D-09 BMatP= 5.67D-09
 IDIUse=1 WtCom= 1.00D+00 WtEn= 0.00D+00
 Coeff-Com: -0.272D-05 0.429D-05 0.240D-05 0.334D-05 0.193D-05 0.242D-04
 Coeff-Com: -0.183D-03 0.216D-03 0.123D-02 0.270D-02-0.101D-01-0.187D-01
 Coeff-Com:  0.114D-01 0.781D-01-0.104D-01-0.161D+00 0.152D+00 0.954D+00
 Coeff:     -0.272D-05 0.429D-05 0.240D-05 0.334D-05 0.193D-05 0.242D-04
 Coeff:     -0.183D-03 0.216D-03 0.123D-02 0.270D-02-0.101D-01-0.187D-01
 Coeff:      0.114D-01 0.781D-01-0.104D-01-0.161D+00 0.152D+00 0.954D+00
 Gap=     0.182 Goal=   None    Shift=    0.000
 RMSDP=5.55D-06 MaxDP=6.36D-04 DE=-3.98D-08 OVMax= 1.24D-04

 Cycle  19  Pass 1  IDiag  1:
 RMSU=  1.29D-06    CP:  4.15D-03  1.50D-01  3.88D-01  8.46D-01  7.57D-01
                    CP:  9.68D-01  5.00D-01  1.61D+00  1.68D+00  3.00D+00
                    CP:  3.00D+00  3.00D+00  3.00D+00  2.71D+00  2.80D+00
                    CP:  2.30D+00  1.33D+00  1.78D+00
 E= -3010.59203919328     Delta-E=       -0.000000013271 Rises=F Damp=F
 DIIS: error= 3.89D-06 at cycle  19 NSaved=  19.
 NSaved=19 IEnMin=19 EnMin= -3010.59203919328     IErMin=19 ErrMin= 3.89D-06
 ErrMax= 3.89D-06  0.00D+00 EMaxC= 1.00D-01 BMatC= 9.73D-10 BMatP= 2.70D-09
 IDIUse=1 WtCom= 1.00D+00 WtEn= 0.00D+00
 Coeff-Com: -0.238D-05 0.305D-05 0.170D-05 0.109D-04 0.544D-05-0.140D-03
 Coeff-Com: -0.324D-03-0.103D-03 0.131D-03 0.641D-02 0.207D-02-0.116D-01
 Coeff-Com: -0.326D-01 0.516D-01 0.434D-01-0.982D-01-0.274D+00 0.168D+00
 Coeff-Com:  0.114D+01
 Coeff:     -0.238D-05 0.305D-05 0.170D-05 0.109D-04 0.544D-05-0.140D-03
 Coeff:     -0.324D-03-0.103D-03 0.131D-03 0.641D-02 0.207D-02-0.116D-01
 Coeff:     -0.326D-01 0.516D-01 0.434D-01-0.982D-01-0.274D+00 0.168D+00
 Coeff:      0.114D+01
 Gap=     0.182 Goal=   None    Shift=    0.000
 RMSDP=3.99D-06 MaxDP=3.21D-04 DE=-1.33D-08 OVMax= 1.38D-04

 Cycle  20  Pass 1  IDiag  1:
 RMSU=  8.22D-07    CP:  4.15D-03  1.50D-01  3.88D-01  8.46D-01  7.57D-01
                    CP:  9.68D-01  5.00D-01  1.61D+00  1.68D+00  3.00D+00
                    CP:  3.00D+00  3.00D+00  3.00D+00  2.70D+00  2.86D+00
                    CP:  2.31D+00  1.36D+00  2.46D+00  2.02D+00
 E= -3010.59203920252     Delta-E=       -0.000000009245 Rises=F Damp=F
 DIIS: error= 2.41D-06 at cycle  20 NSaved=  20.
 NSaved=20 IEnMin=20 EnMin= -3010.59203920252     IErMin=20 ErrMin= 2.41D-06
 ErrMax= 2.41D-06  0.00D+00 EMaxC= 1.00D-01 BMatC= 3.17D-10 BMatP= 9.73D-10
 IDIUse=1 WtCom= 1.00D+00 WtEn= 0.00D+00
 Coeff-Com: -0.548D-07-0.768D-07-0.255D-06-0.921D-06 0.854D-05 0.214D-04
 Coeff-Com: -0.299D-04-0.215D-03-0.851D-03-0.730D-03 0.505D-02 0.883D-02
 Coeff-Com: -0.320D-02-0.447D-01-0.420D-02 0.971D-01-0.744D-01-0.458D+00
 Coeff-Com:  0.639D-01 0.141D+01
 Coeff:     -0.548D-07-0.768D-07-0.255D-06-0.921D-06 0.854D-05 0.214D-04
 Coeff:     -0.299D-04-0.215D-03-0.851D-03-0.730D-03 0.505D-02 0.883D-02
 Coeff:     -0.320D-02-0.447D-01-0.420D-02 0.971D-01-0.744D-01-0.458D+00
 Coeff:      0.639D-01 0.141D+01
 Gap=     0.182 Goal=   None    Shift=    0.000
 RMSDP=4.43D-06 MaxDP=3.46D-04 DE=-9.25D-09 OVMax= 1.41D-04

 Cycle  21  Pass 1  IDiag  1:
 Restarting incremental Fock formation.
 E= -3010.59203920690     Delta-E=       -0.000000004374 Rises=F Damp=F
 DIIS: error= 5.99D-07 at cycle  21 NSaved=  20.
 NSaved=20 IEnMin=20 EnMin= -3010.59203920690     IErMin=20 ErrMin= 5.99D-07
 ErrMax= 5.99D-07  0.00D+00 EMaxC= 1.00D-01 BMatC= 4.23D-11 BMatP= 3.17D-10
 IDIUse=1 WtCom= 1.00D+00 WtEn= 0.00D+00
 Coeff-Com:  0.319D-06-0.414D-06-0.143D-05-0.125D-06 0.263D-04 0.229D-04
 Coeff-Com:  0.337D-04-0.113D-03-0.848D-03 0.721D-03 0.231D-02 0.530D-02
 Coeff-Com: -0.147D-01-0.873D-02 0.252D-01 0.357D-01-0.405D-01-0.179D+00
 Coeff-Com:  0.128D+00 0.105D+01
 Coeff:      0.319D-06-0.414D-06-0.143D-05-0.125D-06 0.263D-04 0.229D-04
 Coeff:      0.337D-04-0.113D-03-0.848D-03 0.721D-03 0.231D-02 0.530D-02
 Coeff:     -0.147D-01-0.873D-02 0.252D-01 0.357D-01-0.405D-01-0.179D+00
 Coeff:      0.128D+00 0.105D+01
 Gap=     0.182 Goal=   None    Shift=    0.000
 RMSDP=1.19D-06 MaxDP=9.36D-05 DE=-4.37D-09 OVMax= 3.80D-05

 Cycle  22  Pass 1  IDiag  1:
 RMSU=  1.12D-06    CP:  1.00D+00
 E= -3010.59203920733     Delta-E=       -0.000000000432 Rises=F Damp=F
 DIIS: error= 2.76D-07 at cycle  22 NSaved=  20.
 NSaved=20 IEnMin=20 EnMin= -3010.59203920733     IErMin=20 ErrMin= 2.76D-07
 ErrMax= 2.76D-07  0.00D+00 EMaxC= 1.00D-01 BMatC= 1.13D-11 BMatP= 4.23D-11
 IDIUse=1 WtCom= 1.00D+00 WtEn= 0.00D+00
 Coeff-Com:  0.783D-08 0.450D-07-0.169D-05-0.186D-06 0.473D-06 0.986D-04
 Coeff-Com:  0.126D-03-0.682D-04-0.754D-03-0.107D-02 0.166D-02 0.765D-02
 Coeff-Com: -0.162D-02-0.197D-01 0.102D-01 0.789D-01-0.226D-01-0.225D+00
 Coeff-Com:  0.156D+00 0.102D+01
 Coeff:      0.783D-08 0.450D-07-0.169D-05-0.186D-06 0.473D-06 0.986D-04
 Coeff:      0.126D-03-0.682D-04-0.754D-03-0.107D-02 0.166D-02 0.765D-02
 Coeff:     -0.162D-02-0.197D-01 0.102D-01 0.789D-01-0.226D-01-0.225D+00
 Coeff:      0.156D+00 0.102D+01
 Gap=     0.182 Goal=   None    Shift=    0.000
 RMSDP=7.20D-07 MaxDP=6.00D-05 DE=-4.32D-10 OVMax= 1.66D-05

 Cycle  23  Pass 1  IDiag  1:
 RMSU=  2.91D-07    CP:  1.00D+00  1.55D+00
 E= -3010.59203920743     Delta-E=       -0.000000000101 Rises=F Damp=F
 DIIS: error= 1.67D-07 at cycle  23 NSaved=  20.
 NSaved=20 IEnMin=20 EnMin= -3010.59203920743     IErMin=20 ErrMin= 1.67D-07
 ErrMax= 1.67D-07  0.00D+00 EMaxC= 1.00D-01 BMatC= 3.67D-12 BMatP= 1.13D-11
 IDIUse=1 WtCom= 1.00D+00 WtEn= 0.00D+00
 Coeff-Com:  0.697D-07-0.122D-05-0.782D-05-0.131D-04 0.263D-04 0.816D-04
 Coeff-Com:  0.366D-03-0.610D-03-0.138D-02-0.142D-02 0.810D-02 0.246D-02
 Coeff-Com: -0.147D-01-0.617D-02 0.404D-01 0.559D-01-0.137D+00-0.305D+00
 Coeff-Com:  0.336D+00 0.102D+01
 Coeff:      0.697D-07-0.122D-05-0.782D-05-0.131D-04 0.263D-04 0.816D-04
 Coeff:      0.366D-03-0.610D-03-0.138D-02-0.142D-02 0.810D-02 0.246D-02
 Coeff:     -0.147D-01-0.617D-02 0.404D-01 0.559D-01-0.137D+00-0.305D+00
 Coeff:      0.336D+00 0.102D+01
 Gap=     0.182 Goal=   None    Shift=    0.000
 RMSDP=4.12D-07 MaxDP=3.89D-05 DE=-1.01D-10 OVMax= 1.01D-05

 Cycle  24  Pass 1  IDiag  1:
 RMSU=  1.44D-07    CP:  1.00D+00  1.81D+00  1.51D+00
 E= -3010.59203920746     Delta-E=       -0.000000000028 Rises=F Damp=F
 DIIS: error= 5.95D-08 at cycle  24 NSaved=  20.
 NSaved=20 IEnMin=20 EnMin= -3010.59203920746     IErMin=20 ErrMin= 5.95D-08
 ErrMax= 5.95D-08  0.00D+00 EMaxC= 1.00D-01 BMatC= 5.94D-13 BMatP= 3.67D-12
 IDIUse=1 WtCom= 1.00D+00 WtEn= 0.00D+00
 Coeff-Com:  0.150D-06 0.635D-06-0.205D-06-0.175D-04-0.282D-04-0.344D-04
 Coeff-Com:  0.167D-03 0.412D-03-0.610D-03-0.190D-02 0.577D-03 0.537D-02
 Coeff-Com: -0.273D-02-0.278D-01 0.684D-02 0.647D-01-0.677D-02-0.303D+00
 Coeff-Com: -0.351D-01 0.130D+01
 Coeff:      0.150D-06 0.635D-06-0.205D-06-0.175D-04-0.282D-04-0.344D-04
 Coeff:      0.167D-03 0.412D-03-0.610D-03-0.190D-02 0.577D-03 0.537D-02
 Coeff:     -0.273D-02-0.278D-01 0.684D-02 0.647D-01-0.677D-02-0.303D+00
 Coeff:     -0.351D-01 0.130D+01
 Gap=     0.182 Goal=   None    Shift=    0.000
 RMSDP=2.01D-07 MaxDP=1.95D-05 DE=-2.82D-11 OVMax= 5.08D-06

 Cycle  25  Pass 1  IDiag  1:
 RMSU=  4.79D-08    CP:  1.00D+00  1.91D+00  1.84D+00  1.69D+00
 E= -3010.59203920743     Delta-E=        0.000000000025 Rises=F Damp=F
 DIIS: error= 1.10D-08 at cycle  25 NSaved=  20.
 NSaved=20 IEnMin=19 EnMin= -3010.59203920746     IErMin=20 ErrMin= 1.10D-08
 ErrMax= 1.10D-08  0.00D+00 EMaxC= 1.00D-01 BMatC= 7.21D-14 BMatP= 5.94D-13
 IDIUse=1 WtCom= 1.00D+00 WtEn= 0.00D+00
 Coeff-Com:  0.766D-06 0.135D-05-0.390D-05-0.100D-04-0.387D-04 0.526D-04
 Coeff-Com:  0.118D-03 0.755D-04-0.667D-03-0.317D-04 0.122D-02 0.130D-02
 Coeff-Com: -0.383D-02-0.617D-02 0.731D-02 0.403D-01-0.114D-01-0.124D+00
 Coeff-Com: -0.109D+00 0.120D+01
 Coeff:      0.766D-06 0.135D-05-0.390D-05-0.100D-04-0.387D-04 0.526D-04
 Coeff:      0.118D-03 0.755D-04-0.667D-03-0.317D-04 0.122D-02 0.130D-02
 Coeff:     -0.383D-02-0.617D-02 0.731D-02 0.403D-01-0.114D-01-0.124D+00
 Coeff:     -0.109D+00 0.120D+01
 Gap=     0.182 Goal=   None    Shift=    0.000
 RMSDP=6.56D-08 MaxDP=6.92D-06 DE= 2.46D-11 OVMax= 1.09D-06

 Cycle  26  Pass 1  IDiag  1:
 RMSU=  1.67D-08    CP:  1.00D+00  1.91D+00  1.88D+00  2.02D+00  1.61D+00
 E= -3010.59203920742     Delta-E=        0.000000000010 Rises=F Damp=F
 DIIS: error= 4.09D-09 at cycle  26 NSaved=  20.
 NSaved=20 IEnMin=18 EnMin= -3010.59203920746     IErMin=20 ErrMin= 4.09D-09
 ErrMax= 4.09D-09  0.00D+00 EMaxC= 1.00D-01 BMatC= 1.07D-14 BMatP= 7.21D-14
 IDIUse=1 WtCom= 1.00D+00 WtEn= 0.00D+00
 Coeff-Com:  0.502D-08-0.517D-06-0.838D-06-0.590D-05 0.823D-06-0.415D-05
 Coeff-Com:  0.535D-04 0.472D-05-0.264D-04-0.237D-03 0.773D-03 0.182D-02
 Coeff-Com: -0.202D-02-0.601D-02 0.987D-02 0.388D-01-0.250D-01-0.201D+00
 Coeff-Com:  0.276D+00 0.907D+00
 Coeff:      0.502D-08-0.517D-06-0.838D-06-0.590D-05 0.823D-06-0.415D-05
 Coeff:      0.535D-04 0.472D-05-0.264D-04-0.237D-03 0.773D-03 0.182D-02
 Coeff:     -0.202D-02-0.601D-02 0.987D-02 0.388D-01-0.250D-01-0.201D+00
 Coeff:      0.276D+00 0.907D+00
 Gap=     0.182 Goal=   None    Shift=    0.000
 RMSDP=2.02D-08 MaxDP=1.72D-06 DE= 1.00D-11 OVMax= 2.54D-07

 Cycle  27  Pass 1  IDiag  1:
 RMSU=  5.23D-09    CP:  1.00D+00  1.90D+00  1.88D+00  2.12D+00  1.78D+00
                    CP:  1.43D+00
 E= -3010.59203920744     Delta-E=       -0.000000000015 Rises=F Damp=F
 DIIS: error= 1.92D-09 at cycle  27 NSaved=  20.
 NSaved=20 IEnMin=17 EnMin= -3010.59203920746     IErMin=20 ErrMin= 1.92D-09
 ErrMax= 1.92D-09  0.00D+00 EMaxC= 1.00D-01 BMatC= 1.46D-15 BMatP= 1.07D-14
 IDIUse=1 WtCom= 1.00D+00 WtEn= 0.00D+00
 Large coefficients: NSaved= 20 BigCof=    0.00 CofMax=   10.00 Det=-6.06D-15
 Inversion failed.  Reducing to 19 matrices.
 Large coefficients: NSaved= 19 BigCof=    0.00 CofMax=   10.00 Det=-6.07D-15
 Inversion failed.  Reducing to 18 matrices.
 Large coefficients: NSaved= 18 BigCof=    0.00 CofMax=   10.00 Det=-6.08D-15
 Inversion failed.  Reducing to 17 matrices.
 Large coefficients: NSaved= 17 BigCof=    0.00 CofMax=   10.00 Det=-6.11D-15
 Inversion failed.  Reducing to 16 matrices.
 Large coefficients: NSaved= 16 BigCof=    0.00 CofMax=   10.00 Det=-6.24D-15
 Inversion failed.  Reducing to 15 matrices.
 Coeff-Com: -0.198D-04 0.154D-04 0.390D-04-0.579D-04 0.160D-03 0.455D-03
 Coeff-Com:  0.100D-03-0.175D-02-0.285D-02 0.627D-02 0.103D-01-0.156D-01
 Coeff-Com: -0.101D+00 0.180D+00 0.924D+00
 Coeff:     -0.198D-04 0.154D-04 0.390D-04-0.579D-04 0.160D-03 0.455D-03
 Coeff:      0.100D-03-0.175D-02-0.285D-02 0.627D-02 0.103D-01-0.156D-01
 Coeff:     -0.101D+00 0.180D+00 0.924D+00
 Gap=     0.182 Goal=   None    Shift=    0.000
 RMSDP=6.47D-09 MaxDP=5.06D-07 DE=-1.55D-11 OVMax= 1.06D-07

 SCF Done:  E(RwB97XD) =  -3010.59203921     A.U. after   27 cycles
            NFock= 27  Conv=0.65D-08     -V/T= 2.0016
 KE= 3.005808566167D+03 PE=-8.687954046744D+03 EE= 1.909081668364D+03
 Leave Link  502 at Thu May  2 14:25:42 2024, MaxMem=   134217728 cpu:            1628.3 elap:            1630.2
 (Enter /software/gaussian/g16-c01/sse4/g16/l601.exe)
 Copying SCF densities to generalized density rwf, IOpCl= 0 IROHF=0.

 **********************************************************************

            Population analysis using the SCF Density.

 **********************************************************************

 Alpha  occ. eigenvalues -- -483.22975 -62.77964 -56.57676 -56.57091 -56.57066
 Alpha  occ. eigenvalues --  -19.31542 -19.31307 -14.71137 -10.50719 -10.50641
 Alpha  occ. eigenvalues --  -10.50268 -10.49517 -10.47544 -10.44517  -8.93744
 Alpha  occ. eigenvalues --   -6.76466  -6.74551  -6.74474  -2.86359  -2.85867
 Alpha  occ. eigenvalues --   -2.85806  -2.84274  -2.84273  -1.35188  -1.17965
 Alpha  occ. eigenvalues --   -1.14684  -1.05313  -1.04061  -0.96488  -0.90926
 Alpha  occ. eigenvalues --   -0.87860  -0.82478  -0.76876  -0.72394  -0.70877
 Alpha  occ. eigenvalues --   -0.68520  -0.68054  -0.66648  -0.63544  -0.61759
 Alpha  occ. eigenvalues --   -0.61358  -0.59194  -0.56244  -0.51416  -0.47604
 Alpha  occ. eigenvalues --   -0.46772  -0.42139  -0.40511  -0.40432
 Alpha virt. eigenvalues --   -0.22247  -0.13964  -0.11175  -0.08794  -0.07314
 Alpha virt. eigenvalues --   -0.05687  -0.03793  -0.01973  -0.00446  -0.00228
 Alpha virt. eigenvalues --    0.01341   0.02446   0.04384   0.04835   0.05540
 Alpha virt. eigenvalues --    0.06195   0.07950   0.08437   0.08799   0.09951
 Alpha virt. eigenvalues --    0.10206   0.11096   0.12031   0.13150   0.13630
 Alpha virt. eigenvalues --    0.14914   0.15385   0.15644   0.16460   0.17306
 Alpha virt. eigenvalues --    0.18462   0.18626   0.19741   0.20339   0.21074
 Alpha virt. eigenvalues --    0.22966   0.23630   0.23890   0.25381   0.26642
 Alpha virt. eigenvalues --    0.27060   0.28367   0.29172   0.30123   0.31167
 Alpha virt. eigenvalues --    0.33717   0.34816   0.34970   0.36422   0.38020
 Alpha virt. eigenvalues --    0.38798   0.39057   0.40924   0.41497   0.42447
 Alpha virt. eigenvalues --    0.43402   0.44094   0.44573   0.45695   0.46395
 Alpha virt. eigenvalues --    0.47102   0.49308   0.49609   0.50253   0.51869
 Alpha virt. eigenvalues --    0.52213   0.52943   0.54443   0.55575   0.57818
 Alpha virt. eigenvalues --    0.58738   0.59365   0.60359   0.61579   0.62275
 Alpha virt. eigenvalues --    0.63137   0.64958   0.66067   0.68260   0.68752
 Alpha virt. eigenvalues --    0.69800   0.71970   0.72582   0.73713   0.76132
 Alpha virt. eigenvalues --    0.76284   0.77615   0.79617   0.81282   0.82845
 Alpha virt. eigenvalues --    0.85624   0.87964   0.90710   0.92588   0.93557
 Alpha virt. eigenvalues --    0.95829   0.98839   1.01646   1.05520   1.09681
 Alpha virt. eigenvalues --    1.11225   1.12562   1.13442   1.15632   1.18506
 Alpha virt. eigenvalues --    1.21931   1.25500   1.27435   1.28611   1.32537
 Alpha virt. eigenvalues --    1.33849   1.36859   1.38917   1.41917   1.44344
 Alpha virt. eigenvalues --    1.44808   1.47813   1.51286   1.63555   1.64705
 Alpha virt. eigenvalues --    1.67805   1.68268   1.71942   1.73547   1.74062
 Alpha virt. eigenvalues --    1.79857   1.80639   1.82185   1.86617   1.87976
 Alpha virt. eigenvalues --    1.88905   1.95396   1.97358   2.03915   2.05170
 Alpha virt. eigenvalues --    2.08481   2.11625   2.12240   2.16877   2.17449
 Alpha virt. eigenvalues --    2.21126   2.22598   2.29660   2.31684   2.36129
 Alpha virt. eigenvalues --    2.40844   2.49736   2.53028   2.54513   2.60257
 Alpha virt. eigenvalues --    2.65812   2.71355   2.73511   2.76470   2.82842
 Alpha virt. eigenvalues --    2.86843   2.89698   2.90341   2.90591   2.95939
 Alpha virt. eigenvalues --    3.01352   3.08198   3.13697   3.15982   3.17195
 Alpha virt. eigenvalues --    3.21327   3.22520   3.26654   3.34599   3.37789
 Alpha virt. eigenvalues --    3.42064   3.48671   3.53154   3.59571   3.67275
 Alpha virt. eigenvalues --    3.69910   3.83568   3.88641   3.91687   3.95583
 Alpha virt. eigenvalues --    4.18500   4.19353   4.27937   4.32027   4.51904
 Alpha virt. eigenvalues --    4.60245   4.62725   4.73005   5.09032   5.12003
 Alpha virt. eigenvalues --    5.20790   5.25296   5.76883   6.30494   6.76491
 Alpha virt. eigenvalues --    7.57391   7.59696   7.69741  23.29491  23.68945
 Alpha virt. eigenvalues --   23.80290  23.85067  24.01856  24.10643  35.46009
 Alpha virt. eigenvalues --   48.02417  50.00105  50.08768 289.90020 289.92351
 Alpha virt. eigenvalues --  290.049631021.03545
          Condensed to atoms (all electrons):
               1          2          3          4          5          6
     1  C   10.808886  -4.242889   1.746114  -0.879003   0.280271   0.084236
     2  C   -4.242889  21.871959  -6.854114   0.190498   0.048583   0.120218
     3  C    1.746114  -6.854114  27.069009  -2.060366   0.037384   0.125092
     4  C   -0.879003   0.190498  -2.060366   7.859598  -0.029208  -0.007529
     5  H    0.280271   0.048583   0.037384  -0.029208   0.399472  -0.001671
     6  H    0.084236   0.120218   0.125092  -0.007529  -0.001671   0.284873
     7  H    0.074660  -0.069867   0.047640   0.259946  -0.005074  -0.000007
     8  N   -0.307812   0.210667  -2.159827   0.076228  -0.000446  -0.032757
     9  O   -0.027366   0.220892  -0.000004  -0.050167  -0.000047  -0.002962
    10  O    0.432064  -0.251705  -0.217808  -0.031414   0.000157   0.032754
    11  C    1.870473  -0.283403   3.601536  -1.579034  -0.036717   0.007100
    12  H   -0.017867  -0.005873   0.061799  -0.014561  -0.000005  -0.000014
    13  C   -3.698305  -4.892185 -15.254707   2.542773   0.027728   0.009632
    14  H   -0.006309  -0.015580  -0.058322   0.003804  -0.000030  -0.000006
    15  Br  -0.022228  -0.176235  -0.159355  -0.003094  -0.000088  -0.000259
               7          8          9         10         11         12
     1  C    0.074660  -0.307812  -0.027366   0.432064   1.870473  -0.017867
     2  C   -0.069867   0.210667   0.220892  -0.251705  -0.283403  -0.005873
     3  C    0.047640  -2.159827  -0.000004  -0.217808   3.601536   0.061799
     4  C    0.259946   0.076228  -0.050167  -0.031414  -1.579034  -0.014561
     5  H   -0.005074  -0.000446  -0.000047   0.000157  -0.036717  -0.000005
     6  H   -0.000007  -0.032757  -0.002962   0.032754   0.007100  -0.000014
     7  H    0.478085  -0.000233   0.000027  -0.000004   0.077996  -0.004064
     8  N   -0.000233   8.359269  -0.224711  -0.019886  -0.801549   0.001663
     9  O    0.000027  -0.224711   7.939279   0.034477   0.500903   0.000053
    10  O   -0.000004  -0.019886   0.034477   7.834416  -0.008847  -0.000021
    11  C    0.077996  -0.801549   0.500903  -0.008847  12.407994   0.224163
    12  H   -0.004064   0.001663   0.000053  -0.000021   0.224163   0.403667
    13  C   -0.061356   2.002380  -0.536780   0.008203  -9.875001   0.070617
    14  H   -0.000045  -0.026105   0.019953  -0.002228   0.124112  -0.005941
    15  Br  -0.000078   0.164971  -0.056515   0.001259   0.124617  -0.008694
              13         14         15
     1  C   -3.698305  -0.006309  -0.022228
     2  C   -4.892185  -0.015580  -0.176235
     3  C  -15.254707  -0.058322  -0.159355
     4  C    2.542773   0.003804  -0.003094
     5  H    0.027728  -0.000030  -0.000088
     6  H    0.009632  -0.000006  -0.000259
     7  H   -0.061356  -0.000045  -0.000078
     8  N    2.002380  -0.026105   0.164971
     9  O   -0.536780   0.019953  -0.056515
    10  O    0.008203  -0.002228   0.001259
    11  C   -9.875001   0.124112   0.124617
    12  H    0.070617  -0.005941  -0.008694
    13  C   35.557211   0.266250   0.285618
    14  H    0.266250   0.288535  -0.029602
    15  Br   0.285618  -0.029602  34.634489
 Mulliken charges:
               1
     1  C   -0.094924
     2  C    0.129036
     3  C    0.075928
     4  C   -0.278470
     5  H    0.279692
     6  H    0.381300
     7  H    0.202373
     8  N   -0.241852
     9  O    0.182969
    10  O    0.188584
    11  C   -0.354342
    12  H    0.295077
    13  C   -0.452077
    14  H    0.441515
    15  Br   0.245193
 Sum of Mulliken charges =   1.00000
 Mulliken charges with hydrogens summed into heavy atoms:
               1
     1  C    0.184769
     2  C    0.510336
     3  C    0.075928
     4  C   -0.076097
     8  N   -0.241852
     9  O    0.182969
    10  O    0.188584
    11  C   -0.059265
    13  C   -0.010562
    15  Br   0.245193
 Electronic spatial extent (au):  <R**2>=           3925.4854
 Charge=              1.0000 electrons
 Dipole moment (field-independent basis, Debye):
    X=              9.8932    Y=             -1.2513    Z=             -1.1065  Tot=             10.0332
 Quadrupole moment (field-independent basis, Debye-Ang):
   XX=            -40.9651   YY=            -50.8551   ZZ=            -61.5757
   XY=             -4.4970   XZ=             -4.4974   YZ=              3.3045
 Traceless Quadrupole moment (field-independent basis, Debye-Ang):
   XX=             10.1669   YY=              0.2768   ZZ=            -10.4437
   XY=             -4.4970   XZ=             -4.4974   YZ=              3.3045
 Octapole moment (field-independent basis, Debye-Ang**2):
  XXX=           -376.1763  YYY=             89.5226  ZZZ=             80.4844  XYY=           -120.0900
  XXY=             20.5399  XXZ=             19.0337  XZZ=           -123.5497  YZZ=             14.8501
  YYZ=             23.6652  XYZ=             12.1432
 Hexadecapole moment (field-independent basis, Debye-Ang**3):
 XXXX=          -2782.2384 YYYY=           -701.7042 ZZZZ=           -390.2251 XXXY=            173.0120
 XXXZ=            164.1270 YYYX=            173.8159 YYYZ=           -166.5022 ZZZX=            154.5871
 ZZZY=           -138.8888 XXYY=           -560.7783 XXZZ=           -494.4220 YYZZ=           -167.0083
 XXYZ=            -27.2691 YYXZ=             39.1297 ZZXY=             18.0607
 N-N= 7.624717730061D+02 E-N=-8.687954047103D+03  KE= 3.005808566167D+03
 No NMR shielding tensors so no spin-rotation constants.
 Leave Link  601 at Thu May  2 14:25:50 2024, MaxMem=   134217728 cpu:               7.5 elap:               7.5
 (Enter /software/gaussian/g16-c01/sse4/g16/l9999.exe)
 Unable to Open any file for archive entry.
 1\1\GINC-BHX0002\SP\RwB97XD\6-311+G(d)\C6H5Br1N1O2(1+)\BWEIGHT\02-May-
 2024\0\\#P wB97XD/6-311+G* NoSymm #P Field=X-243\\TitleMe\\1,1\C,0,0.5
 193,1.233,-0.0319\C,0,1.9445,1.2692,-0.0367\C,0,2.6204,0.0928,-0.025\C
 ,0,-0.196,0.0301,0.001\H,0,-0.0207,2.1742,-0.0434\H,0,2.4828,2.2089,-0
 .0361\H,0,-1.2777,0.0399,0.0117\N,0,4.0921,0.0959,0.0366\O,0,4.6393,-1
 .0217,0.1446\O,0,4.6649,1.1984,-0.0233\C,0,0.4943,-1.1671,0.021\H,0,-0
 .0325,-2.1149,0.0545\C,0,1.9629,-1.2165,-0.0211\H,0,2.4436,-1.9631,0.6
 151\Br,0,2.173,-1.9491,-1.9062\\Version=ES64L-G16RevC.01\HF=-3010.5920
 392\RMSD=6.471e-09\Dipole=-0.4369445,0.7358319,0.8138776\Quadrupole=7.
 5588255,0.2058215,-7.764647,-3.343434,-3.3437096,2.4567932\PG=C01 [X(C
 6H5Br1N1O2)]\\@
 The archive entry for this job was punched.


 YOU SHOULDN'T LET PEOPLE DRIVE YOU CRAZY
 WHEN YOU KNOW IT'S WITHIN WALKING DISTANCE.
 Job cpu time:       0 days  0 hours 28 minutes 19.0 seconds.
 Elapsed time:       0 days  0 hours 28 minutes 21.1 seconds.
 File lengths (MBytes):  RWF=     40 Int=      0 D2E=      0 Chk=     32 Scr=      1
 Normal termination of Gaussian 16 at Thu May  2 14:25:51 2024.
