 Entering Gaussian System, Link 0=g16
 Initial command:
 /software/gaussian/g16-a03/l1.exe "/local_scratch/6484803/Gau-1806.inp" -scrdir="/local_scratch/6484803/"
 Entering Link 1 = /software/gaussian/g16-a03/l1.exe PID=      1837.
  
 Copyright (c) 1988,1990,1992,1993,1995,1998,2003,2009,2016,
            Gaussian, Inc.  All Rights Reserved.
  
 This is part of the Gaussian(R) 16 program.  It is based on
 the Gaussian(R) 09 system (copyright 2009, Gaussian, Inc.),
 the Gaussian(R) 03 system (copyright 2003, Gaussian, Inc.),
 the Gaussian(R) 98 system (copyright 1998, Gaussian, Inc.),
 the Gaussian(R) 94 system (copyright 1995, Gaussian, Inc.),
 the Gaussian 92(TM) system (copyright 1992, Gaussian, Inc.),
 the Gaussian 90(TM) system (copyright 1990, Gaussian, Inc.),
 the Gaussian 88(TM) system (copyright 1988, Gaussian, Inc.),
 the Gaussian 86(TM) system (copyright 1986, Carnegie Mellon
 University), and the Gaussian 82(TM) system (copyright 1983,
 Carnegie Mellon University). Gaussian is a federally registered
 trademark of Gaussian, Inc.
  
 This software contains proprietary and confidential information,
 including trade secrets, belonging to Gaussian, Inc.
  
 This software is provided under written license and may be
 used, copied, transmitted, or stored only in accord with that
 written license.
  
 The following legend is applicable only to US Government
 contracts under FAR:
  
                    RESTRICTED RIGHTS LEGEND
  
 Use, reproduction and disclosure by the US Government is
 subject to restrictions as set forth in subparagraphs (a)
 and (c) of the Commercial Computer Software - Restricted
 Rights clause in FAR 52.227-19.
  
 Gaussian, Inc.
 340 Quinnipiac St., Bldg. 40, Wallingford CT 06492
  
  
 ---------------------------------------------------------------
 Warning -- This program may not be used in any manner that
 competes with the business of Gaussian, Inc. or will provide
 assistance to any competitor of Gaussian, Inc.  The licensee
 of this program is prohibited from giving any competitor of
 Gaussian, Inc. access to this program.  By using this program,
 the user acknowledges that Gaussian, Inc. is engaged in the
 business of creating and licensing software in the field of
 computational chemistry and represents and warrants to the
 licensee that it is not a competitor of Gaussian, Inc. and that
 it will not use this program in any manner prohibited above.
 ---------------------------------------------------------------
  

 Cite this work as:
 Gaussian 16, Revision A.03,
 M. J. Frisch, G. W. Trucks, H. B. Schlegel, G. E. Scuseria, 
 M. A. Robb, J. R. Cheeseman, G. Scalmani, V. Barone, 
 G. A. Petersson, H. Nakatsuji, X. Li, M. Caricato, A. V. Marenich, 
 J. Bloino, B. G. Janesko, R. Gomperts, B. Mennucci, H. P. Hratchian, 
 J. V. Ortiz, A. F. Izmaylov, J. L. Sonnenberg, D. Williams-Young, 
 F. Ding, F. Lipparini, F. Egidi, J. Goings, B. Peng, A. Petrone, 
 T. Henderson, D. Ranasinghe, V. G. Zakrzewski, J. Gao, N. Rega, 
 G. Zheng, W. Liang, M. Hada, M. Ehara, K. Toyota, R. Fukuda, 
 J. Hasegawa, M. Ishida, T. Nakajima, Y. Honda, O. Kitao, H. Nakai, 
 T. Vreven, K. Throssell, J. A. Montgomery, Jr., J. E. Peralta, 
 F. Ogliaro, M. J. Bearpark, J. J. Heyd, E. N. Brothers, K. N. Kudin, 
 V. N. Staroverov, T. A. Keith, R. Kobayashi, J. Normand, 
 K. Raghavachari, A. P. Rendell, J. C. Burant, S. S. Iyengar, 
 J. Tomasi, M. Cossi, J. M. Millam, M. Klene, C. Adamo, R. Cammi, 
 J. W. Ochterski, R. L. Martin, K. Morokuma, O. Farkas, 
 J. B. Foresman, and D. J. Fox, Gaussian, Inc., Wallingford CT, 2016.
 
 ******************************************
 Gaussian 16:  ES64L-G16RevA.03 25-Dec-2016
                17-Sep-2021 
 ******************************************
 %chk=geometry.chk
 %mem=2GB
 %nprocshared=1
 Will use up to    1 processors via shared memory.
 --------------------------------------------------------------------
 #p B3LYP/6-311+G** #p TD=(singlets,nstates=30)IOp(6/8=3) IOp(9/40=4)
 --------------------------------------------------------------------
 1/38=1,172=1/1;
 2/12=2,17=6,18=5,40=1/2;
 3/5=4,6=6,7=111,11=9,25=1,30=1,74=-5/1,2,3,8;
 4//1;
 5/5=2,38=5/2;
 8/6=1,10=2,108=30/1;
 9/40=4,41=30,42=1,48=1,70=2/14;
 6/7=2,8=3,9=2,10=2/1;
 99/5=1,9=1/99;
 Leave Link    1 at Fri Sep 17 10:52:03 2021, MaxMem=   268435456 cpu:               0.0 elap:               0.2
 (Enter /software/gaussian/g16-a03/l101.exe)
 ------------------------------
 Scan Step 72, Bond Length 0.86
 ------------------------------
 Symbolic Z-matrix:
 Charge =  0 Multiplicity = 1
 C                     0.        0.       -0.52736 
 H                     0.        0.93726  -1.11871 
 H                     0.       -0.93726  -1.11871 
 O                     0.        0.        0.33264 
 
 ITRead=  0  0  0  0
 MicOpt= -1 -1 -1 -1
 NAtoms=      4 NQM=        4 NQMF=       0 NMMI=      0 NMMIF=      0
                NMic=       0 NMicF=      0.
                    Isotopes and Nuclear Properties:
 (Nuclear quadrupole moments (NQMom) in fm**2, nuclear magnetic moments (NMagM)
  in nuclear magnetons)

  Atom         1           2           3           4
 IAtWgt=          12           1           1          16
 AtmWgt=  12.0000000   1.0078250   1.0078250  15.9949146
 NucSpn=           0           1           1           0
 AtZEff=  -0.0000000  -0.0000000  -0.0000000  -0.0000000
 NQMom=    0.0000000   0.0000000   0.0000000   0.0000000
 NMagM=    0.0000000   2.7928460   2.7928460   0.0000000
 AtZNuc=   6.0000000   1.0000000   1.0000000   8.0000000
 Leave Link  101 at Fri Sep 17 10:52:04 2021, MaxMem=   268435456 cpu:               0.1 elap:               0.1
 (Enter /software/gaussian/g16-a03/l202.exe)
                          Input orientation:                          
 ---------------------------------------------------------------------
 Center     Atomic      Atomic             Coordinates (Angstroms)
 Number     Number       Type             X           Y           Z
 ---------------------------------------------------------------------
      1          6           0        0.000000    0.000000   -0.527360
      2          1           0        0.000000    0.937260   -1.118710
      3          1           0        0.000000   -0.937260   -1.118710
      4          8           0        0.000000    0.000000    0.332640
 ---------------------------------------------------------------------
                    Distance matrix (angstroms):
                    1          2          3          4
     1  C    0.000000
     2  H    1.108220   0.000000
     3  H    1.108220   1.874520   0.000000
     4  O    0.860000   1.727679   1.727679   0.000000
 Stoichiometry    CH2O
 Framework group  C2V[C2(CO),SGV(H2)]
 Deg. of freedom     3
 Full point group                 C2V     NOp   4
 Largest Abelian subgroup         C2V     NOp   4
 Largest concise Abelian subgroup C2      NOp   2
                         Standard orientation:                         
 ---------------------------------------------------------------------
 Center     Atomic      Atomic             Coordinates (Angstroms)
 Number     Number       Type             X           Y           Z
 ---------------------------------------------------------------------
      1          6           0        0.000000    0.000000   -0.356081
      2          1           0        0.000000    0.937260   -0.947431
      3          1           0       -0.000000   -0.937260   -0.947431
      4          8           0        0.000000    0.000000    0.503919
 ---------------------------------------------------------------------
 Rotational constants (GHZ):         285.4183527          69.4676654          55.8696190
 Leave Link  202 at Fri Sep 17 10:52:04 2021, MaxMem=   268435456 cpu:               0.0 elap:               0.0
 (Enter /software/gaussian/g16-a03/l301.exe)
 Standard basis: 6-311+G(d,p) (5D, 7F)
 Ernie: Thresh=  0.10000D-02 Tol=  0.10000D-05 Strict=F.
 There are    29 symmetry adapted cartesian basis functions of A1  symmetry.
 There are     3 symmetry adapted cartesian basis functions of A2  symmetry.
 There are    11 symmetry adapted cartesian basis functions of B1  symmetry.
 There are    15 symmetry adapted cartesian basis functions of B2  symmetry.
 There are    27 symmetry adapted basis functions of A1  symmetry.
 There are     3 symmetry adapted basis functions of A2  symmetry.
 There are    11 symmetry adapted basis functions of B1  symmetry.
 There are    15 symmetry adapted basis functions of B2  symmetry.
    56 basis functions,    88 primitive gaussians,    58 cartesian basis functions
     8 alpha electrons        8 beta electrons
       nuclear repulsion energy        40.4484974473 Hartrees.
 IExCor=  402 DFT=T Ex+Corr=B3LYP ExCW=0 ScaHFX=  0.200000
 ScaDFX=  0.800000  0.720000  1.000000  0.810000 ScalE2=  1.000000  1.000000
 IRadAn=      5 IRanWt=     -1 IRanGd=            0 ICorTp=0 IEmpDi=  4
 NAtoms=    4 NActive=    4 NUniq=    3 SFac= 1.78D+00 NAtFMM=   60 NAOKFM=F Big=F
 Integral buffers will be    131072 words long.
 Regular integral format.
 Two-electron integral symmetry is turned on.
 Leave Link  301 at Fri Sep 17 10:52:04 2021, MaxMem=   268435456 cpu:               0.1 elap:               0.1
 (Enter /software/gaussian/g16-a03/l302.exe)
 NPDir=0 NMtPBC=     1 NCelOv=     1 NCel=       1 NClECP=     1 NCelD=      1
         NCelK=      1 NCelE2=     1 NClLst=     1 CellRange=     0.0.
 One-electron integrals computed using PRISM.
 One-electron integral symmetry used in STVInt
 NBasis=    56 RedAO= T EigKep=  1.13D-03  NBF=    27     3    11    15
 NBsUse=    56 1.00D-06 EigRej= -1.00D+00 NBFU=    27     3    11    15
 Precomputing XC quadrature grid using
 IXCGrd= 4 IRadAn=           5 IRanWt=          -1 IRanGd=           0 AccXCQ= 0.00D+00.
 Generated NRdTot=       0 NPtTot=           0 NUsed=           0 NTot=          32
 NSgBfM=    58    58    58    58    58 MxSgAt=     4 MxSgA2=     4.
 Leave Link  302 at Fri Sep 17 10:52:04 2021, MaxMem=   268435456 cpu:               0.1 elap:               0.2
 (Enter /software/gaussian/g16-a03/l303.exe)
 DipDrv:  MaxL=1.
 Leave Link  303 at Fri Sep 17 10:52:04 2021, MaxMem=   268435456 cpu:               0.0 elap:               0.0
 (Enter /software/gaussian/g16-a03/l308.exe)
 Leave Link  308 at Fri Sep 17 10:52:04 2021, MaxMem=   268435456 cpu:               0.0 elap:               0.0
 (Enter /software/gaussian/g16-a03/l401.exe)
 ExpMin= 4.38D-02 ExpMax= 8.59D+03 ExpMxC= 1.30D+03 IAcc=3 IRadAn=         5 AccDes= 0.00D+00
 Harris functional with IExCor=  402 and IRadAn=       5 diagonalized for initial guess.
 HarFok:  IExCor=  402 AccDes= 0.00D+00 IRadAn=         5 IDoV= 1 UseB2=F ITyADJ=14
 ICtDFT=  3500011 ScaDFX=  1.000000  1.000000  1.000000  1.000000
 FoFCou: FMM=F IPFlag=           0 FMFlag=      100000 FMFlg1=           0
         NFxFlg=           0 DoJE=T BraDBF=F KetDBF=T FulRan=T
         wScrn=  0.000000 ICntrl=       500 IOpCl=  0 I1Cent=   200000004 NGrid=           0
         NMat0=    1 NMatS0=      1 NMatT0=    0 NMatD0=    1 NMtDS0=    0 NMtDT0=    0
 Petite list used in FoFCou.
 Harris En= -114.231340318208    
 JPrj=0 DoOrth=F DoCkMO=F.
 Initial guess orbital symmetries:
       Occupied  (A1) (A1) (A1) (B2) (B1) (A1) (A1) (B2)
       Virtual   (B1) (A1) (B2) (A1) (B1) (A1) (A1) (B2) (B2) (B1)
                 (A1) (A1) (A1) (B1) (B2) (B2) (A1) (A1) (A2) (B1)
                 (B2) (A1) (A1) (B1) (B2) (A1) (B2) (A2) (B1) (A1)
                 (A1) (B2) (A1) (B2) (B1) (A1) (A1) (A2) (B2) (A1)
                 (B1) (B2) (A1) (B1) (B2) (A1) (A1) (A1)
 The electronic state of the initial guess is 1-A1.
 Leave Link  401 at Fri Sep 17 10:52:04 2021, MaxMem=   268435456 cpu:               0.3 elap:               0.3
 (Enter /software/gaussian/g16-a03/l502.exe)
 Keep R1 ints in memory in symmetry-blocked form, NReq=2159909.
 FoFCou: FMM=F IPFlag=           0 FMFlag=           0 FMFlg1=           0
         NFxFlg=           0 DoJE=F BraDBF=F KetDBF=F FulRan=T
         wScrn=  0.000000 ICntrl=       600 IOpCl=  0 I1Cent=           0 NGrid=           0
         NMat0=    1 NMatS0=   1596 NMatT0=    0 NMatD0=    1 NMtDS0=    0 NMtDT0=    0
 Petite list used in FoFCou.
 Closed shell SCF:
 Using DIIS extrapolation, IDIIS=  1040.
 NGot=   268435456 LenX=   268074384 LenY=   268070579
 Requested convergence on RMS density matrix=1.00D-08 within 128 cycles.
 Requested convergence on MAX density matrix=1.00D-06.
 Requested convergence on             energy=1.00D-06.
 No special actions if energy rises.

 Cycle   1  Pass 1  IDiag  1:
 E= -113.952586621260    
 DIIS: error= 8.16D-02 at cycle   1 NSaved=   1.
 NSaved= 1 IEnMin= 1 EnMin= -113.952586621260     IErMin= 1 ErrMin= 8.16D-02
 ErrMax= 8.16D-02  0.00D+00 EMaxC= 1.00D-01 BMatC= 2.66D-01 BMatP= 2.66D-01
 IDIUse=3 WtCom= 1.84D-01 WtEn= 8.16D-01
 Coeff-Com:  0.100D+01
 Coeff-En:   0.100D+01
 Coeff:      0.100D+01
 Gap=     0.148 Goal=   None    Shift=    0.000
 GapD=    0.148 DampG=1.000 DampE=0.500 DampFc=0.5000 IDamp=-1.
 Damping current iteration by 5.00D-01
 RMSDP=1.41D-02 MaxDP=1.93D-01              OVMax= 2.89D-01

 Cycle   2  Pass 1  IDiag  1:
 E= -114.014262953403     Delta-E=       -0.061676332142 Rises=F Damp=T
 DIIS: error= 1.57D-02 at cycle   2 NSaved=   2.
 NSaved= 2 IEnMin= 2 EnMin= -114.014262953403     IErMin= 2 ErrMin= 1.57D-02
 ErrMax= 1.57D-02  0.00D+00 EMaxC= 1.00D-01 BMatC= 1.05D-02 BMatP= 2.66D-01
 IDIUse=3 WtCom= 8.43D-01 WtEn= 1.57D-01
 Coeff-Com:  0.756D-01 0.924D+00
 Coeff-En:   0.218D+00 0.782D+00
 Coeff:      0.980D-01 0.902D+00
 Gap=     0.266 Goal=   None    Shift=    0.000
 RMSDP=3.54D-03 MaxDP=4.98D-02 DE=-6.17D-02 OVMax= 1.70D-01

 Cycle   3  Pass 1  IDiag  1:
 E= -114.109386870178     Delta-E=       -0.095123916775 Rises=F Damp=F
 DIIS: error= 1.52D-02 at cycle   3 NSaved=   3.
 NSaved= 3 IEnMin= 3 EnMin= -114.109386870178     IErMin= 3 ErrMin= 1.52D-02
 ErrMax= 1.52D-02  0.00D+00 EMaxC= 1.00D-01 BMatC= 6.75D-03 BMatP= 1.05D-02
 IDIUse=3 WtCom= 8.48D-01 WtEn= 1.52D-01
 Coeff-Com: -0.228D-01 0.423D+00 0.600D+00
 Coeff-En:   0.000D+00 0.000D+00 0.100D+01
 Coeff:     -0.193D-01 0.358D+00 0.661D+00
 Gap=     0.254 Goal=   None    Shift=    0.000
 RMSDP=1.15D-03 MaxDP=1.42D-02 DE=-9.51D-02 OVMax= 2.97D-02

 Cycle   4  Pass 1  IDiag  1:
 E= -114.113353942080     Delta-E=       -0.003967071902 Rises=F Damp=F
 DIIS: error= 4.38D-03 at cycle   4 NSaved=   4.
 NSaved= 4 IEnMin= 4 EnMin= -114.113353942080     IErMin= 4 ErrMin= 4.38D-03
 ErrMax= 4.38D-03  0.00D+00 EMaxC= 1.00D-01 BMatC= 6.71D-04 BMatP= 6.75D-03
 IDIUse=3 WtCom= 9.56D-01 WtEn= 4.38D-02
 Coeff-Com: -0.195D-01 0.683D-01 0.295D+00 0.656D+00
 Coeff-En:   0.000D+00 0.000D+00 0.162D-02 0.998D+00
 Coeff:     -0.186D-01 0.653D-01 0.282D+00 0.671D+00
 Gap=     0.250 Goal=   None    Shift=    0.000
 RMSDP=3.06D-04 MaxDP=6.49D-03 DE=-3.97D-03 OVMax= 6.53D-03

 Cycle   5  Pass 1  IDiag  1:
 E= -114.113842213009     Delta-E=       -0.000488270929 Rises=F Damp=F
 DIIS: error= 2.89D-04 at cycle   5 NSaved=   5.
 NSaved= 5 IEnMin= 5 EnMin= -114.113842213009     IErMin= 5 ErrMin= 2.89D-04
 ErrMax= 2.89D-04  0.00D+00 EMaxC= 1.00D-01 BMatC= 4.14D-06 BMatP= 6.71D-04
 IDIUse=3 WtCom= 9.97D-01 WtEn= 2.89D-03
 Coeff-Com: -0.101D-02-0.162D-02 0.192D-01 0.114D+00 0.870D+00
 Coeff-En:   0.000D+00 0.000D+00 0.000D+00 0.000D+00 0.100D+01
 Coeff:     -0.100D-02-0.162D-02 0.192D-01 0.113D+00 0.870D+00
 Gap=     0.250 Goal=   None    Shift=    0.000
 RMSDP=3.59D-05 MaxDP=6.20D-04 DE=-4.88D-04 OVMax= 6.33D-04

 Cycle   6  Pass 1  IDiag  1:
 E= -114.113845717620     Delta-E=       -0.000003504611 Rises=F Damp=F
 DIIS: error= 2.04D-05 at cycle   6 NSaved=   6.
 NSaved= 6 IEnMin= 6 EnMin= -114.113845717620     IErMin= 6 ErrMin= 2.04D-05
 ErrMax= 2.04D-05  0.00D+00 EMaxC= 1.00D-01 BMatC= 1.59D-08 BMatP= 4.14D-06
 IDIUse=1 WtCom= 1.00D+00 WtEn= 0.00D+00
 Coeff-Com:  0.193D-03-0.713D-03-0.343D-03 0.640D-02 0.778D-01 0.917D+00
 Coeff:      0.193D-03-0.713D-03-0.343D-03 0.640D-02 0.778D-01 0.917D+00
 Gap=     0.250 Goal=   None    Shift=    0.000
 RMSDP=2.35D-06 MaxDP=2.93D-05 DE=-3.50D-06 OVMax= 4.47D-05

 Cycle   7  Pass 1  IDiag  1:
 E= -114.113845729425     Delta-E=       -0.000000011805 Rises=F Damp=F
 DIIS: error= 1.02D-06 at cycle   7 NSaved=   7.
 NSaved= 7 IEnMin= 7 EnMin= -114.113845729425     IErMin= 7 ErrMin= 1.02D-06
 ErrMax= 1.02D-06  0.00D+00 EMaxC= 1.00D-01 BMatC= 6.26D-11 BMatP= 1.59D-08
 IDIUse=1 WtCom= 1.00D+00 WtEn= 0.00D+00
 Coeff-Com:  0.328D-05-0.747D-05-0.988D-04-0.574D-03-0.621D-02-0.354D-03
 Coeff-Com:  0.101D+01
 Coeff:      0.328D-05-0.747D-05-0.988D-04-0.574D-03-0.621D-02-0.354D-03
 Coeff:      0.101D+01
 Gap=     0.250 Goal=   None    Shift=    0.000
 RMSDP=2.85D-07 MaxDP=2.89D-06 DE=-1.18D-08 OVMax= 6.64D-06

 Cycle   8  Pass 1  IDiag  1:
 E= -114.113845729521     Delta-E=       -0.000000000096 Rises=F Damp=F
 DIIS: error= 2.14D-07 at cycle   8 NSaved=   8.
 NSaved= 8 IEnMin= 8 EnMin= -114.113845729521     IErMin= 8 ErrMin= 2.14D-07
 ErrMax= 2.14D-07  0.00D+00 EMaxC= 1.00D-01 BMatC= 1.90D-12 BMatP= 6.26D-11
 IDIUse=1 WtCom= 1.00D+00 WtEn= 0.00D+00
 Coeff-Com: -0.237D-05 0.289D-05 0.707D-05-0.590D-04-0.841D-03-0.791D-02
 Coeff-Com:  0.999D-01 0.909D+00
 Coeff:     -0.237D-05 0.289D-05 0.707D-05-0.590D-04-0.841D-03-0.791D-02
 Coeff:      0.999D-01 0.909D+00
 Gap=     0.250 Goal=   None    Shift=    0.000
 RMSDP=4.76D-08 MaxDP=6.44D-07 DE=-9.65D-11 OVMax= 1.12D-06

 Cycle   9  Pass 1  IDiag  1:
 E= -114.113845729524     Delta-E=       -0.000000000003 Rises=F Damp=F
 DIIS: error= 3.20D-08 at cycle   9 NSaved=   9.
 NSaved= 9 IEnMin= 9 EnMin= -114.113845729524     IErMin= 9 ErrMin= 3.20D-08
 ErrMax= 3.20D-08  0.00D+00 EMaxC= 1.00D-01 BMatC= 4.91D-14 BMatP= 1.90D-12
 IDIUse=1 WtCom= 1.00D+00 WtEn= 0.00D+00
 Coeff-Com: -0.205D-06 0.707D-06 0.772D-06 0.149D-05-0.194D-04-0.738D-03
 Coeff-Com: -0.102D-01 0.825D-01 0.928D+00
 Coeff:     -0.205D-06 0.707D-06 0.772D-06 0.149D-05-0.194D-04-0.738D-03
 Coeff:     -0.102D-01 0.825D-01 0.928D+00
 Gap=     0.250 Goal=   None    Shift=    0.000
 RMSDP=6.73D-09 MaxDP=7.28D-08 DE=-2.56D-12 OVMax= 1.56D-07

 SCF Done:  E(RB3LYP) =  -114.113845730     A.U. after    9 cycles
            NFock=  9  Conv=0.67D-08     -V/T= 1.9754
 KE= 1.169909914691D+02 PE=-3.508475955949D+02 EE= 7.929426094903D+01
 Leave Link  502 at Fri Sep 17 10:52:07 2021, MaxMem=   268435456 cpu:               1.6 elap:               2.2
 (Enter /software/gaussian/g16-a03/l801.exe)
 DoSCS=F DFT=T ScalE2(SS,OS)=  1.000000  1.000000
 ExpMin= 4.38D-02 ExpMax= 8.59D+03 ExpMxC= 1.30D+03 IAcc=3 IRadAn=         5 AccDes= 0.00D+00
 HarFok:  IExCor=  205 AccDes= 0.00D+00 IRadAn=         5 IDoV=-2 UseB2=F ITyADJ=14
 ICtDFT= 12500011 ScaDFX=  1.000000  1.000000  1.000000  1.000000
 Largest valence mixing into a core orbital is  7.25D-05
 Largest core mixing into a valence orbital is  1.08D-05
 Range of M.O.s used for correlation:     3    56
 NBasis=    56 NAE=     8 NBE=     8 NFC=     2 NFV=     0
 NROrb=     54 NOA=     6 NOB=     6 NVA=    48 NVB=    48

 **** Warning!!: The largest alpha MO coefficient is  0.11723319D+02

 Leave Link  801 at Fri Sep 17 10:52:07 2021, MaxMem=   268435456 cpu:               0.2 elap:               0.3
 (Enter /software/gaussian/g16-a03/l914.exe)
 RHF ground state
 Keep R1, R2, and R3 ints in memory in symmetry-blocked form, NReq=6042848.
 FoFCou: FMM=F IPFlag=           0 FMFlag=           0 FMFlg1=           0
         NFxFlg=           0 DoJE=F BraDBF=F KetDBF=F FulRan=T
         wScrn=  0.000000 ICntrl=       600 IOpCl=  0 I1Cent=           0 NGrid=           0
         NMat0=    1 NMatS0=   1596 NMatT0=    0 NMatD0=    1 NMtDS0=    0 NMtDT0=    0
 Petite list used in FoFCou.
 MDV=   268435456 DFT=T DoStab=F Mixed=T DoRPA=T DoScal=F NonHer=T
 Making orbital integer symmetry assigments:
 Orbital symmetries:
       Occupied  (A1) (A1) (A1) (B2) (A1) (B1) (A1) (B2)
       Virtual   (A1) (B1) (B2) (A1) (B1) (A1) (A1) (B2) (B1) (B2)
                 (A1) (A1) (A1) (B1) (B2) (B2) (A1) (A1) (A2) (B1)
                 (B2) (A1) (A1) (B1) (B2) (A1) (A2) (B2) (B1) (A1)
                 (A1) (B2) (A1) (B2) (B1) (A1) (A1) (A2) (B2) (A1)
                 (B1) (B2) (A1) (B1) (B2) (A1) (A1) (A1)
   120 initial guesses have been made.
 Convergence on wavefunction:    0.001000000000000
 Davidson Disk Diagonalization:  ConvIn= 1.00D-03 SkipCon=T Conv= 1.00D-03.
 Max sub-space:  1728 roots to seek:   120 dimension of matrix:          576
 Iteration     1 Dimension   120 NMult     0 NNew    120
 CISAX will form   120 AO SS matrices at one time.
 NMat=   120 NSing=   120 JSym2X=-1.
 New state      1 was old state      2
 New state      2 was old state      1
 New state      3 was old state      4
 New state      4 was old state      3
 New state     12 was old state     13
 New state     13 was old state     12
 New state     16 was old state     17
 New state     17 was old state     16
 New state     18 was old state     21
 New state     20 was old state     18
 New state     21 was old state     20
 New state     23 was old state     27
 New state     24 was old state     23
 New state     25 was old state     26
 New state     26 was old state     24
 New state     27 was old state     25
 Excitation Energies [eV] at current iteration:
 Root      1 :     5.570354593142439
 Root      2 :     5.763528550637812
 Root      3 :     6.562531866467245
 Root      4 :     6.700144585476001
 Root      5 :     7.599507636696402
 Root      6 :     9.826632154099192
 Root      7 :    10.055731445817450
 Root      8 :    10.917302833986630
 Root      9 :    11.110004542871140
 Root     10 :    12.160039172359940
 Root     11 :    12.296543458155940
 Root     12 :    13.609971528543020
 Root     13 :    13.839745698805820
 Root     14 :    14.564372069305190
 Root     15 :    14.568925755984010
 Root     16 :    14.878850452569500
 Root     17 :    15.104445622177950
 Root     18 :    15.533999632882110
 Root     19 :    15.590209499340880
 Root     20 :    15.818919366334630
 Root     21 :    15.822894493732460
 Root     22 :    15.979659015137810
 Root     23 :    16.059177060161790
 Root     24 :    16.083506761257810
 Root     25 :    16.387949612162000
 Root     26 :    16.393163471883020
 Root     27 :    16.411806360701880
 Root     28 :    17.053808863252140
 Root     29 :    17.213123899825100
 Root     30 :    17.308499935663550
 Root     31 :    17.748763202131760
 Root     32 :    17.855648692217720
 Root     33 :    17.975786161174860
 Root     34 :    18.128273274905530
 Root     35 :    18.466195057261490
 Root     36 :    18.773470541422230
 Root     37 :    18.883699128522490
 Root     38 :    19.121345680255930
 Root     39 :    19.178458446168930
 Root     40 :    19.360602118352890
 Root     41 :    19.432039327537230
 Root     42 :    19.676560965921820
 Root     43 :    19.934185181665690
 Root     44 :    20.033130853003200
 Root     45 :    20.110741129769510
 Root     46 :    20.331600820539300
 Root     47 :    20.448339085351160
 Root     48 :    20.563703200727680
 Root     49 :    20.738016055327980
 Root     50 :    20.892397447913190
 Root     51 :    20.957557000205200
 Root     52 :    20.967480087054050
 Root     53 :    21.495439642509080
 Root     54 :    21.620277239050350
 Root     55 :    21.718255353859110
 Root     56 :    21.859931289089620
 Root     57 :    22.150199205970480
 Root     58 :    22.907286427938780
 Root     59 :    22.968064877071980
 Root     60 :    23.178461834557960
 Root     61 :    24.282014221980190
 Root     62 :    24.362386612535550
 Root     63 :    24.457058348930560
 Root     64 :    25.218785457895600
 Root     65 :    26.013114083884800
 Root     66 :    26.750750733106220
 Root     67 :    27.156929344509690
 Root     68 :    27.693205218307250
 Root     69 :    28.192345784255820
 Root     70 :    28.898667680166050
 Root     71 :    28.948500522351870
 Root     72 :    29.028512483881000
 Root     73 :    29.254804272136290
 Root     74 :    29.536695267605980
 Root     75 :    29.545030860243860
 Root     76 :    29.881769547110550
 Root     77 :    30.442358047966740
 Root     78 :    30.643736355228840
 Root     79 :    30.908915969613690
 Root     80 :    31.794446653344410
 Root     81 :    32.067973448504980
 Root     82 :    32.305713375278900
 Root     83 :    32.357374726208430
 Root     84 :    32.530575732118820
 Root     85 :    33.296205138239210
 Root     86 :    33.569412827548040
 Root     87 :    33.945540452392180
 Root     88 :    34.283781783883340
 Root     89 :    34.283806240996970
 Root     90 :    34.810628516588980
 Root     91 :    35.190108825090800
 Root     92 :    35.264226876604300
 Root     93 :    36.118017283725240
 Root     94 :    36.974349479357990
 Root     95 :    37.596112023729630
 Root     96 :    38.415747671533270
 Root     97 :    38.492257688874690
 Root     98 :    39.364348710568270
 Root     99 :    39.386130810050620
 Root    100 :    39.406012614941210
 Root    101 :    39.582520962345410
 Root    102 :    39.688705220770340
 Root    103 :    39.773268374710320
 Root    104 :    39.939066196380320
 Root    105 :    40.162599855137600
 Root    106 :    40.540806111223650
 Root    107 :    40.749248655928570
 Root    108 :    40.926902349805160
 Root    109 :    41.264738421179790
 Root    110 :    41.668963749817660
 Root    111 :    41.739436488709100
 Root    112 :    41.957268605583100
 Root    113 :    41.967515871623100
 Root    114 :    42.072347739143080
 Root    115 :    42.420209157601090
 Root    116 :    42.695896944783830
 Root    117 :    43.299767104246970
 Root    118 :    43.470734887498000
 Root    119 :    43.631495854125900
 Root    120 :    47.806338376082400
 Iteration     2 Dimension   180 NMult   120 NNew     60
 CISAX will form    60 AO SS matrices at one time.
 NMat=    60 NSing=    60 JSym2X=-1.
 Root      1 not converged, maximum delta is    0.004778338187029
 Root      2 not converged, maximum delta is    0.003008925488565
 Root      3 not converged, maximum delta is    0.003062227577189
 Root      4 not converged, maximum delta is    0.004535797068913
 Root      5 not converged, maximum delta is    0.003658906292599
 Root      6 not converged, maximum delta is    0.018502029362033
 Root      7 not converged, maximum delta is    0.017315646392562
 Root      8 not converged, maximum delta is    0.004473591023351
 Root      9 not converged, maximum delta is    0.002044827481866
 Root     10 not converged, maximum delta is    0.007197079406874
 Root     11 not converged, maximum delta is    0.003419985594255
 Root     12 not converged, maximum delta is    0.017121788867006
 Root     13 not converged, maximum delta is    0.009544843576411
 Root     14 not converged, maximum delta is    0.009674014238038
 Root     15 not converged, maximum delta is    0.008417464026953
 Root     16 not converged, maximum delta is    0.009847292337745
 Root     17 not converged, maximum delta is    0.001861612497212
 Root     18 not converged, maximum delta is    0.018392433240641
 Root     19 not converged, maximum delta is    0.044060523867772
 New state     20 was old state     21
 Root     20 not converged, maximum delta is    0.026141743928506
 New state     21 was old state     20
 Root     21 not converged, maximum delta is    0.045414065977806
 Root     22 not converged, maximum delta is    0.011574293779098
 Root     23 not converged, maximum delta is    0.012123991618593
 Root     24 not converged, maximum delta is    0.017691737594968
 New state     25 was old state     26
 Root     25 not converged, maximum delta is    0.210386500414098
 New state     26 was old state     25
 Root     26 not converged, maximum delta is    0.208134245236723
 Root     27 not converged, maximum delta is    0.014564608933539
 Root     28 not converged, maximum delta is    0.014330585531949
 Root     29 not converged, maximum delta is    0.018833638624642
 Root     30 not converged, maximum delta is    0.004422131971736
 Excitation Energies [eV] at current iteration:
 Root      1 :     5.562209837294353   Change is   -0.008144755848086
 Root      2 :     5.760187950499427   Change is   -0.003340600138384
 Root      3 :     6.557985189530773   Change is   -0.004546676936472
 Root      4 :     6.695709941370763   Change is   -0.004434644105238
 Root      5 :     7.594919506742250   Change is   -0.004588129954152
 Root      6 :     9.812197172973498   Change is   -0.014434981125695
 Root      7 :    10.050899750704450   Change is   -0.004831695112992
 Root      8 :    10.903622460150800   Change is   -0.013680373835831
 Root      9 :    11.108436205536090   Change is   -0.001568337335051
 Root     10 :    12.149771614051240   Change is   -0.010267558308705
 Root     11 :    12.289342274486700   Change is   -0.007201183669235
 Root     12 :    13.565151581687920   Change is   -0.044819946855091
 Root     13 :    13.827214343345510   Change is   -0.012531355460304
 Root     14 :    14.555222792552280   Change is   -0.009149276752908
 Root     15 :    14.558531480060300   Change is   -0.010394275923704
 Root     16 :    14.861270670478890   Change is   -0.017579782090610
 Root     17 :    15.103524297162480   Change is   -0.000921325015469
 Root     18 :    15.514202537954230   Change is   -0.019797094927873
 Root     19 :    15.572744654456960   Change is   -0.017464844883922
 Root     20 :    15.747050056672910   Change is   -0.075844437059547
 Root     21 :    15.768392051653530   Change is   -0.050527314681103
 Root     22 :    15.978769931816670   Change is   -0.000889083321147
 Root     23 :    16.055295006035250   Change is   -0.003882054126540
 Root     24 :    16.076088123755170   Change is   -0.007418637502639
 Root     25 :    16.374169425872340   Change is   -0.018994046010682
 Root     26 :    16.387439890619230   Change is   -0.000509721542777
 Root     27 :    16.401006500210670   Change is   -0.010799860491208
 Root     28 :    17.047554630745380   Change is   -0.006254232506765
 Root     29 :    17.201111797691020   Change is   -0.012012102134081
 Root     30 :    17.302919528988070   Change is   -0.005580406675478
 Iteration     3 Dimension   240 NMult   180 NNew     60
 CISAX will form    60 AO SS matrices at one time.
 NMat=    60 NSing=    60 JSym2X=-1.
 Root      1 has converged.
 Root      2 has converged.
 Root      3 has converged.
 Root      4 has converged.
 Root      5 has converged.
 Root      6 has converged.
 Root      7 has converged.
 Root      8 has converged.
 Root      9 has converged.
 Root     10 has converged.
 Root     11 has converged.
 Root     12 has converged.
 Root     13 has converged.
 Root     14 has converged.
 Root     15 has converged.
 Root     16 has converged.
 Root     17 has converged.
 Root     18 has converged.
 Root     19 has converged.
 Root     20 has converged.
 Root     21 has converged.
 Root     22 has converged.
 Root     23 has converged.
 Root     24 has converged.
 Root     25 has converged.
 Root     26 has converged.
 Root     27 has converged.
 Root     28 has converged.
 Root     29 has converged.
 Root     30 has converged.
 Excitation Energies [eV] at current iteration:
 Root      1 :     5.562207528044794   Change is   -0.000002309249559
 Root      2 :     5.760186358381710   Change is   -0.000001592117717
 Root      3 :     6.557983244975198   Change is   -0.000001944555574
 Root      4 :     6.695707633390854   Change is   -0.000002307979909
 Root      5 :     7.594918043898468   Change is   -0.000001462843783
 Root      6 :     9.812193389077375   Change is   -0.000003783896121
 Root      7 :    10.050896961676360   Change is   -0.000002789028097
 Root      8 :    10.903607276305720   Change is   -0.000015183845089
 Root      9 :    11.108434730753790   Change is   -0.000001474782295
 Root     10 :    12.149754796580880   Change is   -0.000016817470356
 Root     11 :    12.289332897477220   Change is   -0.000009377009480
 Root     12 :    13.565042000507920   Change is   -0.000109581180006
 Root     13 :    13.827181430066230   Change is   -0.000032913279281
 Root     14 :    14.555205004179090   Change is   -0.000017788373189
 Root     15 :    14.558499975179730   Change is   -0.000031504880575
 Root     16 :    14.861244487449460   Change is   -0.000026183029428
 Root     17 :    15.103520595726650   Change is   -0.000003701435828
 Root     18 :    15.514152232847240   Change is   -0.000050305106992
 Root     19 :    15.572681896519850   Change is   -0.000062757937107
 Root     20 :    15.746862580907550   Change is   -0.000187475765363
 Root     21 :    15.768261541626280   Change is   -0.000130510027248
 Root     22 :    15.978768906287580   Change is   -0.000001025529089
 Root     23 :    16.055289275942640   Change is   -0.000005730092607
 Root     24 :    16.076067255875880   Change is   -0.000020867879290
 Root     25 :    16.374142546968280   Change is   -0.000026878904058
 Root     26 :    16.387438061603830   Change is   -0.000001829015393
 Root     27 :    16.400974735880990   Change is   -0.000031764329678
 Root     28 :    17.047530216890650   Change is   -0.000024413854734
 Root     29 :    17.201064555211110   Change is   -0.000047242479908
 Root     30 :    17.302901692191860   Change is   -0.000017836796214
 Convergence achieved on expansion vectors.
 ***********************************************************************
 Excited states from <AA,BB:AA,BB> singles matrix:
 ***********************************************************************
 
 1PDM for each excited state written to RWF  633
 Ground to excited state transition densities written to RWF  633
 Ground to excited state transition electric dipole moments (Au):
       state          X           Y           Z        Dip. S.      Osc.
         1        -0.0000      0.0000     -0.0000      0.0000      0.0000
         2         0.0000      0.8043      0.0000      0.6469      0.0913
         3        -0.0000     -0.3812     -0.0000      0.1453      0.0234
         4        -0.0000      0.0000     -0.4814      0.2317      0.0380
         5         0.0000      0.0000      0.0000      0.0000      0.0000
         6         0.0000      0.9889      0.0000      0.9779      0.2351
         7        -0.0000      0.6847      0.0000      0.4688      0.1154
         8         0.0000     -0.0000     -0.0079      0.0001      0.0000
         9         0.0000      0.0000     -0.0000      0.0000      0.0000
        10         0.0000      0.0000     -0.8765      0.7682      0.2287
        11        -0.0000     -0.3589      0.0000      0.1288      0.0388
        12        -0.1218      0.0000     -0.0000      0.0148      0.0049
        13        -0.0000      0.0000     -0.0167      0.0003      0.0001
        14         0.0000     -0.3394     -0.0000      0.1152      0.0411
        15         0.0000      0.0000     -0.5366      0.2879      0.1027
        16         0.0000      0.2469     -0.0000      0.0610      0.0222
        17        -0.3734      0.0000      0.0000      0.1394      0.0516
        18        -0.0248      0.0000      0.0000      0.0006      0.0002
        19         0.0000     -0.0000      0.4732      0.2240      0.0854
        20        -0.6385     -0.0000      0.0000      0.4077      0.1573
        21         0.0000      0.0000      0.1122      0.0126      0.0049
        22         0.0000      0.0000      0.0000      0.0000      0.0000
        23         0.0000      0.0000      0.0000      0.0000      0.0000
        24        -0.2348     -0.0000      0.0000      0.0551      0.0217
        25         0.0000     -0.2597      0.0000      0.0675      0.0271
        26         0.0000     -0.3085      0.0000      0.0952      0.0382
        27         0.0000     -0.0000     -0.5012      0.2512      0.1009
        28         0.0000      0.0000      0.2422      0.0587      0.0245
        29         0.0000     -0.0000      0.2695      0.0726      0.0306
        30         0.0000     -0.1140      0.0000      0.0130      0.0055
 Ground to excited state transition velocity dipole moments (Au):
       state          X           Y           Z        Dip. S.      Osc.
         1         0.0000      0.0000      0.0000      0.0000      0.0000
         2        -0.0000     -0.1650     -0.0000      0.0272      0.0857
         3         0.0000      0.0928      0.0000      0.0086      0.0238
         4         0.0000     -0.0000      0.1127      0.0127      0.0344
         5        -0.0000     -0.0000     -0.0000      0.0000      0.0000
         6        -0.0000     -0.3688      0.0000      0.1360      0.2515
         7         0.0000     -0.2229     -0.0000      0.0497      0.0897
         8        -0.0000      0.0000      0.0026      0.0000      0.0000
         9        -0.0000     -0.0000      0.0000      0.0000      0.0000
        10        -0.0000     -0.0000      0.3906      0.1526      0.2278
        11         0.0000      0.1643      0.0000      0.0270      0.0399
        12         0.0497     -0.0000      0.0000      0.0025      0.0033
        13         0.0000     -0.0000      0.0081      0.0001      0.0001
        14        -0.0000      0.1832      0.0000      0.0336      0.0418
        15        -0.0000     -0.0000      0.2883      0.0831      0.1036
        16        -0.0000     -0.1176      0.0000      0.0138      0.0169
        17         0.2117     -0.0000     -0.0000      0.0448      0.0538
        18         0.0173     -0.0000     -0.0000      0.0003      0.0003
        19        -0.0000      0.0000     -0.2652      0.0704      0.0820
        20         0.3687      0.0000     -0.0000      0.1360      0.1566
        21        -0.0000     -0.0000     -0.0619      0.0038      0.0044
        22        -0.0000     -0.0000     -0.0000      0.0000      0.0000
        23        -0.0000     -0.0000     -0.0000      0.0000      0.0000
        24         0.1475      0.0000      0.0000      0.0218      0.0246
        25        -0.0000      0.1606     -0.0000      0.0258      0.0286
        26        -0.0000      0.1836     -0.0000      0.0337      0.0373
        27        -0.0000      0.0000      0.2933      0.0860      0.0951
        28        -0.0000     -0.0000     -0.1555      0.0242      0.0257
        29        -0.0000      0.0000     -0.1701      0.0289      0.0305
        30         0.0000      0.0751     -0.0000      0.0056      0.0059
 Ground to excited state transition magnetic dipole moments (Au):
       state          X           Y           Z
         1         0.0000     -0.0000      1.2025
         2        -0.4363      0.0000     -0.0000
         3        -0.7952     -0.0000     -0.0000
         4         0.0000     -0.0000     -0.0000
         5        -0.0000      0.0000      0.5825
         6        -0.4355      0.0000      0.0000
         7        -1.2069     -0.0000      0.0000
         8         0.0000      0.0000     -0.0000
         9         0.0000     -0.0000      0.1811
        10         0.0000     -0.0000     -0.0000
        11        -0.3506     -0.0000      0.0000
        12        -0.0000     -0.8834      0.0000
        13        -0.0000     -0.0000     -0.0000
        14        -0.3978      0.0000     -0.0000
        15         0.0000      0.0000     -0.0000
        16        -1.3085     -0.0000     -0.0000
        17        -0.0000     -0.0681     -0.0000
        18        -0.0000     -1.0906     -0.0000
        19        -0.0000      0.0000      0.0000
        20         0.0000      0.1485      0.0000
        21        -0.0000     -0.0000      0.0000
        22        -0.0000      0.0000     -0.1072
        23        -0.0000      0.0000     -0.2594
        24         0.0000     -0.1083     -0.0000
        25         0.1277     -0.0000     -0.0000
        26         0.1503     -0.0000     -0.0000
        27         0.0000     -0.0000     -0.0000
        28        -0.0000      0.0000     -0.0000
        29         0.0000      0.0000      0.0000
        30         0.0252      0.0000     -0.0000
 Ground to excited state transition velocity quadrupole moments (Au):
       state          XX          YY          ZZ          XY          XZ          YZ
         1        -0.0000     -0.0000      0.0000     -0.2717     -0.0000      0.0000
         2         0.0000      0.0000      0.0000      0.0000     -0.0000      0.4946
         3        -0.0000     -0.0000     -0.0000      0.0000     -0.0000     -0.3042
         4        -0.2023     -0.6781     -0.1778      0.0000     -0.0000      0.0000
         5         0.0000      0.0000      0.0000      0.0786      0.0000      0.0000
         6        -0.0000     -0.0000      0.0000      0.0000     -0.0000      0.9492
         7        -0.0000     -0.0000      0.0000     -0.0000      0.0000      0.1918
         8         0.1916      0.6347      0.6210     -0.0000      0.0000     -0.0000
         9         0.0000      0.0000      0.0000      0.2270     -0.0000      0.0000
        10         0.0745     -0.7755     -0.7892     -0.0000      0.0000     -0.0000
        11        -0.0000     -0.0000      0.0000      0.0000     -0.0000      0.0258
        12        -0.0000     -0.0000     -0.0000     -0.0000     -0.3715      0.0000
        13         0.2254      0.4493      0.5097      0.0000     -0.0000      0.0000
        14         0.0000      0.0000     -0.0000      0.0000     -0.0000      0.1734
        15         0.0593      0.0559     -0.0026      0.0000      0.0000     -0.0000
        16        -0.0000      0.0000     -0.0000      0.0000     -0.0000      0.1816
        17        -0.0000      0.0000     -0.0000      0.0000     -0.0235      0.0000
        18         0.0000      0.0000      0.0000      0.0000     -0.8208      0.0000
        19         0.6216      0.7496      0.2986     -0.0000      0.0000     -0.0000
        20         0.0000      0.0000     -0.0000     -0.0000     -0.1884     -0.0000
        21         0.4391      0.0503     -0.4070     -0.0000      0.0000      0.0000
        22        -0.0000     -0.0000      0.0000      0.3522     -0.0000      0.0000
        23        -0.0000     -0.0000      0.0000      0.1368     -0.0000      0.0000
        24         0.0000      0.0000      0.0000      0.0000      0.0293     -0.0000
        25        -0.0000      0.0000      0.0000      0.0000     -0.0000     -0.3174
        26         0.0000      0.0000      0.0000      0.0000     -0.0000     -0.0518
        27        -0.2993     -0.1626     -1.1558      0.0000      0.0000     -0.0000
        28        -0.2738      0.4991      0.2273      0.0000     -0.0000      0.0000
        29         0.0131      0.5611     -0.0506     -0.0000      0.0000      0.0000
        30        -0.0000      0.0000      0.0000     -0.0000     -0.0000      0.3490
 <0|del|b> * <b|rxdel|0> + <0|del|b> * <b|delr+rdel|0>
 Rotatory Strengths (R) in cgs (10**-40 erg-esu-cm/Gauss)
       state          XX          YY          ZZ    R(velocity)    E-M Angle
         1         0.0000      0.0000      0.0000      0.0000       90.00
         2        -0.0000     -0.0000      0.0000      0.0000       90.00
         3         0.0000     -0.0000     -0.0000     -0.0000       90.00
         4        -0.0000     -0.0000     -0.0000     -0.0000       90.00
         5        -0.0000     -0.0000      0.0000     -0.0000       90.00
         6        -0.0000     -0.0000      0.0000      0.0000       90.00
         7         0.0000     -0.0000     -0.0000     -0.0000       90.00
         8        -0.0000      0.0000      0.0000     -0.0000       90.00
         9         0.0000     -0.0000      0.0000      0.0000       90.00
        10        -0.0000      0.0000     -0.0000     -0.0000       90.00
        11         0.0000     -0.0000     -0.0000     -0.0000       90.00
        12         0.0000     -0.0000      0.0000      0.0000       90.00
        13        -0.0000     -0.0000     -0.0000     -0.0000       90.00
        14         0.0000      0.0000      0.0000      0.0000       90.00
        15        -0.0000     -0.0000     -0.0000     -0.0000       90.00
        16        -0.0000      0.0000      0.0000      0.0000       90.00
        17         0.0000     -0.0000     -0.0000     -0.0000       90.00
        18         0.0000     -0.0000      0.0000      0.0000       90.00
        19        -0.0000     -0.0000      0.0000     -0.0000       90.00
        20         0.0000     -0.0000      0.0000      0.0000       90.00
        21         0.0000     -0.0000      0.0000     -0.0000       90.00
        22        -0.0000      0.0000      0.0000      0.0000       90.00
        23         0.0000      0.0000      0.0000      0.0000       90.00
        24        -0.0000      0.0000      0.0000      0.0000       90.00
        25        -0.0000      0.0000     -0.0000     -0.0000       90.00
        26        -0.0000     -0.0000     -0.0000     -0.0000       90.00
        27         0.0000     -0.0000     -0.0000     -0.0000       90.00
        28        -0.0000      0.0000      0.0000      0.0000       90.00
        29         0.0000     -0.0000      0.0000     -0.0000       90.00
        30         0.0000      0.0000     -0.0000      0.0000       90.00
 1/2[<0|r|b>*<b|rxdel|0> + (<0|rxdel|b>*<b|r|0>)*]
 Rotatory Strengths (R) in cgs (10**-40 erg-esu-cm/Gauss)
       state          XX          YY          ZZ     R(length)
         1         0.0000      0.0000      0.0000      0.0000
         2         0.0000     -0.0000      0.0000     -0.0000
         3        -0.0000     -0.0000     -0.0000     -0.0000
         4         0.0000      0.0000     -0.0000     -0.0000
         5         0.0000     -0.0000     -0.0000     -0.0000
         6         0.0000     -0.0000     -0.0000     -0.0000
         7        -0.0000      0.0000     -0.0000      0.0000
         8        -0.0000      0.0000     -0.0000     -0.0000
         9        -0.0000      0.0000      0.0000      0.0000
        10        -0.0000      0.0000     -0.0000     -0.0000
        11        -0.0000     -0.0000     -0.0000     -0.0000
        12        -0.0000      0.0000      0.0000      0.0000
        13        -0.0000      0.0000     -0.0000     -0.0000
        14         0.0000      0.0000     -0.0000      0.0000
        15        -0.0000     -0.0000     -0.0000     -0.0000
        16         0.0000      0.0000     -0.0000      0.0000
        17        -0.0000      0.0000      0.0000     -0.0000
        18        -0.0000      0.0000      0.0000      0.0000
        19         0.0000      0.0000     -0.0000     -0.0000
        20         0.0000      0.0000     -0.0000      0.0000
        21         0.0000      0.0000     -0.0000     -0.0000
        22         0.0000     -0.0000      0.0000      0.0000
        23         0.0000     -0.0000      0.0000      0.0000
        24         0.0000     -0.0000      0.0000      0.0000
        25        -0.0000     -0.0000      0.0000     -0.0000
        26        -0.0000     -0.0000      0.0000     -0.0000
        27        -0.0000     -0.0000     -0.0000     -0.0000
        28         0.0000     -0.0000      0.0000      0.0000
        29        -0.0000      0.0000     -0.0000     -0.0000
        30        -0.0000      0.0000      0.0000      0.0000
  1/2[<0|del|b>*<b|r|0> + (<0|r|b>*<b|del|0>)*] (Au)
       state          X           Y           Z        Dip. S.   Osc.(frdel)
         1        -0.0000      0.0000     -0.0000      0.0000      0.0000
         2        -0.0000     -0.1327     -0.0000      0.1327      0.0885
         3        -0.0000     -0.0354     -0.0000      0.0354      0.0236
         4        -0.0000     -0.0000     -0.0542      0.0542      0.0362
         5        -0.0000     -0.0000     -0.0000      0.0000      0.0000
         6        -0.0000     -0.3647      0.0000      0.3647      0.2431
         7        -0.0000     -0.1526     -0.0000      0.1526      0.1017
         8        -0.0000     -0.0000     -0.0000      0.0000      0.0000
         9        -0.0000     -0.0000     -0.0000      0.0000      0.0000
        10        -0.0000     -0.0000     -0.3423      0.3423      0.2282
        11        -0.0000     -0.0590      0.0000      0.0590      0.0393
        12        -0.0061     -0.0000     -0.0000      0.0061      0.0040
        13        -0.0000     -0.0000     -0.0001      0.0001      0.0001
        14        -0.0000     -0.0622     -0.0000      0.0622      0.0414
        15        -0.0000     -0.0000     -0.1547      0.1547      0.1031
        16        -0.0000     -0.0290     -0.0000      0.0290      0.0194
        17        -0.0791     -0.0000     -0.0000      0.0791      0.0527
        18        -0.0004     -0.0000     -0.0000      0.0004      0.0003
        19        -0.0000     -0.0000     -0.1255      0.1255      0.0837
        20        -0.2354     -0.0000     -0.0000      0.2354      0.1570
        21        -0.0000     -0.0000     -0.0070      0.0070      0.0046
        22        -0.0000     -0.0000     -0.0000      0.0000      0.0000
        23        -0.0000     -0.0000     -0.0000      0.0000      0.0000
        24        -0.0346     -0.0000      0.0000      0.0346      0.0231
        25        -0.0000     -0.0417     -0.0000      0.0417      0.0278
        26        -0.0000     -0.0566     -0.0000      0.0566      0.0378
        27        -0.0000     -0.0000     -0.1470      0.1470      0.0980
        28        -0.0000     -0.0000     -0.0377      0.0377      0.0251
        29        -0.0000     -0.0000     -0.0458      0.0458      0.0306
        30         0.0000     -0.0086     -0.0000      0.0086      0.0057

 Excitation energies and oscillator strengths:
 
 Excited State   1:      Singlet-A2     5.5622 eV  222.90 nm  f=0.0000  <S**2>=0.000
       3 -> 27         0.00271
       3 -> 35         0.00207
       3 -> 46         0.00105
       4 -> 10         0.00603
       4 -> 13         0.00803
       4 -> 17         0.00588
       4 -> 22        -0.00347
       4 -> 28         0.00290
       4 -> 32         0.00151
       4 -> 37         0.00322
       4 -> 43         0.00046
       4 -> 52         0.00064
       5 -> 27         0.00358
       5 -> 35        -0.00067
       5 -> 46        -0.00059
       6 -> 11        -0.00053
       6 -> 16        -0.00073
       6 -> 18        -0.00042
       6 -> 23         0.00166
       6 -> 24         0.00032
       6 -> 29        -0.00029
       6 -> 33         0.00023
       6 -> 36         0.00051
       6 -> 42         0.00050
       6 -> 47         0.00062
       6 -> 50        -0.00018
       6 -> 53         0.00024
       7 -> 27         0.00100
       7 -> 35        -0.00020
       7 -> 46         0.00103
       8 -> 10         0.69706
       8 -> 13         0.11452
       8 -> 17         0.03068
       8 -> 22        -0.00567
       8 -> 28         0.00466
       8 -> 32         0.00336
       8 -> 37        -0.00240
       8 -> 43        -0.00015
       8 -> 52         0.00082
       3 <- 27         0.00203
       3 <- 35         0.00178
       3 <- 46         0.00108
       4 <- 10         0.00024
       4 <- 13         0.00115
       4 <- 17         0.00020
       4 <- 22         0.00016
       4 <- 32        -0.00104
       4 <- 37         0.00149
       4 <- 43         0.00042
       4 <- 52         0.00016
       5 <- 27         0.00396
       5 <- 35        -0.00052
       5 <- 46        -0.00059
       6 <- 11        -0.00090
       6 <- 16         0.00143
       6 <- 18        -0.00295
       6 <- 23         0.00398
       6 <- 24        -0.00169
       6 <- 29         0.00161
       6 <- 33        -0.00077
       6 <- 36         0.00174
       6 <- 40        -0.00012
       6 <- 42         0.00080
       6 <- 47         0.00049
       6 <- 53         0.00064
       7 <- 27         0.00105
       7 <- 35        -0.00026
       7 <- 46         0.00084
       8 <- 10        -0.00657
       8 <- 13        -0.00863
       8 <- 17        -0.00440
       8 <- 22         0.00041
       8 <- 28        -0.00039
       8 <- 32         0.00291
       8 <- 37        -0.00221
       8 <- 52         0.00026
 This state for optimization and/or second-order correction.
 Total Energy, E(TD-HF/TD-DFT) =  -113.909438364    
 Copying the excited state density for this state as the 1-particle RhoCI density.
 
 Excited State   2:      Singlet-B2     5.7602 eV  215.24 nm  f=0.0913  <S**2>=0.000
       3 -> 11         0.00086
       3 -> 16         0.00030
       3 -> 18         0.00097
       3 -> 24         0.00111
       3 -> 29        -0.00020
       3 -> 42         0.00015
       3 -> 50        -0.00015
       4 ->  9         0.00195
       4 -> 12         0.00621
       4 -> 14         0.00506
       4 -> 15         0.00162
       4 -> 19         0.00371
       4 -> 20         0.00134
       4 -> 21         0.00267
       4 -> 25         0.00130
       4 -> 26        -0.00108
       4 -> 30        -0.00206
       4 -> 31         0.00041
       4 -> 34         0.00040
       4 -> 38        -0.00081
       4 -> 39         0.00012
       4 -> 41         0.00046
       4 -> 44         0.00042
       4 -> 45        -0.00058
       4 -> 48         0.00038
       5 -> 11        -0.00655
       5 -> 16         0.00130
       5 -> 18         0.00109
       5 -> 23        -0.00232
       5 -> 24         0.00410
       5 -> 29        -0.00066
       5 -> 33        -0.00104
       5 -> 36         0.00087
       5 -> 40        -0.00014
       5 -> 42         0.00044
       6 -> 27         0.00112
       6 -> 35         0.00032
       6 -> 46         0.00087
       7 -> 11         0.00263
       7 -> 16         0.00343
       7 -> 18         0.00352
       7 -> 23        -0.00200
       7 -> 24         0.00250
       7 -> 29         0.00014
       7 -> 36        -0.00024
       7 -> 42        -0.00037
       7 -> 47         0.00041
       7 -> 50         0.00048
       8 ->  9         0.70624
       8 -> 12         0.01077
       8 -> 14        -0.02308
       8 -> 15         0.01132
       8 -> 19         0.02051
       8 -> 20        -0.00757
       8 -> 21        -0.00817
       8 -> 25         0.00063
       8 -> 26        -0.00046
       8 -> 31         0.00297
       8 -> 34         0.00147
       8 -> 38         0.00090
       8 -> 39        -0.00051
       8 -> 41        -0.00045
       8 -> 44        -0.00019
       8 -> 45        -0.00107
       8 -> 48         0.00035
       8 -> 54        -0.00014
       3 <- 11         0.00029
       3 <- 18         0.00060
       3 <- 24         0.00082
       3 <- 29        -0.00018
       3 <- 42         0.00013
       3 <- 53         0.00011
       4 <-  9         0.00199
       4 <- 12        -0.00013
       4 <- 14         0.00402
       4 <- 15         0.00178
       4 <- 19         0.00093
       4 <- 20         0.00050
       4 <- 21         0.00170
       4 <- 25         0.00163
       4 <- 26        -0.00125
       4 <- 30        -0.00076
       4 <- 34         0.00018
       4 <- 38        -0.00052
       4 <- 39         0.00016
       4 <- 41         0.00044
       4 <- 44         0.00029
       4 <- 45        -0.00053
       4 <- 48         0.00032
       5 <- 11        -0.00022
       5 <- 16         0.00125
       5 <- 18         0.00223
       5 <- 23        -0.00135
       5 <- 24         0.00316
       5 <- 29        -0.00053
       5 <- 33        -0.00079
       5 <- 36         0.00066
       5 <- 40        -0.00018
       5 <- 42         0.00020
       6 <- 27         0.00088
       6 <- 35         0.00025
       6 <- 46         0.00073
       7 <- 11         0.00070
       7 <- 16         0.00214
       7 <- 18         0.00117
       7 <- 23        -0.00081
       7 <- 24         0.00117
       7 <- 29         0.00076
       7 <- 42        -0.00032
       7 <- 47         0.00039
       7 <- 50         0.00055
       8 <-  9        -0.00475
       8 <- 12         0.00243
       8 <- 14        -0.01374
       8 <- 15        -0.00250
       8 <- 19        -0.00117
       8 <- 20         0.00022
       8 <- 21        -0.00433
       8 <- 25        -0.00313
       8 <- 26        -0.00065
       8 <- 30         0.00048
       8 <- 31         0.00161
       8 <- 34         0.00153
       8 <- 38         0.00089
       8 <- 39        -0.00042
       8 <- 41        -0.00030
       8 <- 44        -0.00026
       8 <- 45        -0.00079
       8 <- 48         0.00032
 
 Excited State   3:      Singlet-B2     6.5580 eV  189.06 nm  f=0.0234  <S**2>=0.000
       3 -> 11         0.00011
       3 -> 16        -0.00063
       3 -> 23        -0.00019
       3 -> 24        -0.00044
       3 -> 29        -0.00088
       3 -> 33        -0.00014
       3 -> 36         0.00028
       3 -> 42         0.00030
       3 -> 47        -0.00019
       3 -> 50        -0.00020
       3 -> 53         0.00011
       4 ->  9         0.00460
       4 -> 14        -0.00267
       4 -> 15        -0.00434
       4 -> 19         0.00304
       4 -> 20        -0.00048
       4 -> 21        -0.00141
       4 -> 25        -0.00091
       4 -> 26        -0.00118
       4 -> 30         0.00074
       4 -> 31         0.00219
       4 -> 34         0.00039
       4 -> 39         0.00082
       4 -> 41         0.00063
       4 -> 45        -0.00061
       4 -> 48         0.00040
       4 -> 51         0.00020
       5 -> 11        -0.00253
       5 -> 16        -0.00462
       5 -> 18        -0.00125
       5 -> 23         0.00131
       5 -> 24        -0.00374
       5 -> 29         0.00128
       5 -> 33        -0.00055
       5 -> 40         0.00027
       5 -> 47        -0.00012
       6 -> 27         0.00089
       6 -> 35         0.00134
       6 -> 46         0.00101
       7 -> 11         0.00289
       7 -> 16         0.00031
       7 -> 18         0.00239
       7 -> 23        -0.00127
       7 -> 24         0.00051
       7 -> 29         0.00010
       7 -> 33         0.00023
       7 -> 36        -0.00116
       7 -> 40         0.00030
       7 -> 42        -0.00062
       7 -> 47         0.00066
       7 -> 50         0.00056
       7 -> 53        -0.00017
       8 ->  9        -0.01102
       8 -> 12         0.70597
       8 -> 14         0.01877
       8 -> 15         0.02418
       8 -> 19         0.01618
       8 -> 20         0.01526
       8 -> 21         0.00328
       8 -> 25        -0.00042
       8 -> 26         0.00056
       8 -> 30        -0.00179
       8 -> 31        -0.00057
       8 -> 34        -0.00037
       8 -> 38         0.00013
       8 -> 39         0.00086
       8 -> 41         0.00120
       8 -> 44        -0.00011
       8 -> 45        -0.00068
       8 -> 48         0.00056
       8 -> 54        -0.00016
       3 <- 11        -0.00021
       3 <- 16        -0.00060
       3 <- 18        -0.00018
       3 <- 24        -0.00049
       3 <- 29        -0.00059
       3 <- 33        -0.00017
       3 <- 36         0.00031
       3 <- 42         0.00026
       3 <- 47        -0.00015
       3 <- 50        -0.00011
       3 <- 53         0.00021
       4 <-  9        -0.00136
       4 <- 12        -0.00019
       4 <- 14        -0.00176
       4 <- 15        -0.00060
       4 <- 19        -0.00064
       4 <- 20         0.00032
       4 <- 21        -0.00102
       4 <- 25        -0.00093
       4 <- 26        -0.00094
       4 <- 30         0.00088
       4 <- 31         0.00089
       4 <- 34         0.00092
       4 <- 39         0.00060
       4 <- 41         0.00064
       4 <- 45        -0.00063
       4 <- 48         0.00027
       4 <- 51         0.00019
       5 <- 11        -0.00021
       5 <- 16        -0.00090
       5 <- 18        -0.00108
       5 <- 23         0.00124
       5 <- 24        -0.00190
       5 <- 29         0.00058
       5 <- 33        -0.00058
       5 <- 36        -0.00022
       5 <- 40         0.00027
       5 <- 50        -0.00018
       6 <- 27         0.00043
       6 <- 35         0.00111
       6 <- 46         0.00088
       7 <- 11         0.00037
       7 <- 16         0.00043
       7 <- 18         0.00020
       7 <- 23        -0.00024
       7 <- 29         0.00041
       7 <- 36        -0.00079
       7 <- 40         0.00024
       7 <- 42        -0.00043
       7 <- 47         0.00058
       7 <- 50         0.00053
       8 <-  9         0.00226
       8 <- 12         0.00137
       8 <- 14         0.00714
       8 <- 15         0.00181
       8 <- 19        -0.00183
       8 <- 20        -0.00213
       8 <- 21         0.00281
       8 <- 25         0.00047
       8 <- 26        -0.00072
       8 <- 30        -0.00127
       8 <- 31        -0.00112
       8 <- 38         0.00030
       8 <- 39         0.00061
       8 <- 41         0.00101
       8 <- 45        -0.00058
       8 <- 48         0.00035
       8 <- 51         0.00012
 
 Excited State   4:      Singlet-A1     6.6957 eV  185.17 nm  f=0.0380  <S**2>=0.000
       3 ->  9         0.00128
       3 -> 12         0.00077
       3 -> 15         0.00060
       3 -> 19         0.00133
       3 -> 20        -0.00027
       3 -> 21        -0.00036
       3 -> 25         0.00029
       3 -> 30        -0.00102
       3 -> 31        -0.00021
       3 -> 34        -0.00022
       3 -> 38        -0.00034
       3 -> 39        -0.00027
       3 -> 41        -0.00011
       3 -> 48        -0.00014
       3 -> 51        -0.00027
       3 -> 54         0.00020
       4 -> 11         0.00736
       4 -> 16         0.00813
       4 -> 18         0.00636
       4 -> 23         0.00101
       4 -> 24         0.00398
       4 -> 29         0.00068
       4 -> 33        -0.00015
       4 -> 36         0.00097
       4 -> 42        -0.00025
       4 -> 50        -0.00035
       4 -> 53        -0.00012
       5 ->  9         0.00572
       5 -> 12        -0.01076
       5 -> 14         0.00622
       5 -> 15         0.00244
       5 -> 19         0.00130
       5 -> 20        -0.00679
       5 -> 21         0.00181
       5 -> 25         0.00679
       5 -> 26        -0.00094
       5 -> 30         0.00086
       5 -> 31        -0.00081
       5 -> 34        -0.00110
       5 -> 38        -0.00037
       5 -> 39         0.00096
       5 -> 41         0.00011
       5 -> 44         0.00018
       5 -> 45        -0.00031
       5 -> 48        -0.00030
       6 -> 10         0.00693
       6 -> 13        -0.00300
       6 -> 17         0.00507
       6 -> 22         0.00392
       6 -> 28         0.00079
       6 -> 32         0.00091
       6 -> 37         0.00054
       6 -> 43         0.00045
       6 -> 49        -0.00036
       7 ->  9         0.01294
       7 -> 12         0.00549
       7 -> 14         0.00248
       7 -> 15        -0.00105
       7 -> 19         0.00821
       7 -> 20        -0.00248
       7 -> 21         0.00072
       7 -> 25         0.00185
       7 -> 26         0.00019
       7 -> 30        -0.00031
       7 -> 31         0.00069
       7 -> 34        -0.00096
       7 -> 38        -0.00011
       7 -> 39         0.00024
       7 -> 48        -0.00022
       7 -> 51         0.00041
       8 -> 11         0.70540
       8 -> 16         0.04336
       8 -> 18        -0.00519
       8 -> 23         0.00294
       8 -> 24         0.00177
       8 -> 29         0.00356
       8 -> 33         0.00157
       8 -> 36        -0.00262
       8 -> 40         0.00015
       8 -> 42         0.00148
       8 -> 47        -0.00049
       8 -> 53        -0.00011
       3 <-  9         0.00057
       3 <- 12         0.00031
       3 <- 15         0.00031
       3 <- 19         0.00076
       3 <- 21        -0.00014
       3 <- 25         0.00032
       3 <- 30        -0.00061
       3 <- 31        -0.00018
       3 <- 34        -0.00019
       3 <- 38        -0.00025
       3 <- 39        -0.00023
       3 <- 41        -0.00012
       3 <- 48        -0.00016
       3 <- 51        -0.00023
       3 <- 54         0.00018
       4 <- 11         0.00261
       4 <- 16         0.00258
       4 <- 18         0.00322
       4 <- 23         0.00093
       4 <- 24         0.00214
       4 <- 29         0.00025
       4 <- 33        -0.00027
       4 <- 36         0.00083
       4 <- 42        -0.00021
       4 <- 50        -0.00029
       4 <- 53        -0.00011
       5 <-  9         0.00597
       5 <- 12        -0.00401
       5 <- 14         0.00469
       5 <- 15         0.00226
       5 <- 19         0.00093
       5 <- 20        -0.00383
       5 <- 21         0.00044
       5 <- 25         0.00419
       5 <- 26        -0.00043
       5 <- 30         0.00020
       5 <- 31        -0.00101
       5 <- 34        -0.00089
       5 <- 38        -0.00047
       5 <- 39         0.00078
       5 <- 44         0.00024
       5 <- 45        -0.00027
       5 <- 48        -0.00024
       6 <- 10         0.00267
       6 <- 13        -0.00127
       6 <- 17         0.00243
       6 <- 22         0.00239
       6 <- 28         0.00050
       6 <- 32         0.00070
       6 <- 37         0.00044
       6 <- 43         0.00038
       6 <- 49        -0.00032
       7 <-  9         0.00455
       7 <- 12         0.00142
       7 <- 14         0.00119
       7 <- 15        -0.00039
       7 <- 19         0.00362
       7 <- 20        -0.00150
       7 <- 21         0.00018
       7 <- 25         0.00113
       7 <- 30        -0.00035
       7 <- 31         0.00043
       7 <- 34        -0.00067
       7 <- 38        -0.00016
       7 <- 39         0.00030
       7 <- 45        -0.00012
       7 <- 48        -0.00011
       7 <- 51         0.00038
       8 <- 11        -0.00413
       8 <- 16         0.00523
       8 <- 18        -0.01148
       8 <- 23        -0.00126
       8 <- 24        -0.00176
       8 <- 29         0.00191
       8 <- 33         0.00123
       8 <- 36        -0.00189
       8 <- 42         0.00120
       8 <- 47        -0.00055
       8 <- 53        -0.00012
 
 Excited State   5:      Singlet-A2     7.5949 eV  163.25 nm  f=0.0000  <S**2>=0.000
       3 -> 27         0.00199
       3 -> 35         0.00160
       3 -> 46         0.00075
       4 -> 10         0.00733
       4 -> 13         0.00907
       4 -> 17        -0.00153
       4 -> 22        -0.00190
       4 -> 28         0.00044
       4 -> 32         0.00221
       4 -> 37         0.00274
       4 -> 43         0.00032
       4 -> 49        -0.00011
       4 -> 52         0.00045
       5 -> 27         0.00133
       5 -> 35        -0.00079
       5 -> 46        -0.00026
       6 -> 11         0.00014
       6 -> 16        -0.00190
       6 -> 18        -0.00035
       6 -> 23         0.00146
       6 -> 24         0.00012
       6 -> 29        -0.00038
       6 -> 33         0.00010
       6 -> 36         0.00042
       6 -> 42         0.00043
       6 -> 47         0.00042
       6 -> 53         0.00019
       7 -> 27         0.00034
       7 -> 35        -0.00018
       7 -> 46         0.00081
       8 -> 10        -0.11529
       8 -> 13         0.69708
       8 -> 17         0.01126
       8 -> 22        -0.02369
       8 -> 28         0.00233
       8 -> 32         0.00182
       8 -> 37        -0.00144
       8 -> 43        -0.00017
       8 -> 49        -0.00014
       8 -> 52         0.00049
       3 <- 27         0.00125
       3 <- 35         0.00131
       3 <- 46         0.00085
       4 <- 10         0.00033
       4 <- 13         0.00043
       4 <- 17        -0.00042
       4 <- 32        -0.00038
       4 <- 37         0.00092
       4 <- 43         0.00027
       4 <- 52         0.00014
       5 <- 27         0.00190
       5 <- 35        -0.00014
       5 <- 46        -0.00032
       6 <- 11         0.00038
       6 <- 16        -0.00044
       6 <- 18        -0.00087
       6 <- 23         0.00275
       6 <- 24        -0.00076
       6 <- 29         0.00016
       6 <- 33        -0.00076
       6 <- 36         0.00143
       6 <- 42         0.00078
       6 <- 47         0.00020
       6 <- 53         0.00041
       7 <- 27         0.00056
       7 <- 35        -0.00027
       7 <- 46         0.00043
       8 <- 10        -0.00719
       8 <- 13        -0.00219
       8 <- 17        -0.00130
       8 <- 22         0.00060
       8 <- 28        -0.00030
       8 <- 32         0.00147
       8 <- 37        -0.00122
       8 <- 52         0.00019
 
 Excited State   6:      Singlet-B2     9.8122 eV  126.36 nm  f=0.2351  <S**2>=0.000
       3 -> 11        -0.00040
       3 -> 16         0.00125
       3 -> 18        -0.00085
       3 -> 23         0.00095
       3 -> 24         0.00048
       3 -> 29         0.00106
       3 -> 33        -0.00082
       3 -> 40         0.00043
       3 -> 42         0.00055
       3 -> 47         0.00030
       3 -> 50         0.00012
       4 ->  9         0.00804
       4 -> 12         0.00708
       4 -> 14         0.02017
       4 -> 15         0.00397
       4 -> 19         0.00397
       4 -> 20         0.01209
       4 -> 21         0.01249
       4 -> 25         0.00598
       4 -> 26        -0.00084
       4 -> 30         0.00174
       4 -> 31         0.00294
       4 -> 34         0.00186
       4 -> 38         0.00048
       4 -> 39        -0.00187
       4 -> 41         0.00025
       4 -> 45        -0.00018
       4 -> 51        -0.00020
       5 -> 11        -0.01480
       5 -> 16         0.00825
       5 -> 18        -0.00443
       5 -> 23        -0.01077
       5 -> 24         0.01223
       5 -> 29        -0.00028
       5 -> 33         0.00273
       5 -> 36        -0.00340
       5 -> 40        -0.00020
       5 -> 42         0.00214
       6 -> 27         0.00673
       6 -> 35         0.00039
       6 -> 46        -0.00035
       7 -> 11         0.00152
       7 -> 16         0.00785
       7 -> 18         0.00358
       7 -> 23        -0.00501
       7 -> 24         0.00572
       7 -> 29         0.00105
       7 -> 33         0.00144
       7 -> 36        -0.00093
       7 -> 40        -0.00026
       7 -> 42         0.00052
       7 -> 47        -0.00031
       7 -> 50        -0.00010
       8 ->  9         0.02492
       8 -> 12        -0.00865
       8 -> 14         0.65855
       8 -> 15        -0.25201
       8 -> 19         0.01479
       8 -> 20        -0.01734
       8 -> 21        -0.03904
       8 -> 25        -0.01230
       8 -> 26         0.00107
       8 -> 30         0.00085
       8 -> 31         0.00476
       8 -> 34         0.00272
       8 -> 38        -0.00108
       8 -> 39         0.00444
       8 -> 41        -0.00267
       8 -> 44         0.00031
       8 -> 45        -0.00107
       8 -> 48        -0.00076
       3 <- 11        -0.00019
       3 <- 16         0.00050
       3 <- 18        -0.00036
       3 <- 23         0.00051
       3 <- 24         0.00048
       3 <- 29         0.00052
       3 <- 33        -0.00050
       3 <- 40         0.00033
       3 <- 42         0.00047
       3 <- 47         0.00030
       4 <-  9         0.00272
       4 <- 12         0.00107
       4 <- 14         0.00849
       4 <- 15         0.00307
       4 <- 19         0.00153
       4 <- 20         0.00519
       4 <- 21         0.00650
       4 <- 25         0.00345
       4 <- 26        -0.00134
       4 <- 30         0.00118
       4 <- 31         0.00191
       4 <- 34         0.00032
       4 <- 38         0.00056
       4 <- 39        -0.00132
       4 <- 41         0.00017
       4 <- 48         0.00012
       5 <- 11        -0.00321
       5 <- 16         0.00318
       5 <- 18         0.00051
       5 <- 23        -0.00642
       5 <- 24         0.00685
       5 <- 29        -0.00015
       5 <- 33         0.00107
       5 <- 36        -0.00230
       5 <- 40        -0.00032
       5 <- 42         0.00159
       5 <- 47        -0.00012
       6 <- 27         0.00461
       6 <- 46        -0.00050
       7 <- 16         0.00274
       7 <- 18         0.00113
       7 <- 23        -0.00241
       7 <- 24         0.00275
       7 <- 29         0.00107
       7 <- 33         0.00086
       7 <- 36        -0.00056
       7 <- 40        -0.00030
       7 <- 42         0.00035
       7 <- 47        -0.00020
       7 <- 53         0.00013
       8 <-  9        -0.01305
       8 <- 12         0.00672
       8 <- 14        -0.02836
       8 <- 15        -0.00467
       8 <- 19         0.00163
       8 <- 20        -0.00373
       8 <- 21        -0.01956
       8 <- 25        -0.00622
       8 <- 30         0.00075
       8 <- 31         0.00215
       8 <- 34         0.00122
       8 <- 38        -0.00064
       8 <- 39         0.00280
       8 <- 41        -0.00189
       8 <- 45        -0.00057
       8 <- 48        -0.00059
       8 <- 51         0.00013
 
 Excited State   7:      Singlet-B2    10.0509 eV  123.36 nm  f=0.1154  <S**2>=0.000
       3 -> 16         0.00083
       3 -> 18        -0.00065
       3 -> 23         0.00159
       3 -> 24         0.00027
       3 -> 29         0.00089
       3 -> 33        -0.00063
       3 -> 36         0.00049
       3 -> 40         0.00019
       3 -> 42         0.00054
       4 ->  9         0.00318
       4 -> 12        -0.00240
       4 -> 14         0.01009
       4 -> 15         0.01284
       4 -> 19         0.00214
       4 -> 20         0.00733
       4 -> 21         0.00468
       4 -> 25         0.00265
       4 -> 26        -0.00405
       4 -> 30         0.00076
       4 -> 31         0.00280
       4 -> 34         0.00023
       4 -> 38         0.00040
       4 -> 39        -0.00047
       4 -> 41        -0.00034
       4 -> 44         0.00067
       4 -> 45         0.00039
       4 -> 48        -0.00014
       4 -> 51         0.00017
       4 -> 54         0.00016
       5 -> 11        -0.00904
       5 -> 16         0.00128
       5 -> 18        -0.00089
       5 -> 23        -0.00878
       5 -> 24         0.00438
       5 -> 36        -0.00137
       5 -> 40         0.00021
       5 -> 42         0.00106
       5 -> 47         0.00018
       6 -> 27         0.00392
       6 -> 35         0.00055
       6 -> 46        -0.00035
       7 -> 11         0.00154
       7 -> 16         0.00389
       7 -> 18         0.00247
       7 -> 23        -0.00043
       7 -> 24         0.00356
       7 -> 29         0.00163
       7 -> 33         0.00044
       7 -> 36        -0.00016
       7 -> 40        -0.00026
       7 -> 42         0.00044
       7 -> 47        -0.00024
       7 -> 50        -0.00021
       8 ->  9        -0.00270
       8 -> 12        -0.03007
       8 -> 14         0.25026
       8 -> 15         0.65941
       8 -> 19         0.02514
       8 -> 20         0.00858
       8 -> 21        -0.02785
       8 -> 25         0.00194
       8 -> 26        -0.00650
       8 -> 31         0.00236
       8 -> 34         0.00099
       8 -> 38         0.00071
       8 -> 39         0.00202
       8 -> 41        -0.00136
       8 -> 44        -0.00046
       8 -> 45        -0.00037
       8 -> 48        -0.00028
       8 -> 54         0.00012
       3 <- 11        -0.00028
       3 <- 16         0.00065
       3 <- 18        -0.00074
       3 <- 23         0.00080
       3 <- 24        -0.00021
       3 <- 29         0.00084
       3 <- 33        -0.00047
       3 <- 36         0.00041
       3 <- 40         0.00014
       3 <- 42         0.00038
       4 <-  9         0.00187
       4 <- 12         0.00101
       4 <- 14         0.00448
       4 <- 15         0.00215
       4 <- 19         0.00189
       4 <- 20         0.00329
       4 <- 21         0.00272
       4 <- 25         0.00205
       4 <- 26        -0.00109
       4 <- 30         0.00078
       4 <- 31         0.00173
       4 <- 39        -0.00035
       4 <- 44         0.00026
       4 <- 45         0.00017
       4 <- 48        -0.00011
       5 <- 11        -0.00131
       5 <- 16         0.00172
       5 <- 18         0.00093
       5 <- 23        -0.00317
       5 <- 24         0.00364
       5 <- 29         0.00010
       5 <- 33        -0.00056
       5 <- 36        -0.00117
       5 <- 42         0.00068
       5 <- 47         0.00014
       5 <- 50         0.00016
       6 <- 27         0.00239
       6 <- 35         0.00041
       6 <- 46        -0.00024
       7 <- 11         0.00054
       7 <- 16         0.00067
       7 <- 18         0.00159
       7 <- 23        -0.00081
       7 <- 24         0.00216
       7 <- 29         0.00012
       7 <- 33         0.00024
       7 <- 36        -0.00025
       7 <- 40        -0.00020
       7 <- 42         0.00035
       7 <- 47        -0.00029
       7 <- 50        -0.00033
       8 <-  9        -0.00784
       8 <- 12         0.00434
       8 <- 14        -0.01566
       8 <- 15        -0.00117
       8 <- 19         0.00103
       8 <- 20        -0.00299
       8 <- 21        -0.00893
       8 <- 25        -0.00374
       8 <- 26         0.00028
       8 <- 30        -0.00058
       8 <- 31         0.00133
       8 <- 34         0.00057
       8 <- 38         0.00074
       8 <- 39         0.00127
       8 <- 41        -0.00101
       8 <- 44        -0.00031
       8 <- 45        -0.00022
       8 <- 48        -0.00030
 
 Excited State   8:      Singlet-A1    10.9036 eV  113.71 nm  f=0.0000  <S**2>=0.000
       3 ->  9        -0.00023
       3 -> 12        -0.00098
       3 -> 14         0.00126
       3 -> 15        -0.00150
       3 -> 19        -0.00139
       3 -> 20        -0.00141
       3 -> 21         0.00179
       3 -> 25        -0.00142
       3 -> 26        -0.00010
       3 -> 30        -0.00058
       3 -> 31        -0.00079
       3 -> 34         0.00252
       3 -> 38        -0.00051
       3 -> 39        -0.00035
       3 -> 41         0.00098
       3 -> 44        -0.00022
       3 -> 45        -0.00099
       3 -> 48        -0.00058
       3 -> 51        -0.00058
       3 -> 54         0.00035
       4 -> 11        -0.00338
       4 -> 16        -0.00272
       4 -> 18        -0.00312
       4 -> 23        -0.00415
       4 -> 24        -0.00305
       4 -> 29        -0.00205
       4 -> 33        -0.00081
       4 -> 36        -0.00049
       4 -> 40         0.00021
       4 -> 42         0.00131
       4 -> 47        -0.00061
       4 -> 50        -0.00077
       4 -> 53        -0.00034
       5 ->  9        -0.01320
       5 -> 12         0.00299
       5 -> 14        -0.00222
       5 -> 15        -0.00888
       5 -> 19        -0.00288
       5 -> 20         0.00804
       5 -> 21         0.00311
       5 -> 25        -0.00086
       5 -> 26         0.00281
       5 -> 30         0.00108
       5 -> 31         0.00280
       5 -> 34        -0.00131
       5 -> 38         0.00106
       5 -> 39        -0.00100
       5 -> 44        -0.00010
       5 -> 45         0.00039
       5 -> 48         0.00013
       5 -> 51        -0.00021
       5 -> 54        -0.00032
       6 -> 10        -0.02971
       6 -> 13        -0.00118
       6 -> 17        -0.01756
       6 -> 22        -0.00219
       6 -> 28        -0.00813
       6 -> 32        -0.00030
       6 -> 37         0.00051
       6 -> 43         0.00041
       6 -> 49        -0.00134
       6 -> 52        -0.00092
       7 ->  9        -0.02675
       7 -> 12        -0.01428
       7 -> 14        -0.00063
       7 -> 15         0.01303
       7 -> 19        -0.01407
       7 -> 20         0.00417
       7 -> 21        -0.00147
       7 -> 25        -0.00085
       7 -> 26        -0.00988
       7 -> 30         0.00269
       7 -> 31        -0.00261
       7 -> 34         0.00061
       7 -> 38         0.00113
       7 -> 39        -0.00010
       7 -> 41         0.00038
       7 -> 44        -0.00046
       7 -> 45        -0.00034
       7 -> 48         0.00061
       7 -> 51         0.00180
       7 -> 54         0.00065
       8 -> 11        -0.04044
       8 -> 16         0.69318
       8 -> 18         0.12156
       8 -> 23         0.01149
       8 -> 24         0.00986
       8 -> 29        -0.00344
       8 -> 33         0.00089
       8 -> 36         0.00093
       8 -> 40         0.00061
       8 -> 42        -0.00086
       8 -> 47        -0.00034
       8 -> 50        -0.00100
       8 -> 53        -0.00035
[...]
  46        4PY         0.00000  -0.00000  -0.06361  -0.12365  -0.16764
  47        4PZ         0.00154   0.00000   0.00587   0.01383  -0.00501
  48        5S          0.00148   0.00000  -0.01084  -0.01220  -0.00456
  49        5PX         0.00000  -0.00000   0.00000   0.00000   0.00000
  50        5PY         0.00000  -0.00000  -0.04207  -0.07229  -0.07599
  51        5PZ        -0.00017   0.00000   0.00461   0.00659   0.00048
  52        6D 0       -0.00032   0.00000  -0.00263  -0.00515   0.00072
  53        6D+1       -0.00000   0.00000   0.00000   0.00000   0.00000
  54        6D-1       -0.00000   0.00000  -0.00306  -0.00251   0.00458
  55        6D+2       -0.00000   0.00000  -0.00013  -0.00023  -0.00002
  56        6D-2        0.00000  -0.00000   0.00000   0.00000   0.00000
                          26        27        28        29        30
  26        4PX         0.00013
  27        4PY         0.00000   0.00146
  28        4PZ         0.00000  -0.00059   0.00038
  29 3   H  1S          0.00000  -0.00412  -0.00075   0.08519
  30        2S          0.00000  -0.00599  -0.00116   0.12837   0.19850
  31        3S          0.00000  -0.00172  -0.00101   0.08561   0.14513
  32        4PX         0.00013   0.00000   0.00000   0.00000   0.00000
  33        4PY         0.00000  -0.00083   0.00003   0.00691   0.00893
  34        4PZ         0.00000  -0.00003  -0.00018   0.00419   0.00562
  35 4   O  1S          0.00000  -0.00125  -0.00060   0.00389   0.00598
  36        2S          0.00000  -0.00252  -0.00037   0.00678   0.01099
  37        2PX         0.00394   0.00000   0.00000   0.00000   0.00000
  38        2PY         0.00000  -0.00606   0.00402   0.02791   0.06460
  39        2PZ         0.00000  -0.00595   0.00036   0.00835   0.02063
  40        3S          0.00000   0.00913  -0.00104  -0.02333  -0.03848
  41        3PX         0.00564   0.00000   0.00000   0.00000   0.00000
  42        3PY         0.00000  -0.00857   0.00562   0.04257   0.09665
  43        3PZ         0.00000  -0.00854   0.00053   0.01228   0.02985
  44        4S          0.00000   0.00483  -0.00118  -0.02419  -0.03022
  45        4PX         0.00354   0.00000   0.00000   0.00000   0.00000
  46        4PY         0.00000  -0.00550   0.00269   0.06361   0.12365
  47        4PZ         0.00000  -0.00379   0.00026   0.00587   0.01383
  48        5S          0.00000   0.00124  -0.00061  -0.01084  -0.01220
  49        5PX         0.00001   0.00000   0.00000   0.00000   0.00000
  50        5PY         0.00000  -0.00031  -0.00083   0.04207   0.07229
  51        5PZ         0.00000  -0.00113   0.00025   0.00461   0.00659
  52        6D 0        0.00000   0.00131  -0.00013  -0.00263  -0.00515
  53        6D+1       -0.00066   0.00000   0.00000   0.00000   0.00000
  54        6D-1        0.00000   0.00094  -0.00081   0.00306   0.00251
  55        6D+2        0.00000   0.00005  -0.00001  -0.00013  -0.00023
  56        6D-2       -0.00000   0.00000   0.00000   0.00000   0.00000
                          31        32        33        34        35
  31        3S          0.14897
  32        4PX         0.00000   0.00013
  33        4PY        -0.00005   0.00000   0.00146
  34        4PZ         0.00165   0.00000   0.00059   0.00038
  35 4   O  1S          0.00258   0.00000   0.00125  -0.00060   0.63973
  36        2S          0.00316   0.00000   0.00252  -0.00037   0.57003
  37        2PX         0.00000   0.00394   0.00000   0.00000   0.00000
  38        2PY         0.11166   0.00000  -0.00606  -0.00402   0.00000
  39        2PZ        -0.00700   0.00000   0.00595   0.00036  -0.00134
  40        3S         -0.00626   0.00000  -0.00913  -0.00104  -0.12395
  41        3PX         0.00000   0.00564   0.00000   0.00000   0.00000
  42        3PY         0.16336   0.00000  -0.00857  -0.00562   0.00000
  43        3PZ        -0.00976   0.00000   0.00854   0.00053  -0.00561
  44        4S         -0.01305   0.00000  -0.00483  -0.00118  -0.12353
  45        4PX         0.00000   0.00354   0.00000   0.00000   0.00000
  46        4PY         0.16764   0.00000  -0.00550  -0.00269   0.00000
  47        4PZ        -0.00501   0.00000   0.00379   0.00026  -0.01299
  48        5S         -0.00456   0.00000  -0.00124  -0.00061  -0.01533
  49        5PX         0.00000   0.00001   0.00000   0.00000   0.00000
  50        5PY         0.07599   0.00000  -0.00031   0.00083  -0.00000
  51        5PZ         0.00048   0.00000   0.00113   0.00025   0.00393
  52        6D 0        0.00072   0.00000  -0.00131  -0.00013  -0.00289
  53        6D+1        0.00000  -0.00066   0.00000   0.00000   0.00000
  54        6D-1       -0.00458   0.00000   0.00094   0.00081   0.00000
  55        6D+2       -0.00002   0.00000  -0.00005  -0.00001  -0.00047
  56        6D-2        0.00000   0.00000   0.00000   0.00000   0.00000
                          36        37        38        39        40
  36        2S          0.52590
  37        2PX         0.00000   0.12345
  38        2PY         0.00000   0.00000   0.17827
  39        2PZ        -0.00129   0.00000   0.00000   0.19479
  40        3S         -0.21866   0.00000   0.00000   0.00117   0.67559
  41        3PX         0.00000   0.17665   0.00000   0.00000   0.00000
  42        3PY         0.00000   0.00000   0.25579  -0.00000   0.00000
  43        3PZ        -0.00361   0.00000   0.00000   0.27491  -0.00688
  44        4S         -0.20061   0.00000   0.00000   0.15412   0.57041
  45        4PX         0.00000   0.11083   0.00000   0.00000   0.00000
  46        4PY         0.00000   0.00000   0.20513  -0.00000  -0.00000
  47        4PZ        -0.01926   0.00000   0.00000   0.13707   0.04879
  48        5S         -0.02575   0.00000   0.00000   0.05061   0.07676
  49        5PX         0.00000   0.00017   0.00000   0.00000   0.00000
  50        5PY        -0.00000   0.00000   0.05492  -0.00000   0.00000
  51        5PZ         0.00573   0.00000   0.00000   0.01026  -0.01446
  52        6D 0       -0.00645   0.00000  -0.00000  -0.02878   0.02383
  53        6D+1        0.00000  -0.02059   0.00000   0.00000   0.00000
  54        6D-1        0.00000   0.00000  -0.01940   0.00000  -0.00000
  55        6D+2       -0.00090   0.00000  -0.00000  -0.00036   0.00300
  56        6D-2        0.00000   0.00000  -0.00000   0.00000   0.00000
                          41        42        43        44        45
  41        3PX         0.25278
  42        3PY         0.00000   0.36715
  43        3PZ         0.00000   0.00000   0.38814
  44        4S          0.00000   0.00000   0.21034   0.60687
  45        4PX         0.15860   0.00000   0.00000   0.00000   0.09951
  46        4PY         0.00000   0.29592  -0.00000  -0.00000   0.00000
  47        4PZ         0.00000   0.00000   0.19290   0.14823   0.00000
  48        5S          0.00000   0.00000   0.07040   0.10839   0.00000
  49        5PX         0.00024   0.00000   0.00000   0.00000   0.00015
  50        5PY         0.00000   0.08049  -0.00000   0.00000   0.00000
  51        5PZ         0.00000   0.00000   0.01468  -0.00552   0.00000
  52        6D 0        0.00000  -0.00000  -0.04092  -0.00241  -0.00000
  53        6D+1       -0.02946   0.00000   0.00000   0.00000  -0.01848
  54        6D-1        0.00000  -0.02753   0.00000   0.00000   0.00000
  55        6D+2        0.00000  -0.00000  -0.00054   0.00224  -0.00000
  56        6D-2        0.00000  -0.00000   0.00000   0.00000   0.00000
                          46        47        48        49        50
  46        4PY         0.25581
  47        4PZ         0.00000   0.10004
  48        5S          0.00000   0.04048   0.02546
  49        5PX         0.00000   0.00000   0.00000   0.00000
  50        5PY         0.08419  -0.00000   0.00000   0.00000   0.03923
  51        5PZ         0.00000   0.00637  -0.00027   0.00000   0.00000
  52        6D 0       -0.00000  -0.01856  -0.00456  -0.00000  -0.00000
  53        6D+1        0.00000   0.00000   0.00000  -0.00003   0.00000
  54        6D-1       -0.01850   0.00000   0.00000   0.00000  -0.00191
  55        6D+2       -0.00000  -0.00004   0.00025  -0.00000  -0.00000
  56        6D-2        0.00000   0.00000   0.00000   0.00000   0.00000
                          51        52        53        54        55
  51        5PZ         0.00132
  52        6D 0       -0.00211   0.00513
  53        6D+1        0.00000  -0.00000   0.00343
  54        6D-1        0.00000   0.00000   0.00000   0.00285
  55        6D+2       -0.00009   0.00016  -0.00000   0.00000   0.00001
  56        6D-2        0.00000   0.00000  -0.00000   0.00000   0.00000
                          56
  56        6D-2        0.00000
          Condensed to atoms (all electrons):
               1          2          3          4
     1  C    4.528744   0.461662   0.461662   0.301822
     2  H    0.461662   0.908956  -0.184426  -0.173993
     3  H    0.461662  -0.184426   0.908956  -0.173993
     4  O    0.301822  -0.173993  -0.173993   8.267878
 Mulliken charges:
               1
     1  C    0.246111
     2  H   -0.012199
     3  H   -0.012199
     4  O   -0.221714
 Sum of Mulliken charges =   0.00000
 Mulliken charges with hydrogens summed into heavy atoms:
               1
     1  C    0.221714
     4  O   -0.221714
 Electronic spatial extent (au):  <R**2>=             49.7674
 Charge=             -0.0000 electrons
 Dipole moment (field-independent basis, Debye):
    X=              0.0000    Y=              0.0000    Z=             -0.3008  Tot=              0.3008
 Quadrupole moment (field-independent basis, Debye-Ang):
   XX=            -10.7007   YY=            -12.4819   ZZ=            -13.2828
   XY=             -0.0000   XZ=             -0.0000   YZ=              0.0000
 Traceless Quadrupole moment (field-independent basis, Debye-Ang):
   XX=              1.4545   YY=             -0.3268   ZZ=             -1.1277
   XY=             -0.0000   XZ=             -0.0000   YZ=              0.0000
 Octapole moment (field-independent basis, Debye-Ang**2):
  XXX=              0.0000  YYY=             -0.0000  ZZZ=              4.0936  XYY=              0.0000
  XXY=              0.0000  XXZ=              1.3363  XZZ=              0.0000  YZZ=              0.0000
  YYZ=              2.7372  XYZ=              0.0000
 Hexadecapole moment (field-independent basis, Debye-Ang**3):
 XXXX=             -8.8295 YYYY=            -25.1872 ZZZZ=            -36.9131 XXXY=             -0.0000
 XXXZ=             -0.0000 YYYX=             -0.0000 YYYZ=             -0.0000 ZZZX=             -0.0000
 ZZZY=              0.0000 XXYY=             -5.6491 XXZZ=             -7.3548 YYZZ=            -11.7452
 XXYZ=              0.0000 YYXZ=             -0.0000 ZZXY=             -0.0000
 N-N= 4.044849744726D+01 E-N=-3.508475960366D+02  KE= 1.169909914691D+02
 Symmetry A1   KE= 1.058416625819D+02
 Symmetry A2   KE= 1.160937870417D-35
 Symmetry B1   KE= 4.266327441004D+00
 Symmetry B2   KE= 6.883001446146D+00
 Leave Link  601 at Fri Sep 17 10:52:31 2021, MaxMem=   268435456 cpu:               0.0 elap:               0.0
 (Enter /software/gaussian/g16-a03/l9999.exe)
 Electronic transition elements 
                 1             2             3             4             5 
      1  -0.113909D+03 -0.113902D+03 -0.113873D+03 -0.113868D+03 -0.113835D+03
      2   0.000000D+00  0.000000D+00  0.000000D+00  0.000000D+00  0.000000D+00
      3   0.000000D+00  0.804296D+00 -0.381239D+00  0.000000D+00  0.000000D+00
      4   0.000000D+00  0.000000D+00  0.000000D+00 -0.481352D+00  0.000000D+00
      5   0.000000D+00  0.000000D+00  0.000000D+00  0.000000D+00  0.000000D+00
      6   0.000000D+00 -0.164974D+00  0.928361D-01  0.000000D+00  0.000000D+00
      7   0.000000D+00  0.000000D+00  0.000000D+00  0.112695D+00  0.000000D+00
      8   0.000000D+00 -0.436298D+00 -0.795196D+00  0.000000D+00  0.000000D+00
      9   0.000000D+00  0.000000D+00  0.000000D+00  0.000000D+00  0.000000D+00
     10   0.120255D+01  0.000000D+00  0.000000D+00  0.000000D+00  0.582520D+00
     11   0.000000D+00  0.000000D+00  0.000000D+00 -0.202278D+00  0.000000D+00
     12   0.000000D+00  0.000000D+00  0.000000D+00 -0.678137D+00  0.000000D+00
     13   0.000000D+00  0.000000D+00  0.000000D+00 -0.177813D+00  0.000000D+00
     14  -0.271674D+00  0.000000D+00  0.000000D+00  0.000000D+00  0.786022D-01
     15   0.000000D+00  0.000000D+00  0.000000D+00  0.000000D+00  0.000000D+00
     16   0.000000D+00  0.494648D+00 -0.304224D+00  0.000000D+00  0.000000D+00
                 6             7             8             9            10 
      1  -0.113753D+03 -0.113744D+03 -0.113713D+03 -0.113706D+03 -0.113667D+03
      2   0.000000D+00  0.000000D+00  0.000000D+00  0.000000D+00  0.000000D+00
      3   0.988867D+00  0.684684D+00  0.000000D+00  0.000000D+00  0.000000D+00
      4   0.000000D+00  0.000000D+00 -0.788586D-02  0.000000D+00 -0.876472D+00
      5   0.000000D+00  0.000000D+00  0.000000D+00  0.000000D+00  0.000000D+00
      6  -0.368831D+00 -0.222874D+00  0.000000D+00  0.000000D+00  0.000000D+00
      7   0.000000D+00  0.000000D+00  0.262251D-02  0.000000D+00  0.390590D+00
      8  -0.435537D+00 -0.120691D+01  0.000000D+00  0.000000D+00  0.000000D+00
      9   0.000000D+00  0.000000D+00  0.000000D+00  0.000000D+00  0.000000D+00
     10   0.000000D+00  0.000000D+00  0.000000D+00  0.181073D+00  0.000000D+00
     11   0.000000D+00  0.000000D+00  0.191641D+00  0.000000D+00  0.745469D-01
     12   0.000000D+00  0.000000D+00  0.634737D+00  0.000000D+00 -0.775476D+00
     13   0.000000D+00  0.000000D+00  0.620982D+00  0.000000D+00 -0.789245D+00
     14   0.000000D+00  0.000000D+00  0.000000D+00  0.227033D+00  0.000000D+00
     15   0.000000D+00  0.000000D+00  0.000000D+00  0.000000D+00  0.000000D+00
     16   0.949241D+00  0.191800D+00  0.000000D+00  0.000000D+00  0.000000D+00
                11            12            13            14            15 
      1  -0.113662D+03 -0.113615D+03 -0.113606D+03 -0.113579D+03 -0.113579D+03
      2   0.000000D+00 -0.121850D+00  0.000000D+00  0.000000D+00  0.000000D+00
      3  -0.358866D+00  0.000000D+00  0.000000D+00 -0.339384D+00  0.000000D+00
      4   0.000000D+00  0.000000D+00 -0.167088D-01  0.000000D+00 -0.536595D+00
      5   0.000000D+00  0.496682D-01  0.000000D+00  0.000000D+00  0.000000D+00
      6   0.164336D+00  0.000000D+00  0.000000D+00  0.183187D+00  0.000000D+00
      7   0.000000D+00  0.000000D+00  0.807636D-02  0.000000D+00  0.288306D+00
      8  -0.350561D+00  0.000000D+00  0.000000D+00 -0.397841D+00  0.000000D+00
      9   0.000000D+00 -0.883439D+00  0.000000D+00  0.000000D+00  0.000000D+00
     10   0.000000D+00  0.000000D+00  0.000000D+00  0.000000D+00  0.000000D+00
     11   0.000000D+00  0.000000D+00  0.225448D+00  0.000000D+00  0.592567D-01
     12   0.000000D+00  0.000000D+00  0.449269D+00  0.000000D+00  0.559150D-01
     13   0.000000D+00  0.000000D+00  0.509668D+00  0.000000D+00 -0.258576D-02
     14   0.000000D+00  0.000000D+00  0.000000D+00  0.000000D+00  0.000000D+00
     15   0.000000D+00 -0.371495D+00  0.000000D+00  0.000000D+00  0.000000D+00
     16   0.258498D-01  0.000000D+00  0.000000D+00  0.173388D+00  0.000000D+00
                16            17            18            19            20 
      1  -0.113568D+03 -0.113559D+03 -0.113544D+03 -0.113542D+03 -0.113535D+03
      2   0.000000D+00 -0.373410D+00 -0.247942D-01  0.000000D+00 -0.638529D+00
      3   0.246916D+00  0.000000D+00  0.000000D+00  0.000000D+00  0.000000D+00
      4   0.000000D+00  0.000000D+00  0.000000D+00  0.473249D+00  0.000000D+00
      5   0.000000D+00  0.211735D+00  0.172861D-01  0.000000D+00  0.368732D+00
      6  -0.117561D+00  0.000000D+00  0.000000D+00  0.000000D+00  0.000000D+00
      7   0.000000D+00  0.000000D+00  0.000000D+00 -0.265238D+00  0.000000D+00
      8  -0.130846D+01  0.000000D+00  0.000000D+00  0.000000D+00  0.000000D+00
      9   0.000000D+00 -0.680530D-01 -0.109056D+01  0.000000D+00  0.148487D+00
     10   0.000000D+00  0.000000D+00  0.000000D+00  0.000000D+00  0.000000D+00
     11   0.000000D+00  0.000000D+00  0.000000D+00  0.621557D+00  0.000000D+00
     12   0.000000D+00  0.000000D+00  0.000000D+00  0.749553D+00  0.000000D+00
     13   0.000000D+00  0.000000D+00  0.000000D+00  0.298586D+00  0.000000D+00
     14   0.000000D+00  0.000000D+00  0.000000D+00  0.000000D+00  0.000000D+00
     15   0.000000D+00 -0.235422D-01 -0.820828D+00  0.000000D+00 -0.188397D+00
     16   0.181557D+00  0.000000D+00  0.000000D+00  0.000000D+00  0.000000D+00
                21            22            23            24            25 
      1  -0.113534D+03 -0.113527D+03 -0.113524D+03 -0.113523D+03 -0.113512D+03
      2   0.000000D+00  0.000000D+00  0.000000D+00 -0.234799D+00  0.000000D+00
      3   0.000000D+00  0.000000D+00  0.000000D+00  0.000000D+00 -0.259717D+00
      4   0.112240D+00  0.000000D+00  0.000000D+00  0.000000D+00  0.000000D+00
      5   0.000000D+00  0.000000D+00  0.000000D+00  0.147523D+00  0.000000D+00
      6   0.000000D+00  0.000000D+00  0.000000D+00  0.000000D+00  0.160557D+00
      7  -0.619484D-01  0.000000D+00  0.000000D+00  0.000000D+00  0.000000D+00
      8   0.000000D+00  0.000000D+00  0.000000D+00  0.000000D+00  0.127668D+00
      9   0.000000D+00  0.000000D+00  0.000000D+00 -0.108318D+00  0.000000D+00
     10   0.000000D+00 -0.107227D+00 -0.259387D+00  0.000000D+00  0.000000D+00
     11   0.439069D+00  0.000000D+00  0.000000D+00  0.000000D+00  0.000000D+00
     12   0.502587D-01  0.000000D+00  0.000000D+00  0.000000D+00  0.000000D+00
     13  -0.407010D+00  0.000000D+00  0.000000D+00  0.000000D+00  0.000000D+00
     14   0.000000D+00  0.352169D+00  0.136775D+00  0.000000D+00  0.000000D+00
     15   0.000000D+00  0.000000D+00  0.000000D+00  0.292677D-01  0.000000D+00
     16   0.000000D+00  0.000000D+00  0.000000D+00  0.000000D+00 -0.317383D+00
                26            27            28            29            30 
      1  -0.113512D+03 -0.113511D+03 -0.113487D+03 -0.113482D+03 -0.113478D+03
      2   0.000000D+00  0.000000D+00  0.000000D+00  0.000000D+00  0.000000D+00
      3  -0.308508D+00  0.000000D+00  0.000000D+00  0.000000D+00 -0.113980D+00
      4   0.000000D+00 -0.501216D+00  0.242194D+00  0.269498D+00  0.000000D+00
      5   0.000000D+00  0.000000D+00  0.000000D+00  0.000000D+00  0.000000D+00
      6   0.183591D+00  0.000000D+00  0.000000D+00  0.000000D+00  0.750962D-01
      7   0.000000D+00  0.293259D+00 -0.155550D+00 -0.170106D+00  0.000000D+00
      8   0.150322D+00  0.000000D+00  0.000000D+00  0.000000D+00  0.252047D-01
      9   0.000000D+00  0.000000D+00  0.000000D+00  0.000000D+00  0.000000D+00
     10   0.000000D+00  0.000000D+00  0.000000D+00  0.000000D+00  0.000000D+00
     11   0.000000D+00 -0.299344D+00 -0.273835D+00  0.130589D-01  0.000000D+00
     12   0.000000D+00 -0.162600D+00  0.499133D+00  0.561144D+00  0.000000D+00
     13   0.000000D+00 -0.115582D+01  0.227290D+00 -0.506035D-01  0.000000D+00
     14   0.000000D+00  0.000000D+00  0.000000D+00  0.000000D+00  0.000000D+00
     15   0.000000D+00  0.000000D+00  0.000000D+00  0.000000D+00  0.000000D+00
     16  -0.518439D-01  0.000000D+00  0.000000D+00  0.000000D+00  0.348992D+00

 Test job not archived.
 1\1\GINC-BHD0007\SP\RB3LYP TD-FC\6-311+G(d,p)\C1H2O1\BWEIGHT\17-Sep-20
 21\0\\#p B3LYP/6-311+G** #p TD=(singlets,nstates=30)IOp(6/8=3) IOp(9/4
 0=4)\\Scan Step 72, Bond Length 0.86\\0,1\C,0,0.,0.,-0.52736\H,0,0.,0.
 93726,-1.11871\H,0,0.,-0.93726,-1.11871\O,0,0.,0.,0.33264\\Version=ES6
 4L-G16RevA.03\State=1-A1\HF=-114.1138457\RMSD=6.729e-09\PG=C02V [C2(C1
 O1),SGV(H2)]\\@


 ONE BIG VICE IN A MAN IS APT TO KEEP OUT MANY SMALLER ONES.

                           -- BRET HARTE
 Job cpu time:       0 days  0 hours  0 minutes 26.8 seconds.
 Elapsed time:       0 days  0 hours  0 minutes 27.7 seconds.
 File lengths (MBytes):  RWF=     79 Int=      0 D2E=      0 Chk=     32 Scr=      1
 Normal termination of Gaussian 16 at Fri Sep 17 10:52:31 2021.
