 Entering Gaussian System, Link 0=g16
 Initial command:
 /software/gaussian/g16-c01/sse4/g16/l1.exe "/local_scratch/24657447/Gau-28018.inp" -scrdir="/local_scratch/24657447/"
 Entering Link 1 = /software/gaussian/g16-c01/sse4/g16/l1.exe PID=     28019.
  
 Copyright (c) 1988-2019, Gaussian, Inc.  All Rights Reserved.
  
 This is part of the Gaussian(R) 16 program.  It is based on
 the Gaussian(R) 09 system (copyright 2009, Gaussian, Inc.),
 the Gaussian(R) 03 system (copyright 2003, Gaussian, Inc.),
 the Gaussian(R) 98 system (copyright 1998, Gaussian, Inc.),
 the Gaussian(R) 94 system (copyright 1995, Gaussian, Inc.),
 the Gaussian 92(TM) system (copyright 1992, Gaussian, Inc.),
 the Gaussian 90(TM) system (copyright 1990, Gaussian, Inc.),
 the Gaussian 88(TM) system (copyright 1988, Gaussian, Inc.),
 the Gaussian 86(TM) system (copyright 1986, Carnegie Mellon
 University), and the Gaussian 82(TM) system (copyright 1983,
 Carnegie Mellon University). Gaussian is a federally registered
 trademark of Gaussian, Inc.
  
 This software contains proprietary and confidential information,
 including trade secrets, belonging to Gaussian, Inc.
  
 This software is provided under written license and may be
 used, copied, transmitted, or stored only in accord with that
 written license.
  
 The following legend is applicable only to US Government
 contracts under FAR:
  
                    RESTRICTED RIGHTS LEGEND
  
 Use, reproduction and disclosure by the US Government is
 subject to restrictions as set forth in subparagraphs (a)
 and (c) of the Commercial Computer Software - Restricted
 Rights clause in FAR 52.227-19.
  
 Gaussian, Inc.
 340 Quinnipiac St., Bldg. 40, Wallingford CT 06492
  
  
 ---------------------------------------------------------------
 Warning -- This program may not be used in any manner that
 competes with the business of Gaussian, Inc. or will provide
 assistance to any competitor of Gaussian, Inc.  The licensee
 of this program is prohibited from giving any competitor of
 Gaussian, Inc. access to this program.  By using this program,
 the user acknowledges that Gaussian, Inc. is engaged in the
 business of creating and licensing software in the field of
 computational chemistry and represents and warrants to the
 licensee that it is not a competitor of Gaussian, Inc. and that
 it will not use this program in any manner prohibited above.
 ---------------------------------------------------------------
  

 Cite this work as:
 Gaussian 16, Revision C.01,
 M. J. Frisch, G. W. Trucks, H. B. Schlegel, G. E. Scuseria, 
 M. A. Robb, J. R. Cheeseman, G. Scalmani, V. Barone, 
 G. A. Petersson, H. Nakatsuji, X. Li, M. Caricato, A. V. Marenich, 
 J. Bloino, B. G. Janesko, R. Gomperts, B. Mennucci, H. P. Hratchian, 
 J. V. Ortiz, A. F. Izmaylov, J. L. Sonnenberg, D. Williams-Young, 
 F. Ding, F. Lipparini, F. Egidi, J. Goings, B. Peng, A. Petrone, 
 T. Henderson, D. Ranasinghe, V. G. Zakrzewski, J. Gao, N. Rega, 
 G. Zheng, W. Liang, M. Hada, M. Ehara, K. Toyota, R. Fukuda, 
 J. Hasegawa, M. Ishida, T. Nakajima, Y. Honda, O. Kitao, H. Nakai, 
 T. Vreven, K. Throssell, J. A. Montgomery, Jr., J. E. Peralta, 
 F. Ogliaro, M. J. Bearpark, J. J. Heyd, E. N. Brothers, K. N. Kudin, 
 V. N. Staroverov, T. A. Keith, R. Kobayashi, J. Normand, 
 K. Raghavachari, A. P. Rendell, J. C. Burant, S. S. Iyengar, 
 J. Tomasi, M. Cossi, J. M. Millam, M. Klene, C. Adamo, R. Cammi, 
 J. W. Ochterski, R. L. Martin, K. Morokuma, O. Farkas, 
 J. B. Foresman, and D. J. Fox, Gaussian, Inc., Wallingford CT, 2019.
 
 ******************************************
 Gaussian 16:  ES64L-G16RevC.01  3-Jul-2019
                 1-May-2024 
 ******************************************
 %chk=geometry.chk
 %mem=9GB
 %nprocshared=12
 Will use up to   12 processors via shared memory.
 ---------------------------------------
 #P wB97XD/6-311+G* NoSymm #P Field=X+58
 ---------------------------------------
 1/38=1,172=1/1;
 2/12=2,15=1,17=6,18=5,40=1/2;
 3/5=4,6=6,7=11,11=2,14=1,15=58,25=1,30=1,74=-58/1,2,3;
 4//1;
 5/5=2,38=5/2;
 6/7=2,8=2,9=2,10=2,28=1/1;
 99/5=1,9=1/99;
 Leave Link    1 at Wed May  1 14:27:43 2024, MaxMem=  1207959552 cpu:               0.9 elap:               1.0
 (Enter /software/gaussian/g16-c01/sse4/g16/l101.exe)
 -------
 TitleMe
 -------
 Symbolic Z-matrix:
 Charge =  1 Multiplicity = 1
 C                     0.0295    1.3397    0.0682 
 C                     1.4348    1.2867    0.0064 
 C                     2.1118    0.0511   -0.0054 
 C                     1.4451   -1.1372    0.0312 
 C                    -0.6879    0.1682    0.11 
 H                    -0.4713    2.2984    0.0781 
 H                     2.0273    2.1965   -0.0322 
 H                     1.9897   -2.0764    0.0232 
 H                    -1.7716    0.1804    0.1582 
 N                     3.5864    0.051    -0.0675 
 O                     4.1471   -1.0597   -0.0881 
 O                     4.145     1.1639   -0.0901 
 C                    -0.0236   -1.1458    0.0835 
 H                    -0.4367   -1.8725    0.7889 
 Br                   -0.5359   -1.8697   -1.7408 
 
 ITRead=  0  0  0  0  0  0  0  0  0  0  0  0  0  0  0
 MicOpt= -1 -1 -1 -1 -1 -1 -1 -1 -1 -1 -1 -1 -1 -1 -1
 NAtoms=     15 NQM=       15 NQMF=       0 NMMI=      0 NMMIF=      0
                NMic=       0 NMicF=      0.
                    Isotopes and Nuclear Properties:
 (Nuclear quadrupole moments (NQMom) in fm**2, nuclear magnetic moments (NMagM)
  in nuclear magnetons)

  Atom         1           2           3           4           5           6           7           8           9          10
 IAtWgt=          12          12          12          12          12           1           1           1           1          14
 AtmWgt=  12.0000000  12.0000000  12.0000000  12.0000000  12.0000000   1.0078250   1.0078250   1.0078250   1.0078250  14.0030740
 NucSpn=           0           0           0           0           0           1           1           1           1           2
 AtZEff=  -0.0000000  -0.0000000  -0.0000000  -0.0000000  -0.0000000  -0.0000000  -0.0000000  -0.0000000  -0.0000000  -0.0000000
 NQMom=    0.0000000   0.0000000   0.0000000   0.0000000   0.0000000   0.0000000   0.0000000   0.0000000   0.0000000   2.0440000
 NMagM=    0.0000000   0.0000000   0.0000000   0.0000000   0.0000000   2.7928460   2.7928460   2.7928460   2.7928460   0.4037610
 AtZNuc=   6.0000000   6.0000000   6.0000000   6.0000000   6.0000000   1.0000000   1.0000000   1.0000000   1.0000000   7.0000000

  Atom        11          12          13          14          15
 IAtWgt=          16          16          12           1          79
 AtmWgt=  15.9949146  15.9949146  12.0000000   1.0078250  78.9183361
 NucSpn=           0           0           0           1           3
 AtZEff=  -0.0000000  -0.0000000  -0.0000000  -0.0000000  -0.0000000
 NQMom=    0.0000000   0.0000000   0.0000000   0.0000000  31.3000000
 NMagM=    0.0000000   0.0000000   0.0000000   2.7928460   2.1063990
 AtZNuc=   8.0000000   8.0000000   6.0000000   1.0000000  35.0000000
 Leave Link  101 at Wed May  1 14:27:45 2024, MaxMem=  1207959552 cpu:               1.2 elap:               1.2
 (Enter /software/gaussian/g16-c01/sse4/g16/l202.exe)
                          Input orientation:                          
 ---------------------------------------------------------------------
 Center     Atomic      Atomic             Coordinates (Angstroms)
 Number     Number       Type             X           Y           Z
 ---------------------------------------------------------------------
      1          6           0        0.029500    1.339700    0.068200
      2          6           0        1.434800    1.286700    0.006400
      3          6           0        2.111800    0.051100   -0.005400
      4          6           0        1.445100   -1.137200    0.031200
      5          6           0       -0.687900    0.168200    0.110000
      6          1           0       -0.471300    2.298400    0.078100
      7          1           0        2.027300    2.196500   -0.032200
      8          1           0        1.989700   -2.076400    0.023200
      9          1           0       -1.771600    0.180400    0.158200
     10          7           0        3.586400    0.051000   -0.067500
     11          8           0        4.147100   -1.059700   -0.088100
     12          8           0        4.145000    1.163900   -0.090100
     13          6           0       -0.023600   -1.145800    0.083500
     14          1           0       -0.436700   -1.872500    0.788900
     15         35           0       -0.535900   -1.869700   -1.740800
 ---------------------------------------------------------------------
                    Distance matrix (angstroms):
                    1          2          3          4          5
     1  C    0.000000
     2  C    1.407656   0.000000
     3  C    2.449874   1.408963   0.000000
     4  C    2.853126   2.424049   1.363043   0.000000
     5  C    1.374344   2.401589   2.804523   2.501993   0.000000
     6  H    1.081667   2.159142   3.424870   3.934226   2.141421
     7  H    2.176095   1.086408   2.147231   3.384750   3.392128
     8  H    3.938800   3.408612   2.131193   1.085702   3.495040
     9  H    2.143837   3.395283   3.888995   3.478413   1.084840
    10  N    3.785591   2.482297   1.475907   2.450862   4.279589
    11  O    4.768247   3.587631   2.320164   2.705743   4.992415
    12  O    4.122294   2.714696   2.319353   3.549540   4.938459
    13  C    2.486114   2.837240   2.449573   1.469656   1.472614
    14  H    3.324903   3.754379   3.290289   2.157764   2.165286
    15  Br   3.727252   4.110867   3.702891   2.756973   2.757100
                    6          7          8          9         10
     6  H    0.000000
     7  H    2.503108   0.000000
     8  H    5.019802   4.273425   0.000000
     9  H    2.486588   4.304945   4.388479   0.000000
    10  N    4.640790   2.652397   2.661486   5.364313   0.000000
    11  O    5.712624   3.885809   2.387560   6.052233   1.244373
    12  O    4.756638   2.356750   3.893289   6.002923   1.245428
    13  C    3.473180   3.923079   2.218790   2.195425   3.806210
    14  H    4.231175   4.827242   2.552506   2.528663   4.540772
    15  Br   4.548146   5.101303   3.087568   3.055498   4.845862
                   11         12         13         14         15
    11  O    0.000000
    12  O    2.223602   0.000000
    13  C    4.175117   4.768865   0.000000
    14  H    4.737193   5.566358   1.093770   0.000000
    15  Br   5.031700   5.817075   2.028436   2.531646   0.000000
 Symmetry turned off by external request.
 Stoichiometry    C6H5BrNO2(1+)
 Framework group  C1[X(C6H5BrNO2)]
 Deg. of freedom    39
 Full point group                 C1      NOp   1
 Rotational constants (GHZ):           1.8252210           0.5518633           0.4576002
 Leave Link  202 at Wed May  1 14:27:46 2024, MaxMem=  1207959552 cpu:               1.2 elap:               1.2
 (Enter /software/gaussian/g16-c01/sse4/g16/l301.exe)
 Standard basis: 6-311+G(d) (5D, 7F)
 Ernie: Thresh=  0.10000D-02 Tol=  0.10000D-05 Strict=F.
 The following finite field(s) will be applied:
 An electric field of              0.0058  0.0000  0.0000
   261 basis functions,   443 primitive gaussians,   273 cartesian basis functions
    49 alpha electrons       49 beta electrons
       nuclear repulsion energy       739.2122215416 Hartrees.
 IExCor= 4639 DFT=T Ex+Corr=wB97XD ExCW=0 ScaHFX=  1.000000
 ScaDFX=  1.000000  1.000000  1.000000  1.000000 ScalE2=  1.000000  1.000000
 IRadAn=      5 IRanWt=     -1 IRanGd=            0 ICorTp=0 IEmpDi=121
 HFx  wShort=  0.000000 wLong=  0.200000 cFull=  0.222036 cShort=  0.000000 cLong=  0.777964
 DFx  wShort=  0.000000 wLong=  0.200000 cFull=  0.000000 cShort=  0.000000 cLong=  1.000000
 NAtoms=   15 NActive=   15 NUniq=   15 SFac= 1.00D+00 NAtFMM=   60 NAOKFM=F Big=F
 Integral buffers will be    131072 words long.
 Raffenetti 2 integral format.
 Two-electron integral symmetry is turned off.
 R6Disp:  Grimme-D2 Dispersion energy=       -0.0077368520 Hartrees.
 Nuclear repulsion after empirical dispersion term =      739.2044846896 Hartrees.
 Leave Link  301 at Wed May  1 14:27:47 2024, MaxMem=  1207959552 cpu:               1.0 elap:               1.0
 (Enter /software/gaussian/g16-c01/sse4/g16/l302.exe)
 NPDir=0 NMtPBC=     1 NCelOv=     1 NCel=       1 NClECP=     1 NCelD=      1
         NCelK=      1 NCelE2=     1 NClLst=     1 CellRange=     0.0.
 One-electron integrals computed using PRISM.
 NBasis=   261 RedAO= T EigKep=  2.35D-06  NBF=   261
 NBsUse=   261 1.00D-06 EigRej= -1.00D+00 NBFU=   261
 Precomputing XC quadrature grid using
 IXCGrd= 4 IRadAn=           5 IRanWt=          -1 IRanGd=           0 AccXCQ= 0.00D+00.
 Generated NRdTot=       0 NPtTot=           0 NUsed=           0 NTot=          32
 NSgBfM=   273   273   273   273   273 MxSgAt=    15 MxSgA2=    15.
 Leave Link  302 at Wed May  1 14:28:09 2024, MaxMem=  1207959552 cpu:              21.2 elap:              21.2
 (Enter /software/gaussian/g16-c01/sse4/g16/l303.exe)
 DipDrv:  MaxL=1.
 The nuclear repulsion energy is now       740.2992182647 hartrees.
 Leave Link  303 at Wed May  1 14:28:12 2024, MaxMem=  1207959552 cpu:               3.1 elap:               3.1
 (Enter /software/gaussian/g16-c01/sse4/g16/l401.exe)
 ExpMin= 3.50D-02 ExpMax= 4.40D+05 ExpMxC= 1.51D+04 IAcc=3 IRadAn=         5 AccDes= 0.00D+00
 Harris functional with IExCor= 4639 and IRadAn=       5 diagonalized for initial guess.
 HarFok:  IExCor= 4639 AccDes= 0.00D+00 IRadAn=         5 IDoV= 1 UseB2=F ITyADJ=14
 ICtDFT=  3500011 ScaDFX=  1.000000  1.000000  1.000000  1.000000
 FoFCou: FMM=F IPFlag=           0 FMFlag=      100000 FMFlg1=           0
         NFxFlg=           0 DoJE=T BraDBF=F KetDBF=T FulRan=T
         wScrn=  0.000000 ICntrl=       500 IOpCl=  0 I1Cent=   200000004 NGrid=           0
         NMat0=    1 NMatS0=      1 NMatT0=    0 NMatD0=    1 NMtDS0=    0 NMtDT0=    0
 Symmetry not used in FoFCou.
 Harris En= -2970.60039724582    
 JPrj=0 DoOrth=F DoCkMO=F.
 Leave Link  401 at Wed May  1 14:28:42 2024, MaxMem=  1207959552 cpu:              29.8 elap:              29.8
 (Enter /software/gaussian/g16-c01/sse4/g16/l502.exe)
 Two-electron integral symmetry not used.
 Closed shell SCF:
 Using DIIS extrapolation, IDIIS=  1040.
 NGot=  1207959552 LenX=  1207804877 LenY=  1207729907
 Requested convergence on RMS density matrix=1.00D-08 within 128 cycles.
 Requested convergence on MAX density matrix=1.00D-06.
 Requested convergence on             energy=1.00D-06.
 No special actions if energy rises.
 Fock matrices will be formed incrementally for  20 cycles.

 Cycle   1  Pass 1  IDiag  1:
 FoFJK:  IHMeth= 1 ICntrl=       0 DoSepK=T KAlg= 0 I1Cent=           0 FoldK=F
 IRaf=         1 NMat=       1 IRICut=       1 DoRegI=T DoRafI=F ISym2E= 0 IDoP0=0 IntGTp=1.
 FoFCou: FMM=F IPFlag=           0 FMFlag=      100000 FMFlg1=           0
         NFxFlg=           0 DoJE=T BraDBF=F KetDBF=F FulRan=T
         wScrn=  0.000000 ICntrl=       500 IOpCl=  0 I1Cent=           0 NGrid=           0
         NMat0=    1 NMatS0=      1 NMatT0=    0 NMatD0=    1 NMtDS0=    0 NMtDT0=    0
 Symmetry not used in FoFCou.
 E= -3009.73461722885    
 DIIS: error= 3.20D-01 at cycle   1 NSaved=   1.
 NSaved= 1 IEnMin= 1 EnMin= -3009.73461722885     IErMin= 1 ErrMin= 3.20D-01
 ErrMax= 3.20D-01  0.00D+00 EMaxC= 1.00D-01 BMatC= 1.19D+01 BMatP= 1.19D+01
 IDIUse=3 WtCom= 0.00D+00 WtEn= 1.00D+00
 Coeff-Com:  0.100D+01
 Coeff-En:   0.100D+01
 Coeff:      0.100D+01
 Gap=     0.316 Goal=   None    Shift=    0.000
 GapD=    0.316 DampG=1.000 DampE=0.250 DampFc=0.2500 IDamp=-1.
 Damping current iteration by 2.50D-01
 RMSDP=4.32D-02 MaxDP=4.14D+00              OVMax= 2.60D-01

 Cycle   2  Pass 1  IDiag  1:
 RMSU=  4.04D-03    CP:  8.91D-01
 E= -3010.01559431218     Delta-E=       -0.280977083332 Rises=F Damp=T
 DIIS: error= 2.25D-01 at cycle   2 NSaved=   2.
 NSaved= 2 IEnMin= 2 EnMin= -3010.01559431218     IErMin= 2 ErrMin= 2.25D-01
 ErrMax= 2.25D-01  0.00D+00 EMaxC= 1.00D-01 BMatC= 5.45D+00 BMatP= 1.19D+01
 IDIUse=3 WtCom= 0.00D+00 WtEn= 1.00D+00
 Coeff-Com: -0.184D+01 0.284D+01
 Coeff-En:   0.000D+00 0.100D+01
 Coeff:      0.000D+00 0.100D+01
 Gap=     0.292 Goal=   None    Shift=    0.000
 RMSDP=3.38D-02 MaxDP=3.28D+00 DE=-2.81D-01 OVMax= 7.19D-02

 Cycle   3  Pass 1  IDiag  1:
 RMSU=  4.20D-03    CP:  5.42D-01  3.00D+00
 E= -3010.39027679685     Delta-E=       -0.374682484669 Rises=F Damp=F
 DIIS: error= 6.58D-02 at cycle   3 NSaved=   3.
 NSaved= 3 IEnMin= 3 EnMin= -3010.39027679685     IErMin= 3 ErrMin= 6.58D-02
 ErrMax= 6.58D-02  0.00D+00 EMaxC= 1.00D-01 BMatC= 7.35D-01 BMatP= 5.45D+00
 IDIUse=3 WtCom= 3.42D-01 WtEn= 6.58D-01
 Coeff-Com:  0.276D+01-0.363D+01 0.187D+01
 Coeff-En:   0.281D-01 0.000D+00 0.972D+00
 Coeff:      0.964D+00-0.124D+01 0.128D+01
 Gap=     0.260 Goal=   None    Shift=    0.000
 RMSDP=8.01D-03 MaxDP=4.45D-01 DE=-3.75D-01 OVMax= 6.59D-02

 Cycle   4  Pass 1  IDiag  1:
 RMSU=  4.73D-03    CP:  5.53D-01  2.23D+00  2.07D+00
 E= -3010.49327334404     Delta-E=       -0.102996547188 Rises=F Damp=F
 DIIS: error= 3.82D-02 at cycle   4 NSaved=   4.
 NSaved= 4 IEnMin= 4 EnMin= -3010.49327334404     IErMin= 4 ErrMin= 3.82D-02
 ErrMax= 3.82D-02  0.00D+00 EMaxC= 1.00D-01 BMatC= 2.29D-01 BMatP= 7.35D-01
 IDIUse=3 WtCom= 6.18D-01 WtEn= 3.82D-01
 Coeff-Com: -0.208D+00 0.291D+00 0.257D+00 0.661D+00
 Coeff-En:   0.000D+00 0.000D+00 0.197D+00 0.803D+00
 Coeff:     -0.129D+00 0.180D+00 0.234D+00 0.715D+00
 Gap=     0.264 Goal=   None    Shift=    0.000
 RMSDP=3.16D-03 MaxDP=2.22D-01 DE=-1.03D-01 OVMax= 2.88D-02

 Cycle   5  Pass 1  IDiag  1:
 RMSU=  1.25D-03    CP:  5.27D-01  2.60D+00  1.94D+00  9.05D-01
 E= -3010.53768012423     Delta-E=       -0.044406780192 Rises=F Damp=F
 DIIS: error= 6.74D-03 at cycle   5 NSaved=   5.
 NSaved= 5 IEnMin= 5 EnMin= -3010.53768012423     IErMin= 5 ErrMin= 6.74D-03
 ErrMax= 6.74D-03  0.00D+00 EMaxC= 1.00D-01 BMatC= 7.08D-03 BMatP= 2.29D-01
 IDIUse=3 WtCom= 9.33D-01 WtEn= 6.74D-02
 Coeff-Com: -0.136D+00 0.185D+00 0.361D-01 0.313D+00 0.603D+00
 Coeff-En:   0.000D+00 0.000D+00 0.000D+00 0.000D+00 0.100D+01
 Coeff:     -0.127D+00 0.172D+00 0.337D-01 0.291D+00 0.630D+00
 Gap=     0.253 Goal=   None    Shift=    0.000
 RMSDP=5.64D-04 MaxDP=4.44D-02 DE=-4.44D-02 OVMax= 1.04D-02

 Cycle   6  Pass 1  IDiag  1:
 RMSU=  4.21D-04    CP:  5.26D-01  2.58D+00  1.95D+00  8.98D-01  7.20D-01
 E= -3010.53909757466     Delta-E=       -0.001417450428 Rises=F Damp=F
 DIIS: error= 1.11D-03 at cycle   6 NSaved=   6.
 NSaved= 6 IEnMin= 6 EnMin= -3010.53909757466     IErMin= 6 ErrMin= 1.11D-03
 ErrMax= 1.11D-03  0.00D+00 EMaxC= 1.00D-01 BMatC= 1.37D-04 BMatP= 7.08D-03
 IDIUse=3 WtCom= 9.89D-01 WtEn= 1.11D-02
 Coeff-Com: -0.836D-01 0.112D+00-0.562D-02 0.139D+00 0.354D+00 0.484D+00
 Coeff-En:   0.000D+00 0.000D+00 0.000D+00 0.000D+00 0.000D+00 0.100D+01
 Coeff:     -0.827D-01 0.111D+00-0.556D-02 0.137D+00 0.350D+00 0.490D+00
 Gap=     0.254 Goal=   None    Shift=    0.000
 RMSDP=1.83D-04 MaxDP=1.15D-02 DE=-1.42D-03 OVMax= 4.80D-03

 Cycle   7  Pass 1  IDiag  1:
 RMSU=  9.30D-05    CP:  5.26D-01  2.57D+00  1.96D+00  9.07D-01  8.07D-01
                    CP:  8.30D-01
 E= -3010.53919257614     Delta-E=       -0.000095001481 Rises=F Damp=F
 DIIS: error= 4.90D-04 at cycle   7 NSaved=   7.
 NSaved= 7 IEnMin= 7 EnMin= -3010.53919257614     IErMin= 7 ErrMin= 4.90D-04
 ErrMax= 4.90D-04  0.00D+00 EMaxC= 1.00D-01 BMatC= 2.15D-05 BMatP= 1.37D-04
 IDIUse=3 WtCom= 9.95D-01 WtEn= 4.90D-03
 Coeff-Com: -0.340D-01 0.453D-01-0.121D-01 0.351D-01 0.109D+00 0.297D+00
 Coeff-Com:  0.560D+00
 Coeff-En:   0.000D+00 0.000D+00 0.000D+00 0.000D+00 0.000D+00 0.374D-01
 Coeff-En:   0.963D+00
 Coeff:     -0.338D-01 0.451D-01-0.120D-01 0.349D-01 0.109D+00 0.296D+00
 Coeff:      0.562D+00
 Gap=     0.254 Goal=   None    Shift=    0.000
 RMSDP=8.35D-05 MaxDP=5.18D-03 DE=-9.50D-05 OVMax= 1.88D-03

 Cycle   8  Pass 1  IDiag  1:
 RMSU=  4.73D-05    CP:  5.26D-01  2.57D+00  1.97D+00  9.14D-01  8.32D-01
                    CP:  8.55D-01  8.65D-01
 E= -3010.53920921629     Delta-E=       -0.000016640153 Rises=F Damp=F
 DIIS: error= 1.20D-04 at cycle   8 NSaved=   8.
 NSaved= 8 IEnMin= 8 EnMin= -3010.53920921629     IErMin= 8 ErrMin= 1.20D-04
 ErrMax= 1.20D-04  0.00D+00 EMaxC= 1.00D-01 BMatC= 2.12D-06 BMatP= 2.15D-05
 IDIUse=3 WtCom= 9.99D-01 WtEn= 1.20D-03
 Coeff-Com:  0.475D-02-0.655D-02-0.291D-02-0.134D-01-0.339D-01-0.764D-02
 Coeff-Com:  0.190D+00 0.870D+00
 Coeff-En:   0.000D+00 0.000D+00 0.000D+00 0.000D+00 0.000D+00 0.000D+00
 Coeff-En:   0.000D+00 0.100D+01
 Coeff:      0.475D-02-0.654D-02-0.290D-02-0.134D-01-0.339D-01-0.763D-02
 Coeff:      0.189D+00 0.870D+00
 Gap=     0.254 Goal=   None    Shift=    0.000
 RMSDP=4.69D-05 MaxDP=3.34D-03 DE=-1.66D-05 OVMax= 7.09D-04

 Cycle   9  Pass 1  IDiag  1:
 RMSU=  1.87D-05    CP:  5.26D-01  2.56D+00  1.97D+00  9.15D-01  8.34D-01
                    CP:  9.19D-01  1.03D+00  1.18D+00
 E= -3010.53921206461     Delta-E=       -0.000002848321 Rises=F Damp=F
 DIIS: error= 1.79D-05 at cycle   9 NSaved=   9.
 NSaved= 9 IEnMin= 9 EnMin= -3010.53921206461     IErMin= 9 ErrMin= 1.79D-05
 ErrMax= 1.79D-05  0.00D+00 EMaxC= 1.00D-01 BMatC= 1.71D-07 BMatP= 2.12D-06
 IDIUse=1 WtCom= 1.00D+00 WtEn= 0.00D+00
 Coeff-Com:  0.611D-02-0.821D-02 0.526D-03-0.916D-02-0.231D-01-0.385D-01
 Coeff-Com: -0.109D-01 0.274D+00 0.809D+00
 Coeff:      0.611D-02-0.821D-02 0.526D-03-0.916D-02-0.231D-01-0.385D-01
 Coeff:     -0.109D-01 0.274D+00 0.809D+00
 Gap=     0.254 Goal=   None    Shift=    0.000
 RMSDP=1.45D-05 MaxDP=7.51D-04 DE=-2.85D-06 OVMax= 3.37D-04

 Cycle  10  Pass 1  IDiag  1:
 RMSU=  6.52D-06    CP:  5.26D-01  2.56D+00  1.97D+00  9.16D-01  8.38D-01
                    CP:  9.31D-01  1.08D+00  1.28D+00  1.10D+00
 E= -3010.53921243947     Delta-E=       -0.000000374852 Rises=F Damp=F
 DIIS: error= 1.48D-05 at cycle  10 NSaved=  10.
 NSaved=10 IEnMin=10 EnMin= -3010.53921243947     IErMin=10 ErrMin= 1.48D-05
 ErrMax= 1.48D-05  0.00D+00 EMaxC= 1.00D-01 BMatC= 4.24D-08 BMatP= 1.71D-07
 IDIUse=1 WtCom= 1.00D+00 WtEn= 0.00D+00
 Coeff-Com:  0.792D-03-0.105D-02 0.273D-03-0.869D-03-0.130D-03-0.578D-02
 Coeff-Com: -0.253D-01-0.414D-01 0.253D+00 0.820D+00
 Coeff:      0.792D-03-0.105D-02 0.273D-03-0.869D-03-0.130D-03-0.578D-02
 Coeff:     -0.253D-01-0.414D-01 0.253D+00 0.820D+00
 Gap=     0.254 Goal=   None    Shift=    0.000
 RMSDP=6.39D-06 MaxDP=4.51D-04 DE=-3.75D-07 OVMax= 1.28D-04

 Cycle  11  Pass 1  IDiag  1:
 RMSU=  2.83D-06    CP:  5.26D-01  2.56D+00  1.97D+00  9.15D-01  8.37D-01
                    CP:  9.37D-01  1.08D+00  1.28D+00  1.23D+00  1.01D+00
 E= -3010.53921250127     Delta-E=       -0.000000061808 Rises=F Damp=F
 DIIS: error= 4.33D-06 at cycle  11 NSaved=  11.
 NSaved=11 IEnMin=11 EnMin= -3010.53921250127     IErMin=11 ErrMin= 4.33D-06
 ErrMax= 4.33D-06  0.00D+00 EMaxC= 1.00D-01 BMatC= 2.43D-09 BMatP= 4.24D-08
 IDIUse=1 WtCom= 1.00D+00 WtEn= 0.00D+00
 Coeff-Com: -0.142D-03 0.191D-03 0.304D-04 0.502D-03 0.213D-02 0.431D-02
 Coeff-Com:  0.267D-02-0.249D-01-0.694D-01-0.481D-02 0.109D+01
 Coeff:     -0.142D-03 0.191D-03 0.304D-04 0.502D-03 0.213D-02 0.431D-02
 Coeff:      0.267D-02-0.249D-01-0.694D-01-0.481D-02 0.109D+01
 Gap=     0.254 Goal=   None    Shift=    0.000
 RMSDP=2.80D-06 MaxDP=1.34D-04 DE=-6.18D-08 OVMax= 1.01D-04

 Cycle  12  Pass 1  IDiag  1:
 RMSU=  8.59D-07    CP:  5.26D-01  2.56D+00  1.97D+00  9.15D-01  8.37D-01
                    CP:  9.40D-01  1.08D+00  1.28D+00  1.28D+00  1.18D+00
                    CP:  1.29D+00
 E= -3010.53921251454     Delta-E=       -0.000000013262 Rises=F Damp=F
 DIIS: error= 1.51D-06 at cycle  12 NSaved=  12.
 NSaved=12 IEnMin=12 EnMin= -3010.53921251454     IErMin=12 ErrMin= 1.51D-06
 ErrMax= 1.51D-06  0.00D+00 EMaxC= 1.00D-01 BMatC= 1.22D-09 BMatP= 2.43D-09
 IDIUse=1 WtCom= 1.00D+00 WtEn= 0.00D+00
 Coeff-Com: -0.184D-03 0.245D-03-0.207D-04 0.389D-03 0.901D-03 0.310D-02
 Coeff-Com:  0.643D-02-0.538D-02-0.872D-01-0.191D+00 0.559D+00 0.714D+00
 Coeff:     -0.184D-03 0.245D-03-0.207D-04 0.389D-03 0.901D-03 0.310D-02
 Coeff:      0.643D-02-0.538D-02-0.872D-01-0.191D+00 0.559D+00 0.714D+00
 Gap=     0.254 Goal=   None    Shift=    0.000
 RMSDP=1.55D-06 MaxDP=6.65D-05 DE=-1.33D-08 OVMax= 4.36D-05

 Cycle  13  Pass 1  IDiag  1:
 RMSU=  5.17D-07    CP:  5.26D-01  2.56D+00  1.97D+00  9.15D-01  8.37D-01
                    CP:  9.41D-01  1.08D+00  1.27D+00  1.31D+00  1.23D+00
                    CP:  1.59D+00  1.19D+00
 E= -3010.53921251820     Delta-E=       -0.000000003668 Rises=F Damp=F
 DIIS: error= 5.99D-07 at cycle  13 NSaved=  13.
 NSaved=13 IEnMin=13 EnMin= -3010.53921251820     IErMin=13 ErrMin= 5.99D-07
 ErrMax= 5.99D-07  0.00D+00 EMaxC= 1.00D-01 BMatC= 1.19D-10 BMatP= 1.22D-09
 IDIUse=1 WtCom= 1.00D+00 WtEn= 0.00D+00
 Coeff-Com: -0.929D-05 0.125D-04-0.870D-05-0.678D-04-0.497D-03-0.936D-03
 Coeff-Com: -0.493D-03 0.406D-02 0.152D-01-0.951D-02-0.129D+00-0.548D-01
 Coeff-Com:  0.118D+01
 Coeff:     -0.929D-05 0.125D-04-0.870D-05-0.678D-04-0.497D-03-0.936D-03
 Coeff:     -0.493D-03 0.406D-02 0.152D-01-0.951D-02-0.129D+00-0.548D-01
 Coeff:      0.118D+01
 Gap=     0.254 Goal=   None    Shift=    0.000
 RMSDP=4.50D-07 MaxDP=2.28D-05 DE=-3.67D-09 OVMax= 3.12D-05

 Cycle  14  Pass 1  IDiag  1:
 RMSU=  1.94D-07    CP:  5.26D-01  2.56D+00  1.97D+00  9.15D-01  8.37D-01
                    CP:  9.42D-01  1.08D+00  1.27D+00  1.31D+00  1.23D+00
                    CP:  1.68D+00  1.37D+00  1.40D+00
 E= -3010.53921251897     Delta-E=       -0.000000000768 Rises=F Damp=F
 DIIS: error= 2.86D-07 at cycle  14 NSaved=  14.
 NSaved=14 IEnMin=14 EnMin= -3010.53921251897     IErMin=14 ErrMin= 2.86D-07
 ErrMax= 2.86D-07  0.00D+00 EMaxC= 1.00D-01 BMatC= 3.31D-11 BMatP= 1.19D-10
 IDIUse=1 WtCom= 1.00D+00 WtEn= 0.00D+00
 Coeff-Com:  0.149D-04-0.196D-04-0.296D-05-0.729D-04-0.271D-03-0.731D-03
 Coeff-Com: -0.111D-02 0.212D-02 0.196D-01 0.252D-01-0.132D+00-0.179D+00
 Coeff-Com:  0.407D+00 0.859D+00
 Coeff:      0.149D-04-0.196D-04-0.296D-05-0.729D-04-0.271D-03-0.731D-03
 Coeff:     -0.111D-02 0.212D-02 0.196D-01 0.252D-01-0.132D+00-0.179D+00
 Coeff:      0.407D+00 0.859D+00
 Gap=     0.254 Goal=   None    Shift=    0.000
 RMSDP=2.61D-07 MaxDP=1.47D-05 DE=-7.68D-10 OVMax= 1.52D-05

 Cycle  15  Pass 1  IDiag  1:
 RMSU=  6.80D-08    CP:  5.26D-01  2.56D+00  1.97D+00  9.15D-01  8.37D-01
                    CP:  9.42D-01  1.08D+00  1.27D+00  1.32D+00  1.23D+00
                    CP:  1.73D+00  1.46D+00  1.65D+00  1.18D+00
 E= -3010.53921251915     Delta-E=       -0.000000000179 Rises=F Damp=F
 DIIS: error= 1.48D-07 at cycle  15 NSaved=  15.
 NSaved=15 IEnMin=15 EnMin= -3010.53921251915     IErMin=15 ErrMin= 1.48D-07
 ErrMax= 1.48D-07  0.00D+00 EMaxC= 1.00D-01 BMatC= 7.52D-12 BMatP= 3.31D-11
 IDIUse=1 WtCom= 1.00D+00 WtEn= 0.00D+00
 Coeff-Com:  0.107D-04-0.144D-04 0.141D-05-0.517D-05 0.689D-04 0.776D-04
 Coeff-Com: -0.143D-03-0.590D-03 0.162D-02 0.891D-02 0.699D-03-0.556D-01
 Coeff-Com: -0.190D+00 0.313D+00 0.922D+00
 Coeff:      0.107D-04-0.144D-04 0.141D-05-0.517D-05 0.689D-04 0.776D-04
 Coeff:     -0.143D-03-0.590D-03 0.162D-02 0.891D-02 0.699D-03-0.556D-01
 Coeff:     -0.190D+00 0.313D+00 0.922D+00
 Gap=     0.254 Goal=   None    Shift=    0.000
 RMSDP=1.38D-07 MaxDP=6.19D-06 DE=-1.79D-10 OVMax= 8.09D-06

 Cycle  16  Pass 1  IDiag  1:
 RMSU=  3.82D-08    CP:  5.26D-01  2.56D+00  1.97D+00  9.15D-01  8.37D-01
                    CP:  9.42D-01  1.08D+00  1.27D+00  1.32D+00  1.24D+00
                    CP:  1.76D+00  1.47D+00  1.80D+00  1.42D+00  1.32D+00
 E= -3010.53921251922     Delta-E=       -0.000000000074 Rises=F Damp=F
 DIIS: error= 5.95D-08 at cycle  16 NSaved=  16.
 NSaved=16 IEnMin=16 EnMin= -3010.53921251922     IErMin=16 ErrMin= 5.95D-08
 ErrMax= 5.95D-08  0.00D+00 EMaxC= 1.00D-01 BMatC= 7.66D-13 BMatP= 7.52D-12
 IDIUse=1 WtCom= 1.00D+00 WtEn= 0.00D+00
 Coeff-Com:  0.153D-05-0.208D-05 0.101D-05 0.821D-05 0.588D-04 0.132D-03
 Coeff-Com:  0.100D-03-0.556D-03-0.219D-02-0.410D-03 0.200D-01 0.564D-02
 Coeff-Com: -0.110D+00-0.719D-02 0.244D+00 0.850D+00
 Coeff:      0.153D-05-0.208D-05 0.101D-05 0.821D-05 0.588D-04 0.132D-03
 Coeff:      0.100D-03-0.556D-03-0.219D-02-0.410D-03 0.200D-01 0.564D-02
 Coeff:     -0.110D+00-0.719D-02 0.244D+00 0.850D+00
 Gap=     0.254 Goal=   None    Shift=    0.000
 RMSDP=3.09D-08 MaxDP=1.04D-06 DE=-7.37D-11 OVMax= 2.18D-06

 Cycle  17  Pass 1  IDiag  1:
 RMSU=  1.11D-08    CP:  5.26D-01  2.56D+00  1.97D+00  9.15D-01  8.37D-01
                    CP:  9.42D-01  1.08D+00  1.27D+00  1.32D+00  1.24D+00
                    CP:  1.76D+00  1.46D+00  1.82D+00  1.47D+00  1.57D+00
                    CP:  1.16D+00
 E= -3010.53921251922     Delta-E=        0.000000000004 Rises=F Damp=F
 DIIS: error= 2.11D-08 at cycle  17 NSaved=  17.
 NSaved=17 IEnMin=16 EnMin= -3010.53921251922     IErMin=17 ErrMin= 2.11D-08
 ErrMax= 2.11D-08  0.00D+00 EMaxC= 1.00D-01 BMatC= 1.49D-13 BMatP= 7.66D-13
 IDIUse=1 WtCom= 1.00D+00 WtEn= 0.00D+00
 Coeff-Com: -0.546D-06 0.729D-06 0.146D-06 0.124D-05-0.130D-05 0.111D-04
 Coeff-Com:  0.379D-04 0.257D-05-0.588D-03-0.116D-02 0.337D-02 0.839D-02
 Coeff-Com:  0.378D-02-0.499D-01-0.119D+00 0.203D+00 0.952D+00
 Coeff:     -0.546D-06 0.729D-06 0.146D-06 0.124D-05-0.130D-05 0.111D-04
 Coeff:      0.379D-04 0.257D-05-0.588D-03-0.116D-02 0.337D-02 0.839D-02
 Coeff:      0.378D-02-0.499D-01-0.119D+00 0.203D+00 0.952D+00
 Gap=     0.254 Goal=   None    Shift=    0.000
 RMSDP=2.09D-08 MaxDP=1.05D-06 DE= 3.64D-12 OVMax= 1.20D-06

 Cycle  18  Pass 1  IDiag  1:
 RMSU=  5.36D-09    CP:  5.26D-01  2.56D+00  1.97D+00  9.15D-01  8.37D-01
                    CP:  9.42D-01  1.08D+00  1.27D+00  1.32D+00  1.24D+00
                    CP:  1.76D+00  1.46D+00  1.84D+00  1.51D+00  1.65D+00
                    CP:  1.40D+00  1.35D+00
 E= -3010.53921251923     Delta-E=       -0.000000000009 Rises=F Damp=F
 DIIS: error= 6.98D-09 at cycle  18 NSaved=  18.
 NSaved=18 IEnMin=18 EnMin= -3010.53921251923     IErMin=18 ErrMin= 6.98D-09
 ErrMax= 6.98D-09  0.00D+00 EMaxC= 1.00D-01 BMatC= 3.02D-14 BMatP= 1.49D-13
 IDIUse=1 WtCom= 1.00D+00 WtEn= 0.00D+00
 Coeff-Com: -0.710D-07 0.978D-07-0.100D-06-0.161D-05-0.119D-04-0.219D-04
 Coeff-Com: -0.709D-05 0.116D-03 0.247D-03-0.337D-03-0.290D-02 0.985D-03
 Coeff-Com:  0.241D-01-0.728D-02-0.782D-01-0.118D+00 0.269D+00 0.913D+00
 Coeff:     -0.710D-07 0.978D-07-0.100D-06-0.161D-05-0.119D-04-0.219D-04
 Coeff:     -0.709D-05 0.116D-03 0.247D-03-0.337D-03-0.290D-02 0.985D-03
 Coeff:      0.241D-01-0.728D-02-0.782D-01-0.118D+00 0.269D+00 0.913D+00
 Gap=     0.254 Goal=   None    Shift=    0.000
 RMSDP=7.77D-09 MaxDP=5.61D-07 DE=-9.09D-12 OVMax= 2.91D-07

 SCF Done:  E(RwB97XD) =  -3010.53921252     A.U. after   18 cycles
            NFock= 18  Conv=0.78D-08     -V/T= 2.0016
 KE= 3.005849344211D+03 PE=-8.633158307934D+03 EE= 1.876470532939D+03
 Leave Link  502 at Wed May  1 14:45:25 2024, MaxMem=  1207959552 cpu:            1002.1 elap:            1002.4
 (Enter /software/gaussian/g16-c01/sse4/g16/l601.exe)
 Copying SCF densities to generalized density rwf, IOpCl= 0 IROHF=0.

 **********************************************************************

            Population analysis using the SCF Density.

 **********************************************************************

 Alpha  occ. eigenvalues -- -483.31473 -62.86490 -56.66190 -56.65609 -56.65605
 Alpha  occ. eigenvalues --  -19.48652 -19.48576 -14.88072 -10.58576 -10.58400
 Alpha  occ. eigenvalues --  -10.58255 -10.57963 -10.57132 -10.53290  -9.02291
 Alpha  occ. eigenvalues --   -6.84986  -6.83087  -6.83069  -2.94886  -2.94383
 Alpha  occ. eigenvalues --   -2.94367  -2.92848  -2.92848  -1.52402  -1.35413
 Alpha  occ. eigenvalues --   -1.23403  -1.14928  -1.12396  -1.04854  -1.02395
 Alpha  occ. eigenvalues --   -0.96082  -0.91869  -0.86918  -0.82539  -0.82240
 Alpha  occ. eigenvalues --   -0.81859  -0.78861  -0.78438  -0.76520  -0.72908
 Alpha  occ. eigenvalues --   -0.69782  -0.68135  -0.64359  -0.60688  -0.59875
 Alpha  occ. eigenvalues --   -0.59128  -0.58493  -0.56492  -0.55544
 Alpha virt. eigenvalues --   -0.30137  -0.23352  -0.16093  -0.14388  -0.09257
 Alpha virt. eigenvalues --   -0.06724  -0.06316  -0.05394  -0.05171  -0.03670
 Alpha virt. eigenvalues --   -0.03142  -0.02554  -0.01858  -0.00754   0.00059
 Alpha virt. eigenvalues --    0.00313   0.01017   0.01413   0.01994   0.02627
 Alpha virt. eigenvalues --    0.03251   0.04107   0.04348   0.04918   0.05247
 Alpha virt. eigenvalues --    0.06197   0.06455   0.06812   0.08094   0.08898
 Alpha virt. eigenvalues --    0.09585   0.09846   0.10009   0.10389   0.11133
 Alpha virt. eigenvalues --    0.11332   0.11695   0.12470   0.14074   0.14746
 Alpha virt. eigenvalues --    0.15705   0.16566   0.16742   0.16960   0.17923
 Alpha virt. eigenvalues --    0.18689   0.19181   0.19550   0.20840   0.21857
 Alpha virt. eigenvalues --    0.22349   0.24479   0.26518   0.29123   0.30305
 Alpha virt. eigenvalues --    0.31238   0.31487   0.32821   0.33782   0.34010
 Alpha virt. eigenvalues --    0.36479   0.36890   0.38284   0.40130   0.41268
 Alpha virt. eigenvalues --    0.41885   0.42604   0.42877   0.45559   0.45685
 Alpha virt. eigenvalues --    0.46713   0.49631   0.49988   0.51499   0.52094
 Alpha virt. eigenvalues --    0.53227   0.54309   0.55962   0.56273   0.58431
 Alpha virt. eigenvalues --    0.61035   0.61549   0.63755   0.66513   0.67812
 Alpha virt. eigenvalues --    0.69737   0.70073   0.72426   0.72802   0.73560
 Alpha virt. eigenvalues --    0.73930   0.77475   0.78574   0.82315   0.83648
 Alpha virt. eigenvalues --    0.85506   0.86184   0.90641   0.91898   0.96452
 Alpha virt. eigenvalues --    0.96596   0.99733   1.03314   1.04012   1.05553
 Alpha virt. eigenvalues --    1.07361   1.08886   1.09613   1.10011   1.11559
 Alpha virt. eigenvalues --    1.19176   1.22830   1.25175   1.32218   1.35626
 Alpha virt. eigenvalues --    1.36080   1.37216   1.44438   1.53241   1.55798
 Alpha virt. eigenvalues --    1.56509   1.56966   1.59615   1.61017   1.65598
 Alpha virt. eigenvalues --    1.67726   1.68955   1.72801   1.72918   1.78143
 Alpha virt. eigenvalues --    1.80643   1.84510   1.86119   1.92990   1.94997
 Alpha virt. eigenvalues --    1.96760   2.01181   2.02545   2.06283   2.07321
 Alpha virt. eigenvalues --    2.08792   2.13962   2.19353   2.21148   2.28762
 Alpha virt. eigenvalues --    2.35979   2.39512   2.41578   2.42541   2.51623
 Alpha virt. eigenvalues --    2.55978   2.62058   2.65056   2.66986   2.69320
 Alpha virt. eigenvalues --    2.71072   2.73977   2.75962   2.78358   2.80946
 Alpha virt. eigenvalues --    2.92809   2.95502   2.97997   3.04884   3.07714
 Alpha virt. eigenvalues --    3.11813   3.13959   3.18243   3.21315   3.23372
 Alpha virt. eigenvalues --    3.24457   3.37322   3.46966   3.49638   3.52414
 Alpha virt. eigenvalues --    3.55187   3.67299   3.71342   3.81343   3.86298
 Alpha virt. eigenvalues --    4.08713   4.08941   4.16370   4.21617   4.41435
 Alpha virt. eigenvalues --    4.42417   4.56388   4.57751   4.90241   4.92880
 Alpha virt. eigenvalues --    5.01543   5.05710   5.60035   6.12846   6.64414
 Alpha virt. eigenvalues --    7.47396   7.48965   7.58713  23.20567  23.60501
 Alpha virt. eigenvalues --   23.69149  23.78673  23.95303  24.00494  35.29893
 Alpha virt. eigenvalues --   47.90950  49.82758  49.91568 289.80271 289.81938
 Alpha virt. eigenvalues --  289.943721020.91359
          Condensed to atoms (all electrons):
               1          2          3          4          5          6
     1  C    8.570723  -2.238448   0.349411  -1.455524  -0.673466   0.306033
     2  C   -2.238448  12.826062  -1.944776  -2.705350   0.923253  -0.016252
     3  C    0.349411  -1.944776  12.862029  -2.808822  -1.307290   0.020651
     4  C   -1.455524  -2.705350  -2.808822  13.983499   1.250809   0.009967
     5  C   -0.673466   0.923253  -1.307290   1.250809   7.308833   0.022316
     6  H    0.306033  -0.016252   0.020651   0.009967   0.022316   0.324750
     7  H    0.060540   0.242554   0.079707  -0.032861  -0.020755  -0.001827
     8  H    0.001889  -0.009986   0.064911   0.263922  -0.011991   0.000002
     9  H    0.024634  -0.006894   0.000863  -0.004893   0.318414  -0.002021
    10  N   -0.116898   0.326277  -0.919518   0.288552   0.030953  -0.000558
    11  O    0.018748  -0.043855  -0.258489  -0.029451  -0.053044  -0.000020
    12  O    0.287262  -0.040622  -0.280940  -0.056352  -0.042932  -0.000011
    13  C    1.406837  -1.840662   0.810913  -2.977682  -1.785254  -0.008549
    14  H   -0.003655  -0.009991   0.008319  -0.055595  -0.049308  -0.000057
    15  Br   0.054178   0.000936   0.055428   0.070905   0.067104  -0.000395
               7          8          9         10         11         12
     1  C    0.060540   0.001889   0.024634  -0.116898   0.018748   0.287262
     2  C    0.242554  -0.009986  -0.006894   0.326277  -0.043855  -0.040622
     3  C    0.079707   0.064911   0.000863  -0.919518  -0.258489  -0.280940
     4  C   -0.032861   0.263922  -0.004893   0.288552  -0.029451  -0.056352
     5  C   -0.020755  -0.011991   0.318414   0.030953  -0.053044  -0.042932
     6  H   -0.001827   0.000002  -0.002021  -0.000558  -0.000020  -0.000011
     7  H    0.311454   0.000005   0.000013  -0.026261  -0.001502   0.019241
     8  H    0.000005   0.305089   0.000112  -0.023482   0.019851  -0.000914
     9  H    0.000013   0.000112   0.302814   0.000424   0.000004   0.000005
    10  N   -0.026261  -0.023482   0.000424   7.255435   0.229027   0.194969
    11  O   -0.001502   0.019851   0.000004   0.229027   7.844424  -0.007595
    12  O    0.019241  -0.000914   0.000005   0.194969  -0.007595   7.880050
    13  C    0.014107   0.029262  -0.005789  -0.136091   0.276432   0.044091
    14  H   -0.000015  -0.004594  -0.004915  -0.000718  -0.000207  -0.000069
    15  Br  -0.000157   0.000690   0.000903   0.002709   0.000594   0.001972
              13         14         15
     1  C    1.406837  -0.003655   0.054178
     2  C   -1.840662  -0.009991   0.000936
     3  C    0.810913   0.008319   0.055428
     4  C   -2.977682  -0.055595   0.070905
     5  C   -1.785254  -0.049308   0.067104
     6  H   -0.008549  -0.000057  -0.000395
     7  H    0.014107  -0.000015  -0.000157
     8  H    0.029262  -0.004594   0.000690
     9  H   -0.005789  -0.004915   0.000903
    10  N   -0.136091  -0.000718   0.002709
    11  O    0.276432  -0.000207   0.000594
    12  O    0.044091  -0.000069   0.001972
    13  C   10.290693   0.412370  -0.070385
    14  H    0.412370   0.333626  -0.038729
    15  Br  -0.070385  -0.038729  34.647221
 Mulliken charges:
               1
     1  C   -0.592263
     2  C    0.537756
     3  C   -0.732395
     4  C    0.258877
     5  C    0.022360
     6  H    0.345970
     7  H    0.355757
     8  H    0.365233
     9  H    0.376327
    10  N   -0.104821
    11  O    0.005083
    12  O    0.001846
    13  C   -0.460294
    14  H    0.413539
    15  Br   0.207026
 Sum of Mulliken charges =   1.00000
 Mulliken charges with hydrogens summed into heavy atoms:
               1
     1  C   -0.246293
     2  C    0.893513
     3  C   -0.732395
     4  C    0.624110
     5  C    0.398687
    10  N   -0.104821
    11  O    0.005083
    12  O    0.001846
    13  C   -0.046754
    15  Br   0.207026
 Electronic spatial extent (au):  <R**2>=           2800.9808
 Charge=              1.0000 electrons
 Dipole moment (field-independent basis, Debye):
    X=             -2.5653    Y=             -0.7847    Z=             -0.1631  Tot=              2.6875
 Quadrupole moment (field-independent basis, Debye-Ang):
   XX=            -75.3514   YY=            -51.8096   ZZ=            -62.2006
   XY=              1.5711   XZ=              1.5557   YZ=              2.0655
 Traceless Quadrupole moment (field-independent basis, Debye-Ang):
   XX=            -12.2309   YY=             11.3109   ZZ=              0.9200
   XY=              1.5711   XZ=              1.5557   YZ=              2.0655
 Octapole moment (field-independent basis, Debye-Ang**2):
  XXX=           -323.4300  YYY=             86.1621  ZZZ=             76.2065  XYY=            -80.2082
  XXY=             29.2412  XXZ=             32.0859  XZZ=            -80.0821  YZZ=             15.1890
  YYZ=             24.4437  XYZ=             -4.2065
 Hexadecapole moment (field-independent basis, Debye-Ang**3):
 XXXX=          -2382.0254 YYYY=           -673.3485 ZZZZ=           -344.1871 XXXY=            -68.1882
 XXXZ=            -18.6564 YYYX=            -57.7087 YYYZ=           -152.5838 ZZZX=            -15.8625
 ZZZY=           -132.8404 XXYY=           -463.9005 XXZZ=           -371.7632 YYZZ=           -160.8126
 XXYZ=            -53.4601 YYXZ=             -0.0529 ZZXY=             -6.8006
 N-N= 7.402992182647D+02 E-N=-8.633158309878D+03  KE= 3.005849344211D+03
 No NMR shielding tensors so no spin-rotation constants.
 Leave Link  601 at Wed May  1 14:45:32 2024, MaxMem=  1207959552 cpu:               7.2 elap:               7.2
 (Enter /software/gaussian/g16-c01/sse4/g16/l9999.exe)
 Unable to Open any file for archive entry.
 1\1\GINC-BHX0019\SP\RwB97XD\6-311+G(d)\C6H5Br1N1O2(1+)\BWEIGHT\01-May-
 2024\0\\#P wB97XD/6-311+G* NoSymm #P Field=X+58\\TitleMe\\1,1\C,0,0.02
 95,1.3397,0.0682\C,0,1.4348,1.2867,0.0064\C,0,2.1118,0.0511,-0.0054\C,
 0,1.4451,-1.1372,0.0312\C,0,-0.6879,0.1682,0.11\H,0,-0.4713,2.2984,0.0
 781\H,0,2.0273,2.1965,-0.0322\H,0,1.9897,-2.0764,0.0232\H,0,-1.7716,0.
 1804,0.1582\N,0,3.5864,0.051,-0.0675\O,0,4.1471,-1.0597,-0.0881\O,0,4.
 145,1.1639,-0.0901\C,0,-0.0236,-1.1458,0.0835\H,0,-0.4367,-1.8725,0.78
 89\Br,0,-0.5359,-1.8697,-1.7408\\Version=ES64L-G16RevC.01\HF=-3010.539
 2125\RMSD=7.772e-09\Dipole=-2.915785,0.839345,1.0820266\Quadrupole=-9.
 0933612,8.4094004,0.6839608,1.1680557,1.1566253,1.5356403\PG=C01 [X(C6
 H5Br1N1O2)]\\@
 The archive entry for this job was punched.


 IT WAS AN ACT OF DESPARATION. FOR SIX YEARS I HAD STRUGGLED WITH THE
 BLACKBODY THEORY. I KNEW THE PROBLEM WAS FUNDAMENTAL, AND I KNEW
 THE ANSWER. I HAD TO FIND A THEORETICAL EXPLANATION AT ANY COST,
 EXCEPT FOR THE INVIOLABLITY OF THE TWO LAWS OF THERMODYNAMICS.
   -- MAX PLANCK, 1931
 Job cpu time:       0 days  0 hours 17 minutes 48.6 seconds.
 Elapsed time:       0 days  0 hours 17 minutes 48.9 seconds.
 File lengths (MBytes):  RWF=     40 Int=      0 D2E=      0 Chk=     32 Scr=      1
 Normal termination of Gaussian 16 at Wed May  1 14:45:33 2024.
