 Entering Gaussian System, Link 0=g16
 Initial command:
 /software/gaussian/g16-c01/sse4/g16/l1.exe "/local_scratch/24665236/Gau-25507.inp" -scrdir="/local_scratch/24665236/"
 Entering Link 1 = /software/gaussian/g16-c01/sse4/g16/l1.exe PID=     25607.
  
 Copyright (c) 1988-2019, Gaussian, Inc.  All Rights Reserved.
  
 This is part of the Gaussian(R) 16 program.  It is based on
 the Gaussian(R) 09 system (copyright 2009, Gaussian, Inc.),
 the Gaussian(R) 03 system (copyright 2003, Gaussian, Inc.),
 the Gaussian(R) 98 system (copyright 1998, Gaussian, Inc.),
 the Gaussian(R) 94 system (copyright 1995, Gaussian, Inc.),
 the Gaussian 92(TM) system (copyright 1992, Gaussian, Inc.),
 the Gaussian 90(TM) system (copyright 1990, Gaussian, Inc.),
 the Gaussian 88(TM) system (copyright 1988, Gaussian, Inc.),
 the Gaussian 86(TM) system (copyright 1986, Carnegie Mellon
 University), and the Gaussian 82(TM) system (copyright 1983,
 Carnegie Mellon University). Gaussian is a federally registered
 trademark of Gaussian, Inc.
  
 This software contains proprietary and confidential information,
 including trade secrets, belonging to Gaussian, Inc.
  
 This software is provided under written license and may be
 used, copied, transmitted, or stored only in accord with that
 written license.
  
 The following legend is applicable only to US Government
 contracts under FAR:
  
                    RESTRICTED RIGHTS LEGEND
  
 Use, reproduction and disclosure by the US Government is
 subject to restrictions as set forth in subparagraphs (a)
 and (c) of the Commercial Computer Software - Restricted
 Rights clause in FAR 52.227-19.
  
 Gaussian, Inc.
 340 Quinnipiac St., Bldg. 40, Wallingford CT 06492
  
  
 ---------------------------------------------------------------
 Warning -- This program may not be used in any manner that
 competes with the business of Gaussian, Inc. or will provide
 assistance to any competitor of Gaussian, Inc.  The licensee
 of this program is prohibited from giving any competitor of
 Gaussian, Inc. access to this program.  By using this program,
 the user acknowledges that Gaussian, Inc. is engaged in the
 business of creating and licensing software in the field of
 computational chemistry and represents and warrants to the
 licensee that it is not a competitor of Gaussian, Inc. and that
 it will not use this program in any manner prohibited above.
 ---------------------------------------------------------------
  

 Cite this work as:
 Gaussian 16, Revision C.01,
 M. J. Frisch, G. W. Trucks, H. B. Schlegel, G. E. Scuseria, 
 M. A. Robb, J. R. Cheeseman, G. Scalmani, V. Barone, 
 G. A. Petersson, H. Nakatsuji, X. Li, M. Caricato, A. V. Marenich, 
 J. Bloino, B. G. Janesko, R. Gomperts, B. Mennucci, H. P. Hratchian, 
 J. V. Ortiz, A. F. Izmaylov, J. L. Sonnenberg, D. Williams-Young, 
 F. Ding, F. Lipparini, F. Egidi, J. Goings, B. Peng, A. Petrone, 
 T. Henderson, D. Ranasinghe, V. G. Zakrzewski, J. Gao, N. Rega, 
 G. Zheng, W. Liang, M. Hada, M. Ehara, K. Toyota, R. Fukuda, 
 J. Hasegawa, M. Ishida, T. Nakajima, Y. Honda, O. Kitao, H. Nakai, 
 T. Vreven, K. Throssell, J. A. Montgomery, Jr., J. E. Peralta, 
 F. Ogliaro, M. J. Bearpark, J. J. Heyd, E. N. Brothers, K. N. Kudin, 
 V. N. Staroverov, T. A. Keith, R. Kobayashi, J. Normand, 
 K. Raghavachari, A. P. Rendell, J. C. Burant, S. S. Iyengar, 
 J. Tomasi, M. Cossi, J. M. Millam, M. Klene, C. Adamo, R. Cammi, 
 J. W. Ochterski, R. L. Martin, K. Morokuma, O. Farkas, 
 J. B. Foresman, and D. J. Fox, Gaussian, Inc., Wallingford CT, 2019.
 
 ******************************************
 Gaussian 16:  ES64L-G16RevC.01  3-Jul-2019
                 2-May-2024 
 ******************************************
 %chk=geometry.chk
 %mem=1GB
 %nprocshared=12
 Will use up to   12 processors via shared memory.
 ----------------------------------------
 #P wB97XD/6-311+G* NoSymm #P Field=X-262
 ----------------------------------------
 1/38=1,172=1/1;
 2/12=2,15=1,17=6,18=5,40=1/2;
 3/5=4,6=6,7=11,11=2,14=1,15=-262,25=1,30=1,74=-58/1,2,3;
 4//1;
 5/5=2,38=5/2;
 6/7=2,8=2,9=2,10=2,28=1/1;
 99/5=1,9=1/99;
 Leave Link    1 at Thu May  2 13:57:31 2024, MaxMem=   134217728 cpu:               2.1 elap:               2.1
 (Enter /software/gaussian/g16-c01/sse4/g16/l101.exe)
 -------
 TitleMe
 -------
 Symbolic Z-matrix:
 Charge =  1 Multiplicity = 1
 C                     0.5193    1.233    -0.0319 
 C                     1.9445    1.2692   -0.0367 
 C                     2.6204    0.0928   -0.025 
 C                    -0.196     0.0301    0.001 
 H                    -0.0207    2.1742   -0.0434 
 H                     2.4828    2.2089   -0.0361 
 H                    -1.2777    0.0399    0.0117 
 N                     4.0921    0.0959    0.0366 
 O                     4.6393   -1.0217    0.1446 
 O                     4.6649    1.1984   -0.0233 
 C                     0.4943   -1.1671    0.021 
 H                    -0.0325   -2.1149    0.0545 
 C                     1.9629   -1.2165   -0.0211 
 H                     2.4436   -1.9631    0.6151 
 Br                    2.173    -1.9491   -1.9062 
 
 ITRead=  0  0  0  0  0  0  0  0  0  0  0  0  0  0  0
 MicOpt= -1 -1 -1 -1 -1 -1 -1 -1 -1 -1 -1 -1 -1 -1 -1
 NAtoms=     15 NQM=       15 NQMF=       0 NMMI=      0 NMMIF=      0
                NMic=       0 NMicF=      0.
                    Isotopes and Nuclear Properties:
 (Nuclear quadrupole moments (NQMom) in fm**2, nuclear magnetic moments (NMagM)
  in nuclear magnetons)

  Atom         1           2           3           4           5           6           7           8           9          10
 IAtWgt=          12          12          12          12           1           1           1          14          16          16
 AtmWgt=  12.0000000  12.0000000  12.0000000  12.0000000   1.0078250   1.0078250   1.0078250  14.0030740  15.9949146  15.9949146
 NucSpn=           0           0           0           0           1           1           1           2           0           0
 AtZEff=  -0.0000000  -0.0000000  -0.0000000  -0.0000000  -0.0000000  -0.0000000  -0.0000000  -0.0000000  -0.0000000  -0.0000000
 NQMom=    0.0000000   0.0000000   0.0000000   0.0000000   0.0000000   0.0000000   0.0000000   2.0440000   0.0000000   0.0000000
 NMagM=    0.0000000   0.0000000   0.0000000   0.0000000   2.7928460   2.7928460   2.7928460   0.4037610   0.0000000   0.0000000
 AtZNuc=   6.0000000   6.0000000   6.0000000   6.0000000   1.0000000   1.0000000   1.0000000   7.0000000   8.0000000   8.0000000

  Atom        11          12          13          14          15
 IAtWgt=          12           1          12           1          79
 AtmWgt=  12.0000000   1.0078250  12.0000000   1.0078250  78.9183361
 NucSpn=           0           1           0           1           3
 AtZEff=  -0.0000000  -0.0000000  -0.0000000  -0.0000000  -0.0000000
 NQMom=    0.0000000   0.0000000   0.0000000   0.0000000  31.3000000
 NMagM=    0.0000000   2.7928460   0.0000000   2.7928460   2.1063990
 AtZNuc=   6.0000000   1.0000000   6.0000000   1.0000000  35.0000000
 Leave Link  101 at Thu May  2 13:57:33 2024, MaxMem=   134217728 cpu:               1.5 elap:               1.5
 (Enter /software/gaussian/g16-c01/sse4/g16/l202.exe)
                          Input orientation:                          
 ---------------------------------------------------------------------
 Center     Atomic      Atomic             Coordinates (Angstroms)
 Number     Number       Type             X           Y           Z
 ---------------------------------------------------------------------
      1          6           0        0.519300    1.233000   -0.031900
      2          6           0        1.944500    1.269200   -0.036700
      3          6           0        2.620400    0.092800   -0.025000
      4          6           0       -0.196000    0.030100    0.001000
      5          1           0       -0.020700    2.174200   -0.043400
      6          1           0        2.482800    2.208900   -0.036100
      7          1           0       -1.277700    0.039900    0.011700
      8          7           0        4.092100    0.095900    0.036600
      9          8           0        4.639300   -1.021700    0.144600
     10          8           0        4.664900    1.198400   -0.023300
     11          6           0        0.494300   -1.167100    0.021000
     12          1           0       -0.032500   -2.114900    0.054500
     13          6           0        1.962900   -1.216500   -0.021100
     14          1           0        2.443600   -1.963100    0.615100
     15         35           0        2.173000   -1.949100   -1.906200
 ---------------------------------------------------------------------
                    Distance matrix (angstroms):
                    1          2          3          4          5
     1  C    0.000000
     2  C    1.425668   0.000000
     3  C    2.390549   1.356796   0.000000
     4  C    1.399895   2.473566   2.817218   0.000000
     5  H    1.085168   2.163581   3.362733   2.151712   0.000000
     6  H    2.192654   1.082960   2.120598   3.453189   2.503751
     7  H    2.157452   3.449071   3.898632   1.081797   2.477564
     8  N    3.750012   2.448304   1.472992   4.288753   4.608780
     9  O    4.699917   3.541615   2.312322   4.950458   5.653735
    10  O    4.145753   2.721354   2.324292   4.999386   4.786171
    11  C    2.400813   2.835836   2.471794   1.382101   3.381369
    12  H    3.394169   3.920329   3.452266   2.151887   4.290233
    13  C    2.843264   2.485817   1.465124   2.493060   3.928360
    14  H    3.786370   3.334922   2.160489   3.364142   4.860416
    15  Br   4.046416   3.728900   2.812194   3.628609   5.028314
                    6          7          8          9         10
     6  H    0.000000
     7  H    4.341452   0.000000
     8  N    2.657047   5.370150   0.000000
     9  O    3.888434   6.012948   1.249048   0.000000
    10  O    2.404752   6.054572   1.243863   2.226587   0.000000
    11  C    3.918516   2.144043   3.813080   4.149391   4.794941
    12  H    5.003018   2.489080   4.679774   4.798846   5.748876
    13  C    3.464662   3.475788   2.501842   2.688591   3.623886
    14  H    4.222698   4.268978   2.700314   2.434893   3.916224
    15  Br   4.569706   4.420610   3.411663   3.338935   4.434144
                   11         12         13         14         15
    11  C    0.000000
    12  H    1.084880   0.000000
    13  C    1.470034   2.189625   0.000000
    14  H    2.187771   2.543302   1.092353   0.000000
    15  Br   2.672762   2.955683   2.033334   2.535818   0.000000
 Symmetry turned off by external request.
 Stoichiometry    C6H5BrNO2(1+)
 Framework group  C1[X(C6H5BrNO2)]
 Deg. of freedom    39
 Full point group                 C1      NOp   1
 Rotational constants (GHZ):           1.1632986           0.9594224           0.5957624
 Leave Link  202 at Thu May  2 13:57:34 2024, MaxMem=   134217728 cpu:               1.1 elap:               1.1
 (Enter /software/gaussian/g16-c01/sse4/g16/l301.exe)
 Standard basis: 6-311+G(d) (5D, 7F)
 Ernie: Thresh=  0.10000D-02 Tol=  0.10000D-05 Strict=F.
 The following finite field(s) will be applied:
 An electric field of             -0.0262  0.0000  0.0000
   261 basis functions,   443 primitive gaussians,   273 cartesian basis functions
    49 alpha electrons       49 beta electrons
       nuclear repulsion energy       772.8945969580 Hartrees.
 IExCor= 4639 DFT=T Ex+Corr=wB97XD ExCW=0 ScaHFX=  1.000000
 ScaDFX=  1.000000  1.000000  1.000000  1.000000 ScalE2=  1.000000  1.000000
 IRadAn=      5 IRanWt=     -1 IRanGd=            0 ICorTp=0 IEmpDi=121
 HFx  wShort=  0.000000 wLong=  0.200000 cFull=  0.222036 cShort=  0.000000 cLong=  0.777964
 DFx  wShort=  0.000000 wLong=  0.200000 cFull=  0.000000 cShort=  0.000000 cLong=  1.000000
 NAtoms=   15 NActive=   15 NUniq=   15 SFac= 1.00D+00 NAtFMM=   60 NAOKFM=F Big=F
 Integral buffers will be    131072 words long.
 Raffenetti 2 integral format.
 Two-electron integral symmetry is turned off.
 R6Disp:  Grimme-D2 Dispersion energy=       -0.0080346408 Hartrees.
 Nuclear repulsion after empirical dispersion term =      772.8865623173 Hartrees.
 Leave Link  301 at Thu May  2 13:57:35 2024, MaxMem=   134217728 cpu:               1.1 elap:               1.1
 (Enter /software/gaussian/g16-c01/sse4/g16/l302.exe)
 NPDir=0 NMtPBC=     1 NCelOv=     1 NCel=       1 NClECP=     1 NCelD=      1
         NCelK=      1 NCelE2=     1 NClLst=     1 CellRange=     0.0.
 One-electron integrals computed using PRISM.
 NBasis=   261 RedAO= T EigKep=  2.52D-06  NBF=   261
 NBsUse=   261 1.00D-06 EigRej= -1.00D+00 NBFU=   261
 Precomputing XC quadrature grid using
 IXCGrd= 4 IRadAn=           5 IRanWt=          -1 IRanGd=           0 AccXCQ= 0.00D+00.
 Generated NRdTot=       0 NPtTot=           0 NUsed=           0 NTot=          32
 NSgBfM=   273   273   273   273   273 MxSgAt=    15 MxSgA2=    15.
 Leave Link  302 at Thu May  2 13:57:57 2024, MaxMem=   134217728 cpu:              21.7 elap:              21.7
 (Enter /software/gaussian/g16-c01/sse4/g16/l303.exe)
 DipDrv:  MaxL=1.
 The nuclear repulsion energy is now       761.6574479160 hartrees.
 Leave Link  303 at Thu May  2 13:58:00 2024, MaxMem=   134217728 cpu:               3.2 elap:               3.2
 (Enter /software/gaussian/g16-c01/sse4/g16/l401.exe)
 ExpMin= 3.50D-02 ExpMax= 4.40D+05 ExpMxC= 1.51D+04 IAcc=3 IRadAn=         5 AccDes= 0.00D+00
 Harris functional with IExCor= 4639 and IRadAn=       5 diagonalized for initial guess.
 HarFok:  IExCor= 4639 AccDes= 0.00D+00 IRadAn=         5 IDoV= 1 UseB2=F ITyADJ=14
 ICtDFT=  3500011 ScaDFX=  1.000000  1.000000  1.000000  1.000000
 FoFCou: FMM=F IPFlag=           0 FMFlag=      100000 FMFlg1=           0
         NFxFlg=           0 DoJE=T BraDBF=F KetDBF=T FulRan=T
         wScrn=  0.000000 ICntrl=       500 IOpCl=  0 I1Cent=   200000004 NGrid=           0
         NMat0=    1 NMatS0=      1 NMatT0=    0 NMatD0=    1 NMtDS0=    0 NMtDT0=    0
 Symmetry not used in FoFCou.
 Harris En= -2971.50609352606    
 JPrj=0 DoOrth=F DoCkMO=F.
 Leave Link  401 at Thu May  2 13:58:32 2024, MaxMem=   134217728 cpu:              31.9 elap:              31.9
 (Enter /software/gaussian/g16-c01/sse4/g16/l502.exe)
 Two-electron integral symmetry not used.
 Closed shell SCF:
 Using DIIS extrapolation, IDIIS=  1040.
 NGot=   134217728 LenX=   134063053 LenY=   133988083
 Requested convergence on RMS density matrix=1.00D-08 within 128 cycles.
 Requested convergence on MAX density matrix=1.00D-06.
 Requested convergence on             energy=1.00D-06.
 No special actions if energy rises.
 Fock matrices will be formed incrementally for  20 cycles.

 Cycle   1  Pass 1  IDiag  1:
 FoFJK:  IHMeth= 1 ICntrl=       0 DoSepK=T KAlg= 0 I1Cent=           0 FoldK=F
 IRaf=         1 NMat=       1 IRICut=       1 DoRegI=T DoRafI=F ISym2E= 0 IDoP0=0 IntGTp=1.
 FoFCou: FMM=F IPFlag=           0 FMFlag=      100000 FMFlg1=           0
         NFxFlg=           0 DoJE=T BraDBF=F KetDBF=F FulRan=T
         wScrn=  0.000000 ICntrl=       500 IOpCl=  0 I1Cent=           0 NGrid=           0
         NMat0=    1 NMatS0=      1 NMatT0=    0 NMatD0=    1 NMtDS0=    0 NMtDT0=    0
 Symmetry not used in FoFCou.
 E= -3001.15420230831    
 DIIS: error= 2.91D-01 at cycle   1 NSaved=   1.
 NSaved= 1 IEnMin= 1 EnMin= -3001.15420230831     IErMin= 1 ErrMin= 2.91D-01
 ErrMax= 2.91D-01  0.00D+00 EMaxC= 1.00D-01 BMatC= 1.48D+01 BMatP= 1.48D+01
 IDIUse=3 WtCom= 0.00D+00 WtEn= 1.00D+00
 Coeff-Com:  0.100D+01
 Coeff-En:   0.100D+01
 Coeff:      0.100D+01
 Gap=     0.909 Goal=   None    Shift=    0.000
 GapD=    0.909 DampG=2.000 DampE=0.250 DampFc=0.5000 IDamp=-1.
 Damping current iteration by 5.00D-01
 RMSDP=1.92D+01 MaxDP=1.70D+03              OVMax= 9.96D-01

 Cycle   2  Pass 1  IDiag  1:
 RMSU=  6.41D-01    CP:  5.23D-01
 E= -2987.49952681293     Delta-E=       13.654675495386 Rises=F Damp=T
 DIIS: error= 1.49D-01 at cycle   2 NSaved=   2.
 NSaved= 2 IEnMin= 1 EnMin= -3001.15420230831     IErMin= 2 ErrMin= 1.49D-01
 ErrMax= 1.49D-01  0.00D+00 EMaxC= 1.00D-01 BMatC= 8.58D+00 BMatP= 1.48D+01
 IDIUse=3 WtCom= 0.00D+00 WtEn= 1.00D+00
 Coeff-Com:  0.339D+00 0.661D+00
 Coeff-En:   0.706D+00 0.294D+00
 Coeff:      0.706D+00 0.294D+00
 Gap=    -0.278 Goal=   None    Shift=    0.000
 RMSDP=1.04D+01 MaxDP=1.01D+03 DE= 1.37D+01 OVMax= 9.78D-01

 Cycle   3  Pass 1  IDiag  1:
 RMSU=  9.18D-02    CP:  4.59D-03  7.91D-02
 E= -2998.77996876574     Delta-E=      -11.280441952815 Rises=F Damp=F
 DIIS: error= 1.26D-01 at cycle   3 NSaved=   3.
 NSaved= 3 IEnMin= 1 EnMin= -3001.15420230831     IErMin= 3 ErrMin= 1.26D-01
 ErrMax= 1.26D-01  0.00D+00 EMaxC= 1.00D-01 BMatC= 9.08D+00 BMatP= 8.58D+00
 IDIUse=3 WtCom= 0.00D+00 WtEn= 1.00D+00
 Coeff-Com:  0.392D+00 0.664D-01 0.542D+00
 Coeff-En:   0.539D+00 0.000D+00 0.461D+00
 Coeff:      0.539D+00 0.000D+00 0.461D+00
 Gap=    -0.006 Goal=   None    Shift=    0.000
 RMSDP=3.93D-02 MaxDP=1.94D+00 DE=-1.13D+01 OVMax= 6.81D-01

 Cycle   4  Pass 1  IDiag  1:
 RMSU=  3.61D-02    CP:  5.04D-03  7.98D-02  8.64D-01
 E= -3010.23215820658     Delta-E=      -11.452189440839 Rises=F Damp=F
 DIIS: error= 3.10D-02 at cycle   4 NSaved=   4.
 NSaved= 4 IEnMin= 4 EnMin= -3010.23215820658     IErMin= 4 ErrMin= 3.10D-02
 ErrMax= 3.10D-02  0.00D+00 EMaxC= 1.00D-01 BMatC= 4.18D-01 BMatP= 8.58D+00
 IDIUse=3 WtCom= 6.90D-01 WtEn= 3.10D-01
 Coeff-Com:  0.794D-01 0.221D-01 0.197D-01 0.879D+00
 Coeff-En:   0.000D+00 0.000D+00 0.000D+00 0.100D+01
 Coeff:      0.548D-01 0.153D-01 0.136D-01 0.916D+00
 Gap=     0.294 Goal=   None    Shift=    0.000
 RMSDP=5.89D-02 MaxDP=5.77D+00 DE=-1.15D+01 OVMax= 2.92D-01

 Cycle   5  Pass 1  IDiag  1:
 RMSU=  3.87D-02    CP:  4.41D-03  9.38D-02  4.13D-01  8.62D-01
 E= -3010.39276313794     Delta-E=       -0.160604931357 Rises=F Damp=F
 DIIS: error= 2.52D-02 at cycle   5 NSaved=   5.
 NSaved= 5 IEnMin= 5 EnMin= -3010.39276313794     IErMin= 5 ErrMin= 2.52D-02
 ErrMax= 2.52D-02  0.00D+00 EMaxC= 1.00D-01 BMatC= 2.40D-01 BMatP= 4.18D-01
 IDIUse=3 WtCom= 7.48D-01 WtEn= 2.52D-01
 Coeff-Com:  0.173D-01 0.487D-02-0.538D-02 0.439D+00 0.544D+00
 Coeff-En:   0.000D+00 0.000D+00 0.000D+00 0.332D+00 0.668D+00
 Coeff:      0.129D-01 0.364D-02-0.402D-02 0.412D+00 0.576D+00
 Gap=     0.187 Goal=   None    Shift=    0.000
 RMSDP=1.62D-02 MaxDP=1.55D+00 DE=-1.61D-01 OVMax= 1.25D-01

 Cycle   6  Pass 1  IDiag  1:
 RMSU=  8.36D-03    CP:  4.03D-03  8.00D-02  4.03D-01  8.71D-01  8.09D-01
 E= -3010.58035493834     Delta-E=       -0.187591800407 Rises=F Damp=F
 DIIS: error= 1.83D-02 at cycle   6 NSaved=   6.
 NSaved= 6 IEnMin= 6 EnMin= -3010.58035493834     IErMin= 6 ErrMin= 1.83D-02
 ErrMax= 1.83D-02  0.00D+00 EMaxC= 1.00D-01 BMatC= 2.55D-02 BMatP= 2.40D-01
 IDIUse=3 WtCom= 8.17D-01 WtEn= 1.83D-01
 Coeff-Com:  0.416D-02 0.164D-02-0.315D-02 0.199D+00 0.311D+00 0.487D+00
 Coeff-En:   0.000D+00 0.000D+00 0.000D+00 0.000D+00 0.000D+00 0.100D+01
 Coeff:      0.340D-02 0.134D-02-0.258D-02 0.163D+00 0.254D+00 0.581D+00
 Gap=     0.183 Goal=   None    Shift=    0.000
 RMSDP=5.85D-03 MaxDP=6.55D-01 DE=-1.88D-01 OVMax= 1.10D-01

 Cycle   7  Pass 1  IDiag  1:
 RMSU=  3.20D-03    CP:  4.18D-03  8.43D-02  3.93D-01  8.99D-01  8.49D-01
                    CP:  7.90D-01
 E= -3010.58758269110     Delta-E=       -0.007227752755 Rises=F Damp=F
 DIIS: error= 1.66D-02 at cycle   7 NSaved=   7.
 NSaved= 7 IEnMin= 7 EnMin= -3010.58758269110     IErMin= 7 ErrMin= 1.66D-02
 ErrMax= 1.66D-02  0.00D+00 EMaxC= 1.00D-01 BMatC= 1.60D-02 BMatP= 2.55D-02
 IDIUse=3 WtCom= 8.34D-01 WtEn= 1.66D-01
 Coeff-Com: -0.114D-02-0.253D-06-0.112D-03 0.290D-01 0.643D-01 0.439D+00
 Coeff-Com:  0.469D+00
 Coeff-En:   0.000D+00 0.000D+00 0.000D+00 0.000D+00 0.000D+00 0.403D+00
 Coeff-En:   0.597D+00
 Coeff:     -0.950D-03-0.211D-06-0.938D-04 0.242D-01 0.536D-01 0.433D+00
 Coeff:      0.490D+00
 Gap=     0.174 Goal=   None    Shift=    0.000
 RMSDP=4.40D-03 MaxDP=5.79D-01 DE=-7.23D-03 OVMax= 4.68D-02

 Cycle   8  Pass 1  IDiag  1:
 RMSU=  1.72D-03    CP:  4.04D-03  8.13D-02  3.81D-01  8.75D-01  8.66D-01
                    CP:  9.33D-01  5.63D-01
 E= -3010.59878502394     Delta-E=       -0.011202332841 Rises=F Damp=F
 DIIS: error= 2.36D-03 at cycle   8 NSaved=   8.
 NSaved= 8 IEnMin= 8 EnMin= -3010.59878502394     IErMin= 8 ErrMin= 2.36D-03
 ErrMax= 2.36D-03  0.00D+00 EMaxC= 1.00D-01 BMatC= 7.52D-04 BMatP= 1.60D-02
 IDIUse=3 WtCom= 9.76D-01 WtEn= 2.36D-02
 Coeff-Com: -0.674D-03 0.732D-03 0.875D-03-0.886D-02-0.111D-01 0.166D+00
 Coeff-Com:  0.269D+00 0.584D+00
 Coeff-En:   0.000D+00 0.000D+00 0.000D+00 0.000D+00 0.000D+00 0.000D+00
 Coeff-En:   0.000D+00 0.100D+01
 Coeff:     -0.658D-03 0.715D-03 0.854D-03-0.865D-02-0.108D-01 0.162D+00
 Coeff:      0.263D+00 0.594D+00
 Gap=     0.173 Goal=   None    Shift=    0.000
 RMSDP=7.32D-04 MaxDP=7.08D-02 DE=-1.12D-02 OVMax= 8.71D-03

 Cycle   9  Pass 1  IDiag  1:
 RMSU=  4.02D-04    CP:  4.03D-03  8.09D-02  3.82D-01  8.71D-01  8.55D-01
                    CP:  9.39D-01  6.38D-01  9.91D-01
 E= -3010.59942972230     Delta-E=       -0.000644698356 Rises=F Damp=F
 DIIS: error= 6.06D-04 at cycle   9 NSaved=   9.
 NSaved= 9 IEnMin= 9 EnMin= -3010.59942972230     IErMin= 9 ErrMin= 6.06D-04
 ErrMax= 6.06D-04  0.00D+00 EMaxC= 1.00D-01 BMatC= 7.86D-05 BMatP= 7.52D-04
 IDIUse=3 WtCom= 9.94D-01 WtEn= 6.06D-03
 Coeff-Com: -0.618D-03 0.125D-02 0.399D-04-0.505D-02-0.896D-02 0.247D-01
 Coeff-Com:  0.489D-01 0.217D+00 0.723D+00
 Coeff-En:   0.000D+00 0.000D+00 0.000D+00 0.000D+00 0.000D+00 0.000D+00
 Coeff-En:   0.000D+00 0.000D+00 0.100D+01
 Coeff:     -0.614D-03 0.125D-02 0.396D-04-0.502D-02-0.890D-02 0.246D-01
 Coeff:      0.486D-01 0.216D+00 0.724D+00
 Gap=     0.174 Goal=   None    Shift=    0.000
 RMSDP=5.12D-04 MaxDP=5.80D-02 DE=-6.45D-04 OVMax= 5.58D-03

 Cycle  10  Pass 1  IDiag  1:
 RMSU=  1.71D-04    CP:  4.02D-03  8.06D-02  3.82D-01  8.71D-01  8.55D-01
                    CP:  9.40D-01  6.39D-01  1.18D+00  1.15D+00
 E= -3010.59955834188     Delta-E=       -0.000128619584 Rises=F Damp=F
 DIIS: error= 2.49D-04 at cycle  10 NSaved=  10.
 NSaved=10 IEnMin=10 EnMin= -3010.59955834188     IErMin=10 ErrMin= 2.49D-04
 ErrMax= 2.49D-04  0.00D+00 EMaxC= 1.00D-01 BMatC= 1.95D-05 BMatP= 7.86D-05
 IDIUse=3 WtCom= 9.98D-01 WtEn= 2.49D-03
 Coeff-Com: -0.207D-03 0.267D-03 0.449D-03 0.233D-02 0.376D-02-0.224D-01
 Coeff-Com: -0.511D-01-0.147D+00 0.372D-01 0.118D+01
 Coeff-En:   0.000D+00 0.000D+00 0.000D+00 0.000D+00 0.000D+00 0.000D+00
 Coeff-En:   0.000D+00 0.000D+00 0.000D+00 0.100D+01
 Coeff:     -0.207D-03 0.266D-03 0.448D-03 0.233D-02 0.375D-02-0.223D-01
 Coeff:     -0.510D-01-0.146D+00 0.371D-01 0.118D+01
 Gap=     0.176 Goal=   None    Shift=    0.000
 RMSDP=6.88D-04 MaxDP=7.51D-02 DE=-1.29D-04 OVMax= 6.98D-03

 Cycle  11  Pass 1  IDiag  1:
 RMSU=  1.14D-04    CP:  4.00D-03  8.00D-02  3.84D-01  8.70D-01  8.49D-01
                    CP:  9.37D-01  6.25D-01  1.32D+00  1.55D+00  1.86D+00
 E= -3010.59962835799     Delta-E=       -0.000070016109 Rises=F Damp=F
 DIIS: error= 1.36D-04 at cycle  11 NSaved=  11.
 NSaved=11 IEnMin=11 EnMin= -3010.59962835799     IErMin=11 ErrMin= 1.36D-04
 ErrMax= 1.36D-04  0.00D+00 EMaxC= 1.00D-01 BMatC= 4.66D-06 BMatP= 1.95D-05
 IDIUse=3 WtCom= 9.99D-01 WtEn= 1.36D-03
 Coeff-Com: -0.983D-04 0.804D-04 0.183D-03 0.151D-02 0.310D-02-0.443D-02
 Coeff-Com: -0.138D-01-0.780D-01-0.162D+00 0.305D+00 0.949D+00
 Coeff-En:   0.000D+00 0.000D+00 0.000D+00 0.000D+00 0.000D+00 0.000D+00
 Coeff-En:   0.000D+00 0.000D+00 0.000D+00 0.000D+00 0.100D+01
 Coeff:     -0.982D-04 0.803D-04 0.183D-03 0.151D-02 0.309D-02-0.443D-02
 Coeff:     -0.138D-01-0.779D-01-0.162D+00 0.304D+00 0.949D+00
 Gap=     0.176 Goal=   None    Shift=    0.000
 RMSDP=2.40D-04 MaxDP=1.81D-02 DE=-7.00D-05 OVMax= 3.48D-03

 Cycle  12  Pass 1  IDiag  1:
 RMSU=  7.47D-05    CP:  4.00D-03  7.99D-02  3.85D-01  8.70D-01  8.47D-01
                    CP:  9.31D-01  6.25D-01  1.38D+00  1.66D+00  2.27D+00
                    CP:  1.34D+00
 E= -3010.59964537802     Delta-E=       -0.000017020030 Rises=F Damp=F
 DIIS: error= 6.19D-05 at cycle  12 NSaved=  12.
 NSaved=12 IEnMin=12 EnMin= -3010.59964537802     IErMin=12 ErrMin= 6.19D-05
 ErrMax= 6.19D-05  0.00D+00 EMaxC= 1.00D-01 BMatC= 1.02D-06 BMatP= 4.66D-06
 IDIUse=1 WtCom= 1.00D+00 WtEn= 0.00D+00
 Coeff-Com:  0.140D-04 0.339D-05 0.615D-04 0.247D-03 0.887D-03 0.385D-02
 Coeff-Com:  0.568D-02-0.961D-02-0.858D-01-0.975D-01 0.363D+00 0.819D+00
 Coeff:      0.140D-04 0.339D-05 0.615D-04 0.247D-03 0.887D-03 0.385D-02
 Coeff:      0.568D-02-0.961D-02-0.858D-01-0.975D-01 0.363D+00 0.819D+00
 Gap=     0.176 Goal=   None    Shift=    0.000
 RMSDP=1.57D-04 MaxDP=1.61D-02 DE=-1.70D-05 OVMax= 2.22D-03

 Cycle  13  Pass 1  IDiag  1:
 RMSU=  2.67D-05    CP:  3.99D-03  7.98D-02  3.85D-01  8.70D-01  8.46D-01
                    CP:  9.28D-01  6.20D-01  1.40D+00  1.70D+00  2.48D+00
                    CP:  1.79D+00  1.45D+00
 E= -3010.59965060759     Delta-E=       -0.000005229573 Rises=F Damp=F
 DIIS: error= 3.50D-05 at cycle  13 NSaved=  13.
 NSaved=13 IEnMin=13 EnMin= -3010.59965060759     IErMin=13 ErrMin= 3.50D-05
 ErrMax= 3.50D-05  0.00D+00 EMaxC= 1.00D-01 BMatC= 2.24D-07 BMatP= 1.02D-06
 IDIUse=1 WtCom= 1.00D+00 WtEn= 0.00D+00
 Coeff-Com:  0.524D-05-0.302D-05-0.405D-04-0.288D-03-0.286D-03 0.224D-02
 Coeff-Com:  0.495D-02 0.101D-01 0.637D-02-0.648D-01-0.898D-01 0.246D+00
 Coeff-Com:  0.885D+00
 Coeff:      0.524D-05-0.302D-05-0.405D-04-0.288D-03-0.286D-03 0.224D-02
 Coeff:      0.495D-02 0.101D-01 0.637D-02-0.648D-01-0.898D-01 0.246D+00
 Coeff:      0.885D+00
 Gap=     0.176 Goal=   None    Shift=    0.000
 RMSDP=6.83D-05 MaxDP=5.61D-03 DE=-5.23D-06 OVMax= 1.57D-03

 Cycle  14  Pass 1  IDiag  1:
 RMSU=  1.88D-05    CP:  3.99D-03  7.98D-02  3.86D-01  8.70D-01  8.45D-01
                    CP:  9.28D-01  6.19D-01  1.41D+00  1.68D+00  2.51D+00
                    CP:  2.07D+00  1.88D+00  1.65D+00
 E= -3010.59965268779     Delta-E=       -0.000002080197 Rises=F Damp=F
 DIIS: error= 2.31D-05 at cycle  14 NSaved=  14.
 NSaved=14 IEnMin=14 EnMin= -3010.59965268779     IErMin=14 ErrMin= 2.31D-05
 ErrMax= 2.31D-05  0.00D+00 EMaxC= 1.00D-01 BMatC= 1.08D-07 BMatP= 2.24D-07
 IDIUse=1 WtCom= 1.00D+00 WtEn= 0.00D+00
 Coeff-Com:  0.782D-05-0.132D-04-0.332D-04-0.168D-03-0.469D-03-0.792D-03
 Coeff-Com:  0.495D-03 0.748D-02 0.229D-01 0.345D-02-0.109D+00-0.463D-01
 Coeff-Com:  0.176D+00 0.946D+00
 Coeff:      0.782D-05-0.132D-04-0.332D-04-0.168D-03-0.469D-03-0.792D-03
 Coeff:      0.495D-03 0.748D-02 0.229D-01 0.345D-02-0.109D+00-0.463D-01
 Coeff:      0.176D+00 0.946D+00
 Gap=     0.176 Goal=   None    Shift=    0.000
 RMSDP=4.11D-05 MaxDP=2.48D-03 DE=-2.08D-06 OVMax= 1.25D-03

 Cycle  15  Pass 1  IDiag  1:
 RMSU=  7.39D-06    CP:  3.99D-03  7.98D-02  3.86D-01  8.70D-01  8.46D-01
                    CP:  9.27D-01  6.17D-01  1.41D+00  1.67D+00  2.51D+00
                    CP:  2.26D+00  2.15D+00  2.20D+00  1.68D+00
 E= -3010.59965386497     Delta-E=       -0.000001177184 Rises=F Damp=F
 DIIS: error= 1.73D-05 at cycle  15 NSaved=  15.
 NSaved=15 IEnMin=15 EnMin= -3010.59965386497     IErMin=15 ErrMin= 1.73D-05
 ErrMax= 1.73D-05  0.00D+00 EMaxC= 1.00D-01 BMatC= 6.11D-08 BMatP= 1.08D-07
 IDIUse=1 WtCom= 1.00D+00 WtEn= 0.00D+00
 Coeff-Com:  0.891D-05-0.110D-04-0.119D-04 0.567D-04-0.184D-03-0.208D-02
 Coeff-Com: -0.257D-02-0.284D-02-0.122D-02 0.364D-01 0.190D-01-0.771D-01
 Coeff-Com: -0.555D+00 0.139D+00 0.145D+01
 Coeff:      0.891D-05-0.110D-04-0.119D-04 0.567D-04-0.184D-03-0.208D-02
 Coeff:     -0.257D-02-0.284D-02-0.122D-02 0.364D-01 0.190D-01-0.771D-01
 Coeff:     -0.555D+00 0.139D+00 0.145D+01
 Gap=     0.176 Goal=   None    Shift=    0.000
 RMSDP=6.28D-05 MaxDP=5.19D-03 DE=-1.18D-06 OVMax= 1.93D-03

 Cycle  16  Pass 1  IDiag  1:
 RMSU=  4.85D-06    CP:  3.99D-03  7.98D-02  3.86D-01  8.70D-01  8.46D-01
                    CP:  9.27D-01  6.14D-01  1.42D+00  1.66D+00  2.52D+00
                    CP:  2.54D+00  2.55D+00  2.90D+00  2.79D+00  2.39D+00
 E= -3010.59965506956     Delta-E=       -0.000001204591 Rises=F Damp=F
 DIIS: error= 8.72D-06 at cycle  16 NSaved=  16.
 NSaved=16 IEnMin=16 EnMin= -3010.59965506956     IErMin=16 ErrMin= 8.72D-06
 ErrMax= 8.72D-06  0.00D+00 EMaxC= 1.00D-01 BMatC= 1.62D-08 BMatP= 6.11D-08
 IDIUse=1 WtCom= 1.00D+00 WtEn= 0.00D+00
 Coeff-Com: -0.314D-06 0.102D-05-0.111D-05 0.176D-04 0.707D-04 0.342D-03
 Coeff-Com:  0.590D-04-0.289D-02-0.123D-01-0.698D-02 0.433D-01 0.500D-01
 Coeff-Com: -0.111D+00-0.467D+00 0.820D-01 0.142D+01
 Coeff:     -0.314D-06 0.102D-05-0.111D-05 0.176D-04 0.707D-04 0.342D-03
 Coeff:      0.590D-04-0.289D-02-0.123D-01-0.698D-02 0.433D-01 0.500D-01
 Coeff:     -0.111D+00-0.467D+00 0.820D-01 0.142D+01
 Gap=     0.176 Goal=   None    Shift=    0.000
 RMSDP=4.80D-05 MaxDP=3.62D-03 DE=-1.20D-06 OVMax= 1.62D-03

 Cycle  17  Pass 1  IDiag  1:
 RMSU=  1.67D-05    CP:  3.99D-03  7.98D-02  3.86D-01  8.70D-01  8.46D-01
                    CP:  9.27D-01  6.12D-01  1.43D+00  1.66D+00  2.54D+00
                    CP:  2.76D+00  2.83D+00  3.00D+00  3.00D+00  3.00D+00
                    CP:  2.14D+00
 E= -3010.59965554820     Delta-E=       -0.000000478641 Rises=F Damp=F
 DIIS: error= 4.76D-06 at cycle  17 NSaved=  17.
 NSaved=17 IEnMin=17 EnMin= -3010.59965554820     IErMin=17 ErrMin= 4.76D-06
 ErrMax= 4.76D-06  0.00D+00 EMaxC= 1.00D-01 BMatC= 3.74D-09 BMatP= 1.62D-08
 IDIUse=1 WtCom= 1.00D+00 WtEn= 0.00D+00
 Coeff-Com: -0.196D-05 0.174D-05 0.352D-05-0.355D-05 0.499D-04 0.457D-03
 Coeff-Com:  0.402D-03-0.206D-03-0.303D-02-0.830D-02 0.764D-02 0.255D-01
 Coeff-Com:  0.590D-01-0.122D+00-0.215D+00 0.358D+00 0.897D+00
 Coeff:     -0.196D-05 0.174D-05 0.352D-05-0.355D-05 0.499D-04 0.457D-03
 Coeff:      0.402D-03-0.206D-03-0.303D-02-0.830D-02 0.764D-02 0.255D-01
 Coeff:      0.590D-01-0.122D+00-0.215D+00 0.358D+00 0.897D+00
 Gap=     0.176 Goal=   None    Shift=    0.000
 RMSDP=1.08D-05 MaxDP=9.27D-04 DE=-4.79D-07 OVMax= 3.71D-04

 Cycle  18  Pass 1  IDiag  1:
 RMSU=  2.73D-06    CP:  3.99D-03  7.98D-02  3.86D-01  8.70D-01  8.46D-01
                    CP:  9.27D-01  6.11D-01  1.44D+00  1.66D+00  2.55D+00
                    CP:  2.80D+00  2.88D+00  3.00D+00  3.00D+00  3.00D+00
                    CP:  2.66D+00  1.23D+00
 E= -3010.59965560373     Delta-E=       -0.000000055523 Rises=F Damp=F
 DIIS: error= 3.98D-06 at cycle  18 NSaved=  18.
 NSaved=18 IEnMin=18 EnMin= -3010.59965560373     IErMin=18 ErrMin= 3.98D-06
 ErrMax= 3.98D-06  0.00D+00 EMaxC= 1.00D-01 BMatC= 1.55D-09 BMatP= 3.74D-09
 IDIUse=1 WtCom= 1.00D+00 WtEn= 0.00D+00
 Coeff-Com: -0.820D-08-0.137D-06 0.268D-05 0.460D-06 0.113D-04-0.364D-04
 Coeff-Com: -0.154D-03 0.667D-03 0.402D-02 0.346D-02-0.156D-01-0.201D-01
 Coeff-Com:  0.437D-01 0.146D+00-0.671D-01-0.415D+00 0.392D-01 0.128D+01
 Coeff:     -0.820D-08-0.137D-06 0.268D-05 0.460D-06 0.113D-04-0.364D-04
 Coeff:     -0.154D-03 0.667D-03 0.402D-02 0.346D-02-0.156D-01-0.201D-01
 Coeff:      0.437D-01 0.146D+00-0.671D-01-0.415D+00 0.392D-01 0.128D+01
 Gap=     0.176 Goal=   None    Shift=    0.000
 RMSDP=9.21D-06 MaxDP=9.30D-04 DE=-5.55D-08 OVMax= 3.11D-04

 Cycle  19  Pass 1  IDiag  1:
 RMSU=  1.54D-06    CP:  3.99D-03  7.97D-02  3.86D-01  8.70D-01  8.46D-01
                    CP:  9.27D-01  6.10D-01  1.44D+00  1.66D+00  2.55D+00
                    CP:  2.82D+00  2.92D+00  3.00D+00  3.00D+00  3.00D+00
                    CP:  3.00D+00  1.39D+00  2.04D+00
 E= -3010.59965563482     Delta-E=       -0.000000031094 Rises=F Damp=F
 DIIS: error= 2.20D-06 at cycle  19 NSaved=  19.
 NSaved=19 IEnMin=19 EnMin= -3010.59965563482     IErMin=19 ErrMin= 2.20D-06
 ErrMax= 2.20D-06  0.00D+00 EMaxC= 1.00D-01 BMatC= 5.87D-10 BMatP= 1.55D-09
 IDIUse=1 WtCom= 1.00D+00 WtEn= 0.00D+00
 Coeff-Com: -0.298D-06 0.248D-06-0.163D-06 0.707D-05 0.758D-06-0.161D-03
 Coeff-Com: -0.254D-03 0.245D-03 0.208D-02 0.470D-02-0.368D-02-0.112D-01
 Coeff-Com: -0.126D-01 0.738D-01 0.531D-01-0.243D+00-0.378D+00 0.424D+00
 Coeff-Com:  0.109D+01
 Coeff:     -0.298D-06 0.248D-06-0.163D-06 0.707D-05 0.758D-06-0.161D-03
 Coeff:     -0.254D-03 0.245D-03 0.208D-02 0.470D-02-0.368D-02-0.112D-01
 Coeff:     -0.126D-01 0.738D-01 0.531D-01-0.243D+00-0.378D+00 0.424D+00
 Coeff:      0.109D+01
 Gap=     0.176 Goal=   None    Shift=    0.000
 RMSDP=6.52D-06 MaxDP=4.85D-04 DE=-3.11D-08 OVMax= 2.03D-04

 Cycle  20  Pass 1  IDiag  1:
 RMSU=  1.02D-06    CP:  3.99D-03  7.97D-02  3.86D-01  8.70D-01  8.46D-01
                    CP:  9.27D-01  6.10D-01  1.44D+00  1.66D+00  2.55D+00
                    CP:  2.83D+00  2.94D+00  3.00D+00  3.00D+00  3.00D+00
                    CP:  3.00D+00  1.50D+00  2.86D+00  2.29D+00
 E= -3010.59965564477     Delta-E=       -0.000000009947 Rises=F Damp=F
 DIIS: error= 9.48D-07 at cycle  20 NSaved=  20.
 NSaved=20 IEnMin=20 EnMin= -3010.59965564477     IErMin=20 ErrMin= 9.48D-07
 ErrMax= 9.48D-07  0.00D+00 EMaxC= 1.00D-01 BMatC= 8.88D-11 BMatP= 5.87D-10
 IDIUse=1 WtCom= 1.00D+00 WtEn= 0.00D+00
 Coeff-Com: -0.581D-08-0.215D-07-0.695D-06-0.144D-05-0.213D-05 0.531D-05
 Coeff-Com: -0.107D-04-0.890D-05-0.439D-03-0.947D-04 0.220D-02 0.330D-02
 Coeff-Com: -0.696D-03-0.221D-01-0.179D-02 0.468D-01-0.398D-01-0.155D+00
 Coeff-Com:  0.153D+00 0.102D+01
 Coeff:     -0.581D-08-0.215D-07-0.695D-06-0.144D-05-0.213D-05 0.531D-05
 Coeff:     -0.107D-04-0.890D-05-0.439D-03-0.947D-04 0.220D-02 0.330D-02
 Coeff:     -0.696D-03-0.221D-01-0.179D-02 0.468D-01-0.398D-01-0.155D+00
 Coeff:      0.153D+00 0.102D+01
 Gap=     0.176 Goal=   None    Shift=    0.000
 RMSDP=2.33D-06 MaxDP=1.66D-04 DE=-9.95D-09 OVMax= 6.05D-05

 Cycle  21  Pass 1  IDiag  1:
 Restarting incremental Fock formation.
 E= -3010.59965564586     Delta-E=       -0.000000001091 Rises=F Damp=F
 DIIS: error= 3.87D-07 at cycle  21 NSaved=  20.
 NSaved=20 IEnMin=20 EnMin= -3010.59965564586     IErMin=20 ErrMin= 3.87D-07
 ErrMax= 3.87D-07  0.00D+00 EMaxC= 1.00D-01 BMatC= 2.31D-11 BMatP= 8.88D-11
 IDIUse=1 WtCom= 1.00D+00 WtEn= 0.00D+00
 Coeff-Com:  0.376D-07-0.113D-06-0.156D-05-0.232D-05 0.222D-04 0.233D-04
 Coeff-Com:  0.193D-04-0.287D-03-0.512D-03 0.832D-03 0.187D-02 0.312D-02
 Coeff-Com: -0.137D-01-0.900D-02 0.369D-01 0.478D-01-0.627D-01-0.135D+00
 Coeff-Com:  0.634D-01 0.107D+01
 Coeff:      0.376D-07-0.113D-06-0.156D-05-0.232D-05 0.222D-04 0.233D-04
 Coeff:      0.193D-04-0.287D-03-0.512D-03 0.832D-03 0.187D-02 0.312D-02
 Coeff:     -0.137D-01-0.900D-02 0.369D-01 0.478D-01-0.627D-01-0.135D+00
 Coeff:      0.634D-01 0.107D+01
 Gap=     0.176 Goal=   None    Shift=    0.000
 RMSDP=9.03D-07 MaxDP=7.15D-05 DE=-1.09D-09 OVMax= 1.95D-05

 Cycle  22  Pass 1  IDiag  1:
 RMSU=  8.23D-07    CP:  1.00D+00
 E= -3010.59965564608     Delta-E=       -0.000000000224 Rises=F Damp=F
 DIIS: error= 2.86D-07 at cycle  22 NSaved=  20.
 NSaved=20 IEnMin=20 EnMin= -3010.59965564608     IErMin=20 ErrMin= 2.86D-07
 ErrMax= 2.86D-07  0.00D+00 EMaxC= 1.00D-01 BMatC= 1.16D-11 BMatP= 2.31D-11
 IDIUse=1 WtCom= 1.00D+00 WtEn= 0.00D+00
 Coeff-Com:  0.119D-07-0.253D-06-0.157D-05 0.149D-05 0.536D-06 0.681D-04
 Coeff-Com:  0.124D-03-0.174D-03-0.108D-02-0.106D-02 0.174D-02 0.840D-02
 Coeff-Com: -0.272D-03-0.190D-01 0.150D-01 0.538D-01-0.675D-01-0.348D+00
 Coeff-Com:  0.342D+00 0.102D+01
 Coeff:      0.119D-07-0.253D-06-0.157D-05 0.149D-05 0.536D-06 0.681D-04
 Coeff:      0.124D-03-0.174D-03-0.108D-02-0.106D-02 0.174D-02 0.840D-02
 Coeff:     -0.272D-03-0.190D-01 0.150D-01 0.538D-01-0.675D-01-0.348D+00
 Coeff:      0.342D+00 0.102D+01
 Gap=     0.176 Goal=   None    Shift=    0.000
 RMSDP=7.09D-07 MaxDP=4.56D-05 DE=-2.24D-10 OVMax= 1.51D-05

 Cycle  23  Pass 1  IDiag  1:
 RMSU=  3.36D-07    CP:  1.00D+00  1.74D+00
 E= -3010.59965564626     Delta-E=       -0.000000000176 Rises=F Damp=F
 DIIS: error= 1.62D-07 at cycle  23 NSaved=  20.
 NSaved=20 IEnMin=20 EnMin= -3010.59965564626     IErMin=20 ErrMin= 1.62D-07
 ErrMax= 1.62D-07  0.00D+00 EMaxC= 1.00D-01 BMatC= 3.58D-12 BMatP= 1.16D-11
 IDIUse=1 WtCom= 1.00D+00 WtEn= 0.00D+00
 Coeff-Com:  0.589D-06 0.429D-06-0.506D-05-0.149D-04 0.237D-05 0.115D-03
 Coeff-Com:  0.180D-03-0.564D-03-0.103D-02-0.155D-02 0.630D-02 0.449D-02
 Coeff-Com: -0.128D-01-0.137D-01 0.254D-01 0.320D-01-0.110D+00-0.316D+00
 Coeff-Com:  0.191D+00 0.120D+01
 Coeff:      0.589D-06 0.429D-06-0.506D-05-0.149D-04 0.237D-05 0.115D-03
 Coeff:      0.180D-03-0.564D-03-0.103D-02-0.155D-02 0.630D-02 0.449D-02
 Coeff:     -0.128D-01-0.137D-01 0.254D-01 0.320D-01-0.110D+00-0.316D+00
 Coeff:      0.191D+00 0.120D+01
 Gap=     0.176 Goal=   None    Shift=    0.000
 RMSDP=4.80D-07 MaxDP=3.62D-05 DE=-1.76D-10 OVMax= 1.20D-05

 Cycle  24  Pass 1  IDiag  1:
 RMSU=  1.34D-07    CP:  1.00D+00  2.20D+00  1.62D+00
 E= -3010.59965564626     Delta-E=        0.000000000000 Rises=F Damp=F
 DIIS: error= 6.97D-08 at cycle  24 NSaved=  20.
 NSaved=20 IEnMin=19 EnMin= -3010.59965564626     IErMin=20 ErrMin= 6.97D-08
 ErrMax= 6.97D-08  0.00D+00 EMaxC= 1.00D-01 BMatC= 6.31D-13 BMatP= 3.58D-12
 IDIUse=1 WtCom= 1.00D+00 WtEn= 0.00D+00
 Coeff-Com:  0.234D-06 0.316D-05 0.279D-05-0.201D-04-0.607D-04-0.747D-04
 Coeff-Com:  0.460D-03 0.744D-03-0.630D-03-0.452D-02-0.645D-03 0.112D-01
 Coeff-Com: -0.942D-03-0.257D-01 0.870D-02 0.129D+00-0.256D-01-0.365D+00
 Coeff-Com: -0.245D+00 0.152D+01
 Coeff:      0.234D-06 0.316D-05 0.279D-05-0.201D-04-0.607D-04-0.747D-04
 Coeff:      0.460D-03 0.744D-03-0.630D-03-0.452D-02-0.645D-03 0.112D-01
 Coeff:     -0.942D-03-0.257D-01 0.870D-02 0.129D+00-0.256D-01-0.365D+00
 Coeff:     -0.245D+00 0.152D+01
 Gap=     0.176 Goal=   None    Shift=    0.000
 RMSDP=2.53D-07 MaxDP=2.20D-05 DE= 0.00D+00 OVMax= 7.17D-06

 Cycle  25  Pass 1  IDiag  1:
 RMSU=  7.14D-08    CP:  1.00D+00  2.36D+00  2.01D+00  1.84D+00
 E= -3010.59965564629     Delta-E=       -0.000000000029 Rises=F Damp=F
 DIIS: error= 2.06D-08 at cycle  25 NSaved=  20.
 NSaved=20 IEnMin=20 EnMin= -3010.59965564629     IErMin=20 ErrMin= 2.06D-08
 ErrMax= 2.06D-08  0.00D+00 EMaxC= 1.00D-01 BMatC= 4.91D-14 BMatP= 6.31D-13
 IDIUse=1 WtCom= 1.00D+00 WtEn= 0.00D+00
 Coeff-Com:  0.183D-06 0.869D-06-0.286D-06-0.762D-05-0.478D-05 0.279D-05
 Coeff-Com:  0.445D-04 0.156D-03-0.228D-03-0.342D-03 0.442D-03 0.223D-02
 Coeff-Com: -0.125D-03-0.662D-02-0.580D-02 0.490D-01 0.327D-01-0.160D+00
 Coeff-Com: -0.164D+00 0.125D+01
 Coeff:      0.183D-06 0.869D-06-0.286D-06-0.762D-05-0.478D-05 0.279D-05
 Coeff:      0.445D-04 0.156D-03-0.228D-03-0.342D-03 0.442D-03 0.223D-02
 Coeff:     -0.125D-03-0.662D-02-0.580D-02 0.490D-01 0.327D-01-0.160D+00
 Coeff:     -0.164D+00 0.125D+01
 Gap=     0.176 Goal=   None    Shift=    0.000
 RMSDP=6.93D-08 MaxDP=6.47D-06 DE=-2.91D-11 OVMax= 1.56D-06

 Cycle  26  Pass 1  IDiag  1:
 RMSU=  1.28D-08    CP:  1.00D+00  2.37D+00  2.07D+00  2.18D+00  1.41D+00
 E= -3010.59965564629     Delta-E=       -0.000000000003 Rises=F Damp=F
 DIIS: error= 5.88D-09 at cycle  26 NSaved=  20.
 NSaved=20 IEnMin=20 EnMin= -3010.59965564629     IErMin=20 ErrMin= 5.88D-09
 ErrMax= 5.88D-09  0.00D+00 EMaxC= 1.00D-01 BMatC= 6.84D-15 BMatP= 4.91D-14
 IDIUse=1 WtCom= 1.00D+00 WtEn= 0.00D+00
 Coeff-Com:  0.158D-06 0.157D-05 0.181D-05-0.439D-07-0.340D-04-0.252D-04
 Coeff-Com:  0.108D-03 0.244D-03-0.620D-04-0.721D-03 0.553D-03 0.204D-02
 Coeff-Com: -0.179D-02-0.125D-01 0.110D-01 0.364D-01 0.411D-02-0.165D+00
 Coeff-Com:  0.119D+00 0.101D+01
 Coeff:      0.158D-06 0.157D-05 0.181D-05-0.439D-07-0.340D-04-0.252D-04
 Coeff:      0.108D-03 0.244D-03-0.620D-04-0.721D-03 0.553D-03 0.204D-02
 Coeff:     -0.179D-02-0.125D-01 0.110D-01 0.364D-01 0.411D-02-0.165D+00
 Coeff:      0.119D+00 0.101D+01
 Gap=     0.176 Goal=   None    Shift=    0.000
 RMSDP=1.33D-08 MaxDP=1.27D-06 DE=-2.73D-12 OVMax= 3.13D-07

 Cycle  27  Pass 1  IDiag  1:
 RMSU=  4.17D-09    CP:  1.00D+00  2.36D+00  2.08D+00  2.24D+00  1.50D+00
                    CP:  1.34D+00
 E= -3010.59965564628     Delta-E=        0.000000000012 Rises=F Damp=F
 DIIS: error= 4.17D-09 at cycle  27 NSaved=  20.
 NSaved=20 IEnMin=19 EnMin= -3010.59965564629     IErMin=20 ErrMin= 4.17D-09
 ErrMax= 4.17D-09  0.00D+00 EMaxC= 1.00D-01 BMatC= 2.00D-15 BMatP= 6.84D-15
 IDIUse=1 WtCom= 1.00D+00 WtEn= 0.00D+00
 Large coefficients: NSaved= 20 BigCof=    0.00 CofMax=   10.00 Det=-3.32D-15
 Inversion failed.  Reducing to 19 matrices.
 Large coefficients: NSaved= 19 BigCof=    0.00 CofMax=   10.00 Det=-3.46D-15
 Inversion failed.  Reducing to 18 matrices.
 Large coefficients: NSaved= 18 BigCof=    0.00 CofMax=   10.00 Det=-3.63D-15
 Inversion failed.  Reducing to 17 matrices.
 Large coefficients: NSaved= 17 BigCof=    0.00 CofMax=   10.00 Det=-3.63D-15
 Inversion failed.  Reducing to 16 matrices.
 Large coefficients: NSaved= 16 BigCof=    0.00 CofMax=   10.00 Det=-3.99D-15
 Inversion failed.  Reducing to 15 matrices.
 Coeff-Com: -0.213D-04-0.247D-05 0.911D-04-0.232D-04-0.307D-03 0.699D-04
 Coeff-Com:  0.726D-03-0.242D-03-0.556D-02-0.487D-02 0.274D-01 0.205D-01
 Coeff-Com: -0.205D+00 0.121D+00 0.105D+01
 Coeff:     -0.213D-04-0.247D-05 0.911D-04-0.232D-04-0.307D-03 0.699D-04
 Coeff:      0.726D-03-0.242D-03-0.556D-02-0.487D-02 0.274D-01 0.205D-01
 Coeff:     -0.205D+00 0.121D+00 0.105D+01
 Gap=     0.176 Goal=   None    Shift=    0.000
 RMSDP=4.57D-09 MaxDP=3.42D-07 DE= 1.18D-11 OVMax= 1.46D-07

 SCF Done:  E(RwB97XD) =  -3010.59965565     A.U. after   27 cycles
            NFock= 27  Conv=0.46D-08     -V/T= 2.0016
 KE= 3.005804018320D+03 PE=-8.687032375345D+03 EE= 1.908971253463D+03
 Leave Link  502 at Thu May  2 14:26:22 2024, MaxMem=   134217728 cpu:            1661.4 elap:            1669.3
 (Enter /software/gaussian/g16-c01/sse4/g16/l601.exe)
 Copying SCF densities to generalized density rwf, IOpCl= 0 IROHF=0.

 **********************************************************************

            Population analysis using the SCF Density.

 **********************************************************************

 Alpha  occ. eigenvalues -- -483.22362 -62.77347 -56.57060 -56.56476 -56.56449
 Alpha  occ. eigenvalues --  -19.30480 -19.30198 -14.70059 -10.50132 -10.50076
 Alpha  occ. eigenvalues --  -10.49731 -10.48877 -10.47157 -10.43877  -8.93126
 Alpha  occ. eigenvalues --   -6.75849  -6.73934  -6.73851  -2.85741  -2.85251
 Alpha  occ. eigenvalues --   -2.85185  -2.83653  -2.83652  -1.34098  -1.16862
 Alpha  occ. eigenvalues --   -1.14119  -1.04747  -1.03453  -0.95872  -0.90239
 Alpha  occ. eigenvalues --   -0.87293  -0.81868  -0.76393  -0.71823  -0.70289
 Alpha  occ. eigenvalues --   -0.67891  -0.67179  -0.65871  -0.62731  -0.60962
 Alpha  occ. eigenvalues --   -0.60617  -0.58353  -0.55697  -0.50773  -0.46950
 Alpha  occ. eigenvalues --   -0.46125  -0.41004  -0.39353  -0.39269
 Alpha virt. eigenvalues --   -0.21658  -0.14694  -0.10624  -0.09234  -0.06802
 Alpha virt. eigenvalues --   -0.05930  -0.03780  -0.01231  -0.00450  -0.00192
 Alpha virt. eigenvalues --    0.01386   0.02647   0.04615   0.04804   0.05929
 Alpha virt. eigenvalues --    0.06429   0.08194   0.08805   0.09253   0.10231
 Alpha virt. eigenvalues --    0.10770   0.11511   0.12432   0.13727   0.14276
 Alpha virt. eigenvalues --    0.15523   0.15972   0.16393   0.17048   0.17813
 Alpha virt. eigenvalues --    0.19169   0.19432   0.20494   0.20997   0.21942
 Alpha virt. eigenvalues --    0.23601   0.24281   0.24880   0.26235   0.27518
 Alpha virt. eigenvalues --    0.27857   0.29181   0.30205   0.31183   0.32295
 Alpha virt. eigenvalues --    0.34985   0.35718   0.36129   0.37530   0.38878
 Alpha virt. eigenvalues --    0.39584   0.39946   0.41866   0.42610   0.43096
 Alpha virt. eigenvalues --    0.44355   0.44667   0.45607   0.46445   0.47219
 Alpha virt. eigenvalues --    0.47894   0.49843   0.50584   0.51198   0.52578
 Alpha virt. eigenvalues --    0.53235   0.53736   0.55385   0.56369   0.58674
 Alpha virt. eigenvalues --    0.59390   0.60306   0.61102   0.62113   0.62927
 Alpha virt. eigenvalues --    0.63813   0.65712   0.66610   0.69064   0.69661
 Alpha virt. eigenvalues --    0.70579   0.72682   0.72917   0.74465   0.76755
 Alpha virt. eigenvalues --    0.76871   0.78201   0.80240   0.81815   0.83515
 Alpha virt. eigenvalues --    0.86309   0.88893   0.91516   0.93320   0.94189
 Alpha virt. eigenvalues --    0.96504   0.99531   1.02240   1.06628   1.10421
 Alpha virt. eigenvalues --    1.11930   1.13157   1.14235   1.16380   1.19661
 Alpha virt. eigenvalues --    1.22887   1.26370   1.28582   1.29772   1.33710
 Alpha virt. eigenvalues --    1.34647   1.37839   1.39974   1.42616   1.44966
 Alpha virt. eigenvalues --    1.45454   1.48495   1.51899   1.64163   1.65315
 Alpha virt. eigenvalues --    1.68498   1.68843   1.72606   1.74168   1.74875
 Alpha virt. eigenvalues --    1.80518   1.81631   1.82833   1.87408   1.88617
 Alpha virt. eigenvalues --    1.89323   1.96218   1.98177   2.04590   2.05833
 Alpha virt. eigenvalues --    2.09244   2.12259   2.12934   2.17487   2.18231
 Alpha virt. eigenvalues --    2.21746   2.23205   2.30209   2.32050   2.37009
 Alpha virt. eigenvalues --    2.41382   2.50470   2.53893   2.55344   2.60765
 Alpha virt. eigenvalues --    2.66402   2.71933   2.74092   2.77052   2.83427
 Alpha virt. eigenvalues --    2.87874   2.90501   2.91299   2.91619   2.97045
 Alpha virt. eigenvalues --    3.01961   3.08941   3.14454   3.16841   3.17879
 Alpha virt. eigenvalues --    3.21784   3.22974   3.27366   3.35281   3.38787
 Alpha virt. eigenvalues --    3.43196   3.49382   3.53710   3.60262   3.68133
 Alpha virt. eigenvalues --    3.70960   3.84651   3.89663   3.92354   3.96217
 Alpha virt. eigenvalues --    4.19132   4.19984   4.28572   4.32661   4.52537
 Alpha virt. eigenvalues --    4.61356   4.63332   4.74008   5.10176   5.13170
 Alpha virt. eigenvalues --    5.21938   5.26458   5.77990   6.31632   6.77122
 Alpha virt. eigenvalues --    7.58026   7.60328   7.70372  23.30035  23.69510
 Alpha virt. eigenvalues --   23.80914  23.85613  24.02307  24.11271  35.47086
 Alpha virt. eigenvalues --   48.03036  50.01197  50.09860 289.90635 289.92966
 Alpha virt. eigenvalues --  290.055781021.04160
          Condensed to atoms (all electrons):
               1          2          3          4          5          6
     1  C   11.181538  -4.455378   1.859479  -1.013219   0.276182   0.087433
     2  C   -4.455378  22.356532  -7.157078   0.180877   0.057896   0.114607
     3  C    1.859479  -7.157078  28.023587  -2.128175   0.039240   0.124880
     4  C   -1.013219   0.180877  -2.128175   8.086757  -0.035647  -0.006869
     5  H    0.276182   0.057896   0.039240  -0.035647   0.405610  -0.001668
     6  H    0.087433   0.114607   0.124880  -0.006869  -0.001668   0.282992
     7  H    0.083003  -0.076581   0.051111   0.250942  -0.005326  -0.000006
     8  N   -0.329555   0.233723  -2.217570   0.081530  -0.000454  -0.033299
     9  O   -0.027546   0.214986   0.014157  -0.054486  -0.000047  -0.002990
    10  O    0.445783  -0.259681  -0.214439  -0.032777   0.000173   0.033738
    11  C    2.022884  -0.266218   3.672382  -1.787435  -0.038172   0.006966
    12  H   -0.019160  -0.008669   0.068217  -0.017073  -0.000006  -0.000014
    13  C   -3.984913  -4.868305 -16.003667   2.745917   0.028094   0.010766
    14  H   -0.006541  -0.016482  -0.057108   0.003443  -0.000029  -0.000010
    15  Br  -0.025358  -0.171538  -0.164163  -0.005033  -0.000092  -0.000245
               7          8          9         10         11         12
     1  C    0.083003  -0.329555  -0.027546   0.445783   2.022884  -0.019160
     2  C   -0.076581   0.233723   0.214986  -0.259681  -0.266218  -0.008669
     3  C    0.051111  -2.217570   0.014157  -0.214439   3.672382   0.068217
     4  C    0.250942   0.081530  -0.054486  -0.032777  -1.787435  -0.017073
     5  H   -0.005326  -0.000454  -0.000047   0.000173  -0.038172  -0.000006
     6  H   -0.000006  -0.033299  -0.002990   0.033738   0.006966  -0.000014
     7  H    0.491794  -0.000262   0.000030  -0.000005   0.086073  -0.004254
     8  N   -0.000262   8.425275  -0.248271  -0.039897  -0.842764   0.001751
     9  O    0.000030  -0.248271   7.944855   0.036040   0.522307   0.000049
    10  O   -0.000005  -0.039897   0.036040   7.838360  -0.010292  -0.000020
    11  C    0.086073  -0.842764   0.522307  -0.010292  13.026778   0.209236
    12  H   -0.004254   0.001751   0.000049  -0.000020   0.209236   0.411385
    13  C   -0.067799   2.072432  -0.554164   0.005600 -10.496611   0.083761
    14  H   -0.000044  -0.026951   0.021073  -0.002305   0.133268  -0.006017
    15  Br  -0.000045   0.165523  -0.056554   0.001078   0.132518  -0.009390
              13         14         15
     1  C   -3.984913  -0.006541  -0.025358
     2  C   -4.868305  -0.016482  -0.171538
     3  C  -16.003667  -0.057108  -0.164163
     4  C    2.745917   0.003443  -0.005033
     5  H    0.028094  -0.000029  -0.000092
     6  H    0.010766  -0.000010  -0.000245
     7  H   -0.067799  -0.000044  -0.000045
     8  N    2.072432  -0.026951   0.165523
     9  O   -0.554164   0.021073  -0.056554
    10  O    0.005600  -0.002305   0.001078
    11  C  -10.496611   0.133268   0.132518
    12  H    0.083761  -0.006017  -0.009390
    13  C   36.947505   0.256328   0.283124
    14  H    0.256328   0.286657  -0.029054
    15  Br   0.283124  -0.029054  34.628612
 Mulliken charges:
               1
     1  C   -0.094632
     2  C    0.121307
     3  C    0.089146
     4  C   -0.268751
     5  H    0.274245
     6  H    0.383717
     7  H    0.191369
     8  N   -0.241210
     9  O    0.190560
    10  O    0.198643
    11  C   -0.370917
    12  H    0.290201
    13  C   -0.458068
    14  H    0.443773
    15  Br   0.250616
 Sum of Mulliken charges =   1.00000
 Mulliken charges with hydrogens summed into heavy atoms:
               1
     1  C    0.179613
     2  C    0.505024
     3  C    0.089146
     4  C   -0.077381
     8  N   -0.241210
     9  O    0.190560
    10  O    0.198643
    11  C   -0.080717
    13  C   -0.014295
    15  Br   0.250616
 Electronic spatial extent (au):  <R**2>=           3923.8373
 Charge=              1.0000 electrons
 Dipole moment (field-independent basis, Debye):
    X=             10.4868    Y=             -1.2728    Z=             -1.1328  Tot=             10.6243
 Quadrupole moment (field-independent basis, Debye-Ang):
   XX=            -38.7727   YY=            -50.8535   ZZ=            -61.5529
   XY=             -4.5859   XZ=             -4.6451   YZ=              3.3671
 Traceless Quadrupole moment (field-independent basis, Debye-Ang):
   XX=             11.6203   YY=             -0.4604   ZZ=            -11.1599
   XY=             -4.5859   XZ=             -4.6451   YZ=              3.3671
 Octapole moment (field-independent basis, Debye-Ang**2):
  XXX=           -364.9774  YYY=             89.3633  ZZZ=             80.3207  XYY=           -118.7538
  XXY=             20.3688  XXZ=             18.5631  XZZ=           -122.8511  YZZ=             14.6928
  YYZ=             23.5274  XYZ=             12.4625
 Hexadecapole moment (field-independent basis, Debye-Ang**3):
 XXXX=          -2728.5189 YYYY=           -701.9753 ZZZZ=           -390.0203 XXXY=            173.0703
 XXXZ=            162.7769 YYYX=            173.0610 YYYZ=           -166.1387 ZZZX=            153.6264
 ZZZY=           -138.5227 XXYY=           -555.7923 XXZZ=           -492.0676 YYZZ=           -166.7652
 XXYZ=            -26.2366 YYXZ=             38.3617 ZZXY=             17.2662
 N-N= 7.616574479160D+02 E-N=-8.687032375518D+03  KE= 3.005804018320D+03
 No NMR shielding tensors so no spin-rotation constants.
 Leave Link  601 at Thu May  2 14:26:29 2024, MaxMem=   134217728 cpu:               7.4 elap:               7.4
 (Enter /software/gaussian/g16-c01/sse4/g16/l9999.exe)
 Unable to Open any file for archive entry.
 1\1\GINC-BHX0002\SP\RwB97XD\6-311+G(d)\C6H5Br1N1O2(1+)\BWEIGHT\02-May-
 2024\0\\#P wB97XD/6-311+G* NoSymm #P Field=X-262\\TitleMe\\1,1\C,0,0.5
 193,1.233,-0.0319\C,0,1.9445,1.2692,-0.0367\C,0,2.6204,0.0928,-0.025\C
 ,0,-0.196,0.0301,0.001\H,0,-0.0207,2.1742,-0.0434\H,0,2.4828,2.2089,-0
 .0361\H,0,-1.2777,0.0399,0.0117\N,0,4.0921,0.0959,0.0366\O,0,4.6393,-1
 .0217,0.1446\O,0,4.6649,1.1984,-0.0233\C,0,0.4943,-1.1671,0.021\H,0,-0
 .0325,-2.1149,0.0545\C,0,1.9629,-1.2165,-0.0211\H,0,2.4436,-1.9631,0.6
 151\Br,0,2.173,-1.9491,-1.9062\\Version=ES64L-G16RevC.01\HF=-3010.5996
 556\RMSD=4.574e-09\Dipole=-0.2034051,0.7273502,0.8035464\Quadrupole=8.
 6394185,-0.3423182,-8.2971003,-3.4094901,-3.4535514,2.5033921\PG=C01 [
 X(C6H5Br1N1O2)]\\@
 The archive entry for this job was punched.


 WAR ES EIN GOTT DER DIESE ZEICHEN SCHRIEB?
          - LUDWIG BOLTZMANN, QUOTING GOETHE, ABOUT MAXWELL'S EQUATIONS.
 Job cpu time:       0 days  0 hours 28 minutes 52.3 seconds.
 Elapsed time:       0 days  0 hours 29 minutes  0.1 seconds.
 File lengths (MBytes):  RWF=     40 Int=      0 D2E=      0 Chk=     32 Scr=      1
 Normal termination of Gaussian 16 at Thu May  2 14:26:30 2024.
