 Entering Gaussian System, Link 0=g16
 Initial command:
 /software/gaussian/g16-c01/sse4/g16/l1.exe "/local_scratch/24657585/Gau-11401.inp" -scrdir="/local_scratch/24657585/"
 Entering Link 1 = /software/gaussian/g16-c01/sse4/g16/l1.exe PID=     11408.
  
 Copyright (c) 1988-2019, Gaussian, Inc.  All Rights Reserved.
  
 This is part of the Gaussian(R) 16 program.  It is based on
 the Gaussian(R) 09 system (copyright 2009, Gaussian, Inc.),
 the Gaussian(R) 03 system (copyright 2003, Gaussian, Inc.),
 the Gaussian(R) 98 system (copyright 1998, Gaussian, Inc.),
 the Gaussian(R) 94 system (copyright 1995, Gaussian, Inc.),
 the Gaussian 92(TM) system (copyright 1992, Gaussian, Inc.),
 the Gaussian 90(TM) system (copyright 1990, Gaussian, Inc.),
 the Gaussian 88(TM) system (copyright 1988, Gaussian, Inc.),
 the Gaussian 86(TM) system (copyright 1986, Carnegie Mellon
 University), and the Gaussian 82(TM) system (copyright 1983,
 Carnegie Mellon University). Gaussian is a federally registered
 trademark of Gaussian, Inc.
  
 This software contains proprietary and confidential information,
 including trade secrets, belonging to Gaussian, Inc.
  
 This software is provided under written license and may be
 used, copied, transmitted, or stored only in accord with that
 written license.
  
 The following legend is applicable only to US Government
 contracts under FAR:
  
                    RESTRICTED RIGHTS LEGEND
  
 Use, reproduction and disclosure by the US Government is
 subject to restrictions as set forth in subparagraphs (a)
 and (c) of the Commercial Computer Software - Restricted
 Rights clause in FAR 52.227-19.
  
 Gaussian, Inc.
 340 Quinnipiac St., Bldg. 40, Wallingford CT 06492
  
  
 ---------------------------------------------------------------
 Warning -- This program may not be used in any manner that
 competes with the business of Gaussian, Inc. or will provide
 assistance to any competitor of Gaussian, Inc.  The licensee
 of this program is prohibited from giving any competitor of
 Gaussian, Inc. access to this program.  By using this program,
 the user acknowledges that Gaussian, Inc. is engaged in the
 business of creating and licensing software in the field of
 computational chemistry and represents and warrants to the
 licensee that it is not a competitor of Gaussian, Inc. and that
 it will not use this program in any manner prohibited above.
 ---------------------------------------------------------------
  

 Cite this work as:
 Gaussian 16, Revision C.01,
 M. J. Frisch, G. W. Trucks, H. B. Schlegel, G. E. Scuseria, 
 M. A. Robb, J. R. Cheeseman, G. Scalmani, V. Barone, 
 G. A. Petersson, H. Nakatsuji, X. Li, M. Caricato, A. V. Marenich, 
 J. Bloino, B. G. Janesko, R. Gomperts, B. Mennucci, H. P. Hratchian, 
 J. V. Ortiz, A. F. Izmaylov, J. L. Sonnenberg, D. Williams-Young, 
 F. Ding, F. Lipparini, F. Egidi, J. Goings, B. Peng, A. Petrone, 
 T. Henderson, D. Ranasinghe, V. G. Zakrzewski, J. Gao, N. Rega, 
 G. Zheng, W. Liang, M. Hada, M. Ehara, K. Toyota, R. Fukuda, 
 J. Hasegawa, M. Ishida, T. Nakajima, Y. Honda, O. Kitao, H. Nakai, 
 T. Vreven, K. Throssell, J. A. Montgomery, Jr., J. E. Peralta, 
 F. Ogliaro, M. J. Bearpark, J. J. Heyd, E. N. Brothers, K. N. Kudin, 
 V. N. Staroverov, T. A. Keith, R. Kobayashi, J. Normand, 
 K. Raghavachari, A. P. Rendell, J. C. Burant, S. S. Iyengar, 
 J. Tomasi, M. Cossi, J. M. Millam, M. Klene, C. Adamo, R. Cammi, 
 J. W. Ochterski, R. L. Martin, K. Morokuma, O. Farkas, 
 J. B. Foresman, and D. J. Fox, Gaussian, Inc., Wallingford CT, 2019.
 
 ******************************************
 Gaussian 16:  ES64L-G16RevC.01  3-Jul-2019
                 1-May-2024 
 ******************************************
 %chk=geometry.chk
 %mem=9GB
 %nprocshared=12
 Will use up to   12 processors via shared memory.
 ----------------------------------------
 #P wB97XD/6-311+G* NoSymm #P Field=Z+233
 ----------------------------------------
 1/38=1,172=1/1;
 2/12=2,15=1,17=6,18=5,40=1/2;
 3/5=4,6=6,7=11,11=2,14=3,15=233,25=1,30=1,74=-58/1,2,3;
 4//1;
 5/5=2,38=5/2;
 6/7=2,8=2,9=2,10=2,28=1/1;
 99/5=1,9=1/99;
 Leave Link    1 at Wed May  1 15:11:07 2024, MaxMem=  1207959552 cpu:               2.3 elap:               2.3
 (Enter /software/gaussian/g16-c01/sse4/g16/l101.exe)
 -------
 TitleMe
 -------
 Symbolic Z-matrix:
 Charge =  1 Multiplicity = 1
 C                     0.0295    1.3397    0.0682 
 C                     1.4348    1.2867    0.0064 
 C                     2.1118    0.0511   -0.0054 
 C                     1.4451   -1.1372    0.0312 
 C                    -0.6879    0.1682    0.11 
 H                    -0.4713    2.2984    0.0781 
 H                     2.0273    2.1965   -0.0322 
 H                     1.9897   -2.0764    0.0232 
 H                    -1.7716    0.1804    0.1582 
 N                     3.5864    0.051    -0.0675 
 O                     4.1471   -1.0597   -0.0881 
 O                     4.145     1.1639   -0.0901 
 C                    -0.0236   -1.1458    0.0835 
 H                    -0.4367   -1.8725    0.7889 
 Br                   -0.5359   -1.8697   -1.7408 
 
 ITRead=  0  0  0  0  0  0  0  0  0  0  0  0  0  0  0
 MicOpt= -1 -1 -1 -1 -1 -1 -1 -1 -1 -1 -1 -1 -1 -1 -1
 NAtoms=     15 NQM=       15 NQMF=       0 NMMI=      0 NMMIF=      0
                NMic=       0 NMicF=      0.
                    Isotopes and Nuclear Properties:
 (Nuclear quadrupole moments (NQMom) in fm**2, nuclear magnetic moments (NMagM)
  in nuclear magnetons)

  Atom         1           2           3           4           5           6           7           8           9          10
 IAtWgt=          12          12          12          12          12           1           1           1           1          14
 AtmWgt=  12.0000000  12.0000000  12.0000000  12.0000000  12.0000000   1.0078250   1.0078250   1.0078250   1.0078250  14.0030740
 NucSpn=           0           0           0           0           0           1           1           1           1           2
 AtZEff=  -0.0000000  -0.0000000  -0.0000000  -0.0000000  -0.0000000  -0.0000000  -0.0000000  -0.0000000  -0.0000000  -0.0000000
 NQMom=    0.0000000   0.0000000   0.0000000   0.0000000   0.0000000   0.0000000   0.0000000   0.0000000   0.0000000   2.0440000
 NMagM=    0.0000000   0.0000000   0.0000000   0.0000000   0.0000000   2.7928460   2.7928460   2.7928460   2.7928460   0.4037610
 AtZNuc=   6.0000000   6.0000000   6.0000000   6.0000000   6.0000000   1.0000000   1.0000000   1.0000000   1.0000000   7.0000000

  Atom        11          12          13          14          15
 IAtWgt=          16          16          12           1          79
 AtmWgt=  15.9949146  15.9949146  12.0000000   1.0078250  78.9183361
 NucSpn=           0           0           0           1           3
 AtZEff=  -0.0000000  -0.0000000  -0.0000000  -0.0000000  -0.0000000
 NQMom=    0.0000000   0.0000000   0.0000000   0.0000000  31.3000000
 NMagM=    0.0000000   0.0000000   0.0000000   2.7928460   2.1063990
 AtZNuc=   8.0000000   8.0000000   6.0000000   1.0000000  35.0000000
 Leave Link  101 at Wed May  1 15:11:09 2024, MaxMem=  1207959552 cpu:               1.5 elap:               1.5
 (Enter /software/gaussian/g16-c01/sse4/g16/l202.exe)
                          Input orientation:                          
 ---------------------------------------------------------------------
 Center     Atomic      Atomic             Coordinates (Angstroms)
 Number     Number       Type             X           Y           Z
 ---------------------------------------------------------------------
      1          6           0        0.029500    1.339700    0.068200
      2          6           0        1.434800    1.286700    0.006400
      3          6           0        2.111800    0.051100   -0.005400
      4          6           0        1.445100   -1.137200    0.031200
      5          6           0       -0.687900    0.168200    0.110000
      6          1           0       -0.471300    2.298400    0.078100
      7          1           0        2.027300    2.196500   -0.032200
      8          1           0        1.989700   -2.076400    0.023200
      9          1           0       -1.771600    0.180400    0.158200
     10          7           0        3.586400    0.051000   -0.067500
     11          8           0        4.147100   -1.059700   -0.088100
     12          8           0        4.145000    1.163900   -0.090100
     13          6           0       -0.023600   -1.145800    0.083500
     14          1           0       -0.436700   -1.872500    0.788900
     15         35           0       -0.535900   -1.869700   -1.740800
 ---------------------------------------------------------------------
                    Distance matrix (angstroms):
                    1          2          3          4          5
     1  C    0.000000
     2  C    1.407656   0.000000
     3  C    2.449874   1.408963   0.000000
     4  C    2.853126   2.424049   1.363043   0.000000
     5  C    1.374344   2.401589   2.804523   2.501993   0.000000
     6  H    1.081667   2.159142   3.424870   3.934226   2.141421
     7  H    2.176095   1.086408   2.147231   3.384750   3.392128
     8  H    3.938800   3.408612   2.131193   1.085702   3.495040
     9  H    2.143837   3.395283   3.888995   3.478413   1.084840
    10  N    3.785591   2.482297   1.475907   2.450862   4.279589
    11  O    4.768247   3.587631   2.320164   2.705743   4.992415
    12  O    4.122294   2.714696   2.319353   3.549540   4.938459
    13  C    2.486114   2.837240   2.449573   1.469656   1.472614
    14  H    3.324903   3.754379   3.290289   2.157764   2.165286
    15  Br   3.727252   4.110867   3.702891   2.756973   2.757100
                    6          7          8          9         10
     6  H    0.000000
     7  H    2.503108   0.000000
     8  H    5.019802   4.273425   0.000000
     9  H    2.486588   4.304945   4.388479   0.000000
    10  N    4.640790   2.652397   2.661486   5.364313   0.000000
    11  O    5.712624   3.885809   2.387560   6.052233   1.244373
    12  O    4.756638   2.356750   3.893289   6.002923   1.245428
    13  C    3.473180   3.923079   2.218790   2.195425   3.806210
    14  H    4.231175   4.827242   2.552506   2.528663   4.540772
    15  Br   4.548146   5.101303   3.087568   3.055498   4.845862
                   11         12         13         14         15
    11  O    0.000000
    12  O    2.223602   0.000000
    13  C    4.175117   4.768865   0.000000
    14  H    4.737193   5.566358   1.093770   0.000000
    15  Br   5.031700   5.817075   2.028436   2.531646   0.000000
 Symmetry turned off by external request.
 Stoichiometry    C6H5BrNO2(1+)
 Framework group  C1[X(C6H5BrNO2)]
 Deg. of freedom    39
 Full point group                 C1      NOp   1
 Rotational constants (GHZ):           1.8252210           0.5518633           0.4576002
 Leave Link  202 at Wed May  1 15:11:10 2024, MaxMem=  1207959552 cpu:               1.2 elap:               1.2
 (Enter /software/gaussian/g16-c01/sse4/g16/l301.exe)
 Standard basis: 6-311+G(d) (5D, 7F)
 Ernie: Thresh=  0.10000D-02 Tol=  0.10000D-05 Strict=F.
 The following finite field(s) will be applied:
 An electric field of              0.0000  0.0000  0.0233
   261 basis functions,   443 primitive gaussians,   273 cartesian basis functions
    49 alpha electrons       49 beta electrons
       nuclear repulsion energy       739.2122215416 Hartrees.
 IExCor= 4639 DFT=T Ex+Corr=wB97XD ExCW=0 ScaHFX=  1.000000
 ScaDFX=  1.000000  1.000000  1.000000  1.000000 ScalE2=  1.000000  1.000000
 IRadAn=      5 IRanWt=     -1 IRanGd=            0 ICorTp=0 IEmpDi=121
 HFx  wShort=  0.000000 wLong=  0.200000 cFull=  0.222036 cShort=  0.000000 cLong=  0.777964
 DFx  wShort=  0.000000 wLong=  0.200000 cFull=  0.000000 cShort=  0.000000 cLong=  1.000000
 NAtoms=   15 NActive=   15 NUniq=   15 SFac= 1.00D+00 NAtFMM=   60 NAOKFM=F Big=F
 Integral buffers will be    131072 words long.
 Raffenetti 2 integral format.
 Two-electron integral symmetry is turned off.
 R6Disp:  Grimme-D2 Dispersion energy=       -0.0077368520 Hartrees.
 Nuclear repulsion after empirical dispersion term =      739.2044846896 Hartrees.
 Leave Link  301 at Wed May  1 15:11:11 2024, MaxMem=  1207959552 cpu:               1.0 elap:               1.0
 (Enter /software/gaussian/g16-c01/sse4/g16/l302.exe)
 NPDir=0 NMtPBC=     1 NCelOv=     1 NCel=       1 NClECP=     1 NCelD=      1
         NCelK=      1 NCelE2=     1 NClLst=     1 CellRange=     0.0.
 One-electron integrals computed using PRISM.
 NBasis=   261 RedAO= T EigKep=  2.35D-06  NBF=   261
 NBsUse=   261 1.00D-06 EigRej= -1.00D+00 NBFU=   261
 Precomputing XC quadrature grid using
 IXCGrd= 4 IRadAn=           5 IRanWt=          -1 IRanGd=           0 AccXCQ= 0.00D+00.
 Generated NRdTot=       0 NPtTot=           0 NUsed=           0 NTot=          32
 NSgBfM=   273   273   273   273   273 MxSgAt=    15 MxSgA2=    15.
 Leave Link  302 at Wed May  1 15:11:33 2024, MaxMem=  1207959552 cpu:              22.0 elap:              22.0
 (Enter /software/gaussian/g16-c01/sse4/g16/l303.exe)
 DipDrv:  MaxL=1.
 The nuclear repulsion energy is now       736.5606001437 hartrees.
 Leave Link  303 at Wed May  1 15:11:36 2024, MaxMem=  1207959552 cpu:               3.2 elap:               3.2
 (Enter /software/gaussian/g16-c01/sse4/g16/l401.exe)
 ExpMin= 3.50D-02 ExpMax= 4.40D+05 ExpMxC= 1.51D+04 IAcc=3 IRadAn=         5 AccDes= 0.00D+00
 Harris functional with IExCor= 4639 and IRadAn=       5 diagonalized for initial guess.
 HarFok:  IExCor= 4639 AccDes= 0.00D+00 IRadAn=         5 IDoV= 1 UseB2=F ITyADJ=14
 ICtDFT=  3500011 ScaDFX=  1.000000  1.000000  1.000000  1.000000
 FoFCou: FMM=F IPFlag=           0 FMFlag=      100000 FMFlg1=           0
         NFxFlg=           0 DoJE=T BraDBF=F KetDBF=T FulRan=T
         wScrn=  0.000000 ICntrl=       500 IOpCl=  0 I1Cent=   200000004 NGrid=           0
         NMat0=    1 NMatS0=      1 NMatT0=    0 NMatD0=    1 NMtDS0=    0 NMtDT0=    0
 Symmetry not used in FoFCou.
 Harris En= -2970.63496145090    
 JPrj=0 DoOrth=F DoCkMO=F.
 Leave Link  401 at Wed May  1 15:12:07 2024, MaxMem=  1207959552 cpu:              30.6 elap:              30.7
 (Enter /software/gaussian/g16-c01/sse4/g16/l502.exe)
 Two-electron integral symmetry not used.
 Closed shell SCF:
 Using DIIS extrapolation, IDIIS=  1040.
 NGot=  1207959552 LenX=  1207804877 LenY=  1207729907
 Requested convergence on RMS density matrix=1.00D-08 within 128 cycles.
 Requested convergence on MAX density matrix=1.00D-06.
 Requested convergence on             energy=1.00D-06.
 No special actions if energy rises.
 Fock matrices will be formed incrementally for  20 cycles.

 Cycle   1  Pass 1  IDiag  1:
 FoFJK:  IHMeth= 1 ICntrl=       0 DoSepK=T KAlg= 0 I1Cent=           0 FoldK=F
 IRaf=         1 NMat=       1 IRICut=       1 DoRegI=T DoRafI=F ISym2E= 0 IDoP0=0 IntGTp=1.
 FoFCou: FMM=F IPFlag=           0 FMFlag=      100000 FMFlg1=           0
         NFxFlg=           0 DoJE=T BraDBF=F KetDBF=F FulRan=T
         wScrn=  0.000000 ICntrl=       500 IOpCl=  0 I1Cent=           0 NGrid=           0
         NMat0=    1 NMatS0=      1 NMatT0=    0 NMatD0=    1 NMtDS0=    0 NMtDT0=    0
 Symmetry not used in FoFCou.
 E= -3009.65674732650    
 DIIS: error= 3.21D-01 at cycle   1 NSaved=   1.
 NSaved= 1 IEnMin= 1 EnMin= -3009.65674732650     IErMin= 1 ErrMin= 3.21D-01
 ErrMax= 3.21D-01  0.00D+00 EMaxC= 1.00D-01 BMatC= 1.21D+01 BMatP= 1.21D+01
 IDIUse=3 WtCom= 0.00D+00 WtEn= 1.00D+00
 Coeff-Com:  0.100D+01
 Coeff-En:   0.100D+01
 Coeff:      0.100D+01
 Gap=     0.338 Goal=   None    Shift=    0.000
 GapD=    0.338 DampG=1.000 DampE=0.250 DampFc=0.2500 IDamp=-1.
 Damping current iteration by 2.50D-01
 RMSDP=1.77D-01 MaxDP=2.47D+01              OVMax= 2.54D-01

 Cycle   2  Pass 1  IDiag  1:
 RMSU=  7.46D-03    CP:  8.10D-01
 E= -3009.97334531121     Delta-E=       -0.316597984709 Rises=F Damp=T
 DIIS: error= 2.25D-01 at cycle   2 NSaved=   2.
 NSaved= 2 IEnMin= 2 EnMin= -3009.97334531121     IErMin= 2 ErrMin= 2.25D-01
 ErrMax= 2.25D-01  0.00D+00 EMaxC= 1.00D-01 BMatC= 5.47D+00 BMatP= 1.21D+01
 IDIUse=3 WtCom= 0.00D+00 WtEn= 1.00D+00
 Coeff-Com: -0.179D+01 0.279D+01
 Coeff-En:   0.000D+00 0.100D+01
 Coeff:      0.000D+00 0.100D+01
 Gap=     0.285 Goal=   None    Shift=    0.000
 RMSDP=1.33D-01 MaxDP=1.85D+01 DE=-3.17D-01 OVMax= 6.26D-02

 Cycle   3  Pass 1  IDiag  1:
 RMSU=  6.25D-03    CP:  2.38D-01  3.00D+00
 E= -3010.37554207768     Delta-E=       -0.402196766472 Rises=F Damp=F
 DIIS: error= 6.70D-02 at cycle   3 NSaved=   3.
 NSaved= 3 IEnMin= 3 EnMin= -3010.37554207768     IErMin= 3 ErrMin= 6.70D-02
 ErrMax= 6.70D-02  0.00D+00 EMaxC= 1.00D-01 BMatC= 7.92D-01 BMatP= 5.47D+00
 IDIUse=3 WtCom= 3.30D-01 WtEn= 6.70D-01
 Coeff-Com:  0.263D+01-0.345D+01 0.182D+01
 Coeff-En:   0.602D-01 0.000D+00 0.940D+00
 Coeff:      0.905D+00-0.114D+01 0.123D+01
 Gap=     0.291 Goal=   None    Shift=    0.000
 RMSDP=9.38D-03 MaxDP=7.65D-01 DE=-4.02D-01 OVMax= 1.16D-01

 Cycle   4  Pass 1  IDiag  1:
 RMSU=  7.30D-03    CP:  2.62D-01  3.00D+00  1.30D+00
 E= -3010.50402034506     Delta-E=       -0.128478267387 Rises=F Damp=F
 DIIS: error= 3.68D-02 at cycle   4 NSaved=   4.
 NSaved= 4 IEnMin= 4 EnMin= -3010.50402034506     IErMin= 4 ErrMin= 3.68D-02
 ErrMax= 3.68D-02  0.00D+00 EMaxC= 1.00D-01 BMatC= 2.21D-01 BMatP= 7.92D-01
 IDIUse=3 WtCom= 6.32D-01 WtEn= 3.68D-01
 Coeff-Com: -0.317D+00 0.435D+00 0.184D+00 0.698D+00
 Coeff-En:   0.000D+00 0.000D+00 0.178D+00 0.822D+00
 Coeff:     -0.200D+00 0.275D+00 0.182D+00 0.744D+00
 Gap=     0.250 Goal=   None    Shift=    0.000
 RMSDP=7.40D-03 MaxDP=1.03D+00 DE=-1.28D-01 OVMax= 5.07D-02

 Cycle   5  Pass 1  IDiag  1:
 RMSU=  2.11D-03    CP:  2.33D-01  3.00D+00  1.23D+00  7.08D-01
 E= -3010.55194008976     Delta-E=       -0.047919744697 Rises=F Damp=F
 DIIS: error= 7.03D-03 at cycle   5 NSaved=   5.
 NSaved= 5 IEnMin= 5 EnMin= -3010.55194008976     IErMin= 5 ErrMin= 7.03D-03
 ErrMax= 7.03D-03  0.00D+00 EMaxC= 1.00D-01 BMatC= 8.19D-03 BMatP= 2.21D-01
 IDIUse=3 WtCom= 9.30D-01 WtEn= 7.03D-02
 Coeff-Com: -0.189D+00 0.255D+00 0.146D-01 0.352D+00 0.567D+00
 Coeff-En:   0.000D+00 0.000D+00 0.000D+00 0.000D+00 0.100D+01
 Coeff:     -0.176D+00 0.237D+00 0.136D-01 0.327D+00 0.598D+00
 Gap=     0.235 Goal=   None    Shift=    0.000
 RMSDP=7.22D-04 MaxDP=4.74D-02 DE=-4.79D-02 OVMax= 1.44D-02

 Cycle   6  Pass 1  IDiag  1:
 RMSU=  4.89D-04    CP:  2.32D-01  3.00D+00  1.26D+00  7.53D-01  8.91D-01
 E= -3010.55393716288     Delta-E=       -0.001997073121 Rises=F Damp=F
 DIIS: error= 1.00D-03 at cycle   6 NSaved=   6.
 NSaved= 6 IEnMin= 6 EnMin= -3010.55393716288     IErMin= 6 ErrMin= 1.00D-03
 ErrMax= 1.00D-03  0.00D+00 EMaxC= 1.00D-01 BMatC= 1.27D-04 BMatP= 8.19D-03
 IDIUse=3 WtCom= 9.90D-01 WtEn= 1.00D-02
 Coeff-Com: -0.988D-01 0.133D+00-0.148D-01 0.142D+00 0.307D+00 0.532D+00
 Coeff-En:   0.000D+00 0.000D+00 0.000D+00 0.000D+00 0.000D+00 0.100D+01
 Coeff:     -0.978D-01 0.131D+00-0.146D-01 0.141D+00 0.304D+00 0.536D+00
 Gap=     0.236 Goal=   None    Shift=    0.000
 RMSDP=3.01D-04 MaxDP=4.00D-02 DE=-2.00D-03 OVMax= 5.59D-03

 Cycle   7  Pass 1  IDiag  1:
 RMSU=  1.64D-04    CP:  2.31D-01  3.00D+00  1.26D+00  7.48D-01  9.64D-01
                    CP:  9.94D-01
 E= -3010.55406891605     Delta-E=       -0.000131753167 Rises=F Damp=F
 DIIS: error= 5.19D-04 at cycle   7 NSaved=   7.
 NSaved= 7 IEnMin= 7 EnMin= -3010.55406891605     IErMin= 7 ErrMin= 5.19D-04
 ErrMax= 5.19D-04  0.00D+00 EMaxC= 1.00D-01 BMatC= 3.33D-05 BMatP= 1.27D-04
 IDIUse=3 WtCom= 9.95D-01 WtEn= 5.19D-03
 Coeff-Com: -0.307D-01 0.407D-01-0.158D-01 0.203D-01 0.630D-01 0.324D+00
 Coeff-Com:  0.598D+00
 Coeff-En:   0.000D+00 0.000D+00 0.000D+00 0.000D+00 0.000D+00 0.000D+00
 Coeff-En:   0.100D+01
 Coeff:     -0.305D-01 0.405D-01-0.157D-01 0.202D-01 0.627D-01 0.322D+00
 Coeff:      0.600D+00
 Gap=     0.237 Goal=   None    Shift=    0.000
 RMSDP=1.64D-04 MaxDP=2.01D-02 DE=-1.32D-04 OVMax= 4.81D-03

 Cycle   8  Pass 1  IDiag  1:
 RMSU=  7.33D-05    CP:  2.30D-01  3.00D+00  1.27D+00  7.51D-01  1.01D+00
                    CP:  1.15D+00  1.19D+00
 E= -3010.55412181093     Delta-E=       -0.000052894880 Rises=F Damp=F
 DIIS: error= 1.90D-04 at cycle   8 NSaved=   8.
 NSaved= 8 IEnMin= 8 EnMin= -3010.55412181093     IErMin= 8 ErrMin= 1.90D-04
 ErrMax= 1.90D-04  0.00D+00 EMaxC= 1.00D-01 BMatC= 6.38D-06 BMatP= 3.33D-05
 IDIUse=3 WtCom= 9.98D-01 WtEn= 1.90D-03
 Coeff-Com:  0.124D-01-0.170D-01-0.383D-02-0.297D-01-0.641D-01-0.320D-01
 Coeff-Com:  0.273D+00 0.861D+00
 Coeff-En:   0.000D+00 0.000D+00 0.000D+00 0.000D+00 0.000D+00 0.000D+00
 Coeff-En:   0.000D+00 0.100D+01
 Coeff:      0.124D-01-0.169D-01-0.383D-02-0.296D-01-0.640D-01-0.320D-01
 Coeff:      0.273D+00 0.861D+00
 Gap=     0.236 Goal=   None    Shift=    0.000
 RMSDP=1.35D-04 MaxDP=1.31D-02 DE=-5.29D-05 OVMax= 4.97D-03

 Cycle   9  Pass 1  IDiag  1:
 RMSU=  3.73D-05    CP:  2.30D-01  3.00D+00  1.27D+00  7.51D-01  1.03D+00
                    CP:  1.32D+00  1.65D+00  1.37D+00
 E= -3010.55414931301     Delta-E=       -0.000027502080 Rises=F Damp=F
 DIIS: error= 5.44D-05 at cycle   9 NSaved=   9.
 NSaved= 9 IEnMin= 9 EnMin= -3010.55414931301     IErMin= 9 ErrMin= 5.44D-05
 ErrMax= 5.44D-05  0.00D+00 EMaxC= 1.00D-01 BMatC= 1.10D-06 BMatP= 6.38D-06
 IDIUse=1 WtCom= 1.00D+00 WtEn= 0.00D+00
 Coeff-Com:  0.817D-02-0.109D-01 0.245D-02-0.107D-01-0.282D-01-0.862D-01
 Coeff-Com: -0.109D+00 0.201D+00 0.103D+01
 Coeff:      0.817D-02-0.109D-01 0.245D-02-0.107D-01-0.282D-01-0.862D-01
 Coeff:     -0.109D+00 0.201D+00 0.103D+01
 Gap=     0.236 Goal=   None    Shift=    0.000
 RMSDP=6.15D-05 MaxDP=4.31D-03 DE=-2.75D-05 OVMax= 4.11D-03

 Cycle  10  Pass 1  IDiag  1:
 RMSU=  2.67D-05    CP:  2.30D-01  3.00D+00  1.27D+00  7.50D-01  1.04D+00
                    CP:  1.39D+00  1.76D+00  1.59D+00  1.58D+00
 E= -3010.55415858682     Delta-E=       -0.000009273808 Rises=F Damp=F
 DIIS: error= 2.22D-05 at cycle  10 NSaved=  10.
 NSaved=10 IEnMin=10 EnMin= -3010.55415858682     IErMin=10 ErrMin= 2.22D-05
 ErrMax= 2.22D-05  0.00D+00 EMaxC= 1.00D-01 BMatC= 2.67D-07 BMatP= 1.10D-06
 IDIUse=1 WtCom= 1.00D+00 WtEn= 0.00D+00
 Coeff-Com: -0.184D-02 0.255D-02 0.814D-03 0.392D-02 0.832D-02-0.484D-02
 Coeff-Com: -0.720D-01-0.118D+00 0.229D+00 0.953D+00
 Coeff:     -0.184D-02 0.255D-02 0.814D-03 0.392D-02 0.832D-02-0.484D-02
 Coeff:     -0.720D-01-0.118D+00 0.229D+00 0.953D+00
 Gap=     0.236 Goal=   None    Shift=    0.000
 RMSDP=4.84D-05 MaxDP=6.29D-03 DE=-9.27D-06 OVMax= 1.80D-03

 Cycle  11  Pass 1  IDiag  1:
 RMSU=  9.40D-06    CP:  2.30D-01  3.00D+00  1.27D+00  7.49D-01  1.03D+00
                    CP:  1.40D+00  1.75D+00  1.63D+00  2.00D+00  1.47D+00
 E= -3010.55416045005     Delta-E=       -0.000001863229 Rises=F Damp=F
 DIIS: error= 1.39D-05 at cycle  11 NSaved=  11.
 NSaved=11 IEnMin=11 EnMin= -3010.55416045005     IErMin=11 ErrMin= 1.39D-05
 ErrMax= 1.39D-05  0.00D+00 EMaxC= 1.00D-01 BMatC= 6.73D-08 BMatP= 2.67D-07
 IDIUse=1 WtCom= 1.00D+00 WtEn= 0.00D+00
 Coeff-Com: -0.158D-02 0.211D-02-0.239D-03 0.324D-02 0.945D-02 0.263D-01
 Coeff-Com:  0.248D-01-0.931D-01-0.307D+00 0.207D+00 0.113D+01
 Coeff:     -0.158D-02 0.211D-02-0.239D-03 0.324D-02 0.945D-02 0.263D-01
 Coeff:      0.248D-01-0.931D-01-0.307D+00 0.207D+00 0.113D+01
 Gap=     0.236 Goal=   None    Shift=    0.000
 RMSDP=2.72D-05 MaxDP=3.23D-03 DE=-1.86D-06 OVMax= 1.37D-03

 Cycle  12  Pass 1  IDiag  1:
 RMSU=  4.40D-06    CP:  2.31D-01  3.00D+00  1.27D+00  7.49D-01  1.03D+00
                    CP:  1.40D+00  1.73D+00  1.62D+00  2.29D+00  1.93D+00
                    CP:  1.36D+00
 E= -3010.55416104010     Delta-E=       -0.000000590054 Rises=F Damp=F
 DIIS: error= 4.46D-06 at cycle  12 NSaved=  12.
 NSaved=12 IEnMin=12 EnMin= -3010.55416104010     IErMin=12 ErrMin= 4.46D-06
 ErrMax= 4.46D-06  0.00D+00 EMaxC= 1.00D-01 BMatC= 1.45D-08 BMatP= 6.73D-08
 IDIUse=1 WtCom= 1.00D+00 WtEn= 0.00D+00
 Coeff-Com: -0.436D-03 0.572D-03-0.166D-03 0.849D-03 0.210D-02 0.978D-02
 Coeff-Com:  0.170D-01-0.244D-01-0.145D+00-0.261D-01 0.478D+00 0.688D+00
 Coeff:     -0.436D-03 0.572D-03-0.166D-03 0.849D-03 0.210D-02 0.978D-02
 Coeff:      0.170D-01-0.244D-01-0.145D+00-0.261D-01 0.478D+00 0.688D+00
 Gap=     0.236 Goal=   None    Shift=    0.000
 RMSDP=4.34D-06 MaxDP=4.21D-04 DE=-5.90D-07 OVMax= 2.63D-04

 Cycle  13  Pass 1  IDiag  1:
 RMSU=  2.55D-06    CP:  2.31D-01  3.00D+00  1.27D+00  7.49D-01  1.03D+00
                    CP:  1.40D+00  1.73D+00  1.63D+00  2.31D+00  1.99D+00
                    CP:  1.57D+00  1.14D+00
 E= -3010.55416107967     Delta-E=       -0.000000039568 Rises=F Damp=F
 DIIS: error= 2.69D-06 at cycle  13 NSaved=  13.
 NSaved=13 IEnMin=13 EnMin= -3010.55416107967     IErMin=13 ErrMin= 2.69D-06
 ErrMax= 2.69D-06  0.00D+00 EMaxC= 1.00D-01 BMatC= 1.61D-09 BMatP= 1.45D-08
 IDIUse=1 WtCom= 1.00D+00 WtEn= 0.00D+00
 Coeff-Com:  0.110D-03-0.146D-03-0.188D-04-0.484D-03-0.199D-02-0.459D-02
 Coeff-Com: -0.271D-02 0.158D-01 0.474D-01-0.626D-01-0.166D+00 0.135D+00
 Coeff-Com:  0.104D+01
 Coeff:      0.110D-03-0.146D-03-0.188D-04-0.484D-03-0.199D-02-0.459D-02
 Coeff:     -0.271D-02 0.158D-01 0.474D-01-0.626D-01-0.166D+00 0.135D+00
 Coeff:      0.104D+01
 Gap=     0.236 Goal=   None    Shift=    0.000
 RMSDP=2.43D-06 MaxDP=1.34D-04 DE=-3.96D-08 OVMax= 1.28D-04

 Cycle  14  Pass 1  IDiag  1:
 RMSU=  6.35D-07    CP:  2.31D-01  3.00D+00  1.27D+00  7.50D-01  1.03D+00
                    CP:  1.40D+00  1.73D+00  1.63D+00  2.31D+00  2.01D+00
                    CP:  1.65D+00  1.43D+00  1.32D+00
 E= -3010.55416108797     Delta-E=       -0.000000008296 Rises=F Damp=F
 DIIS: error= 1.05D-06 at cycle  14 NSaved=  14.
 NSaved=14 IEnMin=14 EnMin= -3010.55416108797     IErMin=14 ErrMin= 1.05D-06
 ErrMax= 1.05D-06  0.00D+00 EMaxC= 1.00D-01 BMatC= 2.19D-10 BMatP= 1.61D-09
 IDIUse=1 WtCom= 1.00D+00 WtEn= 0.00D+00
 Coeff-Com:  0.894D-04-0.119D-03 0.122D-04-0.192D-03-0.455D-03-0.156D-02
 Coeff-Com: -0.197D-02 0.531D-02 0.239D-01-0.113D-01-0.826D-01-0.484D-01
 Coeff-Com:  0.252D+00 0.865D+00
 Coeff:      0.894D-04-0.119D-03 0.122D-04-0.192D-03-0.455D-03-0.156D-02
 Coeff:     -0.197D-02 0.531D-02 0.239D-01-0.113D-01-0.826D-01-0.484D-01
 Coeff:      0.252D+00 0.865D+00
 Gap=     0.236 Goal=   None    Shift=    0.000
 RMSDP=8.18D-07 MaxDP=7.60D-05 DE=-8.30D-09 OVMax= 2.21D-05

 Cycle  15  Pass 1  IDiag  1:
 RMSU=  2.88D-07    CP:  2.31D-01  3.00D+00  1.27D+00  7.50D-01  1.03D+00
                    CP:  1.40D+00  1.73D+00  1.63D+00  2.30D+00  2.01D+00
                    CP:  1.66D+00  1.51D+00  1.51D+00  1.27D+00
 E= -3010.55416108866     Delta-E=       -0.000000000698 Rises=F Damp=F
 DIIS: error= 4.35D-07 at cycle  15 NSaved=  15.
 NSaved=15 IEnMin=15 EnMin= -3010.55416108866     IErMin=15 ErrMin= 4.35D-07
 ErrMax= 4.35D-07  0.00D+00 EMaxC= 1.00D-01 BMatC= 4.20D-11 BMatP= 2.19D-10
 IDIUse=1 WtCom= 1.00D+00 WtEn= 0.00D+00
 Coeff-Com:  0.280D-04-0.374D-04 0.777D-05-0.137D-04 0.125D-03 0.127D-03
 Coeff-Com: -0.320D-03-0.370D-03 0.251D-02 0.468D-02-0.988D-02-0.395D-01
 Coeff-Com: -0.411D-01 0.341D+00 0.743D+00
 Coeff:      0.280D-04-0.374D-04 0.777D-05-0.137D-04 0.125D-03 0.127D-03
 Coeff:     -0.320D-03-0.370D-03 0.251D-02 0.468D-02-0.988D-02-0.395D-01
 Coeff:     -0.411D-01 0.341D+00 0.743D+00
 Gap=     0.236 Goal=   None    Shift=    0.000
 RMSDP=2.39D-07 MaxDP=1.63D-05 DE=-6.98D-10 OVMax= 7.40D-06

 Cycle  16  Pass 1  IDiag  1:
 RMSU=  9.19D-08    CP:  2.31D-01  3.00D+00  1.27D+00  7.50D-01  1.03D+00
                    CP:  1.40D+00  1.73D+00  1.63D+00  2.30D+00  2.01D+00
                    CP:  1.67D+00  1.53D+00  1.55D+00  1.45D+00  1.07D+00
 E= -3010.55416108871     Delta-E=       -0.000000000045 Rises=F Damp=F
 DIIS: error= 1.41D-07 at cycle  16 NSaved=  16.
 NSaved=16 IEnMin=16 EnMin= -3010.55416108871     IErMin=16 ErrMin= 1.41D-07
 ErrMax= 1.41D-07  0.00D+00 EMaxC= 1.00D-01 BMatC= 4.18D-12 BMatP= 4.20D-11
 IDIUse=1 WtCom= 1.00D+00 WtEn= 0.00D+00
 Coeff-Com: -0.286D-05 0.378D-05 0.955D-06 0.210D-04 0.966D-04 0.285D-03
 Coeff-Com:  0.200D-03-0.101D-02-0.289D-02 0.392D-02 0.925D-02-0.550D-02
 Coeff-Com: -0.539D-01-0.430D-01 0.187D+00 0.906D+00
 Coeff:     -0.286D-05 0.378D-05 0.955D-06 0.210D-04 0.966D-04 0.285D-03
 Coeff:      0.200D-03-0.101D-02-0.289D-02 0.392D-02 0.925D-02-0.550D-02
 Coeff:     -0.539D-01-0.430D-01 0.187D+00 0.906D+00
 Gap=     0.236 Goal=   None    Shift=    0.000
 RMSDP=1.20D-07 MaxDP=7.46D-06 DE=-4.55D-11 OVMax= 3.63D-06

 Cycle  17  Pass 1  IDiag  1:
 RMSU=  2.99D-08    CP:  2.31D-01  3.00D+00  1.27D+00  7.50D-01  1.03D+00
                    CP:  1.40D+00  1.73D+00  1.63D+00  2.30D+00  2.01D+00
                    CP:  1.66D+00  1.54D+00  1.58D+00  1.51D+00  1.26D+00
                    CP:  1.11D+00
 E= -3010.55416108876     Delta-E=       -0.000000000050 Rises=F Damp=F
 DIIS: error= 5.56D-08 at cycle  17 NSaved=  17.
 NSaved=17 IEnMin=17 EnMin= -3010.55416108876     IErMin=17 ErrMin= 5.56D-08
 ErrMax= 5.56D-08  0.00D+00 EMaxC= 1.00D-01 BMatC= 4.49D-13 BMatP= 4.18D-12
 IDIUse=1 WtCom= 1.00D+00 WtEn= 0.00D+00
 Coeff-Com: -0.234D-05 0.311D-05-0.408D-06 0.319D-05-0.127D-06 0.336D-04
 Coeff-Com:  0.751D-04-0.870D-04-0.641D-03 0.176D-03 0.209D-02 0.308D-02
 Coeff-Com: -0.322D-02-0.348D-01-0.612D-01 0.158D+00 0.937D+00
 Coeff:     -0.234D-05 0.311D-05-0.408D-06 0.319D-05-0.127D-06 0.336D-04
 Coeff:      0.751D-04-0.870D-04-0.641D-03 0.176D-03 0.209D-02 0.308D-02
 Coeff:     -0.322D-02-0.348D-01-0.612D-01 0.158D+00 0.937D+00
 Gap=     0.236 Goal=   None    Shift=    0.000
 RMSDP=4.24D-08 MaxDP=3.54D-06 DE=-5.00D-11 OVMax= 9.46D-07

 Cycle  18  Pass 1  IDiag  1:
 RMSU=  1.26D-08    CP:  2.31D-01  3.00D+00  1.27D+00  7.50D-01  1.03D+00
                    CP:  1.40D+00  1.73D+00  1.63D+00  2.30D+00  2.01D+00
                    CP:  1.66D+00  1.54D+00  1.58D+00  1.52D+00  1.31D+00
                    CP:  1.24D+00  1.36D+00
 E= -3010.55416108873     Delta-E=        0.000000000025 Rises=F Damp=F
 DIIS: error= 1.44D-08 at cycle  18 NSaved=  18.
 NSaved=18 IEnMin=17 EnMin= -3010.55416108876     IErMin=18 ErrMin= 1.44D-08
 ErrMax= 1.44D-08  0.00D+00 EMaxC= 1.00D-01 BMatC= 1.08D-13 BMatP= 4.49D-13
 IDIUse=1 WtCom= 1.00D+00 WtEn= 0.00D+00
 Coeff-Com:  0.223D-06-0.304D-06-0.115D-06-0.249D-05-0.156D-04-0.301D-04
 Coeff-Com:  0.213D-05 0.105D-03 0.149D-03-0.493D-03-0.462D-03 0.213D-02
 Coeff-Com:  0.623D-02-0.698D-02-0.552D-01-0.707D-01 0.356D+00 0.769D+00
 Coeff:      0.223D-06-0.304D-06-0.115D-06-0.249D-05-0.156D-04-0.301D-04
 Coeff:      0.213D-05 0.105D-03 0.149D-03-0.493D-03-0.462D-03 0.213D-02
 Coeff:      0.623D-02-0.698D-02-0.552D-01-0.707D-01 0.356D+00 0.769D+00
 Gap=     0.236 Goal=   None    Shift=    0.000
 RMSDP=9.82D-09 MaxDP=4.38D-07 DE= 2.46D-11 OVMax= 2.19D-07

 SCF Done:  E(RwB97XD) =  -3010.55416109     A.U. after   18 cycles
            NFock= 18  Conv=0.98D-08     -V/T= 2.0016
 KE= 3.005810595576D+03 PE=-8.628632585457D+03 EE= 1.875707228649D+03
 Leave Link  502 at Wed May  1 15:29:40 2024, MaxMem=  1207959552 cpu:            1052.8 elap:            1052.9
 (Enter /software/gaussian/g16-c01/sse4/g16/l601.exe)
 Copying SCF densities to generalized density rwf, IOpCl= 0 IROHF=0.

 **********************************************************************

            Population analysis using the SCF Density.

 **********************************************************************

 Alpha  occ. eigenvalues -- -483.27866 -62.82827 -56.62584 -56.61923 -56.61923
 Alpha  occ. eigenvalues --  -19.44857 -19.44803 -14.84348 -10.56536 -10.56107
 Alpha  occ. eigenvalues --  -10.55996 -10.55754 -10.55594 -10.51911  -8.98587
 Alpha  occ. eigenvalues --   -6.81432  -6.79290  -6.79282  -2.91296  -2.90729
 Alpha  occ. eigenvalues --   -2.90721  -2.89009  -2.89009  -1.48611  -1.31594
 Alpha  occ. eigenvalues --   -1.21292  -1.12437  -1.10417  -1.01478  -0.99906
 Alpha  occ. eigenvalues --   -0.94019  -0.89750  -0.84228  -0.79735  -0.79433
 Alpha  occ. eigenvalues --   -0.78891  -0.77276  -0.75027  -0.74768  -0.70502
 Alpha  occ. eigenvalues --   -0.68097  -0.66377  -0.61613  -0.58409  -0.56024
 Alpha  occ. eigenvalues --   -0.55133  -0.54584  -0.52213  -0.51618
 Alpha virt. eigenvalues --   -0.27981  -0.20345  -0.15037  -0.13595  -0.11219
 Alpha virt. eigenvalues --   -0.10254  -0.09882  -0.06641  -0.05915  -0.05159
 Alpha virt. eigenvalues --   -0.02927  -0.01543  -0.00580   0.00437   0.00716
 Alpha virt. eigenvalues --    0.02441   0.02577   0.03784   0.03891   0.04820
 Alpha virt. eigenvalues --    0.05574   0.06292   0.07226   0.07445   0.07705
 Alpha virt. eigenvalues --    0.08625   0.08903   0.09577   0.11296   0.11385
 Alpha virt. eigenvalues --    0.11861   0.12470   0.12905   0.13712   0.14126
 Alpha virt. eigenvalues --    0.15746   0.16152   0.16557   0.17249   0.17557
 Alpha virt. eigenvalues --    0.17983   0.18569   0.18715   0.19615   0.20792
 Alpha virt. eigenvalues --    0.21013   0.22588   0.22899   0.23661   0.26263
 Alpha virt. eigenvalues --    0.26657   0.28896   0.29836   0.32126   0.34439
 Alpha virt. eigenvalues --    0.35040   0.35261   0.36134   0.38391   0.38491
 Alpha virt. eigenvalues --    0.39260   0.40084   0.41316   0.42186   0.43602
 Alpha virt. eigenvalues --    0.44701   0.45104   0.45824   0.47084   0.48573
 Alpha virt. eigenvalues --    0.49328   0.51640   0.52635   0.53845   0.54376
 Alpha virt. eigenvalues --    0.55549   0.56851   0.57328   0.58631   0.60528
 Alpha virt. eigenvalues --    0.62516   0.63583   0.65770   0.68551   0.70081
 Alpha virt. eigenvalues --    0.71230   0.73288   0.73776   0.74592   0.75278
 Alpha virt. eigenvalues --    0.76272   0.80288   0.81085   0.85896   0.86418
 Alpha virt. eigenvalues --    0.88177   0.89223   0.92792   0.94638   0.99845
 Alpha virt. eigenvalues --    1.00768   1.02246   1.05875   1.06398   1.07742
 Alpha virt. eigenvalues --    1.10736   1.11735   1.13193   1.13628   1.15248
 Alpha virt. eigenvalues --    1.23007   1.25445   1.27687   1.34061   1.37538
 Alpha virt. eigenvalues --    1.37888   1.39262   1.46639   1.55451   1.58164
 Alpha virt. eigenvalues --    1.59565   1.59874   1.61660   1.63436   1.67514
 Alpha virt. eigenvalues --    1.70180   1.71014   1.74607   1.76276   1.80124
 Alpha virt. eigenvalues --    1.82141   1.86443   1.88581   1.96618   1.98911
 Alpha virt. eigenvalues --    2.00398   2.03995   2.05083   2.08623   2.09673
 Alpha virt. eigenvalues --    2.11469   2.15964   2.21358   2.23622   2.30201
 Alpha virt. eigenvalues --    2.38433   2.42144   2.43242   2.44454   2.53530
 Alpha virt. eigenvalues --    2.57570   2.64055   2.67142   2.69225   2.72725
 Alpha virt. eigenvalues --    2.74397   2.77517   2.78357   2.82072   2.83021
 Alpha virt. eigenvalues --    2.94838   2.97491   3.01644   3.06746   3.10076
 Alpha virt. eigenvalues --    3.13956   3.15997   3.20030   3.24707   3.25273
 Alpha virt. eigenvalues --    3.28348   3.40132   3.48629   3.52278   3.55541
 Alpha virt. eigenvalues --    3.57894   3.70938   3.75137   3.83284   3.88343
 Alpha virt. eigenvalues --    4.12738   4.12942   4.20101   4.25382   4.45340
 Alpha virt. eigenvalues --    4.46111   4.58655   4.60936   4.94192   4.96850
 Alpha virt. eigenvalues --    5.05503   5.09671   5.63832   6.16757   6.68269
 Alpha virt. eigenvalues --    7.51476   7.53021   7.62586  23.22499  23.62381
 Alpha virt. eigenvalues --   23.71173  23.80720  23.97089  24.02507  35.33610
 Alpha virt. eigenvalues --   47.94650  49.86558  49.95368 289.83917 289.85585
 Alpha virt. eigenvalues --  289.979761020.94981
          Condensed to atoms (all electrons):
               1          2          3          4          5          6
     1  C    8.942179  -1.796196  -0.494387  -1.150771  -0.742827   0.306534
     2  C   -1.796196  13.405644  -1.289879  -4.519223   0.717587  -0.022287
     3  C   -0.494387  -1.289879  14.067403  -4.239307  -0.808992   0.035859
     4  C   -1.150771  -4.519223  -4.239307  18.798055   0.684234   0.001476
     5  C   -0.742827   0.717587  -0.808992   0.684234   7.979424   0.009835
     6  H    0.306534  -0.022287   0.035859   0.001476   0.009835   0.340111
     7  H    0.062570   0.225128   0.081653  -0.029334  -0.024999  -0.001576
     8  H    0.007515  -0.008471   0.082552   0.202686  -0.024127   0.000002
     9  H    0.038428  -0.029315   0.003409  -0.005247   0.289553  -0.002296
    10  N   -0.108185   0.368542  -1.069331   0.327581  -0.010595  -0.000776
    11  O    0.025180   0.005860  -0.218175  -0.146457  -0.058685  -0.000027
    12  O    0.293470  -0.185027  -0.238997   0.056602  -0.048676   0.000109
    13  C    1.155456  -1.315913   0.731350  -4.206932  -1.878730   0.002264
    14  H   -0.036166   0.010741  -0.005082   0.026447   0.035574  -0.000012
    15  Br   0.037003   0.008021   0.048366  -0.051464  -0.041645   0.000061
               7          8          9         10         11         12
     1  C    0.062570   0.007515   0.038428  -0.108185   0.025180   0.293470
     2  C    0.225128  -0.008471  -0.029315   0.368542   0.005860  -0.185027
     3  C    0.081653   0.082552   0.003409  -1.069331  -0.218175  -0.238997
     4  C   -0.029334   0.202686  -0.005247   0.327581  -0.146457   0.056602
     5  C   -0.024999  -0.024127   0.289553  -0.010595  -0.058685  -0.048676
     6  H   -0.001576   0.000002  -0.002296  -0.000776  -0.000027   0.000109
     7  H    0.301251   0.000030   0.000079  -0.027076  -0.001485   0.021615
     8  H    0.000030   0.304961   0.000197  -0.025611   0.024019  -0.000884
     9  H    0.000079   0.000197   0.342253   0.000590  -0.000027   0.000018
    10  N   -0.027076  -0.025611   0.000590   7.455317   0.175000   0.123568
    11  O   -0.001485   0.024019  -0.000027   0.175000   7.852459  -0.008313
    12  O    0.021615  -0.000884   0.000018   0.123568  -0.008313   7.904513
    13  C    0.023339   0.068254   0.020725  -0.095986   0.313916   0.045811
    14  H   -0.000070  -0.009092  -0.010292  -0.001388  -0.000019   0.000021
    15  Br   0.000463   0.007332   0.006337   0.003242   0.001917   0.003586
              13         14         15
     1  C    1.155456  -0.036166   0.037003
     2  C   -1.315913   0.010741   0.008021
     3  C    0.731350  -0.005082   0.048366
     4  C   -4.206932   0.026447  -0.051464
     5  C   -1.878730   0.035574  -0.041645
     6  H    0.002264  -0.000012   0.000061
     7  H    0.023339  -0.000070   0.000463
     8  H    0.068254  -0.009092   0.007332
     9  H    0.020725  -0.010292   0.006337
    10  N   -0.095986  -0.001388   0.003242
    11  O    0.313916  -0.000019   0.001917
    12  O    0.045811   0.000021   0.003586
    13  C   11.140841   0.241058   0.207150
    14  H    0.241058   0.484764  -0.057971
    15  Br   0.207150  -0.057971  34.437645
 Mulliken charges:
               1
     1  C   -0.539802
     2  C    0.424790
     3  C   -0.686443
     4  C    0.251654
     5  C   -0.076931
     6  H    0.330723
     7  H    0.368413
     8  H    0.370638
     9  H    0.345587
    10  N   -0.114892
    11  O    0.034839
    12  O    0.032584
    13  C   -0.452603
    14  H    0.321487
    15  Br   0.389957
 Sum of Mulliken charges =   1.00000
 Mulliken charges with hydrogens summed into heavy atoms:
               1
     1  C   -0.209079
     2  C    0.793203
     3  C   -0.686443
     4  C    0.622292
     5  C    0.268655
    10  N   -0.114892
    11  O    0.034839
    12  O    0.032584
    13  C   -0.131116
    15  Br   0.389957
 Electronic spatial extent (au):  <R**2>=           2795.2300
 Charge=              1.0000 electrons
 Dipole moment (field-independent basis, Debye):
    X=             -1.4040    Y=             -1.5029    Z=             -4.1121  Tot=              4.5977
 Quadrupole moment (field-independent basis, Debye-Ang):
   XX=            -72.0952   YY=            -50.8112   ZZ=            -58.7203
   XY=              1.9792   XZ=             -0.7814   YZ=              5.1120
 Traceless Quadrupole moment (field-independent basis, Debye-Ang):
   XX=            -11.5530   YY=              9.7310   ZZ=              1.8220
   XY=              1.9792   XZ=             -0.7814   YZ=              5.1120
 Octapole moment (field-independent basis, Debye-Ang**2):
  XXX=           -303.8546  YYY=             81.3131  ZZZ=             59.2198  XYY=            -78.5098
  XXY=             28.9815  XXZ=             18.5590  XZZ=            -81.0356  YZZ=              7.1779
  YYZ=             12.8940  XYZ=             -5.7591
 Hexadecapole moment (field-independent basis, Debye-Ang**3):
 XXXX=          -2294.9070 YYYY=           -664.5444 ZZZZ=           -311.9913 XXXY=            -65.7642
 XXXZ=            -59.3449 YYYX=            -55.3498 YYYZ=           -134.4427 ZZZX=            -15.7426
 ZZZY=           -109.9641 XXYY=           -456.6510 XXZZ=           -366.6230 YYZZ=           -144.1981
 XXYZ=            -51.4398 YYXZ=             -1.7862 ZZXY=             -3.2594
 N-N= 7.365606001437D+02 E-N=-8.628632585851D+03  KE= 3.005810595576D+03
 No NMR shielding tensors so no spin-rotation constants.
 Leave Link  601 at Wed May  1 15:29:47 2024, MaxMem=  1207959552 cpu:               7.3 elap:               7.3
 (Enter /software/gaussian/g16-c01/sse4/g16/l9999.exe)
 Unable to Open any file for archive entry.
 1\1\GINC-BHX0030\SP\RwB97XD\6-311+G(d)\C6H5Br1N1O2(1+)\BWEIGHT\01-May-
 2024\0\\#P wB97XD/6-311+G* NoSymm #P Field=Z+233\\TitleMe\\1,1\C,0,0.0
 295,1.3397,0.0682\C,0,1.4348,1.2867,0.0064\C,0,2.1118,0.0511,-0.0054\C
 ,0,1.4451,-1.1372,0.0312\C,0,-0.6879,0.1682,0.11\H,0,-0.4713,2.2984,0.
 0781\H,0,2.0273,2.1965,-0.0322\H,0,1.9897,-2.0764,0.0232\H,0,-1.7716,0
 .1804,0.1582\N,0,3.5864,0.051,-0.0675\O,0,4.1471,-1.0597,-0.0881\O,0,4
 .145,1.1639,-0.0901\C,0,-0.0236,-1.1458,0.0835\H,0,-0.4367,-1.8725,0.7
 889\Br,0,-0.5359,-1.8697,-1.7408\\Version=ES64L-G16RevC.01\HF=-3010.55
 41611\RMSD=9.823e-09\Dipole=-2.4589242,0.5567898,-0.4716316\Quadrupole
 =-8.5893513,7.2347684,1.354583,1.4714902,-0.5809682,3.800627\PG=C01 [X
 (C6H5Br1N1O2)]\\@
 The archive entry for this job was punched.


 A SCIENTIST IS SOMEONE WHOSE CURIOSITY SURVIVES
 EDUCATION'S ASSAULTS ON IT.
                          - SIR HERMANN BONDI
 Job cpu time:       0 days  0 hours 18 minutes 43.0 seconds.
 Elapsed time:       0 days  0 hours 18 minutes 43.0 seconds.
 File lengths (MBytes):  RWF=     40 Int=      0 D2E=      0 Chk=     32 Scr=      1
 Normal termination of Gaussian 16 at Wed May  1 15:29:48 2024.
