 Entering Gaussian System, Link 0=g16
 Initial command:
 /software/gaussian/g16-a03/l1.exe "/local_scratch/6484798/Gau-24415.inp" -scrdir="/local_scratch/6484798/"
 Entering Link 1 = /software/gaussian/g16-a03/l1.exe PID=     24575.
  
 Copyright (c) 1988,1990,1992,1993,1995,1998,2003,2009,2016,
            Gaussian, Inc.  All Rights Reserved.
  
 This is part of the Gaussian(R) 16 program.  It is based on
 the Gaussian(R) 09 system (copyright 2009, Gaussian, Inc.),
 the Gaussian(R) 03 system (copyright 2003, Gaussian, Inc.),
 the Gaussian(R) 98 system (copyright 1998, Gaussian, Inc.),
 the Gaussian(R) 94 system (copyright 1995, Gaussian, Inc.),
 the Gaussian 92(TM) system (copyright 1992, Gaussian, Inc.),
 the Gaussian 90(TM) system (copyright 1990, Gaussian, Inc.),
 the Gaussian 88(TM) system (copyright 1988, Gaussian, Inc.),
 the Gaussian 86(TM) system (copyright 1986, Carnegie Mellon
 University), and the Gaussian 82(TM) system (copyright 1983,
 Carnegie Mellon University). Gaussian is a federally registered
 trademark of Gaussian, Inc.
  
 This software contains proprietary and confidential information,
 including trade secrets, belonging to Gaussian, Inc.
  
 This software is provided under written license and may be
 used, copied, transmitted, or stored only in accord with that
 written license.
  
 The following legend is applicable only to US Government
 contracts under FAR:
  
                    RESTRICTED RIGHTS LEGEND
  
 Use, reproduction and disclosure by the US Government is
 subject to restrictions as set forth in subparagraphs (a)
 and (c) of the Commercial Computer Software - Restricted
 Rights clause in FAR 52.227-19.
  
 Gaussian, Inc.
 340 Quinnipiac St., Bldg. 40, Wallingford CT 06492
  
  
 ---------------------------------------------------------------
 Warning -- This program may not be used in any manner that
 competes with the business of Gaussian, Inc. or will provide
 assistance to any competitor of Gaussian, Inc.  The licensee
 of this program is prohibited from giving any competitor of
 Gaussian, Inc. access to this program.  By using this program,
 the user acknowledges that Gaussian, Inc. is engaged in the
 business of creating and licensing software in the field of
 computational chemistry and represents and warrants to the
 licensee that it is not a competitor of Gaussian, Inc. and that
 it will not use this program in any manner prohibited above.
 ---------------------------------------------------------------
  

 Cite this work as:
 Gaussian 16, Revision A.03,
 M. J. Frisch, G. W. Trucks, H. B. Schlegel, G. E. Scuseria, 
 M. A. Robb, J. R. Cheeseman, G. Scalmani, V. Barone, 
 G. A. Petersson, H. Nakatsuji, X. Li, M. Caricato, A. V. Marenich, 
 J. Bloino, B. G. Janesko, R. Gomperts, B. Mennucci, H. P. Hratchian, 
 J. V. Ortiz, A. F. Izmaylov, J. L. Sonnenberg, D. Williams-Young, 
 F. Ding, F. Lipparini, F. Egidi, J. Goings, B. Peng, A. Petrone, 
 T. Henderson, D. Ranasinghe, V. G. Zakrzewski, J. Gao, N. Rega, 
 G. Zheng, W. Liang, M. Hada, M. Ehara, K. Toyota, R. Fukuda, 
 J. Hasegawa, M. Ishida, T. Nakajima, Y. Honda, O. Kitao, H. Nakai, 
 T. Vreven, K. Throssell, J. A. Montgomery, Jr., J. E. Peralta, 
 F. Ogliaro, M. J. Bearpark, J. J. Heyd, E. N. Brothers, K. N. Kudin, 
 V. N. Staroverov, T. A. Keith, R. Kobayashi, J. Normand, 
 K. Raghavachari, A. P. Rendell, J. C. Burant, S. S. Iyengar, 
 J. Tomasi, M. Cossi, J. M. Millam, M. Klene, C. Adamo, R. Cammi, 
 J. W. Ochterski, R. L. Martin, K. Morokuma, O. Farkas, 
 J. B. Foresman, and D. J. Fox, Gaussian, Inc., Wallingford CT, 2016.
 
 ******************************************
 Gaussian 16:  ES64L-G16RevA.03 25-Dec-2016
                17-Sep-2021 
 ******************************************
 %chk=geometry.chk
 %mem=2GB
 %nprocshared=1
 Will use up to    1 processors via shared memory.
 --------------------------------------------------------------------
 #p B3LYP/6-311+G** #p TD=(singlets,nstates=30)IOp(6/8=3) IOp(9/40=4)
 --------------------------------------------------------------------
 1/38=1,172=1/1;
 2/12=2,17=6,18=5,40=1/2;
 3/5=4,6=6,7=111,11=9,25=1,30=1,74=-5/1,2,3,8;
 4//1;
 5/5=2,38=5/2;
 8/6=1,10=2,108=30/1;
 9/40=4,41=30,42=1,48=1,70=2/14;
 6/7=2,8=3,9=2,10=2/1;
 99/5=1,9=1/99;
 Leave Link    1 at Fri Sep 17 10:52:01 2021, MaxMem=   268435456 cpu:               0.0 elap:               0.1
 (Enter /software/gaussian/g16-a03/l101.exe)
 -------------------------------
 Scan Step 67, Bond Length 0.835
 -------------------------------
 Symbolic Z-matrix:
 Charge =  0 Multiplicity = 1
 C                     0.        0.       -0.52736 
 H                     0.        0.93726  -1.11871 
 H                     0.       -0.93726  -1.11871 
 O                     0.        0.        0.30764 
 
 ITRead=  0  0  0  0
 MicOpt= -1 -1 -1 -1
 NAtoms=      4 NQM=        4 NQMF=       0 NMMI=      0 NMMIF=      0
                NMic=       0 NMicF=      0.
                    Isotopes and Nuclear Properties:
 (Nuclear quadrupole moments (NQMom) in fm**2, nuclear magnetic moments (NMagM)
  in nuclear magnetons)

  Atom         1           2           3           4
 IAtWgt=          12           1           1          16
 AtmWgt=  12.0000000   1.0078250   1.0078250  15.9949146
 NucSpn=           0           1           1           0
 AtZEff=  -0.0000000  -0.0000000  -0.0000000  -0.0000000
 NQMom=    0.0000000   0.0000000   0.0000000   0.0000000
 NMagM=    0.0000000   2.7928460   2.7928460   0.0000000
 AtZNuc=   6.0000000   1.0000000   1.0000000   8.0000000
 Leave Link  101 at Fri Sep 17 10:52:01 2021, MaxMem=   268435456 cpu:               0.1 elap:               0.1
 (Enter /software/gaussian/g16-a03/l202.exe)
                          Input orientation:                          
 ---------------------------------------------------------------------
 Center     Atomic      Atomic             Coordinates (Angstroms)
 Number     Number       Type             X           Y           Z
 ---------------------------------------------------------------------
      1          6           0        0.000000    0.000000   -0.527360
      2          1           0        0.000000    0.937260   -1.118710
      3          1           0        0.000000   -0.937260   -1.118710
      4          8           0        0.000000    0.000000    0.307640
 ---------------------------------------------------------------------
                    Distance matrix (angstroms):
                    1          2          3          4
     1  C    0.000000
     2  H    1.108220   0.000000
     3  H    1.108220   1.874520   0.000000
     4  O    0.835000   1.706731   1.706731   0.000000
 Stoichiometry    CH2O
 Framework group  C2V[C2(CO),SGV(H2)]
 Deg. of freedom     3
 Full point group                 C2V     NOp   4
 Largest Abelian subgroup         C2V     NOp   4
 Largest concise Abelian subgroup C2      NOp   2
                         Standard orientation:                         
 ---------------------------------------------------------------------
 Center     Atomic      Atomic             Coordinates (Angstroms)
 Number     Number       Type             X           Y           Z
 ---------------------------------------------------------------------
      1          6           0        0.000000    0.000000   -0.343581
      2          1           0        0.000000    0.937260   -0.934931
      3          1           0       -0.000000   -0.937260   -0.934931
      4          8           0        0.000000   -0.000000    0.491419
 ---------------------------------------------------------------------
 Rotational constants (GHZ):         285.4183527          72.9608032          58.1070409
 Leave Link  202 at Fri Sep 17 10:52:02 2021, MaxMem=   268435456 cpu:               0.0 elap:               0.0
 (Enter /software/gaussian/g16-a03/l301.exe)
 Standard basis: 6-311+G(d,p) (5D, 7F)
 Ernie: Thresh=  0.10000D-02 Tol=  0.10000D-05 Strict=F.
 There are    29 symmetry adapted cartesian basis functions of A1  symmetry.
 There are     3 symmetry adapted cartesian basis functions of A2  symmetry.
 There are    11 symmetry adapted cartesian basis functions of B1  symmetry.
 There are    15 symmetry adapted cartesian basis functions of B2  symmetry.
 There are    27 symmetry adapted basis functions of A1  symmetry.
 There are     3 symmetry adapted basis functions of A2  symmetry.
 There are    11 symmetry adapted basis functions of B1  symmetry.
 There are    15 symmetry adapted basis functions of B2  symmetry.
    56 basis functions,    88 primitive gaussians,    58 cartesian basis functions
     8 alpha electrons        8 beta electrons
       nuclear repulsion energy        41.3929417658 Hartrees.
 IExCor=  402 DFT=T Ex+Corr=B3LYP ExCW=0 ScaHFX=  0.200000
 ScaDFX=  0.800000  0.720000  1.000000  0.810000 ScalE2=  1.000000  1.000000
 IRadAn=      5 IRanWt=     -1 IRanGd=            0 ICorTp=0 IEmpDi=  4
 NAtoms=    4 NActive=    4 NUniq=    3 SFac= 1.78D+00 NAtFMM=   60 NAOKFM=F Big=F
 Integral buffers will be    131072 words long.
 Regular integral format.
 Two-electron integral symmetry is turned on.
 Leave Link  301 at Fri Sep 17 10:52:02 2021, MaxMem=   268435456 cpu:               0.0 elap:               0.1
 (Enter /software/gaussian/g16-a03/l302.exe)
 NPDir=0 NMtPBC=     1 NCelOv=     1 NCel=       1 NClECP=     1 NCelD=      1
         NCelK=      1 NCelE2=     1 NClLst=     1 CellRange=     0.0.
 One-electron integrals computed using PRISM.
 One-electron integral symmetry used in STVInt
 NBasis=    56 RedAO= T EigKep=  1.01D-03  NBF=    27     3    11    15
 NBsUse=    56 1.00D-06 EigRej= -1.00D+00 NBFU=    27     3    11    15
 Precomputing XC quadrature grid using
 IXCGrd= 4 IRadAn=           5 IRanWt=          -1 IRanGd=           0 AccXCQ= 0.00D+00.
 Generated NRdTot=       0 NPtTot=           0 NUsed=           0 NTot=          32
 NSgBfM=    58    58    58    58    58 MxSgAt=     4 MxSgA2=     4.
 Leave Link  302 at Fri Sep 17 10:52:02 2021, MaxMem=   268435456 cpu:               0.1 elap:               0.1
 (Enter /software/gaussian/g16-a03/l303.exe)
 DipDrv:  MaxL=1.
 Leave Link  303 at Fri Sep 17 10:52:02 2021, MaxMem=   268435456 cpu:               0.0 elap:               0.0
 (Enter /software/gaussian/g16-a03/l308.exe)
 Leave Link  308 at Fri Sep 17 10:52:02 2021, MaxMem=   268435456 cpu:               0.0 elap:               0.0
 (Enter /software/gaussian/g16-a03/l401.exe)
 ExpMin= 4.38D-02 ExpMax= 8.59D+03 ExpMxC= 1.30D+03 IAcc=3 IRadAn=         5 AccDes= 0.00D+00
 Harris functional with IExCor=  402 and IRadAn=       5 diagonalized for initial guess.
 HarFok:  IExCor=  402 AccDes= 0.00D+00 IRadAn=         5 IDoV= 1 UseB2=F ITyADJ=14
 ICtDFT=  3500011 ScaDFX=  1.000000  1.000000  1.000000  1.000000
 FoFCou: FMM=F IPFlag=           0 FMFlag=      100000 FMFlg1=           0
         NFxFlg=           0 DoJE=T BraDBF=F KetDBF=T FulRan=T
         wScrn=  0.000000 ICntrl=       500 IOpCl=  0 I1Cent=   200000004 NGrid=           0
         NMat0=    1 NMatS0=      1 NMatT0=    0 NMatD0=    1 NMtDS0=    0 NMtDT0=    0
 Petite list used in FoFCou.
 Harris En= -114.151292330793    
 JPrj=0 DoOrth=F DoCkMO=F.
 Initial guess orbital symmetries:
       Occupied  (A1) (A1) (A1) (B2) (B1) (A1) (A1) (B2)
       Virtual   (B1) (A1) (B2) (A1) (B1) (A1) (A1) (B2) (B2) (B1)
                 (A1) (A1) (A1) (B1) (B2) (B2) (A1) (A1) (A2) (B1)
                 (B2) (A1) (A1) (B1) (B2) (A1) (A2) (B2) (B1) (A1)
                 (A1) (B2) (A1) (B2) (B1) (A1) (A1) (A2) (B2) (A1)
                 (B1) (B2) (A1) (B1) (B2) (A1) (A1) (A1)
 The electronic state of the initial guess is 1-A1.
 Leave Link  401 at Fri Sep 17 10:52:02 2021, MaxMem=   268435456 cpu:               0.3 elap:               0.3
 (Enter /software/gaussian/g16-a03/l502.exe)
 Keep R1 ints in memory in symmetry-blocked form, NReq=2159909.
 FoFCou: FMM=F IPFlag=           0 FMFlag=           0 FMFlg1=           0
         NFxFlg=           0 DoJE=F BraDBF=F KetDBF=F FulRan=T
         wScrn=  0.000000 ICntrl=       600 IOpCl=  0 I1Cent=           0 NGrid=           0
         NMat0=    1 NMatS0=   1596 NMatT0=    0 NMatD0=    1 NMtDS0=    0 NMtDT0=    0
 Petite list used in FoFCou.
 Closed shell SCF:
 Using DIIS extrapolation, IDIIS=  1040.
 NGot=   268435456 LenX=   268074384 LenY=   268070579
 Requested convergence on RMS density matrix=1.00D-08 within 128 cycles.
 Requested convergence on MAX density matrix=1.00D-06.
 Requested convergence on             energy=1.00D-06.
 No special actions if energy rises.

 Cycle   1  Pass 1  IDiag  1:
 E= -113.832729605959    
 DIIS: error= 8.70D-02 at cycle   1 NSaved=   1.
 NSaved= 1 IEnMin= 1 EnMin= -113.832729605959     IErMin= 1 ErrMin= 8.70D-02
 ErrMax= 8.70D-02  0.00D+00 EMaxC= 1.00D-01 BMatC= 3.01D-01 BMatP= 3.01D-01
 IDIUse=3 WtCom= 1.30D-01 WtEn= 8.70D-01
 Coeff-Com:  0.100D+01
 Coeff-En:   0.100D+01
 Coeff:      0.100D+01
 Gap=     0.142 Goal=   None    Shift=    0.000
 GapD=    0.142 DampG=1.000 DampE=0.500 DampFc=0.5000 IDamp=-1.
 Damping current iteration by 5.00D-01
 RMSDP=1.49D-02 MaxDP=2.10D-01              OVMax= 3.01D-01

 Cycle   2  Pass 1  IDiag  1:
 E= -113.903117381294     Delta-E=       -0.070387775335 Rises=F Damp=T
 DIIS: error= 1.54D-02 at cycle   2 NSaved=   2.
 NSaved= 2 IEnMin= 2 EnMin= -113.903117381294     IErMin= 2 ErrMin= 1.54D-02
 ErrMax= 1.54D-02  0.00D+00 EMaxC= 1.00D-01 BMatC= 1.07D-02 BMatP= 3.01D-01
 IDIUse=3 WtCom= 8.46D-01 WtEn= 1.54D-01
 Coeff-Com:  0.627D-01 0.937D+00
 Coeff-En:   0.204D+00 0.796D+00
 Coeff:      0.844D-01 0.916D+00
 Gap=     0.262 Goal=   None    Shift=    0.000
 RMSDP=3.76D-03 MaxDP=5.39D-02 DE=-7.04D-02 OVMax= 1.77D-01

 Cycle   3  Pass 1  IDiag  1:
 E= -114.008178117165     Delta-E=       -0.105060735872 Rises=F Damp=F
 DIIS: error= 1.56D-02 at cycle   3 NSaved=   3.
 NSaved= 3 IEnMin= 3 EnMin= -114.008178117165     IErMin= 2 ErrMin= 1.54D-02
 ErrMax= 1.56D-02  0.00D+00 EMaxC= 1.00D-01 BMatC= 7.01D-03 BMatP= 1.07D-02
 IDIUse=3 WtCom= 8.44D-01 WtEn= 1.56D-01
 Coeff-Com: -0.296D-01 0.420D+00 0.610D+00
 Coeff-En:   0.000D+00 0.000D+00 0.100D+01
 Coeff:     -0.249D-01 0.354D+00 0.671D+00
 Gap=     0.249 Goal=   None    Shift=    0.000
 RMSDP=1.19D-03 MaxDP=1.29D-02 DE=-1.05D-01 OVMax= 2.89D-02

 Cycle   4  Pass 1  IDiag  1:
 E= -114.012234012562     Delta-E=       -0.004055895397 Rises=F Damp=F
 DIIS: error= 4.41D-03 at cycle   4 NSaved=   4.
 NSaved= 4 IEnMin= 4 EnMin= -114.012234012562     IErMin= 4 ErrMin= 4.41D-03
 ErrMax= 4.41D-03  0.00D+00 EMaxC= 1.00D-01 BMatC= 6.90D-04 BMatP= 7.01D-03
 IDIUse=3 WtCom= 9.56D-01 WtEn= 4.41D-02
 Coeff-Com: -0.207D-01 0.705D-01 0.299D+00 0.651D+00
 Coeff-En:   0.000D+00 0.000D+00 0.000D+00 0.100D+01
 Coeff:     -0.198D-01 0.674D-01 0.286D+00 0.667D+00
 Gap=     0.245 Goal=   None    Shift=    0.000
 RMSDP=3.12D-04 MaxDP=6.43D-03 DE=-4.06D-03 OVMax= 6.51D-03

 Cycle   5  Pass 1  IDiag  1:
 E= -114.012725784609     Delta-E=       -0.000491772047 Rises=F Damp=F
 DIIS: error= 3.18D-04 at cycle   5 NSaved=   5.
 NSaved= 5 IEnMin= 5 EnMin= -114.012725784609     IErMin= 5 ErrMin= 3.18D-04
 ErrMax= 3.18D-04  0.00D+00 EMaxC= 1.00D-01 BMatC= 4.82D-06 BMatP= 6.90D-04
 IDIUse=3 WtCom= 9.97D-01 WtEn= 3.18D-03
 Coeff-Com: -0.110D-02-0.164D-02 0.183D-01 0.115D+00 0.869D+00
 Coeff-En:   0.000D+00 0.000D+00 0.000D+00 0.000D+00 0.100D+01
 Coeff:     -0.109D-02-0.163D-02 0.182D-01 0.115D+00 0.870D+00
 Gap=     0.245 Goal=   None    Shift=    0.000
 RMSDP=3.67D-05 MaxDP=6.62D-04 DE=-4.92D-04 OVMax= 6.88D-04

 Cycle   6  Pass 1  IDiag  1:
 E= -114.012729712060     Delta-E=       -0.000003927451 Rises=F Damp=F
 DIIS: error= 2.13D-05 at cycle   6 NSaved=   6.
 NSaved= 6 IEnMin= 6 EnMin= -114.012729712060     IErMin= 6 ErrMin= 2.13D-05
 ErrMax= 2.13D-05  0.00D+00 EMaxC= 1.00D-01 BMatC= 1.84D-08 BMatP= 4.82D-06
 IDIUse=1 WtCom= 1.00D+00 WtEn= 0.00D+00
 Coeff-Com:  0.182D-03-0.717D-03-0.242D-03 0.702D-02 0.807D-01 0.913D+00
 Coeff:      0.182D-03-0.717D-03-0.242D-03 0.702D-02 0.807D-01 0.913D+00
 Gap=     0.245 Goal=   None    Shift=    0.000
 RMSDP=2.59D-06 MaxDP=3.22D-05 DE=-3.93D-06 OVMax= 4.90D-05

 Cycle   7  Pass 1  IDiag  1:
 E= -114.012729725538     Delta-E=       -0.000000013478 Rises=F Damp=F
 DIIS: error= 1.16D-06 at cycle   7 NSaved=   7.
 NSaved= 7 IEnMin= 7 EnMin= -114.012729725538     IErMin= 7 ErrMin= 1.16D-06
 ErrMax= 1.16D-06  0.00D+00 EMaxC= 1.00D-01 BMatC= 7.21D-11 BMatP= 1.84D-08
 IDIUse=1 WtCom= 1.00D+00 WtEn= 0.00D+00
 Coeff-Com:  0.272D-05-0.600D-05-0.772D-04-0.552D-03-0.642D-02-0.501D-02
 Coeff-Com:  0.101D+01
 Coeff:      0.272D-05-0.600D-05-0.772D-04-0.552D-03-0.642D-02-0.501D-02
 Coeff:      0.101D+01
 Gap=     0.245 Goal=   None    Shift=    0.000
 RMSDP=3.16D-07 MaxDP=3.15D-06 DE=-1.35D-08 OVMax= 7.87D-06

 Cycle   8  Pass 1  IDiag  1:
 E= -114.012729725658     Delta-E=       -0.000000000120 Rises=F Damp=F
 DIIS: error= 1.82D-07 at cycle   8 NSaved=   8.
 NSaved= 8 IEnMin= 8 EnMin= -114.012729725658     IErMin= 8 ErrMin= 1.82D-07
 ErrMax= 1.82D-07  0.00D+00 EMaxC= 1.00D-01 BMatC= 1.68D-12 BMatP= 7.21D-11
 IDIUse=1 WtCom= 1.00D+00 WtEn= 0.00D+00
 Coeff-Com: -0.210D-05 0.230D-05 0.744D-05-0.453D-04-0.733D-03-0.768D-02
 Coeff-Com:  0.848D-01 0.924D+00
 Coeff:     -0.210D-05 0.230D-05 0.744D-05-0.453D-04-0.733D-03-0.768D-02
 Coeff:      0.848D-01 0.924D+00
 Gap=     0.245 Goal=   None    Shift=    0.000
 RMSDP=5.27D-08 MaxDP=7.17D-07 DE=-1.20D-10 OVMax= 1.25D-06

 Cycle   9  Pass 1  IDiag  1:
 E= -114.012729725660     Delta-E=       -0.000000000002 Rises=F Damp=F
 DIIS: error= 3.53D-08 at cycle   9 NSaved=   9.
 NSaved= 9 IEnMin= 9 EnMin= -114.012729725660     IErMin= 9 ErrMin= 3.53D-08
 ErrMax= 3.53D-08  0.00D+00 EMaxC= 1.00D-01 BMatC= 6.12D-14 BMatP= 1.68D-12
 IDIUse=1 WtCom= 1.00D+00 WtEn= 0.00D+00
 Coeff-Com: -0.212D-06 0.755D-06 0.707D-06 0.205D-05-0.194D-04-0.794D-03
 Coeff-Com: -0.108D-01 0.934D-01 0.918D+00
 Coeff:     -0.212D-06 0.755D-06 0.707D-06 0.205D-05-0.194D-04-0.794D-03
 Coeff:     -0.108D-01 0.934D-01 0.918D+00
 Gap=     0.245 Goal=   None    Shift=    0.000
 RMSDP=7.82D-09 MaxDP=8.50D-08 DE=-2.02D-12 OVMax= 1.76D-07

 SCF Done:  E(RB3LYP) =  -114.012729726     A.U. after    9 cycles
            NFock=  9  Conv=0.78D-08     -V/T= 1.9713
 KE= 1.173852852900D+02 PE=-3.528030074642D+02 EE= 8.001205068275D+01
 Leave Link  502 at Fri Sep 17 10:52:04 2021, MaxMem=   268435456 cpu:               1.6 elap:               1.8
 (Enter /software/gaussian/g16-a03/l801.exe)
 DoSCS=F DFT=T ScalE2(SS,OS)=  1.000000  1.000000
 ExpMin= 4.38D-02 ExpMax= 8.59D+03 ExpMxC= 1.30D+03 IAcc=3 IRadAn=         5 AccDes= 0.00D+00
 HarFok:  IExCor=  205 AccDes= 0.00D+00 IRadAn=         5 IDoV=-2 UseB2=F ITyADJ=14
 ICtDFT= 12500011 ScaDFX=  1.000000  1.000000  1.000000  1.000000
 Largest valence mixing into a core orbital is  8.99D-05
 Largest core mixing into a valence orbital is  1.65D-05
 Range of M.O.s used for correlation:     3    56
 NBasis=    56 NAE=     8 NBE=     8 NFC=     2 NFV=     0
 NROrb=     54 NOA=     6 NOB=     6 NVA=    48 NVB=    48

 **** Warning!!: The largest alpha MO coefficient is  0.12302600D+02

 Leave Link  801 at Fri Sep 17 10:52:04 2021, MaxMem=   268435456 cpu:               0.2 elap:               0.2
 (Enter /software/gaussian/g16-a03/l914.exe)
 RHF ground state
 Keep R1, R2, and R3 ints in memory in symmetry-blocked form, NReq=6042848.
 FoFCou: FMM=F IPFlag=           0 FMFlag=           0 FMFlg1=           0
         NFxFlg=           0 DoJE=F BraDBF=F KetDBF=F FulRan=T
         wScrn=  0.000000 ICntrl=       600 IOpCl=  0 I1Cent=           0 NGrid=           0
         NMat0=    1 NMatS0=   1596 NMatT0=    0 NMatD0=    1 NMtDS0=    0 NMtDT0=    0
 Petite list used in FoFCou.
 MDV=   268435456 DFT=T DoStab=F Mixed=T DoRPA=T DoScal=F NonHer=T
 Making orbital integer symmetry assigments:
 Orbital symmetries:
       Occupied  (A1) (A1) (A1) (B2) (B1) (A1) (A1) (B2)
       Virtual   (A1) (B1) (B2) (A1) (B1) (A1) (A1) (B2) (B1) (B2)
                 (A1) (A1) (A1) (B1) (B2) (B2) (A1) (A1) (A2) (B1)
                 (B2) (A1) (A1) (B1) (B2) (A1) (A2) (B2) (B1) (A1)
                 (A1) (B2) (A1) (B2) (B1) (A1) (A1) (A2) (B2) (A1)
                 (B1) (B2) (A1) (B1) (B2) (A1) (A1) (A1)
   120 initial guesses have been made.
 Convergence on wavefunction:    0.001000000000000
 Davidson Disk Diagonalization:  ConvIn= 1.00D-03 SkipCon=T Conv= 1.00D-03.
 Max sub-space:  1728 roots to seek:   120 dimension of matrix:          576
 Iteration     1 Dimension   120 NMult     0 NNew    120
 CISAX will form   120 AO SS matrices at one time.
 NMat=   120 NSing=   120 JSym2X=-1.
 New state      1 was old state      2
 New state      2 was old state      1
 New state      3 was old state      4
 New state      4 was old state      3
 New state     10 was old state     11
 New state     11 was old state     10
 New state     12 was old state     13
 New state     13 was old state     12
 New state     18 was old state     19
 New state     19 was old state     18
 New state     20 was old state     23
 New state     21 was old state     22
 New state     22 was old state     21
 New state     23 was old state     20
 New state     26 was old state     27
 New state     27 was old state     26
 Excitation Energies [eV] at current iteration:
 Root      1 :     5.577706643580860
 Root      2 :     5.641100045324188
 Root      3 :     6.448420275288372
 Root      4 :     6.588102219309034
 Root      5 :     7.616202424476734
 Root      6 :     9.723851418199155
 Root      7 :     9.961105358015043
 Root      8 :    10.733187608057380
 Root      9 :    10.979067655050730
 Root     10 :    12.112856232892440
 Root     11 :    12.172519563176600
 Root     12 :    13.873149926144420
 Root     13 :    13.971886410122010
 Root     14 :    14.702646681257710
 Root     15 :    14.740102294062670
 Root     16 :    14.764836359297100
 Root     17 :    15.539951781637750
 Root     18 :    15.553960457670770
 Root     19 :    15.660477647524050
 Root     20 :    16.001757928734090
 Root     21 :    16.151628280535530
 Root     22 :    16.302133420516050
 Root     23 :    16.463140978770200
 Root     24 :    16.498961178236770
 Root     25 :    16.588335088814070
 Root     26 :    16.644456652194310
 Root     27 :    16.821123447432610
 Root     28 :    17.218254418066370
 Root     29 :    17.691165133367150
 Root     30 :    17.760061444670040
 Root     31 :    17.894588465823580
 Root     32 :    17.998741695441660
 Root     33 :    18.369814888023760
 Root     34 :    18.573198513376360
 Root     35 :    18.666928155505770
 Root     36 :    19.003610431076510
 Root     37 :    19.118398260753440
 Root     38 :    19.173610292762890
 Root     39 :    19.249196746667690
 Root     40 :    19.479954757981070
 Root     41 :    19.882293765427500
 Root     42 :    19.910076379623740
 Root     43 :    19.935939379393860
 Root     44 :    20.246516806138930
 Root     45 :    20.470594455583780
 Root     46 :    20.506373420517840
 Root     47 :    20.519978988099630
 Root     48 :    20.578080509457770
 Root     49 :    20.882293055070360
 Root     50 :    21.136216059135810
 Root     51 :    21.371656355549120
 Root     52 :    21.501124297964080
 Root     53 :    21.535583676213200
 Root     54 :    21.899707451315140
 Root     55 :    22.058344876125880
 Root     56 :    22.143538926199500
 Root     57 :    22.309743833755910
 Root     58 :    23.140833125625000
 Root     59 :    23.277374469925960
 Root     60 :    23.416881120706440
 Root     61 :    24.261913633474310
 Root     62 :    24.650991441107820
 Root     63 :    24.879077987468640
 Root     64 :    25.244513471182400
 Root     65 :    26.447375900623610
 Root     66 :    26.895116693185020
 Root     67 :    27.433089339358160
 Root     68 :    27.964754357417990
 Root     69 :    28.591170940949440
 Root     70 :    29.023399894773310
 Root     71 :    29.093438630660770
 Root     72 :    29.517943285375030
 Root     73 :    29.560831881878780
 Root     74 :    30.086533026834790
 Root     75 :    30.089570462536680
 Root     76 :    30.134462242417720
 Root     77 :    30.431719158230400
 Root     78 :    31.145966412078040
 Root     79 :    31.173309995428040
 Root     80 :    31.825163852154630
 Root     81 :    32.190073039894240
 Root     82 :    32.399810384480130
 Root     83 :    32.562811677464330
 Root     84 :    32.580310777591170
 Root     85 :    33.122820442942230
 Root     86 :    34.165542765220380
 Root     87 :    34.169708287355400
 Root     88 :    34.613753207030090
 Root     89 :    34.745288089506960
 Root     90 :    35.346694908820600
 Root     91 :    35.535780006510490
 Root     92 :    35.599034696851650
 Root     93 :    36.563165860111890
 Root     94 :    37.346521412928180
 Root     95 :    37.946273782464220
 Root     96 :    38.782216149820940
 Root     97 :    38.796366273356200
 Root     98 :    39.455423607739790
 Root     99 :    39.629611274518180
 Root    100 :    39.664523797229830
 Root    101 :    39.784263986535170
 Root    102 :    39.828270164997380
 Root    103 :    39.989444804302370
 Root    104 :    40.356044876087550
 Root    105 :    40.565304052481590
 Root    106 :    40.602372083276350
 Root    107 :    41.023507668740670
 Root    108 :    41.289457241878310
 Root    109 :    41.526237066393090
 Root    110 :    41.687462237231220
 Root    111 :    41.696239312979240
 Root    112 :    41.724122623043060
 Root    113 :    42.000699284957560
 Root    114 :    42.297276241620490
 Root    115 :    42.697451031280740
 Root    116 :    42.998069760407220
 Root    117 :    43.576027673623430
 Root    118 :    43.821607487141900
 Root    119 :    44.023346646171550
 Root    120 :    48.240981441300540
 Iteration     2 Dimension   180 NMult   120 NNew     60
 CISAX will form    60 AO SS matrices at one time.
 NMat=    60 NSing=    60 JSym2X=-1.
 Root      1 not converged, maximum delta is    0.004559003315196
 Root      2 not converged, maximum delta is    0.002932513133962
 Root      3 not converged, maximum delta is    0.003117936845762
 Root      4 not converged, maximum delta is    0.004695084982161
 Root      5 not converged, maximum delta is    0.003906221620894
 Root      6 not converged, maximum delta is    0.020393919996978
 Root      7 not converged, maximum delta is    0.019053258193326
 Root      8 not converged, maximum delta is    0.004112363228826
 Root      9 not converged, maximum delta is    0.002218059879365
 Root     10 not converged, maximum delta is    0.003213215651198
 Root     11 not converged, maximum delta is    0.007106740292722
 Root     12 not converged, maximum delta is    0.016529971323463
 Root     13 not converged, maximum delta is    0.010018472569876
 Root     14 not converged, maximum delta is    0.012212904529269
 Root     15 not converged, maximum delta is    0.007789041606360
 Root     16 not converged, maximum delta is    0.012358884974596
 Root     17 not converged, maximum delta is    0.009248447191478
 Root     18 not converged, maximum delta is    0.049701524368370
 Root     19 not converged, maximum delta is    0.048094244253514
 Root     20 not converged, maximum delta is    0.023633019073944
 Root     21 not converged, maximum delta is    0.039446618156994
 Root     22 not converged, maximum delta is    0.008114483408688
 Root     23 not converged, maximum delta is    0.038896660797043
 Root     24 not converged, maximum delta is    0.002148179393793
 Root     25 not converged, maximum delta is    0.018168284085352
 Root     26 not converged, maximum delta is    0.005152060784476
 Root     27 not converged, maximum delta is    0.007406851270263
 Root     28 not converged, maximum delta is    0.003794895509394
 Root     29 not converged, maximum delta is    0.013940852264027
 Root     30 not converged, maximum delta is    0.004132007282634
 Excitation Energies [eV] at current iteration:
 Root      1 :     5.570606323153811   Change is   -0.007100320427048
 Root      2 :     5.637755154785628   Change is   -0.003344890538560
 Root      3 :     6.444002342918535   Change is   -0.004417932369838
 Root      4 :     6.583347684393791   Change is   -0.004754534915243
 Root      5 :     7.610936921164738   Change is   -0.005265503311997
 Root      6 :     9.711253813716574   Change is   -0.012597604482581
 Root      7 :     9.953850848172682   Change is   -0.007254509842361
 Root      8 :    10.720501552770610   Change is   -0.012686055286764
 Root      9 :    10.977366058478990   Change is   -0.001701596571732
 Root     10 :    12.106009428238450   Change is   -0.006846804653991
 Root     11 :    12.161347621492880   Change is   -0.011171941683724
 Root     12 :    13.835847463343970   Change is   -0.037302462800447
 Root     13 :    13.958754476413780   Change is   -0.013131933708231
 Root     14 :    14.695197425148400   Change is   -0.007449256109311
 Root     15 :    14.728223762890390   Change is   -0.011878531172278
 Root     16 :    14.745321318171270   Change is   -0.019515041125839
 Root     17 :    15.527306024487810   Change is   -0.012645757149945
 Root     18 :    15.542638067584630   Change is   -0.011322390086133
 Root     19 :    15.648454668854280   Change is   -0.012022978669771
 Root     20 :    15.928922677565180   Change is   -0.072835251168903
 Root     21 :    16.128349715932090   Change is   -0.023278564603445
 Root     22 :    16.285629587787350   Change is   -0.016503832728699
 Root     23 :    16.429723469388180   Change is   -0.033417509382019
 Root     24 :    16.498647115140890   Change is   -0.000314063095885
 Root     25 :    16.581050012378800   Change is   -0.007285076435264
 Root     26 :    16.640529098585900   Change is   -0.003927553608406
 Root     27 :    16.818008186136410   Change is   -0.003115261296202
 Root     28 :    17.213431867608120   Change is   -0.004822550458248
 Root     29 :    17.685143066050700   Change is   -0.006022067316453
 Root     30 :    17.755046939930350   Change is   -0.005014504739690
 Iteration     3 Dimension   240 NMult   180 NNew     60
 CISAX will form    60 AO SS matrices at one time.
 NMat=    60 NSing=    60 JSym2X=-1.
 Root      1 has converged.
 Root      2 has converged.
 Root      3 has converged.
 Root      4 has converged.
 Root      5 has converged.
 Root      6 has converged.
 Root      7 has converged.
 Root      8 has converged.
 Root      9 has converged.
 Root     10 has converged.
 Root     11 has converged.
 Root     12 has converged.
 Root     13 has converged.
 Root     14 has converged.
 Root     15 has converged.
 Root     16 has converged.
 Root     17 has converged.
 Root     18 has converged.
 Root     19 has converged.
 Root     20 has converged.
 Root     21 has converged.
 Root     22 has converged.
 Root     23 has converged.
 Root     24 has converged.
 Root     25 has converged.
 Root     26 has converged.
 Root     27 has converged.
 Root     28 has converged.
 Root     29 has converged.
 Root     30 has converged.
 Excitation Energies [eV] at current iteration:
 Root      1 :     5.570604293990941   Change is   -0.000002029162870
 Root      2 :     5.637753699013547   Change is   -0.000001455772082
 Root      3 :     6.444000426781376   Change is   -0.000001916137158
 Root      4 :     6.583345303310076   Change is   -0.000002381083715
 Root      5 :     7.610935184195448   Change is   -0.000001736969290
 Root      6 :     9.711250657113384   Change is   -0.000003156603190
 Root      7 :     9.953847339503357   Change is   -0.000003508669325
 Root      8 :    10.720487407912790   Change is   -0.000014144857819
 Root      9 :    10.977364485633390   Change is   -0.000001572845601
 Root     10 :    12.106000678808660   Change is   -0.000008749429797
 Root     11 :    12.161329255627040   Change is   -0.000018365865842
 Root     12 :    13.835755435699530   Change is   -0.000092027644446
 Root     13 :    13.958720251002390   Change is   -0.000034225411388
 Root     14 :    14.695181920711670   Change is   -0.000015504436726
 Root     15 :    14.728188096605170   Change is   -0.000035666285217
 Root     16 :    14.745292359726590   Change is   -0.000028958444678
 Root     17 :    15.527274155698700   Change is   -0.000031868789113
 Root     18 :    15.542624270695900   Change is   -0.000013796888736
 Root     19 :    15.648435115739760   Change is   -0.000019553114520
 Root     20 :    15.928705414919460   Change is   -0.000217262645724
 Root     21 :    16.128275157372390   Change is   -0.000074558559697
 Root     22 :    16.285606049973230   Change is   -0.000023537814119
 Root     23 :    16.429616499513140   Change is   -0.000106969875037
 Root     24 :    16.498646814480210   Change is   -0.000000300660676
 Root     25 :    16.581025811347550   Change is   -0.000024201031257
 Root     26 :    16.640522639040810   Change is   -0.000006459545099
 Root     27 :    16.818003183854660   Change is   -0.000005002281747
 Root     28 :    17.213414381650850   Change is   -0.000017485957265
 Root     29 :    17.685116663593110   Change is   -0.000026402457593
 Root     30 :    17.755029913690860   Change is   -0.000017026239484
 Convergence achieved on expansion vectors.
 ***********************************************************************
 Excited states from <AA,BB:AA,BB> singles matrix:
 ***********************************************************************
 
 1PDM for each excited state written to RWF  633
 Ground to excited state transition densities written to RWF  633
 Ground to excited state transition electric dipole moments (Au):
       state          X           Y           Z        Dip. S.      Osc.
         1        -0.0000     -0.0000      0.0000      0.0000      0.0000
         2         0.0000      0.8320     -0.0000      0.6923      0.0956
         3        -0.0000     -0.3935      0.0000      0.1549      0.0244
         4         0.0000      0.0000     -0.4621      0.2135      0.0344
         5         0.0000      0.0000      0.0000      0.0000      0.0000
         6         0.0000      0.8999      0.0000      0.8098      0.1927
         7         0.0000      0.8517      0.0000      0.7254      0.1769
         8         0.0000     -0.0000     -0.0017      0.0000      0.0000
         9         0.0000     -0.0000     -0.0000      0.0000      0.0000
        10         0.0000     -0.3599     -0.0000      0.1295      0.0384
        11         0.0000      0.0000     -0.8982      0.8067      0.2403
        12        -0.1360      0.0000     -0.0000      0.0185      0.0063
        13         0.0000      0.0000     -0.0386      0.0015      0.0005
        14         0.0000     -0.2289     -0.0000      0.0524      0.0189
        15        -0.0000      0.0000     -0.4928      0.2428      0.0876
        16         0.0000      0.3445     -0.0000      0.1187      0.0429
        17        -0.0000      0.0000      0.3448      0.1189      0.0452
        18        -0.5597     -0.0000     -0.0000      0.3132      0.1193
        19        -0.0078      0.0000      0.0000      0.0001      0.0000
        20         0.4955     -0.0000     -0.0000      0.2455      0.0958
        21         0.0000      0.0000     -0.0694      0.0048      0.0019
        22        -0.0000     -0.0934      0.0000      0.0087      0.0035
        23        -0.0000     -0.0000     -0.5752      0.3309      0.1332
        24         0.0000     -0.0000      0.0000      0.0000      0.0000
        25        -0.1390     -0.0000      0.0000      0.0193      0.0078
        26         0.0000     -0.0000     -0.0000      0.0000      0.0000
        27         0.0000     -0.3716      0.0000      0.1381      0.0569
        28        -0.0000      0.0000      0.1368      0.0187      0.0079
        29        -0.0000      0.0000      0.2553      0.0652      0.0282
        30        -0.0000     -0.1027      0.0000      0.0106      0.0046
 Ground to excited state transition velocity dipole moments (Au):
       state          X           Y           Z        Dip. S.      Osc.
         1        -0.0000     -0.0000     -0.0000      0.0000      0.0000
         2         0.0000     -0.1665      0.0000      0.0277      0.0892
         3        -0.0000      0.0936      0.0000      0.0088      0.0247
         4         0.0000      0.0000      0.1064      0.0113      0.0312
         5        -0.0000     -0.0000     -0.0000      0.0000      0.0000
         6        -0.0000     -0.3370      0.0000      0.1136      0.2122
         7        -0.0000     -0.2834     -0.0000      0.0803      0.1464
         8        -0.0000      0.0000      0.0012      0.0000      0.0000
         9         0.0000      0.0000     -0.0000      0.0000      0.0000
        10         0.0000      0.1611      0.0000      0.0259      0.0389
        11        -0.0000     -0.0000      0.3995      0.1596      0.2380
        12         0.0575     -0.0000      0.0000      0.0033      0.0043
        13        -0.0000      0.0000      0.0193      0.0004      0.0005
        14        -0.0000      0.1322      0.0000      0.0175      0.0216
        15         0.0000     -0.0000      0.2681      0.0719      0.0886
        16         0.0000     -0.1693      0.0000      0.0287      0.0353
        17         0.0000     -0.0000     -0.1927      0.0371      0.0434
        18         0.3242      0.0000      0.0000      0.1051      0.1226
        19         0.0064     -0.0000     -0.0000      0.0000      0.0000
        20        -0.2878      0.0000      0.0000      0.0828      0.0943
        21        -0.0000     -0.0000      0.0405      0.0016      0.0018
        22         0.0000      0.0608     -0.0000      0.0037      0.0041
        23         0.0000      0.0000      0.3368      0.1134      0.1252
        24        -0.0000     -0.0000     -0.0000      0.0000      0.0000
        25         0.0927      0.0000     -0.0000      0.0086      0.0094
        26        -0.0000      0.0000      0.0000      0.0000      0.0000
        27        -0.0000      0.2298     -0.0000      0.0528      0.0570
        28         0.0000     -0.0000     -0.0899      0.0081      0.0085
        29         0.0000     -0.0000     -0.1656      0.0274      0.0281
        30         0.0000      0.0693     -0.0000      0.0048      0.0049
 Ground to excited state transition magnetic dipole moments (Au):
       state          X           Y           Z
         1         0.0000     -0.0000      1.1621
         2        -0.4360      0.0000      0.0000
         3        -0.7943     -0.0000      0.0000
         4         0.0000      0.0000      0.0000
         5         0.0000      0.0000      0.6608
         6        -0.2460      0.0000      0.0000
         7        -1.2629     -0.0000     -0.0000
         8         0.0000      0.0000     -0.0000
         9        -0.0000     -0.0000      0.2128
        10        -0.3150     -0.0000     -0.0000
        11         0.0000      0.0000     -0.0000
        12        -0.0000     -0.7698     -0.0000
        13        -0.0000      0.0000      0.0000
        14        -0.8522      0.0000     -0.0000
        15         0.0000      0.0000      0.0000
        16        -1.1055      0.0000     -0.0000
        17        -0.0000     -0.0000      0.0000
        18         0.0000     -0.5756      0.0000
        19         0.0000      0.6667      0.0000
        20         0.0000     -0.7351     -0.0000
        21        -0.0000     -0.0000      0.0000
        22         0.0390      0.0000      0.0000
        23         0.0000      0.0000      0.0000
        24         0.0000      0.0000     -0.0264
        25         0.0000     -0.0159     -0.0000
        26         0.0000      0.0000     -0.2517
        27         0.1823      0.0000      0.0000
        28        -0.0000      0.0000      0.0000
        29        -0.0000     -0.0000     -0.0000
        30         0.0036     -0.0000     -0.0000
 Ground to excited state transition velocity quadrupole moments (Au):
       state          XX          YY          ZZ          XY          XZ          YZ
         1         0.0000      0.0000     -0.0000     -0.2875     -0.0000     -0.0000
         2        -0.0000      0.0000      0.0000      0.0000      0.0000      0.4821
         3        -0.0000     -0.0000     -0.0000      0.0000     -0.0000     -0.3254
         4        -0.2125     -0.6962     -0.1691     -0.0000     -0.0000      0.0000
         5         0.0000      0.0000     -0.0000      0.0569      0.0000      0.0000
         6         0.0000      0.0000      0.0000     -0.0000      0.0000      0.9192
         7         0.0000     -0.0000     -0.0000      0.0000     -0.0000      0.3385
         8         0.2011      0.6202      0.6055      0.0000      0.0000     -0.0000
         9        -0.0000     -0.0000     -0.0000      0.2177     -0.0000     -0.0000
        10         0.0000     -0.0000      0.0000     -0.0000      0.0000      0.0097
        11         0.0541     -0.8248     -0.8183     -0.0000      0.0000     -0.0000
        12         0.0000      0.0000      0.0000     -0.0000     -0.3192      0.0000
        13         0.2305      0.4338      0.4895     -0.0000      0.0000      0.0000
        14         0.0000      0.0000      0.0000     -0.0000     -0.0000      0.2520
        15         0.0677      0.0599      0.0269     -0.0000      0.0000     -0.0000
        16         0.0000      0.0000     -0.0000      0.0000      0.0000      0.1014
        17         0.4412      0.6991      0.3866     -0.0000     -0.0000      0.0000
        18        -0.0000     -0.0000     -0.0000      0.0000     -0.5276      0.0000
        19         0.0000      0.0000      0.0000      0.0000      0.6233     -0.0000
        20        -0.0000     -0.0000      0.0000      0.0000     -0.3143     -0.0000
        21         0.3768      0.0972     -0.8772     -0.0000     -0.0000     -0.0000
        22         0.0000     -0.0000      0.0000      0.0000      0.0000     -0.2343
        23        -0.5953     -0.3265     -0.8293      0.0000      0.0000     -0.0000
        24         0.0000      0.0000      0.0000      0.2999     -0.0000     -0.0000
        25         0.0000      0.0000      0.0000      0.0000      0.1050     -0.0000
        26        -0.0000     -0.0000     -0.0000      0.2373     -0.0000     -0.0000
        27        -0.0000      0.0000     -0.0000     -0.0000     -0.0000     -0.1567
        28        -0.2393      0.3805      0.2362     -0.0000      0.0000     -0.0000
        29         0.0142      0.6635     -0.1634     -0.0000     -0.0000     -0.0000
        30         0.0000      0.0000     -0.0000     -0.0000     -0.0000      0.3356
 <0|del|b> * <b|rxdel|0> + <0|del|b> * <b|delr+rdel|0>
 Rotatory Strengths (R) in cgs (10**-40 erg-esu-cm/Gauss)
       state          XX          YY          ZZ    R(velocity)    E-M Angle
         1        -0.0000     -0.0000     -0.0000     -0.0000       90.00
         2         0.0000      0.0000     -0.0000     -0.0000       90.00
         3         0.0000      0.0000      0.0000      0.0000       90.00
         4         0.0000      0.0000      0.0000      0.0000       90.00
         5        -0.0000     -0.0000     -0.0000     -0.0000       90.00
         6         0.0000     -0.0000     -0.0000     -0.0000       90.00
         7        -0.0000      0.0000      0.0000      0.0000       90.00
         8        -0.0000     -0.0000      0.0000     -0.0000       90.00
         9        -0.0000      0.0000     -0.0000     -0.0000       90.00
        10        -0.0000     -0.0000     -0.0000     -0.0000       90.00
        11        -0.0000     -0.0000     -0.0000     -0.0000       90.00
        12         0.0000     -0.0000     -0.0000     -0.0000       90.00
        13         0.0000      0.0000      0.0000      0.0000       90.00
        14         0.0000      0.0000      0.0000      0.0000       90.00
        15         0.0000      0.0000     -0.0000      0.0000       90.00
        16        -0.0000     -0.0000     -0.0000     -0.0000       90.00
        17         0.0000     -0.0000     -0.0000     -0.0000       90.00
        18        -0.0000      0.0000     -0.0000     -0.0000       90.00
        19        -0.0000     -0.0000     -0.0000     -0.0000       90.00
        20        -0.0000     -0.0000     -0.0000     -0.0000       90.00
        21        -0.0000      0.0000      0.0000      0.0000       90.00
        22        -0.0000     -0.0000      0.0000      0.0000       90.00
        23         0.0000     -0.0000      0.0000      0.0000       90.00
        24        -0.0000      0.0000     -0.0000      0.0000       90.00
        25        -0.0000      0.0000      0.0000      0.0000       90.00
        26        -0.0000     -0.0000     -0.0000     -0.0000       90.00
        27         0.0000     -0.0000     -0.0000     -0.0000       90.00
        28        -0.0000     -0.0000     -0.0000     -0.0000       90.00
        29         0.0000     -0.0000      0.0000      0.0000       90.00
        30        -0.0000      0.0000     -0.0000     -0.0000       90.00
 1/2[<0|r|b>*<b|rxdel|0> + (<0|rxdel|b>*<b|r|0>)*]
 Rotatory Strengths (R) in cgs (10**-40 erg-esu-cm/Gauss)
       state          XX          YY          ZZ     R(length)
         1         0.0000     -0.0000     -0.0000     -0.0000
         2         0.0000     -0.0000      0.0000     -0.0000
         3        -0.0000     -0.0000     -0.0000     -0.0000
         4        -0.0000     -0.0000      0.0000      0.0000
         5        -0.0000     -0.0000     -0.0000     -0.0000
         6         0.0000     -0.0000     -0.0000     -0.0000
         7         0.0000      0.0000      0.0000      0.0000
         8        -0.0000      0.0000     -0.0000     -0.0000
         9         0.0000     -0.0000      0.0000      0.0000
        10         0.0000     -0.0000     -0.0000     -0.0000
        11        -0.0000     -0.0000     -0.0000     -0.0000
        12        -0.0000      0.0000     -0.0000     -0.0000
        13         0.0000     -0.0000      0.0000      0.0000
        14         0.0000      0.0000     -0.0000      0.0000
        15         0.0000     -0.0000      0.0000      0.0000
        16         0.0000     -0.0000     -0.0000     -0.0000
        17        -0.0000      0.0000     -0.0000     -0.0000
        18         0.0000     -0.0000      0.0000     -0.0000
        19         0.0000     -0.0000     -0.0000     -0.0000
        20        -0.0000     -0.0000     -0.0000     -0.0000
        21         0.0000      0.0000      0.0000      0.0000
        22         0.0000      0.0000     -0.0000      0.0000
        23         0.0000      0.0000      0.0000      0.0000
        24        -0.0000      0.0000      0.0000      0.0000
        25         0.0000     -0.0000      0.0000      0.0000
        26        -0.0000      0.0000     -0.0000     -0.0000
        27        -0.0000      0.0000     -0.0000     -0.0000
        28        -0.0000     -0.0000     -0.0000     -0.0000
        29        -0.0000      0.0000      0.0000      0.0000
        30         0.0000     -0.0000      0.0000     -0.0000
  1/2[<0|del|b>*<b|r|0> + (<0|r|b>*<b|del|0>)*] (Au)
       state          X           Y           Z        Dip. S.   Osc.(frdel)
         1         0.0000      0.0000     -0.0000      0.0000      0.0000
         2         0.0000     -0.1385     -0.0000      0.1385      0.0924
         3         0.0000     -0.0368      0.0000      0.0368      0.0246
         4         0.0000      0.0000     -0.0491      0.0491      0.0328
         5        -0.0000     -0.0000     -0.0000      0.0000      0.0000
         6        -0.0000     -0.3033      0.0000      0.3033      0.2022
         7        -0.0000     -0.2414     -0.0000      0.2414      0.1609
         8        -0.0000     -0.0000     -0.0000      0.0000      0.0000
         9         0.0000     -0.0000      0.0000     -0.0000     -0.0000
        10         0.0000     -0.0580     -0.0000      0.0580      0.0386
        11        -0.0000     -0.0000     -0.3588      0.3588      0.2392
        12        -0.0078     -0.0000     -0.0000      0.0078      0.0052
        13        -0.0000      0.0000     -0.0007      0.0007      0.0005
        14        -0.0000     -0.0303     -0.0000      0.0303      0.0202
        15        -0.0000     -0.0000     -0.1321      0.1321      0.0881
        16         0.0000     -0.0583     -0.0000      0.0583      0.0389
        17        -0.0000     -0.0000     -0.0664      0.0664      0.0443
        18        -0.1814     -0.0000     -0.0000      0.1814      0.1209
        19        -0.0001     -0.0000     -0.0000      0.0001      0.0000
        20        -0.1426     -0.0000     -0.0000      0.1426      0.0951
        21        -0.0000     -0.0000     -0.0028      0.0028      0.0019
        22        -0.0000     -0.0057     -0.0000      0.0057      0.0038
        23        -0.0000     -0.0000     -0.1937      0.1937      0.1291
        24        -0.0000      0.0000     -0.0000      0.0000      0.0000
        25        -0.0129     -0.0000     -0.0000      0.0129      0.0086
        26        -0.0000     -0.0000     -0.0000      0.0000      0.0000
        27        -0.0000     -0.0854     -0.0000      0.0854      0.0569
        28        -0.0000     -0.0000     -0.0123      0.0123      0.0082
        29        -0.0000     -0.0000     -0.0423      0.0423      0.0282
        30        -0.0000     -0.0071     -0.0000      0.0071      0.0047

 Excitation energies and oscillator strengths:
 
 Excited State   1:      Singlet-A2     5.5706 eV  222.57 nm  f=0.0000  <S**2>=0.000
       3 -> 27         0.00257
       3 -> 35         0.00192
       3 -> 46         0.00093
       4 -> 10         0.00455
       4 -> 13         0.00701
       4 -> 17         0.00569
       4 -> 22        -0.00334
       4 -> 28         0.00279
       4 -> 32         0.00122
       4 -> 37         0.00295
       4 -> 43         0.00041
       4 -> 52         0.00058
       5 -> 11        -0.00050
       5 -> 16        -0.00053
       5 -> 18        -0.00040
       5 -> 23         0.00157
       5 -> 24         0.00019
       5 -> 29        -0.00021
       5 -> 33         0.00021
       5 -> 36         0.00048
       5 -> 42         0.00049
       5 -> 47         0.00059
       5 -> 50        -0.00019
       5 -> 53         0.00021
       6 -> 27         0.00363
       6 -> 35        -0.00064
       6 -> 46        -0.00052
       7 -> 27         0.00094
       7 -> 35        -0.00014
       7 -> 46         0.00092
       8 -> 10         0.69882
       8 -> 13         0.10338
       8 -> 17         0.03080
       8 -> 22        -0.00403
       8 -> 28         0.00424
       8 -> 32         0.00331
       8 -> 37        -0.00240
       8 -> 43        -0.00011
       8 -> 52         0.00074
       3 <- 27         0.00196
       3 <- 35         0.00165
       3 <- 46         0.00095
       4 <- 10         0.00022
       4 <- 13         0.00113
       4 <- 17         0.00032
       4 <- 22         0.00011
       4 <- 32        -0.00101
       4 <- 37         0.00140
       4 <- 43         0.00041
       4 <- 52         0.00014
       5 <- 11        -0.00087
       5 <- 16         0.00118
       5 <- 18        -0.00276
       5 <- 23         0.00352
       5 <- 24        -0.00171
       5 <- 29         0.00155
       5 <- 33        -0.00067
       5 <- 36         0.00156
       5 <- 42         0.00073
       5 <- 47         0.00048
       5 <- 53         0.00057
       6 <- 27         0.00392
       6 <- 35        -0.00056
       6 <- 46        -0.00052
       7 <- 27         0.00094
       7 <- 35        -0.00020
       7 <- 46         0.00077
       8 <- 10        -0.00505
       8 <- 13        -0.00849
       8 <- 17        -0.00455
       8 <- 22         0.00036
       8 <- 28        -0.00038
       8 <- 32         0.00296
       8 <- 37        -0.00214
       8 <- 52         0.00023
 This state for optimization and/or second-order correction.
 Total Energy, E(TD-HF/TD-DFT) =  -113.808013785    
 Copying the excited state density for this state as the 1-particle RhoCI density.
 
 Excited State   2:      Singlet-B2     5.6378 eV  219.92 nm  f=0.0956  <S**2>=0.000
       3 -> 11         0.00084
       3 -> 16         0.00035
       3 -> 18         0.00093
       3 -> 24         0.00109
       3 -> 29        -0.00021
       3 -> 42         0.00016
       3 -> 50        -0.00015
       3 -> 53         0.00010
       4 ->  9         0.00226
       4 -> 12         0.00573
       4 -> 14         0.00483
       4 -> 15         0.00163
       4 -> 19         0.00367
       4 -> 20         0.00146
       4 -> 21         0.00249
       4 -> 25         0.00137
       4 -> 26        -0.00100
       4 -> 30        -0.00190
       4 -> 31         0.00061
       4 -> 34         0.00044
       4 -> 38        -0.00081
       4 -> 39         0.00010
       4 -> 41         0.00049
       4 -> 44         0.00041
       4 -> 45        -0.00061
       4 -> 48         0.00037
       5 -> 27         0.00121
       5 -> 35         0.00039
       5 -> 46         0.00087
       6 -> 11        -0.00678
       6 -> 16         0.00141
       6 -> 18         0.00085
       6 -> 23        -0.00215
       6 -> 24         0.00413
       6 -> 29        -0.00074
       6 -> 33        -0.00105
       6 -> 36         0.00084
       6 -> 40        -0.00012
       6 -> 42         0.00043
       7 -> 11         0.00290
       7 -> 16         0.00372
       7 -> 18         0.00332
       7 -> 23        -0.00180
       7 -> 24         0.00252
       7 -> 29         0.00021
       7 -> 36        -0.00029
       7 -> 42        -0.00037
       7 -> 47         0.00043
       7 -> 50         0.00048
       7 -> 53        -0.00010
       8 ->  9         0.70619
       8 -> 12         0.00722
       8 -> 14        -0.02640
       8 -> 15         0.01101
       8 -> 19         0.02078
       8 -> 20        -0.00719
       8 -> 21        -0.00850
       8 -> 25         0.00057
       8 -> 26        -0.00037
       8 -> 30         0.00021
       8 -> 31         0.00309
       8 -> 34         0.00141
       8 -> 38         0.00096
       8 -> 39        -0.00047
       8 -> 41        -0.00052
       8 -> 45        -0.00105
       8 -> 48         0.00036
       8 -> 54        -0.00013
       3 <- 11         0.00029
       3 <- 18         0.00058
       3 <- 24         0.00080
       3 <- 29        -0.00019
       3 <- 42         0.00014
       3 <- 53         0.00012
       4 <-  9         0.00190
       4 <- 12        -0.00016
       4 <- 14         0.00386
       4 <- 15         0.00183
       4 <- 19         0.00091
       4 <- 20         0.00060
       4 <- 21         0.00163
       4 <- 25         0.00160
       4 <- 26        -0.00125
       4 <- 30        -0.00070
       4 <- 34         0.00022
       4 <- 38        -0.00052
       4 <- 39         0.00016
       4 <- 41         0.00045
       4 <- 44         0.00029
       4 <- 45        -0.00055
       4 <- 48         0.00032
       5 <- 27         0.00096
       5 <- 35         0.00031
       5 <- 46         0.00074
       6 <- 11        -0.00035
       6 <- 16         0.00146
       6 <- 18         0.00205
       6 <- 23        -0.00121
       6 <- 24         0.00321
       6 <- 29        -0.00060
       6 <- 33        -0.00081
       6 <- 36         0.00065
       6 <- 40        -0.00016
       6 <- 42         0.00021
       7 <- 11         0.00075
       7 <- 16         0.00226
       7 <- 18         0.00102
       7 <- 23        -0.00073
       7 <- 24         0.00120
       7 <- 29         0.00083
       7 <- 42        -0.00031
       7 <- 47         0.00041
       7 <- 50         0.00054
       8 <-  9        -0.00510
       8 <- 12         0.00274
       8 <- 14        -0.01449
       8 <- 15        -0.00295
       8 <- 19        -0.00125
       8 <- 20         0.00017
       8 <- 21        -0.00444
       8 <- 25        -0.00314
       8 <- 26        -0.00063
       8 <- 30         0.00048
       8 <- 31         0.00173
       8 <- 34         0.00152
       8 <- 38         0.00093
       8 <- 39        -0.00039
       8 <- 41        -0.00037
       8 <- 44        -0.00017
       8 <- 45        -0.00079
       8 <- 48         0.00032
 
 Excited State   3:      Singlet-B2     6.4440 eV  192.40 nm  f=0.0244  <S**2>=0.000
       3 -> 11         0.00011
       3 -> 16        -0.00060
       3 -> 18         0.00014
       3 -> 23        -0.00020
       3 -> 24        -0.00044
       3 -> 29        -0.00081
       3 -> 33        -0.00014
       3 -> 36         0.00028
       3 -> 42         0.00029
       3 -> 47        -0.00019
       3 -> 50        -0.00019
       3 -> 53         0.00012
       4 ->  9         0.00418
       4 -> 12        -0.00017
       4 -> 14        -0.00241
       4 -> 15        -0.00406
       4 -> 19         0.00281
       4 -> 20        -0.00028
       4 -> 21        -0.00142
       4 -> 25        -0.00087
       4 -> 26        -0.00112
       4 -> 30         0.00079
       4 -> 31         0.00220
       4 -> 34         0.00032
       4 -> 39         0.00085
       4 -> 41         0.00057
       4 -> 45        -0.00062
       4 -> 48         0.00037
       4 -> 51         0.00018
       5 -> 27         0.00092
       5 -> 35         0.00134
       5 -> 46         0.00097
       6 -> 11        -0.00230
       6 -> 16        -0.00483
       6 -> 18        -0.00087
       6 -> 23         0.00119
       6 -> 24        -0.00376
       6 -> 29         0.00136
       6 -> 33        -0.00055
       6 -> 40         0.00028
       6 -> 47        -0.00011
       7 -> 11         0.00285
       7 -> 16         0.00058
       7 -> 18         0.00235
       7 -> 23        -0.00123
       7 -> 24         0.00068
       7 -> 29         0.00013
       7 -> 33         0.00022
       7 -> 36        -0.00111
       7 -> 40         0.00029
       7 -> 42        -0.00058
       7 -> 47         0.00066
       7 -> 50         0.00054
       7 -> 53        -0.00017
       8 ->  9        -0.00735
       8 -> 12         0.70600
       8 -> 14         0.01998
       8 -> 15         0.02479
       8 -> 19         0.01518
       8 -> 20         0.01546
       8 -> 21         0.00359
       8 -> 25        -0.00047
       8 -> 26         0.00077
       8 -> 30        -0.00183
       8 -> 31        -0.00067
       8 -> 34        -0.00035
       8 -> 38         0.00011
       8 -> 39         0.00097
       8 -> 41         0.00112
       8 -> 45        -0.00068
       8 -> 48         0.00049
       8 -> 54        -0.00016
       3 <- 11        -0.00019
       3 <- 16        -0.00059
       3 <- 18        -0.00013
       3 <- 24        -0.00049
       3 <- 29        -0.00054
       3 <- 33        -0.00016
       3 <- 36         0.00030
       3 <- 42         0.00025
       3 <- 47        -0.00014
       3 <- 53         0.00021
       4 <-  9        -0.00136
       4 <- 12        -0.00013
       4 <- 14        -0.00171
       4 <- 15        -0.00063
       4 <- 19        -0.00064
       4 <- 20         0.00035
       4 <- 21        -0.00101
       4 <- 25        -0.00092
       4 <- 26        -0.00094
       4 <- 30         0.00091
       4 <- 31         0.00094
       4 <- 34         0.00086
       4 <- 39         0.00064
       4 <- 41         0.00057
       4 <- 45        -0.00063
       4 <- 48         0.00024
       4 <- 51         0.00017
       5 <- 27         0.00046
       5 <- 35         0.00112
       5 <- 46         0.00084
       6 <- 11        -0.00016
       6 <- 16        -0.00102
       6 <- 18        -0.00102
       6 <- 23         0.00121
       6 <- 24        -0.00198
       6 <- 29         0.00064
       6 <- 33        -0.00059
       6 <- 36        -0.00026
       6 <- 40         0.00028
       6 <- 50        -0.00016
       7 <- 11         0.00038
       7 <- 16         0.00049
       7 <- 18         0.00020
       7 <- 23        -0.00025
       7 <- 24         0.00014
       7 <- 29         0.00045
       7 <- 36        -0.00075
       7 <- 40         0.00023
       7 <- 42        -0.00041
       7 <- 47         0.00058
       7 <- 50         0.00052
       8 <-  9         0.00254
       8 <- 12         0.00140
       8 <- 14         0.00762
       8 <- 15         0.00208
       8 <- 19        -0.00170
       8 <- 20        -0.00225
       8 <- 21         0.00291
       8 <- 25         0.00052
       8 <- 26        -0.00062
       8 <- 30        -0.00136
       8 <- 31        -0.00112
       8 <- 38         0.00028
       8 <- 39         0.00072
       8 <- 41         0.00095
       8 <- 45        -0.00057
       8 <- 48         0.00030
 
 Excited State   4:      Singlet-A1     6.5833 eV  188.33 nm  f=0.0344  <S**2>=0.000
       3 ->  9         0.00126
       3 -> 12         0.00073
       3 -> 15         0.00061
       3 -> 19         0.00134
       3 -> 20        -0.00020
       3 -> 21        -0.00041
       3 -> 25         0.00032
       3 -> 30        -0.00101
       3 -> 31        -0.00017
       3 -> 34        -0.00024
       3 -> 38        -0.00033
       3 -> 39        -0.00028
       3 -> 48        -0.00012
       3 -> 51        -0.00026
       3 -> 54         0.00019
       4 -> 11         0.00722
       4 -> 16         0.00816
       4 -> 18         0.00579
       4 -> 23         0.00123
       4 -> 24         0.00384
       4 -> 29         0.00071
       4 -> 33        -0.00015
       4 -> 36         0.00098
       4 -> 42        -0.00026
       4 -> 50        -0.00034
       4 -> 53        -0.00011
       5 -> 10         0.00642
       5 -> 13        -0.00277
       5 -> 17         0.00496
       5 -> 22         0.00377
       5 -> 28         0.00087
       5 -> 32         0.00092
       5 -> 37         0.00054
       5 -> 43         0.00041
       5 -> 49        -0.00036
       6 ->  9         0.00592
       6 -> 12        -0.01092
       6 -> 14         0.00615
       6 -> 15         0.00284
       6 -> 19         0.00157
       6 -> 20        -0.00685
       6 -> 21         0.00154
       6 -> 25         0.00675
       6 -> 26        -0.00102
       6 -> 30         0.00091
       6 -> 31        -0.00091
       6 -> 34        -0.00117
       6 -> 38        -0.00046
       6 -> 39         0.00104
       6 -> 44         0.00026
       6 -> 45        -0.00027
       6 -> 48        -0.00032
       7 ->  9         0.01274
       7 -> 12         0.00578
       7 -> 14         0.00212
       7 -> 15        -0.00106
       7 -> 19         0.00847
       7 -> 20        -0.00199
       7 -> 21         0.00049
       7 -> 25         0.00169
       7 -> 26         0.00040
       7 -> 30        -0.00037
       7 -> 31         0.00076
       7 -> 34        -0.00097
       7 -> 38        -0.00013
       7 -> 39         0.00022
       7 -> 48        -0.00022
       7 -> 51         0.00038
       8 -> 11         0.70535
       8 -> 16         0.04424
       8 -> 18        -0.00814
       8 -> 23         0.00246
       8 -> 24         0.00205
       8 -> 29         0.00376
       8 -> 33         0.00160
       8 -> 36        -0.00269
       8 -> 40         0.00018
       8 -> 42         0.00154
       8 -> 47        -0.00053
       3 <-  9         0.00057
       3 <- 12         0.00030
       3 <- 15         0.00032
       3 <- 19         0.00078
       3 <- 21        -0.00019
       3 <- 25         0.00033
       3 <- 30        -0.00061
       3 <- 31        -0.00015
       3 <- 34        -0.00021
       3 <- 38        -0.00024
       3 <- 39        -0.00024
       3 <- 41        -0.00011
       3 <- 45         0.00010
       3 <- 48        -0.00015
       3 <- 51        -0.00022
       3 <- 54         0.00017
       4 <- 11         0.00259
       4 <- 16         0.00273
       4 <- 18         0.00300
       4 <- 23         0.00106
       4 <- 24         0.00206
       4 <- 29         0.00028
       4 <- 33        -0.00026
       4 <- 36         0.00084
       4 <- 42        -0.00022
       4 <- 50        -0.00028
       4 <- 53        -0.00010
       5 <- 10         0.00263
       5 <- 13        -0.00122
       5 <- 17         0.00246
       5 <- 22         0.00234
       5 <- 28         0.00057
       5 <- 32         0.00071
       5 <- 37         0.00045
       5 <- 43         0.00035
       5 <- 49        -0.00032
       6 <-  9         0.00615
       6 <- 12        -0.00421
       6 <- 14         0.00467
       6 <- 15         0.00254
       6 <- 19         0.00108
       6 <- 20        -0.00386
       6 <- 21         0.00023
       6 <- 25         0.00421
       6 <- 26        -0.00048
       6 <- 30         0.00025
       6 <- 31        -0.00107
       6 <- 34        -0.00091
       6 <- 38        -0.00055
       6 <- 39         0.00083
       6 <- 44         0.00031
       6 <- 45        -0.00024
       6 <- 48        -0.00026
       7 <-  9         0.00450
       7 <- 12         0.00160
       7 <- 14         0.00099
       7 <- 15        -0.00044
       7 <- 19         0.00381
       7 <- 20        -0.00126
       7 <- 25         0.00104
       7 <- 26         0.00015
       7 <- 30        -0.00037
       7 <- 31         0.00050
       7 <- 34        -0.00066
       7 <- 38        -0.00017
       7 <- 39         0.00029
       7 <- 45        -0.00013
       7 <- 48        -0.00012
       7 <- 51         0.00035
       8 <- 11        -0.00462
       8 <- 16         0.00491
       8 <- 18        -0.01212
       8 <- 23        -0.00163
       8 <- 24        -0.00146
       8 <- 29         0.00211
       8 <- 33         0.00129
       8 <- 36        -0.00198
       8 <- 42         0.00124
       8 <- 47        -0.00058
       8 <- 53        -0.00011
 
 Excited State   5:      Singlet-A2     7.6109 eV  162.90 nm  f=0.0000  <S**2>=0.000
       3 -> 27         0.00219
       3 -> 35         0.00172
       3 -> 46         0.00078
       4 -> 10         0.00634
       4 -> 13         0.00972
       4 -> 17        -0.00092
       4 -> 22        -0.00235
       4 -> 28         0.00055
       4 -> 32         0.00216
       4 -> 37         0.00291
       4 -> 43         0.00031
       4 -> 49        -0.00010
       4 -> 52         0.00047
       5 -> 16        -0.00177
       5 -> 18        -0.00032
       5 -> 23         0.00157
       5 -> 29        -0.00038
       5 -> 33         0.00011
       5 -> 36         0.00045
       5 -> 42         0.00048
       5 -> 47         0.00046
       5 -> 53         0.00019
       6 -> 27         0.00166
       6 -> 35        -0.00082
       6 -> 46        -0.00025
       7 -> 27         0.00042
       7 -> 35        -0.00014
       7 -> 46         0.00084
       8 -> 10        -0.10428
       8 -> 13         0.69871
       8 -> 17         0.01623
       8 -> 22        -0.02389
       8 -> 28         0.00262
       8 -> 32         0.00200
       8 -> 37        -0.00173
       8 -> 43        -0.00017
       8 -> 49        -0.00012
       8 -> 52         0.00052
       3 <- 27         0.00140
       3 <- 35         0.00142
       3 <- 46         0.00088
       4 <- 10         0.00033
       4 <- 13         0.00055
       4 <- 17        -0.00033
       4 <- 32        -0.00045
       4 <- 37         0.00100
       4 <- 43         0.00030
       4 <- 52         0.00015
       5 <- 11         0.00034
       5 <- 16        -0.00042
       5 <- 18        -0.00094
       5 <- 23         0.00284
       5 <- 24        -0.00098
       5 <- 29         0.00022
       5 <- 33        -0.00078
       5 <- 36         0.00149
       5 <- 42         0.00082
       5 <- 47         0.00022
       5 <- 53         0.00043
       6 <- 27         0.00222
       6 <- 35        -0.00020
       6 <- 46        -0.00033
       7 <- 27         0.00060
       7 <- 35        -0.00026
       7 <- 46         0.00046
       8 <- 10        -0.00734
       8 <- 13        -0.00291
       8 <- 17        -0.00163
       8 <- 22         0.00063
       8 <- 28        -0.00033
       8 <- 32         0.00176
       8 <- 37        -0.00137
       8 <- 52         0.00020
 
 Excited State   6:      Singlet-B2     9.7113 eV  127.67 nm  f=0.1927  <S**2>=0.000
       3 -> 11        -0.00039
       3 -> 16         0.00107
       3 -> 18        -0.00082
       3 -> 23         0.00074
       3 -> 24         0.00040
       3 -> 29         0.00093
       3 -> 33        -0.00074
       3 -> 40         0.00043
       3 -> 42         0.00048
       3 -> 47         0.00028
       3 -> 50         0.00011
       4 ->  9         0.00686
       4 -> 12         0.00671
       4 -> 14         0.01718
       4 -> 15         0.00239
       4 -> 19         0.00340
       4 -> 20         0.01045
       4 -> 21         0.01126
       4 -> 25         0.00520
       4 -> 26        -0.00035
       4 -> 30         0.00188
       4 -> 31         0.00257
       4 -> 34         0.00157
       4 -> 38         0.00057
       4 -> 39        -0.00166
       4 -> 41         0.00028
       4 -> 45        -0.00025
       4 -> 51        -0.00021
       4 -> 54        -0.00010
       5 -> 27         0.00603
       5 -> 35         0.00031
       5 -> 46        -0.00031
       6 -> 11        -0.01449
       6 -> 16         0.00832
       6 -> 18        -0.00571
       6 -> 23        -0.00882
       6 -> 24         0.01177
       6 -> 29        -0.00039
       6 -> 33         0.00274
       6 -> 36        -0.00326
       6 -> 40        -0.00019
       6 -> 42         0.00193
       7 -> 11         0.00140
       7 -> 16         0.00723
       7 -> 18         0.00232
       7 -> 23        -0.00405
       7 -> 24         0.00485
       7 -> 29         0.00082
       7 -> 33         0.00126
       7 -> 36        -0.00082
       7 -> 40        -0.00019
       7 -> 42         0.00037
       7 -> 47        -0.00027
       8 ->  9         0.02788
       8 -> 12        -0.00551
       8 -> 14         0.62015
       8 -> 15        -0.33593
       8 -> 19         0.01108
       8 -> 20        -0.01821
       8 -> 21        -0.03689
       8 -> 25        -0.01269
       8 -> 26         0.00189
       8 -> 30         0.00107
       8 -> 31         0.00467
       8 -> 34         0.00257
       8 -> 38        -0.00155
       8 -> 39         0.00393
       8 -> 41        -0.00265
       8 -> 44         0.00080
       8 -> 45        -0.00080
       8 -> 48        -0.00069
       3 <- 11        -0.00015
       3 <- 16         0.00040
       3 <- 18        -0.00029
       3 <- 23         0.00042
       3 <- 24         0.00048
       3 <- 29         0.00040
       3 <- 33        -0.00045
       3 <- 40         0.00033
       3 <- 42         0.00042
       3 <- 47         0.00027
       4 <-  9         0.00230
       4 <- 12         0.00088
       4 <- 14         0.00740
       4 <- 15         0.00277
       4 <- 19         0.00118
       4 <- 20         0.00458
       4 <- 21         0.00588
       4 <- 25         0.00296
       4 <- 26        -0.00120
       4 <- 30         0.00113
       4 <- 31         0.00168
       4 <- 34         0.00020
       4 <- 38         0.00065
       4 <- 39        -0.00116
       4 <- 41         0.00016
       4 <- 44        -0.00015
       4 <- 48         0.00012
       5 <- 27         0.00421
       5 <- 46        -0.00047
       6 <- 11        -0.00333
       6 <- 16         0.00313
       6 <- 18        -0.00020
       6 <- 23        -0.00567
       6 <- 24         0.00650
       6 <- 29        -0.00022
       6 <- 33         0.00116
       6 <- 36        -0.00217
       6 <- 40        -0.00030
       6 <- 42         0.00146
       6 <- 47        -0.00015
       7 <- 16         0.00262
       7 <- 18         0.00058
       7 <- 23        -0.00191
       7 <- 24         0.00231
       7 <- 29         0.00102
       7 <- 33         0.00079
       7 <- 36        -0.00048
       7 <- 40        -0.00024
       7 <- 42         0.00025
       7 <- 47        -0.00015
       7 <- 53         0.00013
       8 <-  9        -0.01252
       8 <- 12         0.00657
       8 <- 14        -0.02699
       8 <- 15        -0.00524
       8 <- 19         0.00137
       8 <- 20        -0.00317
       8 <- 21        -0.01882
       8 <- 25        -0.00567
       8 <- 30         0.00091
       8 <- 31         0.00210
       8 <- 34         0.00121
       8 <- 38        -0.00098
       8 <- 39         0.00247
       8 <- 41        -0.00187
       8 <- 44         0.00031
       8 <- 45        -0.00044
       8 <- 48        -0.00053
       8 <- 51         0.00014
 
 Excited State   7:      Singlet-B2     9.9538 eV  124.56 nm  f=0.1769  <S**2>=0.000
       3 -> 11        -0.00012
       3 -> 16         0.00095
       3 -> 18        -0.00076
       3 -> 23         0.00168
       3 -> 24         0.00031
       3 -> 29         0.00104
       3 -> 33        -0.00076
       3 -> 36         0.00051
       3 -> 40         0.00029
       3 -> 42         0.00063
       4 ->  9         0.00398
       4 -> 12        -0.00096
       4 -> 14         0.01217
       4 -> 15         0.01268
       4 -> 19         0.00261
       4 -> 20         0.00900
       4 -> 21         0.00623
       4 -> 25         0.00350
       4 -> 26        -0.00410
       4 -> 30         0.00096
       4 -> 31         0.00338
       4 -> 34         0.00044
       4 -> 38         0.00044
       4 -> 39        -0.00070
       4 -> 41        -0.00020
       4 -> 44         0.00061
       4 -> 45         0.00038
       4 -> 51         0.00017
       4 -> 54         0.00014
       5 -> 27         0.00495
       5 -> 35         0.00068
       5 -> 46        -0.00034
       6 -> 11        -0.01213
       6 -> 16         0.00278
       6 -> 18        -0.00252
       6 -> 23        -0.00989
       6 -> 24         0.00662
       6 -> 33         0.00024
       6 -> 36        -0.00189
       6 -> 40         0.00022
       6 -> 42         0.00135
       6 -> 47         0.00015
       7 -> 11         0.00221
       7 -> 16         0.00550
       7 -> 18         0.00269
       7 -> 23        -0.00064
       7 -> 24         0.00434
       7 -> 29         0.00185
       7 -> 33         0.00062
       7 -> 36        -0.00028
       7 -> 40        -0.00027
       7 -> 42         0.00044
       7 -> 47        -0.00025
       7 -> 50        -0.00018
       8 ->  9         0.00225
       8 -> 12        -0.03202
       8 -> 14         0.33392
       8 -> 15         0.62085
       8 -> 19         0.02740
       8 -> 20         0.00557
       8 -> 21        -0.03482
       8 -> 26        -0.00600
       8 -> 31         0.00335
       8 -> 34         0.00151
       8 -> 38         0.00032
       8 -> 39         0.00267
       8 -> 41        -0.00189
       8 -> 44        -0.00017
       8 -> 45        -0.00051
       8 -> 48        -0.00035
       8 -> 54         0.00010
       3 <- 11        -0.00029
       3 <- 16         0.00066
       3 <- 18        -0.00078
       3 <- 23         0.00086
       3 <- 24        -0.00014
       3 <- 29         0.00091
       3 <- 33        -0.00056
       3 <- 36         0.00041
       3 <- 40         0.00021
       3 <- 42         0.00046
       3 <- 47         0.00011
       4 <-  9         0.00219
       4 <- 12         0.00111
       4 <- 14         0.00551
       4 <- 15         0.00267
       4 <- 19         0.00202
       4 <- 20         0.00405
       4 <- 21         0.00355
       4 <- 25         0.00249
       4 <- 26        -0.00136
       4 <- 30         0.00100
       4 <- 31         0.00208
       4 <- 38         0.00012
       4 <- 39        -0.00049
       4 <- 44         0.00022
       4 <- 45         0.00017
       5 <- 27         0.00312
       5 <- 35         0.00046
       5 <- 46        -0.00027
       6 <- 11        -0.00201
       6 <- 16         0.00239
       6 <- 18         0.00063
       6 <- 23        -0.00388
       6 <- 24         0.00487
       6 <- 33        -0.00046
       6 <- 36        -0.00151
       6 <- 42         0.00091
       6 <- 50         0.00014
       7 <- 11         0.00061
       7 <- 16         0.00127
       7 <- 18         0.00162
       7 <- 23        -0.00090
       7 <- 24         0.00251
       7 <- 29         0.00035
       7 <- 33         0.00037
       7 <- 36        -0.00031
       7 <- 40        -0.00022
       7 <- 42         0.00034
       7 <- 47        -0.00029
       7 <- 50        -0.00028
       8 <-  9        -0.01037
       8 <- 12         0.00580
       8 <- 14        -0.02082
       8 <- 15        -0.00247
       8 <- 19         0.00117
       8 <- 20        -0.00357
       8 <- 21        -0.01225
       8 <- 25        -0.00472
       8 <- 26         0.00031
       8 <- 30        -0.00047
       8 <- 31         0.00182
       8 <- 34         0.00088
       8 <- 38         0.00052
       8 <- 39         0.00168
       8 <- 41        -0.00140
       8 <- 44        -0.00013
       8 <- 45        -0.00029
       8 <- 48        -0.00034
 
 Excited State   8:      Singlet-A1    10.7205 eV  115.65 nm  f=0.0000  <S**2>=0.000
       3 ->  9        -0.00019
       3 -> 12        -0.00083
       3 -> 14         0.00120
       3 -> 15        -0.00137
       3 -> 19        -0.00117
       3 -> 20        -0.00129
       3 -> 21         0.00166
       3 -> 25        -0.00130
       3 -> 30        -0.00044
       3 -> 31        -0.00064
       3 -> 34         0.00236
       3 -> 38        -0.00044
       3 -> 39        -0.00033
       3 -> 41         0.00087
       3 -> 44        -0.00013
       3 -> 45        -0.00098
       3 -> 48        -0.00061
       3 -> 51        -0.00060
       3 -> 54         0.00035
       4 -> 11        -0.00258
       4 -> 16        -0.00239
       4 -> 18        -0.00247
       4 -> 23        -0.00398
       4 -> 24        -0.00245
       4 -> 29        -0.00183
       4 -> 33        -0.00080
       4 -> 36        -0.00054
       4 -> 40         0.00025
       4 -> 42         0.00123
       4 -> 47        -0.00064
       4 -> 50        -0.00078
       4 -> 53        -0.00033
       5 -> 10        -0.02252
       5 -> 13        -0.00071
       5 -> 17        -0.01526
       5 -> 22        -0.00200
       5 -> 28        -0.00755
       5 -> 32        -0.00036
       5 -> 37         0.00051
       5 -> 43         0.00036
       5 -> 49        -0.00134
       5 -> 52        -0.00086
       6 ->  9        -0.01245
       6 -> 12         0.00217
       6 -> 14        -0.00126
       6 -> 15        -0.00848
       6 -> 19        -0.00354
       6 -> 20         0.00762
       6 -> 21         0.00362
       6 -> 25        -0.00066
       6 -> 26         0.00242
       6 -> 30         0.00121
       6 -> 31         0.00256
       6 -> 34        -0.00132
       6 -> 38         0.00122
       6 -> 39        -0.00097
       6 -> 44        -0.00017
       6 -> 45         0.00035
       6 -> 48         0.00018
       6 -> 51        -0.00013
       6 -> 54        -0.00031
       7 ->  9        -0.02261
       7 -> 12        -0.01236
       7 -> 14        -0.00040
       7 -> 15         0.01196
       7 -> 19        -0.01295
       7 -> 20         0.00358
       7 -> 21        -0.00136
       7 -> 25        -0.00071
       7 -> 26        -0.00967
       7 -> 30         0.00205
       7 -> 31        -0.00245
       7 -> 34         0.00065
       7 -> 38         0.00106
       7 -> 41         0.00033
       7 -> 44        -0.00051
       7 -> 45        -0.00043
       7 -> 48         0.00050
       7 -> 51         0.00177
       7 -> 54         0.00063
       8 -> 11        -0.04151
       8 -> 16         0.69693
       8 -> 18         0.10145
       8 -> 23         0.01247
       8 -> 24         0.00918
       8 -> 29        -0.00328
       8 -> 33         0.00094
       8 -> 36         0.00100
       8 -> 40         0.00065
       8 -> 42        -0.00090
       8 -> 47        -0.00031
       8 -> 50        -0.00098
       8 -> 53        -0.00032
       3 <-  9        -0.00033
       3 <- 12        -0.00064
       3 <- 14         0.00056
       3 <- 15        -0.00082
       3 <- 19        -0.00110
       3 <- 20        -0.00075
       3 <- 21         0.00109
       3 <- 25        -0.00075
[...]
  49        5PX         0.00000   0.00000   0.00000   0.00000   0.00000
  50        5PY         0.00000   0.00000  -0.04399  -0.07533  -0.08038
  51        5PZ        -0.00015   0.00000   0.00476   0.00683   0.00045
  52        6D 0       -0.00035   0.00000  -0.00277  -0.00534   0.00087
  53        6D+1        0.00000   0.00000   0.00000   0.00000   0.00000
  54        6D-1        0.00000   0.00000  -0.00288  -0.00214   0.00527
  55        6D+2       -0.00001   0.00000  -0.00014  -0.00024  -0.00002
  56        6D-2        0.00000  -0.00000   0.00000   0.00000   0.00000
                          26        27        28        29        30
  26        4PX         0.00012
  27        4PY         0.00000   0.00149
  28        4PZ         0.00000  -0.00061   0.00040
  29 3   H  1S          0.00000  -0.00426  -0.00066   0.08555
  30        2S          0.00000  -0.00620  -0.00103   0.12913   0.19986
  31        3S          0.00000  -0.00183  -0.00092   0.08890   0.15034
  32        4PX         0.00012   0.00000   0.00000   0.00000   0.00000
  33        4PY         0.00000  -0.00086   0.00003   0.00683   0.00883
  34        4PZ         0.00000  -0.00003  -0.00019   0.00416   0.00555
  35 4   O  1S          0.00000  -0.00132  -0.00058   0.00403   0.00630
  36        2S          0.00000  -0.00266  -0.00036   0.00705   0.01152
  37        2PX         0.00387   0.00000   0.00000   0.00000   0.00000
  38        2PY         0.00000  -0.00622   0.00435   0.02804   0.06438
  39        2PZ         0.00000  -0.00630   0.00041   0.00820   0.02052
  40        3S          0.00000   0.00963  -0.00103  -0.02438  -0.04027
  41        3PX         0.00551   0.00000   0.00000   0.00000   0.00000
  42        3PY         0.00000  -0.00877   0.00605   0.04316   0.09690
  43        3PZ         0.00000  -0.00902   0.00060   0.01208   0.02967
  44        4S          0.00000   0.00544  -0.00124  -0.02679  -0.03420
  45        4PX         0.00336   0.00000   0.00000   0.00000   0.00000
  46        4PY         0.00000  -0.00554   0.00288   0.06530   0.12559
  47        4PZ         0.00000  -0.00405   0.00030   0.00563   0.01368
  48        5S          0.00000   0.00173  -0.00071  -0.01284  -0.01517
  49        5PX        -0.00002   0.00000   0.00000   0.00000   0.00000
  50        5PY         0.00000  -0.00033  -0.00082   0.04399   0.07533
  51        5PZ         0.00000  -0.00121   0.00026   0.00476   0.00683
  52        6D 0        0.00000   0.00139  -0.00014  -0.00277  -0.00534
  53        6D+1       -0.00067   0.00000   0.00000   0.00000   0.00000
  54        6D-1        0.00000   0.00101  -0.00089   0.00288   0.00214
  55        6D+2        0.00000   0.00006  -0.00001  -0.00014  -0.00024
  56        6D-2       -0.00000   0.00000   0.00000   0.00000   0.00000
                          31        32        33        34        35
  31        3S          0.15733
  32        4PX         0.00000   0.00012
  33        4PY        -0.00018   0.00000   0.00149
  34        4PZ         0.00158   0.00000   0.00061   0.00040
  35 4   O  1S          0.00274   0.00000   0.00132  -0.00058   0.63992
  36        2S          0.00341   0.00000   0.00266  -0.00036   0.57048
  37        2PX         0.00000   0.00387   0.00000   0.00000   0.00000
  38        2PY         0.11285   0.00000  -0.00622  -0.00435   0.00000
  39        2PZ        -0.00848   0.00000   0.00630   0.00041   0.00001
  40        3S         -0.00688   0.00000  -0.00963  -0.00103  -0.12343
  41        3PX         0.00000   0.00551   0.00000   0.00000   0.00000
  42        3PY         0.16545   0.00000  -0.00877  -0.00605   0.00000
  43        3PZ        -0.01182   0.00000   0.00902   0.00060  -0.00445
  44        4S         -0.01491   0.00000  -0.00544  -0.00124  -0.12290
  45        4PX         0.00000   0.00336   0.00000   0.00000   0.00000
  46        4PY         0.17114   0.00000  -0.00554  -0.00288   0.00000
  47        4PZ        -0.00623   0.00000   0.00405   0.00030  -0.01269
  48        5S         -0.00519   0.00000  -0.00173  -0.00071  -0.01660
  49        5PX         0.00000  -0.00002   0.00000   0.00000   0.00000
  50        5PY         0.08038   0.00000  -0.00033   0.00082   0.00000
  51        5PZ         0.00045   0.00000   0.00121   0.00026   0.00422
  52        6D 0        0.00087   0.00000  -0.00139  -0.00014  -0.00293
  53        6D+1        0.00000  -0.00067   0.00000   0.00000   0.00000
  54        6D-1       -0.00527   0.00000   0.00101   0.00089   0.00000
  55        6D+2       -0.00002   0.00000  -0.00006  -0.00001  -0.00046
  56        6D-2        0.00000   0.00000   0.00000   0.00000   0.00000
                          36        37        38        39        40
  36        2S          0.52679
  37        2PX         0.00000   0.12548
  38        2PY         0.00000   0.00000   0.17868
  39        2PZ         0.00106  -0.00000   0.00000   0.20130
  40        3S         -0.21937   0.00000   0.00000  -0.00782   0.68072
  41        3PX         0.00000   0.17875   0.00000   0.00000   0.00000
  42        3PY         0.00000   0.00000   0.25578   0.00000   0.00000
  43        3PZ        -0.00102  -0.00000   0.00000   0.28351  -0.01904
  44        4S         -0.20154   0.00000   0.00000   0.14696   0.57640
  45        4PX         0.00000   0.10913   0.00000   0.00000   0.00000
  46        4PY         0.00000   0.00000   0.20237   0.00000   0.00000
  47        4PZ        -0.01816  -0.00000   0.00000   0.14346   0.04231
  48        5S         -0.02817   0.00000   0.00000   0.04568   0.08424
  49        5PX         0.00000  -0.00077   0.00000   0.00000   0.00000
  50        5PY         0.00000   0.00000   0.05495   0.00000   0.00000
  51        5PZ         0.00630  -0.00000   0.00000   0.01118  -0.01648
  52        6D 0       -0.00669   0.00000  -0.00000  -0.02958   0.02531
  53        6D+1       -0.00000  -0.02190   0.00000  -0.00000   0.00000
  54        6D-1        0.00000   0.00000  -0.02097   0.00000  -0.00000
  55        6D+2       -0.00090   0.00000   0.00000  -0.00044   0.00301
  56        6D-2        0.00000   0.00000   0.00000   0.00000   0.00000
                          41        42        43        44        45
  41        3PX         0.25463
  42        3PY         0.00000   0.36634
  43        3PZ        -0.00000   0.00000   0.39946
  44        4S          0.00000   0.00000   0.20014   0.61103
  45        4PX         0.15545   0.00000   0.00000   0.00000   0.09490
  46        4PY         0.00000   0.29171   0.00000   0.00000   0.00000
  47        4PZ        -0.00000   0.00000   0.20156   0.14508  -0.00000
  48        5S          0.00000   0.00000   0.06324   0.11180   0.00000
  49        5PX        -0.00110   0.00000   0.00000   0.00000  -0.00067
  50        5PY         0.00000   0.08078   0.00000   0.00000   0.00000
  51        5PZ        -0.00000   0.00000   0.01596  -0.00713  -0.00000
  52        6D 0        0.00000  -0.00000  -0.04196  -0.00073   0.00000
  53        6D+1       -0.03120   0.00000  -0.00000   0.00000  -0.01905
  54        6D-1        0.00000  -0.02965   0.00000  -0.00000   0.00000
  55        6D+2        0.00000   0.00000  -0.00065   0.00224   0.00000
  56        6D-2        0.00000   0.00000   0.00000   0.00000   0.00000
                          46        47        48        49        50
  46        4PY         0.25145
  47        4PZ         0.00000   0.10579
  48        5S          0.00000   0.03804   0.02588
  49        5PX         0.00000   0.00000   0.00000   0.00000
  50        5PY         0.08569   0.00000   0.00000   0.00000   0.04162
  51        5PZ         0.00000   0.00701  -0.00098  -0.00000   0.00000
  52        6D 0       -0.00000  -0.01939  -0.00338   0.00000  -0.00000
  53        6D+1        0.00000  -0.00000  -0.00000   0.00013   0.00000
  54        6D-1       -0.01966   0.00000   0.00000   0.00000  -0.00214
  55        6D+2        0.00000  -0.00010   0.00029   0.00000   0.00000
  56        6D-2        0.00000   0.00000   0.00000   0.00000   0.00000
                          51        52        53        54        55
  51        5PZ         0.00148
  52        6D 0       -0.00231   0.00524
  53        6D+1       -0.00000  -0.00000   0.00382
  54        6D-1        0.00000   0.00000   0.00000   0.00321
  55        6D+2       -0.00010   0.00017   0.00000   0.00000   0.00001
  56        6D-2        0.00000   0.00000   0.00000   0.00000   0.00000
                          56
  56        6D-2        0.00000
          Condensed to atoms (all electrons):
               1          2          3          4
     1  C    4.526661   0.471372   0.471372   0.258670
     2  H    0.471372   0.930840  -0.192483  -0.186120
     3  H    0.471372  -0.192483   0.930840  -0.186120
     4  O    0.258670  -0.186120  -0.186120   8.338279
 Mulliken charges:
               1
     1  C    0.271925
     2  H   -0.023609
     3  H   -0.023609
     4  O   -0.224708
 Sum of Mulliken charges =  -0.00000
 Mulliken charges with hydrogens summed into heavy atoms:
               1
     1  C    0.224708
     4  O   -0.224708
 Electronic spatial extent (au):  <R**2>=             49.1358
 Charge=              0.0000 electrons
 Dipole moment (field-independent basis, Debye):
    X=              0.0000    Y=              0.0000    Z=             -0.1048  Tot=              0.1048
 Quadrupole moment (field-independent basis, Debye-Ang):
   XX=            -10.6303   YY=            -12.6033   ZZ=            -13.3384
   XY=             -0.0000   XZ=             -0.0000   YZ=             -0.0000
 Traceless Quadrupole moment (field-independent basis, Debye-Ang):
   XX=              1.5604   YY=             -0.4126   ZZ=             -1.1478
   XY=             -0.0000   XZ=             -0.0000   YZ=             -0.0000
 Octapole moment (field-independent basis, Debye-Ang**2):
  XXX=              0.0000  YYY=              0.0000  ZZZ=              4.4151  XYY=              0.0000
  XXY=             -0.0000  XXZ=              1.4137  XZZ=              0.0000  YZZ=             -0.0000
  YYZ=              3.0543  XYZ=              0.0000
 Hexadecapole moment (field-independent basis, Debye-Ang**3):
 XXXX=             -8.7676 YYYY=            -26.1023 ZZZZ=            -36.3724 XXXY=             -0.0000
 XXXZ=             -0.0000 YYYX=             -0.0000 YYYZ=             -0.0000 ZZZX=             -0.0000
 ZZZY=              0.0000 XXYY=             -5.7563 XXZZ=             -7.2462 YYZZ=            -11.9245
 XXYZ=             -0.0000 YYXZ=             -0.0000 ZZXY=             -0.0000
 N-N= 4.139294176584D+01 E-N=-3.528030079557D+02  KE= 1.173852852900D+02
 Symmetry A1   KE= 1.061337954469D+02
 Symmetry A2   KE= 9.089228133619D-36
 Symmetry B1   KE= 4.341535109172D+00
 Symmetry B2   KE= 6.909954733881D+00
 Leave Link  601 at Fri Sep 17 10:52:29 2021, MaxMem=   268435456 cpu:               0.0 elap:               0.0
 (Enter /software/gaussian/g16-a03/l9999.exe)
 Electronic transition elements 
                 1             2             3             4             5 
      1  -0.113808D+03 -0.113806D+03 -0.113776D+03 -0.113771D+03 -0.113733D+03
      2   0.000000D+00  0.000000D+00  0.000000D+00  0.000000D+00  0.000000D+00
      3   0.000000D+00  0.832047D+00 -0.393531D+00  0.000000D+00  0.000000D+00
      4   0.000000D+00  0.000000D+00  0.000000D+00 -0.462066D+00  0.000000D+00
      5   0.000000D+00  0.000000D+00  0.000000D+00  0.000000D+00  0.000000D+00
      6   0.000000D+00 -0.166501D+00  0.936265D-01  0.000000D+00  0.000000D+00
      7   0.000000D+00  0.000000D+00  0.000000D+00  0.106350D+00  0.000000D+00
      8   0.000000D+00 -0.436019D+00 -0.794291D+00  0.000000D+00  0.000000D+00
      9   0.000000D+00  0.000000D+00  0.000000D+00  0.000000D+00  0.000000D+00
     10   0.116212D+01  0.000000D+00  0.000000D+00  0.000000D+00  0.660845D+00
     11   0.000000D+00  0.000000D+00  0.000000D+00 -0.212514D+00  0.000000D+00
     12   0.000000D+00  0.000000D+00  0.000000D+00 -0.696182D+00  0.000000D+00
     13   0.000000D+00  0.000000D+00  0.000000D+00 -0.169134D+00  0.000000D+00
     14  -0.287466D+00  0.000000D+00  0.000000D+00  0.000000D+00  0.568847D-01
     15   0.000000D+00  0.000000D+00  0.000000D+00  0.000000D+00  0.000000D+00
     16   0.000000D+00  0.482148D+00 -0.325446D+00  0.000000D+00  0.000000D+00
                 6             7             8             9            10 
      1  -0.113656D+03 -0.113647D+03 -0.113619D+03 -0.113609D+03 -0.113568D+03
      2   0.000000D+00  0.000000D+00  0.000000D+00  0.000000D+00  0.000000D+00
      3   0.899871D+00  0.851686D+00  0.000000D+00  0.000000D+00 -0.359906D+00
      4   0.000000D+00  0.000000D+00 -0.169699D-02  0.000000D+00  0.000000D+00
      5   0.000000D+00  0.000000D+00  0.000000D+00  0.000000D+00  0.000000D+00
      6  -0.337039D+00 -0.283444D+00  0.000000D+00  0.000000D+00  0.161060D+00
      7   0.000000D+00  0.000000D+00  0.117217D-02  0.000000D+00  0.000000D+00
      8  -0.246004D+00 -0.126286D+01  0.000000D+00  0.000000D+00 -0.315032D+00
      9   0.000000D+00  0.000000D+00  0.000000D+00  0.000000D+00  0.000000D+00
     10   0.000000D+00  0.000000D+00  0.000000D+00  0.212805D+00  0.000000D+00
     11   0.000000D+00  0.000000D+00  0.201057D+00  0.000000D+00  0.000000D+00
     12   0.000000D+00  0.000000D+00  0.620243D+00  0.000000D+00  0.000000D+00
     13   0.000000D+00  0.000000D+00  0.605505D+00  0.000000D+00  0.000000D+00
     14   0.000000D+00  0.000000D+00  0.000000D+00  0.217738D+00  0.000000D+00
     15   0.000000D+00  0.000000D+00  0.000000D+00  0.000000D+00  0.000000D+00
     16   0.919194D+00  0.338545D+00  0.000000D+00  0.000000D+00  0.973067D-02
                11            12            13            14            15 
      1  -0.113566D+03 -0.113504D+03 -0.113500D+03 -0.113473D+03 -0.113471D+03
      2   0.000000D+00 -0.135981D+00  0.000000D+00  0.000000D+00  0.000000D+00
      3   0.000000D+00  0.000000D+00  0.000000D+00 -0.228874D+00  0.000000D+00
      4  -0.898150D+00  0.000000D+00 -0.385675D-01  0.000000D+00 -0.492757D+00
      5   0.000000D+00  0.574507D-01  0.000000D+00  0.000000D+00  0.000000D+00
      6   0.000000D+00  0.000000D+00  0.000000D+00  0.132172D+00  0.000000D+00
      7   0.399451D+00  0.000000D+00  0.192969D-01  0.000000D+00  0.268142D+00
      8   0.000000D+00  0.000000D+00  0.000000D+00 -0.852232D+00  0.000000D+00
      9   0.000000D+00 -0.769802D+00  0.000000D+00  0.000000D+00  0.000000D+00
     10   0.000000D+00  0.000000D+00  0.000000D+00  0.000000D+00  0.000000D+00
     11   0.540670D-01  0.000000D+00  0.230452D+00  0.000000D+00  0.676594D-01
     12  -0.824793D+00  0.000000D+00  0.433813D+00  0.000000D+00  0.599194D-01
     13  -0.818279D+00  0.000000D+00  0.489488D+00  0.000000D+00  0.268783D-01
     14   0.000000D+00  0.000000D+00  0.000000D+00  0.000000D+00  0.000000D+00
     15   0.000000D+00 -0.319173D+00  0.000000D+00  0.000000D+00  0.000000D+00
     16   0.000000D+00  0.000000D+00  0.000000D+00  0.252002D+00  0.000000D+00
                16            17            18            19            20 
      1  -0.113471D+03 -0.113442D+03 -0.113442D+03 -0.113438D+03 -0.113427D+03
      2   0.000000D+00  0.000000D+00 -0.559678D+00 -0.784395D-02  0.495521D+00
      3   0.344513D+00  0.000000D+00  0.000000D+00  0.000000D+00  0.000000D+00
      4   0.000000D+00  0.344794D+00  0.000000D+00  0.000000D+00  0.000000D+00
      5   0.000000D+00  0.000000D+00  0.324156D+00  0.639924D-02 -0.287780D+00
      6  -0.169285D+00  0.000000D+00  0.000000D+00  0.000000D+00  0.000000D+00
      7   0.000000D+00 -0.192702D+00  0.000000D+00  0.000000D+00  0.000000D+00
      8  -0.110551D+01  0.000000D+00  0.000000D+00  0.000000D+00  0.000000D+00
      9   0.000000D+00  0.000000D+00 -0.575580D+00  0.666650D+00 -0.735105D+00
     10   0.000000D+00  0.000000D+00  0.000000D+00  0.000000D+00  0.000000D+00
     11   0.000000D+00  0.441155D+00  0.000000D+00  0.000000D+00  0.000000D+00
     12   0.000000D+00  0.699054D+00  0.000000D+00  0.000000D+00  0.000000D+00
     13   0.000000D+00  0.386602D+00  0.000000D+00  0.000000D+00  0.000000D+00
     14   0.000000D+00  0.000000D+00  0.000000D+00  0.000000D+00  0.000000D+00
     15   0.000000D+00  0.000000D+00 -0.527555D+00  0.623347D+00 -0.314254D+00
     16   0.101404D+00  0.000000D+00  0.000000D+00  0.000000D+00  0.000000D+00
                21            22            23            24            25 
      1  -0.113420D+03 -0.113414D+03 -0.113409D+03 -0.113406D+03 -0.113403D+03
      2   0.000000D+00  0.000000D+00  0.000000D+00  0.000000D+00 -0.138974D+00
      3   0.000000D+00 -0.933767D-01  0.000000D+00  0.000000D+00  0.000000D+00
      4  -0.693983D-01  0.000000D+00 -0.575210D+00  0.000000D+00  0.000000D+00
      5   0.000000D+00  0.000000D+00  0.000000D+00  0.000000D+00  0.926572D-01
      6   0.000000D+00  0.607577D-01  0.000000D+00  0.000000D+00  0.000000D+00
      7   0.405320D-01  0.000000D+00  0.336774D+00  0.000000D+00  0.000000D+00
      8   0.000000D+00  0.390314D-01  0.000000D+00  0.000000D+00  0.000000D+00
      9   0.000000D+00  0.000000D+00  0.000000D+00  0.000000D+00 -0.158937D-01
     10   0.000000D+00  0.000000D+00  0.000000D+00 -0.264204D-01  0.000000D+00
     11   0.376797D+00  0.000000D+00 -0.595261D+00  0.000000D+00  0.000000D+00
     12   0.972296D-01  0.000000D+00 -0.326528D+00  0.000000D+00  0.000000D+00
     13  -0.877186D+00  0.000000D+00 -0.829287D+00  0.000000D+00  0.000000D+00
     14   0.000000D+00  0.000000D+00  0.000000D+00  0.299862D+00  0.000000D+00
     15   0.000000D+00  0.000000D+00  0.000000D+00  0.000000D+00  0.104991D+00
     16   0.000000D+00 -0.234301D+00  0.000000D+00  0.000000D+00  0.000000D+00
                26            27            28            29            30 
      1  -0.113401D+03 -0.113395D+03 -0.113380D+03 -0.113363D+03 -0.113360D+03
      2   0.000000D+00  0.000000D+00  0.000000D+00  0.000000D+00  0.000000D+00
      3   0.000000D+00 -0.371588D+00  0.000000D+00  0.000000D+00 -0.102748D+00
      4   0.000000D+00  0.000000D+00  0.136836D+00  0.255291D+00  0.000000D+00
      5   0.000000D+00  0.000000D+00  0.000000D+00  0.000000D+00  0.000000D+00
      6   0.000000D+00  0.229783D+00  0.000000D+00  0.000000D+00  0.693221D-01
      7   0.000000D+00  0.000000D+00 -0.899016D-01 -0.165642D+00  0.000000D+00
      8   0.000000D+00  0.182304D+00  0.000000D+00  0.000000D+00  0.363749D-02
      9   0.000000D+00  0.000000D+00  0.000000D+00  0.000000D+00  0.000000D+00
     10  -0.251673D+00  0.000000D+00  0.000000D+00  0.000000D+00  0.000000D+00
     11   0.000000D+00  0.000000D+00 -0.239342D+00  0.141893D-01  0.000000D+00
     12   0.000000D+00  0.000000D+00  0.380501D+00  0.663465D+00  0.000000D+00
     13   0.000000D+00  0.000000D+00  0.236186D+00 -0.163422D+00  0.000000D+00
     14   0.237261D+00  0.000000D+00  0.000000D+00  0.000000D+00  0.000000D+00
     15   0.000000D+00  0.000000D+00  0.000000D+00  0.000000D+00  0.000000D+00
     16   0.000000D+00 -0.156688D+00  0.000000D+00  0.000000D+00  0.335599D+00

 Test job not archived.
 1\1\GINC-BHD0006\SP\RB3LYP TD-FC\6-311+G(d,p)\C1H2O1\BWEIGHT\17-Sep-20
 21\0\\#p B3LYP/6-311+G** #p TD=(singlets,nstates=30)IOp(6/8=3) IOp(9/4
 0=4)\\Scan Step 67, Bond Length 0.835\\0,1\C,0,0.,0.,-0.52736\H,0,0.,0
 .93726,-1.11871\H,0,0.,-0.93726,-1.11871\O,0,0.,0.,0.30764\\Version=ES
 64L-G16RevA.03\State=1-A1\HF=-114.0127297\RMSD=7.824e-09\PG=C02V [C2(C
 1O1),SGV(H2)]\\@


 The earth never tires,
 The earth is rude, silent, incomprehensible at first,
 Nature is rude and incomprehensible at first,
 Be not discouraged, keep on,
 There are divine things well envelop'd,
 I swear to you there are divine things more beautiful than words can tell.
                                 -- Walt Whitman
 Job cpu time:       0 days  0 hours  0 minutes 27.1 seconds.
 Elapsed time:       0 days  0 hours  0 minutes 27.3 seconds.
 File lengths (MBytes):  RWF=     79 Int=      0 D2E=      0 Chk=     32 Scr=      1
 Normal termination of Gaussian 16 at Fri Sep 17 10:52:29 2021.
