 Entering Gaussian System, Link 0=g16
 Initial command:
 /software/gaussian/g16-c01/sse4/g16/l1.exe "/local_scratch/24665295/Gau-28517.inp" -scrdir="/local_scratch/24665295/"
 Entering Link 1 = /software/gaussian/g16-c01/sse4/g16/l1.exe PID=     28524.
  
 Copyright (c) 1988-2019, Gaussian, Inc.  All Rights Reserved.
  
 This is part of the Gaussian(R) 16 program.  It is based on
 the Gaussian(R) 09 system (copyright 2009, Gaussian, Inc.),
 the Gaussian(R) 03 system (copyright 2003, Gaussian, Inc.),
 the Gaussian(R) 98 system (copyright 1998, Gaussian, Inc.),
 the Gaussian(R) 94 system (copyright 1995, Gaussian, Inc.),
 the Gaussian 92(TM) system (copyright 1992, Gaussian, Inc.),
 the Gaussian 90(TM) system (copyright 1990, Gaussian, Inc.),
 the Gaussian 88(TM) system (copyright 1988, Gaussian, Inc.),
 the Gaussian 86(TM) system (copyright 1986, Carnegie Mellon
 University), and the Gaussian 82(TM) system (copyright 1983,
 Carnegie Mellon University). Gaussian is a federally registered
 trademark of Gaussian, Inc.
  
 This software contains proprietary and confidential information,
 including trade secrets, belonging to Gaussian, Inc.
  
 This software is provided under written license and may be
 used, copied, transmitted, or stored only in accord with that
 written license.
  
 The following legend is applicable only to US Government
 contracts under FAR:
  
                    RESTRICTED RIGHTS LEGEND
  
 Use, reproduction and disclosure by the US Government is
 subject to restrictions as set forth in subparagraphs (a)
 and (c) of the Commercial Computer Software - Restricted
 Rights clause in FAR 52.227-19.
  
 Gaussian, Inc.
 340 Quinnipiac St., Bldg. 40, Wallingford CT 06492
  
  
 ---------------------------------------------------------------
 Warning -- This program may not be used in any manner that
 competes with the business of Gaussian, Inc. or will provide
 assistance to any competitor of Gaussian, Inc.  The licensee
 of this program is prohibited from giving any competitor of
 Gaussian, Inc. access to this program.  By using this program,
 the user acknowledges that Gaussian, Inc. is engaged in the
 business of creating and licensing software in the field of
 computational chemistry and represents and warrants to the
 licensee that it is not a competitor of Gaussian, Inc. and that
 it will not use this program in any manner prohibited above.
 ---------------------------------------------------------------
  

 Cite this work as:
 Gaussian 16, Revision C.01,
 M. J. Frisch, G. W. Trucks, H. B. Schlegel, G. E. Scuseria, 
 M. A. Robb, J. R. Cheeseman, G. Scalmani, V. Barone, 
 G. A. Petersson, H. Nakatsuji, X. Li, M. Caricato, A. V. Marenich, 
 J. Bloino, B. G. Janesko, R. Gomperts, B. Mennucci, H. P. Hratchian, 
 J. V. Ortiz, A. F. Izmaylov, J. L. Sonnenberg, D. Williams-Young, 
 F. Ding, F. Lipparini, F. Egidi, J. Goings, B. Peng, A. Petrone, 
 T. Henderson, D. Ranasinghe, V. G. Zakrzewski, J. Gao, N. Rega, 
 G. Zheng, W. Liang, M. Hada, M. Ehara, K. Toyota, R. Fukuda, 
 J. Hasegawa, M. Ishida, T. Nakajima, Y. Honda, O. Kitao, H. Nakai, 
 T. Vreven, K. Throssell, J. A. Montgomery, Jr., J. E. Peralta, 
 F. Ogliaro, M. J. Bearpark, J. J. Heyd, E. N. Brothers, K. N. Kudin, 
 V. N. Staroverov, T. A. Keith, R. Kobayashi, J. Normand, 
 K. Raghavachari, A. P. Rendell, J. C. Burant, S. S. Iyengar, 
 J. Tomasi, M. Cossi, J. M. Millam, M. Klene, C. Adamo, R. Cammi, 
 J. W. Ochterski, R. L. Martin, K. Morokuma, O. Farkas, 
 J. B. Foresman, and D. J. Fox, Gaussian, Inc., Wallingford CT, 2019.
 
 ******************************************
 Gaussian 16:  ES64L-G16RevC.01  3-Jul-2019
                 2-May-2024 
 ******************************************
 %chk=geometry.chk
 %mem=1GB
 %nprocshared=12
 Will use up to   12 processors via shared memory.
 ----------------------------------------
 #P wB97XD/6-311+G* NoSymm #P Field=Y-272
 ----------------------------------------
 1/38=1,172=1/1;
 2/12=2,15=1,17=6,18=5,40=1/2;
 3/5=4,6=6,7=11,11=2,14=2,15=-272,25=1,30=1,74=-58/1,2,3;
 4//1;
 5/5=2,38=5/2;
 6/7=2,8=2,9=2,10=2,28=1/1;
 99/5=1,9=1/99;
 Leave Link    1 at Thu May  2 13:57:36 2024, MaxMem=   134217728 cpu:               1.2 elap:               1.2
 (Enter /software/gaussian/g16-c01/sse4/g16/l101.exe)
 -------
 TitleMe
 -------
 Symbolic Z-matrix:
 Charge =  1 Multiplicity = 1
 C                     0.5193    1.233    -0.0319 
 C                     1.9445    1.2692   -0.0367 
 C                     2.6204    0.0928   -0.025 
 C                    -0.196     0.0301    0.001 
 H                    -0.0207    2.1742   -0.0434 
 H                     2.4828    2.2089   -0.0361 
 H                    -1.2777    0.0399    0.0117 
 N                     4.0921    0.0959    0.0366 
 O                     4.6393   -1.0217    0.1446 
 O                     4.6649    1.1984   -0.0233 
 C                     0.4943   -1.1671    0.021 
 H                    -0.0325   -2.1149    0.0545 
 C                     1.9629   -1.2165   -0.0211 
 H                     2.4436   -1.9631    0.6151 
 Br                    2.173    -1.9491   -1.9062 
 
 ITRead=  0  0  0  0  0  0  0  0  0  0  0  0  0  0  0
 MicOpt= -1 -1 -1 -1 -1 -1 -1 -1 -1 -1 -1 -1 -1 -1 -1
 NAtoms=     15 NQM=       15 NQMF=       0 NMMI=      0 NMMIF=      0
                NMic=       0 NMicF=      0.
                    Isotopes and Nuclear Properties:
 (Nuclear quadrupole moments (NQMom) in fm**2, nuclear magnetic moments (NMagM)
  in nuclear magnetons)

  Atom         1           2           3           4           5           6           7           8           9          10
 IAtWgt=          12          12          12          12           1           1           1          14          16          16
 AtmWgt=  12.0000000  12.0000000  12.0000000  12.0000000   1.0078250   1.0078250   1.0078250  14.0030740  15.9949146  15.9949146
 NucSpn=           0           0           0           0           1           1           1           2           0           0
 AtZEff=  -0.0000000  -0.0000000  -0.0000000  -0.0000000  -0.0000000  -0.0000000  -0.0000000  -0.0000000  -0.0000000  -0.0000000
 NQMom=    0.0000000   0.0000000   0.0000000   0.0000000   0.0000000   0.0000000   0.0000000   2.0440000   0.0000000   0.0000000
 NMagM=    0.0000000   0.0000000   0.0000000   0.0000000   2.7928460   2.7928460   2.7928460   0.4037610   0.0000000   0.0000000
 AtZNuc=   6.0000000   6.0000000   6.0000000   6.0000000   1.0000000   1.0000000   1.0000000   7.0000000   8.0000000   8.0000000

  Atom        11          12          13          14          15
 IAtWgt=          12           1          12           1          79
 AtmWgt=  12.0000000   1.0078250  12.0000000   1.0078250  78.9183361
 NucSpn=           0           1           0           1           3
 AtZEff=  -0.0000000  -0.0000000  -0.0000000  -0.0000000  -0.0000000
 NQMom=    0.0000000   0.0000000   0.0000000   0.0000000  31.3000000
 NMagM=    0.0000000   2.7928460   0.0000000   2.7928460   2.1063990
 AtZNuc=   6.0000000   1.0000000   6.0000000   1.0000000  35.0000000
 Leave Link  101 at Thu May  2 13:57:38 2024, MaxMem=   134217728 cpu:               1.4 elap:               1.4
 (Enter /software/gaussian/g16-c01/sse4/g16/l202.exe)
                          Input orientation:                          
 ---------------------------------------------------------------------
 Center     Atomic      Atomic             Coordinates (Angstroms)
 Number     Number       Type             X           Y           Z
 ---------------------------------------------------------------------
      1          6           0        0.519300    1.233000   -0.031900
      2          6           0        1.944500    1.269200   -0.036700
      3          6           0        2.620400    0.092800   -0.025000
      4          6           0       -0.196000    0.030100    0.001000
      5          1           0       -0.020700    2.174200   -0.043400
      6          1           0        2.482800    2.208900   -0.036100
      7          1           0       -1.277700    0.039900    0.011700
      8          7           0        4.092100    0.095900    0.036600
      9          8           0        4.639300   -1.021700    0.144600
     10          8           0        4.664900    1.198400   -0.023300
     11          6           0        0.494300   -1.167100    0.021000
     12          1           0       -0.032500   -2.114900    0.054500
     13          6           0        1.962900   -1.216500   -0.021100
     14          1           0        2.443600   -1.963100    0.615100
     15         35           0        2.173000   -1.949100   -1.906200
 ---------------------------------------------------------------------
                    Distance matrix (angstroms):
                    1          2          3          4          5
     1  C    0.000000
     2  C    1.425668   0.000000
     3  C    2.390549   1.356796   0.000000
     4  C    1.399895   2.473566   2.817218   0.000000
     5  H    1.085168   2.163581   3.362733   2.151712   0.000000
     6  H    2.192654   1.082960   2.120598   3.453189   2.503751
     7  H    2.157452   3.449071   3.898632   1.081797   2.477564
     8  N    3.750012   2.448304   1.472992   4.288753   4.608780
     9  O    4.699917   3.541615   2.312322   4.950458   5.653735
    10  O    4.145753   2.721354   2.324292   4.999386   4.786171
    11  C    2.400813   2.835836   2.471794   1.382101   3.381369
    12  H    3.394169   3.920329   3.452266   2.151887   4.290233
    13  C    2.843264   2.485817   1.465124   2.493060   3.928360
    14  H    3.786370   3.334922   2.160489   3.364142   4.860416
    15  Br   4.046416   3.728900   2.812194   3.628609   5.028314
                    6          7          8          9         10
     6  H    0.000000
     7  H    4.341452   0.000000
     8  N    2.657047   5.370150   0.000000
     9  O    3.888434   6.012948   1.249048   0.000000
    10  O    2.404752   6.054572   1.243863   2.226587   0.000000
    11  C    3.918516   2.144043   3.813080   4.149391   4.794941
    12  H    5.003018   2.489080   4.679774   4.798846   5.748876
    13  C    3.464662   3.475788   2.501842   2.688591   3.623886
    14  H    4.222698   4.268978   2.700314   2.434893   3.916224
    15  Br   4.569706   4.420610   3.411663   3.338935   4.434144
                   11         12         13         14         15
    11  C    0.000000
    12  H    1.084880   0.000000
    13  C    1.470034   2.189625   0.000000
    14  H    2.187771   2.543302   1.092353   0.000000
    15  Br   2.672762   2.955683   2.033334   2.535818   0.000000
 Symmetry turned off by external request.
 Stoichiometry    C6H5BrNO2(1+)
 Framework group  C1[X(C6H5BrNO2)]
 Deg. of freedom    39
 Full point group                 C1      NOp   1
 Rotational constants (GHZ):           1.1632986           0.9594224           0.5957624
 Leave Link  202 at Thu May  2 13:57:39 2024, MaxMem=   134217728 cpu:               1.1 elap:               1.2
 (Enter /software/gaussian/g16-c01/sse4/g16/l301.exe)
 Standard basis: 6-311+G(d) (5D, 7F)
 Ernie: Thresh=  0.10000D-02 Tol=  0.10000D-05 Strict=F.
 The following finite field(s) will be applied:
 An electric field of              0.0000 -0.0272  0.0000
   261 basis functions,   443 primitive gaussians,   273 cartesian basis functions
    49 alpha electrons       49 beta electrons
       nuclear repulsion energy       772.8945969580 Hartrees.
 IExCor= 4639 DFT=T Ex+Corr=wB97XD ExCW=0 ScaHFX=  1.000000
 ScaDFX=  1.000000  1.000000  1.000000  1.000000 ScalE2=  1.000000  1.000000
 IRadAn=      5 IRanWt=     -1 IRanGd=            0 ICorTp=0 IEmpDi=121
 HFx  wShort=  0.000000 wLong=  0.200000 cFull=  0.222036 cShort=  0.000000 cLong=  0.777964
 DFx  wShort=  0.000000 wLong=  0.200000 cFull=  0.000000 cShort=  0.000000 cLong=  1.000000
 NAtoms=   15 NActive=   15 NUniq=   15 SFac= 1.00D+00 NAtFMM=   60 NAOKFM=F Big=F
 Integral buffers will be    131072 words long.
 Raffenetti 2 integral format.
 Two-electron integral symmetry is turned off.
 R6Disp:  Grimme-D2 Dispersion energy=       -0.0080346408 Hartrees.
 Nuclear repulsion after empirical dispersion term =      772.8865623173 Hartrees.
 Leave Link  301 at Thu May  2 13:57:41 2024, MaxMem=   134217728 cpu:               1.0 elap:               1.0
 (Enter /software/gaussian/g16-c01/sse4/g16/l302.exe)
 NPDir=0 NMtPBC=     1 NCelOv=     1 NCel=       1 NClECP=     1 NCelD=      1
         NCelK=      1 NCelE2=     1 NClLst=     1 CellRange=     0.0.
 One-electron integrals computed using PRISM.
 NBasis=   261 RedAO= T EigKep=  2.52D-06  NBF=   261
 NBsUse=   261 1.00D-06 EigRej= -1.00D+00 NBFU=   261
 Precomputing XC quadrature grid using
 IXCGrd= 4 IRadAn=           5 IRanWt=          -1 IRanGd=           0 AccXCQ= 0.00D+00.
 Generated NRdTot=       0 NPtTot=           0 NUsed=           0 NTot=          32
 NSgBfM=   273   273   273   273   273 MxSgAt=    15 MxSgA2=    15.
 Leave Link  302 at Thu May  2 13:58:03 2024, MaxMem=   134217728 cpu:              21.8 elap:              21.8
 (Enter /software/gaussian/g16-c01/sse4/g16/l303.exe)
 DipDrv:  MaxL=1.
 The nuclear repulsion energy is now       776.1936531819 hartrees.
 Leave Link  303 at Thu May  2 13:58:06 2024, MaxMem=   134217728 cpu:               3.4 elap:               3.4
 (Enter /software/gaussian/g16-c01/sse4/g16/l401.exe)
 ExpMin= 3.50D-02 ExpMax= 4.40D+05 ExpMxC= 1.51D+04 IAcc=3 IRadAn=         5 AccDes= 0.00D+00
 Harris functional with IExCor= 4639 and IRadAn=       5 diagonalized for initial guess.
 HarFok:  IExCor= 4639 AccDes= 0.00D+00 IRadAn=         5 IDoV= 1 UseB2=F ITyADJ=14
 ICtDFT=  3500011 ScaDFX=  1.000000  1.000000  1.000000  1.000000
 FoFCou: FMM=F IPFlag=           0 FMFlag=      100000 FMFlg1=           0
         NFxFlg=           0 DoJE=T BraDBF=F KetDBF=T FulRan=T
         wScrn=  0.000000 ICntrl=       500 IOpCl=  0 I1Cent=   200000004 NGrid=           0
         NMat0=    1 NMatS0=      1 NMatT0=    0 NMatD0=    1 NMtDS0=    0 NMtDT0=    0
 Symmetry not used in FoFCou.
 Harris En= -2970.88974596520    
 JPrj=0 DoOrth=F DoCkMO=F.
 Leave Link  401 at Thu May  2 13:58:38 2024, MaxMem=   134217728 cpu:              31.4 elap:              31.4
 (Enter /software/gaussian/g16-c01/sse4/g16/l502.exe)
 Two-electron integral symmetry not used.
 Closed shell SCF:
 Using DIIS extrapolation, IDIIS=  1040.
 NGot=   134217728 LenX=   134063053 LenY=   133988083
 Requested convergence on RMS density matrix=1.00D-08 within 128 cycles.
 Requested convergence on MAX density matrix=1.00D-06.
 Requested convergence on             energy=1.00D-06.
 No special actions if energy rises.
 Fock matrices will be formed incrementally for  20 cycles.

 Cycle   1  Pass 1  IDiag  1:
 FoFJK:  IHMeth= 1 ICntrl=       0 DoSepK=T KAlg= 0 I1Cent=           0 FoldK=F
 IRaf=         1 NMat=       1 IRICut=       1 DoRegI=T DoRafI=F ISym2E= 0 IDoP0=0 IntGTp=1.
 FoFCou: FMM=F IPFlag=           0 FMFlag=      100000 FMFlg1=           0
         NFxFlg=           0 DoJE=T BraDBF=F KetDBF=F FulRan=T
         wScrn=  0.000000 ICntrl=       500 IOpCl=  0 I1Cent=           0 NGrid=           0
         NMat0=    1 NMatS0=      1 NMatT0=    0 NMatD0=    1 NMtDS0=    0 NMtDT0=    0
 Symmetry not used in FoFCou.
 E= -3005.92808884812    
 DIIS: error= 2.91D-01 at cycle   1 NSaved=   1.
 NSaved= 1 IEnMin= 1 EnMin= -3005.92808884812     IErMin= 1 ErrMin= 2.91D-01
 ErrMax= 2.91D-01  0.00D+00 EMaxC= 1.00D-01 BMatC= 1.37D+01 BMatP= 1.37D+01
 IDIUse=3 WtCom= 0.00D+00 WtEn= 1.00D+00
 Coeff-Com:  0.100D+01
 Coeff-En:   0.100D+01
 Coeff:      0.100D+01
 Gap=    -0.298 Goal=   None    Shift=    0.000
 GapD=   -0.298 DampG=0.250 DampE=0.250 DampFc=0.2500 IDamp=-1.
 Damping current iteration by 2.50D-01
 RMSDP=2.42D+00 MaxDP=2.97D+02              OVMax= 8.37D-01

 Cycle   2  Pass 1  IDiag  1:
 RMSU=  5.69D-02    CP:  7.59D-01
 E= -3006.70856955785     Delta-E=       -0.780480709727 Rises=F Damp=T
 DIIS: error= 2.19D-01 at cycle   2 NSaved=   2.
 NSaved= 2 IEnMin= 2 EnMin= -3006.70856955785     IErMin= 2 ErrMin= 2.19D-01
 ErrMax= 2.19D-01  0.00D+00 EMaxC= 1.00D-01 BMatC= 5.89D+00 BMatP= 1.37D+01
 IDIUse=3 WtCom= 0.00D+00 WtEn= 1.00D+00
 Coeff-Com: -0.727D+00 0.173D+01
 Coeff-En:   0.367D+00 0.633D+00
 Coeff:      0.367D+00 0.633D+00
 Gap=    -0.290 Goal=   None    Shift=    0.000
 RMSDP=1.85D+00 MaxDP=2.30D+02 DE=-7.80D-01 OVMax= 9.64D-01

 Cycle   3  Pass 1  IDiag  1:
 RMSU=  4.39D-02    CP:  1.90D-02  1.03D+00
 E= -3008.00677574358     Delta-E=       -1.298206185735 Rises=F Damp=F
 DIIS: error= 1.20D-01 at cycle   3 NSaved=   3.
 NSaved= 3 IEnMin= 3 EnMin= -3008.00677574358     IErMin= 3 ErrMin= 1.20D-01
 ErrMax= 1.20D-01  0.00D+00 EMaxC= 1.00D-01 BMatC= 4.42D+00 BMatP= 5.89D+00
 IDIUse=3 WtCom= 0.00D+00 WtEn= 1.00D+00
 EnCoef did   100 forward-backward iterations
 Coeff-Com: -0.347D-02 0.452D+00 0.551D+00
 Coeff-En:   0.370D+00 0.641D-02 0.624D+00
 Coeff:      0.370D+00 0.641D-02 0.624D+00
 Gap=     0.016 Goal=   None    Shift=    0.000
 RMSDP=9.15D-02 MaxDP=1.15D+01 DE=-1.30D+00 OVMax= 4.56D-01

 Cycle   4  Pass 1  IDiag  1:
 RMSU=  8.40D-02    CP:  2.74D-02  1.53D+00  1.16D+00
 E= -3009.00689671683     Delta-E=       -1.000120973245 Rises=F Damp=F
 DIIS: error= 1.25D-01 at cycle   4 NSaved=   4.
 NSaved= 4 IEnMin= 4 EnMin= -3009.00689671683     IErMin= 3 ErrMin= 1.20D-01
 ErrMax= 1.25D-01  0.00D+00 EMaxC= 1.00D-01 BMatC= 2.09D+00 BMatP= 4.42D+00
 IDIUse=3 WtCom= 0.00D+00 WtEn= 1.00D+00
 EnCoef did     5 forward-backward iterations
 Coeff-Com:  0.182D+00-0.779D-01 0.394D+00 0.502D+00
 Coeff-En:   0.474D-01 0.000D+00 0.392D+00 0.560D+00
 Coeff:      0.474D-01 0.000D+00 0.392D+00 0.560D+00
 Gap=     0.171 Goal=   None    Shift=    0.000
 RMSDP=6.64D-02 MaxDP=6.17D+00 DE=-1.00D+00 OVMax= 4.63D-01

 Cycle   5  Pass 1  IDiag  1:
 RMSU=  4.07D-02    CP:  2.25D-02  1.04D+00  1.07D+00  4.97D-01
 E= -3010.27745665342     Delta-E=       -1.270559936593 Rises=F Damp=F
 DIIS: error= 5.02D-02 at cycle   5 NSaved=   5.
 NSaved= 5 IEnMin= 5 EnMin= -3010.27745665342     IErMin= 5 ErrMin= 5.02D-02
 ErrMax= 5.02D-02  0.00D+00 EMaxC= 1.00D-01 BMatC= 4.10D-01 BMatP= 2.09D+00
 IDIUse=3 WtCom= 4.98D-01 WtEn= 5.02D-01
 Coeff-Com: -0.458D-01 0.579D-01 0.751D-01 0.278D+00 0.634D+00
 Coeff-En:   0.000D+00 0.000D+00 0.000D+00 0.172D+00 0.828D+00
 Coeff:     -0.228D-01 0.288D-01 0.374D-01 0.225D+00 0.732D+00
 Gap=     0.267 Goal=   None    Shift=    0.000
 RMSDP=2.49D-02 MaxDP=1.68D+00 DE=-1.27D+00 OVMax= 2.27D-01

 Cycle   6  Pass 1  IDiag  1:
 RMSU=  1.25D-02    CP:  2.09D-02  8.88D-01  9.37D-01  5.58D-01  5.64D-01
 E= -3010.49850978407     Delta-E=       -0.221053130649 Rises=F Damp=F
 DIIS: error= 3.26D-02 at cycle   6 NSaved=   6.
 NSaved= 6 IEnMin= 6 EnMin= -3010.49850978407     IErMin= 6 ErrMin= 3.26D-02
 ErrMax= 3.26D-02  0.00D+00 EMaxC= 1.00D-01 BMatC= 1.05D-01 BMatP= 4.10D-01
 IDIUse=3 WtCom= 6.74D-01 WtEn= 3.26D-01
 Coeff-Com: -0.371D-01 0.557D-01 0.119D-03-0.256D-04 0.339D+00 0.642D+00
 Coeff-En:   0.000D+00 0.000D+00 0.000D+00 0.000D+00 0.194D+00 0.806D+00
 Coeff:     -0.250D-01 0.375D-01 0.802D-04-0.173D-04 0.292D+00 0.696D+00
 Gap=     0.250 Goal=   None    Shift=    0.000
 RMSDP=1.09D-02 MaxDP=1.45D+00 DE=-2.21D-01 OVMax= 7.63D-02

 Cycle   7  Pass 1  IDiag  1:
 RMSU=  5.32D-03    CP:  1.96D-02  8.43D-01  9.08D-01  4.74D-01  5.88D-01
                    CP:  6.44D-01
 E= -3010.55602315341     Delta-E=       -0.057513369340 Rises=F Damp=F
 DIIS: error= 8.10D-03 at cycle   7 NSaved=   7.
 NSaved= 7 IEnMin= 7 EnMin= -3010.55602315341     IErMin= 7 ErrMin= 8.10D-03
 ErrMax= 8.10D-03  0.00D+00 EMaxC= 1.00D-01 BMatC= 1.29D-02 BMatP= 1.05D-01
 IDIUse=3 WtCom= 9.19D-01 WtEn= 8.10D-02
 Coeff-Com: -0.139D-01 0.216D-01-0.106D-01-0.207D-01 0.683D-01 0.357D+00
 Coeff-Com:  0.598D+00
 Coeff-En:   0.000D+00 0.000D+00 0.000D+00 0.000D+00 0.000D+00 0.114D+00
 Coeff-En:   0.886D+00
 Coeff:     -0.128D-01 0.199D-01-0.972D-02-0.190D-01 0.628D-01 0.337D+00
 Coeff:      0.621D+00
 Gap=     0.238 Goal=   None    Shift=    0.000
 RMSDP=3.96D-03 MaxDP=5.50D-01 DE=-5.75D-02 OVMax= 2.30D-02

 Cycle   8  Pass 1  IDiag  1:
 RMSU=  1.09D-03    CP:  2.04D-02  8.73D-01  9.28D-01  5.01D-01  5.81D-01
                    CP:  7.13D-01  9.72D-01
 E= -3010.56442101950     Delta-E=       -0.008397866094 Rises=F Damp=F
 DIIS: error= 2.26D-03 at cycle   8 NSaved=   8.
 NSaved= 8 IEnMin= 8 EnMin= -3010.56442101950     IErMin= 8 ErrMin= 2.26D-03
 ErrMax= 2.26D-03  0.00D+00 EMaxC= 1.00D-01 BMatC= 6.68D-04 BMatP= 1.29D-02
 IDIUse=3 WtCom= 9.77D-01 WtEn= 2.26D-02
 Coeff-Com: -0.233D-02 0.298D-02-0.246D-02-0.579D-02-0.138D-01 0.623D-01
 Coeff-Com:  0.283D+00 0.676D+00
 Coeff-En:   0.000D+00 0.000D+00 0.000D+00 0.000D+00 0.000D+00 0.000D+00
 Coeff-En:   0.000D+00 0.100D+01
 Coeff:     -0.228D-02 0.292D-02-0.241D-02-0.565D-02-0.135D-01 0.609D-01
 Coeff:      0.276D+00 0.683D+00
 Gap=     0.241 Goal=   None    Shift=    0.000
 RMSDP=1.96D-03 MaxDP=2.39D-01 DE=-8.40D-03 OVMax= 8.96D-03

 Cycle   9  Pass 1  IDiag  1:
 RMSU=  5.31D-04    CP:  2.01D-02  8.68D-01  9.21D-01  4.95D-01  5.61D-01
                    CP:  6.58D-01  1.17D+00  1.04D+00
 E= -3010.56500086218     Delta-E=       -0.000579842674 Rises=F Damp=F
 DIIS: error= 4.20D-04 at cycle   9 NSaved=   9.
 NSaved= 9 IEnMin= 9 EnMin= -3010.56500086218     IErMin= 9 ErrMin= 4.20D-04
 ErrMax= 4.20D-04  0.00D+00 EMaxC= 1.00D-01 BMatC= 5.06D-05 BMatP= 6.68D-04
 IDIUse=3 WtCom= 9.96D-01 WtEn= 4.20D-03
 Coeff-Com:  0.391D-03-0.705D-03 0.892D-04-0.879D-03-0.116D-01-0.128D-01
 Coeff-Com:  0.292D-01 0.266D+00 0.730D+00
 Coeff-En:   0.000D+00 0.000D+00 0.000D+00 0.000D+00 0.000D+00 0.000D+00
 Coeff-En:   0.000D+00 0.000D+00 0.100D+01
 Coeff:      0.390D-03-0.702D-03 0.888D-04-0.875D-03-0.115D-01-0.127D-01
 Coeff:      0.291D-01 0.265D+00 0.731D+00
 Gap=     0.239 Goal=   None    Shift=    0.000
 RMSDP=4.92D-04 MaxDP=4.05D-02 DE=-5.80D-04 OVMax= 3.87D-03

 Cycle  10  Pass 1  IDiag  1:
 RMSU=  1.59D-04    CP:  2.01D-02  8.71D-01  9.24D-01  4.97D-01  5.56D-01
                    CP:  6.57D-01  1.21D+00  1.20D+00  1.10D+00
 E= -3010.56506986455     Delta-E=       -0.000069002370 Rises=F Damp=F
 DIIS: error= 1.12D-04 at cycle  10 NSaved=  10.
 NSaved=10 IEnMin=10 EnMin= -3010.56506986455     IErMin=10 ErrMin= 1.12D-04
 ErrMax= 1.12D-04  0.00D+00 EMaxC= 1.00D-01 BMatC= 4.26D-06 BMatP= 5.06D-05
 IDIUse=3 WtCom= 9.99D-01 WtEn= 1.12D-03
 Coeff-Com:  0.333D-03-0.485D-03 0.794D-04-0.326D-03 0.272D-04-0.625D-02
 Coeff-Com: -0.232D-01-0.827D-02 0.133D+00 0.905D+00
 Coeff-En:   0.000D+00 0.000D+00 0.000D+00 0.000D+00 0.000D+00 0.000D+00
 Coeff-En:   0.000D+00 0.000D+00 0.000D+00 0.100D+01
 Coeff:      0.333D-03-0.485D-03 0.793D-04-0.326D-03 0.271D-04-0.624D-02
 Coeff:     -0.232D-01-0.826D-02 0.133D+00 0.905D+00
 Gap=     0.239 Goal=   None    Shift=    0.000
 RMSDP=1.96D-04 MaxDP=9.82D-03 DE=-6.90D-05 OVMax= 2.94D-03

 Cycle  11  Pass 1  IDiag  1:
 RMSU=  1.04D-04    CP:  2.02D-02  8.71D-01  9.23D-01  4.98D-01  5.55D-01
                    CP:  6.58D-01  1.23D+00  1.23D+00  1.20D+00  1.39D+00
 E= -3010.56508471839     Delta-E=       -0.000014853840 Rises=F Damp=F
 DIIS: error= 6.66D-05 at cycle  11 NSaved=  11.
 NSaved=11 IEnMin=11 EnMin= -3010.56508471839     IErMin=11 ErrMin= 6.66D-05
 ErrMax= 6.66D-05  0.00D+00 EMaxC= 1.00D-01 BMatC= 1.43D-06 BMatP= 4.26D-06
 IDIUse=1 WtCom= 1.00D+00 WtEn= 0.00D+00
 Coeff-Com:  0.208D-03-0.297D-03-0.433D-04-0.114D-03 0.170D-02 0.104D-02
 Coeff-Com: -0.429D-02-0.350D-01-0.113D+00 0.225D+00 0.924D+00
 Coeff:      0.208D-03-0.297D-03-0.433D-04-0.114D-03 0.170D-02 0.104D-02
 Coeff:     -0.429D-02-0.350D-01-0.113D+00 0.225D+00 0.924D+00
 Gap=     0.238 Goal=   None    Shift=    0.000
 RMSDP=1.53D-04 MaxDP=1.20D-02 DE=-1.49D-05 OVMax= 1.75D-03

 Cycle  12  Pass 1  IDiag  1:
 RMSU=  2.58D-05    CP:  2.02D-02  8.72D-01  9.23D-01  4.99D-01  5.54D-01
                    CP:  6.55D-01  1.24D+00  1.26D+00  1.23D+00  1.67D+00
                    CP:  1.30D+00
 E= -3010.56508916284     Delta-E=       -0.000004444450 Rises=F Damp=F
 DIIS: error= 4.17D-05 at cycle  12 NSaved=  12.
 NSaved=12 IEnMin=12 EnMin= -3010.56508916284     IErMin=12 ErrMin= 4.17D-05
 ErrMax= 4.17D-05  0.00D+00 EMaxC= 1.00D-01 BMatC= 2.88D-07 BMatP= 1.43D-06
 IDIUse=1 WtCom= 1.00D+00 WtEn= 0.00D+00
 Coeff-Com:  0.700D-04-0.105D-03-0.278D-04-0.561D-04 0.816D-03 0.263D-02
 Coeff-Com:  0.505D-02-0.131D-01-0.744D-01-0.110D+00 0.243D+00 0.946D+00
 Coeff:      0.700D-04-0.105D-03-0.278D-04-0.561D-04 0.816D-03 0.263D-02
 Coeff:      0.505D-02-0.131D-01-0.744D-01-0.110D+00 0.243D+00 0.946D+00
 Gap=     0.238 Goal=   None    Shift=    0.000
 RMSDP=4.39D-05 MaxDP=2.05D-03 DE=-4.44D-06 OVMax= 1.05D-03

 Cycle  13  Pass 1  IDiag  1:
 RMSU=  1.26D-05    CP:  2.02D-02  8.71D-01  9.23D-01  4.99D-01  5.54D-01
                    CP:  6.56D-01  1.24D+00  1.26D+00  1.23D+00  1.77D+00
                    CP:  1.57D+00  1.20D+00
 E= -3010.56509024503     Delta-E=       -0.000001082190 Rises=F Damp=F
 DIIS: error= 1.26D-05 at cycle  13 NSaved=  13.
 NSaved=13 IEnMin=13 EnMin= -3010.56509024503     IErMin=13 ErrMin= 1.26D-05
 ErrMax= 1.26D-05  0.00D+00 EMaxC= 1.00D-01 BMatC= 5.32D-08 BMatP= 2.88D-07
 IDIUse=1 WtCom= 1.00D+00 WtEn= 0.00D+00
 Coeff-Com:  0.111D-04-0.141D-04 0.326D-05-0.378D-04 0.178D-04 0.109D-02
 Coeff-Com:  0.320D-02 0.235D-02-0.233D-02-0.655D-01-0.994D-01 0.350D+00
 Coeff-Com:  0.811D+00
 Coeff:      0.111D-04-0.141D-04 0.326D-05-0.378D-04 0.178D-04 0.109D-02
 Coeff:      0.320D-02 0.235D-02-0.233D-02-0.655D-01-0.994D-01 0.350D+00
 Coeff:      0.811D+00
 Gap=     0.238 Goal=   None    Shift=    0.000
 RMSDP=1.11D-05 MaxDP=7.77D-04 DE=-1.08D-06 OVMax= 3.48D-04

 Cycle  14  Pass 1  IDiag  1:
 RMSU=  4.37D-06    CP:  2.02D-02  8.71D-01  9.23D-01  4.99D-01  5.54D-01
                    CP:  6.56D-01  1.24D+00  1.26D+00  1.23D+00  1.78D+00
                    CP:  1.61D+00  1.36D+00  1.18D+00
 E= -3010.56509039400     Delta-E=       -0.000000148975 Rises=F Damp=F
 DIIS: error= 6.38D-06 at cycle  14 NSaved=  14.
 NSaved=14 IEnMin=14 EnMin= -3010.56509039400     IErMin=14 ErrMin= 6.38D-06
 ErrMax= 6.38D-06  0.00D+00 EMaxC= 1.00D-01 BMatC= 1.04D-08 BMatP= 5.32D-08
 IDIUse=1 WtCom= 1.00D+00 WtEn= 0.00D+00
 Coeff-Com: -0.381D-05 0.648D-05 0.147D-05-0.591D-05-0.487D-04 0.111D-03
 Coeff-Com:  0.537D-03 0.190D-02 0.644D-02-0.117D-01-0.763D-01 0.102D-01
 Coeff-Com:  0.333D+00 0.736D+00
 Coeff:     -0.381D-05 0.648D-05 0.147D-05-0.591D-05-0.487D-04 0.111D-03
 Coeff:      0.537D-03 0.190D-02 0.644D-02-0.117D-01-0.763D-01 0.102D-01
 Coeff:      0.333D+00 0.736D+00
 Gap=     0.238 Goal=   None    Shift=    0.000
 RMSDP=4.38D-06 MaxDP=2.83D-04 DE=-1.49D-07 OVMax= 1.40D-04

 Cycle  15  Pass 1  IDiag  1:
 RMSU=  1.34D-06    CP:  2.02D-02  8.71D-01  9.23D-01  4.99D-01  5.54D-01
                    CP:  6.56D-01  1.24D+00  1.26D+00  1.23D+00  1.79D+00
                    CP:  1.63D+00  1.40D+00  1.35D+00  1.33D+00
 E= -3010.56509042317     Delta-E=       -0.000000029173 Rises=F Damp=F
 DIIS: error= 2.57D-06 at cycle  15 NSaved=  15.
 NSaved=15 IEnMin=15 EnMin= -3010.56509042317     IErMin=15 ErrMin= 2.57D-06
 ErrMax= 2.57D-06  0.00D+00 EMaxC= 1.00D-01 BMatC= 1.16D-09 BMatP= 1.04D-08
 IDIUse=1 WtCom= 1.00D+00 WtEn= 0.00D+00
 Coeff-Com: -0.305D-05 0.347D-05-0.841D-06 0.818D-05-0.810D-05-0.194D-03
 Coeff-Com: -0.453D-03 0.185D-03 0.176D-02 0.113D-01-0.605D-04-0.668D-01
 Coeff-Com: -0.868D-01 0.144D+00 0.997D+00
 Coeff:     -0.305D-05 0.347D-05-0.841D-06 0.818D-05-0.810D-05-0.194D-03
 Coeff:     -0.453D-03 0.185D-03 0.176D-02 0.113D-01-0.605D-04-0.668D-01
 Coeff:     -0.868D-01 0.144D+00 0.997D+00
 Gap=     0.238 Goal=   None    Shift=    0.000
 RMSDP=4.24D-06 MaxDP=2.80D-04 DE=-2.92D-08 OVMax= 6.72D-05

 Cycle  16  Pass 1  IDiag  1:
 RMSU=  7.19D-07    CP:  2.02D-02  8.71D-01  9.23D-01  4.99D-01  5.54D-01
                    CP:  6.56D-01  1.24D+00  1.26D+00  1.23D+00  1.78D+00
                    CP:  1.63D+00  1.40D+00  1.45D+00  1.57D+00  1.49D+00
 E= -3010.56509042984     Delta-E=       -0.000000006669 Rises=F Damp=F
 DIIS: error= 1.34D-06 at cycle  16 NSaved=  16.
 NSaved=16 IEnMin=16 EnMin= -3010.56509042984     IErMin=16 ErrMin= 1.34D-06
 ErrMax= 1.34D-06  0.00D+00 EMaxC= 1.00D-01 BMatC= 1.63D-10 BMatP= 1.16D-09
 IDIUse=1 WtCom= 1.00D+00 WtEn= 0.00D+00
 Coeff-Com: -0.521D-07 0.166D-06 0.126D-05-0.124D-05 0.775D-05-0.967D-05
 Coeff-Com: -0.107D-03-0.357D-03-0.104D-02 0.143D-02 0.124D-01-0.111D-02
 Coeff-Com: -0.589D-01-0.103D+00 0.668D-02 0.114D+01
 Coeff:     -0.521D-07 0.166D-06 0.126D-05-0.124D-05 0.775D-05-0.967D-05
 Coeff:     -0.107D-03-0.357D-03-0.104D-02 0.143D-02 0.124D-01-0.111D-02
 Coeff:     -0.589D-01-0.103D+00 0.668D-02 0.114D+01
 Gap=     0.238 Goal=   None    Shift=    0.000
 RMSDP=2.47D-06 MaxDP=1.95D-04 DE=-6.67D-09 OVMax= 3.23D-05

 Cycle  17  Pass 1  IDiag  1:
 RMSU=  3.47D-07    CP:  2.02D-02  8.71D-01  9.23D-01  4.99D-01  5.54D-01
                    CP:  6.56D-01  1.24D+00  1.26D+00  1.23D+00  1.78D+00
                    CP:  1.63D+00  1.39D+00  1.47D+00  1.72D+00  1.79D+00
                    CP:  1.42D+00
 E= -3010.56509043112     Delta-E=       -0.000000001275 Rises=F Damp=F
 DIIS: error= 6.18D-07 at cycle  17 NSaved=  17.
 NSaved=17 IEnMin=17 EnMin= -3010.56509043112     IErMin=17 ErrMin= 6.18D-07
 ErrMax= 6.18D-07  0.00D+00 EMaxC= 1.00D-01 BMatC= 2.99D-11 BMatP= 1.63D-10
 IDIUse=1 WtCom= 1.00D+00 WtEn= 0.00D+00
 Coeff-Com:  0.259D-06-0.270D-06 0.707D-07-0.137D-05 0.233D-05 0.267D-04
 Coeff-Com:  0.469D-04-0.649D-04-0.333D-03-0.138D-02 0.229D-02 0.923D-02
 Coeff-Com:  0.305D-03-0.357D-01-0.160D+00 0.199D+00 0.987D+00
 Coeff:      0.259D-06-0.270D-06 0.707D-07-0.137D-05 0.233D-05 0.267D-04
 Coeff:      0.469D-04-0.649D-04-0.333D-03-0.138D-02 0.229D-02 0.923D-02
 Coeff:      0.305D-03-0.357D-01-0.160D+00 0.199D+00 0.987D+00
 Gap=     0.238 Goal=   None    Shift=    0.000
 RMSDP=8.97D-07 MaxDP=8.51D-05 DE=-1.28D-09 OVMax= 1.45D-05

 Cycle  18  Pass 1  IDiag  1:
 RMSU=  1.22D-07    CP:  2.02D-02  8.71D-01  9.23D-01  4.99D-01  5.54D-01
                    CP:  6.56D-01  1.24D+00  1.26D+00  1.23D+00  1.78D+00
                    CP:  1.63D+00  1.38D+00  1.47D+00  1.75D+00  1.88D+00
                    CP:  1.66D+00  1.39D+00
 E= -3010.56509043133     Delta-E=       -0.000000000213 Rises=F Damp=F
 DIIS: error= 2.41D-07 at cycle  18 NSaved=  18.
 NSaved=18 IEnMin=18 EnMin= -3010.56509043133     IErMin=18 ErrMin= 2.41D-07
 ErrMax= 2.41D-07  0.00D+00 EMaxC= 1.00D-01 BMatC= 7.00D-12 BMatP= 2.99D-11
 IDIUse=1 WtCom= 1.00D+00 WtEn= 0.00D+00
 Coeff-Com:  0.804D-07-0.112D-06-0.460D-06 0.365D-07-0.108D-05 0.829D-05
 Coeff-Com:  0.339D-04 0.606D-04 0.110D-03-0.752D-03-0.160D-02 0.287D-02
 Coeff-Com:  0.117D-01 0.118D-01-0.425D-01-0.164D+00 0.292D+00 0.890D+00
 Coeff:      0.804D-07-0.112D-06-0.460D-06 0.365D-07-0.108D-05 0.829D-05
 Coeff:      0.339D-04 0.606D-04 0.110D-03-0.752D-03-0.160D-02 0.287D-02
 Coeff:      0.117D-01 0.118D-01-0.425D-01-0.164D+00 0.292D+00 0.890D+00
 Gap=     0.238 Goal=   None    Shift=    0.000
 RMSDP=3.16D-07 MaxDP=3.63D-05 DE=-2.13D-10 OVMax= 5.72D-06

 Cycle  19  Pass 1  IDiag  1:
 RMSU=  4.76D-08    CP:  2.02D-02  8.71D-01  9.23D-01  4.99D-01  5.54D-01
                    CP:  6.56D-01  1.24D+00  1.26D+00  1.23D+00  1.78D+00
                    CP:  1.63D+00  1.38D+00  1.47D+00  1.75D+00  1.88D+00
                    CP:  1.72D+00  1.61D+00  1.55D+00
 E= -3010.56509043137     Delta-E=       -0.000000000039 Rises=F Damp=F
 DIIS: error= 1.13D-07 at cycle  19 NSaved=  19.
 NSaved=19 IEnMin=19 EnMin= -3010.56509043137     IErMin=19 ErrMin= 1.13D-07
 ErrMax= 1.13D-07  0.00D+00 EMaxC= 1.00D-01 BMatC= 1.13D-12 BMatP= 7.00D-12
 IDIUse=1 WtCom= 1.00D+00 WtEn= 0.00D+00
 Coeff-Com: -0.376D-07 0.493D-07-0.131D-06 0.238D-06-0.682D-06-0.141D-05
 Coeff-Com: -0.639D-06 0.203D-04 0.671D-04 0.227D-04-0.630D-03-0.897D-03
 Coeff-Com:  0.229D-02 0.682D-02 0.146D-01-0.633D-01-0.955D-01 0.122D+00
 Coeff-Com:  0.101D+01
 Coeff:     -0.376D-07 0.493D-07-0.131D-06 0.238D-06-0.682D-06-0.141D-05
 Coeff:     -0.639D-06 0.203D-04 0.671D-04 0.227D-04-0.630D-03-0.897D-03
 Coeff:      0.229D-02 0.682D-02 0.146D-01-0.633D-01-0.955D-01 0.122D+00
 Coeff:      0.101D+01
 Gap=     0.238 Goal=   None    Shift=    0.000
 RMSDP=2.31D-07 MaxDP=2.97D-05 DE=-3.91D-11 OVMax= 3.49D-06

 Cycle  20  Pass 1  IDiag  1:
 RMSU=  2.51D-08    CP:  2.02D-02  8.71D-01  9.23D-01  4.99D-01  5.54D-01
                    CP:  6.56D-01  1.24D+00  1.26D+00  1.23D+00  1.78D+00
                    CP:  1.63D+00  1.38D+00  1.47D+00  1.75D+00  1.87D+00
                    CP:  1.73D+00  1.70D+00  1.97D+00  1.65D+00
 E= -3010.56509043136     Delta-E=        0.000000000013 Rises=F Damp=F
 DIIS: error= 4.50D-08 at cycle  20 NSaved=  20.
 NSaved=20 IEnMin=19 EnMin= -3010.56509043137     IErMin=20 ErrMin= 4.50D-08
 ErrMax= 4.50D-08  0.00D+00 EMaxC= 1.00D-01 BMatC= 4.09D-13 BMatP= 1.13D-12
 IDIUse=1 WtCom= 1.00D+00 WtEn= 0.00D+00
 Coeff-Com: -0.477D-07 0.631D-07 0.371D-07 0.625D-07-0.143D-06-0.191D-05
 Coeff-Com: -0.609D-05-0.413D-05-0.366D-05 0.148D-03 0.180D-03-0.628D-03
 Coeff-Com: -0.131D-02-0.541D-03 0.123D-01 0.106D-01-0.770D-01-0.174D+00
 Coeff-Com:  0.365D+00 0.865D+00
 Coeff:     -0.477D-07 0.631D-07 0.371D-07 0.625D-07-0.143D-06-0.191D-05
 Coeff:     -0.609D-05-0.413D-05-0.366D-05 0.148D-03 0.180D-03-0.628D-03
 Coeff:     -0.131D-02-0.541D-03 0.123D-01 0.106D-01-0.770D-01-0.174D+00
 Coeff:      0.365D+00 0.865D+00
 Gap=     0.238 Goal=   None    Shift=    0.000
 RMSDP=8.97D-08 MaxDP=8.55D-06 DE= 1.27D-11 OVMax= 1.44D-06

 Cycle  21  Pass 1  IDiag  1:
 Restarting incremental Fock formation.
 E= -3010.56509043138     Delta-E=       -0.000000000020 Rises=F Damp=F
 DIIS: error= 2.48D-08 at cycle  21 NSaved=  20.
 NSaved=20 IEnMin=20 EnMin= -3010.56509043138     IErMin=20 ErrMin= 2.48D-08
 ErrMax= 2.48D-08  0.00D+00 EMaxC= 1.00D-01 BMatC= 5.95D-14 BMatP= 4.09D-13
 IDIUse=1 WtCom= 1.00D+00 WtEn= 0.00D+00
 Coeff-Com:  0.112D-08 0.610D-07 0.128D-07 0.179D-07-0.311D-06-0.884D-06
 Coeff-Com: -0.726D-05-0.185D-04-0.150D-05 0.156D-03 0.181D-03-0.682D-03
 Coeff-Com: -0.199D-02-0.318D-02 0.157D-01 0.296D-01-0.658D-01-0.192D+00
 Coeff-Com:  0.730D-01 0.114D+01
 Coeff:      0.112D-08 0.610D-07 0.128D-07 0.179D-07-0.311D-06-0.884D-06
 Coeff:     -0.726D-05-0.185D-04-0.150D-05 0.156D-03 0.181D-03-0.682D-03
 Coeff:     -0.199D-02-0.318D-02 0.157D-01 0.296D-01-0.658D-01-0.192D+00
 Coeff:      0.730D-01 0.114D+01
 Gap=     0.238 Goal=   None    Shift=    0.000
 RMSDP=5.56D-08 MaxDP=4.45D-06 DE=-2.00D-11 OVMax= 9.08D-07

 Cycle  22  Pass 1  IDiag  1:
 RMSU=  5.55D-08    CP:  1.00D+00
 E= -3010.56509043136     Delta-E=        0.000000000017 Rises=F Damp=F
 DIIS: error= 9.50D-09 at cycle  22 NSaved=  20.
 NSaved=20 IEnMin=19 EnMin= -3010.56509043138     IErMin=20 ErrMin= 9.50D-09
 ErrMax= 9.50D-09  0.00D+00 EMaxC= 1.00D-01 BMatC= 7.86D-15 BMatP= 5.95D-14
 IDIUse=1 WtCom= 1.00D+00 WtEn= 0.00D+00
 Coeff-Com: -0.983D-09-0.113D-07 0.740D-07 0.323D-06 0.103D-05-0.475D-06
 Coeff-Com: -0.652D-06-0.181D-04-0.947D-05 0.109D-03 0.955D-04-0.668D-04
 Coeff-Com: -0.216D-02-0.361D-03 0.173D-01 0.136D-01-0.837D-01-0.131D+00
 Coeff-Com:  0.144D+00 0.104D+01
 Coeff:     -0.983D-09-0.113D-07 0.740D-07 0.323D-06 0.103D-05-0.475D-06
 Coeff:     -0.652D-06-0.181D-04-0.947D-05 0.109D-03 0.955D-04-0.668D-04
 Coeff:     -0.216D-02-0.361D-03 0.173D-01 0.136D-01-0.837D-01-0.131D+00
 Coeff:      0.144D+00 0.104D+01
 Gap=     0.238 Goal=   None    Shift=    0.000
 RMSDP=1.48D-08 MaxDP=1.25D-06 DE= 1.73D-11 OVMax= 3.43D-07

 Cycle  23  Pass 1  IDiag  1:
 RMSU=  7.96D-09    CP:  1.00D+00  1.20D+00
 E= -3010.56509043132     Delta-E=        0.000000000041 Rises=F Damp=F
 DIIS: error= 3.83D-09 at cycle  23 NSaved=  20.
 NSaved=20 IEnMin=18 EnMin= -3010.56509043138     IErMin=20 ErrMin= 3.83D-09
 ErrMax= 3.83D-09  0.00D+00 EMaxC= 1.00D-01 BMatC= 1.08D-15 BMatP= 7.86D-15
 IDIUse=1 WtCom= 1.00D+00 WtEn= 0.00D+00
 Large coefficients: NSaved= 20 BigCof=    0.00 CofMax=   10.00 Det=-3.14D-15
 Inversion failed.  Reducing to 19 matrices.
 Large coefficients: NSaved= 19 BigCof=    0.00 CofMax=   10.00 Det=-3.13D-15
 Inversion failed.  Reducing to 18 matrices.
 Large coefficients: NSaved= 18 BigCof=    0.00 CofMax=   10.00 Det=-3.25D-15
 Inversion failed.  Reducing to 17 matrices.
 Large coefficients: NSaved= 17 BigCof=    0.00 CofMax=   10.00 Det=-3.33D-15
 Inversion failed.  Reducing to 16 matrices.
 Large coefficients: NSaved= 16 BigCof=    0.00 CofMax=   10.00 Det=-3.95D-15
 Inversion failed.  Reducing to 15 matrices.
 Coeff-Com:  0.107D-05-0.311D-05-0.132D-04-0.247D-05 0.298D-04 0.103D-03
 Coeff-Com: -0.595D-04-0.644D-03-0.115D-02 0.501D-02 0.139D-01-0.139D-01
 Coeff-Com: -0.950D-01 0.670D-01 0.102D+01
 Coeff:      0.107D-05-0.311D-05-0.132D-04-0.247D-05 0.298D-04 0.103D-03
 Coeff:     -0.595D-04-0.644D-03-0.115D-02 0.501D-02 0.139D-01-0.139D-01
 Coeff:     -0.950D-01 0.670D-01 0.102D+01
 Gap=     0.238 Goal=   None    Shift=    0.000
 RMSDP=5.45D-09 MaxDP=7.57D-07 DE= 4.09D-11 OVMax= 7.85D-08

 SCF Done:  E(RwB97XD) =  -3010.56509043     A.U. after   23 cycles
            NFock= 23  Conv=0.54D-08     -V/T= 2.0016
 KE= 3.005870537252D+03 PE=-8.703786504199D+03 EE= 1.911157223334D+03
 Leave Link  502 at Thu May  2 14:22:00 2024, MaxMem=   134217728 cpu:            1402.0 elap:            1402.4
 (Enter /software/gaussian/g16-c01/sse4/g16/l601.exe)
 Copying SCF densities to generalized density rwf, IOpCl= 0 IROHF=0.

 **********************************************************************

            Population analysis using the SCF Density.

 **********************************************************************

 Alpha  occ. eigenvalues -- -483.35782 -62.90843 -56.70474 -56.69995 -56.69983
 Alpha  occ. eigenvalues --  -19.47041 -19.46507 -14.86031 -10.62104 -10.59985
 Alpha  occ. eigenvalues --  -10.59437 -10.57586 -10.54408 -10.53140  -9.06678
 Alpha  occ. eigenvalues --   -6.89182  -6.87594  -6.87553  -2.99127  -2.98709
 Alpha  occ. eigenvalues --   -2.98677  -2.97404  -2.97403  -1.50359  -1.33318
 Alpha  occ. eigenvalues --   -1.24435  -1.15160  -1.13826  -1.07791  -1.01863
 Alpha  occ. eigenvalues --   -0.97006  -0.91856  -0.86415  -0.81954  -0.81666
 Alpha  occ. eigenvalues --   -0.80790  -0.79519  -0.77157  -0.76448  -0.74180
 Alpha  occ. eigenvalues --   -0.69627  -0.67903  -0.65074  -0.63089  -0.61549
 Alpha  occ. eigenvalues --   -0.58630  -0.57965  -0.56410  -0.55928
 Alpha virt. eigenvalues --   -0.32108  -0.22625  -0.21336  -0.19732  -0.17691
 Alpha virt. eigenvalues --   -0.16171  -0.13814  -0.11760  -0.11223  -0.09589
 Alpha virt. eigenvalues --   -0.07614  -0.06613  -0.05664  -0.04771  -0.02982
 Alpha virt. eigenvalues --   -0.02102  -0.01438  -0.00851   0.00597   0.01156
 Alpha virt. eigenvalues --    0.02360   0.02864   0.03518   0.04609   0.05252
 Alpha virt. eigenvalues --    0.05473   0.06826   0.08194   0.08754   0.09508
 Alpha virt. eigenvalues --    0.10228   0.10743   0.11351   0.11832   0.13413
 Alpha virt. eigenvalues --    0.14098   0.14429   0.15177   0.15817   0.16230
 Alpha virt. eigenvalues --    0.17800   0.18328   0.18985   0.19472   0.21797
 Alpha virt. eigenvalues --    0.22054   0.22627   0.24445   0.24977   0.25582
 Alpha virt. eigenvalues --    0.25887   0.26361   0.27482   0.28088   0.28854
 Alpha virt. eigenvalues --    0.30225   0.32707   0.33085   0.34203   0.34409
 Alpha virt. eigenvalues --    0.36626   0.37120   0.39288   0.39955   0.42532
 Alpha virt. eigenvalues --    0.43010   0.44042   0.45210   0.46816   0.47200
 Alpha virt. eigenvalues --    0.47993   0.48602   0.49402   0.50281   0.52388
 Alpha virt. eigenvalues --    0.53228   0.53707   0.56845   0.56872   0.59257
 Alpha virt. eigenvalues --    0.60708   0.61676   0.62997   0.64454   0.67964
 Alpha virt. eigenvalues --    0.69427   0.70045   0.71821   0.73941   0.74356
 Alpha virt. eigenvalues --    0.75782   0.78259   0.80749   0.81451   0.83896
 Alpha virt. eigenvalues --    0.86032   0.86984   0.91094   0.93194   0.97976
 Alpha virt. eigenvalues --    0.99839   1.01190   1.03371   1.04330   1.06017
 Alpha virt. eigenvalues --    1.06562   1.12517   1.13147   1.13964   1.18004
 Alpha virt. eigenvalues --    1.19577   1.22936   1.27218   1.31796   1.35297
 Alpha virt. eigenvalues --    1.35571   1.37736   1.41159   1.52991   1.55334
 Alpha virt. eigenvalues --    1.56930   1.58813   1.60220   1.62942   1.64088
 Alpha virt. eigenvalues --    1.67228   1.70405   1.73416   1.74022   1.78325
 Alpha virt. eigenvalues --    1.81716   1.84721   1.87793   1.90295   1.92437
 Alpha virt. eigenvalues --    1.96600   1.99959   2.02129   2.05593   2.06616
 Alpha virt. eigenvalues --    2.10956   2.13485   2.21394   2.22901   2.27398
 Alpha virt. eigenvalues --    2.32829   2.38226   2.41321   2.43136   2.52181
 Alpha virt. eigenvalues --    2.56452   2.62294   2.65413   2.68129   2.71145
 Alpha virt. eigenvalues --    2.73290   2.75691   2.76571   2.79603   2.80758
 Alpha virt. eigenvalues --    2.91626   2.96606   3.00464   3.03366   3.08014
 Alpha virt. eigenvalues --    3.14201   3.15132   3.17299   3.21788   3.26331
 Alpha virt. eigenvalues --    3.28093   3.37196   3.45910   3.49512   3.54390
 Alpha virt. eigenvalues --    3.56480   3.68465   3.73852   3.82438   3.86135
 Alpha virt. eigenvalues --    4.05110   4.05908   4.14950   4.18886   4.38922
 Alpha virt. eigenvalues --    4.44639   4.53238   4.59456   4.93272   4.95890
 Alpha virt. eigenvalues --    5.05264   5.08894   5.61555   6.14787   6.63128
 Alpha virt. eigenvalues --    7.43932   7.46297   7.56548  23.20911  23.60228
 Alpha virt. eigenvalues --   23.68506  23.77076  23.94326  24.01903  35.31127
 Alpha virt. eigenvalues --   47.89468  49.84699  49.93360 289.77152 289.79499
 Alpha virt. eigenvalues --  289.921621020.90719
          Condensed to atoms (all electrons):
               1          2          3          4          5          6
     1  C    7.649623  -0.689854   0.149434  -0.183050   0.280701   0.034321
     2  C   -0.689854  17.964000  -2.152416   0.688479  -0.006299   0.232617
     3  C    0.149434  -2.152416  24.366891  -1.673706   0.014228   0.062655
     4  C   -0.183050   0.688479  -1.673706   6.897726   0.014205  -0.009322
     5  H    0.280701  -0.006299   0.014228   0.014205   0.244774  -0.000487
     6  H    0.034321   0.232617   0.062655  -0.009322  -0.000487   0.239349
     7  H    0.061173  -0.024407   0.021845   0.294271  -0.001746   0.000015
     8  N   -0.098928  -0.647159  -2.636942   0.051971   0.000047  -0.019584
     9  O    0.040628   0.330278   0.238610  -0.032188  -0.000015  -0.001701
    10  O    0.214331  -0.005075  -0.281106  -0.016835  -0.000084   0.014539
    11  C    1.036273  -1.827510   1.242884  -0.508946  -0.013413   0.005106
    12  H   -0.046573   0.029879   0.014525   0.094095   0.000085  -0.000023
    13  C   -2.345085  -7.876923 -13.209205   0.737296   0.018558  -0.001223
    14  H    0.023097  -0.025072   0.036451  -0.019308  -0.000029   0.000083
    15  Br  -0.002603  -0.242854  -0.171497  -0.058090   0.000365  -0.000493
               7          8          9         10         11         12
     1  C    0.061173  -0.098928   0.040628   0.214331   1.036273  -0.046573
     2  C   -0.024407  -0.647159   0.330278  -0.005075  -1.827510   0.029879
     3  C    0.021845  -2.636942   0.238610  -0.281106   1.242884   0.014525
     4  C    0.294271   0.051971  -0.032188  -0.016835  -0.508946   0.094095
     5  H   -0.001746   0.000047  -0.000015  -0.000084  -0.013413   0.000085
     6  H    0.000015  -0.019584  -0.001701   0.014539   0.005106  -0.000023
     7  H    0.329954  -0.000043   0.000011  -0.000001   0.003043  -0.003340
     8  N   -0.000043   7.978510  -0.153720   0.271130  -0.391645  -0.000773
     9  O    0.000011  -0.153720   8.167856   0.017479   0.320145   0.000387
    10  O   -0.000001   0.271130   0.017479   7.553340  -0.018551  -0.000058
    11  C    0.003043  -0.391645   0.320145  -0.018551  11.989144   0.190442
    12  H   -0.003340  -0.000773   0.000387  -0.000058   0.190442   0.431627
    13  C   -0.020998   2.704486  -0.828532   0.023358  -5.578192   0.034639
    14  H    0.000004  -0.019615   0.009950  -0.000696   0.231453  -0.007597
    15  Br  -0.000294   0.196042  -0.054695   0.001391  -0.501291   0.011396
              13         14         15
     1  C   -2.345085   0.023097  -0.002603
     2  C   -7.876923  -0.025072  -0.242854
     3  C  -13.209205   0.036451  -0.171497
     4  C    0.737296  -0.019308  -0.058090
     5  H    0.018558  -0.000029   0.000365
     6  H   -0.001223   0.000083  -0.000493
     7  H   -0.020998   0.000004  -0.000294
     8  N    2.704486  -0.019615   0.196042
     9  O   -0.828532   0.009950  -0.054695
    10  O    0.023358  -0.000696   0.001391
    11  C   -5.578192   0.231453  -0.501291
    12  H    0.034639  -0.007597   0.011396
    13  C   31.758120   0.116158   0.868325
    14  H    0.116158   0.389260  -0.077865
    15  Br   0.868325  -0.077865  35.049375
 Mulliken charges:
               1
     1  C   -0.123488
     2  C    0.252317
     3  C   -0.022651
     4  C   -0.276599
     5  H    0.449110
     6  H    0.444147
     7  H    0.340515
     8  N   -0.233778
     9  O   -0.054494
    10  O    0.226838
    11  C   -0.178940
    12  H    0.251288
    13  C   -0.400780
    14  H    0.343727
    15  Br  -0.017213
 Sum of Mulliken charges =   1.00000
 Mulliken charges with hydrogens summed into heavy atoms:
               1
     1  C    0.325622
     2  C    0.696464
     3  C   -0.022651
     4  C    0.063917
     8  N   -0.233778
     9  O   -0.054494
    10  O    0.226838
    11  C    0.072348
    13  C   -0.057052
    15  Br  -0.017213
 Electronic spatial extent (au):  <R**2>=           3952.7915
 Charge=              1.0000 electrons
 Dipole moment (field-independent basis, Debye):
    X=              2.3673    Y=              7.1499    Z=              0.3076  Tot=              7.5379
 Quadrupole moment (field-independent basis, Debye-Ang):
   XX=            -68.2988   YY=            -56.5557   ZZ=            -65.2690
   XY=             13.7731   XZ=             -0.2680   YZ=             -1.8516
 Traceless Quadrupole moment (field-independent basis, Debye-Ang):
   XX=             -4.9243   YY=              6.8188   ZZ=             -1.8945
   XY=             13.7731   XZ=             -0.2680   YZ=             -1.8516
 Octapole moment (field-independent basis, Debye-Ang**2):
  XXX=           -512.1555  YYY=            143.3009  ZZZ=             91.9886  XYY=           -148.2061
  XXY=             85.4280  XXZ=             30.5662  XZZ=           -140.0067  YZZ=             32.3252
  YYZ=             38.9683  XYZ=             -1.3980
 Hexadecapole moment (field-independent basis, Debye-Ang**3):
 XXXX=          -3430.0403 YYYY=           -777.9320 ZZZZ=           -423.6449 XXXY=            424.7181
 XXXZ=            194.2644 YYYX=            285.3568 YYYZ=           -216.5356 ZZZX=            187.8522
 ZZZY=           -174.1986 XXYY=           -651.7288 XXZZ=           -546.4435 YYZZ=           -205.4420
 XXYZ=            -64.6549 YYXZ=             78.5260 ZZXY=             61.6148
 N-N= 7.761936531819D+02 E-N=-8.703786504002D+03  KE= 3.005870537252D+03
 No NMR shielding tensors so no spin-rotation constants.
 Leave Link  601 at Thu May  2 14:22:07 2024, MaxMem=   134217728 cpu:               7.3 elap:               7.3
 (Enter /software/gaussian/g16-c01/sse4/g16/l9999.exe)
 Unable to Open any file for archive entry.
 1\1\GINC-BHX0009\SP\RwB97XD\6-311+G(d)\C6H5Br1N1O2(1+)\BWEIGHT\02-May-
 2024\0\\#P wB97XD/6-311+G* NoSymm #P Field=Y-272\\TitleMe\\1,1\C,0,0.5
 193,1.233,-0.0319\C,0,1.9445,1.2692,-0.0367\C,0,2.6204,0.0928,-0.025\C
 ,0,-0.196,0.0301,0.001\H,0,-0.0207,2.1742,-0.0434\H,0,2.4828,2.2089,-0
 .0361\H,0,-1.2777,0.0399,0.0117\N,0,4.0921,0.0959,0.0366\O,0,4.6393,-1
 .0217,0.1446\O,0,4.6649,1.1984,-0.0233\C,0,0.4943,-1.1671,0.021\H,0,-0
 .0325,-2.1149,0.0545\C,0,1.9629,-1.2165,-0.0211\H,0,2.4436,-1.9631,0.6
 151\Br,0,2.173,-1.9491,-1.9062\\Version=ES64L-G16RevC.01\HF=-3010.5650
 904\RMSD=5.450e-09\Dipole=-3.3978305,4.0411274,1.3702292\Quadrupole=-3
 .66108,5.0696091,-1.4085291,10.2399712,-0.1992613,-1.3765922\PG=C01 [X
 (C6H5Br1N1O2)]\\@
 The archive entry for this job was punched.


 SOME THINGS ARE EASY, THEY ARE ONLY HARD TO DO.
            -- A. EINSTEIN TO J. O. HIRSCHFELDER
 THE ONLY TROUBLE WITH A SURE THING IS THE UNCERTAINTY.
     -- FROM A TEABAG (BELONGING TO W.H.?)
 Job cpu time:       0 days  0 hours 24 minutes 31.5 seconds.
 Elapsed time:       0 days  0 hours 24 minutes 31.9 seconds.
 File lengths (MBytes):  RWF=     40 Int=      0 D2E=      0 Chk=     32 Scr=      1
 Normal termination of Gaussian 16 at Thu May  2 14:22:08 2024.
