 Entering Gaussian System, Link 0=g16
 Initial command:
 /software/gaussian/g16-a03/l1.exe "/local_scratch/6484766/Gau-27590.inp" -scrdir="/local_scratch/6484766/"
 Entering Link 1 = /software/gaussian/g16-a03/l1.exe PID=     27594.
  
 Copyright (c) 1988,1990,1992,1993,1995,1998,2003,2009,2016,
            Gaussian, Inc.  All Rights Reserved.
  
 This is part of the Gaussian(R) 16 program.  It is based on
 the Gaussian(R) 09 system (copyright 2009, Gaussian, Inc.),
 the Gaussian(R) 03 system (copyright 2003, Gaussian, Inc.),
 the Gaussian(R) 98 system (copyright 1998, Gaussian, Inc.),
 the Gaussian(R) 94 system (copyright 1995, Gaussian, Inc.),
 the Gaussian 92(TM) system (copyright 1992, Gaussian, Inc.),
 the Gaussian 90(TM) system (copyright 1990, Gaussian, Inc.),
 the Gaussian 88(TM) system (copyright 1988, Gaussian, Inc.),
 the Gaussian 86(TM) system (copyright 1986, Carnegie Mellon
 University), and the Gaussian 82(TM) system (copyright 1983,
 Carnegie Mellon University). Gaussian is a federally registered
 trademark of Gaussian, Inc.
  
 This software contains proprietary and confidential information,
 including trade secrets, belonging to Gaussian, Inc.
  
 This software is provided under written license and may be
 used, copied, transmitted, or stored only in accord with that
 written license.
  
 The following legend is applicable only to US Government
 contracts under FAR:
  
                    RESTRICTED RIGHTS LEGEND
  
 Use, reproduction and disclosure by the US Government is
 subject to restrictions as set forth in subparagraphs (a)
 and (c) of the Commercial Computer Software - Restricted
 Rights clause in FAR 52.227-19.
  
 Gaussian, Inc.
 340 Quinnipiac St., Bldg. 40, Wallingford CT 06492
  
  
 ---------------------------------------------------------------
 Warning -- This program may not be used in any manner that
 competes with the business of Gaussian, Inc. or will provide
 assistance to any competitor of Gaussian, Inc.  The licensee
 of this program is prohibited from giving any competitor of
 Gaussian, Inc. access to this program.  By using this program,
 the user acknowledges that Gaussian, Inc. is engaged in the
 business of creating and licensing software in the field of
 computational chemistry and represents and warrants to the
 licensee that it is not a competitor of Gaussian, Inc. and that
 it will not use this program in any manner prohibited above.
 ---------------------------------------------------------------
  

 Cite this work as:
 Gaussian 16, Revision A.03,
 M. J. Frisch, G. W. Trucks, H. B. Schlegel, G. E. Scuseria, 
 M. A. Robb, J. R. Cheeseman, G. Scalmani, V. Barone, 
 G. A. Petersson, H. Nakatsuji, X. Li, M. Caricato, A. V. Marenich, 
 J. Bloino, B. G. Janesko, R. Gomperts, B. Mennucci, H. P. Hratchian, 
 J. V. Ortiz, A. F. Izmaylov, J. L. Sonnenberg, D. Williams-Young, 
 F. Ding, F. Lipparini, F. Egidi, J. Goings, B. Peng, A. Petrone, 
 T. Henderson, D. Ranasinghe, V. G. Zakrzewski, J. Gao, N. Rega, 
 G. Zheng, W. Liang, M. Hada, M. Ehara, K. Toyota, R. Fukuda, 
 J. Hasegawa, M. Ishida, T. Nakajima, Y. Honda, O. Kitao, H. Nakai, 
 T. Vreven, K. Throssell, J. A. Montgomery, Jr., J. E. Peralta, 
 F. Ogliaro, M. J. Bearpark, J. J. Heyd, E. N. Brothers, K. N. Kudin, 
 V. N. Staroverov, T. A. Keith, R. Kobayashi, J. Normand, 
 K. Raghavachari, A. P. Rendell, J. C. Burant, S. S. Iyengar, 
 J. Tomasi, M. Cossi, J. M. Millam, M. Klene, C. Adamo, R. Cammi, 
 J. W. Ochterski, R. L. Martin, K. Morokuma, O. Farkas, 
 J. B. Foresman, and D. J. Fox, Gaussian, Inc., Wallingford CT, 2016.
 
 ******************************************
 Gaussian 16:  ES64L-G16RevA.03 25-Dec-2016
                17-Sep-2021 
 ******************************************
 %chk=geometry.chk
 %mem=2GB
 %nprocshared=1
 Will use up to    1 processors via shared memory.
 --------------------------------------------------------------------
 #p B3LYP/6-311+G** #p TD=(singlets,nstates=30)IOp(6/8=3) IOp(9/40=4)
 --------------------------------------------------------------------
 1/38=1,172=1/1;
 2/12=2,17=6,18=5,40=1/2;
 3/5=4,6=6,7=111,11=9,25=1,30=1,74=-5/1,2,3,8;
 4//1;
 5/5=2,38=5/2;
 8/6=1,10=2,108=30/1;
 9/40=4,41=30,42=1,48=1,70=2/14;
 6/7=2,8=3,9=2,10=2/1;
 99/5=1,9=1/99;
 Leave Link    1 at Fri Sep 17 10:51:55 2021, MaxMem=   268435456 cpu:               0.1 elap:               0.4
 (Enter /software/gaussian/g16-a03/l101.exe)
 -------------------------------
 Scan Step 35, Bond Length 0.675
 -------------------------------
 Symbolic Z-matrix:
 Charge =  0 Multiplicity = 1
 C                     0.        0.       -0.52736 
 H                     0.        0.93726  -1.11871 
 H                     0.       -0.93726  -1.11871 
 O                     0.        0.        0.14764 
 
 ITRead=  0  0  0  0
 MicOpt= -1 -1 -1 -1
 NAtoms=      4 NQM=        4 NQMF=       0 NMMI=      0 NMMIF=      0
                NMic=       0 NMicF=      0.
                    Isotopes and Nuclear Properties:
 (Nuclear quadrupole moments (NQMom) in fm**2, nuclear magnetic moments (NMagM)
  in nuclear magnetons)

  Atom         1           2           3           4
 IAtWgt=          12           1           1          16
 AtmWgt=  12.0000000   1.0078250   1.0078250  15.9949146
 NucSpn=           0           1           1           0
 AtZEff=  -0.0000000  -0.0000000  -0.0000000  -0.0000000
 NQMom=    0.0000000   0.0000000   0.0000000   0.0000000
 NMagM=    0.0000000   2.7928460   2.7928460   0.0000000
 AtZNuc=   6.0000000   1.0000000   1.0000000   8.0000000
 Leave Link  101 at Fri Sep 17 10:51:55 2021, MaxMem=   268435456 cpu:               0.1 elap:               0.1
 (Enter /software/gaussian/g16-a03/l202.exe)
                          Input orientation:                          
 ---------------------------------------------------------------------
 Center     Atomic      Atomic             Coordinates (Angstroms)
 Number     Number       Type             X           Y           Z
 ---------------------------------------------------------------------
      1          6           0        0.000000    0.000000   -0.527360
      2          1           0        0.000000    0.937260   -1.118710
      3          1           0        0.000000   -0.937260   -1.118710
      4          8           0        0.000000    0.000000    0.147640
 ---------------------------------------------------------------------
                    Distance matrix (angstroms):
                    1          2          3          4
     1  C    0.000000
     2  H    1.108220   0.000000
     3  H    1.108220   1.874520   0.000000
     4  O    0.675000   1.575468   1.575468   0.000000
 Stoichiometry    CH2O
 Framework group  C2V[C2(CO),SGV(H2)]
 Deg. of freedom     3
 Full point group                 C2V     NOp   4
 Largest Abelian subgroup         C2V     NOp   4
 Largest concise Abelian subgroup C2      NOp   2
                         Standard orientation:                         
 ---------------------------------------------------------------------
 Center     Atomic      Atomic             Coordinates (Angstroms)
 Number     Number       Type             X           Y           Z
 ---------------------------------------------------------------------
      1          6           0        0.000000    0.000000   -0.263581
      2          1           0        0.000000    0.937260   -0.854931
      3          1           0       -0.000000   -0.937260   -0.854931
      4          8           0        0.000000   -0.000000    0.411419
 ---------------------------------------------------------------------
 Rotational constants (GHZ):         285.4183527         102.7469811          75.5499565
 Leave Link  202 at Fri Sep 17 10:51:55 2021, MaxMem=   268435456 cpu:               0.0 elap:               0.0
 (Enter /software/gaussian/g16-a03/l301.exe)
 Standard basis: 6-311+G(d,p) (5D, 7F)
 Ernie: Thresh=  0.10000D-02 Tol=  0.10000D-05 Strict=F.
 There are    29 symmetry adapted cartesian basis functions of A1  symmetry.
 There are     3 symmetry adapted cartesian basis functions of A2  symmetry.
 There are    11 symmetry adapted cartesian basis functions of B1  symmetry.
 There are    15 symmetry adapted cartesian basis functions of B2  symmetry.
 There are    27 symmetry adapted basis functions of A1  symmetry.
 There are     3 symmetry adapted basis functions of A2  symmetry.
 There are    11 symmetry adapted basis functions of B1  symmetry.
 There are    15 symmetry adapted basis functions of B2  symmetry.
    56 basis functions,    88 primitive gaussians,    58 cartesian basis functions
     8 alpha electrons        8 beta electrons
       nuclear repulsion energy        49.0168764284 Hartrees.
 IExCor=  402 DFT=T Ex+Corr=B3LYP ExCW=0 ScaHFX=  0.200000
 ScaDFX=  0.800000  0.720000  1.000000  0.810000 ScalE2=  1.000000  1.000000
 IRadAn=      5 IRanWt=     -1 IRanGd=            0 ICorTp=0 IEmpDi=  4
 NAtoms=    4 NActive=    4 NUniq=    3 SFac= 1.78D+00 NAtFMM=   60 NAOKFM=F Big=F
 Integral buffers will be    131072 words long.
 Regular integral format.
 Two-electron integral symmetry is turned on.
 Leave Link  301 at Fri Sep 17 10:51:55 2021, MaxMem=   268435456 cpu:               0.1 elap:               0.1
 (Enter /software/gaussian/g16-a03/l302.exe)
 NPDir=0 NMtPBC=     1 NCelOv=     1 NCel=       1 NClECP=     1 NCelD=      1
         NCelK=      1 NCelE2=     1 NClLst=     1 CellRange=     0.0.
 One-electron integrals computed using PRISM.
 One-electron integral symmetry used in STVInt
 NBasis=    56 RedAO= T EigKep=  4.87D-04  NBF=    27     3    11    15
 NBsUse=    56 1.00D-06 EigRej= -1.00D+00 NBFU=    27     3    11    15
 Precomputing XC quadrature grid using
 IXCGrd= 4 IRadAn=           5 IRanWt=          -1 IRanGd=           0 AccXCQ= 0.00D+00.
 Generated NRdTot=       0 NPtTot=           0 NUsed=           0 NTot=          32
 NSgBfM=    58    58    58    58    58 MxSgAt=     4 MxSgA2=     4.
 Leave Link  302 at Fri Sep 17 10:51:55 2021, MaxMem=   268435456 cpu:               0.3 elap:               0.3
 (Enter /software/gaussian/g16-a03/l303.exe)
 DipDrv:  MaxL=1.
 Leave Link  303 at Fri Sep 17 10:51:55 2021, MaxMem=   268435456 cpu:               0.1 elap:               0.1
 (Enter /software/gaussian/g16-a03/l308.exe)
 Leave Link  308 at Fri Sep 17 10:51:56 2021, MaxMem=   268435456 cpu:               0.0 elap:               0.1
 (Enter /software/gaussian/g16-a03/l401.exe)
 ExpMin= 4.38D-02 ExpMax= 8.59D+03 ExpMxC= 1.30D+03 IAcc=3 IRadAn=         5 AccDes= 0.00D+00
 Harris functional with IExCor=  402 and IRadAn=       5 diagonalized for initial guess.
 HarFok:  IExCor=  402 AccDes= 0.00D+00 IRadAn=         5 IDoV= 1 UseB2=F ITyADJ=14
 ICtDFT=  3500011 ScaDFX=  1.000000  1.000000  1.000000  1.000000
 FoFCou: FMM=F IPFlag=           0 FMFlag=      100000 FMFlg1=           0
         NFxFlg=           0 DoJE=T BraDBF=F KetDBF=T FulRan=T
         wScrn=  0.000000 ICntrl=       500 IOpCl=  0 I1Cent=   200000004 NGrid=           0
         NMat0=    1 NMatS0=      1 NMatT0=    0 NMatD0=    1 NMtDS0=    0 NMtDT0=    0
 Petite list used in FoFCou.
 Harris En= -113.125536129885    
 JPrj=0 DoOrth=F DoCkMO=F.
 Initial guess orbital symmetries:
       Occupied  (A1) (A1) (A1) (B2) (B1) (A1) (A1) (B2)
       Virtual   (B1) (A1) (A1) (B2) (B1) (A1) (A1) (B2) (B1) (B2)
                 (A1) (A1) (A1) (B1) (B2) (B2) (A1) (A2) (A1) (B1)
                 (B2) (A1) (A1) (B2) (A1) (B1) (A2) (B2) (B1) (A1)
                 (A1) (B2) (B1) (A1) (A1) (B2) (A2) (A1) (B2) (B1)
                 (A1) (B2) (A1) (B1) (B2) (A1) (A1) (A1)
 The electronic state of the initial guess is 1-A1.
 Leave Link  401 at Fri Sep 17 10:51:56 2021, MaxMem=   268435456 cpu:               0.7 elap:               0.7
 (Enter /software/gaussian/g16-a03/l502.exe)
 Keep R1 ints in memory in symmetry-blocked form, NReq=2159909.
 FoFCou: FMM=F IPFlag=           0 FMFlag=           0 FMFlg1=           0
         NFxFlg=           0 DoJE=F BraDBF=F KetDBF=F FulRan=T
         wScrn=  0.000000 ICntrl=       600 IOpCl=  0 I1Cent=           0 NGrid=           0
         NMat0=    1 NMatS0=   1596 NMatT0=    0 NMatD0=    1 NMtDS0=    0 NMtDT0=    0
 Petite list used in FoFCou.
 Closed shell SCF:
 Using DIIS extrapolation, IDIIS=  1040.
 NGot=   268435456 LenX=   268074384 LenY=   268070579
 Requested convergence on RMS density matrix=1.00D-08 within 128 cycles.
 Requested convergence on MAX density matrix=1.00D-06.
 Requested convergence on             energy=1.00D-06.
 No special actions if energy rises.

 Cycle   1  Pass 1  IDiag  1:
 E= -112.399421207195    
 DIIS: error= 1.26D-01 at cycle   1 NSaved=   1.
 NSaved= 1 IEnMin= 1 EnMin= -112.399421207195     IErMin= 1 ErrMin= 1.26D-01
 ErrMax= 1.26D-01  0.00D+00 EMaxC= 1.00D-01 BMatC= 6.80D-01 BMatP= 6.80D-01
 IDIUse=3 WtCom= 0.00D+00 WtEn= 1.00D+00
 Coeff-Com:  0.100D+01
 Coeff-En:   0.100D+01
 Coeff:      0.100D+01
 Gap=     0.108 Goal=   None    Shift=    0.000
 GapD=    0.108 DampG=1.000 DampE=0.250 DampFc=0.2500 IDamp=-1.
 Damping current iteration by 2.50D-01
 RMSDP=2.32D-02 MaxDP=3.81D-01              OVMax= 3.86D-01

 Cycle   2  Pass 1  IDiag  1:
 E= -112.528787979345     Delta-E=       -0.129366772151 Rises=F Damp=T
 DIIS: error= 6.42D-02 at cycle   2 NSaved=   2.
 NSaved= 2 IEnMin= 2 EnMin= -112.528787979345     IErMin= 2 ErrMin= 6.42D-02
 ErrMax= 6.42D-02  0.00D+00 EMaxC= 1.00D-01 BMatC= 1.76D-01 BMatP= 6.80D-01
 IDIUse=3 WtCom= 3.58D-01 WtEn= 6.42D-01
 Coeff-Com: -0.986D+00 0.199D+01
 Coeff-En:   0.000D+00 0.100D+01
 Coeff:     -0.353D+00 0.135D+01
 Gap=     0.192 Goal=   None    Shift=    0.000
 RMSDP=8.32D-03 MaxDP=1.73D-01 DE=-1.29D-01 OVMax= 1.72D-01

 Cycle   3  Pass 1  IDiag  1:
 E= -112.744488318571     Delta-E=       -0.215700339225 Rises=F Damp=F
 DIIS: error= 2.58D-02 at cycle   3 NSaved=   3.
 NSaved= 3 IEnMin= 3 EnMin= -112.744488318571     IErMin= 3 ErrMin= 2.58D-02
 ErrMax= 2.58D-02  0.00D+00 EMaxC= 1.00D-01 BMatC= 3.43D-02 BMatP= 1.76D-01
 IDIUse=3 WtCom= 7.42D-01 WtEn= 2.58D-01
 Coeff-Com:  0.240D+00-0.102D+00 0.862D+00
 Coeff-En:   0.000D+00 0.000D+00 0.100D+01
 Coeff:      0.178D+00-0.759D-01 0.898D+00
 Gap=     0.221 Goal=   None    Shift=    0.000
 RMSDP=3.36D-03 MaxDP=4.94D-02 DE=-2.16D-01 OVMax= 5.45D-02

 Cycle   4  Pass 1  IDiag  1:
 E= -112.763122515195     Delta-E=       -0.018634196625 Rises=F Damp=F
 DIIS: error= 7.53D-03 at cycle   4 NSaved=   4.
 NSaved= 4 IEnMin= 4 EnMin= -112.763122515195     IErMin= 4 ErrMin= 7.53D-03
 ErrMax= 7.53D-03  0.00D+00 EMaxC= 1.00D-01 BMatC= 2.86D-03 BMatP= 3.43D-02
 IDIUse=3 WtCom= 9.25D-01 WtEn= 7.53D-02
 Coeff-Com: -0.155D-01 0.259D-01 0.212D+00 0.778D+00
 Coeff-En:   0.000D+00 0.000D+00 0.000D+00 0.100D+01
 Coeff:     -0.143D-01 0.239D-01 0.196D+00 0.794D+00
 Gap=     0.212 Goal=   None    Shift=    0.000
 RMSDP=8.99D-04 MaxDP=1.16D-02 DE=-1.86D-02 OVMax= 1.77D-02

 Cycle   5  Pass 1  IDiag  1:
 E= -112.765077636679     Delta-E=       -0.001955121484 Rises=F Damp=F
 DIIS: error= 8.56D-04 at cycle   5 NSaved=   5.
 NSaved= 5 IEnMin= 5 EnMin= -112.765077636679     IErMin= 5 ErrMin= 8.56D-04
 ErrMax= 8.56D-04  0.00D+00 EMaxC= 1.00D-01 BMatC= 3.20D-05 BMatP= 2.86D-03
 IDIUse=3 WtCom= 9.91D-01 WtEn= 8.56D-03
 Coeff-Com: -0.169D-01 0.211D-01 0.166D-01 0.226D+00 0.753D+00
 Coeff-En:   0.000D+00 0.000D+00 0.000D+00 0.000D+00 0.100D+01
 Coeff:     -0.167D-01 0.209D-01 0.165D-01 0.224D+00 0.756D+00
 Gap=     0.213 Goal=   None    Shift=    0.000
 RMSDP=1.09D-04 MaxDP=1.54D-03 DE=-1.96D-03 OVMax= 1.98D-03

 Cycle   6  Pass 1  IDiag  1:
 E= -112.765104519308     Delta-E=       -0.000026882629 Rises=F Damp=F
 DIIS: error= 8.95D-05 at cycle   6 NSaved=   6.
 NSaved= 6 IEnMin= 6 EnMin= -112.765104519308     IErMin= 6 ErrMin= 8.95D-05
 ErrMax= 8.95D-05  0.00D+00 EMaxC= 1.00D-01 BMatC= 3.71D-07 BMatP= 3.20D-05
 IDIUse=1 WtCom= 1.00D+00 WtEn= 0.00D+00
 Coeff-Com: -0.143D-02 0.200D-02-0.251D-02-0.148D-01-0.135D-01 0.103D+01
 Coeff:     -0.143D-02 0.200D-02-0.251D-02-0.148D-01-0.135D-01 0.103D+01
 Gap=     0.213 Goal=   None    Shift=    0.000
 RMSDP=8.10D-06 MaxDP=1.24D-04 DE=-2.69D-05 OVMax= 2.44D-04

 Cycle   7  Pass 1  IDiag  1:
 E= -112.765104787350     Delta-E=       -0.000000268042 Rises=F Damp=F
 DIIS: error= 7.86D-06 at cycle   7 NSaved=   7.
 NSaved= 7 IEnMin= 7 EnMin= -112.765104787350     IErMin= 7 ErrMin= 7.86D-06
 ErrMax= 7.86D-06  0.00D+00 EMaxC= 1.00D-01 BMatC= 2.82D-09 BMatP= 3.71D-07
 IDIUse=1 WtCom= 1.00D+00 WtEn= 0.00D+00
 Coeff-Com:  0.102D-03-0.959D-04-0.538D-03-0.542D-02-0.137D-01 0.488D-01
 Coeff-Com:  0.971D+00
 Coeff:      0.102D-03-0.959D-04-0.538D-03-0.542D-02-0.137D-01 0.488D-01
 Coeff:      0.971D+00
 Gap=     0.213 Goal=   None    Shift=    0.000
 RMSDP=1.03D-06 MaxDP=1.28D-05 DE=-2.68D-07 OVMax= 2.30D-05

 Cycle   8  Pass 1  IDiag  1:
 E= -112.765104789441     Delta-E=       -0.000000002092 Rises=F Damp=F
 DIIS: error= 6.68D-07 at cycle   8 NSaved=   8.
 NSaved= 8 IEnMin= 8 EnMin= -112.765104789441     IErMin= 8 ErrMin= 6.68D-07
 ErrMax= 6.68D-07  0.00D+00 EMaxC= 1.00D-01 BMatC= 1.59D-11 BMatP= 2.82D-09
 IDIUse=1 WtCom= 1.00D+00 WtEn= 0.00D+00
 Coeff-Com:  0.232D-04-0.322D-04-0.237D-04-0.247D-03-0.152D-03-0.778D-03
 Coeff-Com:  0.984D-01 0.903D+00
 Coeff:      0.232D-04-0.322D-04-0.237D-04-0.247D-03-0.152D-03-0.778D-03
 Coeff:      0.984D-01 0.903D+00
 Gap=     0.213 Goal=   None    Shift=    0.000
 RMSDP=9.75D-08 MaxDP=1.52D-06 DE=-2.09D-09 OVMax= 1.70D-06

 Cycle   9  Pass 1  IDiag  1:
 E= -112.765104789453     Delta-E=       -0.000000000011 Rises=F Damp=F
 DIIS: error= 1.18D-07 at cycle   9 NSaved=   9.
 NSaved= 9 IEnMin= 9 EnMin= -112.765104789453     IErMin= 9 ErrMin= 1.18D-07
 ErrMax= 1.18D-07  0.00D+00 EMaxC= 1.00D-01 BMatC= 5.12D-13 BMatP= 1.59D-11
 IDIUse=1 WtCom= 1.00D+00 WtEn= 0.00D+00
 Coeff-Com: -0.463D-05 0.639D-05 0.468D-05 0.644D-04 0.790D-04 0.245D-03
 Coeff-Com: -0.110D-01-0.224D-01 0.103D+01
 Coeff:     -0.463D-05 0.639D-05 0.468D-05 0.644D-04 0.790D-04 0.245D-03
 Coeff:     -0.110D-01-0.224D-01 0.103D+01
 Gap=     0.213 Goal=   None    Shift=    0.000
 RMSDP=2.55D-08 MaxDP=4.21D-07 DE=-1.13D-11 OVMax= 3.87D-07

 Cycle  10  Pass 1  IDiag  1:
 E= -112.765104789453     Delta-E=       -0.000000000000 Rises=F Damp=F
 DIIS: error= 3.01D-08 at cycle  10 NSaved=  10.
 NSaved=10 IEnMin=10 EnMin= -112.765104789453     IErMin=10 ErrMin= 3.01D-08
 ErrMax= 3.01D-08  0.00D+00 EMaxC= 1.00D-01 BMatC= 4.01D-14 BMatP= 5.12D-13
 IDIUse=1 WtCom= 1.00D+00 WtEn= 0.00D+00
 Coeff-Com: -0.344D-06 0.507D-06 0.594D-06 0.464D-05-0.590D-05-0.231D-03
 Coeff-Com: -0.154D-02-0.362D-02 0.984D-01 0.907D+00
 Coeff:     -0.344D-06 0.507D-06 0.594D-06 0.464D-05-0.590D-05-0.231D-03
 Coeff:     -0.154D-02-0.362D-02 0.984D-01 0.907D+00
 Gap=     0.213 Goal=   None    Shift=    0.000
 RMSDP=2.67D-09 MaxDP=4.28D-08 DE=-3.13D-13 OVMax= 8.99D-08

 SCF Done:  E(RB3LYP) =  -112.765104789     A.U. after   10 cycles
            NFock= 10  Conv=0.27D-08     -V/T= 1.9324
 KE= 1.209426394089D+02 PE=-3.680489591158D+02 EE= 8.532433848906D+01
 Leave Link  502 at Fri Sep 17 10:51:59 2021, MaxMem=   268435456 cpu:               2.2 elap:               2.5
 (Enter /software/gaussian/g16-a03/l801.exe)
 DoSCS=F DFT=T ScalE2(SS,OS)=  1.000000  1.000000
 ExpMin= 4.38D-02 ExpMax= 8.59D+03 ExpMxC= 1.30D+03 IAcc=3 IRadAn=         5 AccDes= 0.00D+00
 HarFok:  IExCor=  205 AccDes= 0.00D+00 IRadAn=         5 IDoV=-2 UseB2=F ITyADJ=14
 ICtDFT= 12500011 ScaDFX=  1.000000  1.000000  1.000000  1.000000
 Largest valence mixing into a core orbital is  5.03D-04
 Largest core mixing into a valence orbital is  1.71D-04
 Range of M.O.s used for correlation:     3    56
 NBasis=    56 NAE=     8 NBE=     8 NFC=     2 NFV=     0
 NROrb=     54 NOA=     6 NOB=     6 NVA=    48 NVB=    48

 **** Warning!!: The largest alpha MO coefficient is  0.16767587D+02

 Leave Link  801 at Fri Sep 17 10:51:59 2021, MaxMem=   268435456 cpu:               0.2 elap:               0.2
 (Enter /software/gaussian/g16-a03/l914.exe)
 RHF ground state
 Keep R1, R2, and R3 ints in memory in symmetry-blocked form, NReq=6042848.
 FoFCou: FMM=F IPFlag=           0 FMFlag=           0 FMFlg1=           0
         NFxFlg=           0 DoJE=F BraDBF=F KetDBF=F FulRan=T
         wScrn=  0.000000 ICntrl=       600 IOpCl=  0 I1Cent=           0 NGrid=           0
         NMat0=    1 NMatS0=   1596 NMatT0=    0 NMatD0=    1 NMtDS0=    0 NMtDT0=    0
 Petite list used in FoFCou.
 MDV=   268435456 DFT=T DoStab=F Mixed=T DoRPA=T DoScal=F NonHer=T
 Making orbital integer symmetry assigments:
 Orbital symmetries:
       Occupied  (A1) (A1) (A1) (B2) (B1) (A1) (A1) (B2)
       Virtual   (A1) (B1) (B2) (A1) (A1) (B1) (A1) (B2) (B1) (A1)
                 (B2) (A1) (A1) (B2) (B1) (B2) (A1) (A1) (B1) (A2)
                 (B2) (A1) (A1) (B2) (A1) (B1) (A2) (B1) (B2) (A1)
                 (A1) (B2) (B1) (A1) (B2) (A1) (A2) (B2) (A1) (B1)
                 (A1) (B2) (A1) (B1) (B2) (A1) (A1) (A1)
   120 initial guesses have been made.
 Convergence on wavefunction:    0.001000000000000
 Davidson Disk Diagonalization:  ConvIn= 1.00D-03 SkipCon=T Conv= 1.00D-03.
 Max sub-space:  1728 roots to seek:   120 dimension of matrix:          576
 Iteration     1 Dimension   120 NMult     0 NNew    120
 CISAX will form   120 AO SS matrices at one time.
 NMat=   120 NSing=   120 JSym2X=-1.
 New state      3 was old state      4
 New state      4 was old state      3
 New state      5 was old state      6
 New state      6 was old state      7
 New state      7 was old state      8
 New state      8 was old state      5
 New state     12 was old state     13
 New state     13 was old state     12
 New state     15 was old state     16
 New state     16 was old state     17
 New state     17 was old state     15
 New state     23 was old state     24
 New state     24 was old state     27
 New state     25 was old state     26
 New state     26 was old state     25
 New state     27 was old state     23
 New state     28 was old state     29
 New state     29 was old state     35
 Excitation Energies [eV] at current iteration:
 Root      1 :     4.840558784678935
 Root      2 :     5.162874105069460
 Root      3 :     5.778721305314384
 Root      4 :     5.950684251729536
 Root      5 :     8.124550836692055
 Root      6 :     9.015858236263231
 Root      7 :     9.541447858733559
 Root      8 :     9.546307772177308
 Root      9 :    10.190700770311650
 Root     10 :    10.853567790104570
 Root     11 :    12.298311770361380
 Root     12 :    13.996866601856250
 Root     13 :    14.030755444725890
 Root     14 :    14.469252251099890
 Root     15 :    15.073291663937590
 Root     16 :    15.177749906202340
 Root     17 :    15.398570590092960
 Root     18 :    15.494157743500010
 Root     19 :    16.089252937116690
 Root     20 :    16.105782357395630
 Root     21 :    17.541126521439090
 Root     22 :    17.585371819976360
 Root     23 :    18.332057740049040
 Root     24 :    18.530087000121800
 Root     25 :    18.678404012005930
 Root     26 :    18.770840298567010
 Root     27 :    19.248252381996610
 Root     28 :    19.378168532685130
 Root     29 :    19.632898924924260
 Root     30 :    19.644707210200500
 Root     31 :    19.654201140381950
 Root     32 :    19.815003096556830
 Root     33 :    19.898901098871940
 Root     34 :    20.112706467341490
 Root     35 :    20.471163775616000
 Root     36 :    20.634487554302320
 Root     37 :    20.661052463808130
 Root     38 :    20.690745517689670
 Root     39 :    20.872758753572320
 Root     40 :    20.926627795009060
 Root     41 :    21.230012774021570
 Root     42 :    21.256603977980650
 Root     43 :    21.641440215277220
 Root     44 :    21.678917240288770
 Root     45 :    22.154349085668920
 Root     46 :    23.280739834647280
 Root     47 :    23.341746389331610
 Root     48 :    23.519550091787440
 Root     49 :    23.525576758681440
 Root     50 :    23.707548800092510
 Root     51 :    24.060090481653560
 Root     52 :    24.120493456104330
 Root     53 :    24.213743038342930
 Root     54 :    24.293698771407210
 Root     55 :    24.659236906434110
 Root     56 :    24.951423607305100
 Root     57 :    25.262451375242370
 Root     58 :    25.644360292678610
 Root     59 :    25.842914241524950
 Root     60 :    26.316429209085380
 Root     61 :    26.460807708265520
 Root     62 :    26.519863448053510
 Root     63 :    27.299241226304710
 Root     64 :    28.446049459947890
 Root     65 :    28.842025359282040
 Root     66 :    29.004777086881780
 Root     67 :    29.018089811116540
 Root     68 :    29.306640108177700
 Root     69 :    29.692156976572650
 Root     70 :    29.697485255988720
 Root     71 :    29.935745869945820
 Root     72 :    30.219077188459560
 Root     73 :    30.324939750314250
 Root     74 :    31.064617460949760
 Root     75 :    32.520007231752350
 Root     76 :    32.805610309373460
 Root     77 :    33.073067054905790
 Root     78 :    33.189039813653980
 Root     79 :    33.215956536399620
 Root     80 :    33.734834074349560
 Root     81 :    34.343167412407260
 Root     82 :    34.443932965404860
 Root     83 :    34.930068649530920
 Root     84 :    34.974684021765970
 Root     85 :    35.511628962298700
 Root     86 :    35.548217063335620
 Root     87 :    35.974482247645220
 Root     88 :    35.989306828620000
 Root     89 :    36.168894896637670
 Root     90 :    37.472751894229090
 Root     91 :    38.095003669239620
 Root     92 :    38.393059232631530
 Root     93 :    38.586018734448430
 Root     94 :    38.967122954353600
 Root     95 :    39.285465487375930
 Root     96 :    39.416914357904620
 Root     97 :    39.480313059012310
 Root     98 :    39.599977376988420
 Root     99 :    39.668551601138810
 Root    100 :    39.762953780068470
 Root    101 :    40.121981661022200
 Root    102 :    40.237229418995880
 Root    103 :    40.533149913262040
 Root    104 :    40.754727041081090
 Root    105 :    40.763812326792050
 Root    106 :    41.059377986356130
 Root    107 :    41.708190046410510
 Root    108 :    41.929921332738470
 Root    109 :    42.099228999504890
 Root    110 :    42.380316621474920
 Root    111 :    44.142164783897010
 Root    112 :    44.166676322273530
 Root    113 :    44.575753034712950
 Root    114 :    44.741624090042860
 Root    115 :    45.031162789817830
 Root    116 :    45.438192874805780
 Root    117 :    45.541712504747020
 Root    118 :    45.781376323174680
 Root    119 :    46.554110912665120
 Root    120 :    48.847693919864240
 Iteration     2 Dimension   180 NMult   120 NNew     60
 CISAX will form    60 AO SS matrices at one time.
 NMat=    60 NSing=    60 JSym2X=-1.
 Root      1 not converged, maximum delta is    0.002208590731435
 Root      2 not converged, maximum delta is    0.003464694518033
 Root      3 not converged, maximum delta is    0.003634227469117
 Root      4 not converged, maximum delta is    0.005802318675985
 Root      5 not converged, maximum delta is    0.004525778520881
 Root      6 not converged, maximum delta is    0.007791033016806
 New state      7 was old state      8
 Root      7 not converged, maximum delta is    0.008444372324260
 New state      8 was old state      7
 Root      8 not converged, maximum delta is    0.002939281645451
 Root      9 not converged, maximum delta is    0.003892302045361
 Root     10 not converged, maximum delta is    0.002371533419618
 Root     11 not converged, maximum delta is    0.006607360060847
 Root     12 not converged, maximum delta is    0.010732334125691
 Root     13 not converged, maximum delta is    0.009802160027753
 Root     14 not converged, maximum delta is    0.007300586314768
 Root     15 not converged, maximum delta is    0.008301119078188
 Root     16 not converged, maximum delta is    0.006401562167716
 Root     17 not converged, maximum delta is    0.007799569541247
 Root     18 not converged, maximum delta is    0.010350331115609
 Root     19 not converged, maximum delta is    0.006057626734333
 Root     20 not converged, maximum delta is    0.006406449019573
 New state     21 was old state     22
 Root     21 not converged, maximum delta is    0.023278078705692
 New state     22 was old state     21
 Root     22 not converged, maximum delta is    0.002661413131298
 Root     23 not converged, maximum delta is    0.006501074141904
 Root     24 not converged, maximum delta is    0.004137997944156
 Root     25 not converged, maximum delta is    0.025312603745793
 Root     26 not converged, maximum delta is    0.010852784526046
 Root     27 not converged, maximum delta is    0.034509053153296
 Root     28 not converged, maximum delta is    0.043027086090330
 Root     29 not converged, maximum delta is    0.003046028545689
 Root     30 not converged, maximum delta is    0.033690068188498
 Excitation Energies [eV] at current iteration:
 Root      1 :     4.837520417052834   Change is   -0.003038367626102
 Root      2 :     5.159964002239802   Change is   -0.002910102829658
 Root      3 :     5.775054048496773   Change is   -0.003667256817612
 Root      4 :     5.943572111343200   Change is   -0.007112140386335
 Root      5 :     8.118957476337227   Change is   -0.005593360354828
 Root      6 :     9.008207981187857   Change is   -0.007650255075373
 Root      7 :     9.531779763892368   Change is   -0.014528008284938
 Root      8 :     9.533680587681500   Change is   -0.007767271052059
 Root      9 :    10.187232437191580   Change is   -0.003468333120071
 Root     10 :    10.849247311338490   Change is   -0.004320478766075
 Root     11 :    12.283492996676150   Change is   -0.014818773685235
 Root     12 :    13.982719323655730   Change is   -0.014147278200514
 Root     13 :    14.009076895319550   Change is   -0.021678549406344
 Root     14 :    14.460193298549430   Change is   -0.009058952550463
 Root     15 :    15.053885069178610   Change is   -0.019406594758985
 Root     16 :    15.167635727266460   Change is   -0.010114178935879
 Root     17 :    15.378995885121660   Change is   -0.019574704971306
 Root     18 :    15.478910934839450   Change is   -0.015246808660562
 Root     19 :    16.079092530585020   Change is   -0.010160406531679
 Root     20 :    16.096310232835450   Change is   -0.009472124560175
 Root     21 :    17.487516314161290   Change is   -0.097855505815074
 Root     22 :    17.536490375307400   Change is   -0.004636146131685
 Root     23 :    18.323679952168910   Change is   -0.008377787880139
 Root     24 :    18.526280730134930   Change is   -0.003806269986877
 Root     25 :    18.619677014127030   Change is   -0.058726997878905
 Root     26 :    18.747750157868380   Change is   -0.023090140698626
 Root     27 :    19.185543528200060   Change is   -0.062708853796552
 Root     28 :    19.355679716555000   Change is   -0.022488816130123
 Root     29 :    19.629269038652430   Change is   -0.003629886271823
 Root     30 :    19.631392648694970   Change is   -0.013314561505530
 Iteration     3 Dimension   240 NMult   180 NNew     60
 CISAX will form    60 AO SS matrices at one time.
 NMat=    60 NSing=    60 JSym2X=-1.
 Root      1 has converged.
 Root      2 has converged.
 Root      3 has converged.
 Root      4 has converged.
 Root      5 has converged.
 Root      6 has converged.
 Root      7 has converged.
 Root      8 has converged.
 Root      9 has converged.
 Root     10 has converged.
 Root     11 has converged.
 Root     12 has converged.
 Root     13 has converged.
 Root     14 has converged.
 Root     15 has converged.
 Root     16 has converged.
 Root     17 has converged.
 Root     18 has converged.
 Root     19 has converged.
 Root     20 has converged.
 Root     21 has converged.
 Root     22 has converged.
 Root     23 has converged.
 Root     24 has converged.
 Root     25 has converged.
 Root     26 has converged.
 Root     27 has converged.
 Root     28 has converged.
 Root     29 has converged.
 Root     30 has converged.
 Excitation Energies [eV] at current iteration:
 Root      1 :     4.837519619419678   Change is   -0.000000797633156
 Root      2 :     5.159963013369832   Change is   -0.000000988869970
 Root      3 :     5.775052549153153   Change is   -0.000001499343620
 Root      4 :     5.943569580975706   Change is   -0.000002530367495
 Root      5 :     8.118954589530851   Change is   -0.000002886806376
 Root      6 :     9.008206246562040   Change is   -0.000001734625818
 Root      7 :     9.531772737930858   Change is   -0.000007025961510
 Root      8 :     9.533672007485809   Change is   -0.000008580195692
 Root      9 :    10.187228917381270   Change is   -0.000003519810307
 Root     10 :    10.849242307589090   Change is   -0.000005003749403
 Root     11 :    12.283469248683590   Change is   -0.000023747992561
 Root     12 :    13.982696859648150   Change is   -0.000022464007582
 Root     13 :    14.009032449045720   Change is   -0.000044446273826
 Root     14 :    14.460166833665780   Change is   -0.000026464883652
 Root     15 :    15.053845847900770   Change is   -0.000039221277837
 Root     16 :    15.167613831972050   Change is   -0.000021895294412
 Root     17 :    15.378946960068010   Change is   -0.000048925053643
 Root     18 :    15.478885368622230   Change is   -0.000025566217216
 Root     19 :    16.079078213020140   Change is   -0.000014317564880
 Root     20 :    16.096292681775790   Change is   -0.000017551059660
 Root     21 :    17.487125122839370   Change is   -0.000391191321911
 Root     22 :    17.536477231704630   Change is   -0.000013143602767
 Root     23 :    18.323655887431260   Change is   -0.000024064737647
 Root     24 :    18.526268708869470   Change is   -0.000012021265458
 Root     25 :    18.619526765931280   Change is   -0.000150248195744
 Root     26 :    18.747700197912350   Change is   -0.000049959956030
 Root     27 :    19.185476871214950   Change is   -0.000066656985110
 Root     28 :    19.355567300814980   Change is   -0.000112415740022
 Root     29 :    19.629260739640020   Change is   -0.000008299012408
 Root     30 :    19.631352080162930   Change is   -0.000040568532041
 Convergence achieved on expansion vectors.
 ***********************************************************************
 Excited states from <AA,BB:AA,BB> singles matrix:
 ***********************************************************************
 
 1PDM for each excited state written to RWF  633
 Ground to excited state transition densities written to RWF  633
 Ground to excited state transition electric dipole moments (Au):
       state          X           Y           Z        Dip. S.      Osc.
         1        -0.0000      1.0229      0.0000      1.0463      0.1240
         2        -0.0000     -0.0000     -0.0000      0.0000      0.0000
         3        -0.0000      0.4886      0.0000      0.2388      0.0338
         4         0.0000     -0.0000      0.2523      0.0637      0.0093
         5        -0.0000      0.0000     -0.0000      0.0000      0.0000
         6        -0.0000     -0.6415     -0.0000      0.4115      0.0908
         7         0.0000     -1.2926      0.0000      1.6709      0.3902
         8        -0.0000     -0.0000     -0.1559      0.0243      0.0057
         9         0.0000      0.0000      0.0000      0.0000      0.0000
        10        -0.0000      0.4153     -0.0000      0.1725      0.0458
        11        -0.0000      0.0000      0.9355      0.8751      0.2634
        12        -0.0000     -0.1949      0.0000      0.0380      0.0130
        13        -0.0000      0.0000      0.2734      0.0748      0.0257
        14         0.0799     -0.0000      0.0000      0.0064      0.0023
        15         0.0000     -0.3071     -0.0000      0.0943      0.0348
        16         0.0000      0.0000     -0.0608      0.0037      0.0014
        17         0.0000      0.0000     -0.1375      0.0189      0.0071
        18        -0.5433      0.0000      0.0000      0.2952      0.1120
        19        -0.0000     -0.1543     -0.0000      0.0238      0.0094
        20         0.0000      0.0000     -0.5619      0.3157      0.1245
        21        -0.5805      0.0000      0.0000      0.3370      0.1444
        22        -0.0000      0.0000     -0.2056      0.0423      0.0182
        23        -0.0000     -0.0000      0.4211      0.1773      0.0796
        24        -0.0000     -0.3239     -0.0000      0.1049      0.0476
        25         0.3596     -0.0000      0.0000      0.1293      0.0590
        26         0.0000      0.0000      0.1333      0.0178      0.0082
        27        -0.0000     -0.2087     -0.0000      0.0435      0.0205
        28         0.0623     -0.0000      0.0000      0.0039      0.0018
        29         0.0000     -0.0000     -0.0000      0.0000      0.0000
        30         0.1384      0.0000     -0.0000      0.0192      0.0092
 Ground to excited state transition velocity dipole moments (Au):
       state          X           Y           Z        Dip. S.      Osc.
         1         0.0000     -0.1720     -0.0000      0.0296      0.1109
         2         0.0000      0.0000     -0.0000      0.0000      0.0000
         3         0.0000     -0.1003     -0.0000      0.0101      0.0316
         4        -0.0000      0.0000     -0.0542      0.0029      0.0090
         5         0.0000     -0.0000      0.0000      0.0000      0.0000
         6         0.0000      0.2308      0.0000      0.0533      0.1072
         7        -0.0000      0.4278     -0.0000      0.1830      0.3483
         8         0.0000      0.0000      0.0479      0.0023      0.0044
         9        -0.0000     -0.0000     -0.0000      0.0000      0.0000
        10         0.0000     -0.1576      0.0000      0.0249      0.0416
        11         0.0000      0.0000     -0.4084      0.1668      0.2463
        12         0.0000      0.0660     -0.0000      0.0044      0.0057
        13         0.0000     -0.0000     -0.1377      0.0190      0.0246
        14        -0.0537     -0.0000     -0.0000      0.0029      0.0036
        15        -0.0000      0.1666      0.0000      0.0278      0.0334
        16        -0.0000     -0.0000      0.0394      0.0016      0.0019
        17        -0.0000     -0.0000      0.0719      0.0052      0.0061
        18         0.2972      0.0000     -0.0000      0.0883      0.1035
        19         0.0000      0.0971      0.0000      0.0094      0.0106
        20         0.0000     -0.0000      0.3255      0.1060      0.1194
        21         0.3806     -0.0000      0.0000      0.1449      0.1503
        22         0.0000      0.0000      0.1321      0.0175      0.0181
        23         0.0000      0.0000     -0.2831      0.0801      0.0793
        24         0.0000      0.2232      0.0000      0.0498      0.0488
        25        -0.2583      0.0000     -0.0000      0.0667      0.0650
        26        -0.0000     -0.0000     -0.1035      0.0107      0.0104
        27         0.0000      0.1726     -0.0000      0.0298      0.0282
        28        -0.0447     -0.0000      0.0000      0.0020      0.0019
        29        -0.0000      0.0000      0.0000      0.0000      0.0000
        30        -0.1080     -0.0000      0.0000      0.0117      0.0108
 Ground to excited state transition magnetic dipole moments (Au):
       state          X           Y           Z
         1        -0.4338      0.0000     -0.0000
         2         0.0000     -0.0000     -0.9413
         3         0.7890      0.0000      0.0000
         4        -0.0000     -0.0000     -0.0000
         5        -0.0000      0.0000      0.8675
         6        -0.1838      0.0000     -0.0000
         7         1.2137     -0.0000      0.0000
         8         0.0000     -0.0000     -0.0000
         9        -0.0000     -0.0000     -0.5147
        10         0.0605      0.0000      0.0000
        11        -0.0000      0.0000      0.0000
        12         1.4793      0.0000      0.0000
        13        -0.0000      0.0000     -0.0000
        14         0.0000      0.0544      0.0000
        15        -0.2861      0.0000     -0.0000
        16         0.0000      0.0000     -0.0000
        17         0.0000      0.0000      0.0000
        18         0.0000     -0.5532      0.0000
        19        -0.1706      0.0000      0.0000
        20         0.0000      0.0000      0.0000
        21         0.0000      0.8114      0.0000
        22         0.0000      0.0000     -0.0000
        23        -0.0000     -0.0000      0.0000
        24        -0.3258     -0.0000     -0.0000
        25        -0.0000      0.6776      0.0000
        26         0.0000      0.0000      0.0000
        27         0.1296     -0.0000      0.0000
        28         0.0000      0.0156     -0.0000
        29         0.0000      0.0000     -0.0479
        30         0.0000      0.0694      0.0000
 Ground to excited state transition velocity quadrupole moments (Au):
       state          XX          YY          ZZ          XY          XZ          YZ
         1        -0.0000     -0.0000      0.0000      0.0000     -0.0000      0.3742
         2        -0.0000     -0.0000     -0.0000      0.3479     -0.0000      0.0000
         3         0.0000      0.0000     -0.0000     -0.0000     -0.0000      0.4462
         4         0.2796      0.8015      0.1148      0.0000      0.0000     -0.0000
         5         0.0000     -0.0000     -0.0000     -0.0852     -0.0000     -0.0000
         6         0.0000      0.0000     -0.0000      0.0000     -0.0000     -0.7748
         7         0.0000      0.0000      0.0000     -0.0000      0.0000     -0.6539
         8        -0.2413     -0.6249     -0.5670     -0.0000     -0.0000     -0.0000
         9         0.0000      0.0000      0.0000     -0.1578      0.0000      0.0000
        10        -0.0000     -0.0000     -0.0000      0.0000     -0.0000      0.1108
        11         0.0164      1.0150      0.8755     -0.0000     -0.0000      0.0000
        12        -0.0000      0.0000     -0.0000     -0.0000     -0.0000     -0.2021
        13        -0.0447      0.0045     -0.2563      0.0000     -0.0000      0.0000
        14         0.0000      0.0000      0.0000      0.0000      0.2753     -0.0000
        15        -0.0000     -0.0000     -0.0000      0.0000      0.0000      0.2565
        16        -0.1206     -0.2580      0.3220     -0.0000      0.0000     -0.0000
        17        -0.4842     -0.8062     -0.8470     -0.0000      0.0000     -0.0000
        18         0.0000      0.0000      0.0000      0.0000     -0.5157      0.0000
        19        -0.0000     -0.0000     -0.0000     -0.0000     -0.0000      0.1217
        20        -0.1262     -0.2132     -0.9140     -0.0000     -0.0000     -0.0000
        21         0.0000      0.0000      0.0000      0.0000      0.5938     -0.0000
        22        -0.0090     -0.3877      0.0981     -0.0000      0.0000     -0.0000
        23        -0.0936      0.1415     -0.8042      0.0000     -0.0000      0.0000
        24        -0.0000      0.0000      0.0000      0.0000     -0.0000      0.4752
        25         0.0000     -0.0000     -0.0000     -0.0000      0.6107      0.0000
        26        -0.5726      1.1404      0.6710     -0.0000      0.0000     -0.0000
        27         0.0000     -0.0000      0.0000     -0.0000     -0.0000     -0.5591
        28        -0.0000      0.0000      0.0000      0.0000      0.3321     -0.0000
        29        -0.0000     -0.0000      0.0000      0.1454     -0.0000      0.0000
        30        -0.0000     -0.0000      0.0000     -0.0000     -0.1610     -0.0000
 <0|del|b> * <b|rxdel|0> + <0|del|b> * <b|delr+rdel|0>
 Rotatory Strengths (R) in cgs (10**-40 erg-esu-cm/Gauss)
       state          XX          YY          ZZ    R(velocity)    E-M Angle
         1        -0.0000     -0.0000     -0.0000     -0.0000       90.00
         2         0.0000      0.0000      0.0000      0.0000       90.00
         3        -0.0000      0.0000      0.0000      0.0000       90.00
         4         0.0000      0.0000      0.0000      0.0000       90.00
         5         0.0000      0.0000     -0.0000      0.0000       90.00
         6         0.0000     -0.0000      0.0000     -0.0000       90.00
         7        -0.0000     -0.0000     -0.0000     -0.0000       90.00
         8        -0.0000     -0.0000      0.0000     -0.0000       90.00
         9         0.0000      0.0000      0.0000      0.0000       90.00
        10        -0.0000      0.0000      0.0000      0.0000       90.00
        11        -0.0000     -0.0000     -0.0000     -0.0000       90.00
        12         0.0000      0.0000      0.0000      0.0000       90.00
        13        -0.0000      0.0000     -0.0000      0.0000       90.00
        14         0.0000      0.0000     -0.0000     -0.0000       90.00
        15        -0.0000      0.0000      0.0000      0.0000       90.00
        16        -0.0000     -0.0000     -0.0000     -0.0000       90.00
        17        -0.0000      0.0000     -0.0000      0.0000       90.00
        18        -0.0000      0.0000     -0.0000     -0.0000       90.00
        19         0.0000     -0.0000     -0.0000     -0.0000       90.00
        20        -0.0000      0.0000      0.0000      0.0000       90.00
        21        -0.0000      0.0000     -0.0000     -0.0000       90.00
        22        -0.0000     -0.0000      0.0000     -0.0000       90.00
        23        -0.0000      0.0000     -0.0000     -0.0000       90.00
        24        -0.0000      0.0000     -0.0000     -0.0000       90.00
        25         0.0000      0.0000      0.0000      0.0000       90.00
        26         0.0000     -0.0000     -0.0000     -0.0000       90.00
        27        -0.0000     -0.0000      0.0000      0.0000       90.00
        28         0.0000      0.0000     -0.0000     -0.0000       90.00
        29         0.0000     -0.0000     -0.0000     -0.0000       90.00
        30        -0.0000      0.0000     -0.0000     -0.0000       90.00
 1/2[<0|r|b>*<b|rxdel|0> + (<0|rxdel|b>*<b|r|0>)*]
 Rotatory Strengths (R) in cgs (10**-40 erg-esu-cm/Gauss)
       state          XX          YY          ZZ     R(length)
         1        -0.0000     -0.0000      0.0000     -0.0000
         2         0.0000     -0.0000     -0.0000     -0.0000
         3         0.0000     -0.0000     -0.0000     -0.0000
         4         0.0000     -0.0000      0.0000      0.0000
         5        -0.0000     -0.0000      0.0000      0.0000
         6        -0.0000      0.0000     -0.0000      0.0000
         7        -0.0000     -0.0000     -0.0000     -0.0000
         8         0.0000     -0.0000     -0.0000     -0.0000
         9         0.0000      0.0000      0.0000      0.0000
        10         0.0000     -0.0000      0.0000     -0.0000
        11        -0.0000     -0.0000     -0.0000     -0.0000
        12         0.0000      0.0000     -0.0000      0.0000
        13        -0.0000     -0.0000      0.0000      0.0000
        14        -0.0000      0.0000     -0.0000     -0.0000
        15         0.0000      0.0000     -0.0000      0.0000
        16        -0.0000     -0.0000     -0.0000     -0.0000
        17        -0.0000     -0.0000      0.0000      0.0000
        18         0.0000      0.0000     -0.0000      0.0000
        19        -0.0000      0.0000      0.0000      0.0000
        20        -0.0000     -0.0000      0.0000      0.0000
        21         0.0000     -0.0000     -0.0000      0.0000
        22         0.0000     -0.0000     -0.0000     -0.0000
        23        -0.0000     -0.0000     -0.0000     -0.0000
        24        -0.0000     -0.0000     -0.0000     -0.0000
        25         0.0000      0.0000     -0.0000      0.0000
        26        -0.0000     -0.0000     -0.0000     -0.0000
        27         0.0000     -0.0000      0.0000      0.0000
        28        -0.0000      0.0000      0.0000     -0.0000
        29        -0.0000      0.0000     -0.0000     -0.0000
        30        -0.0000     -0.0000      0.0000     -0.0000
  1/2[<0|del|b>*<b|r|0> + (<0|r|b>*<b|del|0>)*] (Au)
       state          X           Y           Z        Dip. S.   Osc.(frdel)
         1        -0.0000     -0.1759     -0.0000      0.1759      0.1173
         2        -0.0000     -0.0000      0.0000      0.0000      0.0000
         3        -0.0000     -0.0490     -0.0000      0.0490      0.0327
         4        -0.0000     -0.0000     -0.0137      0.0137      0.0091
         5        -0.0000     -0.0000     -0.0000      0.0000      0.0000
         6        -0.0000     -0.1480     -0.0000      0.1480      0.0987
         7        -0.0000     -0.5530     -0.0000      0.5530      0.3686
         8        -0.0000     -0.0000     -0.0075      0.0075      0.0050
         9        -0.0000     -0.0000     -0.0000      0.0000      0.0000
        10        -0.0000     -0.0655     -0.0000      0.0655      0.0436
        11        -0.0000      0.0000     -0.3820      0.3820      0.2547
        12        -0.0000     -0.0129     -0.0000      0.0129      0.0086
        13        -0.0000     -0.0000     -0.0377      0.0377      0.0251
        14        -0.0043      0.0000     -0.0000      0.0043      0.0029
        15        -0.0000     -0.0512     -0.0000      0.0512      0.0341
        16        -0.0000     -0.0000     -0.0024      0.0024      0.0016
        17        -0.0000     -0.0000     -0.0099      0.0099      0.0066
        18        -0.1615      0.0000     -0.0000      0.1615      0.1077
        19        -0.0000     -0.0150     -0.0000      0.0150      0.0100
        20         0.0000     -0.0000     -0.1829      0.1829      0.1219
        21        -0.2210     -0.0000      0.0000      0.2210      0.1473
        22        -0.0000      0.0000     -0.0272      0.0272      0.0181
        23        -0.0000     -0.0000     -0.1192      0.1192      0.0795
        24        -0.0000     -0.0723     -0.0000      0.0723      0.0482
        25        -0.0929     -0.0000     -0.0000      0.0929      0.0619
        26        -0.0000     -0.0000     -0.0138      0.0138      0.0092
        27        -0.0000     -0.0360      0.0000      0.0360      0.0240
        28        -0.0028      0.0000      0.0000      0.0028      0.0019
        29        -0.0000     -0.0000     -0.0000      0.0000      0.0000
        30        -0.0149     -0.0000     -0.0000      0.0149      0.0100

 Excitation energies and oscillator strengths:
 
 Excited State   1:      Singlet-B2     4.8375 eV  256.30 nm  f=0.1240  <S**2>=0.000
       3 -> 11         0.00075
       3 -> 16         0.00062
       3 -> 19         0.00076
       3 -> 22         0.00045
       3 -> 24        -0.00100
       3 -> 29         0.00020
       3 -> 32        -0.00018
       3 -> 40        -0.00022
       3 -> 43         0.00021
       3 -> 50        -0.00010
       3 -> 53         0.00015
       4 ->  9        -0.00287
       4 -> 12         0.00300
       4 -> 13         0.00353
       4 -> 15         0.00151
       4 -> 18         0.00279
       4 -> 20         0.00204
       4 -> 21         0.00171
       4 -> 25         0.00146
       4 -> 26        -0.00077
       4 -> 30         0.00064
       4 -> 31         0.00157
       4 -> 33         0.00027
       4 -> 38        -0.00066
       4 -> 42        -0.00049
       4 -> 44        -0.00030
       4 -> 47        -0.00077
       4 -> 49         0.00016
       4 -> 51        -0.00010
       5 -> 28         0.00181
       5 -> 35         0.00080
       5 -> 45         0.00080
       6 -> 11        -0.00530
       6 -> 16         0.00348
       6 -> 19         0.00057
       6 -> 22        -0.00085
       6 -> 24        -0.00467
       6 -> 29         0.00071
       6 -> 32        -0.00075
       6 -> 37         0.00022
       6 -> 43         0.00016
       6 -> 46         0.00033
       7 -> 11         0.00812
       7 -> 16         0.00352
       7 -> 19         0.00294
       7 -> 24        -0.00058
       7 -> 29        -0.00108
       7 -> 32         0.00086
       7 -> 37        -0.00071
       7 -> 43        -0.00042
       7 -> 46         0.00041
       7 -> 50         0.00043
       7 -> 53        -0.00011
       8 ->  9         0.70530
       8 -> 12        -0.00024
       8 -> 13         0.04808
       8 -> 15        -0.00650
       8 -> 18        -0.02206
       8 -> 20         0.00546
       8 -> 21         0.01025
       8 -> 25        -0.00022
       8 -> 26        -0.00037
       8 -> 30        -0.00305
       8 -> 31        -0.00210
       8 -> 33        -0.00104
       8 -> 38        -0.00112
       8 -> 39         0.00010
       8 -> 42        -0.00074
       8 -> 44         0.00033
       8 -> 47         0.00077
       8 -> 49        -0.00028
       8 -> 51         0.00011
       3 <- 11         0.00032
       3 <- 16         0.00029
       3 <- 19         0.00049
       3 <- 22         0.00036
       3 <- 24        -0.00076
       3 <- 29         0.00016
       3 <- 32        -0.00020
       3 <- 40        -0.00023
       3 <- 43         0.00020
       3 <- 53         0.00016
       4 <-  9        -0.00128
       4 <- 12        -0.00022
       4 <- 13         0.00289
       4 <- 15         0.00179
       4 <- 18         0.00056
       4 <- 20         0.00117
       4 <- 21         0.00133
       4 <- 25         0.00120
       4 <- 26        -0.00132
       4 <- 30         0.00051
       4 <- 31         0.00065
       4 <- 33         0.00023
       4 <- 38        -0.00043
       4 <- 39         0.00015
       4 <- 42        -0.00040
       4 <- 44        -0.00024
       4 <- 47        -0.00069
       5 <- 28         0.00150
       5 <- 35         0.00065
       5 <- 45         0.00067
       6 <- 11        -0.00092
       6 <- 16         0.00307
       6 <- 19         0.00082
       6 <- 22        -0.00013
       6 <- 24        -0.00343
       6 <- 29         0.00024
       6 <- 32        -0.00065
       6 <- 37         0.00027
       6 <- 43         0.00011
       6 <- 46         0.00031
       6 <- 50         0.00017
       7 <- 11         0.00172
       7 <- 16         0.00149
       7 <- 19         0.00027
       7 <- 24         0.00012
       7 <- 29        -0.00157
       7 <- 32         0.00068
       7 <- 37        -0.00043
       7 <- 43        -0.00029
       7 <- 46         0.00043
       7 <- 50         0.00049
       8 <-  9        -0.00855
       8 <- 12        -0.00538
       8 <- 13         0.02020
       8 <- 15         0.00618
       8 <- 18         0.00139
       8 <- 20         0.00054
       8 <- 21         0.00522
       8 <- 25         0.00308
       8 <- 30        -0.00201
       8 <- 31        -0.00139
       8 <- 33        -0.00138
       8 <- 38        -0.00107
       8 <- 42        -0.00063
       8 <- 47         0.00066
       8 <- 49        -0.00020
 This state for optimization and/or second-order correction.
 Total Energy, E(TD-HF/TD-DFT) =  -112.587329214    
 Copying the excited state density for this state as the 1-particle RhoCI density.
 
 Excited State   2:      Singlet-A2     5.1600 eV  240.28 nm  f=0.0000  <S**2>=0.000
       3 -> 28        -0.00186
       3 -> 35        -0.00116
       3 -> 45        -0.00042
       4 -> 10        -0.00091
       4 -> 14         0.00093
       4 -> 17        -0.00365
       4 -> 23         0.00164
       4 -> 27        -0.00221
       4 -> 36        -0.00150
       4 -> 41        -0.00016
       4 -> 48        -0.00013
       4 -> 52        -0.00028
       5 -> 11         0.00028
       5 -> 16        -0.00014
       5 -> 19         0.00035
       5 -> 22        -0.00092
       5 -> 24        -0.00023
       5 -> 29         0.00022
       5 -> 32        -0.00011
       5 -> 37        -0.00033
       5 -> 43        -0.00038
       5 -> 46        -0.00036
       5 -> 50         0.00019
       6 -> 28        -0.00327
       6 -> 35         0.00048
       7 -> 28         0.00145
       7 -> 35        -0.00032
       7 -> 45        -0.00046
       8 -> 10         0.70605
       8 -> 14        -0.02731
       8 -> 17         0.02803
       8 -> 23         0.00298
       8 -> 27         0.00157
       8 -> 34         0.00321
       8 -> 36        -0.00192
       8 -> 41         0.00026
       8 -> 48         0.00014
       8 -> 52         0.00037
       3 <- 28        -0.00153
       3 <- 35        -0.00100
       3 <- 45        -0.00040
       4 <- 10        -0.00018
       4 <- 14         0.00070
       4 <- 17        -0.00075
       4 <- 23         0.00012
       4 <- 27        -0.00037
       4 <- 34         0.00075
       4 <- 36        -0.00083
       4 <- 41        -0.00023
       5 <- 11         0.00061
       5 <- 16        -0.00058
       5 <- 19         0.00151
       5 <- 22        -0.00136
       5 <- 24        -0.00117
       5 <- 29         0.00132
       5 <- 32         0.00022
       5 <- 37        -0.00075
       5 <- 43        -0.00043
       5 <- 46        -0.00036
       5 <- 53        -0.00025
       6 <- 28        -0.00319
       6 <- 35         0.00062
       7 <- 28         0.00152
       7 <- 35        -0.00041
       7 <- 45        -0.00046
       8 <- 10         0.00135
       8 <- 14         0.00526
       8 <- 17        -0.00616
       8 <- 23         0.00019
       8 <- 27        -0.00052
       8 <- 34         0.00308
       8 <- 36        -0.00154
       8 <- 41         0.00018
       8 <- 52         0.00013
 
 Excited State   3:      Singlet-B2     5.7751 eV  214.69 nm  f=0.0338  <S**2>=0.000
       3 -> 11        -0.00015
       3 -> 16         0.00046
       3 -> 19        -0.00029
       3 -> 22         0.00029
       3 -> 24        -0.00034
       3 -> 29        -0.00040
       3 -> 32         0.00013
       3 -> 37        -0.00021
       3 -> 43        -0.00022
       3 -> 46         0.00015
       3 -> 50         0.00011
       3 -> 53        -0.00017
       4 ->  9         0.00182
       4 -> 12         0.00032
       4 -> 13         0.00127
       4 -> 15         0.00249
       4 -> 18        -0.00137
       4 -> 20        -0.00049
       4 -> 21         0.00122
       4 -> 25         0.00085
       4 -> 26         0.00059
       4 -> 30        -0.00217
       4 -> 31        -0.00057
       4 -> 38         0.00024
       4 -> 39        -0.00096
       4 -> 42         0.00032
       4 -> 47         0.00052
       5 -> 28        -0.00099
       5 -> 35        -0.00123
       5 -> 45        -0.00070
       6 -> 11        -0.00047
       6 -> 16         0.00377
       6 -> 19        -0.00167
       6 -> 24        -0.00205
       6 -> 29         0.00182
       6 -> 32         0.00041
       6 -> 37         0.00060
       6 -> 40         0.00042
       6 -> 43         0.00030
       6 -> 46        -0.00029
       6 -> 50        -0.00024
       6 -> 53         0.00013
       7 -> 11        -0.00219
       7 -> 16        -0.00418
       7 -> 19        -0.00129
       7 -> 22         0.00071
       7 -> 24         0.00311
       7 -> 29        -0.00095
       7 -> 32        -0.00045
       7 -> 37         0.00057
       7 -> 43         0.00018
       7 -> 46        -0.00057
       7 -> 50        -0.00031
       7 -> 53         0.00014
       8 ->  9        -0.00113
       8 -> 12         0.70572
       8 -> 13         0.03141
       8 -> 15         0.02706
       8 -> 18         0.00843
       8 -> 20         0.01580
       8 -> 21         0.00531
       8 -> 25        -0.00088
       8 -> 26         0.00175
       8 -> 30        -0.00256
       8 -> 31         0.00044
       8 -> 33        -0.00025
       8 -> 38        -0.00037
       8 -> 39         0.00142
       8 -> 42        -0.00086
       8 -> 47        -0.00044
       8 -> 49         0.00011
       8 -> 54        -0.00015
       3 <- 16         0.00045
       3 <- 22         0.00015
       3 <- 24        -0.00039
       3 <- 29        -0.00024
       3 <- 32         0.00013
       3 <- 37        -0.00022
       3 <- 43        -0.00019
       3 <- 46         0.00011
       3 <- 53        -0.00022
       4 <-  9        -0.00120
       4 <- 12        -0.00015
       4 <- 13         0.00129
       4 <- 15         0.00070
       4 <- 18         0.00061
       4 <- 20        -0.00043
       4 <- 21         0.00084
       4 <- 25         0.00097
       4 <- 26         0.00064
       4 <- 30        -0.00144
       4 <- 33        -0.00059
       4 <- 38         0.00017
       4 <- 39        -0.00072
       4 <- 42         0.00033
       4 <- 47         0.00049
       5 <- 28        -0.00059
       5 <- 35        -0.00106
       5 <- 45        -0.00062
       6 <- 11        -0.00042
       6 <- 16         0.00079
       6 <- 19         0.00036
       6 <- 22        -0.00060
       6 <- 24        -0.00164
       6 <- 29         0.00135
       6 <- 32         0.00058
       6 <- 37         0.00058
       6 <- 40         0.00037
       6 <- 43         0.00020
       6 <- 46        -0.00025
       6 <- 50        -0.00017
       7 <- 16        -0.00139
       7 <- 19        -0.00058
       7 <- 22         0.00046
       7 <- 24         0.00174
       7 <- 29        -0.00017
       7 <- 32        -0.00036
       7 <- 37         0.00021
       7 <- 43         0.00011
       7 <- 46        -0.00051
       7 <- 50        -0.00039
       8 <-  9        -0.00494
       8 <- 12         0.00109
       8 <- 13         0.01095
       8 <- 15         0.00422
       8 <- 18        -0.00117
       8 <- 20        -0.00301
       8 <- 21         0.00331
       8 <- 25         0.00065
       8 <- 30        -0.00220
       8 <- 31         0.00039
       8 <- 33        -0.00011
       8 <- 38        -0.00019
       8 <- 39         0.00122
       8 <- 42        -0.00075
       8 <- 47        -0.00036
 
 Excited State   4:      Singlet-A1     5.9436 eV  208.60 nm  f=0.0093  <S**2>=0.000
       3 ->  9         0.00126
       3 -> 12        -0.00050
       3 -> 13         0.00020
       3 -> 15        -0.00070
       3 -> 18        -0.00149
       3 -> 20        -0.00010
       3 -> 21         0.00077
       3 -> 25        -0.00061
       3 -> 26        -0.00029
       3 -> 30         0.00072
       3 -> 31        -0.00074
       3 -> 33         0.00040
       3 -> 38         0.00035
       3 -> 39         0.00033
       3 -> 47        -0.00012
       3 -> 51         0.00019
       3 -> 54        -0.00013
       4 -> 11        -0.00617
       4 -> 16        -0.00644
       4 -> 19        -0.00465
       4 -> 22        -0.00235
       4 -> 24         0.00327
       4 -> 29         0.00029
       4 -> 37        -0.00103
       4 -> 40        -0.00012
       4 -> 43         0.00026
       4 -> 50         0.00020
       5 -> 10        -0.00357
       5 -> 14        -0.00343
       5 -> 17        -0.00299
       5 -> 23        -0.00341
       5 -> 27        -0.00093
       5 -> 34        -0.00089
       5 -> 36        -0.00059
       5 -> 41        -0.00013
       5 -> 48         0.00023
       6 ->  9         0.01135
       6 -> 12         0.00644
       6 -> 13        -0.00425
       6 -> 15        -0.00419
       6 -> 18        -0.00705
       6 -> 20         0.00483
       6 -> 21         0.00110
       6 -> 25        -0.00580
       6 -> 26         0.00088
       6 -> 30        -0.00034
       6 -> 31         0.00145
       6 -> 33         0.00196
       6 -> 38         0.00118
       6 -> 39        -0.00115
       6 -> 42         0.00013
       6 -> 44         0.00058
       6 -> 49         0.00045
       7 ->  9         0.00717
       7 -> 12        -0.01203
       7 -> 13         0.00132
       7 -> 15         0.00485
       7 -> 18        -0.00705
       7 -> 20        -0.00365
       7 -> 21        -0.00051
       7 -> 25         0.00178
       7 -> 26        -0.00279
       7 -> 30        -0.00058
       7 -> 31        -0.00179
       7 -> 33         0.00014
       7 -> 38        -0.00061
       7 -> 39         0.00054
       7 -> 42        -0.00012
       7 -> 44        -0.00033
       7 -> 51        -0.00017
       8 -> 11         0.70476
       8 -> 16         0.05216
       8 -> 19        -0.01887
       8 -> 22        -0.00052
       8 -> 24        -0.00638
       8 -> 29        -0.00395
       8 -> 32         0.00193
       8 -> 37        -0.00323
       8 -> 40        -0.00037
       8 -> 43         0.00183
       8 -> 46        -0.00088
       8 -> 50         0.00018
       3 <-  9         0.00068
       3 <- 12        -0.00024
       3 <- 13         0.00015
       3 <- 15        -0.00044
       3 <- 18        -0.00095
       3 <- 21         0.00050
       3 <- 25        -0.00048
       3 <- 26        -0.00023
       3 <- 30         0.00053
       3 <- 31        -0.00049
       3 <- 33         0.00035
       3 <- 38         0.00026
       3 <- 39         0.00027
       3 <- 47        -0.00015
       3 <- 51         0.00016
       3 <- 54        -0.00012
       4 <- 11        -0.00250
       4 <- 16        -0.00262
       4 <- 19        -0.00264
       4 <- 22        -0.00170
       4 <- 24         0.00177
       4 <- 29         0.00012
       4 <- 32         0.00015
       4 <- 37        -0.00086
       4 <- 40        -0.00011
       4 <- 43         0.00024
       4 <- 50         0.00018
       5 <- 10        -0.00194
       5 <- 14        -0.00195
       5 <- 17        -0.00179
       5 <- 23        -0.00235
       5 <- 27        -0.00068
       5 <- 34        -0.00073
       5 <- 36        -0.00050
       5 <- 41        -0.00011
       5 <- 48         0.00021
       6 <-  9         0.00810
       6 <- 12         0.00322
       6 <- 13        -0.00333
       6 <- 15        -0.00342
       6 <- 18        -0.00382
       6 <- 20         0.00273
       6 <- 21         0.00156
       6 <- 25        -0.00388
       6 <- 26         0.00054
       6 <- 30         0.00011
       6 <- 31         0.00107
       6 <- 33         0.00141
       6 <- 38         0.00119
       6 <- 39        -0.00091
       6 <- 42         0.00012
       6 <- 44         0.00058
       6 <- 49         0.00038
       7 <-  9         0.00017
       7 <- 12        -0.00487
       7 <- 13         0.00169
       7 <- 15         0.00340
       7 <- 18        -0.00329
       7 <- 20        -0.00176
       7 <- 21        -0.00072
       7 <- 25         0.00123
       7 <- 26        -0.00180
       7 <- 30        -0.00063
       7 <- 31        -0.00137
       7 <- 38        -0.00057
       7 <- 39         0.00031
       7 <- 44        -0.00034
       7 <- 47         0.00010
       7 <- 51        -0.00016
       8 <- 11        -0.00937
       8 <- 16         0.00504
       8 <- 19        -0.01530
       8 <- 22        -0.00395
       8 <- 24        -0.00240
       8 <- 29        -0.00277
       8 <- 32         0.00173
       8 <- 37        -0.00255
       8 <- 40        -0.00012
       8 <- 43         0.00147
       8 <- 46        -0.00086
       8 <- 50         0.00018
 
 Excited State   5:      Singlet-A2     8.1190 eV  152.71 nm  f=0.0000  <S**2>=0.000
       3 -> 28         0.00264
       3 -> 35         0.00174
       3 -> 45         0.00060
       4 -> 10         0.00067
       4 -> 14        -0.00764
       4 -> 17         0.00154
       4 -> 23        -0.00344
       4 -> 27         0.00071
       4 -> 34         0.00106
       4 -> 36         0.00269
       4 -> 52         0.00036
       5 -> 16        -0.00058
       5 -> 19        -0.00047
       5 -> 22         0.00146
       5 -> 24         0.00067
       5 -> 32         0.00010
       5 -> 37         0.00047
       5 -> 40        -0.00013
       5 -> 43         0.00063
       5 -> 46         0.00048
       5 -> 50        -0.00013
       5 -> 53         0.00015
       6 -> 28         0.00286
       6 -> 35        -0.00068
       6 -> 45         0.00014
       7 -> 28        -0.00128
       7 -> 35         0.00044
       7 -> 45         0.00057
       8 -> 10         0.02942
       8 -> 14         0.70380
       8 -> 17        -0.05792
       8 -> 23         0.02051
       8 -> 27        -0.00272
       8 -> 34        -0.00282
       8 -> 36         0.00284
       8 -> 52        -0.00042
       3 <- 28         0.00181
       3 <- 35         0.00143
       3 <- 45         0.00066
       4 <- 10         0.00033
       4 <- 14        -0.00075
       4 <- 17         0.00046
       4 <- 23        -0.00019
       4 <- 27         0.00024
       4 <- 34        -0.00065
       4 <- 36         0.00103
       4 <- 41         0.00030
       4 <- 52         0.00012
       5 <- 11         0.00035
       5 <- 16        -0.00023
       5 <- 19        -0.00059
       5 <- 22         0.00190
       5 <- 24         0.00161
       5 <- 29        -0.00043
       5 <- 32        -0.00060
       5 <- 37         0.00122
       5 <- 43         0.00075
       5 <- 46         0.00020
       5 <- 53         0.00032
       6 <- 28         0.00304
       6 <- 35        -0.00054
       7 <- 28        -0.00131
       7 <- 45         0.00037
       8 <- 10         0.00551
       8 <- 14        -0.00351
       8 <- 17         0.00408
       8 <- 23        -0.00077
       8 <- 27         0.00048
       8 <- 34        -0.00308
       8 <- 36         0.00166
       8 <- 41        -0.00021
       8 <- 52        -0.00017
 
 Excited State   6:      Singlet-B2     9.0082 eV  137.63 nm  f=0.0908  <S**2>=0.000
       3 -> 11         0.00042
       3 -> 16        -0.00076
       3 -> 19         0.00090
       3 -> 22        -0.00045
       3 -> 24         0.00023
       3 -> 29         0.00066
       3 -> 32         0.00053
       3 -> 37         0.00010
       3 -> 40         0.00042
       3 -> 43        -0.00025
       3 -> 46        -0.00016
       4 ->  9         0.00284
       4 -> 12        -0.00338
       4 -> 13        -0.00706
       4 -> 15         0.00012
       4 -> 18        -0.00143
       4 -> 20        -0.00458
       4 -> 21        -0.00639
       4 -> 25        -0.00185
       4 -> 26        -0.00013
       4 -> 30        -0.00229
       4 -> 31         0.00052
       4 -> 33        -0.00042
       4 -> 38        -0.00100
       4 -> 39         0.00069
       4 -> 44        -0.00017
       4 -> 47         0.00010
       4 -> 51         0.00019
       4 -> 54         0.00019
       5 -> 28        -0.00335
       5 -> 45         0.00036
       6 -> 11         0.01259
       6 -> 16        -0.00742
       6 -> 19         0.00930
       6 -> 22         0.00190
       6 -> 24         0.00747
       6 -> 29        -0.00092
       6 -> 32        -0.00261
       6 -> 37         0.00255
       6 -> 40        -0.00011
       6 -> 43        -0.00094
       6 -> 46         0.00024
       6 -> 50         0.00012
       7 -> 11        -0.00960
       7 -> 16         0.00092
       7 -> 19        -0.00536
       7 -> 24        -0.00294
       7 -> 29         0.00083
       7 -> 32         0.00081
       7 -> 37        -0.00123
       7 -> 43         0.00063
       8 ->  9        -0.03995
       8 -> 12        -0.00483
       8 -> 13         0.51916
       8 -> 15        -0.47742
       8 -> 18        -0.00039
       8 -> 20        -0.01432
       8 -> 21        -0.03348
       8 -> 25        -0.01149
       8 -> 26         0.00401
       8 -> 30         0.00473
       8 -> 31         0.00176
       8 -> 33         0.00201
       8 -> 38        -0.00293
       8 -> 39         0.00111
       8 -> 42         0.00173
       8 -> 44        -0.00204
       8 -> 47         0.00030
       8 -> 49        -0.00043
       8 -> 51         0.00016
       3 <- 11         0.00013
       3 <- 16        -0.00033
       3 <- 19         0.00029
       3 <- 22        -0.00036
       3 <- 24         0.00033
       3 <- 29         0.00018
       3 <- 32         0.00035
       3 <- 37         0.00014
       3 <- 40         0.00035
       3 <- 43        -0.00025
       3 <- 46        -0.00014
       4 <-  9         0.00091
       4 <- 12        -0.00040
       4 <- 13        -0.00343
       4 <- 15        -0.00148
       4 <- 18        -0.00019
       4 <- 20        -0.00243
       4 <- 21        -0.00347
       4 <- 25        -0.00105
       4 <- 26         0.00076
       4 <- 30        -0.00126
       4 <- 33         0.00014
       4 <- 38        -0.00085
       4 <- 39         0.00040
       4 <- 42        -0.00013
       4 <- 44        -0.00029
       5 <- 28        -0.00260
       5 <- 35         0.00030
       5 <- 45         0.00045
       6 <- 11         0.00391
       6 <- 16        -0.00274
       6 <- 19         0.00307
       6 <- 22         0.00231
       6 <- 24         0.00448
       6 <- 29        -0.00020
       6 <- 32        -0.00143
       6 <- 37         0.00170
       6 <- 40        -0.00018
       6 <- 43        -0.00078
       6 <- 46         0.00024
       6 <- 53        -0.00011
       7 <- 11        -0.00221
       7 <- 19        -0.00107
       7 <- 22        -0.00104
       7 <- 24        -0.00188
       7 <- 29         0.00095
       7 <- 32         0.00029
       7 <- 37        -0.00085
       7 <- 43         0.00050
       7 <- 46        -0.00010
       8 <-  9         0.01268
       8 <- 12         0.00685
       8 <- 13        -0.02344
       8 <- 15        -0.00799
       8 <- 18         0.00058
       8 <- 20        -0.00087
       8 <- 21        -0.01701
       8 <- 25        -0.00352
       8 <- 26         0.00038
       8 <- 30         0.00265
       8 <- 31         0.00027
       8 <- 33         0.00111
       8 <- 38        -0.00195
       8 <- 39         0.00065
       8 <- 42         0.00132
       8 <- 44        -0.00124
       8 <- 47         0.00020
       8 <- 49        -0.00037
       8 <- 51         0.00012
 
 Excited State   7:      Singlet-B2     9.5318 eV  130.07 nm  f=0.3902  <S**2>=0.000
       3 -> 16        -0.00145
       3 -> 19         0.00086
       3 -> 22        -0.00192
       3 -> 24         0.00053
       3 -> 29         0.00138
       3 -> 32         0.00118
       3 -> 37        -0.00060
       3 -> 40         0.00077
       3 -> 43        -0.00084
       3 -> 53        -0.00013
       4 ->  9         0.00373
       4 -> 12        -0.00152
       4 -> 13        -0.01103
       4 -> 15        -0.00876
       4 -> 18        -0.00206
       4 -> 20        -0.01013
       4 -> 21        -0.00741
       4 -> 25        -0.00357
       4 -> 26         0.00388
       4 -> 30        -0.00499
       4 -> 31        -0.00203
       4 -> 33        -0.00017
       4 -> 38        -0.00064
       4 -> 39         0.00049
       4 -> 42         0.00012
       4 -> 44         0.00028
       4 -> 51        -0.00027
       5 -> 28        -0.00678
       5 -> 35        -0.00127
       5 -> 45         0.00010
       6 -> 11         0.01913
       6 -> 16        -0.00946
       6 -> 19         0.01042
       6 -> 22         0.00525
       6 -> 24         0.01226
       6 -> 29         0.00053
       6 -> 32        -0.00102
       6 -> 37         0.00275
       6 -> 40         0.00041
       6 -> 43        -0.00137
       6 -> 46         0.00012
       6 -> 50         0.00020
       7 -> 11        -0.02108
       7 -> 16        -0.00552
       7 -> 19        -0.00967
       7 -> 22        -0.00518
       7 -> 24        -0.00166
       7 -> 29         0.00238
       7 -> 32        -0.00052
       7 -> 37        -0.00128
       7 -> 40        -0.00039
       7 -> 43         0.00077
       7 -> 50        -0.00016
       8 ->  9        -0.02659
       8 -> 12        -0.04182
       8 -> 13         0.47325
       8 -> 15         0.51965
       8 -> 18         0.03627
       8 -> 20        -0.00339
       8 -> 21        -0.05746
       8 -> 25        -0.00439
       8 -> 26        -0.00309
       8 -> 30         0.00625
       8 -> 31         0.00402
       8 -> 33         0.00293
       8 -> 38        -0.00200
       8 -> 39         0.00301
       8 -> 42         0.00288
       8 -> 44        -0.00185
       8 -> 47        -0.00019
       8 -> 49        -0.00026
       3 <- 11         0.00022
       3 <- 16        -0.00084
       3 <- 19         0.00076
       3 <- 22        -0.00111
       3 <- 24         0.00020
       3 <- 29         0.00111
       3 <- 32         0.00087
       3 <- 37        -0.00049
       3 <- 40         0.00059
       3 <- 43        -0.00068
       3 <- 53        -0.00012
       4 <-  9         0.00209
       4 <- 12        -0.00103
       4 <- 13        -0.00573
       4 <- 15        -0.00323
       4 <- 18        -0.00138
       4 <- 20        -0.00507
       4 <- 21        -0.00437
       4 <- 25        -0.00226
       4 <- 26         0.00214
       4 <- 30        -0.00340
       4 <- 31        -0.00088
       4 <- 33         0.00038
       4 <- 38        -0.00045
       4 <- 39         0.00018
       4 <- 42         0.00013
       4 <- 51        -0.00013
       5 <- 28        -0.00465
       5 <- 35        -0.00078
       5 <- 45         0.00018
       6 <- 11         0.00445
       6 <- 16        -0.00483
       6 <- 19         0.00229
       6 <- 22         0.00224
       6 <- 24         0.00797
       6 <- 29        -0.00023
       6 <- 37         0.00212
       6 <- 40         0.00021
       6 <- 43        -0.00105
       6 <- 46         0.00013
       7 <- 11        -0.00429
       7 <- 16        -0.00033
       7 <- 19        -0.00275
       7 <- 22        -0.00174
       7 <- 24        -0.00154
       7 <- 29         0.00128
       7 <- 32        -0.00090
       7 <- 37        -0.00088
       7 <- 40        -0.00025
       7 <- 43         0.00059
       8 <-  9         0.02122
       8 <- 12         0.01262
       8 <- 13        -0.03818
       8 <- 15        -0.01055
       8 <- 18         0.00120
       8 <- 20        -0.00456
       8 <- 21        -0.02192
       8 <- 25        -0.00633
       8 <- 26         0.00137
       8 <- 30         0.00315
       8 <- 31         0.00253
       8 <- 33         0.00214
       8 <- 38        -0.00085
       8 <- 39         0.00187
       8 <- 42         0.00220
       8 <- 44        -0.00129
       8 <- 49        -0.00024
 
 Excited State   8:      Singlet-A1     9.5337 eV  130.05 nm  f=0.0057  <S**2>=0.000
       3 ->  9        -0.00015
       3 -> 12         0.00024
       3 -> 13        -0.00085
       3 -> 15         0.00089
       3 -> 18         0.00045
       3 -> 20         0.00056
       3 -> 21        -0.00103
       3 -> 25         0.00086
       3 -> 30        -0.00013
       3 -> 33        -0.00145
       3 -> 39         0.00016
       3 -> 42         0.00046
       3 -> 44         0.00011
       3 -> 47         0.00036
       3 -> 49         0.00044
       3 -> 51         0.00056
       3 -> 54        -0.00035
       4 -> 11         0.00041
       4 -> 16         0.00071
       4 -> 19         0.00106
       4 -> 22         0.00219
       4 -> 24        -0.00068
       4 -> 29        -0.00029
       4 -> 32         0.00081
       4 -> 37         0.00037
       4 -> 40         0.00032
       4 -> 43        -0.00061
       4 -> 46         0.00075
       4 -> 50         0.00069
       4 -> 53         0.00014
       5 -> 10         0.00619
       5 -> 14         0.00171
       5 -> 17         0.00611
       5 -> 23         0.00185
       5 -> 27         0.00417
       5 -> 34         0.00035
       5 -> 36        -0.00043
       5 -> 41         0.00011
       5 -> 48         0.00118
       5 -> 52         0.00048
       6 ->  9        -0.01369
       6 -> 12         0.00132
       6 -> 13        -0.00024
       6 -> 15         0.00189
       6 -> 18         0.00877
       6 -> 20        -0.00673
       6 -> 21        -0.00293
       6 -> 25         0.00117
       6 -> 26         0.00298
       6 -> 30        -0.00145
       6 -> 31         0.00056
       6 -> 33         0.00082
       6 -> 38        -0.00167
       6 -> 44        -0.00070
       6 -> 47         0.00043
       6 -> 51        -0.00072
       7 ->  9        -0.00449
       7 -> 12         0.00535
       7 -> 13         0.00133
       7 -> 15        -0.00991
       7 -> 18         0.00356
       7 -> 20         0.00157
       7 -> 21         0.00389
       7 -> 25         0.00032
       7 -> 26         0.00675
       7 -> 30         0.00183
       7 -> 31         0.00029
[...]
  47        4PZ         0.00339   0.00000   0.00282   0.01080  -0.01637
  48        5S          0.00195   0.00000  -0.02708  -0.03592  -0.00874
  49        5PX         0.00000   0.00000   0.00000   0.00000   0.00000
  50        5PY         0.00000  -0.00000  -0.05443  -0.09078  -0.10633
  51        5PZ        -0.00002  -0.00000   0.00442   0.00646   0.00005
  52        6D 0       -0.00027  -0.00000  -0.00277  -0.00466   0.00107
  53        6D+1       -0.00000   0.00000   0.00000  -0.00000  -0.00000
  54        6D-1       -0.00000   0.00000  -0.00060   0.00152   0.01279
  55        6D+2       -0.00000   0.00000  -0.00026  -0.00041  -0.00002
  56        6D-2        0.00000  -0.00000  -0.00000  -0.00000   0.00000
                          26        27        28        29        30
  26        4PX         0.00009
  27        4PY        -0.00000   0.00167
  28        4PZ         0.00000  -0.00077   0.00063
  29 3   H  1S          0.00000  -0.00500  -0.00017   0.08746
  30        2S          0.00000  -0.00716  -0.00033   0.13271   0.20517
  31        3S          0.00000  -0.00309   0.00029   0.10936   0.18087
  32        4PX         0.00009   0.00000   0.00000  -0.00000  -0.00000
  33        4PY         0.00000  -0.00082  -0.00013   0.00618   0.00789
  34        4PZ        -0.00000   0.00013  -0.00039   0.00383   0.00499
  35 4   O  1S          0.00000  -0.00177  -0.00052   0.00509   0.00879
  36        2S          0.00000  -0.00340  -0.00043   0.00903   0.01542
  37        2PX         0.00356   0.00000  -0.00000  -0.00000  -0.00000
  38        2PY         0.00000  -0.00833   0.00784   0.02765   0.05769
  39        2PZ         0.00000  -0.00803  -0.00002   0.00773   0.01994
  40        3S         -0.00000   0.01095  -0.00026  -0.02894  -0.04751
  41        3PX         0.00487   0.00000  -0.00000  -0.00000  -0.00000
  42        3PY         0.00000  -0.01138   0.01051   0.04588   0.09219
  43        3PZ         0.00000  -0.00941  -0.00017   0.00689   0.02112
  44        4S         -0.00000   0.00913  -0.00157  -0.04353  -0.05930
  45        4PX         0.00242   0.00000  -0.00000  -0.00000  -0.00000
  46        4PY         0.00000  -0.00652   0.00487   0.07368   0.13118
  47        4PZ         0.00000  -0.00536  -0.00011   0.00282   0.01080
  48        5S         -0.00000   0.00550  -0.00142  -0.02708  -0.03592
  49        5PX        -0.00024   0.00000   0.00000  -0.00000  -0.00000
  50        5PY         0.00000  -0.00056  -0.00076   0.05443   0.09078
  51        5PZ         0.00000  -0.00130   0.00021   0.00442   0.00646
  52        6D 0       -0.00000   0.00121  -0.00011  -0.00277  -0.00466
  53        6D+1       -0.00081  -0.00000   0.00000  -0.00000   0.00000
  54        6D-1       -0.00000   0.00174  -0.00179   0.00060  -0.00152
  55        6D+2       -0.00000   0.00009  -0.00001  -0.00026  -0.00041
  56        6D-2       -0.00000   0.00000  -0.00000  -0.00000  -0.00000
                          31        32        33        34        35
  31        3S          0.21368
  32        4PX         0.00000   0.00009
  33        4PY        -0.00153  -0.00000   0.00167
  34        4PZ         0.00057  -0.00000   0.00077   0.00063
  35 4   O  1S          0.00355  -0.00000   0.00177  -0.00052   0.64194
  36        2S          0.00487  -0.00000   0.00340  -0.00043   0.57558
  37        2PX        -0.00000   0.00356   0.00000   0.00000   0.00000
  38        2PY         0.11829   0.00000  -0.00833  -0.00784  -0.00000
  39        2PZ        -0.01909  -0.00000   0.00803  -0.00002   0.01052
  40        3S         -0.01127   0.00000  -0.01095  -0.00026  -0.11466
  41        3PX        -0.00000   0.00487   0.00000   0.00000   0.00000
  42        3PY         0.17673   0.00000  -0.01138  -0.01051  -0.00000
  43        3PZ        -0.02469  -0.00000   0.00941  -0.00017   0.00234
  44        4S         -0.02684   0.00000  -0.00913  -0.00157  -0.10729
  45        4PX        -0.00000   0.00242   0.00000   0.00000   0.00000
  46        4PY         0.19001   0.00000  -0.00652  -0.00487   0.00000
  47        4PZ        -0.01637  -0.00000   0.00536  -0.00011  -0.01138
  48        5S         -0.00874   0.00000  -0.00550  -0.00142  -0.02031
  49        5PX        -0.00000  -0.00024   0.00000  -0.00000   0.00000
  50        5PY         0.10633   0.00000  -0.00056   0.00076  -0.00000
  51        5PZ         0.00005  -0.00000   0.00130   0.00021   0.00433
  52        6D 0        0.00107   0.00000  -0.00121  -0.00011  -0.00075
  53        6D+1        0.00000  -0.00081  -0.00000  -0.00000   0.00000
  54        6D-1       -0.01279  -0.00000   0.00174   0.00179   0.00000
  55        6D+2       -0.00002   0.00000  -0.00009  -0.00001  -0.00042
  56        6D-2        0.00000   0.00000  -0.00000  -0.00000  -0.00000
                          36        37        38        39        40
  36        2S          0.53650
  37        2PX         0.00000   0.14687
  38        2PY        -0.00000  -0.00000   0.18947
  39        2PZ         0.02016   0.00000   0.00000   0.25955
  40        3S         -0.21945   0.00000   0.00000  -0.05859   0.68741
  41        3PX         0.00000   0.20071  -0.00000   0.00000   0.00000
  42        3PY        -0.00000  -0.00000   0.26437  -0.00000   0.00000
  43        3PZ         0.01286   0.00000   0.00000   0.32384  -0.05604
  44        4S         -0.19879   0.00000   0.00000   0.09881   0.61038
  45        4PX         0.00000   0.09973  -0.00000   0.00000   0.00000
  46        4PY         0.00000  -0.00000   0.18448  -0.00000  -0.00000
  47        4PZ        -0.01008   0.00000   0.00000   0.20289   0.00505
  48        5S         -0.04221   0.00000   0.00000   0.00527   0.14304
  49        5PX         0.00000  -0.00970  -0.00000   0.00000   0.00000
  50        5PY        -0.00000  -0.00000   0.04918  -0.00000   0.00000
  51        5PZ         0.00778   0.00000   0.00000   0.01564  -0.02306
  52        6D 0       -0.00409  -0.00000  -0.00000  -0.02321   0.01925
  53        6D+1        0.00000  -0.03352   0.00000   0.00000  -0.00000
  54        6D-1        0.00000   0.00000  -0.03518   0.00000  -0.00000
  55        6D+2       -0.00089  -0.00000  -0.00000  -0.00097   0.00299
  56        6D-2       -0.00000   0.00000   0.00000   0.00000   0.00000
                          41        42        43        44        45
  41        3PX         0.27431
  42        3PY         0.00000   0.36988
  43        3PZ         0.00000   0.00000   0.40480
  44        4S          0.00000   0.00000   0.14086   0.64664
  45        4PX         0.13630  -0.00000   0.00000   0.00000   0.06772
  46        4PY        -0.00000   0.26381  -0.00000  -0.00000  -0.00000
  47        4PZ         0.00000   0.00000   0.25473   0.12590   0.00000
  48        5S          0.00000   0.00000   0.01173   0.15289   0.00000
  49        5PX        -0.01326  -0.00000   0.00000   0.00000  -0.00659
  50        5PY        -0.00000   0.07509  -0.00000   0.00000  -0.00000
  51        5PZ         0.00000   0.00000   0.01878  -0.01468   0.00000
  52        6D 0       -0.00000  -0.00000  -0.02843   0.00538  -0.00000
  53        6D+1       -0.04581   0.00000   0.00000  -0.00000  -0.02276
  54        6D-1        0.00000  -0.04830   0.00000  -0.00000   0.00000
  55        6D+2       -0.00000  -0.00000  -0.00113   0.00232  -0.00000
  56        6D-2        0.00000   0.00000   0.00000   0.00000   0.00000
                          46        47        48        49        50
  46        4PY         0.22067
  47        4PZ         0.00000   0.16276
  48        5S          0.00000   0.01582   0.04690
  49        5PX        -0.00000   0.00000   0.00000   0.00064
  50        5PY         0.08936  -0.00000   0.00000  -0.00000   0.05468
  51        5PZ         0.00000   0.01062  -0.00621   0.00000   0.00000
  52        6D 0       -0.00000  -0.01697   0.00369  -0.00000  -0.00000
  53        6D+1        0.00000   0.00000  -0.00000   0.00221   0.00000
  54        6D-1       -0.02923   0.00000  -0.00000   0.00000  -0.00405
  55        6D+2       -0.00000  -0.00054   0.00066  -0.00000  -0.00000
  56        6D-2        0.00000   0.00000   0.00000  -0.00000   0.00000
                          51        52        53        54        55
  51        5PZ         0.00186
  52        6D 0       -0.00197   0.00258
  53        6D+1        0.00000   0.00000   0.00765
  54        6D-1        0.00000   0.00000   0.00000   0.00715
  55        6D+2       -0.00015   0.00016  -0.00000   0.00000   0.00002
  56        6D-2       -0.00000   0.00000  -0.00000   0.00000   0.00000
                          56
  56        6D-2        0.00000
          Condensed to atoms (all electrons):
               1          2          3          4
     1  C    4.799042   0.539292   0.539292  -0.191336
     2  H    0.539292   1.063313  -0.242141  -0.263019
     3  H    0.539292  -0.242141   1.063313  -0.263019
     4  O   -0.191336  -0.263019  -0.263019   8.836198
 Mulliken charges:
               1
     1  C    0.313711
     2  H   -0.097444
     3  H   -0.097444
     4  O   -0.118823
 Sum of Mulliken charges =   0.00000
 Mulliken charges with hydrogens summed into heavy atoms:
               1
     1  C    0.118823
     4  O   -0.118823
 Electronic spatial extent (au):  <R**2>=             45.6878
 Charge=              0.0000 electrons
 Dipole moment (field-independent basis, Debye):
    X=              0.0000    Y=             -0.0000    Z=              1.1214  Tot=              1.1214
 Quadrupole moment (field-independent basis, Debye-Ang):
   XX=            -10.2270   YY=            -13.6241   ZZ=            -13.6340
   XY=             -0.0000   XZ=             -0.0000   YZ=             -0.0000
 Traceless Quadrupole moment (field-independent basis, Debye-Ang):
   XX=              2.2680   YY=             -1.1291   ZZ=             -1.1389
   XY=             -0.0000   XZ=             -0.0000   YZ=             -0.0000
 Octapole moment (field-independent basis, Debye-Ang**2):
  XXX=              0.0000  YYY=              0.0000  ZZZ=              6.2618  XYY=              0.0000
  XXY=             -0.0000  XXZ=              1.9319  XZZ=              0.0000  YZZ=              0.0000
  YYZ=              5.0955  XYZ=              0.0000
 Hexadecapole moment (field-independent basis, Debye-Ang**3):
 XXXX=             -8.7613 YYYY=            -33.9677 ZZZZ=            -33.3738 XXXY=             -0.0000
 XXXZ=             -0.0000 YYYX=             -0.0000 YYYZ=             -0.0000 ZZZX=             -0.0000
 ZZZY=              0.0000 XXYY=             -6.8172 XXZZ=             -6.7258 YYZZ=            -13.2653
 XXYZ=              0.0000 YYXZ=             -0.0000 ZZXY=             -0.0000
 N-N= 4.901687642839D+01 E-N=-3.680489574165D+02  KE= 1.209426394089D+02
 Symmetry A1   KE= 1.086802909600D+02
 Symmetry A2   KE= 1.444897433732D-35
 Symmetry B1   KE= 5.011001073417D+00
 Symmetry B2   KE= 7.251347375483D+00
 Leave Link  601 at Fri Sep 17 10:52:24 2021, MaxMem=   268435456 cpu:               0.0 elap:               0.0
 (Enter /software/gaussian/g16-a03/l9999.exe)
 Electronic transition elements 
                 1             2             3             4             5 
      1  -0.112587D+03 -0.112575D+03 -0.112553D+03 -0.112547D+03 -0.112467D+03
      2   0.000000D+00  0.000000D+00  0.000000D+00  0.000000D+00  0.000000D+00
      3   0.102290D+01  0.000000D+00  0.488621D+00  0.000000D+00  0.000000D+00
      4   0.000000D+00  0.000000D+00  0.000000D+00  0.252313D+00  0.000000D+00
      5   0.000000D+00  0.000000D+00  0.000000D+00  0.000000D+00  0.000000D+00
      6  -0.172005D+00  0.000000D+00 -0.100307D+00  0.000000D+00  0.000000D+00
      7   0.000000D+00  0.000000D+00  0.000000D+00 -0.541621D-01  0.000000D+00
      8  -0.433806D+00  0.000000D+00  0.788966D+00  0.000000D+00  0.000000D+00
      9   0.000000D+00  0.000000D+00  0.000000D+00  0.000000D+00  0.000000D+00
     10   0.000000D+00 -0.941316D+00  0.000000D+00  0.000000D+00  0.867479D+00
     11   0.000000D+00  0.000000D+00  0.000000D+00  0.279621D+00  0.000000D+00
     12   0.000000D+00  0.000000D+00  0.000000D+00  0.801484D+00  0.000000D+00
     13   0.000000D+00  0.000000D+00  0.000000D+00  0.114767D+00  0.000000D+00
     14   0.000000D+00  0.347925D+00  0.000000D+00  0.000000D+00 -0.851831D-01
     15   0.000000D+00  0.000000D+00  0.000000D+00  0.000000D+00  0.000000D+00
     16   0.374189D+00  0.000000D+00  0.446172D+00  0.000000D+00  0.000000D+00
                 6             7             8             9            10 
      1  -0.112434D+03 -0.112415D+03 -0.112415D+03 -0.112391D+03 -0.112366D+03
      2   0.000000D+00  0.000000D+00  0.000000D+00  0.000000D+00  0.000000D+00
      3  -0.641499D+00 -0.129262D+01  0.000000D+00  0.000000D+00  0.415305D+00
      4   0.000000D+00  0.000000D+00 -0.155949D+00  0.000000D+00  0.000000D+00
      5   0.000000D+00  0.000000D+00  0.000000D+00  0.000000D+00  0.000000D+00
      6   0.230760D+00  0.427793D+00  0.000000D+00  0.000000D+00 -0.157641D+00
      7   0.000000D+00  0.000000D+00  0.478736D-01  0.000000D+00  0.000000D+00
      8  -0.183779D+00  0.121374D+01  0.000000D+00  0.000000D+00  0.605059D-01
      9   0.000000D+00  0.000000D+00  0.000000D+00  0.000000D+00  0.000000D+00
     10   0.000000D+00  0.000000D+00  0.000000D+00 -0.514700D+00  0.000000D+00
     11   0.000000D+00  0.000000D+00 -0.241296D+00  0.000000D+00  0.000000D+00
     12   0.000000D+00  0.000000D+00 -0.624871D+00  0.000000D+00  0.000000D+00
     13   0.000000D+00  0.000000D+00 -0.567041D+00  0.000000D+00  0.000000D+00
     14   0.000000D+00  0.000000D+00  0.000000D+00 -0.157829D+00  0.000000D+00
     15   0.000000D+00  0.000000D+00  0.000000D+00  0.000000D+00  0.000000D+00
     16  -0.774827D+00 -0.653944D+00  0.000000D+00  0.000000D+00  0.110817D+00
                11            12            13            14            15 
      1  -0.112314D+03 -0.112251D+03 -0.112250D+03 -0.112234D+03 -0.112212D+03
      2   0.000000D+00  0.000000D+00  0.000000D+00  0.798850D-01  0.000000D+00
      3   0.000000D+00 -0.194875D+00  0.000000D+00  0.000000D+00 -0.307126D+00
      4   0.935466D+00  0.000000D+00  0.273428D+00  0.000000D+00  0.000000D+00
      5   0.000000D+00  0.000000D+00  0.000000D+00 -0.536951D-01  0.000000D+00
      6   0.000000D+00  0.660467D-01  0.000000D+00  0.000000D+00  0.166591D+00
      7  -0.408393D+00  0.000000D+00 -0.137733D+00  0.000000D+00  0.000000D+00
      8   0.000000D+00  0.147926D+01  0.000000D+00  0.000000D+00 -0.286091D+00
      9   0.000000D+00  0.000000D+00  0.000000D+00  0.544367D-01  0.000000D+00
     10   0.000000D+00  0.000000D+00  0.000000D+00  0.000000D+00  0.000000D+00
     11   0.164227D-01  0.000000D+00 -0.447275D-01  0.000000D+00  0.000000D+00
     12   0.101503D+01  0.000000D+00  0.454709D-02  0.000000D+00  0.000000D+00
     13   0.875531D+00  0.000000D+00 -0.256325D+00  0.000000D+00  0.000000D+00
     14   0.000000D+00  0.000000D+00  0.000000D+00  0.000000D+00  0.000000D+00
     15   0.000000D+00  0.000000D+00  0.000000D+00  0.275318D+00  0.000000D+00
     16   0.000000D+00 -0.202062D+00  0.000000D+00  0.000000D+00  0.256494D+00
                16            17            18            19            20 
      1  -0.112208D+03 -0.112200D+03 -0.112196D+03 -0.112174D+03 -0.112174D+03
      2   0.000000D+00  0.000000D+00 -0.543329D+00  0.000000D+00  0.000000D+00
      3   0.000000D+00  0.000000D+00  0.000000D+00 -0.154320D+00  0.000000D+00
      4  -0.608122D-01 -0.137460D+00  0.000000D+00  0.000000D+00 -0.561899D+00
      5   0.000000D+00  0.000000D+00  0.297213D+00  0.000000D+00  0.000000D+00
      6   0.000000D+00  0.000000D+00  0.000000D+00  0.970851D-01  0.000000D+00
      7   0.393808D-01  0.718996D-01  0.000000D+00  0.000000D+00  0.325534D+00
      8   0.000000D+00  0.000000D+00  0.000000D+00 -0.170609D+00  0.000000D+00
      9   0.000000D+00  0.000000D+00 -0.553223D+00  0.000000D+00  0.000000D+00
     10   0.000000D+00  0.000000D+00  0.000000D+00  0.000000D+00  0.000000D+00
     11  -0.120555D+00 -0.484210D+00  0.000000D+00  0.000000D+00 -0.126161D+00
     12  -0.258032D+00 -0.806223D+00  0.000000D+00  0.000000D+00 -0.213177D+00
     13   0.321957D+00 -0.847042D+00  0.000000D+00  0.000000D+00 -0.914044D+00
     14   0.000000D+00  0.000000D+00  0.000000D+00  0.000000D+00  0.000000D+00
     15   0.000000D+00  0.000000D+00 -0.515749D+00  0.000000D+00  0.000000D+00
     16   0.000000D+00  0.000000D+00  0.000000D+00  0.121689D+00  0.000000D+00
                21            22            23            24            25 
      1  -0.112122D+03 -0.112121D+03 -0.112092D+03 -0.112084D+03 -0.112081D+03
      2  -0.580528D+00  0.000000D+00  0.000000D+00  0.000000D+00  0.359585D+00
      3   0.000000D+00  0.000000D+00  0.000000D+00 -0.323907D+00  0.000000D+00
      4   0.000000D+00 -0.205625D+00  0.421123D+00  0.000000D+00  0.000000D+00
      5   0.380633D+00  0.000000D+00  0.000000D+00  0.000000D+00 -0.258343D+00
      6   0.000000D+00  0.000000D+00  0.000000D+00  0.223160D+00  0.000000D+00
      7   0.000000D+00  0.132126D+00 -0.283062D+00  0.000000D+00  0.000000D+00
      8   0.000000D+00  0.000000D+00  0.000000D+00 -0.325775D+00  0.000000D+00
      9   0.811398D+00  0.000000D+00  0.000000D+00  0.000000D+00  0.677616D+00
     10   0.000000D+00  0.000000D+00  0.000000D+00  0.000000D+00  0.000000D+00
     11   0.000000D+00 -0.895498D-02 -0.936316D-01  0.000000D+00  0.000000D+00
     12   0.000000D+00 -0.387710D+00  0.141498D+00  0.000000D+00  0.000000D+00
     13   0.000000D+00  0.981324D-01 -0.804232D+00  0.000000D+00  0.000000D+00
     14   0.000000D+00  0.000000D+00  0.000000D+00  0.000000D+00  0.000000D+00
     15   0.593762D+00  0.000000D+00  0.000000D+00  0.000000D+00  0.610672D+00
     16   0.000000D+00  0.000000D+00  0.000000D+00  0.475204D+00  0.000000D+00
                26            27            28            29            30 
      1  -0.112076D+03 -0.112060D+03 -0.112054D+03 -0.112044D+03 -0.112044D+03
      2   0.000000D+00  0.000000D+00  0.622698D-01  0.000000D+00  0.138449D+00
      3   0.000000D+00 -0.208654D+00  0.000000D+00  0.000000D+00  0.000000D+00
      4   0.133253D+00  0.000000D+00  0.000000D+00  0.000000D+00  0.000000D+00
      5   0.000000D+00  0.000000D+00 -0.447261D-01  0.000000D+00 -0.107958D+00
      6   0.000000D+00  0.172620D+00  0.000000D+00  0.000000D+00  0.000000D+00
      7  -0.103532D+00  0.000000D+00  0.000000D+00  0.000000D+00  0.000000D+00
      8   0.000000D+00  0.129623D+00  0.000000D+00  0.000000D+00  0.000000D+00
      9   0.000000D+00  0.000000D+00  0.155585D-01  0.000000D+00  0.694297D-01
     10   0.000000D+00  0.000000D+00  0.000000D+00 -0.478899D-01  0.000000D+00
     11  -0.572597D+00  0.000000D+00  0.000000D+00  0.000000D+00  0.000000D+00
     12   0.114035D+01  0.000000D+00  0.000000D+00  0.000000D+00  0.000000D+00
     13   0.670974D+00  0.000000D+00  0.000000D+00  0.000000D+00  0.000000D+00
     14   0.000000D+00  0.000000D+00  0.000000D+00  0.145358D+00  0.000000D+00
     15   0.000000D+00  0.000000D+00  0.332076D+00  0.000000D+00 -0.160994D+00
     16   0.000000D+00 -0.559094D+00  0.000000D+00  0.000000D+00  0.000000D+00

 Test job not archived.
 1\1\GINC-BHD0003\SP\RB3LYP TD-FC\6-311+G(d,p)\C1H2O1\BWEIGHT\17-Sep-20
 21\0\\#p B3LYP/6-311+G** #p TD=(singlets,nstates=30)IOp(6/8=3) IOp(9/4
 0=4)\\Scan Step 35, Bond Length 0.675\\0,1\C,0,0.,0.,-0.52736\H,0,0.,0
 .93726,-1.11871\H,0,0.,-0.93726,-1.11871\O,0,0.,0.,0.14764\\Version=ES
 64L-G16RevA.03\State=1-A1\HF=-112.7651048\RMSD=2.669e-09\PG=C02V [C2(C
 1O1),SGV(H2)]\\@


 AS FAR AS THE LAWS OF MATHEMATICS REFER TO REALITY,
 THEY ARE NOT CERTAIN; AND AS FAR AS THEY ARE CERTAIN,
 THEY DO NOT REFER TO REALITY.

                                         -- ALBERT EINSTEIN
 Job cpu time:       0 days  0 hours  0 minutes 29.4 seconds.
 Elapsed time:       0 days  0 hours  0 minutes 29.9 seconds.
 File lengths (MBytes):  RWF=     79 Int=      0 D2E=      0 Chk=     32 Scr=      1
 Normal termination of Gaussian 16 at Fri Sep 17 10:52:24 2021.
