 Entering Gaussian System, Link 0=g16
 Initial command:
 /software/gaussian/g16-c01/sse4/g16/l1.exe "/local_scratch/24665274/Gau-10410.inp" -scrdir="/local_scratch/24665274/"
 Entering Link 1 = /software/gaussian/g16-c01/sse4/g16/l1.exe PID=     10420.
  
 Copyright (c) 1988-2019, Gaussian, Inc.  All Rights Reserved.
  
 This is part of the Gaussian(R) 16 program.  It is based on
 the Gaussian(R) 09 system (copyright 2009, Gaussian, Inc.),
 the Gaussian(R) 03 system (copyright 2003, Gaussian, Inc.),
 the Gaussian(R) 98 system (copyright 1998, Gaussian, Inc.),
 the Gaussian(R) 94 system (copyright 1995, Gaussian, Inc.),
 the Gaussian 92(TM) system (copyright 1992, Gaussian, Inc.),
 the Gaussian 90(TM) system (copyright 1990, Gaussian, Inc.),
 the Gaussian 88(TM) system (copyright 1988, Gaussian, Inc.),
 the Gaussian 86(TM) system (copyright 1986, Carnegie Mellon
 University), and the Gaussian 82(TM) system (copyright 1983,
 Carnegie Mellon University). Gaussian is a federally registered
 trademark of Gaussian, Inc.
  
 This software contains proprietary and confidential information,
 including trade secrets, belonging to Gaussian, Inc.
  
 This software is provided under written license and may be
 used, copied, transmitted, or stored only in accord with that
 written license.
  
 The following legend is applicable only to US Government
 contracts under FAR:
  
                    RESTRICTED RIGHTS LEGEND
  
 Use, reproduction and disclosure by the US Government is
 subject to restrictions as set forth in subparagraphs (a)
 and (c) of the Commercial Computer Software - Restricted
 Rights clause in FAR 52.227-19.
  
 Gaussian, Inc.
 340 Quinnipiac St., Bldg. 40, Wallingford CT 06492
  
  
 ---------------------------------------------------------------
 Warning -- This program may not be used in any manner that
 competes with the business of Gaussian, Inc. or will provide
 assistance to any competitor of Gaussian, Inc.  The licensee
 of this program is prohibited from giving any competitor of
 Gaussian, Inc. access to this program.  By using this program,
 the user acknowledges that Gaussian, Inc. is engaged in the
 business of creating and licensing software in the field of
 computational chemistry and represents and warrants to the
 licensee that it is not a competitor of Gaussian, Inc. and that
 it will not use this program in any manner prohibited above.
 ---------------------------------------------------------------
  

 Cite this work as:
 Gaussian 16, Revision C.01,
 M. J. Frisch, G. W. Trucks, H. B. Schlegel, G. E. Scuseria, 
 M. A. Robb, J. R. Cheeseman, G. Scalmani, V. Barone, 
 G. A. Petersson, H. Nakatsuji, X. Li, M. Caricato, A. V. Marenich, 
 J. Bloino, B. G. Janesko, R. Gomperts, B. Mennucci, H. P. Hratchian, 
 J. V. Ortiz, A. F. Izmaylov, J. L. Sonnenberg, D. Williams-Young, 
 F. Ding, F. Lipparini, F. Egidi, J. Goings, B. Peng, A. Petrone, 
 T. Henderson, D. Ranasinghe, V. G. Zakrzewski, J. Gao, N. Rega, 
 G. Zheng, W. Liang, M. Hada, M. Ehara, K. Toyota, R. Fukuda, 
 J. Hasegawa, M. Ishida, T. Nakajima, Y. Honda, O. Kitao, H. Nakai, 
 T. Vreven, K. Throssell, J. A. Montgomery, Jr., J. E. Peralta, 
 F. Ogliaro, M. J. Bearpark, J. J. Heyd, E. N. Brothers, K. N. Kudin, 
 V. N. Staroverov, T. A. Keith, R. Kobayashi, J. Normand, 
 K. Raghavachari, A. P. Rendell, J. C. Burant, S. S. Iyengar, 
 J. Tomasi, M. Cossi, J. M. Millam, M. Klene, C. Adamo, R. Cammi, 
 J. W. Ochterski, R. L. Martin, K. Morokuma, O. Farkas, 
 J. B. Foresman, and D. J. Fox, Gaussian, Inc., Wallingford CT, 2019.
 
 ******************************************
 Gaussian 16:  ES64L-G16RevC.01  3-Jul-2019
                 2-May-2024 
 ******************************************
 %chk=geometry.chk
 %mem=1GB
 %nprocshared=12
 Will use up to   12 processors via shared memory.
 ----------------------------------------
 #P wB97XD/6-311+G* NoSymm #P Field=X+107
 ----------------------------------------
 1/38=1,172=1/1;
 2/12=2,15=1,17=6,18=5,40=1/2;
 3/5=4,6=6,7=11,11=2,14=1,15=107,25=1,30=1,74=-58/1,2,3;
 4//1;
 5/5=2,38=5/2;
 6/7=2,8=2,9=2,10=2,28=1/1;
 99/5=1,9=1/99;
 Leave Link    1 at Thu May  2 13:57:33 2024, MaxMem=   134217728 cpu:               1.5 elap:               1.5
 (Enter /software/gaussian/g16-c01/sse4/g16/l101.exe)
 -------
 TitleMe
 -------
 Symbolic Z-matrix:
 Charge =  1 Multiplicity = 1
 C                     0.5193    1.233    -0.0319 
 C                     1.9445    1.2692   -0.0367 
 C                     2.6204    0.0928   -0.025 
 C                    -0.196     0.0301    0.001 
 H                    -0.0207    2.1742   -0.0434 
 H                     2.4828    2.2089   -0.0361 
 H                    -1.2777    0.0399    0.0117 
 N                     4.0921    0.0959    0.0366 
 O                     4.6393   -1.0217    0.1446 
 O                     4.6649    1.1984   -0.0233 
 C                     0.4943   -1.1671    0.021 
 H                    -0.0325   -2.1149    0.0545 
 C                     1.9629   -1.2165   -0.0211 
 H                     2.4436   -1.9631    0.6151 
 Br                    2.173    -1.9491   -1.9062 
 
 ITRead=  0  0  0  0  0  0  0  0  0  0  0  0  0  0  0
 MicOpt= -1 -1 -1 -1 -1 -1 -1 -1 -1 -1 -1 -1 -1 -1 -1
 NAtoms=     15 NQM=       15 NQMF=       0 NMMI=      0 NMMIF=      0
                NMic=       0 NMicF=      0.
                    Isotopes and Nuclear Properties:
 (Nuclear quadrupole moments (NQMom) in fm**2, nuclear magnetic moments (NMagM)
  in nuclear magnetons)

  Atom         1           2           3           4           5           6           7           8           9          10
 IAtWgt=          12          12          12          12           1           1           1          14          16          16
 AtmWgt=  12.0000000  12.0000000  12.0000000  12.0000000   1.0078250   1.0078250   1.0078250  14.0030740  15.9949146  15.9949146
 NucSpn=           0           0           0           0           1           1           1           2           0           0
 AtZEff=  -0.0000000  -0.0000000  -0.0000000  -0.0000000  -0.0000000  -0.0000000  -0.0000000  -0.0000000  -0.0000000  -0.0000000
 NQMom=    0.0000000   0.0000000   0.0000000   0.0000000   0.0000000   0.0000000   0.0000000   2.0440000   0.0000000   0.0000000
 NMagM=    0.0000000   0.0000000   0.0000000   0.0000000   2.7928460   2.7928460   2.7928460   0.4037610   0.0000000   0.0000000
 AtZNuc=   6.0000000   6.0000000   6.0000000   6.0000000   1.0000000   1.0000000   1.0000000   7.0000000   8.0000000   8.0000000

  Atom        11          12          13          14          15
 IAtWgt=          12           1          12           1          79
 AtmWgt=  12.0000000   1.0078250  12.0000000   1.0078250  78.9183361
 NucSpn=           0           1           0           1           3
 AtZEff=  -0.0000000  -0.0000000  -0.0000000  -0.0000000  -0.0000000
 NQMom=    0.0000000   0.0000000   0.0000000   0.0000000  31.3000000
 NMagM=    0.0000000   2.7928460   0.0000000   2.7928460   2.1063990
 AtZNuc=   6.0000000   1.0000000   6.0000000   1.0000000  35.0000000
 Leave Link  101 at Thu May  2 13:57:35 2024, MaxMem=   134217728 cpu:               1.7 elap:               1.7
 (Enter /software/gaussian/g16-c01/sse4/g16/l202.exe)
                          Input orientation:                          
 ---------------------------------------------------------------------
 Center     Atomic      Atomic             Coordinates (Angstroms)
 Number     Number       Type             X           Y           Z
 ---------------------------------------------------------------------
      1          6           0        0.519300    1.233000   -0.031900
      2          6           0        1.944500    1.269200   -0.036700
      3          6           0        2.620400    0.092800   -0.025000
      4          6           0       -0.196000    0.030100    0.001000
      5          1           0       -0.020700    2.174200   -0.043400
      6          1           0        2.482800    2.208900   -0.036100
      7          1           0       -1.277700    0.039900    0.011700
      8          7           0        4.092100    0.095900    0.036600
      9          8           0        4.639300   -1.021700    0.144600
     10          8           0        4.664900    1.198400   -0.023300
     11          6           0        0.494300   -1.167100    0.021000
     12          1           0       -0.032500   -2.114900    0.054500
     13          6           0        1.962900   -1.216500   -0.021100
     14          1           0        2.443600   -1.963100    0.615100
     15         35           0        2.173000   -1.949100   -1.906200
 ---------------------------------------------------------------------
                    Distance matrix (angstroms):
                    1          2          3          4          5
     1  C    0.000000
     2  C    1.425668   0.000000
     3  C    2.390549   1.356796   0.000000
     4  C    1.399895   2.473566   2.817218   0.000000
     5  H    1.085168   2.163581   3.362733   2.151712   0.000000
     6  H    2.192654   1.082960   2.120598   3.453189   2.503751
     7  H    2.157452   3.449071   3.898632   1.081797   2.477564
     8  N    3.750012   2.448304   1.472992   4.288753   4.608780
     9  O    4.699917   3.541615   2.312322   4.950458   5.653735
    10  O    4.145753   2.721354   2.324292   4.999386   4.786171
    11  C    2.400813   2.835836   2.471794   1.382101   3.381369
    12  H    3.394169   3.920329   3.452266   2.151887   4.290233
    13  C    2.843264   2.485817   1.465124   2.493060   3.928360
    14  H    3.786370   3.334922   2.160489   3.364142   4.860416
    15  Br   4.046416   3.728900   2.812194   3.628609   5.028314
                    6          7          8          9         10
     6  H    0.000000
     7  H    4.341452   0.000000
     8  N    2.657047   5.370150   0.000000
     9  O    3.888434   6.012948   1.249048   0.000000
    10  O    2.404752   6.054572   1.243863   2.226587   0.000000
    11  C    3.918516   2.144043   3.813080   4.149391   4.794941
    12  H    5.003018   2.489080   4.679774   4.798846   5.748876
    13  C    3.464662   3.475788   2.501842   2.688591   3.623886
    14  H    4.222698   4.268978   2.700314   2.434893   3.916224
    15  Br   4.569706   4.420610   3.411663   3.338935   4.434144
                   11         12         13         14         15
    11  C    0.000000
    12  H    1.084880   0.000000
    13  C    1.470034   2.189625   0.000000
    14  H    2.187771   2.543302   1.092353   0.000000
    15  Br   2.672762   2.955683   2.033334   2.535818   0.000000
 Symmetry turned off by external request.
 Stoichiometry    C6H5BrNO2(1+)
 Framework group  C1[X(C6H5BrNO2)]
 Deg. of freedom    39
 Full point group                 C1      NOp   1
 Rotational constants (GHZ):           1.1632986           0.9594224           0.5957624
 Leave Link  202 at Thu May  2 13:57:37 2024, MaxMem=   134217728 cpu:               1.3 elap:               1.3
 (Enter /software/gaussian/g16-c01/sse4/g16/l301.exe)
 Standard basis: 6-311+G(d) (5D, 7F)
 Ernie: Thresh=  0.10000D-02 Tol=  0.10000D-05 Strict=F.
 The following finite field(s) will be applied:
 An electric field of              0.0107  0.0000  0.0000
   261 basis functions,   443 primitive gaussians,   273 cartesian basis functions
    49 alpha electrons       49 beta electrons
       nuclear repulsion energy       772.8945969580 Hartrees.
 IExCor= 4639 DFT=T Ex+Corr=wB97XD ExCW=0 ScaHFX=  1.000000
 ScaDFX=  1.000000  1.000000  1.000000  1.000000 ScalE2=  1.000000  1.000000
 IRadAn=      5 IRanWt=     -1 IRanGd=            0 ICorTp=0 IEmpDi=121
 HFx  wShort=  0.000000 wLong=  0.200000 cFull=  0.222036 cShort=  0.000000 cLong=  0.777964
 DFx  wShort=  0.000000 wLong=  0.200000 cFull=  0.000000 cShort=  0.000000 cLong=  1.000000
 NAtoms=   15 NActive=   15 NUniq=   15 SFac= 1.00D+00 NAtFMM=   60 NAOKFM=F Big=F
 Integral buffers will be    131072 words long.
 Raffenetti 2 integral format.
 Two-electron integral symmetry is turned off.
 R6Disp:  Grimme-D2 Dispersion energy=       -0.0080346408 Hartrees.
 Nuclear repulsion after empirical dispersion term =      772.8865623173 Hartrees.
 Leave Link  301 at Thu May  2 13:57:38 2024, MaxMem=   134217728 cpu:               1.1 elap:               1.1
 (Enter /software/gaussian/g16-c01/sse4/g16/l302.exe)
 NPDir=0 NMtPBC=     1 NCelOv=     1 NCel=       1 NClECP=     1 NCelD=      1
         NCelK=      1 NCelE2=     1 NClLst=     1 CellRange=     0.0.
 One-electron integrals computed using PRISM.
 NBasis=   261 RedAO= T EigKep=  2.52D-06  NBF=   261
 NBsUse=   261 1.00D-06 EigRej= -1.00D+00 NBFU=   261
 Precomputing XC quadrature grid using
 IXCGrd= 4 IRadAn=           5 IRanWt=          -1 IRanGd=           0 AccXCQ= 0.00D+00.
 Generated NRdTot=       0 NPtTot=           0 NUsed=           0 NTot=          32
 NSgBfM=   273   273   273   273   273 MxSgAt=    15 MxSgA2=    15.
 Leave Link  302 at Thu May  2 13:58:00 2024, MaxMem=   134217728 cpu:              22.1 elap:              22.1
 (Enter /software/gaussian/g16-c01/sse4/g16/l303.exe)
 DipDrv:  MaxL=1.
 The nuclear repulsion energy is now       777.4724983514 hartrees.
 Leave Link  303 at Thu May  2 13:58:04 2024, MaxMem=   134217728 cpu:               3.3 elap:               3.3
 (Enter /software/gaussian/g16-c01/sse4/g16/l401.exe)
 ExpMin= 3.50D-02 ExpMax= 4.40D+05 ExpMxC= 1.51D+04 IAcc=3 IRadAn=         5 AccDes= 0.00D+00
 Harris functional with IExCor= 4639 and IRadAn=       5 diagonalized for initial guess.
 HarFok:  IExCor= 4639 AccDes= 0.00D+00 IRadAn=         5 IDoV= 1 UseB2=F ITyADJ=14
 ICtDFT=  3500011 ScaDFX=  1.000000  1.000000  1.000000  1.000000
 FoFCou: FMM=F IPFlag=           0 FMFlag=      100000 FMFlg1=           0
         NFxFlg=           0 DoJE=T BraDBF=F KetDBF=T FulRan=T
         wScrn=  0.000000 ICntrl=       500 IOpCl=  0 I1Cent=   200000004 NGrid=           0
         NMat0=    1 NMatS0=      1 NMatT0=    0 NMatD0=    1 NMtDS0=    0 NMtDT0=    0
 Symmetry not used in FoFCou.
 Harris En= -2970.59762186096    
 JPrj=0 DoOrth=F DoCkMO=F.
 Leave Link  401 at Thu May  2 13:58:35 2024, MaxMem=   134217728 cpu:              31.4 elap:              31.4
 (Enter /software/gaussian/g16-c01/sse4/g16/l502.exe)
 Two-electron integral symmetry not used.
 Closed shell SCF:
 Using DIIS extrapolation, IDIIS=  1040.
 NGot=   134217728 LenX=   134063053 LenY=   133988083
 Requested convergence on RMS density matrix=1.00D-08 within 128 cycles.
 Requested convergence on MAX density matrix=1.00D-06.
 Requested convergence on             energy=1.00D-06.
 No special actions if energy rises.
 Fock matrices will be formed incrementally for  20 cycles.

 Cycle   1  Pass 1  IDiag  1:
 FoFJK:  IHMeth= 1 ICntrl=       0 DoSepK=T KAlg= 0 I1Cent=           0 FoldK=F
 IRaf=         1 NMat=       1 IRICut=       1 DoRegI=T DoRafI=F ISym2E= 0 IDoP0=0 IntGTp=1.
 FoFCou: FMM=F IPFlag=           0 FMFlag=      100000 FMFlg1=           0
         NFxFlg=           0 DoJE=T BraDBF=F KetDBF=F FulRan=T
         wScrn=  0.000000 ICntrl=       500 IOpCl=  0 I1Cent=           0 NGrid=           0
         NMat0=    1 NMatS0=      1 NMatT0=    0 NMatD0=    1 NMtDS0=    0 NMtDT0=    0
 Symmetry not used in FoFCou.
 E= -3009.71638591013    
 DIIS: error= 2.90D-01 at cycle   1 NSaved=   1.
 NSaved= 1 IEnMin= 1 EnMin= -3009.71638591013     IErMin= 1 ErrMin= 2.90D-01
 ErrMax= 2.90D-01  0.00D+00 EMaxC= 1.00D-01 BMatC= 1.19D+01 BMatP= 1.19D+01
 IDIUse=3 WtCom= 0.00D+00 WtEn= 1.00D+00
 Coeff-Com:  0.100D+01
 Coeff-En:   0.100D+01
 Coeff:      0.100D+01
 Gap=     0.246 Goal=   None    Shift=    0.000
 GapD=    0.246 DampG=1.000 DampE=0.250 DampFc=0.2500 IDamp=-1.
 Damping current iteration by 2.50D-01
 RMSDP=5.87D-02 MaxDP=6.16D+00              OVMax= 2.66D-01

 Cycle   2  Pass 1  IDiag  1:
 RMSU=  6.93D-03    CP:  8.89D-01
 E= -3009.99836330598     Delta-E=       -0.281977395846 Rises=F Damp=T
 DIIS: error= 2.19D-01 at cycle   2 NSaved=   2.
 NSaved= 2 IEnMin= 2 EnMin= -3009.99836330598     IErMin= 2 ErrMin= 2.19D-01
 ErrMax= 2.19D-01  0.00D+00 EMaxC= 1.00D-01 BMatC= 5.45D+00 BMatP= 1.19D+01
 IDIUse=3 WtCom= 0.00D+00 WtEn= 1.00D+00
 Coeff-Com: -0.184D+01 0.284D+01
 Coeff-En:   0.000D+00 0.100D+01
 Coeff:      0.000D+00 0.100D+01
 Gap=     0.258 Goal=   None    Shift=    0.000
 RMSDP=4.51D-02 MaxDP=4.94D+00 DE=-2.82D-01 OVMax= 7.02D-02

 Cycle   3  Pass 1  IDiag  1:
 RMSU=  4.84D-03    CP:  5.27D-01  3.00D+00
 E= -3010.37842970750     Delta-E=       -0.380066401516 Rises=F Damp=F
 DIIS: error= 6.57D-02 at cycle   3 NSaved=   3.
 NSaved= 3 IEnMin= 3 EnMin= -3010.37842970750     IErMin= 3 ErrMin= 6.57D-02
 ErrMax= 6.57D-02  0.00D+00 EMaxC= 1.00D-01 BMatC= 7.25D-01 BMatP= 5.45D+00
 IDIUse=3 WtCom= 3.43D-01 WtEn= 6.57D-01
 Coeff-Com:  0.268D+01-0.352D+01 0.184D+01
 Coeff-En:   0.233D-01 0.000D+00 0.977D+00
 Coeff:      0.933D+00-0.120D+01 0.127D+01
 Gap=     0.250 Goal=   None    Shift=    0.000
 RMSDP=1.17D-02 MaxDP=7.58D-01 DE=-3.80D-01 OVMax= 7.15D-02

 Cycle   4  Pass 1  IDiag  1:
 RMSU=  6.04D-03    CP:  5.52D-01  2.06D+00  2.26D+00
 E= -3010.47916115829     Delta-E=       -0.100731450792 Rises=F Damp=F
 DIIS: error= 3.88D-02 at cycle   4 NSaved=   4.
 NSaved= 4 IEnMin= 4 EnMin= -3010.47916115829     IErMin= 4 ErrMin= 3.88D-02
 ErrMax= 3.88D-02  0.00D+00 EMaxC= 1.00D-01 BMatC= 2.35D-01 BMatP= 7.25D-01
 IDIUse=3 WtCom= 6.12D-01 WtEn= 3.88D-01
 Coeff-Com: -0.839D-01 0.125D+00 0.327D+00 0.632D+00
 Coeff-En:   0.000D+00 0.000D+00 0.207D+00 0.793D+00
 Coeff:     -0.513D-01 0.767D-01 0.280D+00 0.694D+00
 Gap=     0.256 Goal=   None    Shift=    0.000
 RMSDP=4.85D-03 MaxDP=5.22D-01 DE=-1.01D-01 OVMax= 2.98D-02

 Cycle   5  Pass 1  IDiag  1:
 RMSU=  1.70D-03    CP:  5.21D-01  2.22D+00  2.10D+00  6.13D-01
 E= -3010.52404757502     Delta-E=       -0.044886416731 Rises=F Damp=F
 DIIS: error= 6.51D-03 at cycle   5 NSaved=   5.
 NSaved= 5 IEnMin= 5 EnMin= -3010.52404757502     IErMin= 5 ErrMin= 6.51D-03
 ErrMax= 6.51D-03  0.00D+00 EMaxC= 1.00D-01 BMatC= 8.19D-03 BMatP= 2.35D-01
 IDIUse=3 WtCom= 9.35D-01 WtEn= 6.51D-02
 Coeff-Com: -0.124D+00 0.171D+00 0.980D-01 0.376D+00 0.479D+00
 Coeff-En:   0.000D+00 0.000D+00 0.000D+00 0.000D+00 0.100D+01
 Coeff:     -0.116D+00 0.160D+00 0.916D-01 0.352D+00 0.513D+00
 Gap=     0.247 Goal=   None    Shift=    0.000
 RMSDP=1.33D-03 MaxDP=1.60D-01 DE=-4.49D-02 OVMax= 2.10D-02

 Cycle   6  Pass 1  IDiag  1:
 RMSU=  5.76D-04    CP:  5.26D-01  2.22D+00  2.18D+00  7.63D-01  7.57D-01
 E= -3010.52620355640     Delta-E=       -0.002155981377 Rises=F Damp=F
 DIIS: error= 2.47D-03 at cycle   6 NSaved=   6.
 NSaved= 6 IEnMin= 6 EnMin= -3010.52620355640     IErMin= 6 ErrMin= 2.47D-03
 ErrMax= 2.47D-03  0.00D+00 EMaxC= 1.00D-01 BMatC= 5.39D-04 BMatP= 8.19D-03
 IDIUse=3 WtCom= 9.75D-01 WtEn= 2.47D-02
 Coeff-Com: -0.993D-01 0.134D+00 0.142D-03 0.161D+00 0.347D+00 0.457D+00
 Coeff-En:   0.000D+00 0.000D+00 0.000D+00 0.000D+00 0.837D-01 0.916D+00
 Coeff:     -0.968D-01 0.130D+00 0.138D-03 0.157D+00 0.341D+00 0.468D+00
 Gap=     0.247 Goal=   None    Shift=    0.000
 RMSDP=3.89D-04 MaxDP=3.51D-02 DE=-2.16D-03 OVMax= 6.37D-03

 Cycle   7  Pass 1  IDiag  1:
 RMSU=  1.99D-04    CP:  5.24D-01  2.22D+00  2.17D+00  7.34D-01  8.49D-01
                    CP:  7.20D-01
 E= -3010.52657699591     Delta-E=       -0.000373439512 Rises=F Damp=F
 DIIS: error= 2.97D-04 at cycle   7 NSaved=   7.
 NSaved= 7 IEnMin= 7 EnMin= -3010.52657699591     IErMin= 7 ErrMin= 2.97D-04
 ErrMax= 2.97D-04  0.00D+00 EMaxC= 1.00D-01 BMatC= 1.30D-05 BMatP= 5.39D-04
 IDIUse=3 WtCom= 9.97D-01 WtEn= 2.97D-03
 Coeff-Com: -0.346D-01 0.462D-01-0.121D-01 0.320D-01 0.836D-01 0.174D+00
 Coeff-Com:  0.711D+00
 Coeff-En:   0.000D+00 0.000D+00 0.000D+00 0.000D+00 0.000D+00 0.000D+00
 Coeff-En:   0.100D+01
 Coeff:     -0.345D-01 0.460D-01-0.121D-01 0.319D-01 0.833D-01 0.173D+00
 Coeff:      0.712D+00
 Gap=     0.248 Goal=   None    Shift=    0.000
 RMSDP=1.52D-04 MaxDP=1.10D-02 DE=-3.73D-04 OVMax= 1.17D-03

 Cycle   8  Pass 1  IDiag  1:
 RMSU=  6.29D-05    CP:  5.24D-01  2.21D+00  2.19D+00  7.45D-01  8.82D-01
                    CP:  7.50D-01  1.00D+00
 E= -3010.52658995099     Delta-E=       -0.000012955077 Rises=F Damp=F
 DIIS: error= 1.25D-04 at cycle   8 NSaved=   8.
 NSaved= 8 IEnMin= 8 EnMin= -3010.52658995099     IErMin= 8 ErrMin= 1.25D-04
 ErrMax= 1.25D-04  0.00D+00 EMaxC= 1.00D-01 BMatC= 1.98D-06 BMatP= 1.30D-05
 IDIUse=3 WtCom= 9.99D-01 WtEn= 1.25D-03
 Coeff-Com:  0.380D-02-0.528D-02-0.333D-02-0.114D-01-0.254D-01-0.326D-01
 Coeff-Com:  0.190D+00 0.885D+00
 Coeff-En:   0.000D+00 0.000D+00 0.000D+00 0.000D+00 0.000D+00 0.000D+00
 Coeff-En:   0.000D+00 0.100D+01
 Coeff:      0.380D-02-0.527D-02-0.333D-02-0.113D-01-0.254D-01-0.326D-01
 Coeff:      0.189D+00 0.885D+00
 Gap=     0.248 Goal=   None    Shift=    0.000
 RMSDP=8.00D-05 MaxDP=7.17D-03 DE=-1.30D-05 OVMax= 7.97D-04

 Cycle   9  Pass 1  IDiag  1:
 RMSU=  2.25D-05    CP:  5.24D-01  2.20D+00  2.20D+00  7.50D-01  8.91D-01
                    CP:  7.69D-01  1.19D+00  1.18D+00
 E= -3010.52659250743     Delta-E=       -0.000002556441 Rises=F Damp=F
 DIIS: error= 2.32D-05 at cycle   9 NSaved=   9.
 NSaved= 9 IEnMin= 9 EnMin= -3010.52659250743     IErMin= 9 ErrMin= 2.32D-05
 ErrMax= 2.32D-05  0.00D+00 EMaxC= 1.00D-01 BMatC= 1.91D-07 BMatP= 1.98D-06
 IDIUse=1 WtCom= 1.00D+00 WtEn= 0.00D+00
 Coeff-Com:  0.542D-02-0.729D-02 0.365D-03-0.759D-02-0.167D-01-0.313D-01
 Coeff-Com: -0.378D-01 0.289D+00 0.806D+00
 Coeff:      0.542D-02-0.729D-02 0.365D-03-0.759D-02-0.167D-01-0.313D-01
 Coeff:     -0.378D-01 0.289D+00 0.806D+00
 Gap=     0.248 Goal=   None    Shift=    0.000
 RMSDP=2.90D-05 MaxDP=2.47D-03 DE=-2.56D-06 OVMax= 2.24D-04

 Cycle  10  Pass 1  IDiag  1:
 RMSU=  8.97D-06    CP:  5.24D-01  2.20D+00  2.20D+00  7.49D-01  8.97D-01
                    CP:  7.63D-01  1.24D+00  1.31D+00  1.02D+00
 E= -3010.52659282447     Delta-E=       -0.000000317045 Rises=F Damp=F
 DIIS: error= 1.24D-05 at cycle  10 NSaved=  10.
 NSaved=10 IEnMin=10 EnMin= -3010.52659282447     IErMin=10 ErrMin= 1.24D-05
 ErrMax= 1.24D-05  0.00D+00 EMaxC= 1.00D-01 BMatC= 3.42D-08 BMatP= 1.91D-07
 IDIUse=1 WtCom= 1.00D+00 WtEn= 0.00D+00
 Coeff-Com:  0.555D-03-0.730D-03 0.219D-03-0.646D-03 0.107D-03-0.131D-02
 Coeff-Com: -0.335D-01-0.205D-01 0.214D+00 0.842D+00
 Coeff:      0.555D-03-0.730D-03 0.219D-03-0.646D-03 0.107D-03-0.131D-02
 Coeff:     -0.335D-01-0.205D-01 0.214D+00 0.842D+00
 Gap=     0.248 Goal=   None    Shift=    0.000
 RMSDP=5.25D-06 MaxDP=4.32D-04 DE=-3.17D-07 OVMax= 9.39D-05

 Cycle  11  Pass 1  IDiag  1:
 RMSU=  4.16D-06    CP:  5.24D-01  2.20D+00  2.20D+00  7.49D-01  8.97D-01
                    CP:  7.62D-01  1.23D+00  1.32D+00  1.05D+00  1.13D+00
 E= -3010.52659286241     Delta-E=       -0.000000037933 Rises=F Damp=F
 DIIS: error= 2.48D-06 at cycle  11 NSaved=  11.
 NSaved=11 IEnMin=11 EnMin= -3010.52659286241     IErMin=11 ErrMin= 2.48D-06
 ErrMax= 2.48D-06  0.00D+00 EMaxC= 1.00D-01 BMatC= 1.68D-09 BMatP= 3.42D-08
 IDIUse=1 WtCom= 1.00D+00 WtEn= 0.00D+00
 Coeff-Com: -0.783D-04 0.106D-03 0.426D-04 0.315D-03 0.113D-02 0.207D-02
 Coeff-Com:  0.322D-02-0.129D-01-0.751D-01-0.553D-02 0.109D+01
 Coeff:     -0.783D-04 0.106D-03 0.426D-04 0.315D-03 0.113D-02 0.207D-02
 Coeff:      0.322D-02-0.129D-01-0.751D-01-0.553D-02 0.109D+01
 Gap=     0.248 Goal=   None    Shift=    0.000
 RMSDP=6.16D-06 MaxDP=7.24D-04 DE=-3.79D-08 OVMax= 4.77D-05

 Cycle  12  Pass 1  IDiag  1:
 RMSU=  9.35D-07    CP:  5.24D-01  2.20D+00  2.20D+00  7.49D-01  8.97D-01
                    CP:  7.60D-01  1.23D+00  1.32D+00  1.04D+00  1.30D+00
                    CP:  1.52D+00
 E= -3010.52659286785     Delta-E=       -0.000000005448 Rises=F Damp=F
 DIIS: error= 1.23D-06 at cycle  12 NSaved=  12.
 NSaved=12 IEnMin=12 EnMin= -3010.52659286785     IErMin=12 ErrMin= 1.23D-06
 ErrMax= 1.23D-06  0.00D+00 EMaxC= 1.00D-01 BMatC= 5.06D-10 BMatP= 1.68D-09
 IDIUse=1 WtCom= 1.00D+00 WtEn= 0.00D+00
 Coeff-Com: -0.105D-03 0.139D-03-0.321D-05 0.244D-03 0.464D-03 0.983D-03
 Coeff-Com:  0.647D-02-0.291D-02-0.701D-01-0.134D+00 0.500D+00 0.698D+00
 Coeff:     -0.105D-03 0.139D-03-0.321D-05 0.244D-03 0.464D-03 0.983D-03
 Coeff:      0.647D-02-0.291D-02-0.701D-01-0.134D+00 0.500D+00 0.698D+00
 Gap=     0.248 Goal=   None    Shift=    0.000
 RMSDP=1.63D-06 MaxDP=1.88D-04 DE=-5.45D-09 OVMax= 1.63D-05

 Cycle  13  Pass 1  IDiag  1:
 RMSU=  3.37D-07    CP:  5.24D-01  2.20D+00  2.20D+00  7.49D-01  8.97D-01
                    CP:  7.59D-01  1.23D+00  1.32D+00  1.04D+00  1.34D+00
                    CP:  1.70D+00  1.16D+00
 E= -3010.52659286890     Delta-E=       -0.000000001049 Rises=F Damp=F
 DIIS: error= 4.65D-07 at cycle  13 NSaved=  13.
 NSaved=13 IEnMin=13 EnMin= -3010.52659286890     IErMin=13 ErrMin= 4.65D-07
 ErrMax= 4.65D-07  0.00D+00 EMaxC= 1.00D-01 BMatC= 3.99D-11 BMatP= 5.06D-10
 IDIUse=1 WtCom= 1.00D+00 WtEn= 0.00D+00
 Coeff-Com: -0.114D-04 0.153D-04-0.753D-05-0.158D-04-0.160D-03-0.350D-03
 Coeff-Com: -0.132D-03 0.161D-02 0.583D-02-0.767D-02-0.805D-01 0.484D-01
 Coeff-Com:  0.103D+01
 Coeff:     -0.114D-04 0.153D-04-0.753D-05-0.158D-04-0.160D-03-0.350D-03
 Coeff:     -0.132D-03 0.161D-02 0.583D-02-0.767D-02-0.805D-01 0.484D-01
 Coeff:      0.103D+01
 Gap=     0.248 Goal=   None    Shift=    0.000
 RMSDP=4.87D-07 MaxDP=5.83D-05 DE=-1.05D-09 OVMax= 1.01D-05

 Cycle  14  Pass 1  IDiag  1:
 RMSU=  1.38D-07    CP:  5.24D-01  2.20D+00  2.20D+00  7.48D-01  8.97D-01
                    CP:  7.59D-01  1.23D+00  1.32D+00  1.04D+00  1.35D+00
                    CP:  1.72D+00  1.28D+00  1.37D+00
 E= -3010.52659286911     Delta-E=       -0.000000000209 Rises=F Damp=F
 DIIS: error= 2.32D-07 at cycle  14 NSaved=  14.
 NSaved=14 IEnMin=14 EnMin= -3010.52659286911     IErMin=14 ErrMin= 2.32D-07
 ErrMax= 2.32D-07  0.00D+00 EMaxC= 1.00D-01 BMatC= 1.03D-11 BMatP= 3.99D-11
 IDIUse=1 WtCom= 1.00D+00 WtEn= 0.00D+00
 Coeff-Com: -0.126D-05 0.183D-05-0.468D-05-0.261D-04-0.955D-04-0.211D-03
 Coeff-Com: -0.725D-03 0.784D-03 0.103D-01 0.116D-01-0.903D-01-0.999D-01
 Coeff-Com:  0.312D+00 0.857D+00
 Coeff:     -0.126D-05 0.183D-05-0.468D-05-0.261D-04-0.955D-04-0.211D-03
 Coeff:     -0.725D-03 0.784D-03 0.103D-01 0.116D-01-0.903D-01-0.999D-01
 Coeff:      0.312D+00 0.857D+00
 Gap=     0.248 Goal=   None    Shift=    0.000
 RMSDP=1.69D-07 MaxDP=1.62D-05 DE=-2.09D-10 OVMax= 5.63D-06

 Cycle  15  Pass 1  IDiag  1:
 RMSU=  5.27D-08    CP:  5.24D-01  2.20D+00  2.20D+00  7.48D-01  8.97D-01
                    CP:  7.59D-01  1.23D+00  1.32D+00  1.04D+00  1.35D+00
                    CP:  1.74D+00  1.31D+00  1.60D+00  1.29D+00
 E= -3010.52659286912     Delta-E=       -0.000000000010 Rises=F Damp=F
 DIIS: error= 1.38D-07 at cycle  15 NSaved=  15.
 NSaved=15 IEnMin=15 EnMin= -3010.52659286912     IErMin=15 ErrMin= 1.38D-07
 ErrMax= 1.38D-07  0.00D+00 EMaxC= 1.00D-01 BMatC= 2.20D-12 BMatP= 1.03D-11
 IDIUse=1 WtCom= 1.00D+00 WtEn= 0.00D+00
 Coeff-Com:  0.451D-05-0.599D-05 0.992D-06-0.520D-05 0.124D-04 0.277D-04
 Coeff-Com: -0.159D-03-0.205D-03 0.166D-02 0.539D-02-0.155D-03-0.508D-01
 Coeff-Com: -0.180D+00 0.263D+00 0.961D+00
 Coeff:      0.451D-05-0.599D-05 0.992D-06-0.520D-05 0.124D-04 0.277D-04
 Coeff:     -0.159D-03-0.205D-03 0.166D-02 0.539D-02-0.155D-03-0.508D-01
 Coeff:     -0.180D+00 0.263D+00 0.961D+00
 Gap=     0.248 Goal=   None    Shift=    0.000
 RMSDP=1.25D-07 MaxDP=1.08D-05 DE=-1.05D-11 OVMax= 3.59D-06

 Cycle  16  Pass 1  IDiag  1:
 RMSU=  2.75D-08    CP:  5.24D-01  2.20D+00  2.20D+00  7.48D-01  8.97D-01
                    CP:  7.59D-01  1.23D+00  1.32D+00  1.04D+00  1.35D+00
                    CP:  1.73D+00  1.31D+00  1.71D+00  1.56D+00  1.53D+00
 E= -3010.52659286913     Delta-E=       -0.000000000009 Rises=F Damp=F
 DIIS: error= 5.15D-08 at cycle  16 NSaved=  16.
 NSaved=16 IEnMin=16 EnMin= -3010.52659286913     IErMin=16 ErrMin= 5.15D-08
 ErrMax= 5.15D-08  0.00D+00 EMaxC= 1.00D-01 BMatC= 3.43D-13 BMatP= 2.20D-12
 IDIUse=1 WtCom= 1.00D+00 WtEn= 0.00D+00
 Coeff-Com:  0.474D-06-0.643D-06 0.905D-06 0.409D-05 0.198D-04 0.455D-04
 Coeff-Com:  0.946D-04-0.252D-03-0.141D-02-0.671D-03 0.161D-01 0.309D-02
 Coeff-Com: -0.903D-01-0.987D-01 0.221D+00 0.951D+00
 Coeff:      0.474D-06-0.643D-06 0.905D-06 0.409D-05 0.198D-04 0.455D-04
 Coeff:      0.946D-04-0.252D-03-0.141D-02-0.671D-03 0.161D-01 0.309D-02
 Coeff:     -0.903D-01-0.987D-01 0.221D+00 0.951D+00
 Gap=     0.248 Goal=   None    Shift=    0.000
 RMSDP=5.67D-08 MaxDP=5.17D-06 DE=-8.64D-12 OVMax= 1.49D-06

 Cycle  17  Pass 1  IDiag  1:
 RMSU=  1.05D-08    CP:  5.24D-01  2.20D+00  2.20D+00  7.48D-01  8.98D-01
                    CP:  7.59D-01  1.23D+00  1.32D+00  1.04D+00  1.35D+00
                    CP:  1.73D+00  1.30D+00  1.74D+00  1.69D+00  1.82D+00
                    CP:  1.12D+00
 E= -3010.52659286915     Delta-E=       -0.000000000025 Rises=F Damp=F
 DIIS: error= 1.98D-08 at cycle  17 NSaved=  17.
 NSaved=17 IEnMin=17 EnMin= -3010.52659286915     IErMin=17 ErrMin= 1.98D-08
 ErrMax= 1.98D-08  0.00D+00 EMaxC= 1.00D-01 BMatC= 8.19D-14 BMatP= 3.43D-13
 IDIUse=1 WtCom= 1.00D+00 WtEn= 0.00D+00
 Coeff-Com: -0.296D-06 0.391D-06 0.222D-06 0.184D-05 0.469D-05 0.118D-04
 Coeff-Com:  0.495D-04-0.435D-04-0.663D-03-0.815D-03 0.565D-02 0.751D-02
 Coeff-Com: -0.742D-02-0.797D-01-0.741D-01 0.324D+00 0.825D+00
 Coeff:     -0.296D-06 0.391D-06 0.222D-06 0.184D-05 0.469D-05 0.118D-04
 Coeff:      0.495D-04-0.435D-04-0.663D-03-0.815D-03 0.565D-02 0.751D-02
 Coeff:     -0.742D-02-0.797D-01-0.741D-01 0.324D+00 0.825D+00
 Gap=     0.248 Goal=   None    Shift=    0.000
 RMSDP=1.84D-08 MaxDP=1.46D-06 DE=-2.46D-11 OVMax= 5.73D-07

 Cycle  18  Pass 1  IDiag  1:
 RMSU=  3.22D-09    CP:  5.24D-01  2.20D+00  2.20D+00  7.48D-01  8.98D-01
                    CP:  7.59D-01  1.23D+00  1.32D+00  1.04D+00  1.35D+00
                    CP:  1.73D+00  1.30D+00  1.74D+00  1.71D+00  1.96D+00
                    CP:  1.36D+00  1.28D+00
 E= -3010.52659286911     Delta-E=        0.000000000049 Rises=F Damp=F
 DIIS: error= 5.97D-09 at cycle  18 NSaved=  18.
 NSaved=18 IEnMin=17 EnMin= -3010.52659286915     IErMin=18 ErrMin= 5.97D-09
 ErrMax= 5.97D-09  0.00D+00 EMaxC= 1.00D-01 BMatC= 2.07D-14 BMatP= 8.19D-14
 IDIUse=1 WtCom= 1.00D+00 WtEn= 0.00D+00
 Coeff-Com: -0.165D-06 0.221D-06-0.193D-06-0.820D-06-0.545D-05-0.111D-04
 Coeff-Com: -0.115D-04 0.731D-04 0.185D-03-0.179D-03-0.313D-02 0.175D-02
 Coeff-Com:  0.303D-01 0.371D-02-0.975D-01-0.168D+00 0.349D+00 0.884D+00
 Coeff:     -0.165D-06 0.221D-06-0.193D-06-0.820D-06-0.545D-05-0.111D-04
 Coeff:     -0.115D-04 0.731D-04 0.185D-03-0.179D-03-0.313D-02 0.175D-02
 Coeff:      0.303D-01 0.371D-02-0.975D-01-0.168D+00 0.349D+00 0.884D+00
 Gap=     0.248 Goal=   None    Shift=    0.000
 RMSDP=5.82D-09 MaxDP=4.99D-07 DE= 4.91D-11 OVMax= 2.11D-07

 SCF Done:  E(RwB97XD) =  -3010.52659287     A.U. after   18 cycles
            NFock= 18  Conv=0.58D-08     -V/T= 2.0016
 KE= 3.005864134778D+03 PE=-8.704483867671D+03 EE= 1.910620641672D+03
 Leave Link  502 at Thu May  2 14:17:20 2024, MaxMem=   134217728 cpu:            1124.1 elap:            1124.4
 (Enter /software/gaussian/g16-c01/sse4/g16/l601.exe)
 Copying SCF densities to generalized density rwf, IOpCl= 0 IROHF=0.

 **********************************************************************

            Population analysis using the SCF Density.

 **********************************************************************

 Alpha  occ. eigenvalues -- -483.34772 -62.89801 -56.69488 -56.68927 -56.68918
 Alpha  occ. eigenvalues --  -19.52905 -19.52835 -14.92134 -10.62996 -10.61763
 Alpha  occ. eigenvalues --  -10.60194 -10.59676 -10.57505 -10.55057  -9.05613
 Alpha  occ. eigenvalues --   -6.88276  -6.86431  -6.86405  -2.98184  -2.97697
 Alpha  occ. eigenvalues --   -2.97675  -2.96199  -2.96199  -1.56518  -1.39548
 Alpha  occ. eigenvalues --   -1.26036  -1.16484  -1.16071  -1.08470  -1.04431
 Alpha  occ. eigenvalues --   -0.98631  -0.94323  -0.90190  -0.86705  -0.85174
 Alpha  occ. eigenvalues --   -0.84289  -0.81704  -0.80799  -0.79183  -0.75359
 Alpha  occ. eigenvalues --   -0.71123  -0.70709  -0.66576  -0.64288  -0.63609
 Alpha  occ. eigenvalues --   -0.63024  -0.62723  -0.60007  -0.58428
 Alpha virt. eigenvalues --   -0.33643  -0.25559  -0.19374  -0.16933  -0.12321
 Alpha virt. eigenvalues --   -0.09599  -0.09062  -0.08542  -0.07286  -0.06056
 Alpha virt. eigenvalues --   -0.05427  -0.05089  -0.04792  -0.03945  -0.03354
 Alpha virt. eigenvalues --   -0.02906  -0.01844  -0.01306  -0.00649  -0.00054
 Alpha virt. eigenvalues --    0.00604   0.01496   0.01907   0.03202   0.03491
 Alpha virt. eigenvalues --    0.03978   0.04527   0.04858   0.05445   0.05956
 Alpha virt. eigenvalues --    0.06635   0.07134   0.08039   0.08331   0.08740
 Alpha virt. eigenvalues --    0.09132   0.09748   0.09994   0.11259   0.12564
 Alpha virt. eigenvalues --    0.13397   0.14222   0.14723   0.15258   0.15849
 Alpha virt. eigenvalues --    0.16484   0.17028   0.17725   0.18271   0.19188
 Alpha virt. eigenvalues --    0.19552   0.20573   0.22933   0.24336   0.25883
 Alpha virt. eigenvalues --    0.27850   0.27908   0.28317   0.30367   0.30912
 Alpha virt. eigenvalues --    0.33787   0.34177   0.36631   0.37258   0.38891
 Alpha virt. eigenvalues --    0.40716   0.40752   0.41910   0.43128   0.43871
 Alpha virt. eigenvalues --    0.45086   0.45406   0.47157   0.48607   0.49638
 Alpha virt. eigenvalues --    0.51785   0.52776   0.54219   0.55247   0.56899
 Alpha virt. eigenvalues --    0.59131   0.59459   0.60638   0.63967   0.65880
 Alpha virt. eigenvalues --    0.68222   0.68767   0.69392   0.71224   0.72023
 Alpha virt. eigenvalues --    0.72397   0.74064   0.74829   0.79387   0.80438
 Alpha virt. eigenvalues --    0.82646   0.83821   0.87012   0.90723   0.92936
 Alpha virt. eigenvalues --    0.94370   0.97652   0.99934   1.01767   1.02889
 Alpha virt. eigenvalues --    1.03426   1.06603   1.07442   1.08245   1.12553
 Alpha virt. eigenvalues --    1.15243   1.16603   1.24393   1.30008   1.33079
 Alpha virt. eigenvalues --    1.33714   1.35344   1.39807   1.50725   1.51768
 Alpha virt. eigenvalues --    1.53513   1.54334   1.57694   1.60163   1.62495
 Alpha virt. eigenvalues --    1.63906   1.67992   1.68223   1.72343   1.76040
 Alpha virt. eigenvalues --    1.81442   1.82091   1.83346   1.91085   1.92378
 Alpha virt. eigenvalues --    1.93187   1.98117   1.99078   2.03446   2.05484
 Alpha virt. eigenvalues --    2.09422   2.11392   2.18382   2.19703   2.25084
 Alpha virt. eigenvalues --    2.30343   2.35598   2.36949   2.40578   2.50191
 Alpha virt. eigenvalues --    2.54926   2.59405   2.62812   2.64710   2.65706
 Alpha virt. eigenvalues --    2.68289   2.70123   2.73470   2.74218   2.78598
 Alpha virt. eigenvalues --    2.89627   2.93316   2.96419   3.01971   3.05442
 Alpha virt. eigenvalues --    3.11269   3.13271   3.15059   3.16548   3.19980
 Alpha virt. eigenvalues --    3.24098   3.32906   3.44177   3.46018   3.48501
 Alpha virt. eigenvalues --    3.53363   3.62432   3.67744   3.80452   3.84033
 Alpha virt. eigenvalues --    4.06393   4.07253   4.15787   4.19959   4.37952
 Alpha virt. eigenvalues --    4.40194   4.50785   4.54606   4.86662   4.89445
 Alpha virt. eigenvalues --    4.98318   5.02799   5.55396   6.08318   6.64433
 Alpha virt. eigenvalues --    7.45278   7.47598   7.57736  23.19093  23.58063
 Alpha virt. eigenvalues --   23.68344  23.75250  23.93036  23.98540  35.25043
 Alpha virt. eigenvalues --   47.90546  49.78562  49.87224 289.78194 289.80535
 Alpha virt. eigenvalues --  289.931601020.91738
          Condensed to atoms (all electrons):
               1          2          3          4          5          6
     1  C    7.157121  -1.999216   0.599295   0.028884   0.293816   0.056972
     2  C   -1.999216  16.314889  -3.598341   0.473861  -0.024616   0.220064
     3  C    0.599295  -3.598341  18.203731  -1.054124   0.023341   0.108253
     4  C    0.028884   0.473861  -1.054124   6.230685   0.031664  -0.018170
     5  H    0.293816  -0.024616   0.023341   0.031664   0.306752  -0.001606
     6  H    0.056972   0.220064   0.108253  -0.018170  -0.001606   0.325401
     7  H    0.022190  -0.018639   0.013799   0.303780  -0.002136   0.000004
     8  N   -0.047034  -0.107794  -1.738806   0.003895  -0.000455  -0.031052
     9  O   -0.009583   0.284446  -0.052769  -0.009558  -0.000024  -0.002251
    10  O    0.211930  -0.196815  -0.248607  -0.022243  -0.000033   0.017210
    11  C    0.535927  -0.703233   1.537186  -0.117832  -0.022734   0.010056
    12  H   -0.011753   0.020053   0.000948   0.028614   0.000038  -0.000016
    13  C   -0.728048  -4.685015  -7.482471   0.447565   0.023728  -0.021412
    14  H   -0.001248   0.036097   0.126453  -0.000535  -0.000031   0.000075
    15  Br   0.013913  -0.199844  -0.307515  -0.002153   0.000008  -0.000769
               7          8          9         10         11         12
     1  C    0.022190  -0.047034  -0.009583   0.211930   0.535927  -0.011753
     2  C   -0.018639  -0.107794   0.284446  -0.196815  -0.703233   0.020053
     3  C    0.013799  -1.738806  -0.052769  -0.248607   1.537186   0.000948
     4  C    0.303780   0.003895  -0.009558  -0.022243  -0.117832   0.028614
     5  H   -0.002136  -0.000455  -0.000024  -0.000033  -0.022734   0.000038
     6  H    0.000004  -0.031052  -0.002251   0.017210   0.010056  -0.000016
     7  H    0.294468   0.000097  -0.000003   0.000002   0.024853  -0.001867
     8  N    0.000097   7.441334   0.142772   0.262219  -0.135631  -0.000004
     9  O   -0.000003   0.142772   7.900985  -0.015452   0.181323   0.000136
    10  O    0.000002   0.262219  -0.015452   7.841335   0.011135  -0.000022
    11  C    0.024853  -0.135631   0.181323   0.011135   7.170810   0.317038
    12  H   -0.001867  -0.000004   0.000136  -0.000022   0.317038   0.294602
    13  C   -0.015801   1.319393  -0.420874   0.117177  -2.660736  -0.029357
    14  H   -0.000019  -0.040523   0.012240  -0.001771  -0.033728  -0.003961
    15  Br  -0.000446   0.168645  -0.058074   0.005716   0.051700   0.002582
              13         14         15
     1  C   -0.728048  -0.001248   0.013913
     2  C   -4.685015   0.036097  -0.199844
     3  C   -7.482471   0.126453  -0.307515
     4  C    0.447565  -0.000535  -0.002153
     5  H    0.023728  -0.000031   0.000008
     6  H   -0.021412   0.000075  -0.000769
     7  H   -0.015801  -0.000019  -0.000446
     8  N    1.319393  -0.040523   0.168645
     9  O   -0.420874   0.012240  -0.058074
    10  O    0.117177  -0.001771   0.005716
    11  C   -2.660736  -0.033728   0.051700
    12  H   -0.029357  -0.003961   0.002582
    13  C   19.738620   0.211601   0.485908
    14  H    0.211601   0.344454  -0.047227
    15  Br   0.485908  -0.047227  34.725568
 Mulliken charges:
               1
     1  C   -0.123167
     2  C    0.184103
     3  C   -0.130373
     4  C   -0.324332
     5  H    0.372289
     6  H    0.337241
     7  H    0.379720
     8  N   -0.237055
     9  O    0.046687
    10  O    0.018220
    11  C   -0.166134
    12  H    0.382969
    13  C   -0.300280
    14  H    0.398124
    15  Br   0.161987
 Sum of Mulliken charges =   1.00000
 Mulliken charges with hydrogens summed into heavy atoms:
               1
     1  C    0.249122
     2  C    0.521344
     3  C   -0.130373
     4  C    0.055389
     8  N   -0.237055
     9  O    0.046687
    10  O    0.018220
    11  C    0.216836
    13  C    0.097844
    15  Br   0.161987
 Electronic spatial extent (au):  <R**2>=           3955.5301
 Charge=              1.0000 electrons
 Dipole moment (field-independent basis, Debye):
    X=             -0.2610    Y=             -0.7502    Z=             -0.6025  Tot=              0.9970
 Quadrupole moment (field-independent basis, Debye-Ang):
   XX=            -79.9399   YY=            -51.3601   ZZ=            -62.5071
   XY=             -2.2001   XZ=             -1.7189   YZ=              2.1049
 Traceless Quadrupole moment (field-independent basis, Debye-Ang):
   XX=            -15.3375   YY=             13.2423   ZZ=              2.0952
   XY=             -2.2001   XZ=             -1.7189   YZ=              2.1049
 Octapole moment (field-independent basis, Debye-Ang**2):
  XXX=           -575.2404  YYY=             93.2517  ZZZ=             83.9555  XYY=           -143.6484
  XXY=             26.5044  XXZ=             28.3651  XZZ=           -136.4606  YZZ=             18.0798
  YYZ=             26.4999  XYZ=              6.1938
 Hexadecapole moment (field-independent basis, Debye-Ang**3):
 XXXX=          -3759.5026 YYYY=           -703.3385 ZZZZ=           -398.0067 XXXY=            183.5427
 XXXZ=            192.6998 YYYX=            190.5438 YYYZ=           -174.3407 ZZZX=            173.0843
 ZZZY=           -146.6708 XXYY=           -652.7734 XXZZ=           -541.1163 YYZZ=           -173.4943
 XXYZ=            -47.3791 YYXZ=             53.8075 ZZXY=             33.5779
 N-N= 7.774724983514D+02 E-N=-8.704483869337D+03  KE= 3.005864134778D+03
 No NMR shielding tensors so no spin-rotation constants.
 Leave Link  601 at Thu May  2 14:17:27 2024, MaxMem=   134217728 cpu:               7.2 elap:               7.3
 (Enter /software/gaussian/g16-c01/sse4/g16/l9999.exe)
 Unable to Open any file for archive entry.
 1\1\GINC-BHX0007\SP\RwB97XD\6-311+G(d)\C6H5Br1N1O2(1+)\BWEIGHT\02-May-
 2024\0\\#P wB97XD/6-311+G* NoSymm #P Field=X+107\\TitleMe\\1,1\C,0,0.5
 193,1.233,-0.0319\C,0,1.9445,1.2692,-0.0367\C,0,2.6204,0.0928,-0.025\C
 ,0,-0.196,0.0301,0.001\H,0,-0.0207,2.1742,-0.0434\H,0,2.4828,2.2089,-0
 .0361\H,0,-1.2777,0.0399,0.0117\N,0,4.0921,0.0959,0.0366\O,0,4.6393,-1
 .0217,0.1446\O,0,4.6649,1.1984,-0.0233\C,0,0.4943,-1.1671,0.021\H,0,-0
 .0325,-2.1149,0.0545\C,0,1.9629,-1.2165,-0.0211\H,0,2.4436,-1.9631,0.6
 151\Br,0,2.173,-1.9491,-1.9062\\Version=ES64L-G16RevC.01\HF=-3010.5265
 929\RMSD=5.818e-09\Dipole=-4.431881,0.9329549,1.0121883\Quadrupole=-11
 .4030583,9.8453037,1.5577545,-1.6357159,-1.2779407,1.5649461\PG=C01 [X
 (C6H5Br1N1O2)]\\@
 The archive entry for this job was punched.


 THE ONLY EXISTING THINGS ARE ATOMS AND EMPTY SPACE;
 ALL ELSE IS MERE OPINION. -- DEMOCRITUS OF ABDERA D. 370 B.C.
 EXPERIMENTS ARE THE ONLY MEANS OF KNOWLEDGE AT OUR DISPOSAL
 THE REST IS POETRY, IMAGINATION. -- MAX PLANCK
 Job cpu time:       0 days  0 hours 19 minutes 54.5 seconds.
 Elapsed time:       0 days  0 hours 19 minutes 54.8 seconds.
 File lengths (MBytes):  RWF=     40 Int=      0 D2E=      0 Chk=     32 Scr=      1
 Normal termination of Gaussian 16 at Thu May  2 14:17:28 2024.
