 Entering Gaussian System, Link 0=g16
 Initial command:
 /software/gaussian/g16-c01/sse4/g16/l1.exe "/local_scratch/24657463/Gau-21134.inp" -scrdir="/local_scratch/24657463/"
 Entering Link 1 = /software/gaussian/g16-c01/sse4/g16/l1.exe PID=     21138.
  
 Copyright (c) 1988-2019, Gaussian, Inc.  All Rights Reserved.
  
 This is part of the Gaussian(R) 16 program.  It is based on
 the Gaussian(R) 09 system (copyright 2009, Gaussian, Inc.),
 the Gaussian(R) 03 system (copyright 2003, Gaussian, Inc.),
 the Gaussian(R) 98 system (copyright 1998, Gaussian, Inc.),
 the Gaussian(R) 94 system (copyright 1995, Gaussian, Inc.),
 the Gaussian 92(TM) system (copyright 1992, Gaussian, Inc.),
 the Gaussian 90(TM) system (copyright 1990, Gaussian, Inc.),
 the Gaussian 88(TM) system (copyright 1988, Gaussian, Inc.),
 the Gaussian 86(TM) system (copyright 1986, Carnegie Mellon
 University), and the Gaussian 82(TM) system (copyright 1983,
 Carnegie Mellon University). Gaussian is a federally registered
 trademark of Gaussian, Inc.
  
 This software contains proprietary and confidential information,
 including trade secrets, belonging to Gaussian, Inc.
  
 This software is provided under written license and may be
 used, copied, transmitted, or stored only in accord with that
 written license.
  
 The following legend is applicable only to US Government
 contracts under FAR:
  
                    RESTRICTED RIGHTS LEGEND
  
 Use, reproduction and disclosure by the US Government is
 subject to restrictions as set forth in subparagraphs (a)
 and (c) of the Commercial Computer Software - Restricted
 Rights clause in FAR 52.227-19.
  
 Gaussian, Inc.
 340 Quinnipiac St., Bldg. 40, Wallingford CT 06492
  
  
 ---------------------------------------------------------------
 Warning -- This program may not be used in any manner that
 competes with the business of Gaussian, Inc. or will provide
 assistance to any competitor of Gaussian, Inc.  The licensee
 of this program is prohibited from giving any competitor of
 Gaussian, Inc. access to this program.  By using this program,
 the user acknowledges that Gaussian, Inc. is engaged in the
 business of creating and licensing software in the field of
 computational chemistry and represents and warrants to the
 licensee that it is not a competitor of Gaussian, Inc. and that
 it will not use this program in any manner prohibited above.
 ---------------------------------------------------------------
  

 Cite this work as:
 Gaussian 16, Revision C.01,
 M. J. Frisch, G. W. Trucks, H. B. Schlegel, G. E. Scuseria, 
 M. A. Robb, J. R. Cheeseman, G. Scalmani, V. Barone, 
 G. A. Petersson, H. Nakatsuji, X. Li, M. Caricato, A. V. Marenich, 
 J. Bloino, B. G. Janesko, R. Gomperts, B. Mennucci, H. P. Hratchian, 
 J. V. Ortiz, A. F. Izmaylov, J. L. Sonnenberg, D. Williams-Young, 
 F. Ding, F. Lipparini, F. Egidi, J. Goings, B. Peng, A. Petrone, 
 T. Henderson, D. Ranasinghe, V. G. Zakrzewski, J. Gao, N. Rega, 
 G. Zheng, W. Liang, M. Hada, M. Ehara, K. Toyota, R. Fukuda, 
 J. Hasegawa, M. Ishida, T. Nakajima, Y. Honda, O. Kitao, H. Nakai, 
 T. Vreven, K. Throssell, J. A. Montgomery, Jr., J. E. Peralta, 
 F. Ogliaro, M. J. Bearpark, J. J. Heyd, E. N. Brothers, K. N. Kudin, 
 V. N. Staroverov, T. A. Keith, R. Kobayashi, J. Normand, 
 K. Raghavachari, A. P. Rendell, J. C. Burant, S. S. Iyengar, 
 J. Tomasi, M. Cossi, J. M. Millam, M. Klene, C. Adamo, R. Cammi, 
 J. W. Ochterski, R. L. Martin, K. Morokuma, O. Farkas, 
 J. B. Foresman, and D. J. Fox, Gaussian, Inc., Wallingford CT, 2019.
 
 ******************************************
 Gaussian 16:  ES64L-G16RevC.01  3-Jul-2019
                 1-May-2024 
 ******************************************
 %chk=geometry.chk
 %mem=9GB
 %nprocshared=12
 Will use up to   12 processors via shared memory.
 ----------------------------------------
 #P wB97XD/6-311+G* NoSymm #P Field=X+214
 ----------------------------------------
 1/38=1,172=1/1;
 2/12=2,15=1,17=6,18=5,40=1/2;
 3/5=4,6=6,7=11,11=2,14=1,15=214,25=1,30=1,74=-58/1,2,3;
 4//1;
 5/5=2,38=5/2;
 6/7=2,8=2,9=2,10=2,28=1/1;
 99/5=1,9=1/99;
 Leave Link    1 at Wed May  1 14:27:50 2024, MaxMem=  1207959552 cpu:               4.8 elap:               4.8
 (Enter /software/gaussian/g16-c01/sse4/g16/l101.exe)
 -------
 TitleMe
 -------
 Symbolic Z-matrix:
 Charge =  1 Multiplicity = 1
 C                     0.0295    1.3397    0.0682 
 C                     1.4348    1.2867    0.0064 
 C                     2.1118    0.0511   -0.0054 
 C                     1.4451   -1.1372    0.0312 
 C                    -0.6879    0.1682    0.11 
 H                    -0.4713    2.2984    0.0781 
 H                     2.0273    2.1965   -0.0322 
 H                     1.9897   -2.0764    0.0232 
 H                    -1.7716    0.1804    0.1582 
 N                     3.5864    0.051    -0.0675 
 O                     4.1471   -1.0597   -0.0881 
 O                     4.145     1.1639   -0.0901 
 C                    -0.0236   -1.1458    0.0835 
 H                    -0.4367   -1.8725    0.7889 
 Br                   -0.5359   -1.8697   -1.7408 
 
 ITRead=  0  0  0  0  0  0  0  0  0  0  0  0  0  0  0
 MicOpt= -1 -1 -1 -1 -1 -1 -1 -1 -1 -1 -1 -1 -1 -1 -1
 NAtoms=     15 NQM=       15 NQMF=       0 NMMI=      0 NMMIF=      0
                NMic=       0 NMicF=      0.
                    Isotopes and Nuclear Properties:
 (Nuclear quadrupole moments (NQMom) in fm**2, nuclear magnetic moments (NMagM)
  in nuclear magnetons)

  Atom         1           2           3           4           5           6           7           8           9          10
 IAtWgt=          12          12          12          12          12           1           1           1           1          14
 AtmWgt=  12.0000000  12.0000000  12.0000000  12.0000000  12.0000000   1.0078250   1.0078250   1.0078250   1.0078250  14.0030740
 NucSpn=           0           0           0           0           0           1           1           1           1           2
 AtZEff=  -0.0000000  -0.0000000  -0.0000000  -0.0000000  -0.0000000  -0.0000000  -0.0000000  -0.0000000  -0.0000000  -0.0000000
 NQMom=    0.0000000   0.0000000   0.0000000   0.0000000   0.0000000   0.0000000   0.0000000   0.0000000   0.0000000   2.0440000
 NMagM=    0.0000000   0.0000000   0.0000000   0.0000000   0.0000000   2.7928460   2.7928460   2.7928460   2.7928460   0.4037610
 AtZNuc=   6.0000000   6.0000000   6.0000000   6.0000000   6.0000000   1.0000000   1.0000000   1.0000000   1.0000000   7.0000000

  Atom        11          12          13          14          15
 IAtWgt=          16          16          12           1          79
 AtmWgt=  15.9949146  15.9949146  12.0000000   1.0078250  78.9183361
 NucSpn=           0           0           0           1           3
 AtZEff=  -0.0000000  -0.0000000  -0.0000000  -0.0000000  -0.0000000
 NQMom=    0.0000000   0.0000000   0.0000000   0.0000000  31.3000000
 NMagM=    0.0000000   0.0000000   0.0000000   2.7928460   2.1063990
 AtZNuc=   8.0000000   8.0000000   6.0000000   1.0000000  35.0000000
 Leave Link  101 at Wed May  1 14:27:56 2024, MaxMem=  1207959552 cpu:               3.8 elap:               3.8
 (Enter /software/gaussian/g16-c01/sse4/g16/l202.exe)
                          Input orientation:                          
 ---------------------------------------------------------------------
 Center     Atomic      Atomic             Coordinates (Angstroms)
 Number     Number       Type             X           Y           Z
 ---------------------------------------------------------------------
      1          6           0        0.029500    1.339700    0.068200
      2          6           0        1.434800    1.286700    0.006400
      3          6           0        2.111800    0.051100   -0.005400
      4          6           0        1.445100   -1.137200    0.031200
      5          6           0       -0.687900    0.168200    0.110000
      6          1           0       -0.471300    2.298400    0.078100
      7          1           0        2.027300    2.196500   -0.032200
      8          1           0        1.989700   -2.076400    0.023200
      9          1           0       -1.771600    0.180400    0.158200
     10          7           0        3.586400    0.051000   -0.067500
     11          8           0        4.147100   -1.059700   -0.088100
     12          8           0        4.145000    1.163900   -0.090100
     13          6           0       -0.023600   -1.145800    0.083500
     14          1           0       -0.436700   -1.872500    0.788900
     15         35           0       -0.535900   -1.869700   -1.740800
 ---------------------------------------------------------------------
                    Distance matrix (angstroms):
                    1          2          3          4          5
     1  C    0.000000
     2  C    1.407656   0.000000
     3  C    2.449874   1.408963   0.000000
     4  C    2.853126   2.424049   1.363043   0.000000
     5  C    1.374344   2.401589   2.804523   2.501993   0.000000
     6  H    1.081667   2.159142   3.424870   3.934226   2.141421
     7  H    2.176095   1.086408   2.147231   3.384750   3.392128
     8  H    3.938800   3.408612   2.131193   1.085702   3.495040
     9  H    2.143837   3.395283   3.888995   3.478413   1.084840
    10  N    3.785591   2.482297   1.475907   2.450862   4.279589
    11  O    4.768247   3.587631   2.320164   2.705743   4.992415
    12  O    4.122294   2.714696   2.319353   3.549540   4.938459
    13  C    2.486114   2.837240   2.449573   1.469656   1.472614
    14  H    3.324903   3.754379   3.290289   2.157764   2.165286
    15  Br   3.727252   4.110867   3.702891   2.756973   2.757100
                    6          7          8          9         10
     6  H    0.000000
     7  H    2.503108   0.000000
     8  H    5.019802   4.273425   0.000000
     9  H    2.486588   4.304945   4.388479   0.000000
    10  N    4.640790   2.652397   2.661486   5.364313   0.000000
    11  O    5.712624   3.885809   2.387560   6.052233   1.244373
    12  O    4.756638   2.356750   3.893289   6.002923   1.245428
    13  C    3.473180   3.923079   2.218790   2.195425   3.806210
    14  H    4.231175   4.827242   2.552506   2.528663   4.540772
    15  Br   4.548146   5.101303   3.087568   3.055498   4.845862
                   11         12         13         14         15
    11  O    0.000000
    12  O    2.223602   0.000000
    13  C    4.175117   4.768865   0.000000
    14  H    4.737193   5.566358   1.093770   0.000000
    15  Br   5.031700   5.817075   2.028436   2.531646   0.000000
 Symmetry turned off by external request.
 Stoichiometry    C6H5BrNO2(1+)
 Framework group  C1[X(C6H5BrNO2)]
 Deg. of freedom    39
 Full point group                 C1      NOp   1
 Rotational constants (GHZ):           1.8252210           0.5518633           0.4576002
 Leave Link  202 at Wed May  1 14:27:58 2024, MaxMem=  1207959552 cpu:               1.2 elap:               1.2
 (Enter /software/gaussian/g16-c01/sse4/g16/l301.exe)
 Standard basis: 6-311+G(d) (5D, 7F)
 Ernie: Thresh=  0.10000D-02 Tol=  0.10000D-05 Strict=F.
 The following finite field(s) will be applied:
 An electric field of              0.0214  0.0000  0.0000
   261 basis functions,   443 primitive gaussians,   273 cartesian basis functions
    49 alpha electrons       49 beta electrons
       nuclear repulsion energy       739.2122215416 Hartrees.
 IExCor= 4639 DFT=T Ex+Corr=wB97XD ExCW=0 ScaHFX=  1.000000
 ScaDFX=  1.000000  1.000000  1.000000  1.000000 ScalE2=  1.000000  1.000000
 IRadAn=      5 IRanWt=     -1 IRanGd=            0 ICorTp=0 IEmpDi=121
 HFx  wShort=  0.000000 wLong=  0.200000 cFull=  0.222036 cShort=  0.000000 cLong=  0.777964
 DFx  wShort=  0.000000 wLong=  0.200000 cFull=  0.000000 cShort=  0.000000 cLong=  1.000000
 NAtoms=   15 NActive=   15 NUniq=   15 SFac= 1.00D+00 NAtFMM=   60 NAOKFM=F Big=F
 Integral buffers will be    131072 words long.
 Raffenetti 2 integral format.
 Two-electron integral symmetry is turned off.
 R6Disp:  Grimme-D2 Dispersion energy=       -0.0077368520 Hartrees.
 Nuclear repulsion after empirical dispersion term =      739.2044846896 Hartrees.
 Leave Link  301 at Wed May  1 14:27:58 2024, MaxMem=  1207959552 cpu:               0.8 elap:               0.8
 (Enter /software/gaussian/g16-c01/sse4/g16/l302.exe)
 NPDir=0 NMtPBC=     1 NCelOv=     1 NCel=       1 NClECP=     1 NCelD=      1
         NCelK=      1 NCelE2=     1 NClLst=     1 CellRange=     0.0.
 One-electron integrals computed using PRISM.
 NBasis=   261 RedAO= T EigKep=  2.35D-06  NBF=   261
 NBsUse=   261 1.00D-06 EigRej= -1.00D+00 NBFU=   261
 Precomputing XC quadrature grid using
 IXCGrd= 4 IRadAn=           5 IRanWt=          -1 IRanGd=           0 AccXCQ= 0.00D+00.
 Generated NRdTot=       0 NPtTot=           0 NUsed=           0 NTot=          32
 NSgBfM=   273   273   273   273   273 MxSgAt=    15 MxSgA2=    15.
 Leave Link  302 at Wed May  1 14:28:21 2024, MaxMem=  1207959552 cpu:              21.8 elap:              21.8
 (Enter /software/gaussian/g16-c01/sse4/g16/l303.exe)
 DipDrv:  MaxL=1.
 The nuclear repulsion energy is now       743.2436740875 hartrees.
 Leave Link  303 at Wed May  1 14:28:24 2024, MaxMem=  1207959552 cpu:               3.4 elap:               3.4
 (Enter /software/gaussian/g16-c01/sse4/g16/l401.exe)
 ExpMin= 3.50D-02 ExpMax= 4.40D+05 ExpMxC= 1.51D+04 IAcc=3 IRadAn=         5 AccDes= 0.00D+00
 Harris functional with IExCor= 4639 and IRadAn=       5 diagonalized for initial guess.
 HarFok:  IExCor= 4639 AccDes= 0.00D+00 IRadAn=         5 IDoV= 1 UseB2=F ITyADJ=14
 ICtDFT=  3500011 ScaDFX=  1.000000  1.000000  1.000000  1.000000
 FoFCou: FMM=F IPFlag=           0 FMFlag=      100000 FMFlg1=           0
         NFxFlg=           0 DoJE=T BraDBF=F KetDBF=T FulRan=T
         wScrn=  0.000000 ICntrl=       500 IOpCl=  0 I1Cent=   200000004 NGrid=           0
         NMat0=    1 NMatS0=      1 NMatT0=    0 NMatD0=    1 NMtDS0=    0 NMtDT0=    0
 Symmetry not used in FoFCou.
 Harris En= -2970.66210411022    
 JPrj=0 DoOrth=F DoCkMO=F.
 Leave Link  401 at Wed May  1 14:28:55 2024, MaxMem=  1207959552 cpu:              30.5 elap:              30.5
 (Enter /software/gaussian/g16-c01/sse4/g16/l502.exe)
 Two-electron integral symmetry not used.
 Closed shell SCF:
 Using DIIS extrapolation, IDIIS=  1040.
 NGot=  1207959552 LenX=  1207804877 LenY=  1207729907
 Requested convergence on RMS density matrix=1.00D-08 within 128 cycles.
 Requested convergence on MAX density matrix=1.00D-06.
 Requested convergence on             energy=1.00D-06.
 No special actions if energy rises.
 Fock matrices will be formed incrementally for  20 cycles.

 Cycle   1  Pass 1  IDiag  1:
 FoFJK:  IHMeth= 1 ICntrl=       0 DoSepK=T KAlg= 0 I1Cent=           0 FoldK=F
 IRaf=         1 NMat=       1 IRICut=       1 DoRegI=T DoRafI=F ISym2E= 0 IDoP0=0 IntGTp=1.
 FoFCou: FMM=F IPFlag=           0 FMFlag=      100000 FMFlg1=           0
         NFxFlg=           0 DoJE=T BraDBF=F KetDBF=F FulRan=T
         wScrn=  0.000000 ICntrl=       500 IOpCl=  0 I1Cent=           0 NGrid=           0
         NMat0=    1 NMatS0=      1 NMatT0=    0 NMatD0=    1 NMtDS0=    0 NMtDT0=    0
 Symmetry not used in FoFCou.
 E= -3009.70175678431    
 DIIS: error= 3.21D-01 at cycle   1 NSaved=   1.
 NSaved= 1 IEnMin= 1 EnMin= -3009.70175678431     IErMin= 1 ErrMin= 3.21D-01
 ErrMax= 3.21D-01  0.00D+00 EMaxC= 1.00D-01 BMatC= 1.20D+01 BMatP= 1.20D+01
 IDIUse=3 WtCom= 0.00D+00 WtEn= 1.00D+00
 Coeff-Com:  0.100D+01
 Coeff-En:   0.100D+01
 Coeff:      0.100D+01
 Gap=     0.561 Goal=   None    Shift=    0.000
 GapD=    0.561 DampG=2.000 DampE=0.250 DampFc=0.5000 IDamp=-1.
 Damping current iteration by 5.00D-01
 RMSDP=8.64D-02 MaxDP=9.68D+00              OVMax= 2.56D-01

 Cycle   2  Pass 1  IDiag  1:
 RMSU=  1.08D-02    CP:  6.92D-01
 E= -3010.14069831231     Delta-E=       -0.438941528002 Rises=F Damp=T
 DIIS: error= 1.43D-01 at cycle   2 NSaved=   2.
 NSaved= 2 IEnMin= 2 EnMin= -3010.14069831231     IErMin= 2 ErrMin= 1.43D-01
 ErrMax= 1.43D-01  0.00D+00 EMaxC= 1.00D-01 BMatC= 1.75D+00 BMatP= 1.20D+01
 IDIUse=3 WtCom= 0.00D+00 WtEn= 1.00D+00
 Coeff-Com: -0.409D+00 0.141D+01
 Coeff-En:   0.000D+00 0.100D+01
 Coeff:      0.000D+00 0.100D+01
 Gap=     0.296 Goal=   None    Shift=    0.000
 RMSDP=4.14D-02 MaxDP=4.16D+00 DE=-4.39D-01 OVMax= 1.44D-01

 Cycle   3  Pass 1  IDiag  1:
 RMSU=  8.16D-03    CP:  3.94D-01  1.39D+00
 E= -3010.55541154172     Delta-E=       -0.414713229414 Rises=F Damp=F
 DIIS: error= 9.52D-03 at cycle   3 NSaved=   3.
 NSaved= 3 IEnMin= 3 EnMin= -3010.55541154172     IErMin= 3 ErrMin= 9.52D-03
 ErrMax= 9.52D-03  0.00D+00 EMaxC= 1.00D-01 BMatC= 3.25D-02 BMatP= 1.75D+00
 IDIUse=3 WtCom= 9.05D-01 WtEn= 9.52D-02
 Coeff-Com:  0.290D-01 0.322D-02 0.968D+00
 Coeff-En:   0.000D+00 0.000D+00 0.100D+01
 Coeff:      0.262D-01 0.292D-02 0.971D+00
 Gap=     0.256 Goal=   None    Shift=    0.000
 RMSDP=3.90D-03 MaxDP=3.11D-01 DE=-4.15D-01 OVMax= 6.24D-02

 Cycle   4  Pass 1  IDiag  1:
 RMSU=  3.72D-03    CP:  3.94D-01  1.45D+00  1.12D+00
 E= -3010.55000327409     Delta-E=        0.005408267637 Rises=F Damp=F
 DIIS: error= 1.52D-02 at cycle   4 NSaved=   4.
 NSaved= 4 IEnMin= 3 EnMin= -3010.55541154172     IErMin= 3 ErrMin= 9.52D-03
 ErrMax= 1.52D-02  0.00D+00 EMaxC= 1.00D-01 BMatC= 3.07D-02 BMatP= 3.25D-02
 IDIUse=3 WtCom= 8.48D-01 WtEn= 1.52D-01
 Coeff-Com:  0.266D-01-0.361D-01 0.546D+00 0.463D+00
 Coeff-En:   0.000D+00 0.000D+00 0.581D+00 0.419D+00
 Coeff:      0.225D-01-0.306D-01 0.552D+00 0.456D+00
 Gap=     0.248 Goal=   None    Shift=    0.000
 RMSDP=2.26D-03 MaxDP=2.24D-01 DE= 5.41D-03 OVMax= 4.02D-02

 Cycle   5  Pass 1  IDiag  1:
 RMSU=  1.07D-03    CP:  3.82D-01  1.39D+00  1.24D+00  8.62D-01
 E= -3010.56927919425     Delta-E=       -0.019275920160 Rises=F Damp=F
 DIIS: error= 1.67D-03 at cycle   5 NSaved=   5.
 NSaved= 5 IEnMin= 5 EnMin= -3010.56927919425     IErMin= 5 ErrMin= 1.67D-03
 ErrMax= 1.67D-03  0.00D+00 EMaxC= 1.00D-01 BMatC= 2.52D-04 BMatP= 3.07D-02
 IDIUse=3 WtCom= 9.83D-01 WtEn= 1.67D-02
 Coeff-Com:  0.681D-02-0.947D-02 0.159D+00 0.154D+00 0.690D+00
 Coeff-En:   0.000D+00 0.000D+00 0.000D+00 0.000D+00 0.100D+01
 Coeff:      0.669D-02-0.931D-02 0.156D+00 0.151D+00 0.695D+00
 Gap=     0.245 Goal=   None    Shift=    0.000
 RMSDP=5.14D-04 MaxDP=4.55D-02 DE=-1.93D-02 OVMax= 7.15D-03

 Cycle   6  Pass 1  IDiag  1:
 RMSU=  3.84D-04    CP:  3.81D-01  1.38D+00  1.26D+00  7.95D-01  1.02D+00
 E= -3010.56953070080     Delta-E=       -0.000251506559 Rises=F Damp=F
 DIIS: error= 4.37D-04 at cycle   6 NSaved=   6.
 NSaved= 6 IEnMin= 6 EnMin= -3010.56953070080     IErMin= 6 ErrMin= 4.37D-04
 ErrMax= 4.37D-04  0.00D+00 EMaxC= 1.00D-01 BMatC= 5.87D-05 BMatP= 2.52D-04
 IDIUse=3 WtCom= 9.96D-01 WtEn= 4.37D-03
 Coeff-Com: -0.182D-02 0.252D-02-0.274D-01-0.192D-01 0.306D+00 0.740D+00
 Coeff-En:   0.000D+00 0.000D+00 0.000D+00 0.000D+00 0.000D+00 0.100D+01
 Coeff:     -0.181D-02 0.251D-02-0.272D-01-0.191D-01 0.304D+00 0.741D+00
 Gap=     0.246 Goal=   None    Shift=    0.000
 RMSDP=4.58D-04 MaxDP=2.52D-02 DE=-2.52D-04 OVMax= 5.10D-03

 Cycle   7  Pass 1  IDiag  1:
 RMSU=  1.18D-04    CP:  3.79D-01  1.39D+00  1.28D+00  8.63D-01  1.18D+00
                    CP:  9.15D-01
 E= -3010.56962166022     Delta-E=       -0.000090959420 Rises=F Damp=F
 DIIS: error= 2.53D-04 at cycle   7 NSaved=   7.
 NSaved= 7 IEnMin= 7 EnMin= -3010.56962166022     IErMin= 7 ErrMin= 2.53D-04
 ErrMax= 2.53D-04  0.00D+00 EMaxC= 1.00D-01 BMatC= 7.79D-06 BMatP= 5.87D-05
 IDIUse=3 WtCom= 9.97D-01 WtEn= 2.53D-03
 Coeff-Com: -0.142D-02 0.191D-02-0.289D-01-0.260D-01 0.462D-01 0.307D+00
 Coeff-Com:  0.702D+00
 Coeff-En:   0.000D+00 0.000D+00 0.000D+00 0.000D+00 0.000D+00 0.000D+00
 Coeff-En:   0.100D+01
 Coeff:     -0.141D-02 0.191D-02-0.288D-01-0.259D-01 0.461D-01 0.306D+00
 Coeff:      0.702D+00
 Gap=     0.246 Goal=   None    Shift=    0.000
 RMSDP=9.76D-05 MaxDP=4.77D-03 DE=-9.10D-05 OVMax= 2.22D-03

 Cycle   8  Pass 1  IDiag  1:
 RMSU=  3.92D-05    CP:  3.79D-01  1.39D+00  1.28D+00  8.73D-01  1.22D+00
                    CP:  1.01D+00  1.21D+00
 E= -3010.56963538603     Delta-E=       -0.000013725809 Rises=F Damp=F
 DIIS: error= 1.90D-04 at cycle   8 NSaved=   8.
 NSaved= 8 IEnMin= 8 EnMin= -3010.56963538603     IErMin= 8 ErrMin= 1.90D-04
 ErrMax= 1.90D-04  0.00D+00 EMaxC= 1.00D-01 BMatC= 3.17D-06 BMatP= 7.79D-06
 IDIUse=3 WtCom= 9.98D-01 WtEn= 1.90D-03
 Coeff-Com: -0.296D-03 0.328D-03-0.102D-01-0.112D-01-0.641D-01-0.216D-01
 Coeff-Com:  0.441D+00 0.666D+00
 Coeff-En:   0.000D+00 0.000D+00 0.000D+00 0.000D+00 0.000D+00 0.000D+00
 Coeff-En:   0.000D+00 0.100D+01
 Coeff:     -0.296D-03 0.328D-03-0.102D-01-0.111D-01-0.640D-01-0.216D-01
 Coeff:      0.440D+00 0.667D+00
 Gap=     0.246 Goal=   None    Shift=    0.000
 RMSDP=6.49D-05 MaxDP=4.13D-03 DE=-1.37D-05 OVMax= 1.38D-03

 Cycle   9  Pass 1  IDiag  1:
 RMSU=  2.72D-05    CP:  3.79D-01  1.39D+00  1.29D+00  8.74D-01  1.24D+00
                    CP:  1.10D+00  1.42D+00  1.05D+00
 E= -3010.56964094802     Delta-E=       -0.000005561983 Rises=F Damp=F
 DIIS: error= 5.93D-05 at cycle   9 NSaved=   9.
 NSaved= 9 IEnMin= 9 EnMin= -3010.56964094802     IErMin= 9 ErrMin= 5.93D-05
 ErrMax= 5.93D-05  0.00D+00 EMaxC= 1.00D-01 BMatC= 6.14D-07 BMatP= 3.17D-06
 IDIUse=1 WtCom= 1.00D+00 WtEn= 0.00D+00
 Coeff-Com:  0.181D-03-0.281D-03 0.143D-02-0.476D-04-0.456D-01-0.776D-01
 Coeff-Com:  0.873D-01 0.376D+00 0.659D+00
 Coeff:      0.181D-03-0.281D-03 0.143D-02-0.476D-04-0.456D-01-0.776D-01
 Coeff:      0.873D-01 0.376D+00 0.659D+00
 Gap=     0.246 Goal=   None    Shift=    0.000
 RMSDP=2.72D-05 MaxDP=1.19D-03 DE=-5.56D-06 OVMax= 6.65D-04

 Cycle  10  Pass 1  IDiag  1:
 RMSU=  1.13D-05    CP:  3.79D-01  1.39D+00  1.29D+00  8.75D-01  1.25D+00
                    CP:  1.11D+00  1.54D+00  1.21D+00  1.26D+00
 E= -3010.56964219577     Delta-E=       -0.000001247751 Rises=F Damp=F
 DIIS: error= 1.17D-05 at cycle  10 NSaved=  10.
 NSaved=10 IEnMin=10 EnMin= -3010.56964219577     IErMin=10 ErrMin= 1.17D-05
 ErrMax= 1.17D-05  0.00D+00 EMaxC= 1.00D-01 BMatC= 5.02D-08 BMatP= 6.14D-07
 IDIUse=1 WtCom= 1.00D+00 WtEn= 0.00D+00
 Coeff-Com:  0.780D-04-0.833D-04 0.230D-02 0.196D-02 0.948D-03-0.148D-01
 Coeff-Com: -0.607D-01-0.425D-01 0.116D+00 0.997D+00
 Coeff:      0.780D-04-0.833D-04 0.230D-02 0.196D-02 0.948D-03-0.148D-01
 Coeff:     -0.607D-01-0.425D-01 0.116D+00 0.997D+00
 Gap=     0.246 Goal=   None    Shift=    0.000
 RMSDP=1.97D-05 MaxDP=1.29D-03 DE=-1.25D-06 OVMax= 5.48D-04

 Cycle  11  Pass 1  IDiag  1:
 RMSU=  4.56D-06    CP:  3.79D-01  1.39D+00  1.29D+00  8.74D-01  1.25D+00
                    CP:  1.12D+00  1.61D+00  1.30D+00  1.57D+00  1.36D+00
 E= -3010.56964248596     Delta-E=       -0.000000290192 Rises=F Damp=F
 DIIS: error= 6.20D-06 at cycle  11 NSaved=  11.
 NSaved=11 IEnMin=11 EnMin= -3010.56964248596     IErMin=11 ErrMin= 6.20D-06
 ErrMax= 6.20D-06  0.00D+00 EMaxC= 1.00D-01 BMatC= 1.21D-08 BMatP= 5.02D-08
 IDIUse=1 WtCom= 1.00D+00 WtEn= 0.00D+00
 Coeff-Com: -0.594D-05 0.135D-04 0.306D-03 0.491D-03 0.937D-02 0.118D-01
 Coeff-Com: -0.294D-01-0.845D-01-0.103D+00 0.324D+00 0.871D+00
 Coeff:     -0.594D-05 0.135D-04 0.306D-03 0.491D-03 0.937D-02 0.118D-01
 Coeff:     -0.294D-01-0.845D-01-0.103D+00 0.324D+00 0.871D+00
 Gap=     0.246 Goal=   None    Shift=    0.000
 RMSDP=1.06D-05 MaxDP=8.19D-04 DE=-2.90D-07 OVMax= 2.70D-04

 Cycle  12  Pass 1  IDiag  1:
 RMSU=  1.76D-06    CP:  3.79D-01  1.39D+00  1.29D+00  8.74D-01  1.25D+00
                    CP:  1.12D+00  1.63D+00  1.32D+00  1.73D+00  1.66D+00
                    CP:  1.28D+00
 E= -3010.56964254834     Delta-E=       -0.000000062384 Rises=F Damp=F
 DIIS: error= 2.77D-06 at cycle  12 NSaved=  12.
 NSaved=12 IEnMin=12 EnMin= -3010.56964254834     IErMin=12 ErrMin= 2.77D-06
 ErrMax= 2.77D-06  0.00D+00 EMaxC= 1.00D-01 BMatC= 2.56D-09 BMatP= 1.21D-08
 IDIUse=1 WtCom= 1.00D+00 WtEn= 0.00D+00
 Coeff-Com: -0.903D-05 0.660D-05-0.267D-03-0.151D-03 0.225D-02 0.554D-02
 Coeff-Com:  0.208D-02-0.208D-01-0.580D-01-0.767D-01 0.273D+00 0.873D+00
 Coeff:     -0.903D-05 0.660D-05-0.267D-03-0.151D-03 0.225D-02 0.554D-02
 Coeff:      0.208D-02-0.208D-01-0.580D-01-0.767D-01 0.273D+00 0.873D+00
 Gap=     0.246 Goal=   None    Shift=    0.000
 RMSDP=4.72D-06 MaxDP=2.86D-04 DE=-6.24D-08 OVMax= 1.55D-04

 Cycle  13  Pass 1  IDiag  1:
 RMSU=  1.09D-06    CP:  3.79D-01  1.38D+00  1.29D+00  8.73D-01  1.25D+00
                    CP:  1.12D+00  1.64D+00  1.32D+00  1.80D+00  1.80D+00
                    CP:  1.49D+00  1.24D+00
 E= -3010.56964256443     Delta-E=       -0.000000016087 Rises=F Damp=F
 DIIS: error= 1.30D-06 at cycle  13 NSaved=  13.
 NSaved=13 IEnMin=13 EnMin= -3010.56964256443     IErMin=13 ErrMin= 1.30D-06
 ErrMax= 1.30D-06  0.00D+00 EMaxC= 1.00D-01 BMatC= 5.72D-10 BMatP= 2.56D-09
 IDIUse=1 WtCom= 1.00D+00 WtEn= 0.00D+00
 Coeff-Com: -0.150D-05 0.553D-06-0.135D-03-0.153D-03-0.210D-02-0.208D-02
 Coeff-Com:  0.869D-02 0.181D-01 0.157D-01-0.876D-01-0.198D+00 0.181D+00
 Coeff-Com:  0.107D+01
 Coeff:     -0.150D-05 0.553D-06-0.135D-03-0.153D-03-0.210D-02-0.208D-02
 Coeff:      0.869D-02 0.181D-01 0.157D-01-0.876D-01-0.198D+00 0.181D+00
 Coeff:      0.107D+01
 Gap=     0.246 Goal=   None    Shift=    0.000
 RMSDP=1.38D-06 MaxDP=9.63D-05 DE=-1.61D-08 OVMax= 9.34D-05

 Cycle  14  Pass 1  IDiag  1:
 RMSU=  5.25D-07    CP:  3.79D-01  1.38D+00  1.29D+00  8.73D-01  1.25D+00
                    CP:  1.12D+00  1.64D+00  1.32D+00  1.82D+00  1.84D+00
                    CP:  1.58D+00  1.58D+00  1.28D+00
 E= -3010.56964256887     Delta-E=       -0.000000004442 Rises=F Damp=F
 DIIS: error= 6.15D-07 at cycle  14 NSaved=  14.
 NSaved=14 IEnMin=14 EnMin= -3010.56964256887     IErMin=14 ErrMin= 6.15D-07
 ErrMax= 6.15D-07  0.00D+00 EMaxC= 1.00D-01 BMatC= 1.28D-10 BMatP= 5.72D-10
 IDIUse=1 WtCom= 1.00D+00 WtEn= 0.00D+00
 Coeff-Com: -0.426D-06 0.195D-05-0.119D-04-0.385D-04-0.128D-02-0.185D-02
 Coeff-Com:  0.348D-02 0.115D-01 0.178D-01-0.186D-01-0.147D+00-0.911D-01
 Coeff-Com:  0.403D+00 0.824D+00
 Coeff:     -0.426D-06 0.195D-05-0.119D-04-0.385D-04-0.128D-02-0.185D-02
 Coeff:      0.348D-02 0.115D-01 0.178D-01-0.186D-01-0.147D+00-0.911D-01
 Coeff:      0.403D+00 0.824D+00
 Gap=     0.246 Goal=   None    Shift=    0.000
 RMSDP=5.99D-07 MaxDP=3.38D-05 DE=-4.44D-09 OVMax= 3.56D-05

 Cycle  15  Pass 1  IDiag  1:
 RMSU=  2.00D-07    CP:  3.79D-01  1.38D+00  1.29D+00  8.73D-01  1.25D+00
                    CP:  1.12D+00  1.64D+00  1.32D+00  1.83D+00  1.85D+00
                    CP:  1.60D+00  1.72D+00  1.48D+00  1.27D+00
 E= -3010.56964256948     Delta-E=       -0.000000000602 Rises=F Damp=F
 DIIS: error= 3.44D-07 at cycle  15 NSaved=  15.
 NSaved=15 IEnMin=15 EnMin= -3010.56964256948     IErMin=15 ErrMin= 3.44D-07
 ErrMax= 3.44D-07  0.00D+00 EMaxC= 1.00D-01 BMatC= 1.46D-11 BMatP= 1.28D-10
 IDIUse=1 WtCom= 1.00D+00 WtEn= 0.00D+00
 Coeff-Com:  0.572D-06-0.696D-06 0.231D-04 0.267D-04 0.272D-03 0.225D-03
 Coeff-Com: -0.123D-02-0.269D-02-0.259D-02 0.152D-01 0.284D-01-0.218D-01
 Coeff-Com: -0.197D+00 0.789D-01 0.110D+01
 Coeff:      0.572D-06-0.696D-06 0.231D-04 0.267D-04 0.272D-03 0.225D-03
 Coeff:     -0.123D-02-0.269D-02-0.259D-02 0.152D-01 0.284D-01-0.218D-01
 Coeff:     -0.197D+00 0.789D-01 0.110D+01
 Gap=     0.246 Goal=   None    Shift=    0.000
 RMSDP=2.88D-07 MaxDP=1.78D-05 DE=-6.02D-10 OVMax= 1.18D-05

 Cycle  16  Pass 1  IDiag  1:
 RMSU=  7.77D-08    CP:  3.79D-01  1.38D+00  1.29D+00  8.73D-01  1.25D+00
                    CP:  1.12D+00  1.64D+00  1.32D+00  1.83D+00  1.86D+00
                    CP:  1.58D+00  1.74D+00  1.56D+00  1.46D+00  1.28D+00
 E= -3010.56964256964     Delta-E=       -0.000000000160 Rises=F Damp=F
 DIIS: error= 8.56D-08 at cycle  16 NSaved=  16.
 NSaved=16 IEnMin=16 EnMin= -3010.56964256964     IErMin=16 ErrMin= 8.56D-08
 ErrMax= 8.56D-08  0.00D+00 EMaxC= 1.00D-01 BMatC= 2.35D-12 BMatP= 1.46D-11
 IDIUse=1 WtCom= 1.00D+00 WtEn= 0.00D+00
 Coeff-Com:  0.307D-06-0.655D-06 0.817D-05 0.127D-04 0.258D-03 0.316D-03
 Coeff-Com: -0.810D-03-0.243D-02-0.343D-02 0.703D-02 0.295D-01 0.645D-02
 Coeff-Com: -0.121D+00-0.860D-01 0.310D+00 0.861D+00
 Coeff:      0.307D-06-0.655D-06 0.817D-05 0.127D-04 0.258D-03 0.316D-03
 Coeff:     -0.810D-03-0.243D-02-0.343D-02 0.703D-02 0.295D-01 0.645D-02
 Coeff:     -0.121D+00-0.860D-01 0.310D+00 0.861D+00
 Gap=     0.246 Goal=   None    Shift=    0.000
 RMSDP=8.06D-08 MaxDP=4.48D-06 DE=-1.60D-10 OVMax= 3.31D-06

 Cycle  17  Pass 1  IDiag  1:
 RMSU=  2.53D-08    CP:  3.79D-01  1.38D+00  1.29D+00  8.73D-01  1.25D+00
                    CP:  1.12D+00  1.65D+00  1.32D+00  1.83D+00  1.86D+00
                    CP:  1.58D+00  1.75D+00  1.56D+00  1.52D+00  1.46D+00
                    CP:  1.12D+00
 E= -3010.56964256966     Delta-E=       -0.000000000019 Rises=F Damp=F
 DIIS: error= 4.71D-08 at cycle  17 NSaved=  17.
 NSaved=17 IEnMin=17 EnMin= -3010.56964256966     IErMin=17 ErrMin= 4.71D-08
 ErrMax= 4.71D-08  0.00D+00 EMaxC= 1.00D-01 BMatC= 2.46D-13 BMatP= 2.35D-12
 IDIUse=1 WtCom= 1.00D+00 WtEn= 0.00D+00
 Coeff-Com: -0.355D-07 0.780D-08-0.712D-06-0.183D-06 0.396D-04 0.581D-04
 Coeff-Com: -0.571D-04-0.333D-03-0.663D-03 0.125D-03 0.447D-02 0.376D-02
 Coeff-Com: -0.960D-02-0.292D-01-0.403D-01 0.218D+00 0.853D+00
 Coeff:     -0.355D-07 0.780D-08-0.712D-06-0.183D-06 0.396D-04 0.581D-04
 Coeff:     -0.571D-04-0.333D-03-0.663D-03 0.125D-03 0.447D-02 0.376D-02
 Coeff:     -0.960D-02-0.292D-01-0.403D-01 0.218D+00 0.853D+00
 Gap=     0.246 Goal=   None    Shift=    0.000
 RMSDP=2.39D-08 MaxDP=1.23D-06 DE=-1.91D-11 OVMax= 6.58D-07

 Cycle  18  Pass 1  IDiag  1:
 RMSU=  7.22D-09    CP:  3.79D-01  1.38D+00  1.29D+00  8.73D-01  1.25D+00
                    CP:  1.12D+00  1.65D+00  1.32D+00  1.83D+00  1.86D+00
                    CP:  1.58D+00  1.75D+00  1.55D+00  1.53D+00  1.48D+00
                    CP:  1.21D+00  1.19D+00
 E= -3010.56964256965     Delta-E=        0.000000000003 Rises=F Damp=F
 DIIS: error= 1.12D-08 at cycle  18 NSaved=  18.
 NSaved=18 IEnMin=17 EnMin= -3010.56964256966     IErMin=18 ErrMin= 1.12D-08
 ErrMax= 1.12D-08  0.00D+00 EMaxC= 1.00D-01 BMatC= 5.82D-14 BMatP= 2.46D-13
 IDIUse=1 WtCom= 1.00D+00 WtEn= 0.00D+00
 Coeff-Com: -0.508D-07 0.994D-07-0.133D-05-0.197D-05-0.341D-04-0.431D-04
 Coeff-Com:  0.130D-03 0.328D-03 0.397D-03-0.111D-02-0.396D-02 0.147D-03
 Coeff-Com:  0.190D-01 0.680D-02-0.600D-01-0.121D+00 0.219D+00 0.940D+00
 Coeff:     -0.508D-07 0.994D-07-0.133D-05-0.197D-05-0.341D-04-0.431D-04
 Coeff:      0.130D-03 0.328D-03 0.397D-03-0.111D-02-0.396D-02 0.147D-03
 Coeff:      0.190D-01 0.680D-02-0.600D-01-0.121D+00 0.219D+00 0.940D+00
 Gap=     0.246 Goal=   None    Shift=    0.000
 RMSDP=2.06D-08 MaxDP=1.91D-06 DE= 2.73D-12 OVMax= 3.56D-07

 Cycle  19  Pass 1  IDiag  1:
 RMSU=  4.28D-09    CP:  3.79D-01  1.38D+00  1.29D+00  8.73D-01  1.25D+00
                    CP:  1.12D+00  1.65D+00  1.32D+00  1.83D+00  1.86D+00
                    CP:  1.58D+00  1.75D+00  1.55D+00  1.52D+00  1.49D+00
                    CP:  1.24D+00  1.42D+00  1.39D+00
 E= -3010.56964256963     Delta-E=        0.000000000023 Rises=F Damp=F
 DIIS: error= 3.99D-09 at cycle  19 NSaved=  19.
 NSaved=19 IEnMin=17 EnMin= -3010.56964256966     IErMin=19 ErrMin= 3.99D-09
 ErrMax= 3.99D-09  0.00D+00 EMaxC= 1.00D-01 BMatC= 5.82D-15 BMatP= 5.82D-14
 IDIUse=1 WtCom= 1.00D+00 WtEn= 0.00D+00
 Coeff-Com: -0.939D-08 0.235D-07-0.182D-06-0.281D-06-0.911D-05-0.140D-04
 Coeff-Com:  0.271D-04 0.832D-04 0.122D-03-0.930D-04-0.118D-02-0.467D-03
 Coeff-Com:  0.396D-02 0.337D-02-0.295D-02-0.502D-01-0.403D-01 0.129D+00
 Coeff-Com:  0.959D+00
 Coeff:     -0.939D-08 0.235D-07-0.182D-06-0.281D-06-0.911D-05-0.140D-04
 Coeff:      0.271D-04 0.832D-04 0.122D-03-0.930D-04-0.118D-02-0.467D-03
 Coeff:      0.396D-02 0.337D-02-0.295D-02-0.502D-01-0.403D-01 0.129D+00
 Coeff:      0.959D+00
 Gap=     0.246 Goal=   None    Shift=    0.000
 RMSDP=6.54D-09 MaxDP=3.31D-07 DE= 2.27D-11 OVMax= 1.95D-07

 SCF Done:  E(RwB97XD) =  -3010.56964257     A.U. after   19 cycles
            NFock= 19  Conv=0.65D-08     -V/T= 2.0016
 KE= 3.005830180941D+03 PE=-8.635766100024D+03 EE= 1.876122602426D+03
 Leave Link  502 at Wed May  1 14:47:11 2024, MaxMem=  1207959552 cpu:            1096.1 elap:            1096.3
 (Enter /software/gaussian/g16-c01/sse4/g16/l601.exe)
 Copying SCF densities to generalized density rwf, IOpCl= 0 IROHF=0.

 **********************************************************************

            Population analysis using the SCF Density.

 **********************************************************************

 Alpha  occ. eigenvalues -- -483.32895 -62.87880 -56.67603 -56.66996 -56.66983
 Alpha  occ. eigenvalues --  -19.56645 -19.56556 -14.95785 -10.62368 -10.61380
 Alpha  occ. eigenvalues --  -10.60851 -10.60102 -10.58977 -10.55112  -9.03656
 Alpha  occ. eigenvalues --   -6.86411  -6.84430  -6.84383  -2.96296  -2.95780
 Alpha  occ. eigenvalues --   -2.95741  -2.94157  -2.94157  -1.60354  -1.43449
 Alpha  occ. eigenvalues --   -1.26520  -1.18274  -1.14828  -1.07689  -1.05899
 Alpha  occ. eigenvalues --   -0.98521  -0.95775  -0.92709  -0.90177  -0.88687
 Alpha  occ. eigenvalues --   -0.85597  -0.82676  -0.80800  -0.79023  -0.75340
 Alpha  occ. eigenvalues --   -0.71689  -0.70332  -0.67907  -0.67809  -0.66830
 Alpha  occ. eigenvalues --   -0.66664  -0.62670  -0.57404  -0.56886
 Alpha virt. eigenvalues --   -0.32270  -0.30216  -0.18753  -0.17282  -0.16302
 Alpha virt. eigenvalues --   -0.13362  -0.12274  -0.10967  -0.10281  -0.07906
 Alpha virt. eigenvalues --   -0.07015  -0.06189  -0.05215  -0.04565  -0.03825
 Alpha virt. eigenvalues --   -0.03428  -0.03085  -0.02027  -0.00812  -0.00313
 Alpha virt. eigenvalues --    0.00075   0.01137   0.01542   0.01838   0.02441
 Alpha virt. eigenvalues --    0.03052   0.03506   0.03741   0.04804   0.05018
 Alpha virt. eigenvalues --    0.06478   0.06806   0.07948   0.08328   0.08413
 Alpha virt. eigenvalues --    0.08909   0.09481   0.10390   0.10644   0.11564
 Alpha virt. eigenvalues --    0.12108   0.12579   0.13143   0.13745   0.14272
 Alpha virt. eigenvalues --    0.16419   0.16794   0.17580   0.17946   0.19656
 Alpha virt. eigenvalues --    0.20412   0.21121   0.21569   0.22259   0.25451
 Alpha virt. eigenvalues --    0.26528   0.28725   0.31312   0.31531   0.32000
 Alpha virt. eigenvalues --    0.33214   0.34357   0.35850   0.36666   0.38987
 Alpha virt. eigenvalues --    0.39803   0.40477   0.40855   0.41593   0.43489
 Alpha virt. eigenvalues --    0.44134   0.45730   0.48151   0.48483   0.49916
 Alpha virt. eigenvalues --    0.50522   0.52033   0.53495   0.54519   0.55353
 Alpha virt. eigenvalues --    0.58978   0.61195   0.62321   0.63039   0.64692
 Alpha virt. eigenvalues --    0.65900   0.67868   0.70252   0.71087   0.71610
 Alpha virt. eigenvalues --    0.72265   0.73242   0.75179   0.76464   0.80645
 Alpha virt. eigenvalues --    0.82710   0.83255   0.86539   0.87319   0.88951
 Alpha virt. eigenvalues --    0.90261   0.95243   0.97991   0.99405   1.00838
 Alpha virt. eigenvalues --    1.01318   1.02403   1.04109   1.04508   1.07382
 Alpha virt. eigenvalues --    1.11508   1.17955   1.20967   1.29705   1.32743
 Alpha virt. eigenvalues --    1.33610   1.34429   1.42037   1.48740   1.49532
 Alpha virt. eigenvalues --    1.50317   1.52431   1.57079   1.58086   1.63016
 Alpha virt. eigenvalues --    1.64103   1.65831   1.66552   1.70588   1.75312
 Alpha virt. eigenvalues --    1.78614   1.81432   1.82870   1.89799   1.93047
 Alpha virt. eigenvalues --    1.94682   1.95662   1.98759   2.04051   2.04857
 Alpha virt. eigenvalues --    2.06625   2.11402   2.14975   2.17785   2.26389
 Alpha virt. eigenvalues --    2.30885   2.34585   2.38503   2.40709   2.48553
 Alpha virt. eigenvalues --    2.53693   2.58433   2.59603   2.62385   2.64130
 Alpha virt. eigenvalues --    2.65021   2.66904   2.70623   2.72459   2.78726
 Alpha virt. eigenvalues --    2.89153   2.91725   2.92894   3.02137   3.03975
 Alpha virt. eigenvalues --    3.07324   3.10804   3.14668   3.16250   3.16365
 Alpha virt. eigenvalues --    3.20497   3.31695   3.43760   3.44937   3.46386
 Alpha virt. eigenvalues --    3.51334   3.60116   3.63518   3.78641   3.83521
 Alpha virt. eigenvalues --    4.07528   4.07737   4.14994   4.20342   4.33198
 Alpha virt. eigenvalues --    4.41067   4.50140   4.54519   4.81882   4.84443
 Alpha virt. eigenvalues --    4.93133   4.97297   5.52112   6.04572   6.63209
 Alpha virt. eigenvalues --    7.46247   7.47786   7.57464  23.18002  23.57783
 Alpha virt. eigenvalues --   23.67421  23.76101  23.92497  23.97722  35.22200
 Alpha virt. eigenvalues --   47.89589  49.74731  49.83540 289.78872 289.80534
 Alpha virt. eigenvalues --  289.929521020.89945
          Condensed to atoms (all electrons):
               1          2          3          4          5          6
     1  C    8.533414  -2.903729   1.182409  -1.514046  -1.162929   0.288686
     2  C   -2.903729  14.720973  -3.537731  -2.417408   1.770473  -0.008091
     3  C    1.182409  -3.537731  13.299054  -2.527551  -1.643406   0.010328
     4  C   -1.514046  -2.417408  -2.527551  13.235635   1.265628   0.011437
     5  C   -1.162929   1.770473  -1.643406   1.265628   7.814060   0.038018
     6  H    0.288686  -0.008091   0.010328   0.011437   0.038018   0.296948
     7  H    0.057852   0.257117   0.087130  -0.037947  -0.022936  -0.001832
     8  H   -0.000157  -0.020887   0.051602   0.277751   0.007766   0.000002
     9  H    0.015689   0.002501  -0.002860  -0.004232   0.320348  -0.001369
    10  N   -0.080230   0.325494  -0.954414   0.215562   0.077769  -0.000309
    11  O    0.029155   0.018680  -0.244295  -0.069083  -0.052583  -0.000010
    12  O    0.202905  -0.057212  -0.260629  -0.001777  -0.046044  -0.000076
    13  C    1.880755  -2.698555   1.218579  -2.725042  -2.417048  -0.011539
    14  H    0.011718  -0.028895   0.017223  -0.035659  -0.107335  -0.000062
    15  Br   0.083150   0.001842   0.054182   0.171934   0.077566  -0.000337
               7          8          9         10         11         12
     1  C    0.057852  -0.000157   0.015689  -0.080230   0.029155   0.202905
     2  C    0.257117  -0.020887   0.002501   0.325494   0.018680  -0.057212
     3  C    0.087130   0.051602  -0.002860  -0.954414  -0.244295  -0.260629
     4  C   -0.037947   0.277751  -0.004232   0.215562  -0.069083  -0.001777
     5  C   -0.022936   0.007766   0.320348   0.077769  -0.052583  -0.046044
     6  H   -0.001832   0.000002  -0.001369  -0.000309  -0.000010  -0.000076
     7  H    0.341888   0.000053   0.000029  -0.031269  -0.001792   0.012337
     8  H    0.000053   0.337577   0.000154  -0.023608   0.012454  -0.001007
     9  H    0.000029   0.000154   0.250847   0.000479   0.000001   0.000006
    10  N   -0.031269  -0.023608   0.000479   7.106361   0.297977   0.272071
    11  O   -0.001792   0.012454   0.000001   0.297977   7.902486  -0.035584
    12  O    0.012337  -0.001007   0.000006   0.272071  -0.035584   7.930753
    13  C    0.012949   0.024824  -0.019336  -0.096281   0.206307   0.050867
    14  H   -0.000008  -0.005864  -0.003696  -0.002221  -0.000066  -0.000076
    15  Br  -0.000370  -0.003944   0.001369  -0.001271   0.001771   0.001898
              13         14         15
     1  C    1.880755   0.011718   0.083150
     2  C   -2.698555  -0.028895   0.001842
     3  C    1.218579   0.017223   0.054182
     4  C   -2.725042  -0.035659   0.171934
     5  C   -2.417048  -0.107335   0.077566
     6  H   -0.011539  -0.000062  -0.000337
     7  H    0.012949  -0.000008  -0.000370
     8  H    0.024824  -0.005864  -0.003944
     9  H   -0.019336  -0.003696   0.001369
    10  N   -0.096281  -0.002221  -0.001271
    11  O    0.206307  -0.000066   0.001771
    12  O    0.050867  -0.000076   0.001898
    13  C   10.754006   0.436765  -0.191660
    14  H    0.436765   0.312578  -0.034364
    15  Br  -0.191660  -0.034364  34.537609
 Mulliken charges:
               1
     1  C   -0.624642
     2  C    0.575425
     3  C   -0.749621
     4  C    0.154796
     5  C    0.080652
     6  H    0.378205
     7  H    0.326799
     8  H    0.343284
     9  H    0.440069
    10  N   -0.106111
    11  O   -0.065418
    12  O   -0.068432
    13  C   -0.425593
    14  H    0.439962
    15  Br   0.300625
 Sum of Mulliken charges =   1.00000
 Mulliken charges with hydrogens summed into heavy atoms:
               1
     1  C   -0.246437
     2  C    0.902224
     3  C   -0.749621
     4  C    0.498080
     5  C    0.520721
    10  N   -0.106111
    11  O   -0.065418
    12  O   -0.068432
    13  C    0.014368
    15  Br   0.300625
 Electronic spatial extent (au):  <R**2>=           2808.8433
 Charge=              1.0000 electrons
 Dipole moment (field-independent basis, Debye):
    X=             -7.4133    Y=             -1.3622    Z=             -0.5778  Tot=              7.5595
 Quadrupole moment (field-independent basis, Debye-Ang):
   XX=            -87.5086   YY=            -51.3405   ZZ=            -61.0879
   XY=              2.2543   XZ=              2.7976   YZ=              3.2219
 Traceless Quadrupole moment (field-independent basis, Debye-Ang):
   XX=            -20.8630   YY=             15.3052   ZZ=              5.5578
   XY=              2.2543   XZ=              2.7976   YZ=              3.2219
 Octapole moment (field-independent basis, Debye-Ang**2):
  XXX=           -392.6420  YYY=             82.2601  ZZZ=             73.2269  XYY=            -91.6670
  XXY=             27.0831  XXZ=             31.8672  XZZ=            -85.5443  YZZ=             12.3483
  YYZ=             21.9135  XYZ=             -6.4516
 Hexadecapole moment (field-independent basis, Debye-Ang**3):
 XXXX=          -2687.6871 YYYY=           -665.5734 ZZZZ=           -335.8075 XXXY=            -67.9957
 XXXZ=            -10.4718 YYYX=            -52.9264 YYYZ=           -145.3146 ZZZX=             -9.5670
 ZZZY=           -126.0969 XXYY=           -487.4849 XXZZ=           -377.3552 YYZZ=           -154.7949
 XXYZ=            -50.7351 YYXZ=              5.3319 ZZXY=             -2.2946
 N-N= 7.432436740875D+02 E-N=-8.635766099271D+03  KE= 3.005830180941D+03
 No NMR shielding tensors so no spin-rotation constants.
 Leave Link  601 at Wed May  1 14:47:19 2024, MaxMem=  1207959552 cpu:               7.2 elap:               7.2
 (Enter /software/gaussian/g16-c01/sse4/g16/l9999.exe)
 Unable to Open any file for archive entry.
 1\1\GINC-BHX0029\SP\RwB97XD\6-311+G(d)\C6H5Br1N1O2(1+)\BWEIGHT\01-May-
 2024\0\\#P wB97XD/6-311+G* NoSymm #P Field=X+214\\TitleMe\\1,1\C,0,0.0
 295,1.3397,0.0682\C,0,1.4348,1.2867,0.0064\C,0,2.1118,0.0511,-0.0054\C
 ,0,1.4451,-1.1372,0.0312\C,0,-0.6879,0.1682,0.11\H,0,-0.4713,2.2984,0.
 0781\H,0,2.0273,2.1965,-0.0322\H,0,1.9897,-2.0764,0.0232\H,0,-1.7716,0
 .1804,0.1582\N,0,3.5864,0.051,-0.0675\O,0,4.1471,-1.0597,-0.0881\O,0,4
 .145,1.1639,-0.0901\C,0,-0.0236,-1.1458,0.0835\H,0,-0.4367,-1.8725,0.7
 889\Br,0,-0.5359,-1.8697,-1.7408\\Version=ES64L-G16RevC.01\HF=-3010.56
 96426\RMSD=6.536e-09\Dipole=-4.8231383,0.6121538,0.9188405\Quadrupole=
 -15.5111013,11.3790183,4.132083,1.6759929,2.0799486,2.3953706\PG=C01 [
 X(C6H5Br1N1O2)]\\@
 The archive entry for this job was punched.


 The impersonal hand of government can
 never replace the helping hand of a neighbor.
                        -- Hubert H. Humphrey
 Job cpu time:       0 days  0 hours 19 minutes 30.6 seconds.
 Elapsed time:       0 days  0 hours 19 minutes 30.8 seconds.
 File lengths (MBytes):  RWF=     40 Int=      0 D2E=      0 Chk=     32 Scr=      1
 Normal termination of Gaussian 16 at Wed May  1 14:47:19 2024.
