 Entering Gaussian System, Link 0=g16
 Initial command:
 /software/gaussian/g16-c01/sse4/g16/l1.exe "/local_scratch/24665290/Gau-23342.inp" -scrdir="/local_scratch/24665290/"
 Entering Link 1 = /software/gaussian/g16-c01/sse4/g16/l1.exe PID=     23343.
  
 Copyright (c) 1988-2019, Gaussian, Inc.  All Rights Reserved.
  
 This is part of the Gaussian(R) 16 program.  It is based on
 the Gaussian(R) 09 system (copyright 2009, Gaussian, Inc.),
 the Gaussian(R) 03 system (copyright 2003, Gaussian, Inc.),
 the Gaussian(R) 98 system (copyright 1998, Gaussian, Inc.),
 the Gaussian(R) 94 system (copyright 1995, Gaussian, Inc.),
 the Gaussian 92(TM) system (copyright 1992, Gaussian, Inc.),
 the Gaussian 90(TM) system (copyright 1990, Gaussian, Inc.),
 the Gaussian 88(TM) system (copyright 1988, Gaussian, Inc.),
 the Gaussian 86(TM) system (copyright 1986, Carnegie Mellon
 University), and the Gaussian 82(TM) system (copyright 1983,
 Carnegie Mellon University). Gaussian is a federally registered
 trademark of Gaussian, Inc.
  
 This software contains proprietary and confidential information,
 including trade secrets, belonging to Gaussian, Inc.
  
 This software is provided under written license and may be
 used, copied, transmitted, or stored only in accord with that
 written license.
  
 The following legend is applicable only to US Government
 contracts under FAR:
  
                    RESTRICTED RIGHTS LEGEND
  
 Use, reproduction and disclosure by the US Government is
 subject to restrictions as set forth in subparagraphs (a)
 and (c) of the Commercial Computer Software - Restricted
 Rights clause in FAR 52.227-19.
  
 Gaussian, Inc.
 340 Quinnipiac St., Bldg. 40, Wallingford CT 06492
  
  
 ---------------------------------------------------------------
 Warning -- This program may not be used in any manner that
 competes with the business of Gaussian, Inc. or will provide
 assistance to any competitor of Gaussian, Inc.  The licensee
 of this program is prohibited from giving any competitor of
 Gaussian, Inc. access to this program.  By using this program,
 the user acknowledges that Gaussian, Inc. is engaged in the
 business of creating and licensing software in the field of
 computational chemistry and represents and warrants to the
 licensee that it is not a competitor of Gaussian, Inc. and that
 it will not use this program in any manner prohibited above.
 ---------------------------------------------------------------
  

 Cite this work as:
 Gaussian 16, Revision C.01,
 M. J. Frisch, G. W. Trucks, H. B. Schlegel, G. E. Scuseria, 
 M. A. Robb, J. R. Cheeseman, G. Scalmani, V. Barone, 
 G. A. Petersson, H. Nakatsuji, X. Li, M. Caricato, A. V. Marenich, 
 J. Bloino, B. G. Janesko, R. Gomperts, B. Mennucci, H. P. Hratchian, 
 J. V. Ortiz, A. F. Izmaylov, J. L. Sonnenberg, D. Williams-Young, 
 F. Ding, F. Lipparini, F. Egidi, J. Goings, B. Peng, A. Petrone, 
 T. Henderson, D. Ranasinghe, V. G. Zakrzewski, J. Gao, N. Rega, 
 G. Zheng, W. Liang, M. Hada, M. Ehara, K. Toyota, R. Fukuda, 
 J. Hasegawa, M. Ishida, T. Nakajima, Y. Honda, O. Kitao, H. Nakai, 
 T. Vreven, K. Throssell, J. A. Montgomery, Jr., J. E. Peralta, 
 F. Ogliaro, M. J. Bearpark, J. J. Heyd, E. N. Brothers, K. N. Kudin, 
 V. N. Staroverov, T. A. Keith, R. Kobayashi, J. Normand, 
 K. Raghavachari, A. P. Rendell, J. C. Burant, S. S. Iyengar, 
 J. Tomasi, M. Cossi, J. M. Millam, M. Klene, C. Adamo, R. Cammi, 
 J. W. Ochterski, R. L. Martin, K. Morokuma, O. Farkas, 
 J. B. Foresman, and D. J. Fox, Gaussian, Inc., Wallingford CT, 2019.
 
 ******************************************
 Gaussian 16:  ES64L-G16RevC.01  3-Jul-2019
                 2-May-2024 
 ******************************************
 %chk=geometry.chk
 %mem=1GB
 %nprocshared=12
 Will use up to   12 processors via shared memory.
 ----------------------------------------
 #P wB97XD/6-311+G* NoSymm #P Field=X+262
 ----------------------------------------
 1/38=1,172=1/1;
 2/12=2,15=1,17=6,18=5,40=1/2;
 3/5=4,6=6,7=11,11=2,14=1,15=262,25=1,30=1,74=-58/1,2,3;
 4//1;
 5/5=2,38=5/2;
 6/7=2,8=2,9=2,10=2,28=1/1;
 99/5=1,9=1/99;
 Leave Link    1 at Thu May  2 13:57:36 2024, MaxMem=   134217728 cpu:               1.3 elap:               1.4
 (Enter /software/gaussian/g16-c01/sse4/g16/l101.exe)
 -------
 TitleMe
 -------
 Symbolic Z-matrix:
 Charge =  1 Multiplicity = 1
 C                     0.5193    1.233    -0.0319 
 C                     1.9445    1.2692   -0.0367 
 C                     2.6204    0.0928   -0.025 
 C                    -0.196     0.0301    0.001 
 H                    -0.0207    2.1742   -0.0434 
 H                     2.4828    2.2089   -0.0361 
 H                    -1.2777    0.0399    0.0117 
 N                     4.0921    0.0959    0.0366 
 O                     4.6393   -1.0217    0.1446 
 O                     4.6649    1.1984   -0.0233 
 C                     0.4943   -1.1671    0.021 
 H                    -0.0325   -2.1149    0.0545 
 C                     1.9629   -1.2165   -0.0211 
 H                     2.4436   -1.9631    0.6151 
 Br                    2.173    -1.9491   -1.9062 
 
 ITRead=  0  0  0  0  0  0  0  0  0  0  0  0  0  0  0
 MicOpt= -1 -1 -1 -1 -1 -1 -1 -1 -1 -1 -1 -1 -1 -1 -1
 NAtoms=     15 NQM=       15 NQMF=       0 NMMI=      0 NMMIF=      0
                NMic=       0 NMicF=      0.
                    Isotopes and Nuclear Properties:
 (Nuclear quadrupole moments (NQMom) in fm**2, nuclear magnetic moments (NMagM)
  in nuclear magnetons)

  Atom         1           2           3           4           5           6           7           8           9          10
 IAtWgt=          12          12          12          12           1           1           1          14          16          16
 AtmWgt=  12.0000000  12.0000000  12.0000000  12.0000000   1.0078250   1.0078250   1.0078250  14.0030740  15.9949146  15.9949146
 NucSpn=           0           0           0           0           1           1           1           2           0           0
 AtZEff=  -0.0000000  -0.0000000  -0.0000000  -0.0000000  -0.0000000  -0.0000000  -0.0000000  -0.0000000  -0.0000000  -0.0000000
 NQMom=    0.0000000   0.0000000   0.0000000   0.0000000   0.0000000   0.0000000   0.0000000   2.0440000   0.0000000   0.0000000
 NMagM=    0.0000000   0.0000000   0.0000000   0.0000000   2.7928460   2.7928460   2.7928460   0.4037610   0.0000000   0.0000000
 AtZNuc=   6.0000000   6.0000000   6.0000000   6.0000000   1.0000000   1.0000000   1.0000000   7.0000000   8.0000000   8.0000000

  Atom        11          12          13          14          15
 IAtWgt=          12           1          12           1          79
 AtmWgt=  12.0000000   1.0078250  12.0000000   1.0078250  78.9183361
 NucSpn=           0           1           0           1           3
 AtZEff=  -0.0000000  -0.0000000  -0.0000000  -0.0000000  -0.0000000
 NQMom=    0.0000000   0.0000000   0.0000000   0.0000000  31.3000000
 NMagM=    0.0000000   2.7928460   0.0000000   2.7928460   2.1063990
 AtZNuc=   6.0000000   1.0000000   6.0000000   1.0000000  35.0000000
 Leave Link  101 at Thu May  2 13:57:39 2024, MaxMem=   134217728 cpu:               1.9 elap:               1.9
 (Enter /software/gaussian/g16-c01/sse4/g16/l202.exe)
                          Input orientation:                          
 ---------------------------------------------------------------------
 Center     Atomic      Atomic             Coordinates (Angstroms)
 Number     Number       Type             X           Y           Z
 ---------------------------------------------------------------------
      1          6           0        0.519300    1.233000   -0.031900
      2          6           0        1.944500    1.269200   -0.036700
      3          6           0        2.620400    0.092800   -0.025000
      4          6           0       -0.196000    0.030100    0.001000
      5          1           0       -0.020700    2.174200   -0.043400
      6          1           0        2.482800    2.208900   -0.036100
      7          1           0       -1.277700    0.039900    0.011700
      8          7           0        4.092100    0.095900    0.036600
      9          8           0        4.639300   -1.021700    0.144600
     10          8           0        4.664900    1.198400   -0.023300
     11          6           0        0.494300   -1.167100    0.021000
     12          1           0       -0.032500   -2.114900    0.054500
     13          6           0        1.962900   -1.216500   -0.021100
     14          1           0        2.443600   -1.963100    0.615100
     15         35           0        2.173000   -1.949100   -1.906200
 ---------------------------------------------------------------------
                    Distance matrix (angstroms):
                    1          2          3          4          5
     1  C    0.000000
     2  C    1.425668   0.000000
     3  C    2.390549   1.356796   0.000000
     4  C    1.399895   2.473566   2.817218   0.000000
     5  H    1.085168   2.163581   3.362733   2.151712   0.000000
     6  H    2.192654   1.082960   2.120598   3.453189   2.503751
     7  H    2.157452   3.449071   3.898632   1.081797   2.477564
     8  N    3.750012   2.448304   1.472992   4.288753   4.608780
     9  O    4.699917   3.541615   2.312322   4.950458   5.653735
    10  O    4.145753   2.721354   2.324292   4.999386   4.786171
    11  C    2.400813   2.835836   2.471794   1.382101   3.381369
    12  H    3.394169   3.920329   3.452266   2.151887   4.290233
    13  C    2.843264   2.485817   1.465124   2.493060   3.928360
    14  H    3.786370   3.334922   2.160489   3.364142   4.860416
    15  Br   4.046416   3.728900   2.812194   3.628609   5.028314
                    6          7          8          9         10
     6  H    0.000000
     7  H    4.341452   0.000000
     8  N    2.657047   5.370150   0.000000
     9  O    3.888434   6.012948   1.249048   0.000000
    10  O    2.404752   6.054572   1.243863   2.226587   0.000000
    11  C    3.918516   2.144043   3.813080   4.149391   4.794941
    12  H    5.003018   2.489080   4.679774   4.798846   5.748876
    13  C    3.464662   3.475788   2.501842   2.688591   3.623886
    14  H    4.222698   4.268978   2.700314   2.434893   3.916224
    15  Br   4.569706   4.420610   3.411663   3.338935   4.434144
                   11         12         13         14         15
    11  C    0.000000
    12  H    1.084880   0.000000
    13  C    1.470034   2.189625   0.000000
    14  H    2.187771   2.543302   1.092353   0.000000
    15  Br   2.672762   2.955683   2.033334   2.535818   0.000000
 Symmetry turned off by external request.
 Stoichiometry    C6H5BrNO2(1+)
 Framework group  C1[X(C6H5BrNO2)]
 Deg. of freedom    39
 Full point group                 C1      NOp   1
 Rotational constants (GHZ):           1.1632986           0.9594224           0.5957624
 Leave Link  202 at Thu May  2 13:57:40 2024, MaxMem=   134217728 cpu:               1.2 elap:               1.2
 (Enter /software/gaussian/g16-c01/sse4/g16/l301.exe)
 Standard basis: 6-311+G(d) (5D, 7F)
 Ernie: Thresh=  0.10000D-02 Tol=  0.10000D-05 Strict=F.
 The following finite field(s) will be applied:
 An electric field of              0.0262  0.0000  0.0000
   261 basis functions,   443 primitive gaussians,   273 cartesian basis functions
    49 alpha electrons       49 beta electrons
       nuclear repulsion energy       772.8945969580 Hartrees.
 IExCor= 4639 DFT=T Ex+Corr=wB97XD ExCW=0 ScaHFX=  1.000000
 ScaDFX=  1.000000  1.000000  1.000000  1.000000 ScalE2=  1.000000  1.000000
 IRadAn=      5 IRanWt=     -1 IRanGd=            0 ICorTp=0 IEmpDi=121
 HFx  wShort=  0.000000 wLong=  0.200000 cFull=  0.222036 cShort=  0.000000 cLong=  0.777964
 DFx  wShort=  0.000000 wLong=  0.200000 cFull=  0.000000 cShort=  0.000000 cLong=  1.000000
 NAtoms=   15 NActive=   15 NUniq=   15 SFac= 1.00D+00 NAtFMM=   60 NAOKFM=F Big=F
 Integral buffers will be    131072 words long.
 Raffenetti 2 integral format.
 Two-electron integral symmetry is turned off.
 R6Disp:  Grimme-D2 Dispersion energy=       -0.0080346408 Hartrees.
 Nuclear repulsion after empirical dispersion term =      772.8865623173 Hartrees.
 Leave Link  301 at Thu May  2 13:57:41 2024, MaxMem=   134217728 cpu:               1.1 elap:               1.0
 (Enter /software/gaussian/g16-c01/sse4/g16/l302.exe)
 NPDir=0 NMtPBC=     1 NCelOv=     1 NCel=       1 NClECP=     1 NCelD=      1
         NCelK=      1 NCelE2=     1 NClLst=     1 CellRange=     0.0.
 One-electron integrals computed using PRISM.
 NBasis=   261 RedAO= T EigKep=  2.52D-06  NBF=   261
 NBsUse=   261 1.00D-06 EigRej= -1.00D+00 NBFU=   261
 Precomputing XC quadrature grid using
 IXCGrd= 4 IRadAn=           5 IRanWt=          -1 IRanGd=           0 AccXCQ= 0.00D+00.
 Generated NRdTot=       0 NPtTot=           0 NUsed=           0 NTot=          32
 NSgBfM=   273   273   273   273   273 MxSgAt=    15 MxSgA2=    15.
 Leave Link  302 at Thu May  2 13:58:03 2024, MaxMem=   134217728 cpu:              21.8 elap:              21.8
 (Enter /software/gaussian/g16-c01/sse4/g16/l303.exe)
 DipDrv:  MaxL=1.
 The nuclear repulsion energy is now       784.1156767186 hartrees.
 Leave Link  303 at Thu May  2 13:58:07 2024, MaxMem=   134217728 cpu:               3.3 elap:               3.3
 (Enter /software/gaussian/g16-c01/sse4/g16/l401.exe)
 ExpMin= 3.50D-02 ExpMax= 4.40D+05 ExpMxC= 1.51D+04 IAcc=3 IRadAn=         5 AccDes= 0.00D+00
 Harris functional with IExCor= 4639 and IRadAn=       5 diagonalized for initial guess.
 HarFok:  IExCor= 4639 AccDes= 0.00D+00 IRadAn=         5 IDoV= 1 UseB2=F ITyADJ=14
 ICtDFT=  3500011 ScaDFX=  1.000000  1.000000  1.000000  1.000000
 FoFCou: FMM=F IPFlag=           0 FMFlag=      100000 FMFlg1=           0
         NFxFlg=           0 DoJE=T BraDBF=F KetDBF=T FulRan=T
         wScrn=  0.000000 ICntrl=       500 IOpCl=  0 I1Cent=   200000004 NGrid=           0
         NMat0=    1 NMatS0=      1 NMatT0=    0 NMatD0=    1 NMtDS0=    0 NMtDT0=    0
 Symmetry not used in FoFCou.
 Harris En= -2970.65217278287    
 JPrj=0 DoOrth=F DoCkMO=F.
 Leave Link  401 at Thu May  2 13:58:38 2024, MaxMem=   134217728 cpu:              31.3 elap:              31.3
 (Enter /software/gaussian/g16-c01/sse4/g16/l502.exe)
 Two-electron integral symmetry not used.
 Closed shell SCF:
 Using DIIS extrapolation, IDIIS=  1040.
 NGot=   134217728 LenX=   134063053 LenY=   133988083
 Requested convergence on RMS density matrix=1.00D-08 within 128 cycles.
 Requested convergence on MAX density matrix=1.00D-06.
 Requested convergence on             energy=1.00D-06.
 No special actions if energy rises.
 Fock matrices will be formed incrementally for  20 cycles.

 Cycle   1  Pass 1  IDiag  1:
 FoFJK:  IHMeth= 1 ICntrl=       0 DoSepK=T KAlg= 0 I1Cent=           0 FoldK=F
 IRaf=         1 NMat=       1 IRICut=       1 DoRegI=T DoRafI=F ISym2E= 0 IDoP0=0 IntGTp=1.
 FoFCou: FMM=F IPFlag=           0 FMFlag=      100000 FMFlg1=           0
         NFxFlg=           0 DoJE=T BraDBF=F KetDBF=F FulRan=T
         wScrn=  0.000000 ICntrl=       500 IOpCl=  0 I1Cent=           0 NGrid=           0
         NMat0=    1 NMatS0=      1 NMatT0=    0 NMatD0=    1 NMtDS0=    0 NMtDT0=    0
 Symmetry not used in FoFCou.
 E= -3009.68121166033    
 DIIS: error= 2.91D-01 at cycle   1 NSaved=   1.
 NSaved= 1 IEnMin= 1 EnMin= -3009.68121166033     IErMin= 1 ErrMin= 2.91D-01
 ErrMax= 2.91D-01  0.00D+00 EMaxC= 1.00D-01 BMatC= 1.19D+01 BMatP= 1.19D+01
 IDIUse=3 WtCom= 0.00D+00 WtEn= 1.00D+00
 Coeff-Com:  0.100D+01
 Coeff-En:   0.100D+01
 Coeff:      0.100D+01
 Gap=     0.512 Goal=   None    Shift=    0.000
 GapD=    0.512 DampG=2.000 DampE=0.250 DampFc=0.5000 IDamp=-1.
 Damping current iteration by 5.00D-01
 RMSDP=2.12D-01 MaxDP=2.21D+01              OVMax= 2.47D-01

 Cycle   2  Pass 1  IDiag  1:
 RMSU=  1.86D-02    CP:  6.16D-01
 E= -3010.12236923820     Delta-E=       -0.441157577874 Rises=F Damp=T
 DIIS: error= 1.47D-01 at cycle   2 NSaved=   2.
 NSaved= 2 IEnMin= 2 EnMin= -3010.12236923820     IErMin= 2 ErrMin= 1.47D-01
 ErrMax= 1.47D-01  0.00D+00 EMaxC= 1.00D-01 BMatC= 1.76D+00 BMatP= 1.19D+01
 IDIUse=3 WtCom= 0.00D+00 WtEn= 1.00D+00
 Coeff-Com: -0.429D+00 0.143D+01
 Coeff-En:   0.000D+00 0.100D+01
 Coeff:      0.000D+00 0.100D+01
 Gap=     0.268 Goal=   None    Shift=    0.000
 RMSDP=1.03D-01 MaxDP=1.14D+01 DE=-4.41D-01 OVMax= 1.41D-01

 Cycle   3  Pass 1  IDiag  1:
 RMSU=  1.18D-02    CP:  2.40D-01  1.32D+00
 E= -3010.52457435913     Delta-E=       -0.402205120930 Rises=F Damp=F
 DIIS: error= 1.06D-02 at cycle   3 NSaved=   3.
 NSaved= 3 IEnMin= 3 EnMin= -3010.52457435913     IErMin= 3 ErrMin= 1.06D-02
 ErrMax= 1.06D-02  0.00D+00 EMaxC= 1.00D-01 BMatC= 4.05D-02 BMatP= 1.76D+00
 IDIUse=3 WtCom= 8.94D-01 WtEn= 1.06D-01
 Coeff-Com:  0.384D-01-0.117D-01 0.973D+00
 Coeff-En:   0.000D+00 0.000D+00 0.100D+01
 Coeff:      0.344D-01-0.104D-01 0.976D+00
 Gap=     0.254 Goal=   None    Shift=    0.000
 RMSDP=8.18D-03 MaxDP=7.50D-01 DE=-4.02D-01 OVMax= 5.62D-02

 Cycle   4  Pass 1  IDiag  1:
 RMSU=  6.31D-03    CP:  2.45D-01  1.27D+00  1.42D+00
 E= -3010.51463978652     Delta-E=        0.009934572617 Rises=F Damp=F
 DIIS: error= 1.80D-02 at cycle   4 NSaved=   4.
 NSaved= 4 IEnMin= 3 EnMin= -3010.52457435913     IErMin= 3 ErrMin= 1.06D-02
 ErrMax= 1.80D-02  0.00D+00 EMaxC= 1.00D-01 BMatC= 4.22D-02 BMatP= 4.05D-02
 IDIUse=3 WtCom= 8.20D-01 WtEn= 1.80D-01
 Coeff-Com:  0.348D-01-0.524D-01 0.569D+00 0.449D+00
 Coeff-En:   0.000D+00 0.000D+00 0.611D+00 0.389D+00
 Coeff:      0.285D-01-0.430D-01 0.576D+00 0.438D+00
 Gap=     0.244 Goal=   None    Shift=    0.000
 RMSDP=4.90D-03 MaxDP=5.67D-01 DE= 9.93D-03 OVMax= 4.48D-02

 Cycle   5  Pass 1  IDiag  1:
 RMSU=  1.68D-03    CP:  2.31D-01  1.18D+00  1.42D+00  7.29D-01
 E= -3010.54141739515     Delta-E=       -0.026777608631 Rises=F Damp=F
 DIIS: error= 1.66D-03 at cycle   5 NSaved=   5.
 NSaved= 5 IEnMin= 5 EnMin= -3010.54141739515     IErMin= 5 ErrMin= 1.66D-03
 ErrMax= 1.66D-03  0.00D+00 EMaxC= 1.00D-01 BMatC= 3.75D-04 BMatP= 4.05D-02
 IDIUse=3 WtCom= 9.83D-01 WtEn= 1.66D-02
 Coeff-Com:  0.927D-02-0.135D-01 0.187D+00 0.161D+00 0.656D+00
 Coeff-En:   0.000D+00 0.000D+00 0.000D+00 0.000D+00 0.100D+01
 Coeff:      0.912D-02-0.133D-01 0.184D+00 0.158D+00 0.662D+00
 Gap=     0.242 Goal=   None    Shift=    0.000
 RMSDP=1.10D-03 MaxDP=1.11D-01 DE=-2.68D-02 OVMax= 8.67D-03

 Cycle   6  Pass 1  IDiag  1:
 RMSU=  6.04D-04    CP:  2.30D-01  1.20D+00  1.46D+00  8.43D-01  8.87D-01
 E= -3010.54169952568     Delta-E=       -0.000282130532 Rises=F Damp=F
 DIIS: error= 1.49D-03 at cycle   6 NSaved=   6.
 NSaved= 6 IEnMin= 6 EnMin= -3010.54169952568     IErMin= 6 ErrMin= 1.49D-03
 ErrMax= 1.49D-03  0.00D+00 EMaxC= 1.00D-01 BMatC= 1.72D-04 BMatP= 3.75D-04
 IDIUse=3 WtCom= 9.85D-01 WtEn= 1.49D-02
 Coeff-Com: -0.172D-02 0.296D-02-0.512D-02 0.318D-02 0.409D+00 0.592D+00
 Coeff-En:   0.000D+00 0.000D+00 0.000D+00 0.000D+00 0.137D+00 0.863D+00
 Coeff:     -0.170D-02 0.291D-02-0.504D-02 0.313D-02 0.405D+00 0.596D+00
 Gap=     0.242 Goal=   None    Shift=    0.000
 RMSDP=6.53D-04 MaxDP=6.67D-02 DE=-2.82D-04 OVMax= 5.32D-03

 Cycle   7  Pass 1  IDiag  1:
 RMSU=  1.61D-04    CP:  2.29D-01  1.19D+00  1.47D+00  8.63D-01  1.08D+00
                    CP:  9.05D-01
 E= -3010.54186032624     Delta-E=       -0.000160800555 Rises=F Damp=F
 DIIS: error= 4.54D-04 at cycle   7 NSaved=   7.
 NSaved= 7 IEnMin= 7 EnMin= -3010.54186032624     IErMin= 7 ErrMin= 4.54D-04
 ErrMax= 4.54D-04  0.00D+00 EMaxC= 1.00D-01 BMatC= 2.39D-05 BMatP= 1.72D-04
 IDIUse=3 WtCom= 9.95D-01 WtEn= 4.54D-03
 Coeff-Com: -0.273D-02 0.428D-02-0.379D-01-0.295D-01 0.873D-01 0.319D+00
 Coeff-Com:  0.659D+00
 Coeff-En:   0.000D+00 0.000D+00 0.000D+00 0.000D+00 0.000D+00 0.000D+00
 Coeff-En:   0.100D+01
 Coeff:     -0.272D-02 0.426D-02-0.377D-01-0.294D-01 0.869D-01 0.318D+00
 Coeff:      0.661D+00
 Gap=     0.243 Goal=   None    Shift=    0.000
 RMSDP=3.39D-04 MaxDP=3.53D-02 DE=-1.61D-04 OVMax= 4.22D-03

 Cycle   8  Pass 1  IDiag  1:
 RMSU=  8.91D-05    CP:  2.28D-01  1.18D+00  1.49D+00  8.92D-01  1.16D+00
                    CP:  9.24D-01  9.86D-01
 E= -3010.54189786925     Delta-E=       -0.000037543010 Rises=F Damp=F
 DIIS: error= 2.11D-04 at cycle   8 NSaved=   8.
 NSaved= 8 IEnMin= 8 EnMin= -3010.54189786925     IErMin= 8 ErrMin= 2.11D-04
 ErrMax= 2.11D-04  0.00D+00 EMaxC= 1.00D-01 BMatC= 3.45D-06 BMatP= 2.39D-05
 IDIUse=3 WtCom= 9.98D-01 WtEn= 2.11D-03
 Coeff-Com: -0.369D-03 0.427D-03-0.119D-01-0.109D-01-0.769D-01-0.378D-01
 Coeff-Com:  0.251D+00 0.886D+00
 Coeff-En:   0.000D+00 0.000D+00 0.000D+00 0.000D+00 0.000D+00 0.000D+00
 Coeff-En:   0.000D+00 0.100D+01
 Coeff:     -0.368D-03 0.426D-03-0.119D-01-0.109D-01-0.768D-01-0.378D-01
 Coeff:      0.251D+00 0.887D+00
 Gap=     0.243 Goal=   None    Shift=    0.000
 RMSDP=1.75D-04 MaxDP=1.38D-02 DE=-3.75D-05 OVMax= 3.02D-03

 Cycle   9  Pass 1  IDiag  1:
 RMSU=  4.79D-05    CP:  2.28D-01  1.18D+00  1.50D+00  9.07D-01  1.18D+00
                    CP:  1.02D+00  1.06D+00  1.17D+00
 E= -3010.54190876220     Delta-E=       -0.000010892954 Rises=F Damp=F
 DIIS: error= 4.07D-05 at cycle   9 NSaved=   9.
 NSaved= 9 IEnMin= 9 EnMin= -3010.54190876220     IErMin= 9 ErrMin= 4.07D-05
 ErrMax= 4.07D-05  0.00D+00 EMaxC= 1.00D-01 BMatC= 4.17D-07 BMatP= 3.45D-06
 IDIUse=1 WtCom= 1.00D+00 WtEn= 0.00D+00
 Coeff-Com:  0.450D-03-0.766D-03 0.379D-02 0.226D-02-0.443D-01-0.663D-01
 Coeff-Com: -0.128D-01 0.266D+00 0.851D+00
 Coeff:      0.450D-03-0.766D-03 0.379D-02 0.226D-02-0.443D-01-0.663D-01
 Coeff:     -0.128D-01 0.266D+00 0.851D+00
 Gap=     0.243 Goal=   None    Shift=    0.000
 RMSDP=4.49D-05 MaxDP=2.51D-03 DE=-1.09D-05 OVMax= 1.57D-03

 Cycle  10  Pass 1  IDiag  1:
 RMSU=  1.51D-05    CP:  2.29D-01  1.18D+00  1.50D+00  9.08D-01  1.19D+00
                    CP:  1.04D+00  1.09D+00  1.30D+00  1.41D+00
 E= -3010.54191075187     Delta-E=       -0.000001989671 Rises=F Damp=F
 DIIS: error= 1.45D-05 at cycle  10 NSaved=  10.
 NSaved=10 IEnMin=10 EnMin= -3010.54191075187     IErMin=10 ErrMin= 1.45D-05
 ErrMax= 1.45D-05  0.00D+00 EMaxC= 1.00D-01 BMatC= 9.53D-08 BMatP= 4.17D-07
 IDIUse=1 WtCom= 1.00D+00 WtEn= 0.00D+00
 Coeff-Com:  0.114D-03-0.152D-03 0.273D-02 0.213D-02 0.777D-02 0.270D-02
 Coeff-Com: -0.438D-01-0.180D+00 0.124D+00 0.108D+01
 Coeff:      0.114D-03-0.152D-03 0.273D-02 0.213D-02 0.777D-02 0.270D-02
 Coeff:     -0.438D-01-0.180D+00 0.124D+00 0.108D+01
 Gap=     0.243 Goal=   None    Shift=    0.000
 RMSDP=4.10D-05 MaxDP=3.55D-03 DE=-1.99D-06 OVMax= 9.36D-04

 Cycle  11  Pass 1  IDiag  1:
 RMSU=  5.76D-06    CP:  2.29D-01  1.18D+00  1.50D+00  9.07D-01  1.18D+00
                    CP:  1.04D+00  1.06D+00  1.35D+00  1.77D+00  1.58D+00
 E= -3010.54191128014     Delta-E=       -0.000000528268 Rises=F Damp=F
 DIIS: error= 6.98D-06 at cycle  11 NSaved=  11.
 NSaved=11 IEnMin=11 EnMin= -3010.54191128014     IErMin=11 ErrMin= 6.98D-06
 ErrMax= 6.98D-06  0.00D+00 EMaxC= 1.00D-01 BMatC= 1.42D-08 BMatP= 9.53D-08
 IDIUse=1 WtCom= 1.00D+00 WtEn= 0.00D+00
 Coeff-Com: -0.316D-04 0.619D-04 0.149D-03 0.212D-03 0.934D-02 0.137D-01
 Coeff-Com: -0.498D-02-0.102D+00-0.778D-01 0.306D+00 0.855D+00
 Coeff:     -0.316D-04 0.619D-04 0.149D-03 0.212D-03 0.934D-02 0.137D-01
 Coeff:     -0.498D-02-0.102D+00-0.778D-01 0.306D+00 0.855D+00
 Gap=     0.243 Goal=   None    Shift=    0.000
 RMSDP=1.29D-05 MaxDP=1.35D-03 DE=-5.28D-07 OVMax= 3.28D-04

 Cycle  12  Pass 1  IDiag  1:
 RMSU=  2.67D-06    CP:  2.29D-01  1.18D+00  1.50D+00  9.06D-01  1.18D+00
                    CP:  1.04D+00  1.04D+00  1.34D+00  1.88D+00  1.78D+00
                    CP:  1.37D+00
 E= -3010.54191135213     Delta-E=       -0.000000071993 Rises=F Damp=F
 DIIS: error= 4.26D-06 at cycle  12 NSaved=  12.
 NSaved=12 IEnMin=12 EnMin= -3010.54191135213     IErMin=12 ErrMin= 4.26D-06
 ErrMax= 4.26D-06  0.00D+00 EMaxC= 1.00D-01 BMatC= 6.04D-09 BMatP= 1.42D-08
 IDIUse=1 WtCom= 1.00D+00 WtEn= 0.00D+00
 Coeff-Com: -0.290D-04 0.442D-04-0.385D-03-0.249D-03 0.256D-02 0.558D-02
 Coeff-Com:  0.608D-02-0.194D-01-0.577D-01-0.888D-01 0.405D+00 0.747D+00
 Coeff:     -0.290D-04 0.442D-04-0.385D-03-0.249D-03 0.256D-02 0.558D-02
 Coeff:      0.608D-02-0.194D-01-0.577D-01-0.888D-01 0.405D+00 0.747D+00
 Gap=     0.243 Goal=   None    Shift=    0.000
 RMSDP=5.98D-06 MaxDP=4.09D-04 DE=-7.20D-08 OVMax= 1.59D-04

 Cycle  13  Pass 1  IDiag  1:
 RMSU=  1.84D-06    CP:  2.29D-01  1.18D+00  1.50D+00  9.06D-01  1.18D+00
                    CP:  1.04D+00  1.04D+00  1.35D+00  1.94D+00  1.88D+00
                    CP:  1.60D+00  1.27D+00
 E= -3010.54191137319     Delta-E=       -0.000000021058 Rises=F Damp=F
 DIIS: error= 1.58D-06 at cycle  13 NSaved=  13.
 NSaved=13 IEnMin=13 EnMin= -3010.54191137319     IErMin=13 ErrMin= 1.58D-06
 ErrMax= 1.58D-06  0.00D+00 EMaxC= 1.00D-01 BMatC= 5.32D-10 BMatP= 6.04D-09
 IDIUse=1 WtCom= 1.00D+00 WtEn= 0.00D+00
 Coeff-Com:  0.441D-05-0.105D-04-0.929D-04-0.733D-04-0.218D-02-0.266D-02
 Coeff-Com:  0.239D-02 0.207D-01 0.182D-01-0.849D-01-0.164D+00 0.337D-01
 Coeff-Com:  0.118D+01
 Coeff:      0.441D-05-0.105D-04-0.929D-04-0.733D-04-0.218D-02-0.266D-02
 Coeff:      0.239D-02 0.207D-01 0.182D-01-0.849D-01-0.164D+00 0.337D-01
 Coeff:      0.118D+01
 Gap=     0.243 Goal=   None    Shift=    0.000
 RMSDP=3.09D-06 MaxDP=2.42D-04 DE=-2.11D-08 OVMax= 9.57D-05

 Cycle  14  Pass 1  IDiag  1:
 RMSU=  7.95D-07    CP:  2.29D-01  1.18D+00  1.50D+00  9.06D-01  1.18D+00
                    CP:  1.04D+00  1.04D+00  1.36D+00  1.94D+00  1.90D+00
                    CP:  1.73D+00  1.65D+00  1.56D+00
 E= -3010.54191137773     Delta-E=       -0.000000004543 Rises=F Damp=F
 DIIS: error= 4.46D-07 at cycle  14 NSaved=  14.
 NSaved=14 IEnMin=14 EnMin= -3010.54191137773     IErMin=14 ErrMin= 4.46D-07
 ErrMax= 4.46D-07  0.00D+00 EMaxC= 1.00D-01 BMatC= 1.41D-10 BMatP= 5.32D-10
 IDIUse=1 WtCom= 1.00D+00 WtEn= 0.00D+00
 Coeff-Com:  0.393D-05-0.687D-05 0.547D-05 0.108D-05-0.109D-02-0.158D-02
 Coeff-Com:  0.208D-03 0.106D-01 0.165D-01-0.166D-01-0.123D+00-0.954D-01
 Coeff-Com:  0.468D+00 0.741D+00
 Coeff:      0.393D-05-0.687D-05 0.547D-05 0.108D-05-0.109D-02-0.158D-02
 Coeff:      0.208D-03 0.106D-01 0.165D-01-0.166D-01-0.123D+00-0.954D-01
 Coeff:      0.468D+00 0.741D+00
 Gap=     0.243 Goal=   None    Shift=    0.000
 RMSDP=1.33D-06 MaxDP=1.58D-04 DE=-4.54D-09 OVMax= 1.57D-05

 Cycle  15  Pass 1  IDiag  1:
 RMSU=  2.41D-07    CP:  2.29D-01  1.18D+00  1.50D+00  9.06D-01  1.18D+00
                    CP:  1.04D+00  1.05D+00  1.36D+00  1.94D+00  1.88D+00
                    CP:  1.74D+00  1.77D+00  1.83D+00  1.28D+00
 E= -3010.54191137817     Delta-E=       -0.000000000436 Rises=F Damp=F
 DIIS: error= 3.61D-07 at cycle  15 NSaved=  15.
 NSaved=15 IEnMin=15 EnMin= -3010.54191137817     IErMin=15 ErrMin= 3.61D-07
 ErrMax= 3.61D-07  0.00D+00 EMaxC= 1.00D-01 BMatC= 1.83D-11 BMatP= 1.41D-10
 IDIUse=1 WtCom= 1.00D+00 WtEn= 0.00D+00
 Coeff-Com:  0.900D-08 0.708D-06 0.246D-04 0.209D-04 0.167D-03 0.830D-04
 Coeff-Com: -0.643D-03-0.163D-02-0.272D-03 0.123D-01 0.739D-04-0.277D-01
 Coeff-Com: -0.124D+00 0.180D+00 0.962D+00
 Coeff:      0.900D-08 0.708D-06 0.246D-04 0.209D-04 0.167D-03 0.830D-04
 Coeff:     -0.643D-03-0.163D-02-0.272D-03 0.123D-01 0.739D-04-0.277D-01
 Coeff:     -0.124D+00 0.180D+00 0.962D+00
 Gap=     0.243 Goal=   None    Shift=    0.000
 RMSDP=5.95D-07 MaxDP=5.51D-05 DE=-4.36D-10 OVMax= 1.14D-05

 Cycle  16  Pass 1  IDiag  1:
 RMSU=  9.87D-08    CP:  2.29D-01  1.18D+00  1.50D+00  9.06D-01  1.18D+00
                    CP:  1.04D+00  1.05D+00  1.36D+00  1.94D+00  1.88D+00
                    CP:  1.73D+00  1.81D+00  1.97D+00  1.45D+00  1.43D+00
 E= -3010.54191137821     Delta-E=       -0.000000000038 Rises=F Damp=F
 DIIS: error= 7.60D-08 at cycle  16 NSaved=  16.
 NSaved=16 IEnMin=16 EnMin= -3010.54191137821     IErMin=16 ErrMin= 7.60D-08
 ErrMax= 7.60D-08  0.00D+00 EMaxC= 1.00D-01 BMatC= 2.39D-12 BMatP= 1.83D-11
 IDIUse=1 WtCom= 1.00D+00 WtEn= 0.00D+00
 Coeff-Com: -0.413D-06 0.841D-06 0.522D-05 0.518D-05 0.205D-03 0.231D-03
 Coeff-Com: -0.198D-03-0.188D-02-0.242D-02 0.694D-02 0.165D-01 0.718D-02
 Coeff-Com: -0.101D+00-0.484D-01 0.235D+00 0.888D+00
 Coeff:     -0.413D-06 0.841D-06 0.522D-05 0.518D-05 0.205D-03 0.231D-03
 Coeff:     -0.198D-03-0.188D-02-0.242D-02 0.694D-02 0.165D-01 0.718D-02
 Coeff:     -0.101D+00-0.484D-01 0.235D+00 0.888D+00
 Gap=     0.243 Goal=   None    Shift=    0.000
 RMSDP=1.94D-07 MaxDP=2.12D-05 DE=-3.82D-11 OVMax= 2.02D-06

 Cycle  17  Pass 1  IDiag  1:
 RMSU=  2.87D-08    CP:  2.29D-01  1.18D+00  1.50D+00  9.06D-01  1.18D+00
                    CP:  1.04D+00  1.05D+00  1.36D+00  1.94D+00  1.88D+00
                    CP:  1.73D+00  1.82D+00  2.00D+00  1.52D+00  1.61D+00
                    CP:  1.21D+00
 E= -3010.54191137823     Delta-E=       -0.000000000028 Rises=F Damp=F
 DIIS: error= 3.41D-08 at cycle  17 NSaved=  17.
 NSaved=17 IEnMin=17 EnMin= -3010.54191137823     IErMin=17 ErrMin= 3.41D-08
 ErrMax= 3.41D-08  0.00D+00 EMaxC= 1.00D-01 BMatC= 3.58D-13 BMatP= 2.39D-12
 IDIUse=1 WtCom= 1.00D+00 WtEn= 0.00D+00
 Coeff-Com: -0.110D-06 0.168D-06-0.242D-06-0.319D-07 0.512D-04 0.553D-04
 Coeff-Com: -0.805D-05-0.402D-03-0.848D-03 0.112D-02 0.443D-02 0.499D-02
 Coeff-Com: -0.212D-01-0.287D-01-0.226D-01 0.298D+00 0.765D+00
 Coeff:     -0.110D-06 0.168D-06-0.242D-06-0.319D-07 0.512D-04 0.553D-04
 Coeff:     -0.805D-05-0.402D-03-0.848D-03 0.112D-02 0.443D-02 0.499D-02
 Coeff:     -0.212D-01-0.287D-01-0.226D-01 0.298D+00 0.765D+00
 Gap=     0.243 Goal=   None    Shift=    0.000
 RMSDP=3.29D-08 MaxDP=3.42D-06 DE=-2.82D-11 OVMax= 7.18D-07

 Cycle  18  Pass 1  IDiag  1:
 RMSU=  7.80D-09    CP:  2.29D-01  1.18D+00  1.50D+00  9.06D-01  1.18D+00
                    CP:  1.04D+00  1.05D+00  1.36D+00  1.94D+00  1.88D+00
                    CP:  1.73D+00  1.82D+00  2.00D+00  1.53D+00  1.66D+00
                    CP:  1.32D+00  1.21D+00
 E= -3010.54191137825     Delta-E=       -0.000000000013 Rises=F Damp=F
 DIIS: error= 1.01D-08 at cycle  18 NSaved=  18.
 NSaved=18 IEnMin=18 EnMin= -3010.54191137825     IErMin=18 ErrMin= 1.01D-08
 ErrMax= 1.01D-08  0.00D+00 EMaxC= 1.00D-01 BMatC= 5.32D-14 BMatP= 3.58D-13
 IDIUse=1 WtCom= 1.00D+00 WtEn= 0.00D+00
 Coeff-Com:  0.448D-07-0.950D-07-0.755D-06-0.799D-06-0.241D-04-0.331D-04
 Coeff-Com:  0.285D-04 0.263D-03 0.224D-03-0.873D-03-0.222D-02 0.407D-03
 Coeff-Com:  0.137D-01 0.292D-02-0.522D-01-0.922D-01 0.176D+00 0.954D+00
 Coeff:      0.448D-07-0.950D-07-0.755D-06-0.799D-06-0.241D-04-0.331D-04
 Coeff:      0.285D-04 0.263D-03 0.224D-03-0.873D-03-0.222D-02 0.407D-03
 Coeff:      0.137D-01 0.292D-02-0.522D-01-0.922D-01 0.176D+00 0.954D+00
 Gap=     0.243 Goal=   None    Shift=    0.000
 RMSDP=2.04D-08 MaxDP=2.85D-06 DE=-1.27D-11 OVMax= 2.77D-07

 Cycle  19  Pass 1  IDiag  1:
 RMSU=  3.30D-09    CP:  2.29D-01  1.18D+00  1.50D+00  9.06D-01  1.18D+00
                    CP:  1.04D+00  1.05D+00  1.36D+00  1.94D+00  1.88D+00
                    CP:  1.73D+00  1.82D+00  2.00D+00  1.53D+00  1.68D+00
                    CP:  1.37D+00  1.34D+00  1.29D+00
 E= -3010.54191137828     Delta-E=       -0.000000000030 Rises=F Damp=F
 DIIS: error= 3.38D-09 at cycle  19 NSaved=  19.
 NSaved=19 IEnMin=19 EnMin= -3010.54191137828     IErMin=19 ErrMin= 3.38D-09
 ErrMax= 3.38D-09  0.00D+00 EMaxC= 1.00D-01 BMatC= 4.22D-15 BMatP= 5.32D-14
 IDIUse=1 WtCom= 1.00D+00 WtEn= 0.00D+00
 Coeff-Com:  0.520D-08-0.620D-08-0.988D-07-0.104D-06-0.724D-05-0.967D-05
 Coeff-Com:  0.105D-05 0.744D-04 0.102D-03-0.171D-03-0.860D-03-0.377D-03
 Coeff-Com:  0.361D-02 0.307D-02-0.238D-02-0.447D-01-0.473D-01 0.104D+00
 Coeff-Com:  0.985D+00
 Coeff:      0.520D-08-0.620D-08-0.988D-07-0.104D-06-0.724D-05-0.967D-05
 Coeff:      0.105D-05 0.744D-04 0.102D-03-0.171D-03-0.860D-03-0.377D-03
 Coeff:      0.361D-02 0.307D-02-0.238D-02-0.447D-01-0.473D-01 0.104D+00
 Coeff:      0.985D+00
 Gap=     0.243 Goal=   None    Shift=    0.000
 RMSDP=4.13D-09 MaxDP=4.17D-07 DE=-3.00D-11 OVMax= 1.01D-07

 SCF Done:  E(RwB97XD) =  -3010.54191138     A.U. after   19 cycles
            NFock= 19  Conv=0.41D-08     -V/T= 2.0016
 KE= 3.005875639399D+03 PE=-8.711527875789D+03 EE= 1.910994648293D+03
 Leave Link  502 at Thu May  2 14:17:53 2024, MaxMem=   134217728 cpu:            1154.4 elap:            1154.6
 (Enter /software/gaussian/g16-c01/sse4/g16/l601.exe)
 Copying SCF densities to generalized density rwf, IOpCl= 0 IROHF=0.

 **********************************************************************

            Population analysis using the SCF Density.

 **********************************************************************

 Alpha  occ. eigenvalues -- -483.40520 -62.95555 -56.75230 -56.74687 -56.74677
 Alpha  occ. eigenvalues --  -19.62607 -19.62460 -15.01514 -10.68893 -10.67571
 Alpha  occ. eigenvalues --  -10.64809 -10.64047 -10.63777 -10.58902  -9.11372
 Alpha  occ. eigenvalues --   -6.93999  -6.92212  -6.92182  -3.03915  -3.03444
 Alpha  occ. eigenvalues --   -3.03419  -3.01989  -3.01989  -1.66134  -1.49254
 Alpha  occ. eigenvalues --   -1.31903  -1.22687  -1.21403  -1.14260  -1.10650
 Alpha  occ. eigenvalues --   -1.03806  -1.01147  -0.97816  -0.95962  -0.94551
 Alpha  occ. eigenvalues --   -0.89894  -0.87432  -0.85312  -0.84823  -0.80743
 Alpha  occ. eigenvalues --   -0.75406  -0.75081  -0.73930  -0.73600  -0.72585
 Alpha  occ. eigenvalues --   -0.71680  -0.68457  -0.65916  -0.63981
 Alpha virt. eigenvalues --   -0.39694  -0.33465  -0.25109  -0.23355  -0.22594
 Alpha virt. eigenvalues --   -0.20053  -0.18337  -0.17588  -0.16133  -0.13614
 Alpha virt. eigenvalues --   -0.13132  -0.11957  -0.11557  -0.10055  -0.09268
 Alpha virt. eigenvalues --   -0.08967  -0.08546  -0.07915  -0.06884  -0.05995
 Alpha virt. eigenvalues --   -0.05155  -0.04671  -0.03298  -0.03218  -0.02711
 Alpha virt. eigenvalues --   -0.02339  -0.01354  -0.00711  -0.00417  -0.00301
 Alpha virt. eigenvalues --    0.01250   0.02158   0.02247   0.03054   0.04012
 Alpha virt. eigenvalues --    0.04949   0.05649   0.06295   0.06601   0.06891
 Alpha virt. eigenvalues --    0.07542   0.08170   0.08693   0.10399   0.11080
 Alpha virt. eigenvalues --    0.11479   0.12547   0.13665   0.14384   0.14886
 Alpha virt. eigenvalues --    0.16011   0.16758   0.17628   0.18917   0.20024
 Alpha virt. eigenvalues --    0.21584   0.21998   0.23795   0.24479   0.26584
 Alpha virt. eigenvalues --    0.27684   0.28255   0.30757   0.32596   0.34079
 Alpha virt. eigenvalues --    0.35343   0.35593   0.36898   0.37778   0.39045
 Alpha virt. eigenvalues --    0.40099   0.40981   0.41637   0.42527   0.45313
 Alpha virt. eigenvalues --    0.46536   0.47473   0.49182   0.50334   0.51080
 Alpha virt. eigenvalues --    0.54885   0.54941   0.57431   0.58788   0.60424
 Alpha virt. eigenvalues --    0.61788   0.63153   0.64637   0.66015   0.67579
 Alpha virt. eigenvalues --    0.68232   0.69971   0.71137   0.71646   0.73858
 Alpha virt. eigenvalues --    0.77408   0.78191   0.80182   0.82921   0.85183
 Alpha virt. eigenvalues --    0.86437   0.89680   0.92412   0.95224   0.95480
 Alpha virt. eigenvalues --    0.97213   0.98170   0.99122   1.00781   1.05354
 Alpha virt. eigenvalues --    1.06894   1.08540   1.18483   1.24640   1.28008
 Alpha virt. eigenvalues --    1.28562   1.29719   1.34497   1.42195   1.44126
 Alpha virt. eigenvalues --    1.46110   1.48151   1.52467   1.54445   1.57078
 Alpha virt. eigenvalues --    1.57933   1.59852   1.62705   1.67878   1.70677
 Alpha virt. eigenvalues --    1.75966   1.76449   1.79372   1.84812   1.85889
 Alpha virt. eigenvalues --    1.86404   1.91334   1.92665   1.97781   1.99889
 Alpha virt. eigenvalues --    2.03968   2.06211   2.11313   2.14678   2.20591
 Alpha virt. eigenvalues --    2.25260   2.28766   2.31189   2.35115   2.44908
 Alpha virt. eigenvalues --    2.49951   2.52943   2.54809   2.57728   2.59220
 Alpha virt. eigenvalues --    2.60700   2.61789   2.64652   2.67901   2.73399
 Alpha virt. eigenvalues --    2.82686   2.86456   2.89823   2.95870   2.99559
 Alpha virt. eigenvalues --    3.04150   3.08237   3.08981   3.10263   3.11403
 Alpha virt. eigenvalues --    3.18310   3.25366   3.38677   3.39626   3.40784
 Alpha virt. eigenvalues --    3.47106   3.53255   3.58341   3.75334   3.78772
 Alpha virt. eigenvalues --    4.00554   4.01417   4.09918   4.14167   4.28290
 Alpha virt. eigenvalues --    4.34283   4.43377   4.48161   4.76658   4.79386
 Alpha virt. eigenvalues --    4.88237   4.92736   5.45786   5.98396   6.58631
 Alpha virt. eigenvalues --    7.39462   7.41770   7.51974  23.14035  23.52771
 Alpha virt. eigenvalues --   23.62647  23.70828  23.88312  23.92985  35.15681
 Alpha virt. eigenvalues --   47.84785  49.68859  49.77522 289.72440 289.74780
 Alpha virt. eigenvalues --  289.874171020.85988
          Condensed to atoms (all electrons):
               1          2          3          4          5          6
     1  C    6.711823  -1.304435   0.478917   0.009474   0.283007   0.068843
     2  C   -1.304435  17.279437  -4.441855   0.400779  -0.031365   0.260201
     3  C    0.478917  -4.441855  21.670071  -0.828240   0.027256   0.084619
     4  C    0.009474   0.400779  -0.828240   6.262566   0.037394  -0.020131
     5  H    0.283007  -0.031365   0.027256   0.037394   0.275503  -0.001437
     6  H    0.068843   0.260201   0.084619  -0.020131  -0.001437   0.345087
     7  H    0.019526  -0.008284   0.002236   0.291397  -0.001407   0.000016
     8  N   -0.022593  -0.292568  -2.013492  -0.005246  -0.000467  -0.034736
     9  O    0.005883   0.327736   0.070508  -0.008119  -0.000017  -0.002084
    10  O    0.139932  -0.232948  -0.245775  -0.026325  -0.000078   0.011975
    11  C    0.373910  -0.681030  -0.034243  -0.030119  -0.021515   0.011811
    12  H   -0.013703   0.013262   0.004902   0.039617   0.000074  -0.000012
    13  C   -0.624318  -5.366636  -8.403803   0.183025   0.023493  -0.043326
    14  H    0.004394   0.087829   0.346905  -0.013129  -0.000032   0.000135
    15  Br   0.018727  -0.167242  -0.521422  -0.010172   0.000075  -0.001200
               7          8          9         10         11         12
     1  C    0.019526  -0.022593   0.005883   0.139932   0.373910  -0.013703
     2  C   -0.008284  -0.292568   0.327736  -0.232948  -0.681030   0.013262
     3  C    0.002236  -2.013492   0.070508  -0.245775  -0.034243   0.004902
     4  C    0.291397  -0.005246  -0.008119  -0.026325  -0.030119   0.039617
     5  H   -0.001407  -0.000467  -0.000017  -0.000078  -0.021515   0.000074
     6  H    0.000016  -0.034736  -0.002084   0.011975   0.011811  -0.000012
     7  H    0.244625   0.000234  -0.000010   0.000007   0.020414  -0.001368
     8  N    0.000234   7.330956   0.208273   0.318355   0.096526  -0.000643
     9  O   -0.000010   0.208273   7.968422  -0.049724   0.077331   0.000180
    10  O    0.000007   0.318355  -0.049724   7.924127   0.021265  -0.000024
    11  C    0.020414   0.096526   0.077331   0.021265   6.822416   0.304700
    12  H   -0.001368  -0.000643   0.000180  -0.000024   0.304700   0.261799
    13  C   -0.010966   1.539042  -0.536660   0.190763  -0.789396  -0.033689
    14  H    0.000001  -0.064909   0.015099  -0.002182  -0.113070  -0.002806
    15  Br  -0.000334   0.181039  -0.061673   0.008610   0.079569   0.007444
              13         14         15
     1  C   -0.624318   0.004394   0.018727
     2  C   -5.366636   0.087829  -0.167242
     3  C   -8.403803   0.346905  -0.521422
     4  C    0.183025  -0.013129  -0.010172
     5  H    0.023493  -0.000032   0.000075
     6  H   -0.043326   0.000135  -0.001200
     7  H   -0.010966   0.000001  -0.000334
     8  N    1.539042  -0.064909   0.181039
     9  O   -0.536660   0.015099  -0.061673
    10  O    0.190763  -0.002182   0.008610
    11  C   -0.789396  -0.113070   0.079569
    12  H   -0.033689  -0.002806   0.007444
    13  C   19.392252   0.040786   0.630123
    14  H    0.040786   0.379223  -0.058994
    15  Br   0.630123  -0.058994  34.756366
 Mulliken charges:
               1
     1  C   -0.149386
     2  C    0.157120
     3  C   -0.196585
     4  C   -0.282772
     5  H    0.409516
     6  H    0.320239
     7  H    0.443915
     8  N   -0.239771
     9  O   -0.015144
    10  O   -0.057977
    11  C   -0.138570
    12  H    0.420269
    13  C   -0.190691
    14  H    0.380752
    15  Br   0.139085
 Sum of Mulliken charges =   1.00000
 Mulliken charges with hydrogens summed into heavy atoms:
               1
     1  C    0.260129
     2  C    0.477359
     3  C   -0.196585
     4  C    0.161143
     8  N   -0.239771
     9  O   -0.015144
    10  O   -0.057977
    11  C    0.281699
    13  C    0.190061
    15  Br   0.139085
 Electronic spatial extent (au):  <R**2>=           3970.3379
 Charge=              1.0000 electrons
 Dipole moment (field-independent basis, Debye):
    X=             -4.8155    Y=             -0.5579    Z=             -0.4172  Tot=              4.8656
 Quadrupole moment (field-independent basis, Debye-Ang):
   XX=            -98.9605   YY=            -51.7353   ZZ=            -63.0283
   XY=             -1.0571   XZ=             -0.5428   YZ=              1.6626
 Traceless Quadrupole moment (field-independent basis, Debye-Ang):
   XX=            -27.7191   YY=             19.5061   ZZ=              8.2131
   XY=             -1.0571   XZ=             -0.5428   YZ=              1.6626
 Octapole moment (field-independent basis, Debye-Ang**2):
  XXX=           -674.3258  YYY=             94.8850  ZZZ=             85.4343  XYY=           -154.2908
  XXY=             29.8362  XXZ=             32.6950  XZZ=           -142.4681  YZZ=             19.3660
  YYZ=             27.6135  XYZ=              3.6922
 Hexadecapole moment (field-independent basis, Debye-Ang**3):
 XXXX=          -4264.9959 YYYY=           -706.3045 ZZZZ=           -402.5085 XXXY=            191.0412
 XXXZ=            207.1731 YYYX=            198.7135 YYYZ=           -177.6624 ZZZX=            181.3775
 ZZZY=           -149.9105 XXYY=           -698.0401 XXZZ=           -565.4513 YYZZ=           -176.6255
 XXYZ=            -56.5983 YYXZ=             60.1340 ZZXY=             40.4091
 N-N= 7.841156767186D+02 E-N=-8.711527875509D+03  KE= 3.005875639399D+03
 No NMR shielding tensors so no spin-rotation constants.
 Leave Link  601 at Thu May  2 14:18:00 2024, MaxMem=   134217728 cpu:               7.4 elap:               7.4
 (Enter /software/gaussian/g16-c01/sse4/g16/l9999.exe)
 Unable to Open any file for archive entry.
 1\1\GINC-BHX0008\SP\RwB97XD\6-311+G(d)\C6H5Br1N1O2(1+)\BWEIGHT\02-May-
 2024\0\\#P wB97XD/6-311+G* NoSymm #P Field=X+262\\TitleMe\\1,1\C,0,0.5
 193,1.233,-0.0319\C,0,1.9445,1.2692,-0.0367\C,0,2.6204,0.0928,-0.025\C
 ,0,-0.196,0.0301,0.001\H,0,-0.0207,2.1742,-0.0434\H,0,2.4828,2.2089,-0
 .0361\H,0,-1.2777,0.0399,0.0117\N,0,4.0921,0.0959,0.0366\O,0,4.6393,-1
 .0217,0.1446\O,0,4.6649,1.1984,-0.0233\C,0,0.4943,-1.1671,0.021\H,0,-0
 .0325,-2.1149,0.0545\C,0,1.9629,-1.2165,-0.0211\H,0,2.4436,-1.9631,0.6
 151\Br,0,2.173,-1.9491,-1.9062\\Version=ES64L-G16RevC.01\HF=-3010.5419
 114\RMSD=4.128e-09\Dipole=-6.223758,1.0086313,1.0850742\Quadrupole=-20
 .6084919,14.5022872,6.1062047,-0.7859455,-0.4035651,1.2361062\PG=C01 [
 X(C6H5Br1N1O2)]\\@
 The archive entry for this job was punched.


 EVERYTHING'S GOT A MORAL, IF ONLY YOU CAN FIND IT.

                                    -- LEWIS CARROL, ALICE IN WONDERLAND
 Job cpu time:       0 days  0 hours 20 minutes 24.4 seconds.
 Elapsed time:       0 days  0 hours 20 minutes 24.6 seconds.
 File lengths (MBytes):  RWF=     40 Int=      0 D2E=      0 Chk=     32 Scr=      1
 Normal termination of Gaussian 16 at Thu May  2 14:18:01 2024.
