 Entering Gaussian System, Link 0=g16
 Initial command:
 /software/gaussian/g16-a03/l1.exe "/local_scratch/6484734/Gau-28813.inp" -scrdir="/local_scratch/6484734/"
 Entering Link 1 = /software/gaussian/g16-a03/l1.exe PID=     28821.
  
 Copyright (c) 1988,1990,1992,1993,1995,1998,2003,2009,2016,
            Gaussian, Inc.  All Rights Reserved.
  
 This is part of the Gaussian(R) 16 program.  It is based on
 the Gaussian(R) 09 system (copyright 2009, Gaussian, Inc.),
 the Gaussian(R) 03 system (copyright 2003, Gaussian, Inc.),
 the Gaussian(R) 98 system (copyright 1998, Gaussian, Inc.),
 the Gaussian(R) 94 system (copyright 1995, Gaussian, Inc.),
 the Gaussian 92(TM) system (copyright 1992, Gaussian, Inc.),
 the Gaussian 90(TM) system (copyright 1990, Gaussian, Inc.),
 the Gaussian 88(TM) system (copyright 1988, Gaussian, Inc.),
 the Gaussian 86(TM) system (copyright 1986, Carnegie Mellon
 University), and the Gaussian 82(TM) system (copyright 1983,
 Carnegie Mellon University). Gaussian is a federally registered
 trademark of Gaussian, Inc.
  
 This software contains proprietary and confidential information,
 including trade secrets, belonging to Gaussian, Inc.
  
 This software is provided under written license and may be
 used, copied, transmitted, or stored only in accord with that
 written license.
  
 The following legend is applicable only to US Government
 contracts under FAR:
  
                    RESTRICTED RIGHTS LEGEND
  
 Use, reproduction and disclosure by the US Government is
 subject to restrictions as set forth in subparagraphs (a)
 and (c) of the Commercial Computer Software - Restricted
 Rights clause in FAR 52.227-19.
  
 Gaussian, Inc.
 340 Quinnipiac St., Bldg. 40, Wallingford CT 06492
  
  
 ---------------------------------------------------------------
 Warning -- This program may not be used in any manner that
 competes with the business of Gaussian, Inc. or will provide
 assistance to any competitor of Gaussian, Inc.  The licensee
 of this program is prohibited from giving any competitor of
 Gaussian, Inc. access to this program.  By using this program,
 the user acknowledges that Gaussian, Inc. is engaged in the
 business of creating and licensing software in the field of
 computational chemistry and represents and warrants to the
 licensee that it is not a competitor of Gaussian, Inc. and that
 it will not use this program in any manner prohibited above.
 ---------------------------------------------------------------
  

 Cite this work as:
 Gaussian 16, Revision A.03,
 M. J. Frisch, G. W. Trucks, H. B. Schlegel, G. E. Scuseria, 
 M. A. Robb, J. R. Cheeseman, G. Scalmani, V. Barone, 
 G. A. Petersson, H. Nakatsuji, X. Li, M. Caricato, A. V. Marenich, 
 J. Bloino, B. G. Janesko, R. Gomperts, B. Mennucci, H. P. Hratchian, 
 J. V. Ortiz, A. F. Izmaylov, J. L. Sonnenberg, D. Williams-Young, 
 F. Ding, F. Lipparini, F. Egidi, J. Goings, B. Peng, A. Petrone, 
 T. Henderson, D. Ranasinghe, V. G. Zakrzewski, J. Gao, N. Rega, 
 G. Zheng, W. Liang, M. Hada, M. Ehara, K. Toyota, R. Fukuda, 
 J. Hasegawa, M. Ishida, T. Nakajima, Y. Honda, O. Kitao, H. Nakai, 
 T. Vreven, K. Throssell, J. A. Montgomery, Jr., J. E. Peralta, 
 F. Ogliaro, M. J. Bearpark, J. J. Heyd, E. N. Brothers, K. N. Kudin, 
 V. N. Staroverov, T. A. Keith, R. Kobayashi, J. Normand, 
 K. Raghavachari, A. P. Rendell, J. C. Burant, S. S. Iyengar, 
 J. Tomasi, M. Cossi, J. M. Millam, M. Klene, C. Adamo, R. Cammi, 
 J. W. Ochterski, R. L. Martin, K. Morokuma, O. Farkas, 
 J. B. Foresman, and D. J. Fox, Gaussian, Inc., Wallingford CT, 2016.
 
 ******************************************
 Gaussian 16:  ES64L-G16RevA.03 25-Dec-2016
                17-Sep-2021 
 ******************************************
 %chk=geometry.chk
 %mem=2GB
 %nprocshared=1
 Will use up to    1 processors via shared memory.
 --------------------------------------------------------------------
 #p B3LYP/6-311+G** #p TD=(singlets,nstates=30)IOp(6/8=3) IOp(9/40=4)
 --------------------------------------------------------------------
 1/38=1,172=1/1;
 2/12=2,17=6,18=5,40=1/2;
 3/5=4,6=6,7=111,11=9,25=1,30=1,74=-5/1,2,3,8;
 4//1;
 5/5=2,38=5/2;
 8/6=1,10=2,108=30/1;
 9/40=4,41=30,42=1,48=1,70=2/14;
 6/7=2,8=3,9=2,10=2/1;
 99/5=1,9=1/99;
 Leave Link    1 at Fri Sep 17 10:51:45 2021, MaxMem=   268435456 cpu:               0.0 elap:               0.1
 (Enter /software/gaussian/g16-a03/l101.exe)
 ------------------------------
 Scan Step 3, Bond Length 0.515
 ------------------------------
 Symbolic Z-matrix:
 Charge =  0 Multiplicity = 1
 C                     0.        0.       -0.52736 
 H                     0.        0.93726  -1.11871 
 H                     0.       -0.93726  -1.11871 
 O                     0.        0.       -0.01236 
 
 ITRead=  0  0  0  0
 MicOpt= -1 -1 -1 -1
 NAtoms=      4 NQM=        4 NQMF=       0 NMMI=      0 NMMIF=      0
                NMic=       0 NMicF=      0.
                    Isotopes and Nuclear Properties:
 (Nuclear quadrupole moments (NQMom) in fm**2, nuclear magnetic moments (NMagM)
  in nuclear magnetons)

  Atom         1           2           3           4
 IAtWgt=          12           1           1          16
 AtmWgt=  12.0000000   1.0078250   1.0078250  15.9949146
 NucSpn=           0           1           1           0
 AtZEff=  -0.0000000  -0.0000000  -0.0000000  -0.0000000
 NQMom=    0.0000000   0.0000000   0.0000000   0.0000000
 NMagM=    0.0000000   2.7928460   2.7928460   0.0000000
 AtZNuc=   6.0000000   1.0000000   1.0000000   8.0000000
 Leave Link  101 at Fri Sep 17 10:51:45 2021, MaxMem=   268435456 cpu:               0.1 elap:               0.1
 (Enter /software/gaussian/g16-a03/l202.exe)
                          Input orientation:                          
 ---------------------------------------------------------------------
 Center     Atomic      Atomic             Coordinates (Angstroms)
 Number     Number       Type             X           Y           Z
 ---------------------------------------------------------------------
      1          6           0        0.000000    0.000000   -0.527360
      2          1           0        0.000000    0.937260   -1.118710
      3          1           0        0.000000   -0.937260   -1.118710
      4          8           0        0.000000    0.000000   -0.012360
 ---------------------------------------------------------------------
                    Distance matrix (angstroms):
                    1          2          3          4
     1  C    0.000000
     2  H    1.108220   0.000000
     3  H    1.108220   1.874520   0.000000
     4  O    0.515000   1.449988   1.449988   0.000000
 Stoichiometry    CH2O
 Framework group  C2V[C2(CO),SGV(H2)]
 Deg. of freedom     3
 Full point group                 C2V     NOp   4
 Largest Abelian subgroup         C2V     NOp   4
 Largest concise Abelian subgroup C2      NOp   2
                         Standard orientation:                         
 ---------------------------------------------------------------------
 Center     Atomic      Atomic             Coordinates (Angstroms)
 Number     Number       Type             X           Y           Z
 ---------------------------------------------------------------------
      1          6           0        0.000000    0.000000   -0.183581
      2          1           0        0.000000    0.937260   -0.774931
      3          1           0       -0.000000   -0.937260   -0.774931
      4          8           0        0.000000    0.000000    0.331419
 ---------------------------------------------------------------------
 Rotational constants (GHZ):         285.4183527         153.4662702          99.8032005
 Leave Link  202 at Fri Sep 17 10:51:45 2021, MaxMem=   268435456 cpu:               0.1 elap:               0.0
 (Enter /software/gaussian/g16-a03/l301.exe)
 Standard basis: 6-311+G(d,p) (5D, 7F)
 Ernie: Thresh=  0.10000D-02 Tol=  0.10000D-05 Strict=F.
 There are    29 symmetry adapted cartesian basis functions of A1  symmetry.
 There are     3 symmetry adapted cartesian basis functions of A2  symmetry.
 There are    11 symmetry adapted cartesian basis functions of B1  symmetry.
 There are    15 symmetry adapted cartesian basis functions of B2  symmetry.
 There are    27 symmetry adapted basis functions of A1  symmetry.
 There are     3 symmetry adapted basis functions of A2  symmetry.
 There are    11 symmetry adapted basis functions of B1  symmetry.
 There are    15 symmetry adapted basis functions of B2  symmetry.
    56 basis functions,    88 primitive gaussians,    58 cartesian basis functions
     8 alpha electrons        8 beta electrons
       nuclear repulsion energy        61.1729388000 Hartrees.
 IExCor=  402 DFT=T Ex+Corr=B3LYP ExCW=0 ScaHFX=  0.200000
 ScaDFX=  0.800000  0.720000  1.000000  0.810000 ScalE2=  1.000000  1.000000
 IRadAn=      5 IRanWt=     -1 IRanGd=            0 ICorTp=0 IEmpDi=  4
 NAtoms=    4 NActive=    4 NUniq=    3 SFac= 1.78D+00 NAtFMM=   60 NAOKFM=F Big=F
 Integral buffers will be    131072 words long.
 Regular integral format.
 Two-electron integral symmetry is turned on.
 Leave Link  301 at Fri Sep 17 10:51:45 2021, MaxMem=   268435456 cpu:               0.1 elap:               0.1
 (Enter /software/gaussian/g16-a03/l302.exe)
 NPDir=0 NMtPBC=     1 NCelOv=     1 NCel=       1 NClECP=     1 NCelD=      1
         NCelK=      1 NCelE2=     1 NClLst=     1 CellRange=     0.0.
 One-electron integrals computed using PRISM.
 One-electron integral symmetry used in STVInt
 NBasis=    56 RedAO= T EigKep=  2.71D-04  NBF=    27     3    11    15
 NBsUse=    56 1.00D-06 EigRej= -1.00D+00 NBFU=    27     3    11    15
 Precomputing XC quadrature grid using
 IXCGrd= 4 IRadAn=           5 IRanWt=          -1 IRanGd=           0 AccXCQ= 0.00D+00.
 Generated NRdTot=       0 NPtTot=           0 NUsed=           0 NTot=          32
 NSgBfM=    58    58    58    58    58 MxSgAt=     4 MxSgA2=     4.
 Leave Link  302 at Fri Sep 17 10:51:45 2021, MaxMem=   268435456 cpu:               0.3 elap:               0.3
 (Enter /software/gaussian/g16-a03/l303.exe)
 DipDrv:  MaxL=1.
 Leave Link  303 at Fri Sep 17 10:51:46 2021, MaxMem=   268435456 cpu:               0.1 elap:               0.1
 (Enter /software/gaussian/g16-a03/l308.exe)
 Leave Link  308 at Fri Sep 17 10:51:46 2021, MaxMem=   268435456 cpu:               0.0 elap:               0.1
 (Enter /software/gaussian/g16-a03/l401.exe)
 ExpMin= 4.38D-02 ExpMax= 8.59D+03 ExpMxC= 1.30D+03 IAcc=3 IRadAn=         5 AccDes= 0.00D+00
 Harris functional with IExCor=  402 and IRadAn=       5 diagonalized for initial guess.
 HarFok:  IExCor=  402 AccDes= 0.00D+00 IRadAn=         5 IDoV= 1 UseB2=F ITyADJ=14
 ICtDFT=  3500011 ScaDFX=  1.000000  1.000000  1.000000  1.000000
 FoFCou: FMM=F IPFlag=           0 FMFlag=      100000 FMFlg1=           0
         NFxFlg=           0 DoJE=T BraDBF=F KetDBF=T FulRan=T
         wScrn=  0.000000 ICntrl=       500 IOpCl=  0 I1Cent=   200000004 NGrid=           0
         NMat0=    1 NMatS0=      1 NMatT0=    0 NMatD0=    1 NMtDS0=    0 NMtDT0=    0
 Petite list used in FoFCou.
 Harris En= -110.101289240718    
 JPrj=0 DoOrth=F DoCkMO=F.
 Initial guess orbital symmetries:
       Occupied  (A1) (A1) (A1) (B2) (B1) (A1) (A1) (B2)
       Virtual   (A1) (B1) (A1) (B2) (A1) (B1) (B2) (B1) (A1) (A1)
                 (B2) (A1) (A1) (B1) (B2) (B2) (A1) (A2) (B1) (A1)
                 (B2) (A1) (B2) (A1) (A1) (B1) (A2) (B1) (A1) (B2)
                 (B2) (A1) (B1) (A1) (B2) (A1) (A2) (B2) (A1) (B1)
                 (A1) (B2) (A1) (B1) (B2) (A1) (A1) (A1)
 The electronic state of the initial guess is 1-A1.
 Leave Link  401 at Fri Sep 17 10:51:46 2021, MaxMem=   268435456 cpu:               0.7 elap:               0.7
 (Enter /software/gaussian/g16-a03/l502.exe)
 Keep R1 ints in memory in symmetry-blocked form, NReq=2159909.
 FoFCou: FMM=F IPFlag=           0 FMFlag=           0 FMFlg1=           0
         NFxFlg=           0 DoJE=F BraDBF=F KetDBF=F FulRan=T
         wScrn=  0.000000 ICntrl=       600 IOpCl=  0 I1Cent=           0 NGrid=           0
         NMat0=    1 NMatS0=   1596 NMatT0=    0 NMatD0=    1 NMtDS0=    0 NMtDT0=    0
 Petite list used in FoFCou.
 Closed shell SCF:
 Using DIIS extrapolation, IDIIS=  1040.
 NGot=   268435456 LenX=   268074384 LenY=   268070579
 Requested convergence on RMS density matrix=1.00D-08 within 128 cycles.
 Requested convergence on MAX density matrix=1.00D-06.
 Requested convergence on             energy=1.00D-06.
 No special actions if energy rises.

 Cycle   1  Pass 1  IDiag  1:
 E= -108.599576314204    
 DIIS: error= 1.74D-01 at cycle   1 NSaved=   1.
 NSaved= 1 IEnMin= 1 EnMin= -108.599576314204     IErMin= 1 ErrMin= 1.74D-01
 ErrMax= 1.74D-01  0.00D+00 EMaxC= 1.00D-01 BMatC= 1.47D+00 BMatP= 1.47D+00
 IDIUse=3 WtCom= 0.00D+00 WtEn= 1.00D+00
 Coeff-Com:  0.100D+01
 Coeff-En:   0.100D+01
 Coeff:      0.100D+01
 Gap=     0.101 Goal=   None    Shift=    0.000
 GapD=    0.101 DampG=1.000 DampE=0.250 DampFc=0.2500 IDamp=-1.
 Damping current iteration by 2.50D-01
 RMSDP=3.55D-01 MaxDP=9.05D+00              OVMax= 9.16D-01

 Cycle   2  Pass 1  IDiag  1:
 E= -108.770228437446     Delta-E=       -0.170652123242 Rises=F Damp=T
 DIIS: error= 7.71D-02 at cycle   2 NSaved=   2.
 NSaved= 2 IEnMin= 2 EnMin= -108.770228437446     IErMin= 2 ErrMin= 7.71D-02
 ErrMax= 7.71D-02  0.00D+00 EMaxC= 1.00D-01 BMatC= 2.71D-01 BMatP= 1.47D+00
 IDIUse=3 WtCom= 2.29D-01 WtEn= 7.71D-01
 Coeff-Com: -0.678D+00 0.168D+01
 Coeff-En:   0.142D+00 0.858D+00
 Coeff:     -0.454D-01 0.105D+01
 Gap=     0.135 Goal=   None    Shift=    0.000
 RMSDP=9.31D-02 MaxDP=2.28D+00 DE=-1.71D-01 OVMax= 8.50D-01

 Cycle   3  Pass 1  IDiag  1:
 E= -109.307539881316     Delta-E=       -0.537311443870 Rises=F Damp=F
 DIIS: error= 2.75D-02 at cycle   3 NSaved=   3.
 NSaved= 3 IEnMin= 3 EnMin= -109.307539881316     IErMin= 3 ErrMin= 2.75D-02
 ErrMax= 2.75D-02  0.00D+00 EMaxC= 1.00D-01 BMatC= 3.04D-02 BMatP= 2.71D-01
 IDIUse=3 WtCom= 7.25D-01 WtEn= 2.75D-01
 Coeff-Com:  0.232D-01 0.197D+00 0.779D+00
 Coeff-En:   0.000D+00 0.000D+00 0.100D+01
 Coeff:      0.168D-01 0.143D+00 0.840D+00
 Gap=     0.194 Goal=   None    Shift=    0.000
 RMSDP=4.07D-03 MaxDP=5.46D-02 DE=-5.37D-01 OVMax= 4.89D-02

 Cycle   4  Pass 1  IDiag  1:
 E= -109.317884393727     Delta-E=       -0.010344512411 Rises=F Damp=F
 DIIS: error= 1.03D-02 at cycle   4 NSaved=   4.
 NSaved= 4 IEnMin= 4 EnMin= -109.317884393727     IErMin= 4 ErrMin= 1.03D-02
 ErrMax= 1.03D-02  0.00D+00 EMaxC= 1.00D-01 BMatC= 5.07D-03 BMatP= 3.04D-02
 IDIUse=3 WtCom= 8.97D-01 WtEn= 1.03D-01
 Coeff-Com: -0.643D-01 0.981D-01 0.163D+00 0.803D+00
 Coeff-En:   0.000D+00 0.000D+00 0.821D-01 0.918D+00
 Coeff:     -0.577D-01 0.880D-01 0.155D+00 0.815D+00
 Gap=     0.189 Goal=   None    Shift=    0.000
 RMSDP=8.65D-04 MaxDP=1.10D-02 DE=-1.03D-02 OVMax= 1.27D-02

 Cycle   5  Pass 1  IDiag  1:
 E= -109.320724227496     Delta-E=       -0.002839833769 Rises=F Damp=F
 DIIS: error= 1.75D-03 at cycle   5 NSaved=   5.
 NSaved= 5 IEnMin= 5 EnMin= -109.320724227496     IErMin= 5 ErrMin= 1.75D-03
 ErrMax= 1.75D-03  0.00D+00 EMaxC= 1.00D-01 BMatC= 1.42D-04 BMatP= 5.07D-03
 IDIUse=3 WtCom= 9.82D-01 WtEn= 1.75D-02
 Coeff-Com: -0.306D-01 0.418D-01 0.123D-02 0.105D+00 0.883D+00
 Coeff-En:   0.000D+00 0.000D+00 0.000D+00 0.000D+00 0.100D+01
 Coeff:     -0.301D-01 0.411D-01 0.121D-02 0.103D+00 0.885D+00
 Gap=     0.190 Goal=   None    Shift=    0.000
 RMSDP=1.54D-04 MaxDP=1.64D-03 DE=-2.84D-03 OVMax= 1.08D-03

 Cycle   6  Pass 1  IDiag  1:
 E= -109.320757701099     Delta-E=       -0.000033473603 Rises=F Damp=F
 DIIS: error= 1.31D-03 at cycle   6 NSaved=   6.
 NSaved= 6 IEnMin= 6 EnMin= -109.320757701099     IErMin= 6 ErrMin= 1.31D-03
 ErrMax= 1.31D-03  0.00D+00 EMaxC= 1.00D-01 BMatC= 7.24D-05 BMatP= 1.42D-04
 IDIUse=3 WtCom= 9.87D-01 WtEn= 1.31D-02
 Coeff-Com: -0.178D-02 0.465D-02-0.192D-01-0.190D+00 0.133D+00 0.107D+01
 Coeff-En:   0.000D+00 0.000D+00 0.000D+00 0.000D+00 0.000D+00 0.100D+01
 Coeff:     -0.176D-02 0.459D-02-0.189D-01-0.187D+00 0.131D+00 0.107D+01
 Gap=     0.189 Goal=   None    Shift=    0.000
 RMSDP=1.46D-04 MaxDP=1.72D-03 DE=-3.35D-05 OVMax= 3.02D-03

 Cycle   7  Pass 1  IDiag  1:
 E= -109.320810618818     Delta-E=       -0.000052917720 Rises=F Damp=F
 DIIS: error= 7.61D-05 at cycle   7 NSaved=   7.
 NSaved= 7 IEnMin= 7 EnMin= -109.320810618818     IErMin= 7 ErrMin= 7.61D-05
 ErrMax= 7.61D-05  0.00D+00 EMaxC= 1.00D-01 BMatC= 3.30D-07 BMatP= 7.24D-05
 IDIUse=1 WtCom= 1.00D+00 WtEn= 0.00D+00
 Coeff-Com:  0.241D-03 0.427D-04-0.224D-02-0.247D-01-0.258D-01 0.103D+00
 Coeff-Com:  0.949D+00
 Coeff:      0.241D-03 0.427D-04-0.224D-02-0.247D-01-0.258D-01 0.103D+00
 Coeff:      0.949D+00
 Gap=     0.189 Goal=   None    Shift=    0.000
 RMSDP=1.22D-05 MaxDP=1.06D-04 DE=-5.29D-05 OVMax= 1.32D-04

 Cycle   8  Pass 1  IDiag  1:
 E= -109.320810824026     Delta-E=       -0.000000205208 Rises=F Damp=F
 DIIS: error= 4.73D-06 at cycle   8 NSaved=   8.
 NSaved= 8 IEnMin= 8 EnMin= -109.320810824026     IErMin= 8 ErrMin= 4.73D-06
 ErrMax= 4.73D-06  0.00D+00 EMaxC= 1.00D-01 BMatC= 1.01D-09 BMatP= 3.30D-07
 IDIUse=1 WtCom= 1.00D+00 WtEn= 0.00D+00
 Coeff-Com:  0.259D-04-0.354D-04 0.103D-03 0.122D-02-0.124D-02-0.100D-01
 Coeff-Com:  0.660D-01 0.944D+00
 Coeff:      0.259D-04-0.354D-04 0.103D-03 0.122D-02-0.124D-02-0.100D-01
 Coeff:      0.660D-01 0.944D+00
 Gap=     0.189 Goal=   None    Shift=    0.000
 RMSDP=8.74D-07 MaxDP=9.10D-06 DE=-2.05D-07 OVMax= 1.05D-05

 Cycle   9  Pass 1  IDiag  1:
 E= -109.320810824638     Delta-E=       -0.000000000612 Rises=F Damp=F
 DIIS: error= 1.60D-06 at cycle   9 NSaved=   9.
 NSaved= 9 IEnMin= 9 EnMin= -109.320810824638     IErMin= 9 ErrMin= 1.60D-06
 ErrMax= 1.60D-06  0.00D+00 EMaxC= 1.00D-01 BMatC= 1.14D-10 BMatP= 1.01D-09
 IDIUse=1 WtCom= 1.00D+00 WtEn= 0.00D+00
 Coeff-Com:  0.680D-07-0.264D-06-0.235D-05 0.267D-04 0.572D-03 0.715D-03
 Coeff-Com: -0.698D-02-0.303D-02 0.101D+01
 Coeff:      0.680D-07-0.264D-06-0.235D-05 0.267D-04 0.572D-03 0.715D-03
 Coeff:     -0.698D-02-0.303D-02 0.101D+01
 Gap=     0.189 Goal=   None    Shift=    0.000
 RMSDP=1.79D-07 MaxDP=2.21D-06 DE=-6.12D-10 OVMax= 4.57D-06

 Cycle  10  Pass 1  IDiag  1:
 E= -109.320810824716     Delta-E=       -0.000000000078 Rises=F Damp=F
 DIIS: error= 2.63D-08 at cycle  10 NSaved=  10.
 NSaved=10 IEnMin=10 EnMin= -109.320810824716     IErMin=10 ErrMin= 2.63D-08
 ErrMax= 2.63D-08  0.00D+00 EMaxC= 1.00D-01 BMatC= 3.14D-14 BMatP= 1.14D-10
 IDIUse=1 WtCom= 1.00D+00 WtEn= 0.00D+00
 Coeff-Com:  0.108D-06-0.169D-06-0.109D-05-0.143D-04 0.130D-04 0.859D-04
 Coeff-Com: -0.265D-03-0.631D-02-0.632D-02 0.101D+01
 Coeff:      0.108D-06-0.169D-06-0.109D-05-0.143D-04 0.130D-04 0.859D-04
 Coeff:     -0.265D-03-0.631D-02-0.632D-02 0.101D+01
 Gap=     0.189 Goal=   None    Shift=    0.000
 RMSDP=7.00D-09 MaxDP=9.40D-08 DE=-7.76D-11 OVMax= 1.26D-07

 SCF Done:  E(RB3LYP) =  -109.320810825     A.U. after   10 cycles
            NFock= 10  Conv=0.70D-08     -V/T= 1.8642
 KE= 1.265008435194D+02 PE=-3.888867718035D+02 EE= 9.189217865928D+01
 Leave Link  502 at Fri Sep 17 10:51:49 2021, MaxMem=   268435456 cpu:               2.5 elap:               2.7
 (Enter /software/gaussian/g16-a03/l801.exe)
 DoSCS=F DFT=T ScalE2(SS,OS)=  1.000000  1.000000
 ExpMin= 4.38D-02 ExpMax= 8.59D+03 ExpMxC= 1.30D+03 IAcc=3 IRadAn=         5 AccDes= 0.00D+00
 HarFok:  IExCor=  205 AccDes= 0.00D+00 IRadAn=         5 IDoV=-2 UseB2=F ITyADJ=14
 ICtDFT= 12500011 ScaDFX=  1.000000  1.000000  1.000000  1.000000
 Largest valence mixing into a core orbital is  2.38D-03
 Largest core mixing into a valence orbital is  9.79D-04
 Range of M.O.s used for correlation:     3    56
 NBasis=    56 NAE=     8 NBE=     8 NFC=     2 NFV=     0
 NROrb=     54 NOA=     6 NOB=     6 NVA=    48 NVB=    48

 **** Warning!!: The largest alpha MO coefficient is  0.21296810D+02

 Leave Link  801 at Fri Sep 17 10:51:50 2021, MaxMem=   268435456 cpu:               0.4 elap:               0.4
 (Enter /software/gaussian/g16-a03/l914.exe)
 RHF ground state
 Keep R1, R2, and R3 ints in memory in symmetry-blocked form, NReq=6042848.
 FoFCou: FMM=F IPFlag=           0 FMFlag=           0 FMFlg1=           0
         NFxFlg=           0 DoJE=F BraDBF=F KetDBF=F FulRan=T
         wScrn=  0.000000 ICntrl=       600 IOpCl=  0 I1Cent=           0 NGrid=           0
         NMat0=    1 NMatS0=   1596 NMatT0=    0 NMatD0=    1 NMtDS0=    0 NMtDT0=    0
 Petite list used in FoFCou.
 MDV=   268435456 DFT=T DoStab=F Mixed=T DoRPA=T DoScal=F NonHer=T
 Making orbital integer symmetry assigments:
 Orbital symmetries:
       Occupied  (A1) (A1) (A1) (B2) (B1) (A1) (A1) (B2)
       Virtual   (A1) (B1) (B2) (A1) (A1) (B2) (B1) (A1) (A1) (B1)
                 (B2) (A1) (A1) (B2) (B1) (A1) (B2) (A2) (A1) (B1)
                 (B2) (A1) (B2) (A1) (A1) (B1) (A2) (B1) (A1) (B2)
                 (A1) (B2) (B1) (A1) (B2) (A1) (A2) (B2) (A1) (A1)
                 (B1) (B2) (A1) (B1) (B2) (A1) (A1) (A1)
   120 initial guesses have been made.
 Convergence on wavefunction:    0.001000000000000
 Davidson Disk Diagonalization:  ConvIn= 1.00D-03 SkipCon=T Conv= 1.00D-03.
 Max sub-space:  1728 roots to seek:   120 dimension of matrix:          576
 Iteration     1 Dimension   120 NMult     0 NNew    120
 CISAX will form   120 AO SS matrices at one time.
 NMat=   120 NSing=   120 JSym2X=-1.
 New state      3 was old state      4
 New state      4 was old state      3
 New state      5 was old state      7
 New state      7 was old state      5
 New state      9 was old state     10
 New state     10 was old state      9
 New state     16 was old state     17
 New state     17 was old state     18
 New state     18 was old state     16
 New state     22 was old state     24
 New state     23 was old state     22
 New state     24 was old state     23
 New state     25 was old state     26
 New state     26 was old state     25
 New state     27 was old state     28
 New state     28 was old state     31
 Excitation Energies [eV] at current iteration:
 Root      1 :     4.307589558846146
 Root      2 :     4.712105080183332
 Root      3 :     5.498700398043368
 Root      4 :     5.827542650824853
 Root      5 :     8.643992672772741
 Root      6 :     8.727508686704564
 Root      7 :     8.773783699199594
 Root      8 :     9.413657901744177
 Root      9 :    10.020323574831030
 Root     10 :    10.037428136135300
 Root     11 :    10.625288570760960
 Root     12 :    11.212855057541470
 Root     13 :    11.986705662234510
 Root     14 :    12.174011618599980
 Root     15 :    12.808317476813200
 Root     16 :    13.831683523935670
 Root     17 :    14.274702882369090
 Root     18 :    14.485765998741710
 Root     19 :    14.785622203627450
 Root     20 :    15.092850900213180
 Root     21 :    15.104705247646640
 Root     22 :    15.537172521807310
 Root     23 :    15.741401471077720
 Root     24 :    15.744242199511880
 Root     25 :    16.374571954466280
 Root     26 :    16.960920182579980
 Root     27 :    18.274075759065660
 Root     28 :    18.685890034953790
 Root     29 :    18.704795864191670
 Root     30 :    18.770009053298200
 Root     31 :    19.201427935489380
 Root     32 :    19.404235338094630
 Root     33 :    19.501119889284960
 Root     34 :    20.032323338049370
 Root     35 :    20.579526048022650
 Root     36 :    20.637672486792010
 Root     37 :    21.116610322595640
 Root     38 :    22.553513360652820
 Root     39 :    22.872368134463710
 Root     40 :    23.992459498481690
 Root     41 :    24.343873778224040
 Root     42 :    24.836101082460720
 Root     43 :    25.616528633645650
 Root     44 :    26.077561883021990
 Root     45 :    26.688987631791140
 Root     46 :    27.036547512655100
 Root     47 :    27.411397421588700
 Root     48 :    27.505375954647230
 Root     49 :    27.539918685802030
 Root     50 :    27.687217609292060
 Root     51 :    28.293772440626670
 Root     52 :    28.299826647996830
 Root     53 :    28.447562149202760
 Root     54 :    29.140134647033590
 Root     55 :    29.335489262201920
 Root     56 :    29.668616857220060
 Root     57 :    29.699387830610560
 Root     58 :    29.933151486429300
 Root     59 :    30.162953280756200
 Root     60 :    30.360037122484430
 Root     61 :    30.481161595986970
 Root     62 :    30.684277490064130
 Root     63 :    30.763478105374010
 Root     64 :    30.874646277424780
 Root     65 :    31.103743681806770
 Root     66 :    31.167638727438760
 Root     67 :    31.285816134887390
 Root     68 :    31.383507226273660
 Root     69 :    31.492267294602350
 Root     70 :    31.824330926840170
 Root     71 :    31.873102304600650
 Root     72 :    32.010287678671060
 Root     73 :    32.059193209353180
 Root     74 :    32.328152273665180
 Root     75 :    32.465446705754750
 Root     76 :    32.542700941685290
 Root     77 :    33.058065036286690
 Root     78 :    33.841237146029800
 Root     79 :    34.109218161358320
 Root     80 :    34.197034867907900
 Root     81 :    34.241893336193080
 Root     82 :    34.983710573182910
 Root     83 :    35.134039352127750
 Root     84 :    35.461034408392160
 Root     85 :    35.502470738391110
 Root     86 :    35.571669405027410
 Root     87 :    35.628719537612360
 Root     88 :    35.906402865979170
 Root     89 :    36.348565377824270
 Root     90 :    36.663563282191970
 Root     91 :    36.718347169935510
 Root     92 :    38.355166618796800
 Root     93 :    38.661017947205070
 Root     94 :    38.730888714034780
 Root     95 :    38.828323728506790
 Root     96 :    39.387207748287850
 Root     97 :    39.456234058900710
 Root     98 :    40.079311402176650
 Root     99 :    40.126953799710050
 Root    100 :    40.510103982790950
 Root    101 :    41.062961972682930
 Root    102 :    41.174509938036980
 Root    103 :    42.553625719195350
 Root    104 :    42.998510879473150
 Root    105 :    43.173579937389480
 Root    106 :    43.409342783877410
 Root    107 :    44.038641516115170
 Root    108 :    44.397705436428170
 Root    109 :    44.587224666591710
 Root    110 :    44.617833110133070
 Root    111 :    44.758079268152070
 Root    112 :    45.503813655154720
 Root    113 :    45.660134404697170
 Root    114 :    45.693479738875150
 Root    115 :    45.989623627178530
 Root    116 :    47.452848397518790
 Root    117 :    47.480491225930080
 Root    118 :    48.357847920583690
 Root    119 :    48.938550583417340
 Root    120 :    49.955747278512150
 Iteration     2 Dimension   180 NMult   120 NNew     60
 CISAX will form    60 AO SS matrices at one time.
 NMat=    60 NSing=    60 JSym2X=-1.
 Root      1 not converged, maximum delta is    0.004148120347861
 Root      2 not converged, maximum delta is    0.004126838977554
 Root      3 not converged, maximum delta is    0.003170066276493
 Root      4 not converged, maximum delta is    0.006712288977630
 Root      5 not converged, maximum delta is    0.002355009090242
 Root      6 not converged, maximum delta is    0.003441873335083
 Root      7 not converged, maximum delta is    0.011430357730869
 Root      8 not converged, maximum delta is    0.009310953194687
 Root      9 not converged, maximum delta is    0.007392976324761
 Root     10 not converged, maximum delta is    0.005221930563404
 Root     11 not converged, maximum delta is    0.009370984003357
 Root     12 not converged, maximum delta is    0.001767332335324
 Root     13 not converged, maximum delta is    0.006150679980758
 Root     14 not converged, maximum delta is    0.009048205679708
 Root     15 not converged, maximum delta is    0.008796029202686
 Root     16 not converged, maximum delta is    0.010645350688609
 Root     17 not converged, maximum delta is    0.013638900239811
 Root     18 not converged, maximum delta is    0.013845024918269
 Root     19 not converged, maximum delta is    0.004828201171648
 New state     20 was old state     21
 Root     20 not converged, maximum delta is    0.012372639924024
 New state     21 was old state     20
 Root     21 not converged, maximum delta is    0.013635133381800
 Root     22 not converged, maximum delta is    0.013119388864185
 Root     23 not converged, maximum delta is    0.011730448900000
 Root     24 not converged, maximum delta is    0.010412332061852
 Root     25 not converged, maximum delta is    0.009841487568304
 Root     26 not converged, maximum delta is    0.023516769982590
 Root     27 not converged, maximum delta is    0.013004372678303
 Root     28 not converged, maximum delta is    0.056937664201295
 Root     29 not converged, maximum delta is    0.066463735182756
 Root     30 not converged, maximum delta is    0.013632355039747
 Excitation Energies [eV] at current iteration:
 Root      1 :     4.302671793447776   Change is   -0.004917765398370
 Root      2 :     4.709264217207416   Change is   -0.002840862975917
 Root      3 :     5.495362693852974   Change is   -0.003337704190395
 Root      4 :     5.815370091659877   Change is   -0.012172559164976
 Root      5 :     8.643075054327767   Change is   -0.000917618444974
 Root      6 :     8.723022371970499   Change is   -0.004486314734065
 Root      7 :     8.760479900689550   Change is   -0.013303798510045
 Root      8 :     9.395032105590774   Change is   -0.018625796153402
 Root      9 :    10.011631231626840   Change is   -0.008692343204189
 Root     10 :    10.032862231645470   Change is   -0.004565904489827
 Root     11 :    10.598131292364530   Change is   -0.027157278396430
 Root     12 :    11.211172572940160   Change is   -0.001682484601312
 Root     13 :    11.973099405867450   Change is   -0.013606256367053
 Root     14 :    12.153502007404620   Change is   -0.020509611195364
 Root     15 :    12.785593788781690   Change is   -0.022723688031512
 Root     16 :    13.809525249345220   Change is   -0.022158274590448
 Root     17 :    14.270647669851510   Change is   -0.004055212517577
 Root     18 :    14.459134918914340   Change is   -0.026631079827363
 Root     19 :    14.779345725455330   Change is   -0.006276478172123
 Root     20 :    15.058915105180930   Change is   -0.045790142465711
 Root     21 :    15.075186256502430   Change is   -0.017664643710747
 Root     22 :    15.525322473449770   Change is   -0.011850048357539
 Root     23 :    15.722746397360900   Change is   -0.018655073716827
 Root     24 :    15.730696339104770   Change is   -0.013545860407113
 Root     25 :    16.361214412333490   Change is   -0.013357542132790
 Root     26 :    16.833508567587450   Change is   -0.127411614992529
 Root     27 :    18.240613066835410   Change is   -0.033462692230247
 Root     28 :    18.655578754713150   Change is   -0.030311280240635
 Root     29 :    18.699793052567450   Change is   -0.005002811624221
 Root     30 :    18.759517242448200   Change is   -0.010491810849992
 Iteration     3 Dimension   240 NMult   180 NNew     60
 CISAX will form    60 AO SS matrices at one time.
 NMat=    60 NSing=    60 JSym2X=-1.
 Root      1 has converged.
 Root      2 has converged.
 Root      3 has converged.
 Root      4 has converged.
 Root      5 has converged.
 Root      6 has converged.
 Root      7 has converged.
 Root      8 has converged.
 Root      9 has converged.
 Root     10 has converged.
 Root     11 has converged.
 Root     12 has converged.
 Root     13 has converged.
 Root     14 has converged.
 Root     15 has converged.
 Root     16 has converged.
 Root     17 has converged.
 Root     18 has converged.
 Root     19 has converged.
 Root     20 has converged.
 Root     21 has converged.
 Root     22 has converged.
 Root     23 has converged.
 Root     24 has converged.
 Root     25 has converged.
 Root     26 has converged.
 Root     27 has converged.
 Root     28 has converged.
 Root     29 has converged.
 Root     30 has converged.
 Excitation Energies [eV] at current iteration:
 Root      1 :     4.302671236015302   Change is   -0.000000557432475
 Root      2 :     4.709262356525596   Change is   -0.000001860681820
 Root      3 :     5.495361973033703   Change is   -0.000000720819270
 Root      4 :     5.815367246129759   Change is   -0.000002845530118
 Root      5 :     8.643074264718548   Change is   -0.000000789609219
 Root      6 :     8.723020477538666   Change is   -0.000001894431832
 Root      7 :     8.760473789767296   Change is   -0.000006110922253
 Root      8 :     9.395022600172355   Change is   -0.000009505418419
 Root      9 :    10.011617691944050   Change is   -0.000013539682790
 Root     10 :    10.032859086866240   Change is   -0.000003144779235
 Root     11 :    10.598111596435510   Change is   -0.000019695929017
 Root     12 :    11.211168253022450   Change is   -0.000004319917704
 Root     13 :    11.973089627000890   Change is   -0.000009778866562
 Root     14 :    12.153490416292610   Change is   -0.000011591112011
 Root     15 :    12.785571256971210   Change is   -0.000022531810477
 Root     16 :    13.809501224571840   Change is   -0.000024024773387
 Root     17 :    14.270643417075370   Change is   -0.000004252776144
 Root     18 :    14.459100680244520   Change is   -0.000034238669822
 Root     19 :    14.779337772828790   Change is   -0.000007952626538
 Root     20 :    15.058778706299190   Change is   -0.000136398881735
 Root     21 :    15.075167063134360   Change is   -0.000019193368074
 Root     22 :    15.525304567459510   Change is   -0.000017905990257
 Root     23 :    15.722712587532390   Change is   -0.000033809828503
 Root     24 :    15.730681086869770   Change is   -0.000015252235001
 Root     25 :    16.361168122529220   Change is   -0.000046289804273
 Root     26 :    16.833335303631270   Change is   -0.000173263956190
 Root     27 :    18.240552546891460   Change is   -0.000060519943952
 Root     28 :    18.655516525989570   Change is   -0.000062228723587
 Root     29 :    18.699783492902750   Change is   -0.000009559664698
 Root     30 :    18.759493238622510   Change is   -0.000024003825688
 Convergence achieved on expansion vectors.
 ***********************************************************************
 Excited states from <AA,BB:AA,BB> singles matrix:
 ***********************************************************************
 
 1PDM for each excited state written to RWF  633
 Ground to excited state transition densities written to RWF  633
 Ground to excited state transition electric dipole moments (Au):
       state          X           Y           Z        Dip. S.      Osc.
         1         0.0000      1.2342     -0.0000      1.5233      0.1606
         2         0.0000      0.0000      0.0000      0.0000      0.0000
         3        -0.0000      0.5456      0.0000      0.2977      0.0401
         4         0.0000     -0.0000     -0.0788      0.0062      0.0009
         5        -0.0000     -0.0000      0.0000      0.0000      0.0000
         6         0.0000      0.0000     -0.4707      0.2216      0.0474
         7        -0.0000     -0.9597     -0.0000      0.9210      0.1977
         8         0.0000     -0.9412     -0.0000      0.8859      0.2039
         9        -0.0000      0.0000     -0.0000      0.0000      0.0000
        10        -0.0000      0.9207     -0.0000      0.8477      0.2084
        11         0.0000      0.0000      0.4604      0.2120      0.0550
        12        -0.1148     -0.0000     -0.0000      0.0132      0.0036
        13         0.0000     -0.3445     -0.0000      0.1187      0.0348
        14         0.0000      0.0000     -0.3713      0.1378      0.0410
        15         0.0000     -0.0000      0.7121      0.5071      0.1589
        16        -0.0000     -0.2758      0.0000      0.0761      0.0257
        17        -0.0000     -0.0000     -0.2038      0.0415      0.0145
        18         0.0000      0.0000      0.2339      0.0547      0.0194
        19         0.2398      0.0000      0.0000      0.0575      0.0208
        20        -0.6422     -0.0000     -0.0000      0.4124      0.1521
        21        -0.0000     -0.3893      0.0000      0.1515      0.0560
        22         0.0000     -0.0000      0.4032      0.1626      0.0618
        23        -0.0000     -0.1613      0.0000      0.0260      0.0100
        24         0.0000      0.0000      0.4711      0.2219      0.0855
        25         0.1751      0.0000      0.0000      0.0306      0.0123
        26         0.0000     -0.0000     -0.3627      0.1316      0.0543
        27        -0.0000      0.0000     -0.1714      0.0294      0.0131
        28        -0.0000     -0.0237      0.0000      0.0006      0.0003
        29         0.0000     -0.0579     -0.0000      0.0034      0.0015
        30        -0.2349      0.0000      0.0000      0.0552      0.0254
 Ground to excited state transition velocity dipole moments (Au):
       state          X           Y           Z        Dip. S.      Osc.
         1        -0.0000     -0.1826      0.0000      0.0334      0.1406
         2        -0.0000     -0.0000      0.0000      0.0000      0.0000
         3         0.0000     -0.1022     -0.0000      0.0104      0.0345
         4        -0.0000     -0.0000      0.0124      0.0002      0.0005
         5        -0.0000      0.0000     -0.0000      0.0000      0.0000
         6         0.0000     -0.0000      0.1400      0.0196      0.0407
         7        -0.0000      0.3142      0.0000      0.0987      0.2045
         8         0.0000      0.3036     -0.0000      0.0921      0.1779
         9         0.0000     -0.0000      0.0000      0.0000      0.0000
        10         0.0000     -0.3146      0.0000      0.0990      0.1790
        11        -0.0000     -0.0000     -0.1711      0.0293      0.0501
        12         0.0320      0.0000      0.0000      0.0010      0.0017
        13         0.0000      0.1563      0.0000      0.0244      0.0370
        14         0.0000     -0.0000      0.1611      0.0259      0.0387
        15        -0.0000      0.0000     -0.3111      0.0968      0.1373
        16         0.0000      0.0857     -0.0000      0.0074      0.0097
        17         0.0000     -0.0000      0.1042      0.0109      0.0138
        18        -0.0000     -0.0000     -0.1235      0.0153      0.0191
        19        -0.1211     -0.0000     -0.0000      0.0147      0.0180
        20         0.3502      0.0000     -0.0000      0.1226      0.1477
        21         0.0000      0.2029     -0.0000      0.0412      0.0495
        22        -0.0000     -0.0000     -0.2284      0.0521      0.0609
        23         0.0000      0.0781     -0.0000      0.0061      0.0070
        24        -0.0000     -0.0000     -0.2629      0.0691      0.0797
        25        -0.1058     -0.0000      0.0000      0.0112      0.0124
        26        -0.0000      0.0000      0.2240      0.0502      0.0541
        27         0.0000     -0.0000      0.1190      0.0141      0.0141
        28         0.0000      0.0256     -0.0000      0.0007      0.0006
        29        -0.0000      0.0622      0.0000      0.0039      0.0038
        30         0.1757     -0.0000     -0.0000      0.0309      0.0298
 Ground to excited state transition magnetic dipole moments (Au):
       state          X           Y           Z
         1        -0.4428      0.0000      0.0000
         2         0.0000      0.0000     -0.9310
         3         0.7848     -0.0000     -0.0000
         4        -0.0000      0.0000     -0.0000
         5        -0.0000      0.0000      0.4217
         6        -0.0000     -0.0000     -0.0000
         7         0.1452      0.0000     -0.0000
         8         0.8815     -0.0000      0.0000
         9         0.0000      0.0000     -0.9446
        10        -0.4392      0.0000     -0.0000
        11        -0.0000     -0.0000     -0.0000
        12         0.0000      0.0686      0.0000
        13        -0.6039     -0.0000     -0.0000
        14         0.0000     -0.0000     -0.0000
        15        -0.0000      0.0000      0.0000
        16         1.4498     -0.0000     -0.0000
        17         0.0000     -0.0000      0.0000
        18        -0.0000      0.0000     -0.0000
        19         0.0000      0.8088      0.0000
        20         0.0000      0.5333     -0.0000
        21        -0.3370      0.0000      0.0000
        22        -0.0000     -0.0000     -0.0000
        23         0.1174     -0.0000     -0.0000
        24        -0.0000      0.0000      0.0000
        25         0.0000     -0.5484      0.0000
        26        -0.0000      0.0000     -0.0000
        27         0.0000     -0.0000     -0.0000
        28        -0.5971     -0.0000     -0.0000
        29        -0.3535      0.0000      0.0000
        30        -0.0000     -0.1319      0.0000
 Ground to excited state transition velocity quadrupole moments (Au):
       state          XX          YY          ZZ          XY          XZ          YZ
         1         0.0000      0.0000      0.0000     -0.0000      0.0000      0.2581
         2        -0.0000      0.0000     -0.0000      0.3799     -0.0000     -0.0000
         3        -0.0000     -0.0000     -0.0000      0.0000     -0.0000      0.5304
         4         0.3503      0.9028      0.0721      0.0000      0.0000     -0.0000
         5         0.0000      0.0000      0.0000     -0.1754      0.0000     -0.0000
         6        -0.2556     -0.6926     -0.5501      0.0000     -0.0000      0.0000
         7        -0.0000     -0.0000     -0.0000      0.0000      0.0000     -0.8720
         8         0.0000      0.0000      0.0000     -0.0000     -0.0000     -0.3598
         9         0.0000      0.0000      0.0000     -0.0557      0.0000      0.0000
        10         0.0000      0.0000      0.0000     -0.0000      0.0000      0.3754
        11        -0.1285     -0.0186     -0.2833     -0.0000     -0.0000      0.0000
        12         0.0000     -0.0000     -0.0000      0.0000      0.2058     -0.0000
        13         0.0000     -0.0000      0.0000      0.0000     -0.0000      0.2236
        14         0.1307     -0.1458      0.1552      0.0000     -0.0000     -0.0000
        15         0.0840      1.0971      0.9070     -0.0000      0.0000      0.0000
        16        -0.0000      0.0000      0.0000      0.0000     -0.0000     -0.1415
        17        -0.0844     -0.2626      0.0929      0.0000     -0.0000     -0.0000
        18         0.3109      0.7455      0.2253     -0.0000      0.0000      0.0000
        19        -0.0000     -0.0000     -0.0000      0.0000      0.6574     -0.0000
        20         0.0000      0.0000      0.0000     -0.0000      0.2752      0.0000
        21         0.0000      0.0000      0.0000     -0.0000      0.0000      0.4223
        22         0.0663      0.0965     -0.3287      0.0000     -0.0000      0.0000
        23         0.0000      0.0000      0.0000     -0.0000     -0.0000     -0.1609
        24         0.2193      0.3669      1.0649     -0.0000      0.0000      0.0000
        25        -0.0000     -0.0000     -0.0000      0.0000     -0.0534     -0.0000
        26         0.2977      0.2563      1.1481      0.0000      0.0000      0.0000
        27         0.4098     -1.2652     -0.5186     -0.0000     -0.0000      0.0000
        28         0.0000     -0.0000     -0.0000     -0.0000     -0.0000      0.2349
        29         0.0000      0.0000     -0.0000     -0.0000      0.0000     -0.2743
        30        -0.0000      0.0000      0.0000      0.0000     -0.3312      0.0000
 <0|del|b> * <b|rxdel|0> + <0|del|b> * <b|delr+rdel|0>
 Rotatory Strengths (R) in cgs (10**-40 erg-esu-cm/Gauss)
       state          XX          YY          ZZ    R(velocity)    E-M Angle
         1        -0.0000      0.0000      0.0000      0.0000       90.00
         2        -0.0000     -0.0000     -0.0000     -0.0000       90.00
         3         0.0000      0.0000      0.0000      0.0000       90.00
         4         0.0000     -0.0000      0.0000     -0.0000       90.00
         5        -0.0000     -0.0000      0.0000     -0.0000       90.00
         6        -0.0000     -0.0000      0.0000     -0.0000       90.00
         7        -0.0000      0.0000      0.0000      0.0000       90.00
         8         0.0000      0.0000     -0.0000     -0.0000       90.00
         9        -0.0000     -0.0000     -0.0000     -0.0000       90.00
        10         0.0000     -0.0000     -0.0000     -0.0000       90.00
        11         0.0000      0.0000      0.0000      0.0000       90.00
        12        -0.0000      0.0000      0.0000      0.0000       90.00
        13         0.0000     -0.0000     -0.0000     -0.0000       90.00
        14         0.0000     -0.0000      0.0000     -0.0000       90.00
        15        -0.0000     -0.0000      0.0000     -0.0000       90.00
        16        -0.0000      0.0000      0.0000      0.0000       90.00
        17         0.0000      0.0000      0.0000      0.0000       90.00
        18         0.0000     -0.0000      0.0000      0.0000       90.00
        19        -0.0000      0.0000     -0.0000     -0.0000       90.00
        20         0.0000      0.0000      0.0000      0.0000       90.00
        21         0.0000      0.0000      0.0000      0.0000       90.00
        22         0.0000      0.0000      0.0000      0.0000       90.00
        23        -0.0000     -0.0000      0.0000     -0.0000       90.00
        24        -0.0000     -0.0000      0.0000     -0.0000       90.00
        25         0.0000      0.0000      0.0000      0.0000       90.00
        26        -0.0000     -0.0000      0.0000     -0.0000       90.00
        27        -0.0000     -0.0000      0.0000     -0.0000       90.00
        28         0.0000     -0.0000     -0.0000     -0.0000       90.00
        29        -0.0000      0.0000      0.0000      0.0000       90.00
        30        -0.0000      0.0000      0.0000      0.0000       90.00
 1/2[<0|r|b>*<b|rxdel|0> + (<0|rxdel|b>*<b|r|0>)*]
 Rotatory Strengths (R) in cgs (10**-40 erg-esu-cm/Gauss)
       state          XX          YY          ZZ     R(length)
         1         0.0000     -0.0000      0.0000     -0.0000
         2        -0.0000     -0.0000      0.0000      0.0000
         3         0.0000      0.0000      0.0000      0.0000
         4         0.0000      0.0000     -0.0000     -0.0000
         5        -0.0000      0.0000     -0.0000     -0.0000
         6         0.0000      0.0000     -0.0000     -0.0000
         7         0.0000      0.0000     -0.0000      0.0000
         8        -0.0000     -0.0000      0.0000     -0.0000
         9         0.0000     -0.0000     -0.0000     -0.0000
        10        -0.0000     -0.0000     -0.0000     -0.0000
        11         0.0000      0.0000      0.0000      0.0000
        12         0.0000      0.0000      0.0000      0.0000
        13         0.0000     -0.0000     -0.0000     -0.0000
        14        -0.0000      0.0000     -0.0000     -0.0000
        15         0.0000      0.0000     -0.0000     -0.0000
        16         0.0000     -0.0000      0.0000      0.0000
        17         0.0000     -0.0000      0.0000      0.0000
        18         0.0000     -0.0000      0.0000      0.0000
        19        -0.0000     -0.0000     -0.0000     -0.0000
        20         0.0000      0.0000     -0.0000      0.0000
        21        -0.0000      0.0000     -0.0000      0.0000
        22         0.0000     -0.0000      0.0000      0.0000
        23         0.0000     -0.0000      0.0000     -0.0000
        24         0.0000     -0.0000     -0.0000     -0.0000
        25        -0.0000      0.0000     -0.0000     -0.0000
        26         0.0000      0.0000     -0.0000     -0.0000
        27         0.0000      0.0000     -0.0000     -0.0000
        28        -0.0000     -0.0000      0.0000     -0.0000
        29         0.0000      0.0000      0.0000      0.0000
        30        -0.0000      0.0000     -0.0000      0.0000
  1/2[<0|del|b>*<b|r|0> + (<0|r|b>*<b|del|0>)*] (Au)
       state          X           Y           Z        Dip. S.   Osc.(frdel)
         1        -0.0000     -0.2254     -0.0000      0.2254      0.1503
         2        -0.0000     -0.0000      0.0000      0.0000      0.0000
         3        -0.0000     -0.0558     -0.0000      0.0558      0.0372
         4        -0.0000      0.0000     -0.0010      0.0010      0.0007
         5         0.0000     -0.0000     -0.0000      0.0000      0.0000
         6         0.0000     -0.0000     -0.0659      0.0659      0.0439
         7         0.0000     -0.3016     -0.0000      0.3016      0.2011
         8         0.0000     -0.2857      0.0000      0.2857      0.1905
         9        -0.0000     -0.0000     -0.0000      0.0000      0.0000
        10        -0.0000     -0.2897     -0.0000      0.2897      0.1931
        11        -0.0000     -0.0000     -0.0788      0.0788      0.0525
        12        -0.0037     -0.0000     -0.0000      0.0037      0.0024
        13         0.0000     -0.0539     -0.0000      0.0539      0.0359
        14         0.0000     -0.0000     -0.0598      0.0598      0.0399
        15        -0.0000     -0.0000     -0.2215      0.2215      0.1477
        16        -0.0000     -0.0236     -0.0000      0.0236      0.0158
        17        -0.0000      0.0000     -0.0212      0.0212      0.0142
        18        -0.0000     -0.0000     -0.0289      0.0289      0.0193
        19        -0.0290     -0.0000     -0.0000      0.0290      0.0194
        20        -0.2249     -0.0000      0.0000      0.2249      0.1499
        21        -0.0000     -0.0790     -0.0000      0.0790      0.0526
        22        -0.0000      0.0000     -0.0921      0.0921      0.0614
        23        -0.0000     -0.0126     -0.0000      0.0126      0.0084
        24        -0.0000     -0.0000     -0.1238      0.1238      0.0826
        25        -0.0185     -0.0000      0.0000      0.0185      0.0123
        26        -0.0000     -0.0000     -0.0813      0.0813      0.0542
        27        -0.0000     -0.0000     -0.0204      0.0204      0.0136
        28        -0.0000     -0.0006     -0.0000      0.0006      0.0004
        29        -0.0000     -0.0036     -0.0000      0.0036      0.0024
        30        -0.0413     -0.0000     -0.0000      0.0413      0.0275

 Excitation energies and oscillator strengths:
 
 Excited State   1:      Singlet-B2     4.3027 eV  288.16 nm  f=0.1606  <S**2>=0.000
       3 -> 11         0.00064
       3 -> 14         0.00165
       3 -> 19         0.00069
       3 -> 22         0.00148
       3 -> 25        -0.00175
       3 -> 31        -0.00039
       3 -> 38         0.00023
       3 -> 40         0.00067
       3 -> 43         0.00025
       3 -> 46         0.00012
       3 -> 53         0.00014
       4 ->  9        -0.00225
       4 -> 12         0.00137
       4 -> 13         0.00272
       4 -> 16         0.00109
       4 -> 17         0.00130
       4 -> 20         0.00193
       4 -> 21         0.00153
       4 -> 24         0.00093
       4 -> 27         0.00059
       4 -> 30         0.00169
       4 -> 32         0.00021
       4 -> 33         0.00090
       4 -> 37        -0.00045
       4 -> 42         0.00041
       4 -> 44        -0.00022
       4 -> 47        -0.00061
       4 -> 48        -0.00013
       4 -> 51        -0.00014
       4 -> 54        -0.00014
       5 -> 26         0.00221
       5 -> 35         0.00098
       5 -> 45         0.00061
       6 -> 11         0.01106
       6 -> 14        -0.00072
       6 -> 19         0.00346
       6 -> 22         0.00048
       6 -> 25         0.00286
       6 -> 29        -0.00119
       6 -> 31         0.00085
       6 -> 40        -0.00011
       6 -> 43        -0.00019
       6 -> 46        -0.00012
       6 -> 50         0.00016
       7 -> 11         0.00737
       7 -> 14         0.00605
       7 -> 19         0.00385
       7 -> 22         0.00077
       7 -> 25        -0.00321
       7 -> 29        -0.00060
       7 -> 31         0.00115
       7 -> 38        -0.00064
       7 -> 43        -0.00031
       7 -> 46         0.00049
       7 -> 50         0.00037
       7 -> 53        -0.00018
       8 ->  9         0.70370
       8 -> 12        -0.00904
       8 -> 13         0.06994
       8 -> 16        -0.01026
       8 -> 17        -0.02446
       8 -> 20         0.00683
       8 -> 21         0.01231
       8 -> 24        -0.00098
       8 -> 27         0.00136
       8 -> 30        -0.00363
       8 -> 32        -0.00132
       8 -> 33        -0.00167
       8 -> 37        -0.00082
       8 -> 39        -0.00034
       8 -> 42         0.00072
       8 -> 44         0.00067
       8 -> 47         0.00045
       8 -> 48         0.00025
       3 <- 11         0.00035
       3 <- 14         0.00123
       3 <- 19         0.00038
       3 <- 22         0.00127
       3 <- 25        -0.00137
       3 <- 29        -0.00013
       3 <- 31        -0.00040
       3 <- 38         0.00026
       3 <- 40         0.00064
       3 <- 43         0.00026
       3 <- 46         0.00014
       3 <- 53         0.00016
       4 <-  9        -0.00088
       4 <- 13         0.00221
       4 <- 16         0.00099
       4 <- 17        -0.00018
       4 <- 20         0.00136
       4 <- 21         0.00127
       4 <- 24         0.00043
       4 <- 27         0.00112
       4 <- 30         0.00135
       4 <- 32         0.00014
       4 <- 33         0.00037
       4 <- 37        -0.00030
       4 <- 39         0.00015
       4 <- 42         0.00032
       4 <- 44        -0.00020
       4 <- 47        -0.00057
       5 <- 26         0.00193
       5 <- 35         0.00081
       5 <- 45         0.00051
       6 <- 11         0.00392
       6 <- 14        -0.00177
       6 <- 19         0.00161
       6 <- 22        -0.00020
       6 <- 25         0.00230
       6 <- 29        -0.00103
       6 <- 31         0.00079
       6 <- 40        -0.00012
       6 <- 43        -0.00014
       6 <- 50         0.00014
       7 <- 11         0.00147
       7 <- 14         0.00320
       7 <- 19         0.00089
       7 <- 22         0.00048
       7 <- 25        -0.00225
       7 <- 29        -0.00144
       7 <- 31         0.00102
       7 <- 38        -0.00040
       7 <- 43        -0.00021
       7 <- 46         0.00052
       7 <- 50         0.00048
       8 <-  9        -0.01704
       8 <- 12        -0.00838
       8 <- 13         0.02904
       8 <- 16         0.00714
       8 <- 17        -0.00249
       8 <- 20         0.00209
       8 <- 21         0.00691
       8 <- 24         0.00237
       8 <- 27         0.00121
       8 <- 30        -0.00252
       8 <- 32        -0.00160
       8 <- 33        -0.00113
       8 <- 37        -0.00082
       8 <- 39        -0.00038
       8 <- 42         0.00070
       8 <- 44         0.00034
       8 <- 47         0.00041
       8 <- 48         0.00015
 This state for optimization and/or second-order correction.
 Total Energy, E(TD-HF/TD-DFT) =  -109.162690566    
 Copying the excited state density for this state as the 1-particle RhoCI density.
 
 Excited State   2:      Singlet-A2     4.7093 eV  263.28 nm  f=0.0000  <S**2>=0.000
       3 -> 26        -0.00221
       3 -> 35        -0.00101
       3 -> 45        -0.00027
       4 -> 10        -0.00077
       4 -> 15        -0.00105
       4 -> 18        -0.00154
       4 -> 23        -0.00021
       4 -> 28        -0.00172
       4 -> 34         0.00029
       4 -> 36        -0.00088
       4 -> 49        -0.00016
       4 -> 52        -0.00019
       5 -> 11         0.00015
       5 -> 14        -0.00021
       5 -> 19         0.00028
       5 -> 22        -0.00058
       5 -> 25        -0.00021
       5 -> 29         0.00039
       5 -> 38        -0.00034
       5 -> 40        -0.00012
       5 -> 43        -0.00035
       5 -> 46        -0.00022
       5 -> 50         0.00014
       6 -> 26         0.00324
       6 -> 35        -0.00095
       6 -> 45        -0.00025
       7 -> 26         0.00113
       7 -> 35         0.00013
       7 -> 45        -0.00014
       8 -> 10         0.70676
       8 -> 15         0.00449
       8 -> 18         0.02297
       8 -> 23        -0.00331
       8 -> 28        -0.00067
       8 -> 34         0.00368
       8 -> 36        -0.00109
       8 -> 41         0.00084
       8 -> 49         0.00016
       8 -> 52         0.00023
       3 <- 26        -0.00187
       3 <- 35        -0.00087
       3 <- 45        -0.00027
       4 <- 10        -0.00023
       4 <- 18        -0.00074
       4 <- 28        -0.00053
       4 <- 34         0.00057
       4 <- 36        -0.00055
       5 <- 11         0.00036
       5 <- 14        -0.00040
       5 <- 19         0.00082
       5 <- 22        -0.00068
       5 <- 25        -0.00046
       5 <- 29         0.00108
       5 <- 38        -0.00053
       5 <- 43        -0.00039
       5 <- 46        -0.00026
       5 <- 53        -0.00016
       6 <- 26         0.00324
       6 <- 35        -0.00109
       6 <- 45        -0.00025
       7 <- 26         0.00105
       7 <- 45        -0.00018
       8 <- 10         0.00298
       8 <- 15         0.00036
       8 <- 18        -0.00780
       8 <- 28        -0.00107
       8 <- 34         0.00347
       8 <- 36        -0.00093
       8 <- 41         0.00047
       8 <- 52         0.00011
 
 Excited State   3:      Singlet-B2     5.4954 eV  225.62 nm  f=0.0401  <S**2>=0.000
       3 -> 11        -0.00033
       3 -> 14         0.00037
       3 -> 19        -0.00065
       3 -> 22         0.00011
       3 -> 25         0.00013
       3 -> 31         0.00014
       3 -> 38        -0.00017
       3 -> 40        -0.00030
       3 -> 43        -0.00015
       3 -> 53        -0.00019
       4 ->  9         0.00050
       4 -> 13         0.00071
       4 -> 16         0.00128
       4 -> 17        -0.00084
       4 -> 20        -0.00048
       4 -> 21         0.00072
       4 -> 24         0.00086
       4 -> 27         0.00013
       4 -> 30        -0.00186
       4 -> 32        -0.00014
       4 -> 37         0.00052
       4 -> 39        -0.00080
       4 -> 42        -0.00031
       4 -> 47         0.00032
       5 -> 26        -0.00098
       5 -> 35        -0.00102
       5 -> 45        -0.00053
       6 -> 11         0.00110
       6 -> 14        -0.00465
       6 -> 19         0.00191
       6 -> 22         0.00033
       6 -> 25         0.00194
       6 -> 29        -0.00253
       6 -> 31        -0.00068
       6 -> 38        -0.00024
       6 -> 40         0.00031
       6 -> 43        -0.00028
       6 -> 50         0.00012
       6 -> 53        -0.00010
       7 -> 11        -0.00100
       7 -> 14        -0.00289
       7 -> 19        -0.00164
       7 -> 22        -0.00073
       7 -> 25         0.00230
       7 -> 29        -0.00050
       7 -> 31        -0.00032
       7 -> 38         0.00061
       7 -> 40        -0.00028
       7 -> 43         0.00016
       7 -> 46        -0.00059
       7 -> 50        -0.00027
       7 -> 53         0.00024
       8 ->  9         0.00521
       8 -> 12         0.70520
       8 -> 13         0.04688
       8 -> 16         0.02051
       8 -> 17        -0.00209
       8 -> 20         0.01559
       8 -> 21         0.00497
       8 -> 24        -0.00111
       8 -> 27        -0.00195
       8 -> 30        -0.00345
       8 -> 32         0.00040
       8 -> 33         0.00035
       8 -> 37        -0.00097
       8 -> 39         0.00116
       8 -> 42         0.00101
       8 -> 44        -0.00018
       8 -> 51        -0.00011
       8 -> 54        -0.00011
       3 <- 11        -0.00017
       3 <- 14         0.00020
       3 <- 19        -0.00024
       3 <- 29         0.00017
       3 <- 31         0.00019
       3 <- 38        -0.00021
       3 <- 40        -0.00024
       3 <- 43        -0.00016
       3 <- 53        -0.00023
       4 <-  9        -0.00085
       4 <- 12        -0.00021
       4 <- 13         0.00079
       4 <- 16         0.00065
       4 <- 17         0.00025
       4 <- 20        -0.00029
       4 <- 21         0.00052
       4 <- 24         0.00087
       4 <- 30        -0.00132
       4 <- 32        -0.00045
       4 <- 33         0.00024
       4 <- 37         0.00033
       4 <- 39        -0.00056
       4 <- 42        -0.00034
       4 <- 44         0.00011
       4 <- 47         0.00030
       5 <- 26        -0.00065
       5 <- 35        -0.00090
       5 <- 45        -0.00048
       6 <- 11         0.00109
       6 <- 14        -0.00097
       6 <- 22         0.00044
       6 <- 25         0.00175
       6 <- 29        -0.00187
       6 <- 31        -0.00080
       6 <- 38        -0.00032
       6 <- 40         0.00024
       6 <- 43        -0.00025
       6 <- 53        -0.00011
       7 <- 11         0.00032
       7 <- 14        -0.00107
       7 <- 19        -0.00050
       7 <- 22        -0.00057
       7 <- 25         0.00135
       7 <- 29         0.00013
       7 <- 31        -0.00016
       7 <- 38         0.00032
       7 <- 40        -0.00016
       7 <- 46        -0.00051
       7 <- 50        -0.00033
       7 <- 53         0.00017
       8 <-  9        -0.00767
       8 <- 12         0.00049
       8 <- 13         0.01321
       8 <- 16         0.00400
       8 <- 17        -0.00300
       8 <- 20        -0.00325
       8 <- 21         0.00307
       8 <- 24         0.00043
       8 <- 30        -0.00262
       8 <- 32         0.00023
       8 <- 33         0.00042
       8 <- 37        -0.00086
       8 <- 39         0.00114
       8 <- 42         0.00086
       8 <- 44        -0.00012
       8 <- 47        -0.00011
 
 Excited State   4:      Singlet-A1     5.8154 eV  213.20 nm  f=0.0009  <S**2>=0.000
       3 ->  9         0.00205
       3 -> 16        -0.00174
       3 -> 17        -0.00182
       3 -> 21         0.00110
       3 -> 24        -0.00164
       3 -> 27         0.00034
       3 -> 30         0.00070
       3 -> 32         0.00039
       3 -> 33        -0.00095
       3 -> 37         0.00072
       3 -> 39         0.00033
       3 -> 44        -0.00022
       3 -> 51        -0.00011
       3 -> 54         0.00019
       4 -> 11        -0.00482
       4 -> 14        -0.00387
       4 -> 19        -0.00474
       4 -> 22        -0.00273
       4 -> 25         0.00301
       4 -> 29        -0.00162
       4 -> 31        -0.00013
       4 -> 38        -0.00063
       4 -> 40         0.00014
       4 -> 43         0.00012
       4 -> 46        -0.00013
       5 -> 10        -0.00146
       5 -> 15        -0.00346
       5 -> 18         0.00094
       5 -> 23         0.00382
       5 -> 28         0.00059
       5 -> 34        -0.00045
       5 -> 36        -0.00048
       6 ->  9        -0.00793
       6 -> 12        -0.01016
       6 -> 13         0.00204
       6 -> 16         0.00849
       6 -> 17         0.00079
       6 -> 20        -0.00384
       6 -> 21        -0.00421
       6 -> 24         0.00379
       6 -> 27         0.00340
       6 -> 30         0.00036
       6 -> 32        -0.00311
       6 -> 33        -0.00284
       6 -> 37        -0.00224
       6 -> 39         0.00108
       6 -> 42         0.00048
       6 -> 44        -0.00107
       6 -> 47         0.00023
       6 -> 48         0.00041
       6 -> 51         0.00021
       7 ->  9         0.02237
       7 -> 12        -0.01101
       7 -> 13        -0.00498
       7 -> 16         0.00310
       7 -> 17        -0.01431
       7 -> 20        -0.00193
       7 -> 21        -0.00281
       7 -> 24        -0.00218
       7 -> 27         0.00372
       7 -> 30        -0.00133
       7 -> 32         0.00114
       7 -> 33        -0.00028
       7 -> 37        -0.00084
       7 -> 39        -0.00014
       7 -> 44         0.00023
       7 -> 47        -0.00013
       7 -> 54        -0.00017
       8 -> 11         0.70398
       8 -> 14         0.05713
       8 -> 19        -0.02596
       8 -> 22        -0.00195
       8 -> 25        -0.01163
       8 -> 29        -0.00111
       8 -> 31         0.00243
       8 -> 38        -0.00366
       8 -> 40         0.00181
       8 -> 43         0.00182
       8 -> 46        -0.00129
       8 -> 50         0.00022
       3 <-  9         0.00141
       3 <- 12         0.00010
       3 <- 16        -0.00122
       3 <- 17        -0.00116
       3 <- 21         0.00087
       3 <- 24        -0.00123
       3 <- 27         0.00027
       3 <- 30         0.00059
       3 <- 32         0.00031
       3 <- 33        -0.00075
       3 <- 37         0.00060
       3 <- 39         0.00029
       3 <- 44        -0.00017
       3 <- 54         0.00017
       4 <- 11        -0.00237
       4 <- 14        -0.00174
       4 <- 19        -0.00298
       4 <- 22        -0.00190
       4 <- 25         0.00185
       4 <- 29        -0.00120
       4 <- 38        -0.00052
       4 <- 40         0.00015
       4 <- 43         0.00013
       4 <- 46        -0.00010
       5 <- 10        -0.00095
       5 <- 15        -0.00230
       5 <- 18         0.00064
       5 <- 23         0.00285
       5 <- 28         0.00048
       5 <- 34        -0.00039
       5 <- 36        -0.00042
       6 <-  9        -0.00750
       6 <- 12        -0.00482
       6 <- 13         0.00230
       6 <- 16         0.00574
       6 <- 20        -0.00165
       6 <- 21        -0.00386
       6 <- 24         0.00264
       6 <- 27         0.00250
       6 <- 30         0.00011
       6 <- 32        -0.00230
       6 <- 33        -0.00223
       6 <- 37        -0.00201
       6 <- 39         0.00070
       6 <- 42         0.00042
       6 <- 44        -0.00099
       6 <- 47         0.00018
       6 <- 48         0.00037
       6 <- 51         0.00019
       7 <-  9         0.00470
       7 <- 12        -0.00356
       7 <- 13        -0.00129
       7 <- 16         0.00205
       7 <- 17        -0.00634
       7 <- 20        -0.00059
       7 <- 21        -0.00182
       7 <- 24        -0.00121
       7 <- 27         0.00255
       7 <- 30        -0.00097
       7 <- 32         0.00083
       7 <- 33        -0.00017
       7 <- 37        -0.00068
       7 <- 39        -0.00022
       7 <- 44         0.00018
       7 <- 54        -0.00015
       8 <- 11        -0.01768
       8 <- 14         0.00428
       8 <- 19        -0.01773
       8 <- 22        -0.00483
       8 <- 25        -0.00700
       8 <- 29        -0.00112
       8 <- 31         0.00222
       8 <- 38        -0.00304
       8 <- 40         0.00124
       8 <- 43         0.00151
       8 <- 46        -0.00116
       8 <- 50         0.00023
 
 Excited State   5:      Singlet-A2     8.6431 eV  143.45 nm  f=0.0000  <S**2>=0.000
       3 -> 26         0.00113
       3 -> 35         0.00047
       4 -> 10        -0.00120
       4 -> 15        -0.00278
       4 -> 18         0.00119
       4 -> 23         0.00192
       4 -> 28        -0.00011
       4 -> 34         0.00013
       4 -> 36         0.00077
       4 -> 41        -0.00038
       4 -> 49        -0.00010
       5 -> 14         0.00015
       5 -> 19        -0.00027
       5 -> 22         0.00045
       5 -> 25         0.00044
       5 -> 29        -0.00015
       5 -> 38         0.00016
       5 -> 43         0.00023
       5 -> 46         0.00013
       6 -> 26        -0.00136
       6 -> 35         0.00039
       7 -> 26        -0.00075
       7 -> 35        -0.00018
       8 -> 10        -0.00278
       8 -> 15         0.70483
       8 -> 18        -0.05502
       8 -> 23        -0.01345
       8 -> 28        -0.00036
       8 -> 34        -0.00153
       8 -> 36         0.00177
       8 -> 41        -0.00026
       8 -> 52        -0.00015
       3 <- 26         0.00086
       3 <- 35         0.00034
       4 <- 10         0.00019
       4 <- 18         0.00044
       4 <- 23         0.00013
       4 <- 28         0.00021
       4 <- 34        -0.00026
       4 <- 36         0.00031
       5 <- 11         0.00043
       5 <- 19         0.00024
       5 <- 22         0.00043
       5 <- 25         0.00062
       5 <- 31        -0.00021
       5 <- 38         0.00031
       5 <- 40        -0.00013
       5 <- 43         0.00022
       6 <- 26        -0.00127
       6 <- 35         0.00040
       7 <- 26        -0.00032
       7 <- 35        -0.00027
       7 <- 45        -0.00012
       8 <- 10         0.00083
       8 <- 15         0.00236
       8 <- 18         0.00342
       8 <- 23         0.00083
       8 <- 34        -0.00172
       8 <- 36         0.00060
       8 <- 41        -0.00018
 
 Excited State   6:      Singlet-A1     8.7230 eV  142.13 nm  f=0.0474  <S**2>=0.000
       3 ->  9        -0.00055
       3 -> 12         0.00016
       3 -> 13        -0.00053
       3 -> 16         0.00098
       3 -> 17         0.00050
       3 -> 20        -0.00029
       3 -> 21        -0.00059
       3 -> 24         0.00091
       3 -> 27        -0.00024
       3 -> 30        -0.00092
       3 -> 32        -0.00070
       3 -> 39        -0.00018
       3 -> 42        -0.00026
       3 -> 47         0.00028
       3 -> 48        -0.00027
       3 -> 51        -0.00021
       4 -> 11        -0.00091
       4 -> 14        -0.00047
       4 -> 19        -0.00034
       4 -> 22         0.00033
       4 -> 25         0.00050
       4 -> 29         0.00041
       4 -> 31         0.00076
       4 -> 38        -0.00014
       4 -> 40        -0.00034
       4 -> 43        -0.00022
       4 -> 46         0.00053
       4 -> 50         0.00038
       4 -> 53        -0.00015
       5 -> 10         0.00225
       5 -> 15         0.00106
       5 -> 18         0.00237
       5 -> 23        -0.00090
       5 -> 28         0.00166
       5 -> 34         0.00021
       5 -> 36        -0.00028
       5 -> 41         0.00038
       5 -> 49         0.00072
       6 ->  9         0.00977
       6 -> 12         0.00262
       6 -> 13        -0.00130
       6 -> 16        -0.00492
       6 -> 17        -0.00587
       6 -> 20         0.00813
       6 -> 21         0.00195
       6 -> 24        -0.00210
       6 -> 27         0.00032
       6 -> 30         0.00162
       6 -> 32        -0.00206
       6 -> 33        -0.00084
       6 -> 37         0.00151
       6 -> 39         0.00066
       6 -> 42        -0.00035
       6 -> 44         0.00035
       6 -> 51        -0.00017
       6 -> 54         0.00014
       7 ->  9        -0.02000
       7 -> 12         0.00761
       7 -> 13         0.00121
       7 -> 16        -0.00699
       7 -> 17         0.00766
       7 -> 20        -0.00172
       7 -> 21         0.00263
       7 -> 24         0.00015
       7 -> 27        -0.00429
       7 -> 30         0.00063
       7 -> 32        -0.00014
       7 -> 33        -0.00025
       7 -> 37         0.00035
       7 -> 39        -0.00068
       7 -> 42         0.00028
       7 -> 44        -0.00025
       7 -> 47         0.00076
       7 -> 48        -0.00048
       7 -> 54        -0.00045
       8 -> 11        -0.05509
       8 -> 14         0.70360
       8 -> 19         0.03204
       8 -> 22         0.01207
       8 -> 25        -0.00288
       8 -> 29         0.00388
       8 -> 31         0.00274
       8 -> 38         0.00157
       8 -> 43        -0.00042
       8 -> 50        -0.00025
       8 -> 53         0.00010
       3 <-  9        -0.00061
       3 <- 16         0.00068
       3 <- 17         0.00035
       3 <- 20        -0.00010
       3 <- 21        -0.00041
       3 <- 24         0.00071
       3 <- 27        -0.00022
       3 <- 30        -0.00069
       3 <- 32        -0.00056
       3 <- 33         0.00014
       3 <- 39        -0.00017
       3 <- 42        -0.00022
       3 <- 47         0.00026
       3 <- 48        -0.00025
       3 <- 51        -0.00021
       4 <- 11         0.00072
       4 <- 14         0.00066
       4 <- 19         0.00079
       4 <- 22         0.00045
       4 <- 25        -0.00039
       4 <- 29         0.00015
       4 <- 31         0.00064
       4 <- 40        -0.00030
       4 <- 43        -0.00017
       4 <- 46         0.00048
       4 <- 50         0.00037
       4 <- 53        -0.00011
       5 <- 10         0.00115
       5 <- 15         0.00059
       5 <- 18         0.00132
       5 <- 23        -0.00062
       5 <- 28         0.00116
       5 <- 34         0.00016
       5 <- 36        -0.00022
       5 <- 41         0.00031
       5 <- 49         0.00064
       6 <-  9         0.00169
       6 <- 12         0.00250
       6 <- 13         0.00040
       6 <- 17        -0.00084
       6 <- 20         0.00455
       6 <- 21         0.00139
       6 <- 24        -0.00056
       6 <- 27         0.00065
       6 <- 30         0.00121
       6 <- 32        -0.00137
       6 <- 33        -0.00046
       6 <- 37         0.00103
       6 <- 39         0.00020
       6 <- 42        -0.00031
       6 <- 44         0.00027
       6 <- 51        -0.00013
       6 <- 54         0.00011
       7 <-  9        -0.00258
       7 <- 12         0.00164
       7 <- 13         0.00086
       7 <- 16        -0.00137
       7 <- 17         0.00250
       7 <- 20        -0.00019
       7 <- 21         0.00131
       7 <- 24         0.00018
       7 <- 27        -0.00246
       7 <- 30         0.00043
       7 <- 32        -0.00017
       7 <- 33        -0.00023
       7 <- 37         0.00029
       7 <- 39        -0.00063
       7 <- 42         0.00014
       7 <- 44        -0.00019
       7 <- 47         0.00077
       7 <- 48        -0.00038
       7 <- 54        -0.00039
       8 <- 11         0.00482
       8 <- 14         0.00064
       8 <- 19         0.00641
       8 <- 22        -0.00083
       8 <- 25         0.00217
       8 <- 29         0.00216
       8 <- 31         0.00237
       8 <- 38         0.00118
       8 <- 40        -0.00023
       8 <- 43        -0.00033
       8 <- 46         0.00012
       8 <- 50        -0.00021
 
 Excited State   7:      Singlet-B2     8.7605 eV  141.53 nm  f=0.1977  <S**2>=0.000
       3 -> 11         0.00106
       3 -> 14        -0.00202
       3 -> 19         0.00218
       3 -> 22        -0.00164
       3 -> 25         0.00077
       3 -> 29         0.00134
       3 -> 31         0.00078
       3 -> 38        -0.00016
       3 -> 40        -0.00087
       3 -> 43        -0.00034
       4 ->  9         0.00193
       4 -> 12        -0.00189
       4 -> 13        -0.00496
       4 -> 16        -0.00054
       4 -> 17        -0.00072
       4 -> 20        -0.00410
       4 -> 21        -0.00478
       4 -> 24        -0.00061
       4 -> 27        -0.00053
       4 -> 30        -0.00310
       4 -> 32         0.00022
       4 -> 37        -0.00098
       4 -> 42         0.00025
       4 -> 51         0.00029
       5 -> 26        -0.00346
       5 -> 35        -0.00015
       5 -> 45         0.00038
       6 -> 11        -0.02779
       6 -> 14         0.00508
       6 -> 19        -0.01828
       6 -> 22        -0.00135
       6 -> 25        -0.00599
       6 -> 29         0.00158
       6 -> 31         0.00292
       6 -> 38        -0.00319
       6 -> 40         0.00101
       6 -> 43         0.00085
       6 -> 46        -0.00022
       6 -> 50        -0.00015
       7 -> 11        -0.01401
       7 -> 14        -0.00333
       7 -> 19        -0.00502
       7 -> 22         0.00052
       7 -> 25         0.00095
       7 -> 29         0.00064
       7 -> 31        -0.00138
       7 -> 38        -0.00018
       7 -> 40         0.00062
       7 -> 43         0.00043
       8 ->  9        -0.06212
       8 -> 12        -0.02637
       8 -> 13         0.57501
       8 -> 16        -0.39991
       8 -> 17         0.05811
       8 -> 20        -0.01225
       8 -> 21        -0.05021
       8 -> 24        -0.00741
       8 -> 27        -0.00548
       8 -> 30         0.00762
       8 -> 32         0.00308
       8 -> 33         0.00087
       8 -> 37        -0.00347
       8 -> 39        -0.00022
       8 -> 42        -0.00134
       8 -> 44        -0.00295
       8 -> 47         0.00031
       8 -> 48         0.00045
       8 -> 51        -0.00013
       8 -> 54         0.00018
       3 <- 11         0.00060
       3 <- 14        -0.00106
       3 <- 19         0.00110
       3 <- 22        -0.00101
       3 <- 25         0.00064
       3 <- 29         0.00074
       3 <- 31         0.00060
       3 <- 40        -0.00071
       3 <- 43        -0.00031
       4 <-  9         0.00074
       4 <- 12        -0.00056
       4 <- 13        -0.00268
       4 <- 16        -0.00082
       4 <- 17         0.00016
       4 <- 20        -0.00254
       4 <- 21        -0.00273
       4 <- 24        -0.00026
       4 <- 27        -0.00081
       4 <- 30        -0.00195
       4 <- 32         0.00043
       4 <- 33        -0.00010
       4 <- 37        -0.00068
       4 <- 39        -0.00021
       4 <- 42         0.00030
       4 <- 44        -0.00014
       4 <- 51         0.00020
       5 <- 26        -0.00276
       5 <- 45         0.00043
       6 <- 11        -0.00826
       6 <- 14         0.00203
       6 <- 19        -0.00668
       6 <- 22        -0.00187
       6 <- 25        -0.00461
       6 <- 29         0.00101
       6 <- 31         0.00139
       6 <- 38        -0.00233
       6 <- 40         0.00068
       6 <- 43         0.00073
       6 <- 46        -0.00030
       7 <- 11        -0.00153
       7 <- 14        -0.00091
       7 <- 19        -0.00077
       7 <- 25         0.00032
       7 <- 29         0.00100
       7 <- 31        -0.00114
       7 <- 38        -0.00016
       7 <- 40         0.00039
       7 <- 43         0.00031
       7 <- 50        -0.00011
       8 <-  9         0.02471
       8 <- 12         0.01141
       8 <- 13        -0.03519
       8 <- 16        -0.01089
       8 <- 17         0.00504
       8 <- 20        -0.00202
       8 <- 21        -0.02279
       8 <- 24        -0.00216
       8 <- 27        -0.00165
       8 <- 30         0.00422
       8 <- 32         0.00174
       8 <- 37        -0.00209
       8 <- 39        -0.00024
       8 <- 42        -0.00113
       8 <- 44        -0.00207
       8 <- 47         0.00025
       8 <- 48         0.00035
       8 <- 51        -0.00016
 
 Excited State   8:      Singlet-B2     9.3950 eV  131.97 nm  f=0.2039  <S**2>=0.000
       3 -> 11        -0.00024
       3 -> 14        -0.00281
       3 -> 19         0.00066
       3 -> 22        -0.00262
       3 -> 25         0.00217
       3 -> 29         0.00123
       3 -> 31         0.00117
       3 -> 38        -0.00074
       3 -> 40        -0.00126
       3 -> 43        -0.00066
       3 -> 46         0.00011
       3 -> 53        -0.00028
       4 ->  9         0.00262
       4 -> 12        -0.00097
       4 -> 13        -0.00596
       4 -> 16        -0.00282
       4 -> 17        -0.00052
       4 -> 20        -0.00590
       4 -> 21        -0.00423
       4 -> 24        -0.00108
       4 -> 27        -0.00191
       4 -> 30        -0.00476
       4 -> 33        -0.00125
       4 -> 39        -0.00032
       4 -> 42        -0.00033
       4 -> 44         0.00032
       4 -> 47         0.00057
       4 -> 51         0.00029
       4 -> 54        -0.00010
       5 -> 26        -0.00531
       5 -> 35        -0.00171
       5 -> 45        -0.00051
       6 -> 11        -0.02930
       6 -> 14        -0.00093
       6 -> 19        -0.01714
       6 -> 22        -0.00464
       6 -> 25        -0.00727
       6 -> 29         0.00014
       6 -> 38        -0.00198
       6 -> 40         0.00119
       6 -> 43         0.00067
       6 -> 50        -0.00028
       7 -> 11        -0.03270
       7 -> 14        -0.01743
       7 -> 19        -0.00929
       7 -> 22        -0.00258
       7 -> 25         0.00517
       7 -> 29         0.00092
       7 -> 31        -0.00225
       7 -> 38         0.00050
       7 -> 40         0.00019
       7 -> 43         0.00048
       7 -> 46        -0.00057
       7 -> 50        -0.00039
       7 -> 53         0.00018
       8 ->  9        -0.02486
       8 -> 12        -0.04155
[...]
  48        5S          0.00544   0.00000  -0.01693  -0.01390  -0.02750
  49        5PX         0.00000   0.00000   0.00000   0.00000   0.00000
  50        5PY         0.00000   0.00000  -0.05522  -0.08827  -0.11015
  51        5PZ         0.00077   0.00000  -0.00104   0.00032  -0.00348
  52        6D 0        0.00038   0.00000  -0.00070  -0.00002  -0.00166
  53        6D+1        0.00000   0.00000   0.00000   0.00000   0.00000
  54        6D-1        0.00000   0.00000   0.00200   0.00144   0.01833
  55        6D+2       -0.00003   0.00000  -0.00055  -0.00091   0.00011
  56        6D-2        0.00000  -0.00000   0.00000   0.00000   0.00000
                          26        27        28        29        30
  26        4PX         0.00010
  27        4PY         0.00000   0.00284
  28        4PZ         0.00000  -0.00160   0.00122
  29 3   H  1S          0.00000  -0.00621   0.00041   0.08765
  30        2S          0.00000  -0.00833  -0.00052   0.13237   0.20341
  31        3S          0.00000  -0.00698   0.00198   0.11840   0.18331
  32        4PX         0.00010   0.00000   0.00000   0.00000   0.00000
  33        4PY         0.00000   0.00017  -0.00084   0.00492   0.00764
  34        4PZ         0.00000   0.00084  -0.00092   0.00362   0.00579
  35 4   O  1S          0.00000  -0.00164  -0.00086   0.00693   0.01229
  36        2S          0.00000  -0.00357  -0.00081   0.01177   0.02189
  37        2PX         0.00456   0.00000   0.00000   0.00000   0.00000
  38        2PY         0.00000  -0.01867   0.01456   0.02517   0.03197
  39        2PZ         0.00000  -0.01073   0.00073   0.00806   0.03062
  40        3S          0.00000   0.00167   0.00136  -0.01347  -0.02211
  41        3PX         0.00524   0.00000   0.00000   0.00000   0.00000
  42        3PY         0.00000  -0.02168   0.01635   0.04440   0.06161
  43        3PZ         0.00000  -0.00597  -0.00052  -0.00952   0.00410
  44        4S          0.00000  -0.00432   0.00064  -0.02228  -0.01633
  45        4PX         0.00210   0.00000   0.00000   0.00000   0.00000
  46        4PY         0.00000  -0.01224   0.00744   0.07385   0.11346
  47        4PZ         0.00000  -0.00558  -0.00042  -0.00965   0.00292
  48        5S          0.00000  -0.00116  -0.00069  -0.01693  -0.01390
  49        5PX        -0.00061   0.00000   0.00000   0.00000   0.00000
  50        5PY         0.00000  -0.00174  -0.00059   0.05522   0.08827
  51        5PZ         0.00000  -0.00053  -0.00012  -0.00104   0.00032
  52        6D 0        0.00000  -0.00022  -0.00011  -0.00070  -0.00002
  53        6D+1       -0.00100   0.00000   0.00000   0.00000   0.00000
  54        6D-1        0.00000   0.00387  -0.00314  -0.00200  -0.00144
  55        6D+2        0.00000   0.00018  -0.00003  -0.00055  -0.00091
  56        6D-2       -0.00000   0.00000   0.00000   0.00000   0.00000
                          31        32        33        34        35
  31        3S          0.24233
  32        4PX         0.00000   0.00010
  33        4PY        -0.00673   0.00000   0.00284
  34        4PZ        -0.00119   0.00000   0.00160   0.00122
  35 4   O  1S          0.00393   0.00000   0.00164  -0.00086   0.64501
  36        2S          0.00441   0.00000   0.00357  -0.00081   0.58643
  37        2PX         0.00000   0.00456   0.00000   0.00000   0.00000
  38        2PY         0.11744   0.00000  -0.01867  -0.01456   0.00000
  39        2PZ        -0.04074   0.00000   0.01073   0.00073   0.01519
  40        3S         -0.02792   0.00000  -0.00167   0.00136  -0.08434
  41        3PX         0.00000   0.00524   0.00000   0.00000   0.00000
  42        3PY         0.16486   0.00000  -0.02168  -0.01635   0.00000
  43        3PZ        -0.04000   0.00000   0.00597  -0.00052   0.01669
  44        4S         -0.06245   0.00000   0.00432   0.00064  -0.05550
  45        4PX         0.00000   0.00210   0.00000   0.00000   0.00000
  46        4PY         0.18458   0.00000  -0.01224  -0.00744   0.00000
  47        4PZ        -0.03864   0.00000   0.00558  -0.00042  -0.00300
  48        5S         -0.02750   0.00000   0.00116  -0.00069   0.00307
  49        5PX         0.00000  -0.00061   0.00000   0.00000   0.00000
  50        5PY         0.11015   0.00000  -0.00174   0.00059   0.00000
  51        5PZ        -0.00348   0.00000   0.00053  -0.00012   0.00408
  52        6D 0       -0.00166   0.00000   0.00022  -0.00011   0.00567
  53        6D+1        0.00000  -0.00100   0.00000   0.00000   0.00000
  54        6D-1       -0.01833   0.00000   0.00387   0.00314   0.00000
  55        6D+2        0.00011   0.00000  -0.00018  -0.00003  -0.00028
  56        6D-2        0.00000   0.00000   0.00000   0.00000   0.00000
                          36        37        38        39        40
  36        2S          0.55836
  37        2PX         0.00000   0.20170
  38        2PY         0.00000   0.00000   0.23717
  39        2PZ         0.03617   0.00000   0.00000   0.32536
  40        3S         -0.18085   0.00000   0.00000   0.09481   0.56407
  41        3PX         0.00000   0.23161   0.00000   0.00000   0.00000
  42        3PY         0.00000   0.00000   0.27997   0.00000   0.00000
  43        3PZ         0.02711   0.00000   0.00000   0.28236   0.10913
  44        4S         -0.12638   0.00000   0.00000   0.34891   0.58088
  45        4PX         0.00000   0.09303   0.00000   0.00000   0.00000
  46        4PY         0.00000   0.00000   0.17256   0.00000   0.00000
  47        4PZ         0.00585   0.00000   0.00000   0.26834   0.12029
  48        5S         -0.00858   0.00000   0.00000   0.15834   0.14730
  49        5PX         0.00000  -0.02717   0.00000   0.00000   0.00000
  50        5PY         0.00000   0.00000   0.03785   0.00000   0.00000
  51        5PZ         0.00689   0.00000   0.00000   0.02618  -0.00054
  52        6D 0        0.00780   0.00000   0.00000   0.01344  -0.00618
  53        6D+1        0.00000  -0.04440   0.00000   0.00000   0.00000
  54        6D-1        0.00000   0.00000  -0.04825   0.00000   0.00000
  55        6D+2       -0.00096   0.00000   0.00000  -0.00227   0.00178
  56        6D-2        0.00000   0.00000   0.00000   0.00000   0.00000
                          41        42        43        44        45
  41        3PX         0.26595
  42        3PY         0.00000   0.33438
  43        3PZ         0.00000   0.00000   0.25951
  44        4S          0.00000   0.00000   0.33462   0.81264
  45        4PX         0.10682   0.00000   0.00000   0.00000   0.04290
  46        4PY         0.00000   0.21842   0.00000   0.00000   0.00000
  47        4PZ         0.00000   0.00000   0.24630   0.33294   0.00000
  48        5S          0.00000   0.00000   0.15179   0.27100   0.00000
  49        5PX        -0.03119   0.00000   0.00000   0.00000  -0.01253
  50        5PY         0.00000   0.05825   0.00000   0.00000   0.00000
  51        5PZ         0.00000   0.00000   0.02429   0.02163   0.00000
  52        6D 0        0.00000   0.00000   0.01301   0.00587   0.00000
  53        6D+1       -0.05099   0.00000   0.00000   0.00000  -0.02048
  54        6D-1        0.00000  -0.05612   0.00000   0.00000   0.00000
  55        6D+2        0.00000   0.00000  -0.00152  -0.00003   0.00000
  56        6D-2        0.00000   0.00000   0.00000   0.00000   0.00000
                          46        47        48        49        50
  46        4PY         0.18120
  47        4PZ         0.00000   0.23489
  48        5S          0.00000   0.14721   0.10763
  49        5PX         0.00000   0.00000   0.00000   0.00366
  50        5PY         0.07884   0.00000   0.00000   0.00000   0.05335
  51        5PZ         0.00000   0.02260   0.01230   0.00000   0.00000
  52        6D 0        0.00000   0.01174   0.00539   0.00000   0.00000
  53        6D+1        0.00000   0.00000   0.00000   0.00598   0.00000
  54        6D-1       -0.03198   0.00000   0.00000   0.00000  -0.00482
  55        6D+2        0.00000  -0.00139  -0.00039   0.00000   0.00000
  56        6D-2        0.00000   0.00000   0.00000   0.00000   0.00000
                          51        52        53        54        55
  51        5PZ         0.00255
  52        6D 0        0.00155   0.00109
  53        6D+1        0.00000   0.00000   0.00977
  54        6D-1        0.00000   0.00000   0.00000   0.00999
  55        6D+2       -0.00017  -0.00010   0.00000   0.00000   0.00004
  56        6D-2        0.00000   0.00000   0.00000   0.00000   0.00000
                          56
  56        6D-2        0.00000
          Condensed to atoms (all electrons):
               1          2          3          4
     1  C    5.525164   0.562498   0.562498  -0.770533
     2  H    0.562498   1.102298  -0.255735  -0.263375
     3  H    0.562498  -0.255735   1.102298  -0.263375
     4  O   -0.770533  -0.263375  -0.263375   9.126281
 Mulliken charges:
               1
     1  C    0.120373
     2  H   -0.145687
     3  H   -0.145687
     4  O    0.171002
 Sum of Mulliken charges =  -0.00000
 Mulliken charges with hydrogens summed into heavy atoms:
               1
     1  C   -0.171002
     4  O    0.171002
 Electronic spatial extent (au):  <R**2>=             42.9671
 Charge=             -0.0000 electrons
 Dipole moment (field-independent basis, Debye):
    X=              0.0000    Y=              0.0000    Z=              1.7933  Tot=              1.7933
 Quadrupole moment (field-independent basis, Debye-Ang):
   XX=             -9.8749   YY=            -14.6508   ZZ=            -13.8670
   XY=             -0.0000   XZ=             -0.0000   YZ=             -0.0000
 Traceless Quadrupole moment (field-independent basis, Debye-Ang):
   XX=              2.9227   YY=             -1.8533   ZZ=             -1.0694
   XY=             -0.0000   XZ=             -0.0000   YZ=             -0.0000
 Octapole moment (field-independent basis, Debye-Ang**2):
  XXX=              0.0000  YYY=              0.0000  ZZZ=              6.3883  XYY=              0.0000
  XXY=              0.0000  XXZ=              2.1582  XZZ=              0.0000  YZZ=             -0.0000
  YYZ=              6.1251  XYZ=              0.0000
 Hexadecapole moment (field-independent basis, Debye-Ang**3):
 XXXX=             -9.2037 YYYY=            -42.5924 ZZZZ=            -31.0014 XXXY=             -0.0000
 XXXZ=             -0.0000 YYYX=             -0.0000 YYYZ=             -0.0000 ZZZX=             -0.0000
 ZZZY=             -0.0000 XXYY=             -8.1360 XXZZ=             -6.3855 YYZZ=            -14.0382
 XXYZ=              0.0000 YYXZ=             -0.0000 ZZXY=             -0.0000
 N-N= 6.117293880001D+01 E-N=-3.888867726943D+02  KE= 1.265008435194D+02
 Symmetry A1   KE= 1.120452125360D+02
 Symmetry A2   KE= 2.673939851690D-35
 Symmetry B1   KE= 6.244962176227D+00
 Symmetry B2   KE= 8.210668807178D+00
 Leave Link  601 at Fri Sep 17 10:52:15 2021, MaxMem=   268435456 cpu:               0.1 elap:               0.1
 (Enter /software/gaussian/g16-a03/l9999.exe)
 Electronic transition elements 
                 1             2             3             4             5 
      1  -0.109163D+03 -0.109148D+03 -0.109119D+03 -0.109107D+03 -0.109003D+03
      2   0.000000D+00  0.000000D+00  0.000000D+00  0.000000D+00  0.000000D+00
      3   0.123420D+01  0.000000D+00  0.545638D+00  0.000000D+00  0.000000D+00
      4   0.000000D+00  0.000000D+00  0.000000D+00 -0.787855D-01  0.000000D+00
      5   0.000000D+00  0.000000D+00  0.000000D+00  0.000000D+00  0.000000D+00
      6  -0.182637D+00  0.000000D+00 -0.102184D+00  0.000000D+00  0.000000D+00
      7   0.000000D+00  0.000000D+00  0.000000D+00  0.124067D-01  0.000000D+00
      8  -0.442776D+00  0.000000D+00  0.784782D+00  0.000000D+00  0.000000D+00
      9   0.000000D+00  0.000000D+00  0.000000D+00  0.000000D+00  0.000000D+00
     10   0.000000D+00 -0.930970D+00  0.000000D+00  0.000000D+00  0.421663D+00
     11   0.000000D+00  0.000000D+00  0.000000D+00  0.350277D+00  0.000000D+00
     12   0.000000D+00  0.000000D+00  0.000000D+00  0.902758D+00  0.000000D+00
     13   0.000000D+00  0.000000D+00  0.000000D+00  0.720831D-01  0.000000D+00
     14   0.000000D+00  0.379889D+00  0.000000D+00  0.000000D+00 -0.175366D+00
     15   0.000000D+00  0.000000D+00  0.000000D+00  0.000000D+00  0.000000D+00
     16   0.258091D+00  0.000000D+00  0.530391D+00  0.000000D+00  0.000000D+00
                 6             7             8             9            10 
      1  -0.109000D+03 -0.108999D+03 -0.108976D+03 -0.108953D+03 -0.108952D+03
      2   0.000000D+00  0.000000D+00  0.000000D+00  0.000000D+00  0.000000D+00
      3   0.000000D+00 -0.959705D+00 -0.941235D+00  0.000000D+00  0.920724D+00
      4  -0.470736D+00  0.000000D+00  0.000000D+00  0.000000D+00  0.000000D+00
      5   0.000000D+00  0.000000D+00  0.000000D+00  0.000000D+00  0.000000D+00
      6   0.000000D+00  0.314243D+00  0.303556D+00  0.000000D+00 -0.314617D+00
      7   0.139953D+00  0.000000D+00  0.000000D+00  0.000000D+00  0.000000D+00
      8   0.000000D+00  0.145243D+00  0.881528D+00  0.000000D+00 -0.439229D+00
      9   0.000000D+00  0.000000D+00  0.000000D+00  0.000000D+00  0.000000D+00
     10   0.000000D+00  0.000000D+00  0.000000D+00 -0.944584D+00  0.000000D+00
     11  -0.255594D+00  0.000000D+00  0.000000D+00  0.000000D+00  0.000000D+00
     12  -0.692560D+00  0.000000D+00  0.000000D+00  0.000000D+00  0.000000D+00
     13  -0.550102D+00  0.000000D+00  0.000000D+00  0.000000D+00  0.000000D+00
     14   0.000000D+00  0.000000D+00  0.000000D+00 -0.556891D-01  0.000000D+00
     15   0.000000D+00  0.000000D+00  0.000000D+00  0.000000D+00  0.000000D+00
     16   0.000000D+00 -0.871989D+00 -0.359758D+00  0.000000D+00  0.375385D+00
                11            12            13            14            15 
      1  -0.108931D+03 -0.108909D+03 -0.108881D+03 -0.108874D+03 -0.108851D+03
      2   0.000000D+00 -0.114811D+00  0.000000D+00  0.000000D+00  0.000000D+00
      3   0.000000D+00  0.000000D+00 -0.344548D+00  0.000000D+00  0.000000D+00
      4   0.460448D+00  0.000000D+00  0.000000D+00 -0.371265D+00  0.712129D+00
      5   0.000000D+00  0.319551D-01  0.000000D+00  0.000000D+00  0.000000D+00
      6   0.000000D+00  0.000000D+00  0.156298D+00  0.000000D+00  0.000000D+00
      7  -0.171065D+00  0.000000D+00  0.000000D+00  0.161063D+00 -0.311085D+00
      8   0.000000D+00  0.000000D+00 -0.603925D+00  0.000000D+00  0.000000D+00
      9   0.000000D+00  0.686057D-01  0.000000D+00  0.000000D+00  0.000000D+00
     10   0.000000D+00  0.000000D+00  0.000000D+00  0.000000D+00  0.000000D+00
     11  -0.128479D+00  0.000000D+00  0.000000D+00  0.130738D+00  0.839722D-01
     12  -0.186209D-01  0.000000D+00  0.000000D+00 -0.145828D+00  0.109710D+01
     13  -0.283332D+00  0.000000D+00  0.000000D+00  0.155226D+00  0.907043D+00
     14   0.000000D+00  0.000000D+00  0.000000D+00  0.000000D+00  0.000000D+00
     15   0.000000D+00  0.205787D+00  0.000000D+00  0.000000D+00  0.000000D+00
     16   0.000000D+00  0.000000D+00  0.223611D+00  0.000000D+00  0.000000D+00
                16            17            18            19            20 
      1  -0.108813D+03 -0.108796D+03 -0.108789D+03 -0.108778D+03 -0.108767D+03
      2   0.000000D+00  0.000000D+00  0.000000D+00  0.239776D+00 -0.642165D+00
      3  -0.275811D+00  0.000000D+00  0.000000D+00  0.000000D+00  0.000000D+00
      4   0.000000D+00 -0.203786D+00  0.233931D+00  0.000000D+00  0.000000D+00
      5   0.000000D+00  0.000000D+00  0.000000D+00 -0.121067D+00  0.350178D+00
      6   0.857377D-01  0.000000D+00  0.000000D+00  0.000000D+00  0.000000D+00
      7   0.000000D+00  0.104223D+00 -0.123511D+00  0.000000D+00  0.000000D+00
      8   0.144976D+01  0.000000D+00  0.000000D+00  0.000000D+00  0.000000D+00
      9   0.000000D+00  0.000000D+00  0.000000D+00  0.808753D+00  0.533337D+00
     10   0.000000D+00  0.000000D+00  0.000000D+00  0.000000D+00  0.000000D+00
     11   0.000000D+00 -0.843921D-01  0.310907D+00  0.000000D+00  0.000000D+00
     12   0.000000D+00 -0.262583D+00  0.745514D+00  0.000000D+00  0.000000D+00
     13   0.000000D+00  0.928924D-01  0.225332D+00  0.000000D+00  0.000000D+00
     14   0.000000D+00  0.000000D+00  0.000000D+00  0.000000D+00  0.000000D+00
     15   0.000000D+00  0.000000D+00  0.000000D+00  0.657390D+00  0.275155D+00
     16  -0.141516D+00  0.000000D+00  0.000000D+00  0.000000D+00  0.000000D+00
                21            22            23            24            25 
      1  -0.108767D+03 -0.108750D+03 -0.108743D+03 -0.108743D+03 -0.108720D+03
      2   0.000000D+00  0.000000D+00  0.000000D+00  0.000000D+00  0.175067D+00
      3  -0.389276D+00  0.000000D+00 -0.161289D+00  0.000000D+00  0.000000D+00
      4   0.000000D+00  0.403177D+00  0.000000D+00  0.471099D+00  0.000000D+00
      5   0.000000D+00  0.000000D+00  0.000000D+00  0.000000D+00 -0.105801D+00
      6   0.202859D+00  0.000000D+00  0.781428D-01  0.000000D+00  0.000000D+00
      7   0.000000D+00 -0.228350D+00  0.000000D+00 -0.262880D+00  0.000000D+00
      8  -0.336981D+00  0.000000D+00  0.117395D+00  0.000000D+00  0.000000D+00
      9   0.000000D+00  0.000000D+00  0.000000D+00  0.000000D+00 -0.548417D+00
     10   0.000000D+00  0.000000D+00  0.000000D+00  0.000000D+00  0.000000D+00
     11   0.000000D+00  0.663227D-01  0.000000D+00  0.219335D+00  0.000000D+00
     12   0.000000D+00  0.965238D-01  0.000000D+00  0.366902D+00  0.000000D+00
     13   0.000000D+00 -0.328687D+00  0.000000D+00  0.106494D+01  0.000000D+00
     14   0.000000D+00  0.000000D+00  0.000000D+00  0.000000D+00  0.000000D+00
     15   0.000000D+00  0.000000D+00  0.000000D+00  0.000000D+00 -0.533554D-01
     16   0.422251D+00  0.000000D+00 -0.160896D+00  0.000000D+00  0.000000D+00
                26            27            28            29            30 
      1  -0.108702D+03 -0.108650D+03 -0.108635D+03 -0.108634D+03 -0.108631D+03
      2   0.000000D+00  0.000000D+00  0.000000D+00  0.000000D+00 -0.234867D+00
      3   0.000000D+00  0.000000D+00 -0.236734D-01 -0.579091D-01  0.000000D+00
      4  -0.362734D+00 -0.171376D+00  0.000000D+00  0.000000D+00  0.000000D+00
      5   0.000000D+00  0.000000D+00  0.000000D+00  0.000000D+00  0.175670D+00
      6   0.000000D+00  0.000000D+00  0.255878D-01  0.621959D-01  0.000000D+00
      7   0.223996D+00  0.118954D+00  0.000000D+00  0.000000D+00  0.000000D+00
      8   0.000000D+00  0.000000D+00 -0.597102D+00 -0.353459D+00  0.000000D+00
      9   0.000000D+00  0.000000D+00  0.000000D+00  0.000000D+00 -0.131894D+00
     10   0.000000D+00  0.000000D+00  0.000000D+00  0.000000D+00  0.000000D+00
     11   0.297676D+00  0.409846D+00  0.000000D+00  0.000000D+00  0.000000D+00
     12   0.256337D+00 -0.126519D+01  0.000000D+00  0.000000D+00  0.000000D+00
     13   0.114808D+01 -0.518603D+00  0.000000D+00  0.000000D+00  0.000000D+00
     14   0.000000D+00  0.000000D+00  0.000000D+00  0.000000D+00  0.000000D+00
     15   0.000000D+00  0.000000D+00  0.000000D+00  0.000000D+00 -0.331157D+00
     16   0.000000D+00  0.000000D+00  0.234897D+00 -0.274260D+00  0.000000D+00

 Test job not archived.
 1\1\GINC-BHD0001\SP\RB3LYP TD-FC\6-311+G(d,p)\C1H2O1\BWEIGHT\17-Sep-20
 21\0\\#p B3LYP/6-311+G** #p TD=(singlets,nstates=30)IOp(6/8=3) IOp(9/4
 0=4)\\Scan Step 3, Bond Length 0.515\\0,1\C,0,0.,0.,-0.52736\H,0,0.,0.
 93726,-1.11871\H,0,0.,-0.93726,-1.11871\O,0,0.,0.,-0.01236\\Version=ES
 64L-G16RevA.03\State=1-A1\HF=-109.3208108\RMSD=7.000e-09\PG=C02V [C2(C
 1O1),SGV(H2)]\\@


 ASKING FOR EFFICIENCY AND ADAPTABILITY IN THE SAME PROGRAM IS LIKE
 ASKING FOR A BEAUTIFUL AND MODEST WIFE ...
 WE'LL PROBABLY HAVE TO SETTLE FOR ONE OR THE OTHER.

             -- THE PSYCHOLOGY OF COMPUTER PROGRAMMING
                GERALD M. WEINBERG
 Job cpu time:       0 days  0 hours  0 minutes 29.8 seconds.
 Elapsed time:       0 days  0 hours  0 minutes 30.1 seconds.
 File lengths (MBytes):  RWF=     79 Int=      0 D2E=      0 Chk=     32 Scr=      1
 Normal termination of Gaussian 16 at Fri Sep 17 10:52:15 2021.
