 Entering Gaussian System, Link 0=g16
 Initial command:
 /software/gaussian/g16-c01/sse4/g16/l1.exe "/local_scratch/24657550/Gau-21460.inp" -scrdir="/local_scratch/24657550/"
 Entering Link 1 = /software/gaussian/g16-c01/sse4/g16/l1.exe PID=     21462.
  
 Copyright (c) 1988-2019, Gaussian, Inc.  All Rights Reserved.
  
 This is part of the Gaussian(R) 16 program.  It is based on
 the Gaussian(R) 09 system (copyright 2009, Gaussian, Inc.),
 the Gaussian(R) 03 system (copyright 2003, Gaussian, Inc.),
 the Gaussian(R) 98 system (copyright 1998, Gaussian, Inc.),
 the Gaussian(R) 94 system (copyright 1995, Gaussian, Inc.),
 the Gaussian 92(TM) system (copyright 1992, Gaussian, Inc.),
 the Gaussian 90(TM) system (copyright 1990, Gaussian, Inc.),
 the Gaussian 88(TM) system (copyright 1988, Gaussian, Inc.),
 the Gaussian 86(TM) system (copyright 1986, Carnegie Mellon
 University), and the Gaussian 82(TM) system (copyright 1983,
 Carnegie Mellon University). Gaussian is a federally registered
 trademark of Gaussian, Inc.
  
 This software contains proprietary and confidential information,
 including trade secrets, belonging to Gaussian, Inc.
  
 This software is provided under written license and may be
 used, copied, transmitted, or stored only in accord with that
 written license.
  
 The following legend is applicable only to US Government
 contracts under FAR:
  
                    RESTRICTED RIGHTS LEGEND
  
 Use, reproduction and disclosure by the US Government is
 subject to restrictions as set forth in subparagraphs (a)
 and (c) of the Commercial Computer Software - Restricted
 Rights clause in FAR 52.227-19.
  
 Gaussian, Inc.
 340 Quinnipiac St., Bldg. 40, Wallingford CT 06492
  
  
 ---------------------------------------------------------------
 Warning -- This program may not be used in any manner that
 competes with the business of Gaussian, Inc. or will provide
 assistance to any competitor of Gaussian, Inc.  The licensee
 of this program is prohibited from giving any competitor of
 Gaussian, Inc. access to this program.  By using this program,
 the user acknowledges that Gaussian, Inc. is engaged in the
 business of creating and licensing software in the field of
 computational chemistry and represents and warrants to the
 licensee that it is not a competitor of Gaussian, Inc. and that
 it will not use this program in any manner prohibited above.
 ---------------------------------------------------------------
  

 Cite this work as:
 Gaussian 16, Revision C.01,
 M. J. Frisch, G. W. Trucks, H. B. Schlegel, G. E. Scuseria, 
 M. A. Robb, J. R. Cheeseman, G. Scalmani, V. Barone, 
 G. A. Petersson, H. Nakatsuji, X. Li, M. Caricato, A. V. Marenich, 
 J. Bloino, B. G. Janesko, R. Gomperts, B. Mennucci, H. P. Hratchian, 
 J. V. Ortiz, A. F. Izmaylov, J. L. Sonnenberg, D. Williams-Young, 
 F. Ding, F. Lipparini, F. Egidi, J. Goings, B. Peng, A. Petrone, 
 T. Henderson, D. Ranasinghe, V. G. Zakrzewski, J. Gao, N. Rega, 
 G. Zheng, W. Liang, M. Hada, M. Ehara, K. Toyota, R. Fukuda, 
 J. Hasegawa, M. Ishida, T. Nakajima, Y. Honda, O. Kitao, H. Nakai, 
 T. Vreven, K. Throssell, J. A. Montgomery, Jr., J. E. Peralta, 
 F. Ogliaro, M. J. Bearpark, J. J. Heyd, E. N. Brothers, K. N. Kudin, 
 V. N. Staroverov, T. A. Keith, R. Kobayashi, J. Normand, 
 K. Raghavachari, A. P. Rendell, J. C. Burant, S. S. Iyengar, 
 J. Tomasi, M. Cossi, J. M. Millam, M. Klene, C. Adamo, R. Cammi, 
 J. W. Ochterski, R. L. Martin, K. Morokuma, O. Farkas, 
 J. B. Foresman, and D. J. Fox, Gaussian, Inc., Wallingford CT, 2019.
 
 ******************************************
 Gaussian 16:  ES64L-G16RevC.01  3-Jul-2019
                 1-May-2024 
 ******************************************
 %chk=geometry.chk
 %mem=9GB
 %nprocshared=12
 Will use up to   12 processors via shared memory.
 ----------------------------------------
 #P wB97XD/6-311+G* NoSymm #P Field=Z-107
 ----------------------------------------
 1/38=1,172=1/1;
 2/12=2,15=1,17=6,18=5,40=1/2;
 3/5=4,6=6,7=11,11=2,14=3,15=-107,25=1,30=1,74=-58/1,2,3;
 4//1;
 5/5=2,38=5/2;
 6/7=2,8=2,9=2,10=2,28=1/1;
 99/5=1,9=1/99;
 Leave Link    1 at Wed May  1 15:05:01 2024, MaxMem=  1207959552 cpu:               1.5 elap:               1.5
 (Enter /software/gaussian/g16-c01/sse4/g16/l101.exe)
 -------
 TitleMe
 -------
 Symbolic Z-matrix:
 Charge =  1 Multiplicity = 1
 C                     0.0295    1.3397    0.0682 
 C                     1.4348    1.2867    0.0064 
 C                     2.1118    0.0511   -0.0054 
 C                     1.4451   -1.1372    0.0312 
 C                    -0.6879    0.1682    0.11 
 H                    -0.4713    2.2984    0.0781 
 H                     2.0273    2.1965   -0.0322 
 H                     1.9897   -2.0764    0.0232 
 H                    -1.7716    0.1804    0.1582 
 N                     3.5864    0.051    -0.0675 
 O                     4.1471   -1.0597   -0.0881 
 O                     4.145     1.1639   -0.0901 
 C                    -0.0236   -1.1458    0.0835 
 H                    -0.4367   -1.8725    0.7889 
 Br                   -0.5359   -1.8697   -1.7408 
 
 ITRead=  0  0  0  0  0  0  0  0  0  0  0  0  0  0  0
 MicOpt= -1 -1 -1 -1 -1 -1 -1 -1 -1 -1 -1 -1 -1 -1 -1
 NAtoms=     15 NQM=       15 NQMF=       0 NMMI=      0 NMMIF=      0
                NMic=       0 NMicF=      0.
                    Isotopes and Nuclear Properties:
 (Nuclear quadrupole moments (NQMom) in fm**2, nuclear magnetic moments (NMagM)
  in nuclear magnetons)

  Atom         1           2           3           4           5           6           7           8           9          10
 IAtWgt=          12          12          12          12          12           1           1           1           1          14
 AtmWgt=  12.0000000  12.0000000  12.0000000  12.0000000  12.0000000   1.0078250   1.0078250   1.0078250   1.0078250  14.0030740
 NucSpn=           0           0           0           0           0           1           1           1           1           2
 AtZEff=  -0.0000000  -0.0000000  -0.0000000  -0.0000000  -0.0000000  -0.0000000  -0.0000000  -0.0000000  -0.0000000  -0.0000000
 NQMom=    0.0000000   0.0000000   0.0000000   0.0000000   0.0000000   0.0000000   0.0000000   0.0000000   0.0000000   2.0440000
 NMagM=    0.0000000   0.0000000   0.0000000   0.0000000   0.0000000   2.7928460   2.7928460   2.7928460   2.7928460   0.4037610
 AtZNuc=   6.0000000   6.0000000   6.0000000   6.0000000   6.0000000   1.0000000   1.0000000   1.0000000   1.0000000   7.0000000

  Atom        11          12          13          14          15
 IAtWgt=          16          16          12           1          79
 AtmWgt=  15.9949146  15.9949146  12.0000000   1.0078250  78.9183361
 NucSpn=           0           0           0           1           3
 AtZEff=  -0.0000000  -0.0000000  -0.0000000  -0.0000000  -0.0000000
 NQMom=    0.0000000   0.0000000   0.0000000   0.0000000  31.3000000
 NMagM=    0.0000000   0.0000000   0.0000000   2.7928460   2.1063990
 AtZNuc=   8.0000000   8.0000000   6.0000000   1.0000000  35.0000000
 Leave Link  101 at Wed May  1 15:05:02 2024, MaxMem=  1207959552 cpu:               1.4 elap:               1.4
 (Enter /software/gaussian/g16-c01/sse4/g16/l202.exe)
                          Input orientation:                          
 ---------------------------------------------------------------------
 Center     Atomic      Atomic             Coordinates (Angstroms)
 Number     Number       Type             X           Y           Z
 ---------------------------------------------------------------------
      1          6           0        0.029500    1.339700    0.068200
      2          6           0        1.434800    1.286700    0.006400
      3          6           0        2.111800    0.051100   -0.005400
      4          6           0        1.445100   -1.137200    0.031200
      5          6           0       -0.687900    0.168200    0.110000
      6          1           0       -0.471300    2.298400    0.078100
      7          1           0        2.027300    2.196500   -0.032200
      8          1           0        1.989700   -2.076400    0.023200
      9          1           0       -1.771600    0.180400    0.158200
     10          7           0        3.586400    0.051000   -0.067500
     11          8           0        4.147100   -1.059700   -0.088100
     12          8           0        4.145000    1.163900   -0.090100
     13          6           0       -0.023600   -1.145800    0.083500
     14          1           0       -0.436700   -1.872500    0.788900
     15         35           0       -0.535900   -1.869700   -1.740800
 ---------------------------------------------------------------------
                    Distance matrix (angstroms):
                    1          2          3          4          5
     1  C    0.000000
     2  C    1.407656   0.000000
     3  C    2.449874   1.408963   0.000000
     4  C    2.853126   2.424049   1.363043   0.000000
     5  C    1.374344   2.401589   2.804523   2.501993   0.000000
     6  H    1.081667   2.159142   3.424870   3.934226   2.141421
     7  H    2.176095   1.086408   2.147231   3.384750   3.392128
     8  H    3.938800   3.408612   2.131193   1.085702   3.495040
     9  H    2.143837   3.395283   3.888995   3.478413   1.084840
    10  N    3.785591   2.482297   1.475907   2.450862   4.279589
    11  O    4.768247   3.587631   2.320164   2.705743   4.992415
    12  O    4.122294   2.714696   2.319353   3.549540   4.938459
    13  C    2.486114   2.837240   2.449573   1.469656   1.472614
    14  H    3.324903   3.754379   3.290289   2.157764   2.165286
    15  Br   3.727252   4.110867   3.702891   2.756973   2.757100
                    6          7          8          9         10
     6  H    0.000000
     7  H    2.503108   0.000000
     8  H    5.019802   4.273425   0.000000
     9  H    2.486588   4.304945   4.388479   0.000000
    10  N    4.640790   2.652397   2.661486   5.364313   0.000000
    11  O    5.712624   3.885809   2.387560   6.052233   1.244373
    12  O    4.756638   2.356750   3.893289   6.002923   1.245428
    13  C    3.473180   3.923079   2.218790   2.195425   3.806210
    14  H    4.231175   4.827242   2.552506   2.528663   4.540772
    15  Br   4.548146   5.101303   3.087568   3.055498   4.845862
                   11         12         13         14         15
    11  O    0.000000
    12  O    2.223602   0.000000
    13  C    4.175117   4.768865   0.000000
    14  H    4.737193   5.566358   1.093770   0.000000
    15  Br   5.031700   5.817075   2.028436   2.531646   0.000000
 Symmetry turned off by external request.
 Stoichiometry    C6H5BrNO2(1+)
 Framework group  C1[X(C6H5BrNO2)]
 Deg. of freedom    39
 Full point group                 C1      NOp   1
 Rotational constants (GHZ):           1.8252210           0.5518633           0.4576002
 Leave Link  202 at Wed May  1 15:05:04 2024, MaxMem=  1207959552 cpu:               1.2 elap:               1.2
 (Enter /software/gaussian/g16-c01/sse4/g16/l301.exe)
 Standard basis: 6-311+G(d) (5D, 7F)
 Ernie: Thresh=  0.10000D-02 Tol=  0.10000D-05 Strict=F.
 The following finite field(s) will be applied:
 An electric field of              0.0000  0.0000 -0.0107
   261 basis functions,   443 primitive gaussians,   273 cartesian basis functions
    49 alpha electrons       49 beta electrons
       nuclear repulsion energy       739.2122215416 Hartrees.
 IExCor= 4639 DFT=T Ex+Corr=wB97XD ExCW=0 ScaHFX=  1.000000
 ScaDFX=  1.000000  1.000000  1.000000  1.000000 ScalE2=  1.000000  1.000000
 IRadAn=      5 IRanWt=     -1 IRanGd=            0 ICorTp=0 IEmpDi=121
 HFx  wShort=  0.000000 wLong=  0.200000 cFull=  0.222036 cShort=  0.000000 cLong=  0.777964
 DFx  wShort=  0.000000 wLong=  0.200000 cFull=  0.000000 cShort=  0.000000 cLong=  1.000000
 NAtoms=   15 NActive=   15 NUniq=   15 SFac= 1.00D+00 NAtFMM=   60 NAOKFM=F Big=F
 Integral buffers will be    131072 words long.
 Raffenetti 2 integral format.
 Two-electron integral symmetry is turned off.
 R6Disp:  Grimme-D2 Dispersion energy=       -0.0077368520 Hartrees.
 Nuclear repulsion after empirical dispersion term =      739.2044846896 Hartrees.
 Leave Link  301 at Wed May  1 15:05:05 2024, MaxMem=  1207959552 cpu:               1.0 elap:               1.0
 (Enter /software/gaussian/g16-c01/sse4/g16/l302.exe)
 NPDir=0 NMtPBC=     1 NCelOv=     1 NCel=       1 NClECP=     1 NCelD=      1
         NCelK=      1 NCelE2=     1 NClLst=     1 CellRange=     0.0.
 One-electron integrals computed using PRISM.
 NBasis=   261 RedAO= T EigKep=  2.35D-06  NBF=   261
 NBsUse=   261 1.00D-06 EigRej= -1.00D+00 NBFU=   261
 Precomputing XC quadrature grid using
 IXCGrd= 4 IRadAn=           5 IRanWt=          -1 IRanGd=           0 AccXCQ= 0.00D+00.
 Generated NRdTot=       0 NPtTot=           0 NUsed=           0 NTot=          32
 NSgBfM=   273   273   273   273   273 MxSgAt=    15 MxSgA2=    15.
 Leave Link  302 at Wed May  1 15:05:26 2024, MaxMem=  1207959552 cpu:              20.9 elap:              20.9
 (Enter /software/gaussian/g16-c01/sse4/g16/l303.exe)
 DipDrv:  MaxL=1.
 The nuclear repulsion energy is now       740.4186290948 hartrees.
 Leave Link  303 at Wed May  1 15:05:29 2024, MaxMem=  1207959552 cpu:               3.2 elap:               3.2
 (Enter /software/gaussian/g16-c01/sse4/g16/l401.exe)
 ExpMin= 3.50D-02 ExpMax= 4.40D+05 ExpMxC= 1.51D+04 IAcc=3 IRadAn=         5 AccDes= 0.00D+00
 Harris functional with IExCor= 4639 and IRadAn=       5 diagonalized for initial guess.
 HarFok:  IExCor= 4639 AccDes= 0.00D+00 IRadAn=         5 IDoV= 1 UseB2=F ITyADJ=14
 ICtDFT=  3500011 ScaDFX=  1.000000  1.000000  1.000000  1.000000
 FoFCou: FMM=F IPFlag=           0 FMFlag=      100000 FMFlg1=           0
         NFxFlg=           0 DoJE=T BraDBF=F KetDBF=T FulRan=T
         wScrn=  0.000000 ICntrl=       500 IOpCl=  0 I1Cent=   200000004 NGrid=           0
         NMat0=    1 NMatS0=      1 NMatT0=    0 NMatD0=    1 NMtDS0=    0 NMtDT0=    0
 Symmetry not used in FoFCou.
 Harris En= -2970.60991362804    
 JPrj=0 DoOrth=F DoCkMO=F.
 Leave Link  401 at Wed May  1 15:05:58 2024, MaxMem=  1207959552 cpu:              29.4 elap:              29.4
 (Enter /software/gaussian/g16-c01/sse4/g16/l502.exe)
 Two-electron integral symmetry not used.
 Closed shell SCF:
 Using DIIS extrapolation, IDIIS=  1040.
 NGot=  1207959552 LenX=  1207804877 LenY=  1207729907
 Requested convergence on RMS density matrix=1.00D-08 within 128 cycles.
 Requested convergence on MAX density matrix=1.00D-06.
 Requested convergence on             energy=1.00D-06.
 No special actions if energy rises.
 Fock matrices will be formed incrementally for  20 cycles.

 Cycle   1  Pass 1  IDiag  1:
 FoFJK:  IHMeth= 1 ICntrl=       0 DoSepK=T KAlg= 0 I1Cent=           0 FoldK=F
 IRaf=         1 NMat=       1 IRICut=       1 DoRegI=T DoRafI=F ISym2E= 0 IDoP0=0 IntGTp=1.
 FoFCou: FMM=F IPFlag=           0 FMFlag=      100000 FMFlg1=           0
         NFxFlg=           0 DoJE=T BraDBF=F KetDBF=F FulRan=T
         wScrn=  0.000000 ICntrl=       500 IOpCl=  0 I1Cent=           0 NGrid=           0
         NMat0=    1 NMatS0=      1 NMatT0=    0 NMatD0=    1 NMtDS0=    0 NMtDT0=    0
 Symmetry not used in FoFCou.
 E= -3009.72084687403    
 DIIS: error= 3.20D-01 at cycle   1 NSaved=   1.
 NSaved= 1 IEnMin= 1 EnMin= -3009.72084687403     IErMin= 1 ErrMin= 3.20D-01
 ErrMax= 3.20D-01  0.00D+00 EMaxC= 1.00D-01 BMatC= 1.19D+01 BMatP= 1.19D+01
 IDIUse=3 WtCom= 0.00D+00 WtEn= 1.00D+00
 Coeff-Com:  0.100D+01
 Coeff-En:   0.100D+01
 Coeff:      0.100D+01
 Gap=     0.328 Goal=   None    Shift=    0.000
 GapD=    0.328 DampG=1.000 DampE=0.250 DampFc=0.2500 IDamp=-1.
 Damping current iteration by 2.50D-01
 RMSDP=4.29D-02 MaxDP=4.14D+00              OVMax= 2.57D-01

 Cycle   2  Pass 1  IDiag  1:
 RMSU=  4.38D-03    CP:  8.94D-01
 E= -3010.00492488440     Delta-E=       -0.284078010372 Rises=F Damp=T
 DIIS: error= 2.25D-01 at cycle   2 NSaved=   2.
 NSaved= 2 IEnMin= 2 EnMin= -3010.00492488440     IErMin= 2 ErrMin= 2.25D-01
 ErrMax= 2.25D-01  0.00D+00 EMaxC= 1.00D-01 BMatC= 5.46D+00 BMatP= 1.19D+01
 IDIUse=3 WtCom= 0.00D+00 WtEn= 1.00D+00
 Coeff-Com: -0.185D+01 0.285D+01
 Coeff-En:   0.000D+00 0.100D+01
 Coeff:      0.000D+00 0.100D+01
 Gap=     0.293 Goal=   None    Shift=    0.000
 RMSDP=3.31D-02 MaxDP=3.22D+00 DE=-2.84D-01 OVMax= 7.64D-02

 Cycle   3  Pass 1  IDiag  1:
 RMSU=  4.19D-03    CP:  5.57D-01  3.00D+00
 E= -3010.39246918230     Delta-E=       -0.387544297901 Rises=F Damp=F
 DIIS: error= 6.51D-02 at cycle   3 NSaved=   3.
 NSaved= 3 IEnMin= 3 EnMin= -3010.39246918230     IErMin= 3 ErrMin= 6.51D-02
 ErrMax= 6.51D-02  0.00D+00 EMaxC= 1.00D-01 BMatC= 7.19D-01 BMatP= 5.46D+00
 IDIUse=3 WtCom= 3.49D-01 WtEn= 6.51D-01
 Coeff-Com:  0.279D+01-0.367D+01 0.188D+01
 Coeff-En:   0.111D-01 0.000D+00 0.989D+00
 Coeff:      0.981D+00-0.128D+01 0.130D+01
 Gap=     0.263 Goal=   None    Shift=    0.000
 RMSDP=8.30D-03 MaxDP=4.32D-01 DE=-3.88D-01 OVMax= 6.50D-02

 Cycle   4  Pass 1  IDiag  1:
 RMSU=  5.03D-03    CP:  5.83D-01  2.28D+00  1.94D+00
 E= -3010.49182429883     Delta-E=       -0.099355116528 Rises=F Damp=F
 DIIS: error= 3.91D-02 at cycle   4 NSaved=   4.
 NSaved= 4 IEnMin= 4 EnMin= -3010.49182429883     IErMin= 4 ErrMin= 3.91D-02
 ErrMax= 3.91D-02  0.00D+00 EMaxC= 1.00D-01 BMatC= 2.39D-01 BMatP= 7.19D-01
 IDIUse=3 WtCom= 6.09D-01 WtEn= 3.91D-01
 Coeff-Com: -0.157D+00 0.222D+00 0.292D+00 0.643D+00
 Coeff-En:   0.000D+00 0.000D+00 0.203D+00 0.797D+00
 Coeff:     -0.957D-01 0.135D+00 0.257D+00 0.703D+00
 Gap=     0.260 Goal=   None    Shift=    0.000
 RMSDP=3.52D-03 MaxDP=2.60D-01 DE=-9.94D-02 OVMax= 2.67D-02

 Cycle   5  Pass 1  IDiag  1:
 RMSU=  1.45D-03    CP:  5.53D-01  2.61D+00  1.79D+00  8.79D-01
 E= -3010.53737126251     Delta-E=       -0.045546963684 Rises=F Damp=F
 DIIS: error= 6.88D-03 at cycle   5 NSaved=   5.
 NSaved= 5 IEnMin= 5 EnMin= -3010.53737126251     IErMin= 5 ErrMin= 6.88D-03
 ErrMax= 6.88D-03  0.00D+00 EMaxC= 1.00D-01 BMatC= 7.59D-03 BMatP= 2.39D-01
 IDIUse=3 WtCom= 9.31D-01 WtEn= 6.88D-02
 Coeff-Com: -0.134D+00 0.182D+00 0.586D-01 0.332D+00 0.561D+00
 Coeff-En:   0.000D+00 0.000D+00 0.000D+00 0.000D+00 0.100D+01
 Coeff:     -0.125D+00 0.170D+00 0.546D-01 0.309D+00 0.591D+00
 Gap=     0.259 Goal=   None    Shift=    0.000
 RMSDP=6.34D-04 MaxDP=3.64D-02 DE=-4.55D-02 OVMax= 1.16D-02

 Cycle   6  Pass 1  IDiag  1:
 RMSU=  4.54D-04    CP:  5.53D-01  2.60D+00  1.79D+00  8.83D-01  6.97D-01
 E= -3010.53890697568     Delta-E=       -0.001535713171 Rises=F Damp=F
 DIIS: error= 1.83D-03 at cycle   6 NSaved=   6.
 NSaved= 6 IEnMin= 6 EnMin= -3010.53890697568     IErMin= 6 ErrMin= 1.83D-03
 ErrMax= 1.83D-03  0.00D+00 EMaxC= 1.00D-01 BMatC= 3.04D-04 BMatP= 7.59D-03
 IDIUse=3 WtCom= 9.82D-01 WtEn= 1.83D-02
 Coeff-Com: -0.933D-01 0.126D+00 0.323D-04 0.160D+00 0.380D+00 0.428D+00
 Coeff-En:   0.000D+00 0.000D+00 0.000D+00 0.000D+00 0.000D+00 0.100D+01
 Coeff:     -0.916D-01 0.123D+00 0.317D-04 0.157D+00 0.373D+00 0.439D+00
 Gap=     0.258 Goal=   None    Shift=    0.000
 RMSDP=2.06D-04 MaxDP=1.37D-02 DE=-1.54D-03 OVMax= 5.65D-03

 Cycle   7  Pass 1  IDiag  1:
 RMSU=  1.40D-04    CP:  5.53D-01  2.59D+00  1.80D+00  8.87D-01  7.80D-01
                    CP:  8.35D-01
 E= -3010.53912276081     Delta-E=       -0.000215785130 Rises=F Damp=F
 DIIS: error= 4.54D-04 at cycle   7 NSaved=   7.
 NSaved= 7 IEnMin= 7 EnMin= -3010.53912276081     IErMin= 7 ErrMin= 4.54D-04
 ErrMax= 4.54D-04  0.00D+00 EMaxC= 1.00D-01 BMatC= 2.11D-05 BMatP= 3.04D-04
 IDIUse=3 WtCom= 9.95D-01 WtEn= 4.54D-03
 Coeff-Com: -0.343D-01 0.457D-01-0.137D-01 0.302D-01 0.937D-01 0.222D+00
 Coeff-Com:  0.656D+00
 Coeff-En:   0.000D+00 0.000D+00 0.000D+00 0.000D+00 0.000D+00 0.000D+00
 Coeff-En:   0.100D+01
 Coeff:     -0.342D-01 0.455D-01-0.137D-01 0.301D-01 0.933D-01 0.221D+00
 Coeff:      0.658D+00
 Gap=     0.256 Goal=   None    Shift=    0.000
 RMSDP=1.17D-04 MaxDP=9.38D-03 DE=-2.16D-04 OVMax= 2.63D-03

 Cycle   8  Pass 1  IDiag  1:
 RMSU=  6.01D-05    CP:  5.53D-01  2.58D+00  1.81D+00  8.94D-01  8.21D-01
                    CP:  8.67D-01  9.67D-01
 E= -3010.53914698785     Delta-E=       -0.000024227034 Rises=F Damp=F
 DIIS: error= 1.08D-04 at cycle   8 NSaved=   8.
 NSaved= 8 IEnMin= 8 EnMin= -3010.53914698785     IErMin= 8 ErrMin= 1.08D-04
 ErrMax= 1.08D-04  0.00D+00 EMaxC= 1.00D-01 BMatC= 2.26D-06 BMatP= 2.11D-05
 IDIUse=3 WtCom= 9.99D-01 WtEn= 1.08D-03
 Coeff-Com:  0.760D-02-0.104D-01-0.300D-02-0.175D-01-0.422D-01-0.364D-01
 Coeff-Com:  0.154D+00 0.948D+00
 Coeff-En:   0.000D+00 0.000D+00 0.000D+00 0.000D+00 0.000D+00 0.000D+00
 Coeff-En:   0.000D+00 0.100D+01
 Coeff:      0.759D-02-0.104D-01-0.300D-02-0.175D-01-0.421D-01-0.363D-01
 Coeff:      0.153D+00 0.948D+00
 Gap=     0.256 Goal=   None    Shift=    0.000
 RMSDP=5.80D-05 MaxDP=4.02D-03 DE=-2.42D-05 OVMax= 1.98D-03

 Cycle   9  Pass 1  IDiag  1:
 RMSU=  2.44D-05    CP:  5.53D-01  2.58D+00  1.81D+00  8.95D-01  8.22D-01
                    CP:  9.31D-01  1.16D+00  1.21D+00
 E= -3010.53915317532     Delta-E=       -0.000006187472 Rises=F Damp=F
 DIIS: error= 4.81D-05 at cycle   9 NSaved=   9.
 NSaved= 9 IEnMin= 9 EnMin= -3010.53915317532     IErMin= 9 ErrMin= 4.81D-05
 ErrMax= 4.81D-05  0.00D+00 EMaxC= 1.00D-01 BMatC= 2.91D-07 BMatP= 2.26D-06
 IDIUse=1 WtCom= 1.00D+00 WtEn= 0.00D+00
 Coeff-Com:  0.684D-02-0.917D-02 0.852D-03-0.946D-02-0.233D-01-0.425D-01
 Coeff-Com: -0.540D-01 0.288D+00 0.843D+00
 Coeff:      0.684D-02-0.917D-02 0.852D-03-0.946D-02-0.233D-01-0.425D-01
 Coeff:     -0.540D-01 0.288D+00 0.843D+00
 Gap=     0.256 Goal=   None    Shift=    0.000
 RMSDP=1.77D-05 MaxDP=1.04D-03 DE=-6.19D-06 OVMax= 8.69D-04

 Cycle  10  Pass 1  IDiag  1:
 RMSU=  8.65D-06    CP:  5.53D-01  2.58D+00  1.81D+00  8.95D-01  8.27D-01
                    CP:  9.39D-01  1.20D+00  1.32D+00  1.17D+00
 E= -3010.53915421338     Delta-E=       -0.000001038059 Rises=F Damp=F
 DIIS: error= 1.70D-05 at cycle  10 NSaved=  10.
 NSaved=10 IEnMin=10 EnMin= -3010.53915421338     IErMin=10 ErrMin= 1.70D-05
 ErrMax= 1.70D-05  0.00D+00 EMaxC= 1.00D-01 BMatC= 6.62D-08 BMatP= 2.91D-07
 IDIUse=1 WtCom= 1.00D+00 WtEn= 0.00D+00
 Coeff-Com:  0.364D-03-0.461D-03 0.416D-03-0.514D-04 0.161D-02-0.415D-02
 Coeff-Com: -0.394D-01-0.608D-01 0.255D+00 0.848D+00
 Coeff:      0.364D-03-0.461D-03 0.416D-03-0.514D-04 0.161D-02-0.415D-02
 Coeff:     -0.394D-01-0.608D-01 0.255D+00 0.848D+00
 Gap=     0.256 Goal=   None    Shift=    0.000
 RMSDP=1.03D-05 MaxDP=6.31D-04 DE=-1.04D-06 OVMax= 3.71D-04

 Cycle  11  Pass 1  IDiag  1:
 RMSU=  5.28D-06    CP:  5.53D-01  2.58D+00  1.81D+00  8.94D-01  8.25D-01
                    CP:  9.46D-01  1.20D+00  1.32D+00  1.41D+00  1.22D+00
 E= -3010.53915438077     Delta-E=       -0.000000167391 Rises=F Damp=F
 DIIS: error= 6.83D-06 at cycle  11 NSaved=  11.
 NSaved=11 IEnMin=11 EnMin= -3010.53915438077     IErMin=11 ErrMin= 6.83D-06
 ErrMax= 6.83D-06  0.00D+00 EMaxC= 1.00D-01 BMatC= 5.26D-09 BMatP= 6.62D-08
 IDIUse=1 WtCom= 1.00D+00 WtEn= 0.00D+00
 Coeff-Com: -0.350D-03 0.474D-03 0.802D-04 0.881D-03 0.284D-02 0.420D-02
 Coeff-Com:  0.167D-02-0.410D-01-0.773D-01 0.107D+00 0.100D+01
 Coeff:     -0.350D-03 0.474D-03 0.802D-04 0.881D-03 0.284D-02 0.420D-02
 Coeff:      0.167D-02-0.410D-01-0.773D-01 0.107D+00 0.100D+01
 Gap=     0.256 Goal=   None    Shift=    0.000
 RMSDP=4.02D-06 MaxDP=2.72D-04 DE=-1.67D-07 OVMax= 1.54D-04

 Cycle  12  Pass 1  IDiag  1:
 RMSU=  1.26D-06    CP:  5.53D-01  2.58D+00  1.81D+00  8.94D-01  8.25D-01
                    CP:  9.48D-01  1.20D+00  1.32D+00  1.50D+00  1.42D+00
                    CP:  1.29D+00
 E= -3010.53915440704     Delta-E=       -0.000000026269 Rises=F Damp=F
 DIIS: error= 2.75D-06 at cycle  12 NSaved=  12.
 NSaved=12 IEnMin=12 EnMin= -3010.53915440704     IErMin=12 ErrMin= 2.75D-06
 ErrMax= 2.75D-06  0.00D+00 EMaxC= 1.00D-01 BMatC= 1.91D-09 BMatP= 5.26D-09
 IDIUse=1 WtCom= 1.00D+00 WtEn= 0.00D+00
 Coeff-Com: -0.197D-03 0.261D-03-0.121D-04 0.426D-03 0.902D-03 0.248D-02
 Coeff-Com:  0.824D-02-0.796D-02-0.855D-01-0.114D+00 0.490D+00 0.705D+00
 Coeff:     -0.197D-03 0.261D-03-0.121D-04 0.426D-03 0.902D-03 0.248D-02
 Coeff:      0.824D-02-0.796D-02-0.855D-01-0.114D+00 0.490D+00 0.705D+00
 Gap=     0.256 Goal=   None    Shift=    0.000
 RMSDP=1.84D-06 MaxDP=1.71D-04 DE=-2.63D-08 OVMax= 5.93D-05

 Cycle  13  Pass 1  IDiag  1:
 RMSU=  4.85D-07    CP:  5.53D-01  2.58D+00  1.81D+00  8.94D-01  8.25D-01
                    CP:  9.48D-01  1.20D+00  1.31D+00  1.53D+00  1.48D+00
                    CP:  1.48D+00  9.88D-01
 E= -3010.53915441136     Delta-E=       -0.000000004324 Rises=F Damp=F
 DIIS: error= 7.50D-07 at cycle  13 NSaved=  13.
 NSaved=13 IEnMin=13 EnMin= -3010.53915441136     IErMin=13 ErrMin= 7.50D-07
 ErrMax= 7.50D-07  0.00D+00 EMaxC= 1.00D-01 BMatC= 1.35D-10 BMatP= 1.91D-09
 IDIUse=1 WtCom= 1.00D+00 WtEn= 0.00D+00
 Coeff-Com: -0.360D-04 0.480D-04-0.107D-04 0.207D-05-0.257D-03-0.386D-03
 Coeff-Com:  0.388D-03 0.253D-02-0.131D-02-0.215D-01-0.299D-01 0.131D+00
 Coeff-Com:  0.920D+00
 Coeff:     -0.360D-04 0.480D-04-0.107D-04 0.207D-05-0.257D-03-0.386D-03
 Coeff:      0.388D-03 0.253D-02-0.131D-02-0.215D-01-0.299D-01 0.131D+00
 Coeff:      0.920D+00
 Gap=     0.256 Goal=   None    Shift=    0.000
 RMSDP=5.28D-07 MaxDP=3.63D-05 DE=-4.32D-09 OVMax= 1.12D-05

 Cycle  14  Pass 1  IDiag  1:
 RMSU=  2.45D-07    CP:  5.53D-01  2.58D+00  1.81D+00  8.94D-01  8.25D-01
                    CP:  9.48D-01  1.20D+00  1.31D+00  1.53D+00  1.48D+00
                    CP:  1.52D+00  1.14D+00  1.17D+00
 E= -3010.53915441165     Delta-E=       -0.000000000292 Rises=F Damp=F
 DIIS: error= 2.76D-07 at cycle  14 NSaved=  14.
 NSaved=14 IEnMin=14 EnMin= -3010.53915441165     IErMin=14 ErrMin= 2.76D-07
 ErrMax= 2.76D-07  0.00D+00 EMaxC= 1.00D-01 BMatC= 2.08D-11 BMatP= 1.35D-10
 IDIUse=1 WtCom= 1.00D+00 WtEn= 0.00D+00
 Coeff-Com:  0.260D-06-0.684D-07-0.538D-05-0.467D-04-0.210D-03-0.489D-03
 Coeff-Com: -0.947D-03 0.225D-02 0.113D-01 0.665D-02-0.856D-01-0.423D-01
 Coeff-Com:  0.340D+00 0.769D+00
 Coeff:      0.260D-06-0.684D-07-0.538D-05-0.467D-04-0.210D-03-0.489D-03
 Coeff:     -0.947D-03 0.225D-02 0.113D-01 0.665D-02-0.856D-01-0.423D-01
 Coeff:      0.340D+00 0.769D+00
 Gap=     0.256 Goal=   None    Shift=    0.000
 RMSDP=1.93D-07 MaxDP=1.22D-05 DE=-2.92D-10 OVMax= 5.56D-06

 Cycle  15  Pass 1  IDiag  1:
 RMSU=  5.90D-08    CP:  5.53D-01  2.58D+00  1.81D+00  8.94D-01  8.25D-01
                    CP:  9.48D-01  1.20D+00  1.31D+00  1.54D+00  1.48D+00
                    CP:  1.53D+00  1.21D+00  1.29D+00  1.14D+00
 E= -3010.53915441166     Delta-E=       -0.000000000008 Rises=F Damp=F
 DIIS: error= 8.66D-08 at cycle  15 NSaved=  15.
 NSaved=15 IEnMin=15 EnMin= -3010.53915441166     IErMin=15 ErrMin= 8.66D-08
 ErrMax= 8.66D-08  0.00D+00 EMaxC= 1.00D-01 BMatC= 2.38D-12 BMatP= 2.08D-11
 IDIUse=1 WtCom= 1.00D+00 WtEn= 0.00D+00
 Coeff-Com:  0.492D-05-0.653D-05 0.180D-06-0.677D-05 0.158D-04-0.208D-04
 Coeff-Com: -0.229D-03 0.171D-05 0.213D-02 0.499D-02-0.131D-01-0.248D-01
 Coeff-Com: -0.814D-01 0.136D+00 0.976D+00
 Coeff:      0.492D-05-0.653D-05 0.180D-06-0.677D-05 0.158D-04-0.208D-04
 Coeff:     -0.229D-03 0.171D-05 0.213D-02 0.499D-02-0.131D-01-0.248D-01
 Coeff:     -0.814D-01 0.136D+00 0.976D+00
 Gap=     0.256 Goal=   None    Shift=    0.000
 RMSDP=8.00D-08 MaxDP=4.33D-06 DE=-7.73D-12 OVMax= 3.50D-06

 Cycle  16  Pass 1  IDiag  1:
 RMSU=  3.29D-08    CP:  5.53D-01  2.58D+00  1.81D+00  8.94D-01  8.25D-01
                    CP:  9.48D-01  1.20D+00  1.31D+00  1.54D+00  1.48D+00
                    CP:  1.53D+00  1.23D+00  1.35D+00  1.28D+00  1.21D+00
 E= -3010.53915441170     Delta-E=       -0.000000000039 Rises=F Damp=F
 DIIS: error= 2.90D-08 at cycle  16 NSaved=  16.
 NSaved=16 IEnMin=16 EnMin= -3010.53915441170     IErMin=16 ErrMin= 2.90D-08
 ErrMax= 2.90D-08  0.00D+00 EMaxC= 1.00D-01 BMatC= 5.54D-13 BMatP= 2.38D-12
 IDIUse=1 WtCom= 1.00D+00 WtEn= 0.00D+00
 Coeff-Com:  0.139D-05-0.188D-05 0.101D-05 0.539D-05 0.369D-04 0.671D-04
 Coeff-Com:  0.572D-04-0.374D-03-0.108D-02 0.927D-03 0.843D-02 0.907D-03
 Coeff-Com: -0.700D-01-0.954D-01 0.266D+00 0.891D+00
 Coeff:      0.139D-05-0.188D-05 0.101D-05 0.539D-05 0.369D-04 0.671D-04
 Coeff:      0.572D-04-0.374D-03-0.108D-02 0.927D-03 0.843D-02 0.907D-03
 Coeff:     -0.700D-01-0.954D-01 0.266D+00 0.891D+00
 Gap=     0.256 Goal=   None    Shift=    0.000
 RMSDP=3.57D-08 MaxDP=1.94D-06 DE=-3.91D-11 OVMax= 1.72D-06

 Cycle  17  Pass 1  IDiag  1:
 RMSU=  9.29D-09    CP:  5.53D-01  2.58D+00  1.81D+00  8.94D-01  8.25D-01
                    CP:  9.48D-01  1.20D+00  1.31D+00  1.54D+00  1.48D+00
                    CP:  1.53D+00  1.24D+00  1.37D+00  1.32D+00  1.48D+00
                    CP:  1.21D+00
 E= -3010.53915441170     Delta-E=       -0.000000000002 Rises=F Damp=F
 DIIS: error= 1.69D-08 at cycle  17 NSaved=  17.
 NSaved=17 IEnMin=17 EnMin= -3010.53915441170     IErMin=17 ErrMin= 1.69D-08
 ErrMax= 1.69D-08  0.00D+00 EMaxC= 1.00D-01 BMatC= 9.58D-14 BMatP= 5.54D-13
 IDIUse=1 WtCom= 1.00D+00 WtEn= 0.00D+00
 Coeff-Com: -0.184D-07 0.194D-07 0.273D-06 0.144D-05 0.333D-05 0.132D-04
 Coeff-Com:  0.369D-04-0.485D-04-0.495D-03-0.408D-03 0.306D-02 0.399D-02
 Coeff-Com:  0.330D-03-0.509D-01-0.123D+00 0.213D+00 0.955D+00
 Coeff:     -0.184D-07 0.194D-07 0.273D-06 0.144D-05 0.333D-05 0.132D-04
 Coeff:      0.369D-04-0.485D-04-0.495D-03-0.408D-03 0.306D-02 0.399D-02
 Coeff:      0.330D-03-0.509D-01-0.123D+00 0.213D+00 0.955D+00
 Gap=     0.256 Goal=   None    Shift=    0.000
 RMSDP=1.47D-08 MaxDP=5.98D-07 DE=-1.82D-12 OVMax= 8.72D-07

 Cycle  18  Pass 1  IDiag  1:
 RMSU=  4.41D-09    CP:  5.53D-01  2.58D+00  1.81D+00  8.94D-01  8.25D-01
                    CP:  9.48D-01  1.20D+00  1.31D+00  1.54D+00  1.48D+00
                    CP:  1.53D+00  1.25D+00  1.38D+00  1.34D+00  1.55D+00
                    CP:  1.45D+00  1.29D+00
 E= -3010.53915441173     Delta-E=       -0.000000000025 Rises=F Damp=F
 DIIS: error= 5.95D-09 at cycle  18 NSaved=  18.
 NSaved=18 IEnMin=18 EnMin= -3010.53915441173     IErMin=18 ErrMin= 5.95D-09
 ErrMax= 5.95D-09  0.00D+00 EMaxC= 1.00D-01 BMatC= 2.05D-14 BMatP= 9.58D-14
 IDIUse=1 WtCom= 1.00D+00 WtEn= 0.00D+00
 Coeff-Com: -0.882D-08 0.133D-07-0.110D-06-0.117D-05-0.775D-05-0.117D-04
 Coeff-Com: -0.443D-05 0.843D-04 0.959D-04-0.340D-03-0.124D-02 0.931D-03
 Coeff-Com:  0.178D-01 0.772D-02-0.925D-01-0.145D+00 0.256D+00 0.956D+00
 Coeff:     -0.882D-08 0.133D-07-0.110D-06-0.117D-05-0.775D-05-0.117D-04
 Coeff:     -0.443D-05 0.843D-04 0.959D-04-0.340D-03-0.124D-02 0.931D-03
 Coeff:      0.178D-01 0.772D-02-0.925D-01-0.145D+00 0.256D+00 0.956D+00
 Gap=     0.256 Goal=   None    Shift=    0.000
 RMSDP=6.64D-09 MaxDP=4.28D-07 DE=-2.55D-11 OVMax= 3.42D-07

 SCF Done:  E(RwB97XD) =  -3010.53915441     A.U. after   18 cycles
            NFock= 18  Conv=0.66D-08     -V/T= 2.0016
 KE= 3.005860027281D+03 PE=-8.633623016410D+03 EE= 1.876805205622D+03
 Leave Link  502 at Wed May  1 15:22:42 2024, MaxMem=  1207959552 cpu:            1003.6 elap:            1003.8
 (Enter /software/gaussian/g16-c01/sse4/g16/l601.exe)
 Copying SCF densities to generalized density rwf, IOpCl= 0 IROHF=0.

 **********************************************************************

            Population analysis using the SCF Density.

 **********************************************************************

 Alpha  occ. eigenvalues -- -483.32805 -62.87856 -56.67514 -56.66990 -56.66988
 Alpha  occ. eigenvalues --  -19.46124 -19.46042 -14.85623 -10.58986 -10.57924
 Alpha  occ. eigenvalues --  -10.57512 -10.57329 -10.57042 -10.53206  -9.03680
 Alpha  occ. eigenvalues --   -6.86264  -6.84537  -6.84524  -2.96191  -2.95730
 Alpha  occ. eigenvalues --   -2.95718  -2.94336  -2.94336  -1.49877  -1.32850
 Alpha  occ. eigenvalues --   -1.23050  -1.14704  -1.12117  -1.05586  -1.01315
 Alpha  occ. eigenvalues --   -0.95863  -0.91259  -0.85513  -0.81030  -0.80910
 Alpha  occ. eigenvalues --   -0.80240  -0.78539  -0.76350  -0.76204  -0.72991
 Alpha  occ. eigenvalues --   -0.69669  -0.67866  -0.64354  -0.61048  -0.58359
 Alpha  occ. eigenvalues --   -0.57286  -0.56581  -0.56251  -0.55833
 Alpha virt. eigenvalues --   -0.30202  -0.21560  -0.16692  -0.13859  -0.11097
 Alpha virt. eigenvalues --   -0.07868  -0.07365  -0.06808  -0.05248  -0.04073
 Alpha virt. eigenvalues --   -0.03513  -0.02741  -0.02518  -0.02344  -0.01697
 Alpha virt. eigenvalues --    0.00213   0.00324   0.01314   0.02216   0.03139
 Alpha virt. eigenvalues --    0.04504   0.04860   0.05512   0.05729   0.06498
 Alpha virt. eigenvalues --    0.06802   0.07710   0.08197   0.08575   0.08975
 Alpha virt. eigenvalues --    0.10502   0.11016   0.11629   0.11745   0.12385
 Alpha virt. eigenvalues --    0.12671   0.13207   0.13872   0.14972   0.16040
 Alpha virt. eigenvalues --    0.16502   0.17270   0.17919   0.18779   0.19199
 Alpha virt. eigenvalues --    0.19365   0.20678   0.21399   0.21626   0.24417
 Alpha virt. eigenvalues --    0.25295   0.27164   0.27614   0.28192   0.28741
 Alpha virt. eigenvalues --    0.31211   0.32799   0.33665   0.34545   0.36008
 Alpha virt. eigenvalues --    0.37089   0.37752   0.38434   0.40232   0.40836
 Alpha virt. eigenvalues --    0.42409   0.43509   0.44270   0.46402   0.47064
 Alpha virt. eigenvalues --    0.47757   0.49247   0.50032   0.51734   0.53328
 Alpha virt. eigenvalues --    0.53804   0.54757   0.56179   0.56856   0.59171
 Alpha virt. eigenvalues --    0.60813   0.61902   0.63494   0.66025   0.68262
 Alpha virt. eigenvalues --    0.69989   0.71503   0.72506   0.72857   0.73876
 Alpha virt. eigenvalues --    0.74127   0.79134   0.79504   0.81963   0.84620
 Alpha virt. eigenvalues --    0.85753   0.87637   0.91571   0.92528   0.98146
 Alpha virt. eigenvalues --    0.99332   1.00692   1.04199   1.05086   1.06188
 Alpha virt. eigenvalues --    1.08568   1.10811   1.11663   1.12162   1.13975
 Alpha virt. eigenvalues --    1.21790   1.24254   1.26478   1.32599   1.36157
 Alpha virt. eigenvalues --    1.36550   1.37574   1.44597   1.54029   1.56778
 Alpha virt. eigenvalues --    1.58151   1.58405   1.60292   1.62044   1.65884
 Alpha virt. eigenvalues --    1.68806   1.69243   1.73186   1.75006   1.78675
 Alpha virt. eigenvalues --    1.80765   1.85152   1.86917   1.91688   1.93865
 Alpha virt. eigenvalues --    1.97179   2.02568   2.03345   2.05863   2.07507
 Alpha virt. eigenvalues --    2.09082   2.14310   2.20080   2.22374   2.29116
 Alpha virt. eigenvalues --    2.37355   2.40849   2.42374   2.43213   2.52134
 Alpha virt. eigenvalues --    2.56404   2.62713   2.65739   2.67872   2.71436
 Alpha virt. eigenvalues --    2.73088   2.76207   2.77043   2.80696   2.81322
 Alpha virt. eigenvalues --    2.93002   2.95904   3.00387   3.05140   3.08534
 Alpha virt. eigenvalues --    3.12685   3.14585   3.18752   3.23378   3.23989
 Alpha virt. eigenvalues --    3.27090   3.38818   3.47315   3.50901   3.54142
 Alpha virt. eigenvalues --    3.56526   3.69658   3.73846   3.81780   3.86743
 Alpha virt. eigenvalues --    4.07106   4.07350   4.15017   4.20203   4.41076
 Alpha virt. eigenvalues --    4.44091   4.56995   4.59586   4.92939   4.95609
 Alpha virt. eigenvalues --    5.04253   5.08420   5.62561   6.15508   6.62909
 Alpha virt. eigenvalues --    7.45759   7.47349   7.57236  23.20860  23.60901
 Alpha virt. eigenvalues --   23.68895  23.79015  23.95668  24.01006  35.32335
 Alpha virt. eigenvalues --   47.89561  49.85306  49.94117 289.78911 289.80580
 Alpha virt. eigenvalues --  289.930471020.90017
          Condensed to atoms (all electrons):
               1          2          3          4          5          6
     1  C    8.927927  -2.611244   0.470645  -1.766136  -0.704745   0.317790
     2  C   -2.611244  13.450568  -2.265773  -2.276258   1.027794  -0.018873
     3  C    0.470645  -2.265773  13.145231  -2.970480  -1.486633   0.023567
     4  C   -1.766136  -2.276258  -2.970480  14.435763   1.422848   0.014537
     5  C   -0.704745   1.027794  -1.486633   1.422848   7.559626   0.009367
     6  H    0.317790  -0.018873   0.023567   0.014537   0.009367   0.332002
     7  H    0.067291   0.226941   0.080911  -0.030697  -0.018727  -0.001760
     8  H    0.004171  -0.012152   0.073343   0.251016  -0.018976  -0.000001
     9  H    0.027700  -0.013777   0.005915  -0.008172   0.313311  -0.002190
    10  N   -0.162325   0.356743  -0.986042   0.388553   0.033374  -0.000635
    11  O    0.011975  -0.044036  -0.244323  -0.034920  -0.052296  -0.000032
    12  O    0.330211  -0.045904  -0.257595  -0.103201  -0.044511   0.000012
    13  C    1.632106  -2.278918   1.079219  -3.635088  -2.105601  -0.011399
    14  H   -0.007231   0.000243   0.001905  -0.077046  -0.029302  -0.000038
    15  Br   0.060562  -0.046532   0.056707   0.089116   0.057541  -0.000530
               7          8          9         10         11         12
     1  C    0.067291   0.004171   0.027700  -0.162325   0.011975   0.330211
     2  C    0.226941  -0.012152  -0.013777   0.356743  -0.044036  -0.045904
     3  C    0.080911   0.073343   0.005915  -0.986042  -0.244323  -0.257595
     4  C   -0.030697   0.251016  -0.008172   0.388553  -0.034920  -0.103201
     5  C   -0.018727  -0.018976   0.313311   0.033374  -0.052296  -0.044511
     6  H   -0.001760  -0.000001  -0.002190  -0.000635  -0.000032   0.000012
     7  H    0.300428  -0.000011   0.000008  -0.026761  -0.001495   0.022625
     8  H   -0.000011   0.289810   0.000072  -0.024470   0.021795  -0.000693
     9  H    0.000008   0.000072   0.318527   0.000297   0.000014   0.000007
    10  N   -0.026761  -0.024470   0.000297   7.397690   0.167179   0.144178
    11  O   -0.001495   0.021795   0.000014   0.167179   7.851208   0.000608
    12  O    0.022625  -0.000693   0.000007   0.144178   0.000608   7.879388
    13  C    0.013701   0.041662   0.008439  -0.186179   0.293506   0.044341
    14  H   -0.000010  -0.002720  -0.004151   0.000498  -0.000372  -0.000109
    15  Br  -0.000161  -0.000116  -0.001527   0.004417  -0.001031   0.002127
              13         14         15
     1  C    1.632106  -0.007231   0.060562
     2  C   -2.278918   0.000243  -0.046532
     3  C    1.079219   0.001905   0.056707
     4  C   -3.635088  -0.077046   0.089116
     5  C   -2.105601  -0.029302   0.057541
     6  H   -0.011399  -0.000038  -0.000530
     7  H    0.013701  -0.000010  -0.000161
     8  H    0.041662  -0.002720  -0.000116
     9  H    0.008439  -0.004151  -0.001527
    10  N   -0.186179   0.000498   0.004417
    11  O    0.293506  -0.000372  -0.001031
    12  O    0.044341  -0.000109   0.002127
    13  C   11.247322   0.414333  -0.084757
    14  H    0.414333   0.293382  -0.030379
    15  Br  -0.084757  -0.030379  34.818783
 Mulliken charges:
               1
     1  C   -0.598696
     2  C    0.551181
     3  C   -0.726596
     4  C    0.300166
     5  C    0.036932
     6  H    0.338184
     7  H    0.367718
     8  H    0.377271
     9  H    0.355527
    10  N   -0.106516
    11  O    0.032221
    12  O    0.028515
    13  C   -0.472687
    14  H    0.440998
    15  Br   0.075781
 Sum of Mulliken charges =   1.00000
 Mulliken charges with hydrogens summed into heavy atoms:
               1
     1  C   -0.260512
     2  C    0.918900
     3  C   -0.726596
     4  C    0.677437
     5  C    0.392459
    10  N   -0.106516
    11  O    0.032221
    12  O    0.028515
    13  C   -0.031690
    15  Br   0.075781
 Electronic spatial extent (au):  <R**2>=           2800.0838
 Charge=              1.0000 electrons
 Dipole moment (field-independent basis, Debye):
    X=             -0.5689    Y=             -0.1886    Z=              1.8309  Tot=              1.9265
 Quadrupole moment (field-independent basis, Debye-Ang):
   XX=            -70.8923   YY=            -52.5508   ZZ=            -64.7120
   XY=              1.0108   XZ=              1.9616   YZ=              0.0788
 Traceless Quadrupole moment (field-independent basis, Debye-Ang):
   XX=             -8.1740   YY=             10.1676   ZZ=             -1.9937
   XY=              1.0108   XZ=              1.9616   YZ=              0.0788
 Octapole moment (field-independent basis, Debye-Ang**2):
  XXX=           -297.4567  YYY=             90.4557  ZZZ=             85.9766  XYY=            -75.0897
  XXY=             30.5604  XXZ=             38.4429  XZZ=            -76.9748  YZZ=             20.4810
  YYZ=             31.0087  XYZ=             -2.3107
 Hexadecapole moment (field-independent basis, Debye-Ang**3):
 XXXX=          -2272.4070 YYYY=           -682.7061 ZZZZ=           -367.1861 XXXY=            -69.5481
 XXXZ=             -4.5715 YYYX=            -61.4943 YYYZ=           -164.9996 ZZZX=            -19.5731
 ZZZY=           -147.8672 XXYY=           -456.1675 XXZZ=           -373.0914 YYZZ=           -172.7354
 XXYZ=            -56.0383 YYXZ=             -2.1852 ZZXY=            -10.9693
 N-N= 7.404186290948D+02 E-N=-8.633623018029D+03  KE= 3.005860027281D+03
 No NMR shielding tensors so no spin-rotation constants.
 Leave Link  601 at Wed May  1 15:22:49 2024, MaxMem=  1207959552 cpu:               7.3 elap:               7.3
 (Enter /software/gaussian/g16-c01/sse4/g16/l9999.exe)
 Unable to Open any file for archive entry.
 1\1\GINC-BHX0026\SP\RwB97XD\6-311+G(d)\C6H5Br1N1O2(1+)\BWEIGHT\01-May-
 2024\0\\#P wB97XD/6-311+G* NoSymm #P Field=Z-107\\TitleMe\\1,1\C,0,0.0
 295,1.3397,0.0682\C,0,1.4348,1.2867,0.0064\C,0,2.1118,0.0511,-0.0054\C
 ,0,1.4451,-1.1372,0.0312\C,0,-0.6879,0.1682,0.11\H,0,-0.4713,2.2984,0.
 0781\H,0,2.0273,2.1965,-0.0322\H,0,1.9897,-2.0764,0.0232\H,0,-1.7716,0
 .1804,0.1582\N,0,3.5864,0.051,-0.0675\O,0,4.1471,-1.0597,-0.0881\O,0,4
 .145,1.1639,-0.0901\C,0,-0.0236,-1.1458,0.0835\H,0,-0.4367,-1.8725,0.7
 889\Br,0,-0.5359,-1.8697,-1.7408\\Version=ES64L-G16RevC.01\HF=-3010.53
 91544\RMSD=6.636e-09\Dipole=-2.1303718,1.0738787,1.8664922\Quadrupole=
 -6.0771447,7.5593773,-1.4822325,0.7515421,1.4583666,0.0586148\PG=C01 [
 X(C6H5Br1N1O2)]\\@
 The archive entry for this job was punched.


 EXPERIENCE IS THE FRUIT OF THE TREE OF ERRORS.
 Job cpu time:       0 days  0 hours 17 minutes 50.4 seconds.
 Elapsed time:       0 days  0 hours 17 minutes 50.6 seconds.
 File lengths (MBytes):  RWF=     40 Int=      0 D2E=      0 Chk=     32 Scr=      1
 Normal termination of Gaussian 16 at Wed May  1 15:22:50 2024.
