 Entering Gaussian System, Link 0=g16
 Initial command:
 /software/gaussian/g16-c01/sse4/g16/l1.exe "/local_scratch/24657493/Gau-17805.inp" -scrdir="/local_scratch/24657493/"
 Entering Link 1 = /software/gaussian/g16-c01/sse4/g16/l1.exe PID=     17808.
  
 Copyright (c) 1988-2019, Gaussian, Inc.  All Rights Reserved.
  
 This is part of the Gaussian(R) 16 program.  It is based on
 the Gaussian(R) 09 system (copyright 2009, Gaussian, Inc.),
 the Gaussian(R) 03 system (copyright 2003, Gaussian, Inc.),
 the Gaussian(R) 98 system (copyright 1998, Gaussian, Inc.),
 the Gaussian(R) 94 system (copyright 1995, Gaussian, Inc.),
 the Gaussian 92(TM) system (copyright 1992, Gaussian, Inc.),
 the Gaussian 90(TM) system (copyright 1990, Gaussian, Inc.),
 the Gaussian 88(TM) system (copyright 1988, Gaussian, Inc.),
 the Gaussian 86(TM) system (copyright 1986, Carnegie Mellon
 University), and the Gaussian 82(TM) system (copyright 1983,
 Carnegie Mellon University). Gaussian is a federally registered
 trademark of Gaussian, Inc.
  
 This software contains proprietary and confidential information,
 including trade secrets, belonging to Gaussian, Inc.
  
 This software is provided under written license and may be
 used, copied, transmitted, or stored only in accord with that
 written license.
  
 The following legend is applicable only to US Government
 contracts under FAR:
  
                    RESTRICTED RIGHTS LEGEND
  
 Use, reproduction and disclosure by the US Government is
 subject to restrictions as set forth in subparagraphs (a)
 and (c) of the Commercial Computer Software - Restricted
 Rights clause in FAR 52.227-19.
  
 Gaussian, Inc.
 340 Quinnipiac St., Bldg. 40, Wallingford CT 06492
  
  
 ---------------------------------------------------------------
 Warning -- This program may not be used in any manner that
 competes with the business of Gaussian, Inc. or will provide
 assistance to any competitor of Gaussian, Inc.  The licensee
 of this program is prohibited from giving any competitor of
 Gaussian, Inc. access to this program.  By using this program,
 the user acknowledges that Gaussian, Inc. is engaged in the
 business of creating and licensing software in the field of
 computational chemistry and represents and warrants to the
 licensee that it is not a competitor of Gaussian, Inc. and that
 it will not use this program in any manner prohibited above.
 ---------------------------------------------------------------
  

 Cite this work as:
 Gaussian 16, Revision C.01,
 M. J. Frisch, G. W. Trucks, H. B. Schlegel, G. E. Scuseria, 
 M. A. Robb, J. R. Cheeseman, G. Scalmani, V. Barone, 
 G. A. Petersson, H. Nakatsuji, X. Li, M. Caricato, A. V. Marenich, 
 J. Bloino, B. G. Janesko, R. Gomperts, B. Mennucci, H. P. Hratchian, 
 J. V. Ortiz, A. F. Izmaylov, J. L. Sonnenberg, D. Williams-Young, 
 F. Ding, F. Lipparini, F. Egidi, J. Goings, B. Peng, A. Petrone, 
 T. Henderson, D. Ranasinghe, V. G. Zakrzewski, J. Gao, N. Rega, 
 G. Zheng, W. Liang, M. Hada, M. Ehara, K. Toyota, R. Fukuda, 
 J. Hasegawa, M. Ishida, T. Nakajima, Y. Honda, O. Kitao, H. Nakai, 
 T. Vreven, K. Throssell, J. A. Montgomery, Jr., J. E. Peralta, 
 F. Ogliaro, M. J. Bearpark, J. J. Heyd, E. N. Brothers, K. N. Kudin, 
 V. N. Staroverov, T. A. Keith, R. Kobayashi, J. Normand, 
 K. Raghavachari, A. P. Rendell, J. C. Burant, S. S. Iyengar, 
 J. Tomasi, M. Cossi, J. M. Millam, M. Klene, C. Adamo, R. Cammi, 
 J. W. Ochterski, R. L. Martin, K. Morokuma, O. Farkas, 
 J. B. Foresman, and D. J. Fox, Gaussian, Inc., Wallingford CT, 2019.
 
 ******************************************
 Gaussian 16:  ES64L-G16RevC.01  3-Jul-2019
                 1-May-2024 
 ******************************************
 %chk=geometry.chk
 %mem=9GB
 %nprocshared=12
 Will use up to   12 processors via shared memory.
 ---------------------------------------
 #P wB97XD/6-311+G* NoSymm #P Field=Y-77
 ---------------------------------------
 1/38=1,172=1/1;
 2/12=2,15=1,17=6,18=5,40=1/2;
 3/5=4,6=6,7=11,11=2,14=2,15=-77,25=1,30=1,74=-58/1,2,3;
 4//1;
 5/5=2,38=5/2;
 6/7=2,8=2,9=2,10=2,28=1/1;
 99/5=1,9=1/99;
 Leave Link    1 at Wed May  1 14:46:56 2024, MaxMem=  1207959552 cpu:               1.3 elap:               1.3
 (Enter /software/gaussian/g16-c01/sse4/g16/l101.exe)
 -------
 TitleMe
 -------
 Symbolic Z-matrix:
 Charge =  1 Multiplicity = 1
 C                     0.0295    1.3397    0.0682 
 C                     1.4348    1.2867    0.0064 
 C                     2.1118    0.0511   -0.0054 
 C                     1.4451   -1.1372    0.0312 
 C                    -0.6879    0.1682    0.11 
 H                    -0.4713    2.2984    0.0781 
 H                     2.0273    2.1965   -0.0322 
 H                     1.9897   -2.0764    0.0232 
 H                    -1.7716    0.1804    0.1582 
 N                     3.5864    0.051    -0.0675 
 O                     4.1471   -1.0597   -0.0881 
 O                     4.145     1.1639   -0.0901 
 C                    -0.0236   -1.1458    0.0835 
 H                    -0.4367   -1.8725    0.7889 
 Br                   -0.5359   -1.8697   -1.7408 
 
 ITRead=  0  0  0  0  0  0  0  0  0  0  0  0  0  0  0
 MicOpt= -1 -1 -1 -1 -1 -1 -1 -1 -1 -1 -1 -1 -1 -1 -1
 NAtoms=     15 NQM=       15 NQMF=       0 NMMI=      0 NMMIF=      0
                NMic=       0 NMicF=      0.
                    Isotopes and Nuclear Properties:
 (Nuclear quadrupole moments (NQMom) in fm**2, nuclear magnetic moments (NMagM)
  in nuclear magnetons)

  Atom         1           2           3           4           5           6           7           8           9          10
 IAtWgt=          12          12          12          12          12           1           1           1           1          14
 AtmWgt=  12.0000000  12.0000000  12.0000000  12.0000000  12.0000000   1.0078250   1.0078250   1.0078250   1.0078250  14.0030740
 NucSpn=           0           0           0           0           0           1           1           1           1           2
 AtZEff=  -0.0000000  -0.0000000  -0.0000000  -0.0000000  -0.0000000  -0.0000000  -0.0000000  -0.0000000  -0.0000000  -0.0000000
 NQMom=    0.0000000   0.0000000   0.0000000   0.0000000   0.0000000   0.0000000   0.0000000   0.0000000   0.0000000   2.0440000
 NMagM=    0.0000000   0.0000000   0.0000000   0.0000000   0.0000000   2.7928460   2.7928460   2.7928460   2.7928460   0.4037610
 AtZNuc=   6.0000000   6.0000000   6.0000000   6.0000000   6.0000000   1.0000000   1.0000000   1.0000000   1.0000000   7.0000000

  Atom        11          12          13          14          15
 IAtWgt=          16          16          12           1          79
 AtmWgt=  15.9949146  15.9949146  12.0000000   1.0078250  78.9183361
 NucSpn=           0           0           0           1           3
 AtZEff=  -0.0000000  -0.0000000  -0.0000000  -0.0000000  -0.0000000
 NQMom=    0.0000000   0.0000000   0.0000000   0.0000000  31.3000000
 NMagM=    0.0000000   0.0000000   0.0000000   2.7928460   2.1063990
 AtZNuc=   8.0000000   8.0000000   6.0000000   1.0000000  35.0000000
 Leave Link  101 at Wed May  1 14:46:57 2024, MaxMem=  1207959552 cpu:               1.4 elap:               1.4
 (Enter /software/gaussian/g16-c01/sse4/g16/l202.exe)
                          Input orientation:                          
 ---------------------------------------------------------------------
 Center     Atomic      Atomic             Coordinates (Angstroms)
 Number     Number       Type             X           Y           Z
 ---------------------------------------------------------------------
      1          6           0        0.029500    1.339700    0.068200
      2          6           0        1.434800    1.286700    0.006400
      3          6           0        2.111800    0.051100   -0.005400
      4          6           0        1.445100   -1.137200    0.031200
      5          6           0       -0.687900    0.168200    0.110000
      6          1           0       -0.471300    2.298400    0.078100
      7          1           0        2.027300    2.196500   -0.032200
      8          1           0        1.989700   -2.076400    0.023200
      9          1           0       -1.771600    0.180400    0.158200
     10          7           0        3.586400    0.051000   -0.067500
     11          8           0        4.147100   -1.059700   -0.088100
     12          8           0        4.145000    1.163900   -0.090100
     13          6           0       -0.023600   -1.145800    0.083500
     14          1           0       -0.436700   -1.872500    0.788900
     15         35           0       -0.535900   -1.869700   -1.740800
 ---------------------------------------------------------------------
                    Distance matrix (angstroms):
                    1          2          3          4          5
     1  C    0.000000
     2  C    1.407656   0.000000
     3  C    2.449874   1.408963   0.000000
     4  C    2.853126   2.424049   1.363043   0.000000
     5  C    1.374344   2.401589   2.804523   2.501993   0.000000
     6  H    1.081667   2.159142   3.424870   3.934226   2.141421
     7  H    2.176095   1.086408   2.147231   3.384750   3.392128
     8  H    3.938800   3.408612   2.131193   1.085702   3.495040
     9  H    2.143837   3.395283   3.888995   3.478413   1.084840
    10  N    3.785591   2.482297   1.475907   2.450862   4.279589
    11  O    4.768247   3.587631   2.320164   2.705743   4.992415
    12  O    4.122294   2.714696   2.319353   3.549540   4.938459
    13  C    2.486114   2.837240   2.449573   1.469656   1.472614
    14  H    3.324903   3.754379   3.290289   2.157764   2.165286
    15  Br   3.727252   4.110867   3.702891   2.756973   2.757100
                    6          7          8          9         10
     6  H    0.000000
     7  H    2.503108   0.000000
     8  H    5.019802   4.273425   0.000000
     9  H    2.486588   4.304945   4.388479   0.000000
    10  N    4.640790   2.652397   2.661486   5.364313   0.000000
    11  O    5.712624   3.885809   2.387560   6.052233   1.244373
    12  O    4.756638   2.356750   3.893289   6.002923   1.245428
    13  C    3.473180   3.923079   2.218790   2.195425   3.806210
    14  H    4.231175   4.827242   2.552506   2.528663   4.540772
    15  Br   4.548146   5.101303   3.087568   3.055498   4.845862
                   11         12         13         14         15
    11  O    0.000000
    12  O    2.223602   0.000000
    13  C    4.175117   4.768865   0.000000
    14  H    4.737193   5.566358   1.093770   0.000000
    15  Br   5.031700   5.817075   2.028436   2.531646   0.000000
 Symmetry turned off by external request.
 Stoichiometry    C6H5BrNO2(1+)
 Framework group  C1[X(C6H5BrNO2)]
 Deg. of freedom    39
 Full point group                 C1      NOp   1
 Rotational constants (GHZ):           1.8252210           0.5518633           0.4576002
 Leave Link  202 at Wed May  1 14:46:58 2024, MaxMem=  1207959552 cpu:               1.1 elap:               1.1
 (Enter /software/gaussian/g16-c01/sse4/g16/l301.exe)
 Standard basis: 6-311+G(d) (5D, 7F)
 Ernie: Thresh=  0.10000D-02 Tol=  0.10000D-05 Strict=F.
 The following finite field(s) will be applied:
 An electric field of              0.0000 -0.0077  0.0000
   261 basis functions,   443 primitive gaussians,   273 cartesian basis functions
    49 alpha electrons       49 beta electrons
       nuclear repulsion energy       739.2122215416 Hartrees.
 IExCor= 4639 DFT=T Ex+Corr=wB97XD ExCW=0 ScaHFX=  1.000000
 ScaDFX=  1.000000  1.000000  1.000000  1.000000 ScalE2=  1.000000  1.000000
 IRadAn=      5 IRanWt=     -1 IRanGd=            0 ICorTp=0 IEmpDi=121
 HFx  wShort=  0.000000 wLong=  0.200000 cFull=  0.222036 cShort=  0.000000 cLong=  0.777964
 DFx  wShort=  0.000000 wLong=  0.200000 cFull=  0.000000 cShort=  0.000000 cLong=  1.000000
 NAtoms=   15 NActive=   15 NUniq=   15 SFac= 1.00D+00 NAtFMM=   60 NAOKFM=F Big=F
 Integral buffers will be    131072 words long.
 Raffenetti 2 integral format.
 Two-electron integral symmetry is turned off.
 R6Disp:  Grimme-D2 Dispersion energy=       -0.0077368520 Hartrees.
 Nuclear repulsion after empirical dispersion term =      739.2044846896 Hartrees.
 Leave Link  301 at Wed May  1 14:46:59 2024, MaxMem=  1207959552 cpu:               1.0 elap:               1.0
 (Enter /software/gaussian/g16-c01/sse4/g16/l302.exe)
 NPDir=0 NMtPBC=     1 NCelOv=     1 NCel=       1 NClECP=     1 NCelD=      1
         NCelK=      1 NCelE2=     1 NClLst=     1 CellRange=     0.0.
 One-electron integrals computed using PRISM.
 NBasis=   261 RedAO= T EigKep=  2.35D-06  NBF=   261
 NBsUse=   261 1.00D-06 EigRej= -1.00D+00 NBFU=   261
 Precomputing XC quadrature grid using
 IXCGrd= 4 IRadAn=           5 IRanWt=          -1 IRanGd=           0 AccXCQ= 0.00D+00.
 Generated NRdTot=       0 NPtTot=           0 NUsed=           0 NTot=          32
 NSgBfM=   273   273   273   273   273 MxSgAt=    15 MxSgA2=    15.
 Leave Link  302 at Wed May  1 14:47:20 2024, MaxMem=  1207959552 cpu:              21.2 elap:              21.2
 (Enter /software/gaussian/g16-c01/sse4/g16/l303.exe)
 DipDrv:  MaxL=1.
 The nuclear repulsion energy is now       740.0796669545 hartrees.
 Leave Link  303 at Wed May  1 14:47:24 2024, MaxMem=  1207959552 cpu:               3.3 elap:               3.3
 (Enter /software/gaussian/g16-c01/sse4/g16/l401.exe)
 ExpMin= 3.50D-02 ExpMax= 4.40D+05 ExpMxC= 1.51D+04 IAcc=3 IRadAn=         5 AccDes= 0.00D+00
 Harris functional with IExCor= 4639 and IRadAn=       5 diagonalized for initial guess.
 HarFok:  IExCor= 4639 AccDes= 0.00D+00 IRadAn=         5 IDoV= 1 UseB2=F ITyADJ=14
 ICtDFT=  3500011 ScaDFX=  1.000000  1.000000  1.000000  1.000000
 FoFCou: FMM=F IPFlag=           0 FMFlag=      100000 FMFlg1=           0
         NFxFlg=           0 DoJE=T BraDBF=F KetDBF=T FulRan=T
         wScrn=  0.000000 ICntrl=       500 IOpCl=  0 I1Cent=   200000004 NGrid=           0
         NMat0=    1 NMatS0=      1 NMatT0=    0 NMatD0=    1 NMtDS0=    0 NMtDT0=    0
 Symmetry not used in FoFCou.
 Harris En= -2970.60473860871    
 JPrj=0 DoOrth=F DoCkMO=F.
 Leave Link  401 at Wed May  1 14:47:54 2024, MaxMem=  1207959552 cpu:              30.4 elap:              30.4
 (Enter /software/gaussian/g16-c01/sse4/g16/l502.exe)
 Two-electron integral symmetry not used.
 Closed shell SCF:
 Using DIIS extrapolation, IDIIS=  1040.
 NGot=  1207959552 LenX=  1207804877 LenY=  1207729907
 Requested convergence on RMS density matrix=1.00D-08 within 128 cycles.
 Requested convergence on MAX density matrix=1.00D-06.
 Requested convergence on             energy=1.00D-06.
 No special actions if energy rises.
 Fock matrices will be formed incrementally for  20 cycles.

 Cycle   1  Pass 1  IDiag  1:
 FoFJK:  IHMeth= 1 ICntrl=       0 DoSepK=T KAlg= 0 I1Cent=           0 FoldK=F
 IRaf=         1 NMat=       1 IRICut=       1 DoRegI=T DoRafI=F ISym2E= 0 IDoP0=0 IntGTp=1.
 FoFCou: FMM=F IPFlag=           0 FMFlag=      100000 FMFlg1=           0
         NFxFlg=           0 DoJE=T BraDBF=F KetDBF=F FulRan=T
         wScrn=  0.000000 ICntrl=       500 IOpCl=  0 I1Cent=           0 NGrid=           0
         NMat0=    1 NMatS0=      1 NMatT0=    0 NMatD0=    1 NMtDS0=    0 NMtDT0=    0
 Symmetry not used in FoFCou.
 E= -3009.71277491223    
 DIIS: error= 3.20D-01 at cycle   1 NSaved=   1.
 NSaved= 1 IEnMin= 1 EnMin= -3009.71277491223     IErMin= 1 ErrMin= 3.20D-01
 ErrMax= 3.20D-01  0.00D+00 EMaxC= 1.00D-01 BMatC= 1.19D+01 BMatP= 1.19D+01
 IDIUse=3 WtCom= 0.00D+00 WtEn= 1.00D+00
 Coeff-Com:  0.100D+01
 Coeff-En:   0.100D+01
 Coeff:      0.100D+01
 Gap=     0.367 Goal=   None    Shift=    0.000
 GapD=    0.367 DampG=1.000 DampE=0.250 DampFc=0.2500 IDamp=-1.
 Damping current iteration by 2.50D-01
 RMSDP=5.01D-02 MaxDP=5.97D+00              OVMax= 2.47D-01

 Cycle   2  Pass 1  IDiag  1:
 RMSU=  4.73D-03    CP:  8.82D-01
 E= -3009.99829653928     Delta-E=       -0.285521627058 Rises=F Damp=T
 DIIS: error= 2.25D-01 at cycle   2 NSaved=   2.
 NSaved= 2 IEnMin= 2 EnMin= -3009.99829653928     IErMin= 2 ErrMin= 2.25D-01
 ErrMax= 2.25D-01  0.00D+00 EMaxC= 1.00D-01 BMatC= 5.45D+00 BMatP= 1.19D+01
 IDIUse=3 WtCom= 0.00D+00 WtEn= 1.00D+00
 Coeff-Com: -0.184D+01 0.284D+01
 Coeff-En:   0.000D+00 0.100D+01
 Coeff:      0.000D+00 0.100D+01
 Gap=     0.286 Goal=   None    Shift=    0.000
 RMSDP=3.91D-02 MaxDP=4.43D+00 DE=-2.86D-01 OVMax= 9.51D-02

 Cycle   3  Pass 1  IDiag  1:
 RMSU=  5.15D-03    CP:  5.04D-01  3.00D+00
 E= -3010.38971783856     Delta-E=       -0.391421299277 Rises=F Damp=F
 DIIS: error= 6.52D-02 at cycle   3 NSaved=   3.
 NSaved= 3 IEnMin= 3 EnMin= -3010.38971783856     IErMin= 3 ErrMin= 6.52D-02
 ErrMax= 6.52D-02  0.00D+00 EMaxC= 1.00D-01 BMatC= 7.20D-01 BMatP= 5.45D+00
 IDIUse=3 WtCom= 3.48D-01 WtEn= 6.52D-01
 Coeff-Com:  0.240D+01-0.313D+01 0.173D+01
 Coeff-En:   0.132D-01 0.000D+00 0.987D+00
 Coeff:      0.845D+00-0.109D+01 0.124D+01
 Gap=     0.254 Goal=   None    Shift=    0.000
 RMSDP=8.47D-03 MaxDP=4.99D-01 DE=-3.91D-01 OVMax= 7.11D-02

 Cycle   4  Pass 1  IDiag  1:
 RMSU=  6.24D-03    CP:  5.15D-01  2.62D+00  1.88D+00
 E= -3010.47891856693     Delta-E=       -0.089200728365 Rises=F Damp=F
 DIIS: error= 4.01D-02 at cycle   4 NSaved=   4.
 NSaved= 4 IEnMin= 4 EnMin= -3010.47891856693     IErMin= 4 ErrMin= 4.01D-02
 ErrMax= 4.01D-02  0.00D+00 EMaxC= 1.00D-01 BMatC= 2.63D-01 BMatP= 7.20D-01
 IDIUse=3 WtCom= 5.99D-01 WtEn= 4.01D-01
 Coeff-Com:  0.430D+00-0.557D+00 0.606D+00 0.521D+00
 Coeff-En:   0.000D+00 0.000D+00 0.246D+00 0.754D+00
 Coeff:      0.258D+00-0.334D+00 0.462D+00 0.614D+00
 Gap=     0.280 Goal=   None    Shift=    0.000
 RMSDP=3.65D-03 MaxDP=2.77D-01 DE=-8.92D-02 OVMax= 7.50D-02

 Cycle   5  Pass 1  IDiag  1:
 RMSU=  2.04D-03    CP:  4.90D-01  2.87D+00  1.85D+00  7.77D-01
 E= -3010.52714064482     Delta-E=       -0.048222077894 Rises=F Damp=F
 DIIS: error= 1.31D-02 at cycle   5 NSaved=   5.
 NSaved= 5 IEnMin= 5 EnMin= -3010.52714064482     IErMin= 5 ErrMin= 1.31D-02
 ErrMax= 1.31D-02  0.00D+00 EMaxC= 1.00D-01 BMatC= 1.65D-02 BMatP= 2.63D-01
 IDIUse=3 WtCom= 8.69D-01 WtEn= 1.31D-01
 Coeff-Com: -0.199D-01 0.327D-01 0.183D+00 0.373D+00 0.431D+00
 Coeff-En:   0.000D+00 0.000D+00 0.000D+00 0.535D-01 0.946D+00
 Coeff:     -0.173D-01 0.284D-01 0.159D+00 0.331D+00 0.498D+00
 Gap=     0.267 Goal=   None    Shift=    0.000
 RMSDP=1.30D-03 MaxDP=1.15D-01 DE=-4.82D-02 OVMax= 4.72D-02

 Cycle   6  Pass 1  IDiag  1:
 RMSU=  5.58D-04    CP:  4.83D-01  2.90D+00  1.82D+00  8.39D-01  5.80D-01
 E= -3010.53584792032     Delta-E=       -0.008707275504 Rises=F Damp=F
 DIIS: error= 3.57D-03 at cycle   6 NSaved=   6.
 NSaved= 6 IEnMin= 6 EnMin= -3010.53584792032     IErMin= 6 ErrMin= 3.57D-03
 ErrMax= 3.57D-03  0.00D+00 EMaxC= 1.00D-01 BMatC= 1.49D-03 BMatP= 1.65D-02
 IDIUse=3 WtCom= 9.64D-01 WtEn= 3.57D-02
 Coeff-Com: -0.714D-01 0.962D-01 0.601D-02 0.122D+00 0.320D+00 0.527D+00
 Coeff-En:   0.000D+00 0.000D+00 0.000D+00 0.000D+00 0.937D-01 0.906D+00
 Coeff:     -0.689D-01 0.928D-01 0.579D-02 0.117D+00 0.312D+00 0.540D+00
 Gap=     0.259 Goal=   None    Shift=    0.000
 RMSDP=3.82D-04 MaxDP=1.81D-02 DE=-8.71D-03 OVMax= 1.17D-02

 Cycle   7  Pass 1  IDiag  1:
 RMSU=  2.17D-04    CP:  4.82D-01  2.89D+00  1.83D+00  8.19D-01  7.02D-01
                    CP:  8.10D-01
 E= -3010.53688098528     Delta-E=       -0.001033064957 Rises=F Damp=F
 DIIS: error= 3.27D-04 at cycle   7 NSaved=   7.
 NSaved= 7 IEnMin= 7 EnMin= -3010.53688098528     IErMin= 7 ErrMin= 3.27D-04
 ErrMax= 3.27D-04  0.00D+00 EMaxC= 1.00D-01 BMatC= 1.77D-05 BMatP= 1.49D-03
 IDIUse=3 WtCom= 9.97D-01 WtEn= 3.27D-03
 Coeff-Com: -0.296D-01 0.395D-01-0.120D-01 0.214D-01 0.781D-01 0.185D+00
 Coeff-Com:  0.718D+00
 Coeff-En:   0.000D+00 0.000D+00 0.000D+00 0.000D+00 0.000D+00 0.000D+00
 Coeff-En:   0.100D+01
 Coeff:     -0.296D-01 0.393D-01-0.119D-01 0.214D-01 0.779D-01 0.184D+00
 Coeff:      0.719D+00
 Gap=     0.257 Goal=   None    Shift=    0.000
 RMSDP=1.57D-04 MaxDP=1.17D-02 DE=-1.03D-03 OVMax= 3.11D-03

 Cycle   8  Pass 1  IDiag  1:
 RMSU=  7.39D-05    CP:  4.81D-01  2.89D+00  1.84D+00  8.29D-01  7.19D-01
                    CP:  8.86D-01  9.95D-01
 E= -3010.53690752820     Delta-E=       -0.000026542918 Rises=F Damp=F
 DIIS: error= 1.27D-04 at cycle   8 NSaved=   8.
 NSaved= 8 IEnMin= 8 EnMin= -3010.53690752820     IErMin= 8 ErrMin= 1.27D-04
 ErrMax= 1.27D-04  0.00D+00 EMaxC= 1.00D-01 BMatC= 2.66D-06 BMatP= 1.77D-05
 IDIUse=3 WtCom= 9.99D-01 WtEn= 1.27D-03
 Coeff-Com:  0.325D-02-0.454D-02-0.404D-02-0.119D-01-0.328D-01-0.524D-01
 Coeff-Com:  0.186D+00 0.917D+00
 Coeff-En:   0.000D+00 0.000D+00 0.000D+00 0.000D+00 0.000D+00 0.000D+00
 Coeff-En:   0.000D+00 0.100D+01
 Coeff:      0.325D-02-0.454D-02-0.403D-02-0.119D-01-0.327D-01-0.523D-01
 Coeff:      0.185D+00 0.917D+00
 Gap=     0.257 Goal=   None    Shift=    0.000
 RMSDP=6.76D-05 MaxDP=3.97D-03 DE=-2.65D-05 OVMax= 2.41D-03

 Cycle   9  Pass 1  IDiag  1:
 RMSU=  2.84D-05    CP:  4.81D-01  2.89D+00  1.84D+00  8.31D-01  7.28D-01
                    CP:  9.10D-01  1.19D+00  1.36D+00
 E= -3010.53691492669     Delta-E=       -0.000007398493 Rises=F Damp=F
 DIIS: error= 5.12D-05 at cycle   9 NSaved=   9.
 NSaved= 9 IEnMin= 9 EnMin= -3010.53691492669     IErMin= 9 ErrMin= 5.12D-05
 ErrMax= 5.12D-05  0.00D+00 EMaxC= 1.00D-01 BMatC= 3.34D-07 BMatP= 2.66D-06
 IDIUse=1 WtCom= 1.00D+00 WtEn= 0.00D+00
 Coeff-Com:  0.498D-02-0.670D-02 0.320D-03-0.657D-02-0.188D-01-0.396D-01
 Coeff-Com: -0.425D-01 0.275D+00 0.834D+00
 Coeff:      0.498D-02-0.670D-02 0.320D-03-0.657D-02-0.188D-01-0.396D-01
 Coeff:     -0.425D-01 0.275D+00 0.834D+00
 Gap=     0.257 Goal=   None    Shift=    0.000
 RMSDP=2.25D-05 MaxDP=1.42D-03 DE=-7.40D-06 OVMax= 1.24D-03

 Cycle  10  Pass 1  IDiag  1:
 RMSU=  9.30D-06    CP:  4.81D-01  2.89D+00  1.85D+00  8.31D-01  7.31D-01
                    CP:  9.18D-01  1.24D+00  1.50D+00  1.25D+00
 E= -3010.53691626280     Delta-E=       -0.000001336108 Rises=F Damp=F
 DIIS: error= 1.78D-05 at cycle  10 NSaved=  10.
 NSaved=10 IEnMin=10 EnMin= -3010.53691626280     IErMin=10 ErrMin= 1.78D-05
 ErrMax= 1.78D-05  0.00D+00 EMaxC= 1.00D-01 BMatC= 8.11D-08 BMatP= 3.34D-07
 IDIUse=1 WtCom= 1.00D+00 WtEn= 0.00D+00
 Coeff-Com:  0.261D-03-0.323D-03 0.506D-03 0.421D-03 0.367D-02 0.485D-02
 Coeff-Com: -0.470D-01-0.132D+00 0.213D+00 0.957D+00
 Coeff:      0.261D-03-0.323D-03 0.506D-03 0.421D-03 0.367D-02 0.485D-02
 Coeff:     -0.470D-01-0.132D+00 0.213D+00 0.957D+00
 Gap=     0.257 Goal=   None    Shift=    0.000
 RMSDP=1.09D-05 MaxDP=6.19D-04 DE=-1.34D-06 OVMax= 6.53D-04

 Cycle  11  Pass 1  IDiag  1:
 RMSU=  6.15D-06    CP:  4.81D-01  2.89D+00  1.85D+00  8.30D-01  7.32D-01
                    CP:  9.17D-01  1.26D+00  1.54D+00  1.40D+00  1.28D+00
 E= -3010.53691654518     Delta-E=       -0.000000282375 Rises=F Damp=F
 DIIS: error= 5.92D-06 at cycle  11 NSaved=  11.
 NSaved=11 IEnMin=11 EnMin= -3010.53691654518     IErMin=11 ErrMin= 5.92D-06
 ErrMax= 5.92D-06  0.00D+00 EMaxC= 1.00D-01 BMatC= 9.08D-09 BMatP= 8.11D-08
 IDIUse=1 WtCom= 1.00D+00 WtEn= 0.00D+00
 Coeff-Com: -0.441D-03 0.602D-03 0.165D-03 0.905D-03 0.350D-02 0.632D-02
 Coeff-Com: -0.113D-01-0.763D-01-0.290D-02 0.330D+00 0.750D+00
 Coeff:     -0.441D-03 0.602D-03 0.165D-03 0.905D-03 0.350D-02 0.632D-02
 Coeff:     -0.113D-01-0.763D-01-0.290D-02 0.330D+00 0.750D+00
 Gap=     0.257 Goal=   None    Shift=    0.000
 RMSDP=4.25D-06 MaxDP=2.77D-04 DE=-2.82D-07 OVMax= 1.61D-04

 Cycle  12  Pass 1  IDiag  1:
 RMSU=  1.80D-06    CP:  4.81D-01  2.89D+00  1.84D+00  8.30D-01  7.32D-01
                    CP:  9.17D-01  1.26D+00  1.54D+00  1.45D+00  1.45D+00
                    CP:  1.25D+00
 E= -3010.53691657277     Delta-E=       -0.000000027594 Rises=F Damp=F
 DIIS: error= 3.16D-06 at cycle  12 NSaved=  12.
 NSaved=12 IEnMin=12 EnMin= -3010.53691657277     IErMin=12 ErrMin= 3.16D-06
 ErrMax= 3.16D-06  0.00D+00 EMaxC= 1.00D-01 BMatC= 2.11D-09 BMatP= 9.08D-09
 IDIUse=1 WtCom= 1.00D+00 WtEn= 0.00D+00
 Coeff-Com: -0.104D-03 0.137D-03-0.123D-04 0.180D-03-0.109D-03 0.181D-03
 Coeff-Com:  0.929D-02 0.977D-02-0.581D-01-0.167D+00 0.266D+00 0.940D+00
 Coeff:     -0.104D-03 0.137D-03-0.123D-04 0.180D-03-0.109D-03 0.181D-03
 Coeff:      0.929D-02 0.977D-02-0.581D-01-0.167D+00 0.266D+00 0.940D+00
 Gap=     0.257 Goal=   None    Shift=    0.000
 RMSDP=2.44D-06 MaxDP=1.08D-04 DE=-2.76D-08 OVMax= 1.14D-04

 Cycle  13  Pass 1  IDiag  1:
 RMSU=  6.23D-07    CP:  4.81D-01  2.89D+00  1.84D+00  8.30D-01  7.32D-01
                    CP:  9.16D-01  1.26D+00  1.53D+00  1.46D+00  1.54D+00
                    CP:  1.52D+00  1.14D+00
 E= -3010.53691658121     Delta-E=       -0.000000008442 Rises=F Damp=F
 DIIS: error= 5.51D-07 at cycle  13 NSaved=  13.
 NSaved=13 IEnMin=13 EnMin= -3010.53691658121     IErMin=13 ErrMin= 5.51D-07
 ErrMax= 5.51D-07  0.00D+00 EMaxC= 1.00D-01 BMatC= 2.11D-10 BMatP= 2.11D-09
 IDIUse=1 WtCom= 1.00D+00 WtEn= 0.00D+00
 Coeff-Com: -0.218D-04 0.280D-04-0.181D-04 0.740D-05-0.224D-03-0.370D-03
 Coeff-Com:  0.307D-02 0.528D-02-0.122D-01-0.596D-01 0.276D-02 0.216D+00
 Coeff-Com:  0.845D+00
 Coeff:     -0.218D-04 0.280D-04-0.181D-04 0.740D-05-0.224D-03-0.370D-03
 Coeff:      0.307D-02 0.528D-02-0.122D-01-0.596D-01 0.276D-02 0.216D+00
 Coeff:      0.845D+00
 Gap=     0.257 Goal=   None    Shift=    0.000
 RMSDP=6.13D-07 MaxDP=3.30D-05 DE=-8.44D-09 OVMax= 1.92D-05

 Cycle  14  Pass 1  IDiag  1:
 RMSU=  2.47D-07    CP:  4.81D-01  2.89D+00  1.84D+00  8.30D-01  7.32D-01
                    CP:  9.16D-01  1.26D+00  1.53D+00  1.47D+00  1.55D+00
                    CP:  1.58D+00  1.23D+00  1.34D+00
 E= -3010.53691658197     Delta-E=       -0.000000000759 Rises=F Damp=F
 DIIS: error= 4.68D-07 at cycle  14 NSaved=  14.
 NSaved=14 IEnMin=14 EnMin= -3010.53691658197     IErMin=14 ErrMin= 4.68D-07
 ErrMax= 4.68D-07  0.00D+00 EMaxC= 1.00D-01 BMatC= 4.49D-11 BMatP= 2.11D-10
 IDIUse=1 WtCom= 1.00D+00 WtEn= 0.00D+00
 Coeff-Com:  0.507D-05-0.660D-05-0.808D-05-0.363D-04-0.238D-04-0.130D-03
 Coeff-Com: -0.124D-02-0.135D-02 0.126D-01 0.250D-01-0.656D-01-0.174D+00
 Coeff-Com:  0.228D+00 0.976D+00
 Coeff:      0.507D-05-0.660D-05-0.808D-05-0.363D-04-0.238D-04-0.130D-03
 Coeff:     -0.124D-02-0.135D-02 0.126D-01 0.250D-01-0.656D-01-0.174D+00
 Coeff:      0.228D+00 0.976D+00
 Gap=     0.257 Goal=   None    Shift=    0.000
 RMSDP=2.51D-07 MaxDP=1.25D-05 DE=-7.59D-10 OVMax= 1.95D-05

 Cycle  15  Pass 1  IDiag  1:
 RMSU=  9.23D-08    CP:  4.81D-01  2.89D+00  1.84D+00  8.30D-01  7.32D-01
                    CP:  9.16D-01  1.26D+00  1.53D+00  1.47D+00  1.55D+00
                    CP:  1.60D+00  1.25D+00  1.59D+00  1.31D+00
 E= -3010.53691658231     Delta-E=       -0.000000000336 Rises=F Damp=F
 DIIS: error= 1.51D-07 at cycle  15 NSaved=  15.
 NSaved=15 IEnMin=15 EnMin= -3010.53691658231     IErMin=15 ErrMin= 1.51D-07
 ErrMax= 1.51D-07  0.00D+00 EMaxC= 1.00D-01 BMatC= 1.15D-11 BMatP= 4.49D-11
 IDIUse=1 WtCom= 1.00D+00 WtEn= 0.00D+00
 Coeff-Com:  0.616D-05-0.806D-05 0.150D-05-0.102D-04 0.285D-04 0.501D-04
 Coeff-Com: -0.636D-03-0.108D-02 0.401D-02 0.119D-01-0.809D-02-0.664D-01
 Coeff-Com: -0.181D+00 0.211D+00 0.103D+01
 Coeff:      0.616D-05-0.806D-05 0.150D-05-0.102D-04 0.285D-04 0.501D-04
 Coeff:     -0.636D-03-0.108D-02 0.401D-02 0.119D-01-0.809D-02-0.664D-01
 Coeff:     -0.181D+00 0.211D+00 0.103D+01
 Gap=     0.257 Goal=   None    Shift=    0.000
 RMSDP=1.76D-07 MaxDP=1.16D-05 DE=-3.36D-10 OVMax= 9.88D-06

 Cycle  16  Pass 1  IDiag  1:
 RMSU=  7.77D-08    CP:  4.81D-01  2.89D+00  1.84D+00  8.30D-01  7.32D-01
                    CP:  9.16D-01  1.26D+00  1.53D+00  1.47D+00  1.55D+00
                    CP:  1.61D+00  1.26D+00  1.74D+00  1.66D+00  1.34D+00
 E= -3010.53691658239     Delta-E=       -0.000000000084 Rises=F Damp=F
 DIIS: error= 7.18D-08 at cycle  16 NSaved=  16.
 NSaved=16 IEnMin=16 EnMin= -3010.53691658239     IErMin=16 ErrMin= 7.18D-08
 ErrMax= 7.18D-08  0.00D+00 EMaxC= 1.00D-01 BMatC= 1.42D-12 BMatP= 1.15D-11
 IDIUse=1 WtCom= 1.00D+00 WtEn= 0.00D+00
 Coeff-Com:  0.263D-05-0.350D-05 0.248D-05 0.296D-05 0.116D-04 0.417D-04
 Coeff-Com:  0.593D-04-0.107D-03-0.104D-02-0.990D-03 0.120D-01 0.146D-01
 Coeff-Com: -0.989D-01-0.786D-01 0.250D+00 0.903D+00
 Coeff:      0.263D-05-0.350D-05 0.248D-05 0.296D-05 0.116D-04 0.417D-04
 Coeff:      0.593D-04-0.107D-03-0.104D-02-0.990D-03 0.120D-01 0.146D-01
 Coeff:     -0.989D-01-0.786D-01 0.250D+00 0.903D+00
 Gap=     0.257 Goal=   None    Shift=    0.000
 RMSDP=3.97D-08 MaxDP=1.76D-06 DE=-8.41D-11 OVMax= 3.43D-06

 Cycle  17  Pass 1  IDiag  1:
 RMSU=  1.49D-08    CP:  4.81D-01  2.89D+00  1.84D+00  8.30D-01  7.32D-01
                    CP:  9.16D-01  1.26D+00  1.53D+00  1.47D+00  1.55D+00
                    CP:  1.60D+00  1.26D+00  1.75D+00  1.73D+00  1.55D+00
                    CP:  1.22D+00
 E= -3010.53691658237     Delta-E=        0.000000000022 Rises=F Damp=F
 DIIS: error= 3.39D-08 at cycle  17 NSaved=  17.
 NSaved=17 IEnMin=16 EnMin= -3010.53691658239     IErMin=17 ErrMin= 3.39D-08
 ErrMax= 3.39D-08  0.00D+00 EMaxC= 1.00D-01 BMatC= 3.24D-13 BMatP= 1.42D-12
 IDIUse=1 WtCom= 1.00D+00 WtEn= 0.00D+00
 Coeff-Com:  0.271D-06-0.384D-06 0.685D-06 0.237D-05 0.178D-05 0.129D-04
 Coeff-Com:  0.109D-03 0.806D-04-0.995D-03-0.194D-02 0.522D-02 0.131D-01
 Coeff-Com: -0.139D-01-0.498D-01-0.886D-01 0.308D+00 0.829D+00
 Coeff:      0.271D-06-0.384D-06 0.685D-06 0.237D-05 0.178D-05 0.129D-04
 Coeff:      0.109D-03 0.806D-04-0.995D-03-0.194D-02 0.522D-02 0.131D-01
 Coeff:     -0.139D-01-0.498D-01-0.886D-01 0.308D+00 0.829D+00
 Gap=     0.257 Goal=   None    Shift=    0.000
 RMSDP=2.36D-08 MaxDP=1.35D-06 DE= 2.23D-11 OVMax= 1.27D-06

 Cycle  18  Pass 1  IDiag  1:
 RMSU=  6.32D-09    CP:  4.81D-01  2.89D+00  1.84D+00  8.30D-01  7.32D-01
                    CP:  9.16D-01  1.26D+00  1.53D+00  1.47D+00  1.55D+00
                    CP:  1.60D+00  1.26D+00  1.76D+00  1.77D+00  1.62D+00
                    CP:  1.38D+00  1.18D+00
 E= -3010.53691658237     Delta-E=        0.000000000003 Rises=F Damp=F
 DIIS: error= 8.99D-09 at cycle  18 NSaved=  18.
 NSaved=18 IEnMin=16 EnMin= -3010.53691658239     IErMin=18 ErrMin= 8.99D-09
 ErrMax= 8.99D-09  0.00D+00 EMaxC= 1.00D-01 BMatC= 2.39D-14 BMatP= 3.24D-13
 IDIUse=1 WtCom= 1.00D+00 WtEn= 0.00D+00
 Coeff-Com: -0.117D-06 0.154D-06-0.225D-06-0.407D-06-0.137D-05-0.353D-05
 Coeff-Com:  0.290D-05 0.317D-04 0.357D-04-0.361D-04-0.110D-02-0.707D-03
 Coeff-Com:  0.113D-01 0.127D-01-0.524D-01-0.921D-01 0.110D+00 0.101D+01
 Coeff:     -0.117D-06 0.154D-06-0.225D-06-0.407D-06-0.137D-05-0.353D-05
 Coeff:      0.290D-05 0.317D-04 0.357D-04-0.361D-04-0.110D-02-0.707D-03
 Coeff:      0.113D-01 0.127D-01-0.524D-01-0.921D-01 0.110D+00 0.101D+01
 Gap=     0.257 Goal=   None    Shift=    0.000
 RMSDP=8.74D-09 MaxDP=7.45D-07 DE= 3.18D-12 OVMax= 2.80D-07

 SCF Done:  E(RwB97XD) =  -3010.53691658     A.U. after   18 cycles
            NFock= 18  Conv=0.87D-08     -V/T= 2.0016
 KE= 3.005864391631D+03 PE=-8.633291754952D+03 EE= 1.876810779784D+03
 Leave Link  502 at Wed May  1 15:04:36 2024, MaxMem=  1207959552 cpu:            1001.6 elap:            1001.8
 (Enter /software/gaussian/g16-c01/sse4/g16/l601.exe)
 Copying SCF densities to generalized density rwf, IOpCl= 0 IROHF=0.

 **********************************************************************

            Population analysis using the SCF Density.

 **********************************************************************

 Alpha  occ. eigenvalues -- -483.32327 -62.87368 -56.67040 -56.66496 -56.66495
 Alpha  occ. eigenvalues --  -19.45972 -19.45757 -14.85382 -10.59177 -10.57389
 Alpha  occ. eigenvalues --  -10.57294 -10.57242 -10.56598 -10.52434  -9.03186
 Alpha  occ. eigenvalues --   -6.85808  -6.84021  -6.84010  -2.95726  -2.95249
 Alpha  occ. eigenvalues --   -2.95239  -2.93809  -2.93809  -1.49650  -1.32621
 Alpha  occ. eigenvalues --   -1.22832  -1.14470  -1.11683  -1.05192  -1.01037
 Alpha  occ. eigenvalues --   -0.95637  -0.90997  -0.85263  -0.80799  -0.80641
 Alpha  occ. eigenvalues --   -0.80023  -0.78567  -0.76096  -0.75838  -0.72616
 Alpha  occ. eigenvalues --   -0.69302  -0.67402  -0.63796  -0.60631  -0.57844
 Alpha  occ. eigenvalues --   -0.57056  -0.56194  -0.55958  -0.55564
 Alpha virt. eigenvalues --   -0.29874  -0.21374  -0.16215  -0.13580  -0.10671
 Alpha virt. eigenvalues --   -0.07118  -0.06598  -0.05978  -0.04798  -0.03645
 Alpha virt. eigenvalues --   -0.03154  -0.02543  -0.02319  -0.01658  -0.01484
 Alpha virt. eigenvalues --    0.00627   0.01414   0.02161   0.02428   0.02997
 Alpha virt. eigenvalues --    0.03344   0.04213   0.05100   0.05841   0.06342
 Alpha virt. eigenvalues --    0.07046   0.08251   0.08343   0.08550   0.09972
 Alpha virt. eigenvalues --    0.10420   0.10513   0.11376   0.11629   0.12451
 Alpha virt. eigenvalues --    0.13151   0.13289   0.14015   0.14889   0.15995
 Alpha virt. eigenvalues --    0.16891   0.17947   0.18178   0.18992   0.19596
 Alpha virt. eigenvalues --    0.20478   0.20692   0.21302   0.22110   0.24588
 Alpha virt. eigenvalues --    0.25804   0.27480   0.28010   0.28453   0.29604
 Alpha virt. eigenvalues --    0.31721   0.32793   0.33548   0.35123   0.36254
 Alpha virt. eigenvalues --    0.36925   0.38231   0.39103   0.40568   0.40995
 Alpha virt. eigenvalues --    0.42716   0.43680   0.44413   0.46281   0.47292
 Alpha virt. eigenvalues --    0.48131   0.49469   0.50779   0.51731   0.53443
 Alpha virt. eigenvalues --    0.53748   0.54460   0.56138   0.56774   0.60447
 Alpha virt. eigenvalues --    0.61110   0.61920   0.63263   0.66138   0.68562
 Alpha virt. eigenvalues --    0.69704   0.71957   0.72974   0.73715   0.73969
 Alpha virt. eigenvalues --    0.75231   0.79554   0.79892   0.82244   0.84939
 Alpha virt. eigenvalues --    0.86090   0.88011   0.91598   0.92835   0.98251
 Alpha virt. eigenvalues --    0.99650   1.01194   1.04306   1.05373   1.06386
 Alpha virt. eigenvalues --    1.08766   1.10951   1.12067   1.12469   1.14241
 Alpha virt. eigenvalues --    1.22144   1.24428   1.26608   1.33028   1.36386
 Alpha virt. eigenvalues --    1.36785   1.37532   1.44819   1.54259   1.57028
 Alpha virt. eigenvalues --    1.58359   1.58560   1.60578   1.62131   1.66112
 Alpha virt. eigenvalues --    1.68996   1.69438   1.73604   1.75253   1.78998
 Alpha virt. eigenvalues --    1.80887   1.85453   1.87531   1.92265   1.94365
 Alpha virt. eigenvalues --    1.97460   2.02809   2.03627   2.06088   2.07700
 Alpha virt. eigenvalues --    2.09043   2.14650   2.20534   2.22755   2.30096
 Alpha virt. eigenvalues --    2.37454   2.40921   2.42042   2.43359   2.52444
 Alpha virt. eigenvalues --    2.56673   2.63043   2.66028   2.68128   2.71775
 Alpha virt. eigenvalues --    2.73172   2.76387   2.77342   2.80982   2.81534
 Alpha virt. eigenvalues --    2.93218   2.95982   3.00591   3.04970   3.08808
 Alpha virt. eigenvalues --    3.12962   3.15236   3.19291   3.23717   3.24202
 Alpha virt. eigenvalues --    3.27319   3.39072   3.47947   3.51205   3.54285
 Alpha virt. eigenvalues --    3.56713   3.69870   3.74076   3.82115   3.87008
 Alpha virt. eigenvalues --    4.07651   4.07895   4.15509   4.20680   4.41541
 Alpha virt. eigenvalues --    4.44324   4.57257   4.59842   4.93162   4.95845
 Alpha virt. eigenvalues --    5.04471   5.08670   5.62788   6.15739   6.63390
 Alpha virt. eigenvalues --    7.46331   7.47902   7.57746  23.21197  23.61203
 Alpha virt. eigenvalues --   23.68790  23.79558  23.96106  24.01338  35.32574
 Alpha virt. eigenvalues --   47.90051  49.85524  49.94338 289.79397 289.81066
 Alpha virt. eigenvalues --  289.935221020.90498
          Condensed to atoms (all electrons):
               1          2          3          4          5          6
     1  C    8.606080  -1.990914   0.157742  -1.461120  -0.713858   0.308704
     2  C   -1.990914  12.193683  -1.670555  -2.777800   0.850020  -0.012202
     3  C    0.157742  -1.670555  12.760612  -2.783407  -1.228182   0.023417
     4  C   -1.461120  -2.777800  -2.783407  14.750583   1.031026   0.007199
     5  C   -0.713858   0.850020  -1.228182   1.031026   7.373385   0.010044
     6  H    0.308704  -0.012202   0.023417   0.007199   0.010044   0.307554
     7  H    0.057081   0.244869   0.061355  -0.026050  -0.016766  -0.001382
     8  H    0.006158  -0.020048   0.092643   0.214409  -0.022472   0.000002
     9  H    0.044239  -0.019457   0.006113  -0.013513   0.304969  -0.002159
    10  N   -0.112160   0.306395  -0.903115   0.314404   0.021554  -0.000533
    11  O    0.025395  -0.085958  -0.254050  -0.041048  -0.061060  -0.000025
    12  O    0.299154   0.003636  -0.285755  -0.086543  -0.039115   0.000004
    13  C    1.316632  -1.536534   0.707397  -3.406304  -1.545106  -0.005365
    14  H   -0.014219   0.010202  -0.006069  -0.008383  -0.013845  -0.000034
    15  Br   0.032785   0.023899  -0.000601   0.017978   0.023306  -0.000363
               7          8          9         10         11         12
     1  C    0.057081   0.006158   0.044239  -0.112160   0.025395   0.299154
     2  C    0.244869  -0.020048  -0.019457   0.306395  -0.085958   0.003636
     3  C    0.061355   0.092643   0.006113  -0.903115  -0.254050  -0.285755
     4  C   -0.026050   0.214409  -0.013513   0.314404  -0.041048  -0.086543
     5  C   -0.016766  -0.022472   0.304969   0.021554  -0.061060  -0.039115
     6  H   -0.001382   0.000002  -0.002159  -0.000533  -0.000025   0.000004
     7  H    0.278657   0.000004   0.000029  -0.022583  -0.001254   0.019868
     8  H    0.000004   0.317275   0.000096  -0.026340   0.024923  -0.001100
     9  H    0.000029   0.000096   0.321317   0.000343   0.000006   0.000006
    10  N   -0.022583  -0.026340   0.000343   7.354832   0.158084   0.184678
    11  O   -0.001254   0.024923   0.000006   0.158084   7.908929   0.001019
    12  O    0.019868  -0.001100   0.000006   0.184678   0.001019   7.796837
    13  C    0.012493   0.067973   0.006899  -0.175733   0.333346   0.032960
    14  H   -0.000021  -0.004868  -0.005289  -0.000163  -0.000204  -0.000079
    15  Br  -0.000023   0.003780   0.003301   0.008791  -0.000300   0.002070
              13         14         15
     1  C    1.316632  -0.014219   0.032785
     2  C   -1.536534   0.010202   0.023899
     3  C    0.707397  -0.006069  -0.000601
     4  C   -3.406304  -0.008383   0.017978
     5  C   -1.545106  -0.013845   0.023306
     6  H   -0.005365  -0.000034  -0.000363
     7  H    0.012493  -0.000021  -0.000023
     8  H    0.067973  -0.004868   0.003780
     9  H    0.006899  -0.005289   0.003301
    10  N   -0.175733  -0.000163   0.008791
    11  O    0.333346  -0.000204  -0.000300
    12  O    0.032960  -0.000079   0.002070
    13  C   10.252652   0.342451   0.056171
    14  H    0.342451   0.365293  -0.048907
    15  Br   0.056171  -0.048907  34.754133
 Mulliken charges:
               1
     1  C   -0.561698
     2  C    0.480764
     3  C   -0.677545
     4  C    0.268570
     5  C    0.026100
     6  H    0.365137
     7  H    0.393723
     8  H    0.347565
     9  H    0.353101
    10  N   -0.108456
    11  O   -0.007803
    12  O    0.072361
    13  C   -0.459933
    14  H    0.384135
    15  Br   0.123980
 Sum of Mulliken charges =   1.00000
 Mulliken charges with hydrogens summed into heavy atoms:
               1
     1  C   -0.196561
     2  C    0.874486
     3  C   -0.677545
     4  C    0.616134
     5  C    0.379201
    10  N   -0.108456
    11  O   -0.007803
    12  O    0.072361
    13  C   -0.075797
    15  Br   0.123980
 Electronic spatial extent (au):  <R**2>=           2799.3300
 Charge=              1.0000 electrons
 Dipole moment (field-independent basis, Debye):
    X=             -0.5620    Y=              1.6252    Z=              0.2664  Tot=              1.7402
 Quadrupole moment (field-independent basis, Debye-Ang):
   XX=            -70.8136   YY=            -53.0542   ZZ=            -63.2735
   XY=              3.7734   XZ=              0.8637   YZ=              0.6494
 Traceless Quadrupole moment (field-independent basis, Debye-Ang):
   XX=             -8.4332   YY=              9.3262   ZZ=             -0.8930
   XY=              3.7734   XZ=              0.8637   YZ=              0.6494
 Octapole moment (field-independent basis, Debye-Ang**2):
  XXX=           -296.9246  YYY=            100.9032  ZZZ=             79.2006  XYY=            -74.6022
  XXY=             41.8867  XXZ=             32.5121  XZZ=            -77.4927  YZZ=             19.7991
  YYZ=             28.4146  XYZ=             -2.8967
 Hexadecapole moment (field-independent basis, Debye-Ang**3):
 XXXX=          -2269.6617 YYYY=           -689.5883 ZZZZ=           -352.6655 XXXY=            -27.3508
 XXXZ=            -22.5460 YYYX=            -52.0408 YYYZ=           -164.5207 ZZZX=            -19.5535
 ZZZY=           -141.3236 XXYY=           -455.8284 XXZZ=           -370.8812 YYZZ=           -169.9702
 XXYZ=            -56.3933 YYXZ=             -3.9539 ZZXY=             -8.2863
 N-N= 7.400796669545D+02 E-N=-8.633291756382D+03  KE= 3.005864391631D+03
 No NMR shielding tensors so no spin-rotation constants.
 Leave Link  601 at Wed May  1 15:04:43 2024, MaxMem=  1207959552 cpu:               7.3 elap:               7.3
 (Enter /software/gaussian/g16-c01/sse4/g16/l9999.exe)
 Unable to Open any file for archive entry.
 1\1\GINC-BHX0015\SP\RwB97XD\6-311+G(d)\C6H5Br1N1O2(1+)\BWEIGHT\01-May-
 2024\0\\#P wB97XD/6-311+G* NoSymm #P Field=Y-77\\TitleMe\\1,1\C,0,0.02
 95,1.3397,0.0682\C,0,1.4348,1.2867,0.0064\C,0,2.1118,0.0511,-0.0054\C,
 0,1.4451,-1.1372,0.0312\C,0,-0.6879,0.1682,0.11\H,0,-0.4713,2.2984,0.0
 781\H,0,2.0273,2.1965,-0.0322\H,0,1.9897,-2.0764,0.0232\H,0,-1.7716,0.
 1804,0.1582\N,0,3.5864,0.051,-0.0675\O,0,4.1471,-1.0597,-0.0881\O,0,4.
 145,1.1639,-0.0901\C,0,-0.0236,-1.1458,0.0835\H,0,-0.4367,-1.8725,0.78
 89\Br,0,-0.5359,-1.8697,-1.7408\\Version=ES64L-G16RevC.01\HF=-3010.536
 9166\RMSD=8.742e-09\Dipole=-2.1276572,1.7874819,1.250999\Quadrupole=-6
 .2698745,6.9338341,-0.6639596,2.8054448,0.6421068,0.4828392\PG=C01 [X(
 C6H5Br1N1O2)]\\@
 The archive entry for this job was punched.


 Spring appears, and we are once more children.
                                  -- Anonymous
 Job cpu time:       0 days  0 hours 17 minutes 49.4 seconds.
 Elapsed time:       0 days  0 hours 17 minutes 49.6 seconds.
 File lengths (MBytes):  RWF=     40 Int=      0 D2E=      0 Chk=     32 Scr=      1
 Normal termination of Gaussian 16 at Wed May  1 15:04:44 2024.
