 Entering Gaussian System, Link 0=g16
 Initial command:
 /software/gaussian/g16-a03/l1.exe "/local_scratch/6485012/Gau-30894.inp" -scrdir="/local_scratch/6485012/"
 Entering Link 1 = /software/gaussian/g16-a03/l1.exe PID=     30965.
  
 Copyright (c) 1988,1990,1992,1993,1995,1998,2003,2009,2016,
            Gaussian, Inc.  All Rights Reserved.
  
 This is part of the Gaussian(R) 16 program.  It is based on
 the Gaussian(R) 09 system (copyright 2009, Gaussian, Inc.),
 the Gaussian(R) 03 system (copyright 2003, Gaussian, Inc.),
 the Gaussian(R) 98 system (copyright 1998, Gaussian, Inc.),
 the Gaussian(R) 94 system (copyright 1995, Gaussian, Inc.),
 the Gaussian 92(TM) system (copyright 1992, Gaussian, Inc.),
 the Gaussian 90(TM) system (copyright 1990, Gaussian, Inc.),
 the Gaussian 88(TM) system (copyright 1988, Gaussian, Inc.),
 the Gaussian 86(TM) system (copyright 1986, Carnegie Mellon
 University), and the Gaussian 82(TM) system (copyright 1983,
 Carnegie Mellon University). Gaussian is a federally registered
 trademark of Gaussian, Inc.
  
 This software contains proprietary and confidential information,
 including trade secrets, belonging to Gaussian, Inc.
  
 This software is provided under written license and may be
 used, copied, transmitted, or stored only in accord with that
 written license.
  
 The following legend is applicable only to US Government
 contracts under FAR:
  
                    RESTRICTED RIGHTS LEGEND
  
 Use, reproduction and disclosure by the US Government is
 subject to restrictions as set forth in subparagraphs (a)
 and (c) of the Commercial Computer Software - Restricted
 Rights clause in FAR 52.227-19.
  
 Gaussian, Inc.
 340 Quinnipiac St., Bldg. 40, Wallingford CT 06492
  
  
 ---------------------------------------------------------------
 Warning -- This program may not be used in any manner that
 competes with the business of Gaussian, Inc. or will provide
 assistance to any competitor of Gaussian, Inc.  The licensee
 of this program is prohibited from giving any competitor of
 Gaussian, Inc. access to this program.  By using this program,
 the user acknowledges that Gaussian, Inc. is engaged in the
 business of creating and licensing software in the field of
 computational chemistry and represents and warrants to the
 licensee that it is not a competitor of Gaussian, Inc. and that
 it will not use this program in any manner prohibited above.
 ---------------------------------------------------------------
  

 Cite this work as:
 Gaussian 16, Revision A.03,
 M. J. Frisch, G. W. Trucks, H. B. Schlegel, G. E. Scuseria, 
 M. A. Robb, J. R. Cheeseman, G. Scalmani, V. Barone, 
 G. A. Petersson, H. Nakatsuji, X. Li, M. Caricato, A. V. Marenich, 
 J. Bloino, B. G. Janesko, R. Gomperts, B. Mennucci, H. P. Hratchian, 
 J. V. Ortiz, A. F. Izmaylov, J. L. Sonnenberg, D. Williams-Young, 
 F. Ding, F. Lipparini, F. Egidi, J. Goings, B. Peng, A. Petrone, 
 T. Henderson, D. Ranasinghe, V. G. Zakrzewski, J. Gao, N. Rega, 
 G. Zheng, W. Liang, M. Hada, M. Ehara, K. Toyota, R. Fukuda, 
 J. Hasegawa, M. Ishida, T. Nakajima, Y. Honda, O. Kitao, H. Nakai, 
 T. Vreven, K. Throssell, J. A. Montgomery, Jr., J. E. Peralta, 
 F. Ogliaro, M. J. Bearpark, J. J. Heyd, E. N. Brothers, K. N. Kudin, 
 V. N. Staroverov, T. A. Keith, R. Kobayashi, J. Normand, 
 K. Raghavachari, A. P. Rendell, J. C. Burant, S. S. Iyengar, 
 J. Tomasi, M. Cossi, J. M. Millam, M. Klene, C. Adamo, R. Cammi, 
 J. W. Ochterski, R. L. Martin, K. Morokuma, O. Farkas, 
 J. B. Foresman, and D. J. Fox, Gaussian, Inc., Wallingford CT, 2016.
 
 ******************************************
 Gaussian 16:  ES64L-G16RevA.03 25-Dec-2016
                17-Sep-2021 
 ******************************************
 %chk=geometry.chk
 %mem=2GB
 %nprocshared=1
 Will use up to    1 processors via shared memory.
 --------------------------------------------------------------------
 #p B3LYP/6-311+G** #p TD=(singlets,nstates=30)IOp(6/8=3) IOp(9/40=4)
 --------------------------------------------------------------------
 1/38=1,172=1/1;
 2/12=2,17=6,18=5,40=1/2;
 3/5=4,6=6,7=111,11=9,25=1,30=1,74=-5/1,2,3,8;
 4//1;
 5/5=2,38=5/2;
 8/6=1,10=2,108=30/1;
 9/40=4,41=30,42=1,48=1,70=2/14;
 6/7=2,8=3,9=2,10=2/1;
 99/5=1,9=1/99;
 Leave Link    1 at Fri Sep 17 10:52:47 2021, MaxMem=   268435456 cpu:               0.0 elap:               0.1
 (Enter /software/gaussian/g16-a03/l101.exe)
 --------------------------------
 Scan Step 281, Bond Length 1.905
 --------------------------------
 Symbolic Z-matrix:
 Charge =  0 Multiplicity = 1
 C                     0.        0.       -0.52736 
 H                     0.        0.93726  -1.11871 
 H                     0.       -0.93726  -1.11871 
 O                     0.        0.        1.37764 
 
 ITRead=  0  0  0  0
 MicOpt= -1 -1 -1 -1
 NAtoms=      4 NQM=        4 NQMF=       0 NMMI=      0 NMMIF=      0
                NMic=       0 NMicF=      0.
                    Isotopes and Nuclear Properties:
 (Nuclear quadrupole moments (NQMom) in fm**2, nuclear magnetic moments (NMagM)
  in nuclear magnetons)

  Atom         1           2           3           4
 IAtWgt=          12           1           1          16
 AtmWgt=  12.0000000   1.0078250   1.0078250  15.9949146
 NucSpn=           0           1           1           0
 AtZEff=  -0.0000000  -0.0000000  -0.0000000  -0.0000000
 NQMom=    0.0000000   0.0000000   0.0000000   0.0000000
 NMagM=    0.0000000   2.7928460   2.7928460   0.0000000
 AtZNuc=   6.0000000   1.0000000   1.0000000   8.0000000
 Leave Link  101 at Fri Sep 17 10:52:47 2021, MaxMem=   268435456 cpu:               0.1 elap:               0.1
 (Enter /software/gaussian/g16-a03/l202.exe)
                          Input orientation:                          
 ---------------------------------------------------------------------
 Center     Atomic      Atomic             Coordinates (Angstroms)
 Number     Number       Type             X           Y           Z
 ---------------------------------------------------------------------
      1          6           0        0.000000    0.000000   -0.527360
      2          1           0        0.000000    0.937260   -1.118710
      3          1           0        0.000000   -0.937260   -1.118710
      4          8           0        0.000000    0.000000    1.377640
 ---------------------------------------------------------------------
                    Distance matrix (angstroms):
                    1          2          3          4
     1  C    0.000000
     2  H    1.108220   0.000000
     3  H    1.108220   1.874520   0.000000
     4  O    1.905000   2.666500   2.666500   0.000000
 Stoichiometry    CH2O
 Framework group  C2V[C2(CO),SGV(H2)]
 Deg. of freedom     3
 Full point group                 C2V     NOp   4
 Largest Abelian subgroup         C2V     NOp   4
 Largest concise Abelian subgroup C2      NOp   2
                         Standard orientation:                         
 ---------------------------------------------------------------------
 Center     Atomic      Atomic             Coordinates (Angstroms)
 Number     Number       Type             X           Y           Z
 ---------------------------------------------------------------------
      1          6           0        0.000000    0.000000   -0.878581
      2          1           0        0.000000    0.937260   -1.469931
      3          1           0       -0.000000   -0.937260   -1.469931
      4          8           0        0.000000    0.000000    1.026419
 ---------------------------------------------------------------------
 Rotational constants (GHZ):         285.4183527          16.7417262          15.8141205
 Leave Link  202 at Fri Sep 17 10:52:47 2021, MaxMem=   268435456 cpu:               0.0 elap:               0.0
 (Enter /software/gaussian/g16-a03/l301.exe)
 Standard basis: 6-311+G(d,p) (5D, 7F)
 Ernie: Thresh=  0.10000D-02 Tol=  0.10000D-05 Strict=F.
 There are    29 symmetry adapted cartesian basis functions of A1  symmetry.
 There are     3 symmetry adapted cartesian basis functions of A2  symmetry.
 There are    11 symmetry adapted cartesian basis functions of B1  symmetry.
 There are    15 symmetry adapted cartesian basis functions of B2  symmetry.
 There are    27 symmetry adapted basis functions of A1  symmetry.
 There are     3 symmetry adapted basis functions of A2  symmetry.
 There are    11 symmetry adapted basis functions of B1  symmetry.
 There are    15 symmetry adapted basis functions of B2  symmetry.
    56 basis functions,    88 primitive gaussians,    58 cartesian basis functions
     8 alpha electrons        8 beta electrons
       nuclear repulsion energy        22.5211858556 Hartrees.
 IExCor=  402 DFT=T Ex+Corr=B3LYP ExCW=0 ScaHFX=  0.200000
 ScaDFX=  0.800000  0.720000  1.000000  0.810000 ScalE2=  1.000000  1.000000
 IRadAn=      5 IRanWt=     -1 IRanGd=            0 ICorTp=0 IEmpDi=  4
 NAtoms=    4 NActive=    4 NUniq=    3 SFac= 1.78D+00 NAtFMM=   60 NAOKFM=F Big=F
 Integral buffers will be    131072 words long.
 Regular integral format.
 Two-electron integral symmetry is turned on.
 Leave Link  301 at Fri Sep 17 10:52:47 2021, MaxMem=   268435456 cpu:               0.1 elap:               0.1
 (Enter /software/gaussian/g16-a03/l302.exe)
 NPDir=0 NMtPBC=     1 NCelOv=     1 NCel=       1 NClECP=     1 NCelD=      1
         NCelK=      1 NCelE2=     1 NClLst=     1 CellRange=     0.0.
 One-electron integrals computed using PRISM.
 One-electron integral symmetry used in STVInt
 NBasis=    56 RedAO= T EigKep=  1.41D-02  NBF=    27     3    11    15
 NBsUse=    56 1.00D-06 EigRej= -1.00D+00 NBFU=    27     3    11    15
 Precomputing XC quadrature grid using
 IXCGrd= 4 IRadAn=           5 IRanWt=          -1 IRanGd=           0 AccXCQ= 0.00D+00.
 Generated NRdTot=       0 NPtTot=           0 NUsed=           0 NTot=          32
 NSgBfM=    58    58    58    58    58 MxSgAt=     4 MxSgA2=     4.
 Leave Link  302 at Fri Sep 17 10:52:47 2021, MaxMem=   268435456 cpu:               0.1 elap:               0.1
 (Enter /software/gaussian/g16-a03/l303.exe)
 DipDrv:  MaxL=1.
 Leave Link  303 at Fri Sep 17 10:52:47 2021, MaxMem=   268435456 cpu:               0.0 elap:               0.0
 (Enter /software/gaussian/g16-a03/l308.exe)
 Leave Link  308 at Fri Sep 17 10:52:47 2021, MaxMem=   268435456 cpu:               0.0 elap:               0.0
 (Enter /software/gaussian/g16-a03/l401.exe)
 ExpMin= 4.38D-02 ExpMax= 8.59D+03 ExpMxC= 1.30D+03 IAcc=3 IRadAn=         5 AccDes= 0.00D+00
 Harris functional with IExCor=  402 and IRadAn=       5 diagonalized for initial guess.
 HarFok:  IExCor=  402 AccDes= 0.00D+00 IRadAn=         5 IDoV= 1 UseB2=F ITyADJ=14
 ICtDFT=  3500011 ScaDFX=  1.000000  1.000000  1.000000  1.000000
 FoFCou: FMM=F IPFlag=           0 FMFlag=      100000 FMFlg1=           0
         NFxFlg=           0 DoJE=T BraDBF=F KetDBF=T FulRan=T
         wScrn=  0.000000 ICntrl=       500 IOpCl=  0 I1Cent=   200000004 NGrid=           0
         NMat0=    1 NMatS0=      1 NMatT0=    0 NMatD0=    1 NMtDS0=    0 NMtDT0=    0
 Petite list used in FoFCou.
 Harris En= -114.365823221877    
 JPrj=0 DoOrth=F DoCkMO=F.
 Initial guess orbital symmetries:
       Occupied  (A1) (A1) (A1) (A1) (B2) (A1) (B1) (B2)
       Virtual   (B1) (A1) (A1) (B2) (A1) (B1) (A1) (B2) (A1) (B1)
                 (B2) (A1) (B2) (A1) (B1) (A1) (B2) (A1) (B1) (A2)
                 (B2) (A1) (A1) (B1) (B2) (A1) (A1) (B2) (B1) (A2)
                 (A1) (B2) (A1) (B2) (A1) (B1) (A1) (A2) (A1) (B1)
                 (B2) (A1) (B2) (B1) (B2) (A1) (A1) (A1)
 The electronic state of the initial guess is 1-A1.
 Leave Link  401 at Fri Sep 17 10:52:47 2021, MaxMem=   268435456 cpu:               0.3 elap:               0.3
 (Enter /software/gaussian/g16-a03/l502.exe)
 Keep R1 ints in memory in symmetry-blocked form, NReq=2159901.
 FoFCou: FMM=F IPFlag=           0 FMFlag=           0 FMFlg1=           0
         NFxFlg=           0 DoJE=F BraDBF=F KetDBF=F FulRan=T
         wScrn=  0.000000 ICntrl=       600 IOpCl=  0 I1Cent=           0 NGrid=           0
         NMat0=    1 NMatS0=   1596 NMatT0=    0 NMatD0=    1 NMtDS0=    0 NMtDT0=    0
 Petite list used in FoFCou.
 Closed shell SCF:
 Using DIIS extrapolation, IDIIS=  1040.
 NGot=   268435456 LenX=   268074392 LenY=   268070587
 Requested convergence on RMS density matrix=1.00D-08 within 128 cycles.
 Requested convergence on MAX density matrix=1.00D-06.
 Requested convergence on             energy=1.00D-06.
 No special actions if energy rises.

 Cycle   1  Pass 1  IDiag  1:
 E= -114.137322701926    
 DIIS: error= 7.56D-02 at cycle   1 NSaved=   1.
 NSaved= 1 IEnMin= 1 EnMin= -114.137322701926     IErMin= 1 ErrMin= 7.56D-02
 ErrMax= 7.56D-02  0.00D+00 EMaxC= 1.00D-01 BMatC= 1.83D-01 BMatP= 1.83D-01
 IDIUse=3 WtCom= 2.44D-01 WtEn= 7.56D-01
 Coeff-Com:  0.100D+01
 Coeff-En:   0.100D+01
 Coeff:      0.100D+01
 Gap=     0.024 Goal=   None    Shift=    0.000
 GapD=    0.024 DampG=0.250 DampE=0.500 DampFc=0.2500 IDamp=-1.
 Damping current iteration by 2.50D-01
 RMSDP=4.05D-02 MaxDP=7.38D-01              OVMax= 9.53D-01

 Cycle   2  Pass 1  IDiag  1:
 E= -114.009130635272     Delta-E=        0.128192066654 Rises=F Damp=T
 DIIS: error= 3.76D-02 at cycle   2 NSaved=   2.
 NSaved= 2 IEnMin= 1 EnMin= -114.137322701926     IErMin= 2 ErrMin= 3.76D-02
 ErrMax= 3.76D-02  0.00D+00 EMaxC= 1.00D-01 BMatC= 4.98D-02 BMatP= 1.83D-01
 IDIUse=3 WtCom= 6.24D-01 WtEn= 3.76D-01
 Coeff-Com:  0.325D+00 0.675D+00
 Coeff-En:   0.646D+00 0.354D+00
 Coeff:      0.445D+00 0.555D+00
 Gap=     0.054 Goal=   None    Shift=    0.000
 RMSDP=9.80D-03 MaxDP=1.67D-01 DE= 1.28D-01 OVMax= 4.17D-01

 Cycle   3  Pass 1  IDiag  1:
 E= -114.293382596867     Delta-E=       -0.284251961595 Rises=F Damp=F
 DIIS: error= 3.93D-02 at cycle   3 NSaved=   3.
 NSaved= 3 IEnMin= 3 EnMin= -114.293382596867     IErMin= 2 ErrMin= 3.76D-02
 ErrMax= 3.93D-02  0.00D+00 EMaxC= 1.00D-01 BMatC= 3.88D-02 BMatP= 4.98D-02
 IDIUse=3 WtCom= 6.07D-01 WtEn= 3.93D-01
 Coeff-Com:  0.309D+00 0.481D-01 0.643D+00
 Coeff-En:   0.238D+00 0.000D+00 0.762D+00
 Coeff:      0.281D+00 0.292D-01 0.690D+00
 Gap=     0.105 Goal=   None    Shift=    0.000
 RMSDP=1.78D-03 MaxDP=2.04D-02 DE=-2.84D-01 OVMax= 8.18D-02

 Cycle   4  Pass 1  IDiag  1:
 E= -114.322028167136     Delta-E=       -0.028645570269 Rises=F Damp=F
 DIIS: error= 7.16D-03 at cycle   4 NSaved=   4.
 NSaved= 4 IEnMin= 4 EnMin= -114.322028167136     IErMin= 4 ErrMin= 7.16D-03
 ErrMax= 7.16D-03  0.00D+00 EMaxC= 1.00D-01 BMatC= 1.51D-03 BMatP= 3.88D-02
 IDIUse=3 WtCom= 9.28D-01 WtEn= 7.16D-02
 Coeff-Com:  0.479D-01 0.112D-01 0.220D+00 0.721D+00
 Coeff-En:   0.000D+00 0.000D+00 0.892D-01 0.911D+00
 Coeff:      0.445D-01 0.104D-01 0.210D+00 0.735D+00
 Gap=     0.103 Goal=   None    Shift=    0.000
 RMSDP=5.75D-04 MaxDP=1.10D-02 DE=-2.86D-02 OVMax= 3.24D-02

 Cycle   5  Pass 1  IDiag  1:
 E= -114.322634053650     Delta-E=       -0.000605886513 Rises=F Damp=F
 DIIS: error= 6.42D-03 at cycle   5 NSaved=   5.
 NSaved= 5 IEnMin= 5 EnMin= -114.322634053650     IErMin= 5 ErrMin= 6.42D-03
 ErrMax= 6.42D-03  0.00D+00 EMaxC= 1.00D-01 BMatC= 8.13D-04 BMatP= 1.51D-03
 IDIUse=3 WtCom= 9.36D-01 WtEn= 6.42D-02
 Coeff-Com:  0.808D-02-0.230D-01 0.228D-01 0.376D+00 0.616D+00
 Coeff-En:   0.000D+00 0.000D+00 0.000D+00 0.408D+00 0.592D+00
 Coeff:      0.756D-02-0.215D-01 0.213D-01 0.378D+00 0.615D+00
 Gap=     0.107 Goal=   None    Shift=    0.000
 RMSDP=1.84D-04 MaxDP=3.78D-03 DE=-6.06D-04 OVMax= 8.17D-03

 Cycle   6  Pass 1  IDiag  1:
 E= -114.323330187870     Delta-E=       -0.000696134220 Rises=F Damp=F
 DIIS: error= 2.46D-03 at cycle   6 NSaved=   6.
 NSaved= 6 IEnMin= 6 EnMin= -114.323330187870     IErMin= 6 ErrMin= 2.46D-03
 ErrMax= 2.46D-03  0.00D+00 EMaxC= 1.00D-01 BMatC= 1.06D-04 BMatP= 8.13D-04
 IDIUse=3 WtCom= 9.75D-01 WtEn= 2.46D-02
 Coeff-Com:  0.128D-01-0.108D-01-0.175D-01-0.615D-01-0.133D+00 0.121D+01
 Coeff-En:   0.000D+00 0.000D+00 0.000D+00 0.104D+00 0.000D+00 0.896D+00
 Coeff:      0.125D-01-0.106D-01-0.171D-01-0.574D-01-0.130D+00 0.120D+01
 Gap=     0.108 Goal=   None    Shift=    0.000
 RMSDP=4.01D-05 MaxDP=3.86D-04 DE=-6.96D-04 OVMax= 1.72D-03

 Cycle   7  Pass 1  IDiag  1:
 E= -114.323395780981     Delta-E=       -0.000065593110 Rises=F Damp=F
 DIIS: error= 1.45D-03 at cycle   7 NSaved=   7.
 NSaved= 7 IEnMin= 7 EnMin= -114.323395780981     IErMin= 7 ErrMin= 1.45D-03
 ErrMax= 1.45D-03  0.00D+00 EMaxC= 1.00D-01 BMatC= 3.48D-05 BMatP= 1.06D-04
 IDIUse=3 WtCom= 9.85D-01 WtEn= 1.45D-02
 Coeff-Com:  0.121D-02-0.148D-03-0.459D-03 0.319D-02-0.909D-01-0.730D+00
 Coeff-Com:  0.182D+01
 Coeff-En:   0.000D+00 0.000D+00 0.000D+00 0.412D-02 0.000D+00 0.000D+00
 Coeff-En:   0.996D+00
 Coeff:      0.119D-02-0.146D-03-0.452D-03 0.320D-02-0.895D-01-0.719D+00
 Coeff:      0.180D+01
 Gap=     0.108 Goal=   None    Shift=    0.000
 RMSDP=6.52D-05 MaxDP=8.75D-04 DE=-6.56D-05 OVMax= 4.37D-03

 Cycle   8  Pass 1  IDiag  1:
 E= -114.323427174615     Delta-E=       -0.000031393634 Rises=F Damp=F
 DIIS: error= 3.75D-04 at cycle   8 NSaved=   8.
 NSaved= 8 IEnMin= 8 EnMin= -114.323427174615     IErMin= 8 ErrMin= 3.75D-04
 ErrMax= 3.75D-04  0.00D+00 EMaxC= 1.00D-01 BMatC= 2.74D-06 BMatP= 3.48D-05
 IDIUse=3 WtCom= 9.96D-01 WtEn= 3.75D-03
 Coeff-Com: -0.595D-03 0.199D-03 0.147D-02 0.145D-01 0.126D-01-0.928D-01
 Coeff-Com:  0.305D+00 0.760D+00
 Coeff-En:   0.000D+00 0.000D+00 0.000D+00 0.000D+00 0.000D+00 0.000D+00
 Coeff-En:   0.169D+00 0.831D+00
 Coeff:     -0.593D-03 0.198D-03 0.146D-02 0.144D-01 0.125D-01-0.925D-01
 Coeff:      0.304D+00 0.760D+00
 Gap=     0.108 Goal=   None    Shift=    0.000
 RMSDP=1.19D-05 MaxDP=1.17D-04 DE=-3.14D-05 OVMax= 5.38D-04

 Cycle   9  Pass 1  IDiag  1:
 E= -114.323429507521     Delta-E=       -0.000002332906 Rises=F Damp=F
 DIIS: error= 1.21D-04 at cycle   9 NSaved=   9.
 NSaved= 9 IEnMin= 9 EnMin= -114.323429507521     IErMin= 9 ErrMin= 1.21D-04
 ErrMax= 1.21D-04  0.00D+00 EMaxC= 1.00D-01 BMatC= 2.91D-07 BMatP= 2.74D-06
 IDIUse=3 WtCom= 9.99D-01 WtEn= 1.21D-03
 Coeff-Com: -0.104D-03 0.666D-04-0.196D-04 0.117D-02 0.755D-02 0.698D-01
 Coeff-Com: -0.891D-01-0.122D+00 0.113D+01
 Coeff-En:   0.000D+00 0.000D+00 0.000D+00 0.000D+00 0.000D+00 0.000D+00
 Coeff-En:   0.132D-01 0.000D+00 0.987D+00
 Coeff:     -0.103D-03 0.665D-04-0.195D-04 0.116D-02 0.754D-02 0.698D-01
 Coeff:     -0.890D-01-0.121D+00 0.113D+01
 Gap=     0.108 Goal=   None    Shift=    0.000
 RMSDP=4.31D-06 MaxDP=5.05D-05 DE=-2.33D-06 OVMax= 2.25D-04

 Cycle  10  Pass 1  IDiag  1:
 E= -114.323429771032     Delta-E=       -0.000000263511 Rises=F Damp=F
 DIIS: error= 2.20D-05 at cycle  10 NSaved=  10.
 NSaved=10 IEnMin=10 EnMin= -114.323429771032     IErMin=10 ErrMin= 2.20D-05
 ErrMax= 2.20D-05  0.00D+00 EMaxC= 1.00D-01 BMatC= 8.92D-09 BMatP= 2.91D-07
 IDIUse=1 WtCom= 1.00D+00 WtEn= 0.00D+00
 Coeff-Com: -0.843D-05 0.283D-05 0.104D-04 0.109D-03-0.571D-03 0.120D-02
 Coeff-Com:  0.767D-02-0.107D-01-0.730D-01 0.108D+01
 Coeff:     -0.843D-05 0.283D-05 0.104D-04 0.109D-03-0.571D-03 0.120D-02
 Coeff:      0.767D-02-0.107D-01-0.730D-01 0.108D+01
 Gap=     0.108 Goal=   None    Shift=    0.000
 RMSDP=7.94D-07 MaxDP=8.25D-06 DE=-2.64D-07 OVMax= 3.72D-05

 Cycle  11  Pass 1  IDiag  1:
 E= -114.323429779384     Delta-E=       -0.000000008352 Rises=F Damp=F
 DIIS: error= 1.22D-06 at cycle  11 NSaved=  11.
 NSaved=11 IEnMin=11 EnMin= -114.323429779384     IErMin=11 ErrMin= 1.22D-06
 ErrMax= 1.22D-06  0.00D+00 EMaxC= 1.00D-01 BMatC= 2.82D-11 BMatP= 8.92D-09
 IDIUse=1 WtCom= 1.00D+00 WtEn= 0.00D+00
 Coeff-Com:  0.393D-06 0.923D-06-0.456D-05-0.169D-04-0.596D-04-0.496D-03
 Coeff-Com:  0.859D-03 0.902D-03-0.157D-01-0.362D-02 0.102D+01
 Coeff:      0.393D-06 0.923D-06-0.456D-05-0.169D-04-0.596D-04-0.496D-03
 Coeff:      0.859D-03 0.902D-03-0.157D-01-0.362D-02 0.102D+01
 Gap=     0.108 Goal=   None    Shift=    0.000
 RMSDP=4.26D-08 MaxDP=5.28D-07 DE=-8.35D-09 OVMax= 2.34D-06

 Cycle  12  Pass 1  IDiag  1:
 E= -114.323429779410     Delta-E=       -0.000000000026 Rises=F Damp=F
 DIIS: error= 2.10D-07 at cycle  12 NSaved=  12.
 NSaved=12 IEnMin=12 EnMin= -114.323429779410     IErMin=12 ErrMin= 2.10D-07
 ErrMax= 2.10D-07  0.00D+00 EMaxC= 1.00D-01 BMatC= 7.52D-13 BMatP= 2.82D-11
 IDIUse=1 WtCom= 1.00D+00 WtEn= 0.00D+00
 Coeff-Com:  0.309D-07 0.178D-07 0.389D-06 0.303D-05-0.171D-05-0.352D-04
 Coeff-Com:  0.130D-03 0.323D-03-0.111D-02-0.652D-02 0.296D-01 0.978D+00
 Coeff:      0.309D-07 0.178D-07 0.389D-06 0.303D-05-0.171D-05-0.352D-04
 Coeff:      0.130D-03 0.323D-03-0.111D-02-0.652D-02 0.296D-01 0.978D+00
 Gap=     0.108 Goal=   None    Shift=    0.000
 RMSDP=7.67D-09 MaxDP=1.09D-07 DE=-2.63D-11 OVMax= 5.08D-07

 SCF Done:  E(RB3LYP) =  -114.323429779     A.U. after   12 cycles
            NFock= 12  Conv=0.77D-08     -V/T= 2.0090
 KE= 1.133086844400D+02 PE=-3.134350638236D+02 EE= 6.328176374863D+01
 Leave Link  502 at Fri Sep 17 10:52:50 2021, MaxMem=   268435456 cpu:               2.1 elap:               2.4
 (Enter /software/gaussian/g16-a03/l801.exe)
 DoSCS=F DFT=T ScalE2(SS,OS)=  1.000000  1.000000
 ExpMin= 4.38D-02 ExpMax= 8.59D+03 ExpMxC= 1.30D+03 IAcc=3 IRadAn=         5 AccDes= 0.00D+00
 HarFok:  IExCor=  205 AccDes= 0.00D+00 IRadAn=         5 IDoV=-2 UseB2=F ITyADJ=14
 ICtDFT= 12500011 ScaDFX=  1.000000  1.000000  1.000000  1.000000
 Largest valence mixing into a core orbital is  5.43D-05
 Largest core mixing into a valence orbital is  1.28D-05
 Range of M.O.s used for correlation:     3    56
 NBasis=    56 NAE=     8 NBE=     8 NFC=     2 NFV=     0
 NROrb=     54 NOA=     6 NOB=     6 NVA=    48 NVB=    48
 Leave Link  801 at Fri Sep 17 10:52:50 2021, MaxMem=   268435456 cpu:               0.2 elap:               0.2
 (Enter /software/gaussian/g16-a03/l914.exe)
 RHF ground state
 Keep R1, R2, and R3 ints in memory in symmetry-blocked form, NReq=6042840.
 FoFCou: FMM=F IPFlag=           0 FMFlag=           0 FMFlg1=           0
         NFxFlg=           0 DoJE=F BraDBF=F KetDBF=F FulRan=T
         wScrn=  0.000000 ICntrl=       600 IOpCl=  0 I1Cent=           0 NGrid=           0
         NMat0=    1 NMatS0=   1596 NMatT0=    0 NMatD0=    1 NMtDS0=    0 NMtDT0=    0
 Petite list used in FoFCou.
 MDV=   268435456 DFT=T DoStab=F Mixed=T DoRPA=T DoScal=F NonHer=T
 Making orbital integer symmetry assigments:
 Orbital symmetries:
       Occupied  (A1) (A1) (A1) (A1) (B2) (A1) (B1) (B2)
       Virtual   (B1) (A1) (A1) (B2) (B1) (A1) (A1) (B2) (A1) (B1)
                 (B2) (A1) (A1) (B2) (B1) (A1) (B2) (A1) (A2) (B1)
                 (B2) (A1) (B1) (A1) (B2) (A1) (B2) (A1) (B1) (A2)
                 (A1) (B2) (A1) (B2) (A1) (B1) (A1) (B1) (A2) (A1)
                 (B2) (A1) (B2) (B1) (B2) (A1) (A1) (A1)
   120 initial guesses have been made.
 Convergence on wavefunction:    0.001000000000000
 Davidson Disk Diagonalization:  ConvIn= 1.00D-03 SkipCon=T Conv= 1.00D-03.
 Max sub-space:  1728 roots to seek:   120 dimension of matrix:          576
 Iteration     1 Dimension   120 NMult     0 NNew    120
 CISAX will form   120 AO SS matrices at one time.
 NMat=   120 NSing=   120 JSym2X=-1.
 New state      6 was old state      9
 New state      7 was old state      6
 New state      9 was old state     10
 New state     10 was old state     11
 New state     11 was old state     13
 New state     13 was old state      7
 New state     14 was old state     15
 New state     15 was old state     14
 New state     16 was old state     17
 New state     17 was old state     16
 New state     19 was old state     20
 New state     20 was old state     21
 New state     21 was old state     22
 New state     22 was old state     19
 New state     24 was old state     25
 New state     25 was old state     24
 New state     26 was old state     28
 New state     27 was old state     26
 New state     28 was old state     27
 New state     30 was old state     32
 Excitation Energies [eV] at current iteration:
 Root      1 :     1.143913479845856
 Root      2 :     3.000570675321461
 Root      3 :     3.126222687268795
 Root      4 :     3.379025494089980
 Root      5 :     3.911634093996265
 Root      6 :     6.789964719227483
 Root      7 :     6.838779029162596
 Root      8 :     7.178513237552646
 Root      9 :     7.978493806886493
 Root     10 :     8.317731608057443
 Root     11 :     8.430047624154701
 Root     12 :     8.549349865361332
 Root     13 :     8.759148394115323
 Root     14 :     8.840852790769716
 Root     15 :     8.976961110363073
 Root     16 :     9.479220807275338
 Root     17 :     9.502266031242012
 Root     18 :     9.962952653535730
 Root     19 :    10.268471381013830
 Root     20 :    10.457433027996310
 Root     21 :    10.481100273440380
 Root     22 :    10.690680009678770
 Root     23 :    11.009290738938160
 Root     24 :    11.428264381885770
 Root     25 :    11.640054106231910
 Root     26 :    11.957494315366750
 Root     27 :    11.968556895727480
 Root     28 :    12.204126164494420
 Root     29 :    12.426290868018800
 Root     30 :    12.753507938451350
 Root     31 :    12.809072747263670
 Root     32 :    13.420744802815090
 Root     33 :    13.673802869829760
 Root     34 :    13.956942149052350
 Root     35 :    14.023366031557040
 Root     36 :    14.102246346506740
 Root     37 :    14.362740518881730
 Root     38 :    14.756798223720020
 Root     39 :    14.780406819463510
 Root     40 :    15.279617161709030
 Root     41 :    15.400502269994330
 Root     42 :    15.583613058445230
 Root     43 :    15.620398943284960
 Root     44 :    15.986295385728970
 Root     45 :    16.919860931686110
 Root     46 :    17.311032327006270
 Root     47 :    17.321250919401440
 Root     48 :    17.549265839684170
 Root     49 :    17.592823686333780
 Root     50 :    17.654689837046330
 Root     51 :    17.786863693254960
 Root     52 :    18.171891355227660
 Root     53 :    18.732559822810450
 Root     54 :    18.772492350585240
 Root     55 :    19.155170930813400
 Root     56 :    19.611097159907450
 Root     57 :    19.806800100984360
 Root     58 :    20.026665443139740
 Root     59 :    20.215081155708260
 Root     60 :    20.266278732349380
 Root     61 :    20.281765954727310
 Root     62 :    20.682470142090360
 Root     63 :    20.892620330940090
 Root     64 :    21.131974080228500
 Root     65 :    21.368871138288490
 Root     66 :    21.609869645610720
 Root     67 :    21.979704405527070
 Root     68 :    22.015672234660930
 Root     69 :    22.235151510604630
 Root     70 :    22.286019196735280
 Root     71 :    22.460682510159390
 Root     72 :    23.207445924897530
 Root     73 :    23.220284554601770
 Root     74 :    23.745681732997670
 Root     75 :    23.775155188299850
 Root     76 :    24.084571289754880
 Root     77 :    24.283157075408370
 Root     78 :    24.300965358340580
 Root     79 :    24.384026113989870
 Root     80 :    24.858207691058300
 Root     81 :    24.867220007177320
 Root     82 :    25.107827404310570
 Root     83 :    25.172379009021120
 Root     84 :    25.228396157119090
 Root     85 :    25.438526428996230
 Root     86 :    26.248834216062620
 Root     87 :    26.560093780304460
 Root     88 :    26.624809405038030
 Root     89 :    26.768428784976840
 Root     90 :    27.552107922378820
 Root     91 :    27.999961227144070
 Root     92 :    28.638131260207620
 Root     93 :    28.855990397141810
 Root     94 :    29.262840254557350
 Root     95 :    29.463810245416750
 Root     96 :    29.492615533789970
 Root     97 :    30.532634081350870
 Root     98 :    31.169909185145450
 Root     99 :    31.596926329743430
 Root    100 :    32.820867968447390
 Root    101 :    33.093524383475970
 Root    102 :    33.245940694489530
 Root    103 :    33.565203760101330
 Root    104 :    33.576456082392790
 Root    105 :    33.614416270466290
 Root    106 :    33.820182177438550
 Root    107 :    33.846687339381650
 Root    108 :    34.466551927735130
 Root    109 :    35.054695658402960
 Root    110 :    35.087273192570120
 Root    111 :    35.108760113535120
 Root    112 :    35.884872898946620
 Root    113 :    36.461082878855340
 Root    114 :    36.532177487409990
 Root    115 :    37.396529672228180
 Root    116 :    37.421105972223770
 Root    117 :    38.185348880436410
 Root    118 :    38.359389938133520
 Root    119 :    39.729105663426330
 Root    120 :    42.701200758856230
 Iteration     2 Dimension   180 NMult   120 NNew     60
 CISAX will form    60 AO SS matrices at one time.
 NMat=    60 NSing=    60 JSym2X=-1.
 Root      1 not converged, maximum delta is    0.006659191215754
 Root      2 not converged, maximum delta is    0.009214999585951
 Root      3 not converged, maximum delta is    0.008064647540506
 Root      4 not converged, maximum delta is    0.007417022435026
 Root      5 not converged, maximum delta is    0.009060813283464
 Root      6 not converged, maximum delta is    0.011665579044518
 Root      7 not converged, maximum delta is    0.002354168486286
 Root      8 not converged, maximum delta is    0.002456369269059
 Root      9 not converged, maximum delta is    0.001702253164568
 Root     10 not converged, maximum delta is    0.001351964060923
 Root     11 not converged, maximum delta is    0.002959515486155
 Root     12 not converged, maximum delta is    0.001900739603791
 Root     13 not converged, maximum delta is    0.013858810052955
 Root     14 not converged, maximum delta is    0.002586458497709
 Root     15 not converged, maximum delta is    0.008198896217969
 Root     16 not converged, maximum delta is    0.009712630899471
 Root     17 not converged, maximum delta is    0.007060315162968
 Root     18 not converged, maximum delta is    0.003047596922248
 Root     19 not converged, maximum delta is    0.005452930841389
 Root     20 not converged, maximum delta is    0.004615414602339
 Root     21 not converged, maximum delta is    0.003744262970878
 Root     22 not converged, maximum delta is    0.010090877776524
 Root     23 not converged, maximum delta is    0.001728138670790
 Root     24 not converged, maximum delta is    0.004562240223216
 Root     25 not converged, maximum delta is    0.009351964861298
 Root     26 not converged, maximum delta is    0.007270505877627
 Root     27 not converged, maximum delta is    0.003116124459768
 Root     28 not converged, maximum delta is    0.005384885498993
 Root     29 not converged, maximum delta is    0.006940922070795
 Root     30 not converged, maximum delta is    0.009050142152522
 Excitation Energies [eV] at current iteration:
 Root      1 :     1.136856290866108   Change is   -0.007057188979748
 Root      2 :     2.982332040522192   Change is   -0.018238634799269
 Root      3 :     3.104205840173709   Change is   -0.022016847095086
 Root      4 :     3.363695972214558   Change is   -0.015329521875423
 Root      5 :     3.892288876345549   Change is   -0.019345217650716
 Root      6 :     6.773597697379844   Change is   -0.016367021847639
 Root      7 :     6.837086425755971   Change is   -0.001692603406624
 Root      8 :     7.177570152913945   Change is   -0.000943084638700
 Root      9 :     7.977537091479518   Change is   -0.000956715406975
 Root     10 :     8.317265995408780   Change is   -0.000465612648662
 Root     11 :     8.428081387908074   Change is   -0.001966236246627
 Root     12 :     8.548974981927314   Change is   -0.000374883434019
 Root     13 :     8.740366704484885   Change is   -0.018781689630439
 Root     14 :     8.839616593743099   Change is   -0.001236197026617
 Root     15 :     8.973471099753775   Change is   -0.003490010609298
 Root     16 :     9.456860842809810   Change is   -0.022359964465528
 Root     17 :     9.493533748743674   Change is   -0.008732282498337
 Root     18 :     9.961869247053093   Change is   -0.001083406482637
 Root     19 :    10.265624381367480   Change is   -0.002846999646346
 Root     20 :    10.454265715191380   Change is   -0.003167312804922
 Root     21 :    10.478943984586080   Change is   -0.002156288854305
 Root     22 :    10.676499602491280   Change is   -0.014180407187485
 Root     23 :    11.008525247869390   Change is   -0.000765491068773
 Root     24 :    11.420187187933620   Change is   -0.008077193952157
 Root     25 :    11.617286853174890   Change is   -0.022767253057025
 Root     26 :    11.953227648302530   Change is   -0.004266667064220
 Root     27 :    11.964606154252950   Change is   -0.003950741474533
 Root     28 :    12.198695593085960   Change is   -0.005430571408466
 Root     29 :    12.418218904415850   Change is   -0.008071963602942
 Root     30 :    12.747356361559200   Change is   -0.006151576892151
 Iteration     3 Dimension   240 NMult   180 NNew     60
 CISAX will form    60 AO SS matrices at one time.
 NMat=    60 NSing=    60 JSym2X=-1.
 Root      1 has converged.
 Root      2 has converged.
 Root      3 has converged.
 Root      4 has converged.
 Root      5 has converged.
 Root      6 has converged.
 Root      7 has converged.
 Root      8 has converged.
 Root      9 has converged.
 Root     10 has converged.
 Root     11 has converged.
 Root     12 has converged.
 Root     13 has converged.
 Root     14 has converged.
 Root     15 has converged.
 Root     16 has converged.
 Root     17 has converged.
 Root     18 has converged.
 Root     19 has converged.
 Root     20 has converged.
 Root     21 has converged.
 Root     22 has converged.
 Root     23 has converged.
 Root     24 has converged.
 Root     25 has converged.
 Root     26 has converged.
 Root     27 has converged.
 Root     28 has converged.
 Root     29 has converged.
 Root     30 has converged.
 Excitation Energies [eV] at current iteration:
 Root      1 :     1.136855335707155   Change is   -0.000000955158953
 Root      2 :     2.982315801132343   Change is   -0.000016239389848
 Root      3 :     3.104200281084382   Change is   -0.000005559089327
 Root      4 :     3.363692910983684   Change is   -0.000003061230873
 Root      5 :     3.892283577074837   Change is   -0.000005299270712
 Root      6 :     6.773593351610744   Change is   -0.000004345769101
 Root      7 :     6.837085803086586   Change is   -0.000000622669385
 Root      8 :     7.177569880201479   Change is   -0.000000272712466
 Root      9 :     7.977535499137330   Change is   -0.000001592342188
 Root     10 :     8.317265798495962   Change is   -0.000000196912818
 Root     11 :     8.428080573486060   Change is   -0.000000814422015
 Root     12 :     8.548974902899175   Change is   -0.000000079028138
 Root     13 :     8.740339022315062   Change is   -0.000027682169822
 Root     14 :     8.839616143771297   Change is   -0.000000449971802
 Root     15 :     8.973463493528453   Change is   -0.000007606225323
 Root     16 :     9.456836334197328   Change is   -0.000024508612481
 Root     17 :     9.493519936614923   Change is   -0.000013812128752
 Root     18 :     9.961868323858148   Change is   -0.000000923194945
 Root     19 :    10.265621394375760   Change is   -0.000002986991721
 Root     20 :    10.454262066975390   Change is   -0.000003648215997
 Root     21 :    10.478941383043060   Change is   -0.000002601543014
 Root     22 :    10.676464759392380   Change is   -0.000034843098899
 Root     23 :    11.008524933098760   Change is   -0.000000314770632
 Root     24 :    11.420181965972030   Change is   -0.000005221961593
 Root     25 :    11.617239449545610   Change is   -0.000047403629276
 Root     26 :    11.953225861895410   Change is   -0.000001786407121
 Root     27 :    11.964602249092910   Change is   -0.000003905160032
 Root     28 :    12.198687436143000   Change is   -0.000008156942958
 Root     29 :    12.418197022690350   Change is   -0.000021881725502
 Root     30 :    12.747342797747190   Change is   -0.000013563812019
 Convergence achieved on expansion vectors.
 ***********************************************************************
 Excited states from <AA,BB:AA,BB> singles matrix:
 ***********************************************************************
 
 1PDM for each excited state written to RWF  633
 Ground to excited state transition densities written to RWF  633
 Ground to excited state transition electric dipole moments (Au):
       state          X           Y           Z        Dip. S.      Osc.
         1         0.0000     -0.0000      0.0000      0.0000      0.0000
         2        -0.0000     -0.0000      0.5663      0.3206      0.0234
         3         0.0000     -0.1465     -0.0000      0.0215      0.0016
         4        -0.0082     -0.0000     -0.0000      0.0001      0.0000
         5        -0.2502     -0.0000     -0.0000      0.0626      0.0060
         6        -0.0000      0.0000      0.0000      0.0000      0.0000
         7         0.0000     -0.1195      0.0000      0.0143      0.0024
         8        -0.5986     -0.0000      0.0000      0.3583      0.0630
         9        -0.0000      0.0000     -0.3855      0.1486      0.0290
        10         0.0000     -0.0000      0.0000      0.0000      0.0000
        11         0.0000     -0.4358     -0.0000      0.1899      0.0392
        12         0.0000      0.0000      0.0000      0.0000      0.0000
        13         0.0000      0.0000     -1.4756      2.1774      0.4663
        14        -0.4598      0.0000     -0.0000      0.2114      0.0458
        15         0.0000     -0.0000     -0.5411      0.2928      0.0644
        16        -0.0000      0.0725      0.0000      0.0053      0.0012
        17        -0.0000      0.0000     -0.5361      0.2874      0.0668
        18         0.0000     -0.2363     -0.0000      0.0558      0.0136
        19        -0.4504     -0.0000     -0.0000      0.2029      0.0510
        20         0.0000     -0.2279      0.0000      0.0519      0.0133
        21         0.0000      0.0000     -0.0000      0.0000      0.0000
        22         0.0000     -0.0000     -0.8140      0.6626      0.1733
        23        -0.0587      0.0000      0.0000      0.0034      0.0009
        24         0.0000     -0.1280      0.0000      0.0164      0.0046
        25         0.0000      0.0000      1.0880      1.1838      0.3369
        26        -0.0000      0.0000     -0.0000      0.0000      0.0000
        27         0.0569     -0.0000     -0.0000      0.0032      0.0009
        28        -0.0000     -0.6533      0.0000      0.4268      0.1275
        29        -0.0000      0.0000      0.4110      0.1690      0.0514
        30        -0.0000      0.0000     -0.4433      0.1966      0.0614
 Ground to excited state transition velocity dipole moments (Au):
       state          X           Y           Z        Dip. S.      Osc.
         1         0.0000      0.0000      0.0000      0.0000      0.0000
         2         0.0000     -0.0000     -0.0528      0.0028      0.0169
         3        -0.0000      0.0139      0.0000      0.0002      0.0011
         4        -0.0209      0.0000     -0.0000      0.0004      0.0023
         5         0.0395     -0.0000      0.0000      0.0016      0.0073
         6        -0.0000      0.0000     -0.0000      0.0000      0.0000
         7        -0.0000      0.0251     -0.0000      0.0006      0.0017
         8         0.1607      0.0000     -0.0000      0.0258      0.0653
         9         0.0000     -0.0000      0.1101      0.0121      0.0276
        10        -0.0000      0.0000      0.0000      0.0000      0.0000
        11         0.0000      0.1365      0.0000      0.0186      0.0401
        12        -0.0000      0.0000      0.0000      0.0000      0.0000
        13        -0.0000     -0.0000      0.4733      0.2240      0.4650
        14         0.1563     -0.0000      0.0000      0.0244      0.0501
        15        -0.0000      0.0000      0.1807      0.0327      0.0660
        16         0.0000     -0.0306     -0.0000      0.0009      0.0018
        17         0.0000     -0.0000      0.1935      0.0374      0.0715
        18        -0.0000      0.0918      0.0000      0.0084      0.0153
        19         0.1527      0.0000      0.0000      0.0233      0.0412
        20        -0.0000      0.0869     -0.0000      0.0075      0.0131
        21        -0.0000     -0.0000      0.0000      0.0000      0.0000
        22        -0.0000      0.0000      0.3203      0.1026      0.1743
        23         0.0173     -0.0000     -0.0000      0.0003      0.0005
        24         0.0000      0.0489     -0.0000      0.0024      0.0038
        25        -0.0000      0.0000     -0.4435      0.1967      0.3071
        26         0.0000      0.0000      0.0000      0.0000      0.0000
        27        -0.0146      0.0000      0.0000      0.0002      0.0003
        28         0.0000      0.2898     -0.0000      0.0840      0.1249
        29         0.0000     -0.0000     -0.1774      0.0315      0.0460
        30        -0.0000     -0.0000      0.1963      0.0385      0.0548
 Ground to excited state transition magnetic dipole moments (Au):
       state          X           Y           Z
         1         0.0000     -0.0000      0.9310
         2         0.0000      0.0000      0.0000
         3         0.6449     -0.0000     -0.0000
         4        -0.0000     -1.9986     -0.0000
         5         0.0000      0.2851      0.0000
         6         0.0000      0.0000     -1.1040
         7        -0.2863      0.0000     -0.0000
         8        -0.0000     -0.1382      0.0000
         9         0.0000      0.0000     -0.0000
        10         0.0000      0.0000      0.0237
        11        -0.5190     -0.0000      0.0000
        12         0.0000     -0.0000     -0.0016
        13        -0.0000     -0.0000      0.0000
        14        -0.0000      0.2439     -0.0000
        15         0.0000     -0.0000     -0.0000
        16         0.8121     -0.0000     -0.0000
        17        -0.0000      0.0000      0.0000
        18         0.1706      0.0000     -0.0000
        19        -0.0000      0.1647     -0.0000
        20         0.0777      0.0000     -0.0000
        21        -0.0000     -0.0000     -0.0778
        22         0.0000     -0.0000     -0.0000
        23        -0.0000      0.0621     -0.0000
        24        -0.0143     -0.0000     -0.0000
        25         0.0000     -0.0000     -0.0000
        26         0.0000     -0.0000     -0.0260
        27        -0.0000      0.1225     -0.0000
        28         0.7662     -0.0000      0.0000
        29        -0.0000      0.0000      0.0000
        30        -0.0000      0.0000      0.0000
 Ground to excited state transition velocity quadrupole moments (Au):
       state          XX          YY          ZZ          XY          XZ          YZ
         1        -0.0000      0.0000     -0.0000     -0.0228     -0.0000     -0.0000
         2         0.0391     -0.0073     -0.0254      0.0000      0.0000      0.0000
         3        -0.0000      0.0000     -0.0000      0.0000     -0.0000      0.0262
         4        -0.0000     -0.0000     -0.0000      0.0000     -0.0006     -0.0000
         5         0.0000     -0.0000      0.0000     -0.0000      0.1197     -0.0000
         6        -0.0000     -0.0000     -0.0000      0.1719      0.0000     -0.0000
         7        -0.0000     -0.0000     -0.0000      0.0000      0.0000      0.2104
         8         0.0000     -0.0000     -0.0000     -0.0000     -0.1904      0.0000
         9         0.0295      0.1272     -0.1957      0.0000      0.0000     -0.0000
        10        -0.0000      0.0000     -0.0000      0.2807     -0.0000     -0.0000
        11        -0.0000      0.0000      0.0000     -0.0000     -0.0000      0.2560
        12        -0.0000      0.0000     -0.0000      0.0765     -0.0000     -0.0000
        13        -0.3678     -0.0540     -0.0807     -0.0000     -0.0000     -0.0000
        14         0.0000     -0.0000     -0.0000      0.0000      0.3368      0.0000
        15         0.6873      0.0518     -0.3479      0.0000     -0.0000      0.0000
        16        -0.0000     -0.0000     -0.0000      0.0000      0.0000      0.3701
        17         0.3111      0.1907      0.6618     -0.0000      0.0000      0.0000
        18         0.0000      0.0000      0.0000     -0.0000      0.0000     -0.0159
        19        -0.0000     -0.0000      0.0000     -0.0000     -0.0675     -0.0000
        20         0.0000      0.0000     -0.0000     -0.0000     -0.0000     -0.3498
        21        -0.0000     -0.0000      0.0000     -0.2773     -0.0000      0.0000
        22        -0.1175     -0.4202     -0.0665      0.0000      0.0000     -0.0000
        23         0.0000      0.0000      0.0000     -0.0000     -0.1674      0.0000
        24         0.0000      0.0000     -0.0000      0.0000      0.0000      0.4774
        25        -0.2768      0.3912     -0.3058      0.0000     -0.0000     -0.0000
        26         0.0000     -0.0000     -0.0000      0.3707     -0.0000     -0.0000
        27         0.0000     -0.0000     -0.0000      0.0000      0.4132      0.0000
        28        -0.0000      0.0000      0.0000      0.0000     -0.0000     -0.8483
        29        -0.2149      0.0170      0.1525     -0.0000      0.0000      0.0000
        30        -0.3718      0.1839      0.2025     -0.0000      0.0000     -0.0000
 <0|del|b> * <b|rxdel|0> + <0|del|b> * <b|delr+rdel|0>
 Rotatory Strengths (R) in cgs (10**-40 erg-esu-cm/Gauss)
       state          XX          YY          ZZ    R(velocity)    E-M Angle
         1         0.0000      0.0000     -0.0000      0.0000       90.00
         2        -0.0000      0.0000     -0.0000     -0.0000       90.00
         3        -0.0000     -0.0000     -0.0000     -0.0000       90.00
         4        -0.0000      0.0000     -0.0000     -0.0000       90.00
         5        -0.0000      0.0000      0.0000      0.0000       90.00
         6         0.0000      0.0000     -0.0000      0.0000       90.00
         7         0.0000      0.0000      0.0000      0.0000       90.00
         8         0.0000     -0.0000     -0.0000     -0.0000       90.00
         9         0.0000     -0.0000      0.0000     -0.0000       90.00
        10         0.0000     -0.0000     -0.0000      0.0000       90.00
        11         0.0000     -0.0000     -0.0000     -0.0000       90.00
        12         0.0000     -0.0000     -0.0000     -0.0000       90.00
        13        -0.0000      0.0000      0.0000      0.0000       90.00
        14         0.0000     -0.0000     -0.0000     -0.0000       90.00
        15         0.0000     -0.0000     -0.0000     -0.0000       90.00
        16         0.0000      0.0000      0.0000      0.0000       90.00
        17        -0.0000      0.0000     -0.0000      0.0000       90.00
        18        -0.0000     -0.0000      0.0000      0.0000       90.00
        19         0.0000     -0.0000     -0.0000     -0.0000       90.00
        20         0.0000      0.0000     -0.0000     -0.0000       90.00
        21        -0.0000      0.0000      0.0000     -0.0000       90.00
        22         0.0000     -0.0000     -0.0000     -0.0000       90.00
        23        -0.0000      0.0000     -0.0000     -0.0000       90.00
        24        -0.0000      0.0000     -0.0000     -0.0000       90.00
        25         0.0000      0.0000     -0.0000      0.0000       90.00
        26         0.0000     -0.0000      0.0000     -0.0000       90.00
        27        -0.0000      0.0000      0.0000      0.0000       90.00
        28         0.0000     -0.0000     -0.0000     -0.0000       90.00
        29         0.0000     -0.0000     -0.0000     -0.0000       90.00
        30        -0.0000      0.0000     -0.0000      0.0000       90.00
 1/2[<0|r|b>*<b|rxdel|0> + (<0|rxdel|b>*<b|r|0>)*]
 Rotatory Strengths (R) in cgs (10**-40 erg-esu-cm/Gauss)
       state          XX          YY          ZZ     R(length)
         1        -0.0000     -0.0000     -0.0000     -0.0000
         2         0.0000      0.0000     -0.0000     -0.0000
         3        -0.0000     -0.0000     -0.0000     -0.0000
         4        -0.0000     -0.0000     -0.0000     -0.0000
         5         0.0000      0.0000      0.0000      0.0000
         6         0.0000     -0.0000      0.0000      0.0000
         7         0.0000      0.0000      0.0000      0.0000
         8        -0.0000     -0.0000     -0.0000     -0.0000
         9         0.0000     -0.0000     -0.0000     -0.0000
        10        -0.0000      0.0000     -0.0000     -0.0000
        11         0.0000     -0.0000      0.0000      0.0000
        12        -0.0000      0.0000      0.0000      0.0000
        13         0.0000      0.0000      0.0000      0.0000
        14        -0.0000     -0.0000     -0.0000     -0.0000
        15        -0.0000     -0.0000     -0.0000     -0.0000
        16         0.0000      0.0000      0.0000      0.0000
        17        -0.0000     -0.0000      0.0000      0.0000
        18        -0.0000      0.0000     -0.0000      0.0000
        19        -0.0000      0.0000     -0.0000     -0.0000
        20        -0.0000      0.0000      0.0000      0.0000
        21         0.0000      0.0000     -0.0000     -0.0000
        22        -0.0000     -0.0000     -0.0000     -0.0000
        23        -0.0000     -0.0000      0.0000     -0.0000
        24         0.0000     -0.0000      0.0000     -0.0000
        25        -0.0000      0.0000      0.0000      0.0000
        26         0.0000      0.0000     -0.0000     -0.0000
        27         0.0000      0.0000     -0.0000      0.0000
        28         0.0000     -0.0000     -0.0000     -0.0000
        29        -0.0000     -0.0000     -0.0000     -0.0000
        30        -0.0000     -0.0000      0.0000      0.0000
  1/2[<0|del|b>*<b|r|0> + (<0|r|b>*<b|del|0>)*] (Au)
       state          X           Y           Z        Dip. S.   Osc.(frdel)
         1         0.0000     -0.0000      0.0000      0.0000      0.0000
         2        -0.0000      0.0000     -0.0299      0.0299      0.0199
         3        -0.0000     -0.0020     -0.0000      0.0020      0.0014
         4         0.0002     -0.0000      0.0000     -0.0002     -0.0001
         5        -0.0099      0.0000     -0.0000      0.0099      0.0066
         6         0.0000      0.0000     -0.0000      0.0000      0.0000
         7        -0.0000     -0.0030     -0.0000      0.0030      0.0020
         8        -0.0962     -0.0000     -0.0000      0.0962      0.0641
         9        -0.0000     -0.0000     -0.0425      0.0425      0.0283
        10        -0.0000     -0.0000      0.0000     -0.0000     -0.0000
        11         0.0000     -0.0595     -0.0000      0.0595      0.0397
        12        -0.0000      0.0000      0.0000      0.0000      0.0000
        13        -0.0000     -0.0000     -0.6984      0.6984      0.4656
        14        -0.0719     -0.0000     -0.0000      0.0719      0.0479
        15        -0.0000     -0.0000     -0.0978      0.0978      0.0652
        16        -0.0000     -0.0022     -0.0000      0.0022      0.0015
        17        -0.0000     -0.0000     -0.1037      0.1037      0.0691
        18        -0.0000     -0.0217     -0.0000      0.0217      0.0145
        19        -0.0688     -0.0000     -0.0000      0.0688      0.0459
        20        -0.0000     -0.0198     -0.0000      0.0198      0.0132
        21        -0.0000     -0.0000     -0.0000      0.0000      0.0000
        22        -0.0000     -0.0000     -0.2607      0.2607      0.1738
        23        -0.0010     -0.0000     -0.0000      0.0010      0.0007
        24         0.0000     -0.0063     -0.0000      0.0063      0.0042
        25        -0.0000      0.0000     -0.4825      0.4825      0.3217
        26        -0.0000      0.0000     -0.0000      0.0000      0.0000
        27        -0.0008     -0.0000     -0.0000      0.0008      0.0006
        28        -0.0000     -0.1893     -0.0000      0.1893      0.1262
        29        -0.0000     -0.0000     -0.0729      0.0729      0.0486
        30         0.0000     -0.0000     -0.0870      0.0870      0.0580

 Excitation energies and oscillator strengths:
 
 Excited State   1:      Singlet-A2     1.1369 eV 1090.59 nm  f=0.0000  <S**2>=0.000
       3 -> 27         0.00062
       3 -> 38         0.00037
       3 -> 47         0.00330
       4 -> 27         0.00032
       4 -> 47        -0.00085
       5 ->  9         0.00061
       5 -> 13         0.00107
       5 -> 18         0.00144
       5 -> 23         0.00125
       5 -> 28         0.00106
       5 -> 37         0.00062
       5 -> 44         0.00018
       5 -> 52         0.00014
       6 -> 27        -0.00054
       6 -> 38        -0.00050
       6 -> 47         0.00084
       7 -> 12        -0.00139
       7 -> 16         0.00538
       7 -> 19        -0.00486
       7 -> 22        -0.00114
       7 -> 25        -0.00048
       7 -> 29        -0.00201
       7 -> 33         0.00026
       7 -> 49         0.00013
       7 -> 53         0.00036
       8 ->  9         0.71164
       8 -> 13        -0.00557
       8 -> 18         0.02047
       8 -> 23        -0.00052
       8 -> 28         0.00995
       8 -> 31         0.00160
       8 -> 37         0.00046
       8 -> 46        -0.00028
       8 -> 52         0.00181
       3 <- 27         0.00014
       3 <- 38         0.00016
       3 <- 47         0.00333
       4 <- 27         0.00061
       4 <- 38         0.00017
       4 <- 47        -0.00065
       5 <-  9         0.00053
       5 <- 13        -0.00029
       5 <- 18        -0.00031
       5 <- 23         0.00014
       5 <- 28        -0.00024
       5 <- 31         0.00020
       5 <- 37         0.00036
       6 <- 38        -0.00037
       6 <- 47         0.00060
       7 <- 12         0.00211
       7 <- 16        -0.01051
       7 <- 19         0.00604
       7 <- 22         0.00530
       7 <- 25        -0.00063
       7 <- 29         0.00565
       7 <- 33        -0.00034
       7 <- 49        -0.00047
       7 <- 53         0.00144
       8 <-  9        -0.08226
       8 <- 13        -0.00064
       8 <- 18        -0.00795
       8 <- 23        -0.00043
       8 <- 28        -0.00280
       8 <- 31        -0.00085
       8 <- 37        -0.00016
       8 <- 46         0.00013
       8 <- 52         0.00042
 This state for optimization and/or second-order correction.
 Total Energy, E(TD-HF/TD-DFT) =  -114.281651115    
 Copying the excited state density for this state as the 1-particle RhoCI density.
 
 Excited State   2:      Singlet-A1     2.9823 eV  415.73 nm  f=0.0234  <S**2>=0.000
       3 -> 10        -0.01254
       3 -> 11        -0.00225
       3 -> 14         0.00038
       3 -> 15         0.00013
       3 -> 17        -0.00291
       3 -> 20        -0.00325
       3 -> 21         0.00064
       3 -> 24         0.00018
       3 -> 26         0.00084
       3 -> 32         0.00265
       3 -> 34         0.00095
       3 -> 36        -0.00090
       3 -> 39        -0.00032
       3 -> 43         0.00046
       3 -> 45        -0.00120
       3 -> 48         0.00231
       3 -> 50         0.00164
       3 -> 54        -0.00013
       4 -> 10        -0.00038
       4 -> 11         0.00931
       4 -> 14         0.00141
       4 -> 15        -0.00710
       4 -> 17         0.00197
       4 -> 20         0.00159
       4 -> 21         0.00021
       4 -> 24        -0.00360
       4 -> 26         0.00281
       4 -> 30         0.00010
       4 -> 32        -0.00107
       4 -> 34        -0.00066
       4 -> 39        -0.00026
       4 -> 43        -0.00041
       4 -> 45         0.00075
       4 -> 48        -0.00068
       4 -> 50        -0.00023
       4 -> 54         0.00013
       5 -> 12         0.00816
       5 -> 16         0.00147
       5 -> 19         0.00101
       5 -> 22         0.00632
       5 -> 25        -0.00381
       5 -> 29         0.00033
       5 -> 33        -0.00226
       5 -> 35         0.00270
       5 -> 40        -0.00088
       5 -> 42        -0.00099
       5 -> 51        -0.00089
       6 -> 10         0.26146
       6 -> 11         0.02991
       6 -> 14        -0.03256
       6 -> 15        -0.01909
       6 -> 17        -0.01460
       6 -> 20        -0.00037
       6 -> 21         0.00406
       6 -> 24        -0.00675
       6 -> 26        -0.00248
       6 -> 30        -0.00250
       6 -> 32         0.00470
       6 -> 34         0.00136
       6 -> 36         0.00070
       6 -> 39        -0.00149
       6 -> 43         0.00078
       6 -> 45        -0.00095
       6 -> 48         0.00070
       6 -> 50         0.00046
       6 -> 54        -0.00099
       7 ->  9         0.67369
       7 -> 13        -0.00786
       7 -> 18        -0.00874
       7 -> 23        -0.00299
       7 -> 28         0.00165
       7 -> 31        -0.00329
       7 -> 37         0.00135
       7 -> 44        -0.00095
       7 -> 52         0.00105
       8 -> 12        -0.00708
       8 -> 16         0.03076
       8 -> 19        -0.01697
       8 -> 22        -0.01008
       8 -> 29        -0.00710
       8 -> 33         0.00080
       8 -> 35        -0.00047
       8 -> 40         0.00015
       8 -> 42         0.00018
       8 -> 51         0.00012
       8 -> 53        -0.00047
       3 <- 10        -0.01028
       3 <- 11        -0.00218
       3 <- 14         0.00030
       3 <- 15        -0.00031
       3 <- 17        -0.00172
       3 <- 20        -0.00293
       3 <- 21         0.00021
       3 <- 24        -0.00025
       3 <- 30         0.00028
       3 <- 32         0.00224
       3 <- 34         0.00048
       3 <- 36        -0.00095
       3 <- 39        -0.00026
       3 <- 43         0.00049
       3 <- 45        -0.00130
       3 <- 48         0.00231
       3 <- 50         0.00165
       4 <- 10         0.00088
       4 <- 11         0.00713
       4 <- 14         0.00125
       4 <- 15        -0.00507
       4 <- 17         0.00124
       4 <- 20         0.00218
       4 <- 24        -0.00282
       4 <- 26         0.00256
       4 <- 30        -0.00041
       4 <- 32        -0.00105
       4 <- 34        -0.00056
       4 <- 36         0.00027
       4 <- 39        -0.00031
       4 <- 43        -0.00037
       4 <- 45         0.00066
       4 <- 48        -0.00041
       4 <- 50        -0.00011
       4 <- 54         0.00011
       5 <- 12         0.00525
       5 <- 16         0.00107
       5 <- 19         0.00085
       5 <- 22         0.00472
       5 <- 25        -0.00307
       5 <- 29         0.00034
       5 <- 33        -0.00193
       5 <- 35         0.00237
       5 <- 40        -0.00082
       5 <- 42        -0.00089
       5 <- 51        -0.00085
       6 <- 10         0.09174
       6 <- 11         0.01338
       6 <- 14        -0.01679
       6 <- 15        -0.01083
       6 <- 17        -0.00929
       6 <- 20        -0.00156
       6 <- 21         0.00302
       6 <- 24        -0.00457
       6 <- 26        -0.00113
       6 <- 30        -0.00133
       6 <- 32         0.00440
       6 <- 34         0.00152
       6 <- 36         0.00021
       6 <- 39        -0.00133
       6 <- 43         0.00065
       6 <- 45        -0.00069
       6 <- 48         0.00039
       6 <- 50         0.00033
       6 <- 54        -0.00092
       7 <-  9        -0.13004
       7 <- 13         0.00242
       7 <- 18        -0.01056
       7 <- 23         0.00022
       7 <- 28        -0.00124
       7 <- 31        -0.00158
       7 <- 37         0.00066
       7 <- 44        -0.00084
       7 <- 46        -0.00045
       7 <- 52         0.00098
       8 <- 12        -0.00328
       8 <- 16         0.01673
       8 <- 19        -0.01050
       8 <- 22        -0.00701
       8 <- 25         0.00013
       8 <- 29        -0.00584
       8 <- 33         0.00065
       8 <- 35        -0.00036
       8 <- 40         0.00011
       8 <- 42         0.00014
       8 <- 49        -0.00014
       8 <- 51         0.00011
       8 <- 53        -0.00045
 
 Excited State   3:      Singlet-B2     3.1042 eV  399.41 nm  f=0.0016  <S**2>=0.000
       3 -> 12        -0.00109
       3 -> 16         0.00101
       3 -> 19        -0.00357
       3 -> 22         0.00111
       3 -> 25        -0.00088
       3 -> 29        -0.00233
       3 -> 33         0.00031
       3 -> 35         0.00117
       3 -> 40        -0.00113
       3 -> 42        -0.00039
       3 -> 49        -0.00400
       3 -> 51         0.00015
       3 -> 53         0.00024
       4 -> 12         0.00034
       4 -> 16        -0.00125
       4 -> 19         0.00031
       4 -> 22         0.00154
       4 -> 25         0.00049
       4 -> 29         0.00074
       4 -> 33        -0.00029
       4 -> 35         0.00040
       4 -> 40         0.00023
       4 -> 49         0.00073
       5 -> 10         0.00926
       5 -> 11         0.00097
       5 -> 14        -0.00253
       5 -> 15         0.00271
       5 -> 17        -0.00053
       5 -> 20         0.00186
       5 -> 21         0.00256
       5 -> 24         0.00130
       5 -> 26        -0.00033
       5 -> 30        -0.00209
       5 -> 32        -0.00083
       5 -> 34        -0.00015
       5 -> 39         0.00056
       5 -> 41         0.00036
       5 -> 48        -0.00031
       5 -> 50         0.00021
       5 -> 54        -0.00017
       6 -> 12         0.00239
       6 -> 16        -0.00285
       6 -> 19         0.00427
       6 -> 22        -0.00067
       6 -> 25         0.00115
       6 -> 29         0.00034
       6 -> 33        -0.00019
       6 -> 35        -0.00107
       6 -> 40         0.00066
       6 -> 42         0.00058
       6 -> 49         0.00105
       6 -> 53        -0.00045
       7 -> 27        -0.00047
       7 -> 38         0.00027
       7 -> 47         0.00278
       8 -> 10         0.70548
       8 -> 11         0.04703
       8 -> 14        -0.04478
       8 -> 15        -0.01891
       8 -> 17        -0.01646
       8 -> 20         0.00623
       8 -> 21         0.00514
       8 -> 24        -0.00526
       8 -> 26        -0.00393
       8 -> 30        -0.01351
       8 -> 32         0.00068
       8 -> 34        -0.00099
       8 -> 36         0.00170
       8 -> 39         0.00034
       8 -> 41        -0.00017
       8 -> 45        -0.00076
       8 -> 48        -0.00342
       8 -> 50         0.00121
       8 -> 54        -0.00249
       3 <- 12        -0.00038
       3 <- 16         0.00037
       3 <- 19        -0.00179
       3 <- 22         0.00089
       3 <- 25        -0.00079
       3 <- 29        -0.00096
       3 <- 33         0.00029
       3 <- 35         0.00074
       3 <- 40        -0.00098
       3 <- 42        -0.00023
       3 <- 49        -0.00405
       3 <- 51         0.00015
       3 <- 53         0.00067
       4 <- 12         0.00012
       4 <- 16        -0.00156
       4 <- 19         0.00019
       4 <- 22         0.00192
       4 <- 25         0.00024
       4 <- 29         0.00102
       4 <- 33        -0.00030
       4 <- 35         0.00057
       4 <- 49         0.00051
       5 <- 10        -0.00095
       5 <- 11        -0.00051
       5 <- 14        -0.00039
       5 <- 15         0.00219
       5 <- 17         0.00019
       5 <- 20         0.00076
       5 <- 21         0.00148
       5 <- 24         0.00144
       5 <- 30        -0.00046
       5 <- 32        -0.00023
       5 <- 39         0.00028
       5 <- 41         0.00038
       5 <- 45        -0.00019
       5 <- 48        -0.00033
       5 <- 50         0.00011
       6 <- 12        -0.00100
       6 <- 16         0.00813
       6 <- 19        -0.00461
       6 <- 22        -0.00521
       6 <- 25         0.00133
       6 <- 29        -0.00622
       6 <- 33         0.00016
       6 <- 35        -0.00086
       6 <- 40         0.00065
       6 <- 42         0.00056
       6 <- 49         0.00158
       6 <- 53        -0.00144
       7 <- 27        -0.00048
       7 <- 38         0.00022
       7 <- 47         0.00242
       8 <- 10        -0.05208
       8 <- 11        -0.00704
       8 <- 14         0.00697
       8 <- 15         0.00220
       8 <- 17         0.00248
       8 <- 20        -0.00350
       8 <- 21        -0.00108
       8 <- 24         0.00143
       8 <- 26         0.00099
       8 <- 30         0.00254
       8 <- 32         0.00232
       8 <- 34         0.00077
       8 <- 36        -0.00089
       8 <- 39        -0.00089
       8 <- 41         0.00016
       8 <- 43         0.00033
       8 <- 45        -0.00145
       8 <- 48        -0.00286
       8 <- 50         0.00110
       8 <- 54        -0.00066
 
 Excited State   4:      Singlet-B1     3.3637 eV  368.60 nm  f=0.0000  <S**2>=0.000
       3 ->  9        -0.02003
       3 -> 13         0.00063
       3 -> 18        -0.00357
       3 -> 23         0.00113
       3 -> 28        -0.00132
       3 -> 31        -0.00104
       3 -> 37         0.00018
       3 -> 44         0.00028
       3 -> 46        -0.00080
       3 -> 52         0.00056
       4 ->  9        -0.00079
       4 -> 13        -0.00010
       4 -> 18         0.00024
       4 -> 23        -0.00016
       4 -> 28         0.00066
       4 -> 31        -0.00093
       4 -> 37        -0.00012
       4 -> 52        -0.00018
       5 -> 27        -0.00150
       5 -> 38         0.00050
       5 -> 47         0.00036
       6 ->  9         0.54028
       6 -> 13        -0.01404
       6 -> 18         0.01246
       6 -> 23        -0.00858
       6 -> 28         0.00380
       6 -> 31         0.00092
       6 -> 37        -0.00061
       6 -> 44        -0.00116
       6 -> 46         0.00263
       6 -> 52         0.00054
       7 -> 10         0.46086
       7 -> 11         0.03231
       7 -> 14        -0.03195
       7 -> 15        -0.01421
       7 -> 17        -0.01219
       7 -> 20         0.00426
       7 -> 21         0.00246
       7 -> 24        -0.00526
       7 -> 26        -0.00417
       7 -> 30        -0.00726
       7 -> 32         0.00117
       7 -> 34        -0.00041
       7 -> 36         0.00108
       7 -> 41        -0.00014
       7 -> 43         0.00048
       7 -> 45        -0.00098
       7 -> 48         0.00319
       7 -> 50         0.00106
       7 -> 54        -0.00086
       8 -> 27         0.00013
       8 -> 47         0.00388
       3 <-  9        -0.00665
       3 <- 13        -0.00060
       3 <- 18        -0.00231
       3 <- 23        -0.00026
       3 <- 28        -0.00082
       3 <- 31        -0.00072
       3 <- 46        -0.00074
       3 <- 52         0.00066
       4 <-  9         0.00050
       4 <- 13         0.00039
       4 <- 18         0.00120
       4 <- 23         0.00015
       4 <- 28         0.00143
       4 <- 31        -0.00070
       4 <- 44        -0.00031
       4 <- 46        -0.00015
       5 <- 27        -0.00156
       5 <- 38         0.00048
       5 <- 47         0.00033
       6 <-  9        -0.05645
       6 <- 13         0.00233
       6 <- 18        -0.00632
       6 <- 23         0.00066
       6 <- 28        -0.00421
       6 <- 31        -0.00155
       6 <- 37        -0.00032
       6 <- 44         0.00013
       6 <- 46         0.00251
       6 <- 52        -0.00053
       7 <- 10        -0.06395
       7 <- 11        -0.00878
       7 <- 14         0.01185
       7 <- 15         0.00632
       7 <- 17         0.00366
       7 <- 20         0.00057
       7 <- 21        -0.00299
       7 <- 24         0.00317
       7 <- 26         0.00173
       7 <- 30         0.00237
       7 <- 34         0.00030
       7 <- 36         0.00025
       7 <- 39        -0.00048
       7 <- 41         0.00024
       7 <- 43         0.00026
       7 <- 45        -0.00068
       7 <- 48         0.00294
       7 <- 50         0.00127
       7 <- 54         0.00042
       8 <- 27         0.00047
       8 <- 47         0.00357
 
 Excited State   5:      Singlet-B1     3.8923 eV  318.54 nm  f=0.0060  <S**2>=0.000
       3 ->  9         0.00354
       3 -> 13        -0.00019
       3 -> 18        -0.00067
       3 -> 28        -0.00190
       3 -> 31        -0.00101
       3 -> 44        -0.00022
       3 -> 46        -0.00328
       3 -> 52        -0.00038
       4 ->  9        -0.02929
       4 -> 13         0.00591
       4 -> 18         0.00065
       4 -> 23         0.00470
       4 -> 28         0.00054
       4 -> 31         0.00072
       4 -> 37         0.00036
       4 -> 44        -0.00039
       4 -> 46         0.00094
       4 -> 52         0.00021
       5 -> 27        -0.00578
       5 -> 38        -0.00374
       6 ->  9        -0.45892
       6 -> 13         0.00791
       6 -> 18        -0.00352
       6 -> 23         0.00525
       6 -> 28         0.00168
       6 -> 31        -0.00433
       6 -> 37         0.00276
       6 -> 44         0.00127
       6 -> 46        -0.00150
       6 -> 52        -0.00104
       7 -> 10         0.53534
       7 -> 11         0.02920
       7 -> 14        -0.03009
       7 -> 15        -0.02118
       7 -> 17        -0.00556
       7 -> 20        -0.00218
       7 -> 21         0.00185
       7 -> 24        -0.00707
       7 -> 26        -0.00379
       7 -> 30        -0.00613
       7 -> 32        -0.00030
       7 -> 34        -0.00331
       7 -> 36        -0.00144
       7 -> 39         0.00062
       7 -> 43         0.00031
       7 -> 45        -0.00064
       7 -> 48        -0.00044
       7 -> 50        -0.00024
       7 -> 54        -0.00157
       8 -> 27         0.00046
       8 -> 38         0.00017
       8 -> 47        -0.00050
       3 <-  9         0.00142
       3 <- 13         0.00091
       3 <- 23         0.00068
       3 <- 28        -0.00141
       3 <- 31         0.00014
       3 <- 37        -0.00031
       3 <- 44        -0.00027
       3 <- 46        -0.00338
       4 <-  9        -0.01509
       4 <- 13         0.00296
       4 <- 18        -0.00021
       4 <- 23         0.00300
       4 <- 28         0.00037
       4 <- 31         0.00051
       4 <- 37         0.00034
       4 <- 44        -0.00050
       4 <- 46         0.00057
       4 <- 52         0.00015
       5 <- 27        -0.00422
       5 <- 38        -0.00317
       6 <-  9        -0.01620
       6 <- 13        -0.00104
       6 <- 18        -0.00177
       6 <- 23         0.00051
       6 <- 28         0.00108
       6 <- 31        -0.00470
       6 <- 37         0.00262
       6 <- 44         0.00095
       6 <- 46        -0.00078
       6 <- 52        -0.00122
       7 <- 10        -0.00118
       7 <- 11         0.00048
       7 <- 14        -0.00227
       7 <- 15        -0.00678
       7 <- 17        -0.00031
       7 <- 20        -0.00503
       7 <- 21        -0.00011
       7 <- 24        -0.00343
       7 <- 26        -0.00071
       7 <- 30        -0.00060
       7 <- 32         0.00114
       7 <- 34        -0.00215
       7 <- 36        -0.00242
       7 <- 39         0.00018
       7 <- 43         0.00038
       7 <- 45        -0.00070
       7 <- 48        -0.00057
       7 <- 50        -0.00051
       7 <- 54        -0.00107
       8 <- 47        -0.00075
 
 Excited State   6:      Singlet-A2     6.7736 eV  183.04 nm  f=0.0000  <S**2>=0.000
       3 -> 27        -0.00099
       3 -> 38        -0.00027
       3 -> 47         0.00012
       4 -> 27        -0.00602
       4 -> 38         0.00043
       4 -> 47        -0.00018
       5 ->  9         0.70636
       5 -> 13        -0.02541
       5 -> 18         0.00340
       5 -> 23        -0.01580
       5 -> 28         0.00141
       5 -> 31        -0.00230
       5 -> 37        -0.00565
       5 -> 44        -0.00213
       5 -> 46         0.00043
       6 -> 27        -0.00064
       6 -> 38         0.00247
       6 -> 47         0.00014
       7 -> 12         0.01323
       7 -> 16         0.01265
       7 -> 19         0.00102
       7 -> 22        -0.00401
       7 -> 25        -0.00025
       7 -> 29        -0.00043
       7 -> 33        -0.00050
       7 -> 35        -0.00012
       7 -> 40        -0.00017
       7 -> 42         0.00025
       7 -> 51        -0.00077
       8 ->  9        -0.00072
       8 -> 13         0.00636
       8 -> 18         0.00172
       8 -> 23         0.00135
       8 -> 28         0.00025
       8 -> 31         0.00058
       8 -> 37         0.00092
       8 -> 44         0.00015
       8 -> 52         0.00015
       3 <- 27        -0.00109
       3 <- 38        -0.00037
       3 <- 47         0.00015
       4 <- 27        -0.00561
       5 <-  9        -0.01494
       5 <- 13         0.00211
       5 <- 18         0.00029
       5 <- 23         0.00014
       5 <- 28         0.00214
       5 <- 31        -0.00332
       5 <- 37        -0.00356
       5 <- 44        -0.00050
       6 <- 27        -0.00133
       6 <- 38         0.00184
       7 <- 12        -0.00353
       7 <- 16        -0.00035
       7 <- 19        -0.00090
       7 <- 22        -0.00408
       7 <- 25         0.00343
       7 <- 33         0.00031
       7 <- 35        -0.00069
       7 <- 42         0.00089
       7 <- 51        -0.00089
       8 <-  9         0.00044
       8 <- 13        -0.00043
       8 <- 18        -0.00105
       8 <- 23        -0.00037
       8 <- 28        -0.00103
       8 <- 31         0.00064
       8 <- 37         0.00051
 
 Excited State   7:      Singlet-B2     6.8371 eV  181.34 nm  f=0.0024  <S**2>=0.000
       3 -> 12         0.00150
       3 -> 16         0.00069
       3 -> 19        -0.00033
       3 -> 22        -0.00015
       3 -> 25        -0.00051
       3 -> 29        -0.00150
       3 -> 33         0.00018
       3 -> 40        -0.00012
       3 -> 49        -0.00020
       4 -> 12        -0.00045
       4 -> 16         0.00087
       4 -> 19         0.00060
       4 -> 22        -0.00106
       4 -> 25        -0.00067
       4 -> 29         0.00049
       5 -> 10        -0.00334
       5 -> 11        -0.00658
       5 -> 14         0.00290
       5 -> 15         0.00281
       5 -> 20         0.00039
       5 -> 21        -0.00039
       5 -> 24        -0.00032
       5 -> 26        -0.00017
       5 -> 30        -0.00051
       5 -> 32        -0.00063
       5 -> 34         0.00060
       5 -> 39         0.00019
       5 -> 41        -0.00023
       5 -> 43        -0.00021
       6 -> 12        -0.00405
       6 -> 16        -0.00178
       6 -> 19        -0.00061
       6 -> 22         0.00026
       6 -> 29        -0.00017
       6 -> 35         0.00049
       6 -> 49         0.00058
       7 -> 27        -0.00044
       7 -> 38        -0.00031
       7 -> 47         0.00075
       8 -> 10        -0.04370
       8 -> 11         0.70315
       8 -> 14         0.05569
       8 -> 15        -0.01849
       8 -> 17        -0.00233
       8 -> 20         0.01103
       8 -> 21         0.00211
       8 -> 24        -0.00195
       8 -> 26         0.00262
       8 -> 30        -0.00147
       8 -> 34        -0.00021
       8 -> 36        -0.00039
       8 -> 41        -0.00024
       8 -> 43         0.00021
       8 -> 45        -0.00052
       8 -> 48        -0.00096
       8 -> 50         0.00037
       8 -> 54        -0.00020
       3 <- 16         0.00045
       3 <- 19        -0.00036
       3 <- 22        -0.00031
       3 <- 25        -0.00016
       3 <- 29        -0.00086
       3 <- 33         0.00010
       3 <- 49        -0.00020
       4 <- 12         0.00038
       4 <- 16         0.00068
       4 <- 19         0.00059
       4 <- 22        -0.00068
       4 <- 25        -0.00044
       4 <- 29         0.00035
       4 <- 42         0.00011
       5 <- 10        -0.00138
       5 <- 14         0.00049
       5 <- 20         0.00016
       5 <- 21         0.00017
       5 <- 24        -0.00067
       5 <- 26         0.00018
       5 <- 30        -0.00018
       5 <- 32        -0.00024
       5 <- 34         0.00052
       5 <- 41        -0.00016
       5 <- 43        -0.00015
       5 <- 48        -0.00013
       6 <- 12        -0.00054
       6 <- 19        -0.00043
       6 <- 29        -0.00043
       6 <- 35         0.00035
       6 <- 49         0.00054
       7 <- 27        -0.00030
       7 <- 38        -0.00023
       7 <- 47         0.00065
       8 <- 10        -0.00329
       8 <- 11        -0.00086
       8 <- 14        -0.00011
       8 <- 15         0.00018
       8 <- 17        -0.00107
       8 <- 20        -0.00193
       8 <- 21         0.00034
       8 <- 24         0.00017
       8 <- 30         0.00016
       8 <- 32         0.00122
       8 <- 34         0.00036
       8 <- 36        -0.00093
       8 <- 45        -0.00031
       8 <- 48        -0.00077
       8 <- 50         0.00041
 
 Excited State   8:      Singlet-B1     7.1776 eV  172.74 nm  f=0.0630  <S**2>=0.000
       3 ->  9        -0.00059
       3 -> 13         0.00151
       3 -> 18        -0.00070
       3 -> 23        -0.00024
       3 -> 28        -0.00147
       3 -> 31        -0.00077
       3 -> 44        -0.00018
       3 -> 52        -0.00016
       4 ->  9         0.00175
       4 -> 13         0.00151
       4 -> 23        -0.00151
       4 -> 28         0.00011
       4 -> 31         0.00051
       4 -> 37        -0.00037
       4 -> 44        -0.00042
       5 -> 27        -0.00016
       5 -> 38         0.00041
       6 ->  9        -0.00498
       6 -> 13        -0.00182
       6 -> 23         0.00063
       6 -> 28         0.00035
       6 -> 31        -0.00026
       6 -> 37        -0.00011
       6 -> 44         0.00039
       6 -> 46         0.00010
       7 -> 10        -0.04225
       7 -> 11         0.70460
       7 -> 14         0.02591
       7 -> 15        -0.03200
       7 -> 17        -0.00345
       7 -> 20         0.00359
       7 -> 21         0.00363
       7 -> 24        -0.00576
       7 -> 26         0.00197
       7 -> 30        -0.00054
       7 -> 34        -0.00024
       7 -> 36        -0.00071
       7 -> 41        -0.00031
       7 -> 43         0.00025
       7 -> 45        -0.00041
       7 -> 48         0.00021
       7 -> 54        -0.00019
       8 -> 38        -0.00017
       8 -> 47         0.00032
       3 <-  9         0.00041
       3 <- 18        -0.00047
       3 <- 23        -0.00041
       3 <- 28        -0.00098
       3 <- 31        -0.00038
       4 <-  9        -0.00347
       4 <- 13         0.00069
       4 <- 23        -0.00051
       4 <- 31         0.00051
       4 <- 37        -0.00030
       5 <- 38         0.00034
       6 <-  9        -0.00375
       6 <- 13         0.00092
       6 <- 18        -0.00028
       6 <- 23         0.00140
       6 <- 31        -0.00036
       6 <- 44         0.00044
       6 <- 46         0.00016
       6 <- 52        -0.00012
       7 <- 10        -0.00231
       7 <- 11        -0.00139
       7 <- 14        -0.00136
       7 <- 15         0.00042
       7 <- 17        -0.00057
       7 <- 20        -0.00339
       7 <- 26        -0.00130
       7 <- 30         0.00050
       7 <- 32         0.00083
       7 <- 34         0.00027
       7 <- 36        -0.00079
       7 <- 45        -0.00019
       7 <- 48         0.00019
       8 <- 38        -0.00011
       8 <- 47         0.00022
 
 Excited State   9:      Singlet-A1     7.9775 eV  155.42 nm  f=0.0290  <S**2>=0.000
       3 -> 10        -0.00208
       3 -> 11         0.00149
       3 -> 14         0.00174
       3 -> 15        -0.00017
       3 -> 20         0.00022
       3 -> 21         0.00015
       3 -> 26        -0.00061
       3 -> 30        -0.00034
       3 -> 34         0.00019
       3 -> 36        -0.00022
       3 -> 39         0.00013
       3 -> 41        -0.00018
       3 -> 48        -0.00028
       3 -> 50         0.00012
       3 -> 54        -0.00020
       4 -> 10         0.00235
       4 -> 11        -0.00321
       4 -> 14        -0.00164
       4 -> 15         0.00076
       4 -> 17         0.00049
       4 -> 20        -0.00056
       4 -> 24        -0.00161
       4 -> 26        -0.00039
       4 -> 30         0.00045
       4 -> 34         0.00012
       4 -> 39        -0.00028
[...]
  46        4PY         0.00000   0.00000  -0.01179  -0.03477  -0.05620
  47        4PZ        -0.00376   0.00000   0.02034   0.03146   0.02006
  48        5S         -0.00174   0.00000   0.00861   0.01347   0.00936
  49        5PX         0.00000   0.00000   0.00000   0.00000   0.00000
  50        5PY         0.00000   0.00000  -0.00611  -0.01296  -0.01434
  51        5PZ        -0.00007   0.00000   0.00165   0.00202  -0.00029
  52        6D 0        0.00015   0.00000  -0.00046  -0.00087  -0.00100
  53        6D+1        0.00000   0.00000   0.00000   0.00000   0.00000
  54        6D-1        0.00000   0.00000  -0.00056  -0.00059   0.00044
  55        6D+2        0.00001   0.00000  -0.00001   0.00001   0.00001
  56        6D-2        0.00000   0.00000   0.00000   0.00000   0.00000
                          26        27        28        29        30
  26        4PX         0.00026
  27        4PY         0.00000   0.00107
  28        4PZ         0.00000  -0.00042   0.00064
  29 3   H  1S          0.00000  -0.00189  -0.00306   0.07699
  30        2S          0.00000  -0.00169  -0.00501   0.10869   0.15575
  31        3S          0.00000   0.00097  -0.00271   0.02978   0.04741
  32        4PX         0.00026   0.00000   0.00000   0.00000   0.00000
  33        4PY         0.00000  -0.00062  -0.00011   0.00824   0.01114
  34        4PZ         0.00000   0.00011   0.00000   0.00452   0.00629
  35 4   O  1S          0.00000   0.00005   0.00001   0.00059  -0.00001
  36        2S          0.00000   0.00014   0.00004   0.00092  -0.00013
  37        2PX         0.00582   0.00000   0.00000   0.00000   0.00000
  38        2PY         0.00000  -0.00024   0.00032   0.00847   0.02604
  39        2PZ         0.00000  -0.00237  -0.00424   0.01717   0.02656
  40        3S          0.00000  -0.00055  -0.00040  -0.00271   0.00087
  41        3PX         0.00836   0.00000   0.00000   0.00000   0.00000
  42        3PY         0.00000  -0.00035   0.00046   0.01197   0.03692
  43        3PZ         0.00000  -0.00349  -0.00629   0.02531   0.03919
  44        4S          0.00000  -0.00075  -0.00066  -0.00008   0.00375
  45        4PX         0.00755   0.00000   0.00000   0.00000   0.00000
  46        4PY         0.00000  -0.00025   0.00033   0.01179   0.03477
  47        4PZ         0.00000  -0.00280  -0.00504   0.02034   0.03146
  48        5S          0.00000  -0.00111  -0.00244   0.00861   0.01347
  49        5PX         0.00151   0.00000   0.00000   0.00000   0.00000
  50        5PY         0.00000   0.00019  -0.00022   0.00611   0.01296
  51        5PZ         0.00000  -0.00032   0.00023   0.00165   0.00202
  52        6D 0        0.00000   0.00004   0.00030  -0.00046  -0.00087
  53        6D+1       -0.00018   0.00000   0.00000   0.00000   0.00000
  54        6D-1        0.00000   0.00005  -0.00007   0.00056   0.00059
  55        6D+2        0.00000  -0.00000   0.00000  -0.00001   0.00001
  56        6D-2        0.00000   0.00000   0.00000   0.00000   0.00000
                          31        32        33        34        35
  31        3S          0.02524
  32        4PX         0.00000   0.00026
  33        4PY         0.00219   0.00000   0.00107
  34        4PZ         0.00106   0.00000   0.00042   0.00064
  35 4   O  1S         -0.00038   0.00000  -0.00005   0.00001   0.64201
  36        2S         -0.00071   0.00000  -0.00014   0.00004   0.57289
  37        2PX         0.00000   0.00582   0.00000   0.00000   0.00000
  38        2PY         0.04348   0.00000  -0.00024  -0.00032   0.00000
  39        2PZ         0.01690   0.00000   0.00237  -0.00424  -0.00744
  40        3S          0.00311   0.00000   0.00055  -0.00040  -0.15011
  41        3PX         0.00000   0.00836   0.00000   0.00000   0.00000
  42        3PY         0.06180   0.00000  -0.00035  -0.00046   0.00000
  43        3PZ         0.02506   0.00000   0.00349  -0.00629  -0.00917
  44        4S          0.00399   0.00000   0.00075  -0.00066  -0.13972
  45        4PX         0.00000   0.00755   0.00000   0.00000   0.00000
  46        4PY         0.05620   0.00000  -0.00025  -0.00033   0.00000
  47        4PZ         0.02006   0.00000   0.00280  -0.00504  -0.00557
  48        5S          0.00936   0.00000   0.00111  -0.00244   0.00911
  49        5PX         0.00000   0.00151   0.00000   0.00000   0.00000
  50        5PY         0.01434   0.00000   0.00019   0.00022   0.00000
  51        5PZ        -0.00029   0.00000   0.00032   0.00023  -0.00601
  52        6D 0       -0.00100   0.00000  -0.00004   0.00030  -0.00105
  53        6D+1        0.00000  -0.00018   0.00000   0.00000   0.00000
  54        6D-1       -0.00044   0.00000   0.00005   0.00007   0.00000
  55        6D+2        0.00001   0.00000   0.00000   0.00000  -0.00077
  56        6D-2        0.00000  -0.00000   0.00000   0.00000   0.00000
                          36        37        38        39        40
  36        2S          0.52956
  37        2PX         0.00000   0.12940
  38        2PY         0.00000   0.00000   0.19574
  39        2PZ        -0.01168  -0.00000   0.00000   0.08336
  40        3S         -0.25150   0.00000   0.00000   0.03738   0.78845
  41        3PX         0.00000   0.18604   0.00000   0.00000   0.00000
  42        3PY         0.00000   0.00000   0.27837   0.00000   0.00000
  43        3PZ        -0.01521  -0.00000   0.00000   0.12352   0.05212
  44        4S         -0.21854   0.00000   0.00000   0.03727   0.63450
  45        4PX         0.00000   0.16794   0.00000   0.00000   0.00000
  46        4PY         0.00000   0.00000   0.25083   0.00000   0.00000
  47        4PZ        -0.00982  -0.00000   0.00000   0.09873   0.03635
  48        5S          0.00991   0.00000   0.00000   0.04538  -0.01163
  49        5PX         0.00000   0.03363   0.00000   0.00000   0.00000
  50        5PY         0.00000   0.00000   0.05605   0.00000   0.00000
  51        5PZ        -0.00863  -0.00000   0.00000  -0.00105   0.02221
  52        6D 0       -0.00162   0.00000   0.00000  -0.00485   0.00441
  53        6D+1       -0.00000  -0.00399   0.00000  -0.00000   0.00000
  54        6D-1        0.00000   0.00000  -0.00365   0.00000   0.00000
  55        6D+2       -0.00123   0.00000   0.00000   0.00013   0.00368
  56        6D-2        0.00000   0.00000   0.00000   0.00000   0.00000
                          41        42        43        44        45
  41        3PX         0.26746
  42        3PY         0.00000   0.39587
  43        3PZ        -0.00000   0.00000   0.18305
  44        4S          0.00000   0.00000   0.05256   0.51184
  45        4PX         0.24144   0.00000   0.00000   0.00000   0.21795
  46        4PY         0.00000   0.35671   0.00000   0.00000   0.00000
  47        4PZ        -0.00000   0.00000   0.14633   0.03774  -0.00000
  48        5S          0.00000   0.00000   0.06740  -0.00556   0.00000
  49        5PX         0.04835   0.00000   0.00000   0.00000   0.04365
  50        5PY         0.00000   0.07970   0.00000   0.00000   0.00000
  51        5PZ        -0.00000   0.00000  -0.00167   0.01779  -0.00000
  52        6D 0        0.00000   0.00000  -0.00722   0.00312   0.00000
  53        6D+1       -0.00573   0.00000  -0.00000   0.00000  -0.00517
  54        6D-1        0.00000  -0.00519   0.00000   0.00000   0.00000
  55        6D+2        0.00000   0.00000   0.00018   0.00296   0.00000
  56        6D-2        0.00000   0.00000   0.00000   0.00000   0.00000
                          46        47        48        49        50
  46        4PY         0.32145
  47        4PZ         0.00000   0.11702
  48        5S          0.00000   0.05410   0.02617
  49        5PX         0.00000   0.00000   0.00000   0.00874
  50        5PY         0.07190   0.00000   0.00000   0.00000   0.01634
  51        5PZ         0.00000  -0.00149  -0.00163  -0.00000   0.00000
  52        6D 0        0.00000  -0.00582  -0.00294   0.00000   0.00000
  53        6D+1        0.00000  -0.00000  -0.00000  -0.00104   0.00000
  54        6D-1       -0.00466   0.00000   0.00000   0.00000  -0.00099
  55        6D+2        0.00000   0.00012  -0.00008   0.00000   0.00000
  56        6D-2        0.00000   0.00000   0.00000   0.00000   0.00000
                          51        52        53        54        55
  51        5PZ         0.00086
  52        6D 0        0.00031   0.00035
  53        6D+1        0.00000  -0.00000   0.00012
  54        6D-1        0.00000   0.00000   0.00000   0.00008
  55        6D+2        0.00011   0.00002   0.00000   0.00000   0.00002
  56        6D-2        0.00000   0.00000   0.00000   0.00000   0.00000
                          56
  56        6D-2        0.00000
          Condensed to atoms (all electrons):
               1          2          3          4
     1  C    5.163744   0.351102   0.351102   0.240522
     2  H    0.351102   0.510564  -0.043564  -0.012346
     3  H    0.351102  -0.043564   0.510564  -0.012346
     4  O    0.240522  -0.012346  -0.012346   8.066188
 Mulliken charges:
               1
     1  C   -0.106470
     2  H    0.194244
     3  H    0.194244
     4  O   -0.282019
 Sum of Mulliken charges =  -0.00000
 Mulliken charges with hydrogens summed into heavy atoms:
               1
     1  C    0.282019
     4  O   -0.282019
 Electronic spatial extent (au):  <R**2>=             94.8129
 Charge=             -0.0000 electrons
 Dipole moment (field-independent basis, Debye):
    X=             -0.0000    Y=              0.0000    Z=             -4.3008  Tot=              4.3008
 Quadrupole moment (field-independent basis, Debye-Ang):
   XX=            -13.0994   YY=            -12.0867   ZZ=            -10.4166
   XY=              0.0000   XZ=              0.0000   YZ=             -0.0000
 Traceless Quadrupole moment (field-independent basis, Debye-Ang):
   XX=             -1.2318   YY=             -0.2192   ZZ=              1.4510
   XY=              0.0000   XZ=              0.0000   YZ=             -0.0000
 Octapole moment (field-independent basis, Debye-Ang**2):
  XXX=              0.0000  YYY=              0.0000  ZZZ=             -3.1506  XYY=             -0.0000
  XXY=             -0.0000  XXZ=              0.3906  XZZ=             -0.0000  YZZ=             -0.0000
  YYZ=             -2.7885  XYZ=             -0.0000
 Hexadecapole moment (field-independent basis, Debye-Ang**3):
 XXXX=            -14.3672 YYYY=            -18.6659 ZZZZ=            -82.3032 XXXY=             -0.0000
 XXXZ=             -0.0000 YYYX=             -0.0000 YYYZ=             -0.0000 ZZZX=              0.0000
 ZZZY=             -0.0000 XXYY=             -5.9621 XXZZ=            -17.4729 YYZZ=            -15.2522
 XXYZ=             -0.0000 YYXZ=              0.0000 ZZXY=              0.0000
 N-N= 2.252118585561D+01 E-N=-3.134350601580D+02  KE= 1.133086844400D+02
 Symmetry A1   KE= 1.026133679728D+02
 Symmetry A2   KE= 1.246875117024D-35
 Symmetry B1   KE= 3.795015780139D+00
 Symmetry B2   KE= 6.900300686988D+00
 Leave Link  601 at Fri Sep 17 10:53:13 2021, MaxMem=   268435456 cpu:               0.0 elap:               0.0
 (Enter /software/gaussian/g16-a03/l9999.exe)
 Electronic transition elements 
                 1             2             3             4             5 
      1  -0.114282D+03 -0.114214D+03 -0.114209D+03 -0.114200D+03 -0.114180D+03
      2   0.000000D+00  0.000000D+00  0.000000D+00 -0.823832D-02 -0.250203D+00
      3   0.000000D+00  0.000000D+00 -0.146486D+00  0.000000D+00  0.000000D+00
      4   0.000000D+00  0.566250D+00  0.000000D+00  0.000000D+00  0.000000D+00
      5   0.000000D+00  0.000000D+00  0.000000D+00 -0.208553D-01  0.394920D-01
      6   0.000000D+00  0.000000D+00  0.139149D-01  0.000000D+00  0.000000D+00
      7   0.000000D+00 -0.527540D-01  0.000000D+00  0.000000D+00  0.000000D+00
      8   0.000000D+00  0.000000D+00  0.644904D+00  0.000000D+00  0.000000D+00
      9   0.000000D+00  0.000000D+00  0.000000D+00 -0.199857D+01  0.285147D+00
     10   0.930984D+00  0.000000D+00  0.000000D+00  0.000000D+00  0.000000D+00
     11   0.000000D+00  0.391374D-01  0.000000D+00  0.000000D+00  0.000000D+00
     12   0.000000D+00 -0.725968D-02  0.000000D+00  0.000000D+00  0.000000D+00
     13   0.000000D+00 -0.253771D-01  0.000000D+00  0.000000D+00  0.000000D+00
     14  -0.228496D-01  0.000000D+00  0.000000D+00  0.000000D+00  0.000000D+00
     15   0.000000D+00  0.000000D+00  0.000000D+00 -0.648992D-03  0.119684D+00
     16   0.000000D+00  0.000000D+00  0.261920D-01  0.000000D+00  0.000000D+00
                 6             7             8             9            10 
      1  -0.114075D+03 -0.114072D+03 -0.114060D+03 -0.114030D+03 -0.114018D+03
      2   0.000000D+00  0.000000D+00 -0.598613D+00  0.000000D+00  0.000000D+00
      3   0.000000D+00 -0.119456D+00  0.000000D+00  0.000000D+00  0.000000D+00
      4   0.000000D+00  0.000000D+00  0.000000D+00 -0.385520D+00  0.000000D+00
      5   0.000000D+00  0.000000D+00  0.160710D+00  0.000000D+00  0.000000D+00
      6   0.000000D+00  0.251468D-01  0.000000D+00  0.000000D+00  0.000000D+00
      7   0.000000D+00  0.000000D+00  0.000000D+00  0.110147D+00  0.000000D+00
      8   0.000000D+00 -0.286349D+00  0.000000D+00  0.000000D+00  0.000000D+00
      9   0.000000D+00  0.000000D+00 -0.138194D+00  0.000000D+00  0.000000D+00
     10  -0.110399D+01  0.000000D+00  0.000000D+00  0.000000D+00  0.236801D-01
     11   0.000000D+00  0.000000D+00  0.000000D+00  0.295186D-01  0.000000D+00
     12   0.000000D+00  0.000000D+00  0.000000D+00  0.127163D+00  0.000000D+00
     13   0.000000D+00  0.000000D+00  0.000000D+00 -0.195688D+00  0.000000D+00
     14   0.171901D+00  0.000000D+00  0.000000D+00  0.000000D+00  0.280746D+00
     15   0.000000D+00  0.000000D+00 -0.190402D+00  0.000000D+00  0.000000D+00
     16   0.000000D+00  0.210398D+00  0.000000D+00  0.000000D+00  0.000000D+00
                11            12            13            14            15 
      1  -0.114014D+03 -0.114009D+03 -0.114002D+03 -0.113999D+03 -0.113994D+03
      2   0.000000D+00  0.000000D+00  0.000000D+00 -0.459796D+00  0.000000D+00
      3  -0.435779D+00  0.000000D+00  0.000000D+00  0.000000D+00  0.000000D+00
      4   0.000000D+00  0.000000D+00 -0.147560D+01  0.000000D+00 -0.541133D+00
      5   0.000000D+00  0.000000D+00  0.000000D+00  0.156311D+00  0.000000D+00
      6   0.136534D+00  0.000000D+00  0.000000D+00  0.000000D+00  0.000000D+00
      7   0.000000D+00  0.000000D+00  0.473325D+00  0.000000D+00  0.180697D+00
      8  -0.519025D+00  0.000000D+00  0.000000D+00  0.000000D+00  0.000000D+00
      9   0.000000D+00  0.000000D+00  0.000000D+00  0.243874D+00  0.000000D+00
     10   0.000000D+00 -0.158914D-02  0.000000D+00  0.000000D+00  0.000000D+00
     11   0.000000D+00  0.000000D+00 -0.367819D+00  0.000000D+00  0.687270D+00
     12   0.000000D+00  0.000000D+00 -0.539838D-01  0.000000D+00  0.517940D-01
     13   0.000000D+00  0.000000D+00 -0.807180D-01  0.000000D+00 -0.347936D+00
     14   0.000000D+00  0.764836D-01  0.000000D+00  0.000000D+00  0.000000D+00
     15   0.000000D+00  0.000000D+00  0.000000D+00  0.336804D+00  0.000000D+00
     16   0.256043D+00  0.000000D+00  0.000000D+00  0.000000D+00  0.000000D+00
                16            17            18            19            20 
      1  -0.113976D+03 -0.113975D+03 -0.113957D+03 -0.113946D+03 -0.113939D+03
      2   0.000000D+00  0.000000D+00  0.000000D+00 -0.450426D+00  0.000000D+00
      3   0.725464D-01  0.000000D+00 -0.236316D+00  0.000000D+00 -0.227876D+00
      4   0.000000D+00 -0.536062D+00  0.000000D+00  0.000000D+00  0.000000D+00
      5   0.000000D+00  0.000000D+00  0.000000D+00  0.152718D+00  0.000000D+00
      6  -0.305559D-01  0.000000D+00  0.917743D-01  0.000000D+00  0.868741D-01
      7   0.000000D+00  0.193459D+00  0.000000D+00  0.000000D+00  0.000000D+00
      8   0.812122D+00  0.000000D+00  0.170572D+00  0.000000D+00  0.776675D-01
      9   0.000000D+00  0.000000D+00  0.000000D+00  0.164675D+00  0.000000D+00
     10   0.000000D+00  0.000000D+00  0.000000D+00  0.000000D+00  0.000000D+00
     11   0.000000D+00  0.311094D+00  0.000000D+00  0.000000D+00  0.000000D+00
     12   0.000000D+00  0.190719D+00  0.000000D+00  0.000000D+00  0.000000D+00
     13   0.000000D+00  0.661799D+00  0.000000D+00  0.000000D+00  0.000000D+00
     14   0.000000D+00  0.000000D+00  0.000000D+00  0.000000D+00  0.000000D+00
     15   0.000000D+00  0.000000D+00  0.000000D+00 -0.675137D-01  0.000000D+00
     16   0.370095D+00  0.000000D+00 -0.158560D-01  0.000000D+00 -0.349756D+00
                21            22            23            24            25 
      1  -0.113938D+03 -0.113931D+03 -0.113919D+03 -0.113904D+03 -0.113897D+03
      2   0.000000D+00  0.000000D+00 -0.586767D-01  0.000000D+00  0.000000D+00
      3   0.000000D+00  0.000000D+00  0.000000D+00 -0.127972D+00  0.000000D+00
      4   0.000000D+00 -0.813985D+00  0.000000D+00  0.000000D+00  0.108804D+01
      5   0.000000D+00  0.000000D+00  0.172631D-01  0.000000D+00  0.000000D+00
      6   0.000000D+00  0.000000D+00  0.000000D+00  0.488894D-01  0.000000D+00
      7   0.000000D+00  0.320313D+00  0.000000D+00  0.000000D+00 -0.443499D+00
      8   0.000000D+00  0.000000D+00  0.000000D+00 -0.143352D-01  0.000000D+00
      9   0.000000D+00  0.000000D+00  0.621346D-01  0.000000D+00  0.000000D+00
     10  -0.777655D-01  0.000000D+00  0.000000D+00  0.000000D+00  0.000000D+00
     11   0.000000D+00 -0.117459D+00  0.000000D+00  0.000000D+00 -0.276811D+00
     12   0.000000D+00 -0.420155D+00  0.000000D+00  0.000000D+00  0.391168D+00
     13   0.000000D+00 -0.664872D-01  0.000000D+00  0.000000D+00 -0.305841D+00
     14  -0.277302D+00  0.000000D+00  0.000000D+00  0.000000D+00  0.000000D+00
     15   0.000000D+00  0.000000D+00 -0.167364D+00  0.000000D+00  0.000000D+00
     16   0.000000D+00  0.000000D+00  0.000000D+00  0.477375D+00  0.000000D+00
                26            27            28            29            30 
      1  -0.113884D+03 -0.113884D+03 -0.113875D+03 -0.113867D+03 -0.113855D+03
      2   0.000000D+00  0.568846D-01  0.000000D+00  0.000000D+00  0.000000D+00
      3   0.000000D+00  0.000000D+00 -0.653265D+00  0.000000D+00  0.000000D+00
      4   0.000000D+00  0.000000D+00  0.000000D+00  0.411043D+00 -0.443342D+00
      5   0.000000D+00 -0.146141D-01  0.000000D+00  0.000000D+00  0.000000D+00
      6   0.000000D+00  0.000000D+00  0.289811D+00  0.000000D+00  0.000000D+00
      7   0.000000D+00  0.000000D+00  0.000000D+00 -0.177387D+00  0.196305D+00
      8   0.000000D+00  0.000000D+00  0.766237D+00  0.000000D+00  0.000000D+00
      9   0.000000D+00  0.122498D+00  0.000000D+00  0.000000D+00  0.000000D+00
     10  -0.259917D-01  0.000000D+00  0.000000D+00  0.000000D+00  0.000000D+00
     11   0.000000D+00  0.000000D+00  0.000000D+00 -0.214892D+00 -0.371819D+00
     12   0.000000D+00  0.000000D+00  0.000000D+00  0.170414D-01  0.183946D+00
     13   0.000000D+00  0.000000D+00  0.000000D+00  0.152535D+00  0.202474D+00
     14   0.370747D+00  0.000000D+00  0.000000D+00  0.000000D+00  0.000000D+00
     15   0.000000D+00  0.413151D+00  0.000000D+00  0.000000D+00  0.000000D+00
     16   0.000000D+00  0.000000D+00 -0.848314D+00  0.000000D+00  0.000000D+00

 Test job not archived.
 1\1\GINC-BHD0008\SP\RB3LYP TD-FC\6-311+G(d,p)\C1H2O1\BWEIGHT\17-Sep-20
 21\0\\#p B3LYP/6-311+G** #p TD=(singlets,nstates=30)IOp(6/8=3) IOp(9/4
 0=4)\\Scan Step 281, Bond Length 1.905\\0,1\C,0,0.,0.,-0.52736\H,0,0.,
 0.93726,-1.11871\H,0,0.,-0.93726,-1.11871\O,0,0.,0.,1.37764\\Version=E
 S64L-G16RevA.03\State=1-A1\HF=-114.3234298\RMSD=7.674e-09\PG=C02V [C2(
 C1O1),SGV(H2)]\\@


 Sometimes the fool who rushes in gets the job done.
                                    -- Al Bernstein
 Job cpu time:       0 days  0 hours  0 minutes 25.7 seconds.
 Elapsed time:       0 days  0 hours  0 minutes 26.1 seconds.
 File lengths (MBytes):  RWF=     79 Int=      0 D2E=      0 Chk=     32 Scr=      1
 Normal termination of Gaussian 16 at Fri Sep 17 10:53:13 2021.
