 Entering Gaussian System, Link 0=g16
 Initial command:
 /software/gaussian/g16-c01/sse4/g16/l1.exe "/local_scratch/24665351/Gau-10403.inp" -scrdir="/local_scratch/24665351/"
 Entering Link 1 = /software/gaussian/g16-c01/sse4/g16/l1.exe PID=     10419.
  
 Copyright (c) 1988-2019, Gaussian, Inc.  All Rights Reserved.
  
 This is part of the Gaussian(R) 16 program.  It is based on
 the Gaussian(R) 09 system (copyright 2009, Gaussian, Inc.),
 the Gaussian(R) 03 system (copyright 2003, Gaussian, Inc.),
 the Gaussian(R) 98 system (copyright 1998, Gaussian, Inc.),
 the Gaussian(R) 94 system (copyright 1995, Gaussian, Inc.),
 the Gaussian 92(TM) system (copyright 1992, Gaussian, Inc.),
 the Gaussian 90(TM) system (copyright 1990, Gaussian, Inc.),
 the Gaussian 88(TM) system (copyright 1988, Gaussian, Inc.),
 the Gaussian 86(TM) system (copyright 1986, Carnegie Mellon
 University), and the Gaussian 82(TM) system (copyright 1983,
 Carnegie Mellon University). Gaussian is a federally registered
 trademark of Gaussian, Inc.
  
 This software contains proprietary and confidential information,
 including trade secrets, belonging to Gaussian, Inc.
  
 This software is provided under written license and may be
 used, copied, transmitted, or stored only in accord with that
 written license.
  
 The following legend is applicable only to US Government
 contracts under FAR:
  
                    RESTRICTED RIGHTS LEGEND
  
 Use, reproduction and disclosure by the US Government is
 subject to restrictions as set forth in subparagraphs (a)
 and (c) of the Commercial Computer Software - Restricted
 Rights clause in FAR 52.227-19.
  
 Gaussian, Inc.
 340 Quinnipiac St., Bldg. 40, Wallingford CT 06492
  
  
 ---------------------------------------------------------------
 Warning -- This program may not be used in any manner that
 competes with the business of Gaussian, Inc. or will provide
 assistance to any competitor of Gaussian, Inc.  The licensee
 of this program is prohibited from giving any competitor of
 Gaussian, Inc. access to this program.  By using this program,
 the user acknowledges that Gaussian, Inc. is engaged in the
 business of creating and licensing software in the field of
 computational chemistry and represents and warrants to the
 licensee that it is not a competitor of Gaussian, Inc. and that
 it will not use this program in any manner prohibited above.
 ---------------------------------------------------------------
  

 Cite this work as:
 Gaussian 16, Revision C.01,
 M. J. Frisch, G. W. Trucks, H. B. Schlegel, G. E. Scuseria, 
 M. A. Robb, J. R. Cheeseman, G. Scalmani, V. Barone, 
 G. A. Petersson, H. Nakatsuji, X. Li, M. Caricato, A. V. Marenich, 
 J. Bloino, B. G. Janesko, R. Gomperts, B. Mennucci, H. P. Hratchian, 
 J. V. Ortiz, A. F. Izmaylov, J. L. Sonnenberg, D. Williams-Young, 
 F. Ding, F. Lipparini, F. Egidi, J. Goings, B. Peng, A. Petrone, 
 T. Henderson, D. Ranasinghe, V. G. Zakrzewski, J. Gao, N. Rega, 
 G. Zheng, W. Liang, M. Hada, M. Ehara, K. Toyota, R. Fukuda, 
 J. Hasegawa, M. Ishida, T. Nakajima, Y. Honda, O. Kitao, H. Nakai, 
 T. Vreven, K. Throssell, J. A. Montgomery, Jr., J. E. Peralta, 
 F. Ogliaro, M. J. Bearpark, J. J. Heyd, E. N. Brothers, K. N. Kudin, 
 V. N. Staroverov, T. A. Keith, R. Kobayashi, J. Normand, 
 K. Raghavachari, A. P. Rendell, J. C. Burant, S. S. Iyengar, 
 J. Tomasi, M. Cossi, J. M. Millam, M. Klene, C. Adamo, R. Cammi, 
 J. W. Ochterski, R. L. Martin, K. Morokuma, O. Farkas, 
 J. B. Foresman, and D. J. Fox, Gaussian, Inc., Wallingford CT, 2019.
 
 ******************************************
 Gaussian 16:  ES64L-G16RevC.01  3-Jul-2019
                 2-May-2024 
 ******************************************
 %chk=geometry.chk
 %mem=1GB
 %nprocshared=12
 Will use up to   12 processors via shared memory.
 ----------------------------------------
 #P wB97XD/6-311+G* NoSymm #P Field=Y+272
 ----------------------------------------
 1/38=1,172=1/1;
 2/12=2,15=1,17=6,18=5,40=1/2;
 3/5=4,6=6,7=11,11=2,14=2,15=272,25=1,30=1,74=-58/1,2,3;
 4//1;
 5/5=2,38=5/2;
 6/7=2,8=2,9=2,10=2,28=1/1;
 99/5=1,9=1/99;
 Leave Link    1 at Thu May  2 13:58:21 2024, MaxMem=   134217728 cpu:               1.7 elap:               1.7
 (Enter /software/gaussian/g16-c01/sse4/g16/l101.exe)
 -------
 TitleMe
 -------
 Symbolic Z-matrix:
 Charge =  1 Multiplicity = 1
 C                     0.5193    1.233    -0.0319 
 C                     1.9445    1.2692   -0.0367 
 C                     2.6204    0.0928   -0.025 
 C                    -0.196     0.0301    0.001 
 H                    -0.0207    2.1742   -0.0434 
 H                     2.4828    2.2089   -0.0361 
 H                    -1.2777    0.0399    0.0117 
 N                     4.0921    0.0959    0.0366 
 O                     4.6393   -1.0217    0.1446 
 O                     4.6649    1.1984   -0.0233 
 C                     0.4943   -1.1671    0.021 
 H                    -0.0325   -2.1149    0.0545 
 C                     1.9629   -1.2165   -0.0211 
 H                     2.4436   -1.9631    0.6151 
 Br                    2.173    -1.9491   -1.9062 
 
 ITRead=  0  0  0  0  0  0  0  0  0  0  0  0  0  0  0
 MicOpt= -1 -1 -1 -1 -1 -1 -1 -1 -1 -1 -1 -1 -1 -1 -1
 NAtoms=     15 NQM=       15 NQMF=       0 NMMI=      0 NMMIF=      0
                NMic=       0 NMicF=      0.
                    Isotopes and Nuclear Properties:
 (Nuclear quadrupole moments (NQMom) in fm**2, nuclear magnetic moments (NMagM)
  in nuclear magnetons)

  Atom         1           2           3           4           5           6           7           8           9          10
 IAtWgt=          12          12          12          12           1           1           1          14          16          16
 AtmWgt=  12.0000000  12.0000000  12.0000000  12.0000000   1.0078250   1.0078250   1.0078250  14.0030740  15.9949146  15.9949146
 NucSpn=           0           0           0           0           1           1           1           2           0           0
 AtZEff=  -0.0000000  -0.0000000  -0.0000000  -0.0000000  -0.0000000  -0.0000000  -0.0000000  -0.0000000  -0.0000000  -0.0000000
 NQMom=    0.0000000   0.0000000   0.0000000   0.0000000   0.0000000   0.0000000   0.0000000   2.0440000   0.0000000   0.0000000
 NMagM=    0.0000000   0.0000000   0.0000000   0.0000000   2.7928460   2.7928460   2.7928460   0.4037610   0.0000000   0.0000000
 AtZNuc=   6.0000000   6.0000000   6.0000000   6.0000000   1.0000000   1.0000000   1.0000000   7.0000000   8.0000000   8.0000000

  Atom        11          12          13          14          15
 IAtWgt=          12           1          12           1          79
 AtmWgt=  12.0000000   1.0078250  12.0000000   1.0078250  78.9183361
 NucSpn=           0           1           0           1           3
 AtZEff=  -0.0000000  -0.0000000  -0.0000000  -0.0000000  -0.0000000
 NQMom=    0.0000000   0.0000000   0.0000000   0.0000000  31.3000000
 NMagM=    0.0000000   2.7928460   0.0000000   2.7928460   2.1063990
 AtZNuc=   6.0000000   1.0000000   6.0000000   1.0000000  35.0000000
 Leave Link  101 at Thu May  2 13:58:23 2024, MaxMem=   134217728 cpu:               1.7 elap:               1.8
 (Enter /software/gaussian/g16-c01/sse4/g16/l202.exe)
                          Input orientation:                          
 ---------------------------------------------------------------------
 Center     Atomic      Atomic             Coordinates (Angstroms)
 Number     Number       Type             X           Y           Z
 ---------------------------------------------------------------------
      1          6           0        0.519300    1.233000   -0.031900
      2          6           0        1.944500    1.269200   -0.036700
      3          6           0        2.620400    0.092800   -0.025000
      4          6           0       -0.196000    0.030100    0.001000
      5          1           0       -0.020700    2.174200   -0.043400
      6          1           0        2.482800    2.208900   -0.036100
      7          1           0       -1.277700    0.039900    0.011700
      8          7           0        4.092100    0.095900    0.036600
      9          8           0        4.639300   -1.021700    0.144600
     10          8           0        4.664900    1.198400   -0.023300
     11          6           0        0.494300   -1.167100    0.021000
     12          1           0       -0.032500   -2.114900    0.054500
     13          6           0        1.962900   -1.216500   -0.021100
     14          1           0        2.443600   -1.963100    0.615100
     15         35           0        2.173000   -1.949100   -1.906200
 ---------------------------------------------------------------------
                    Distance matrix (angstroms):
                    1          2          3          4          5
     1  C    0.000000
     2  C    1.425668   0.000000
     3  C    2.390549   1.356796   0.000000
     4  C    1.399895   2.473566   2.817218   0.000000
     5  H    1.085168   2.163581   3.362733   2.151712   0.000000
     6  H    2.192654   1.082960   2.120598   3.453189   2.503751
     7  H    2.157452   3.449071   3.898632   1.081797   2.477564
     8  N    3.750012   2.448304   1.472992   4.288753   4.608780
     9  O    4.699917   3.541615   2.312322   4.950458   5.653735
    10  O    4.145753   2.721354   2.324292   4.999386   4.786171
    11  C    2.400813   2.835836   2.471794   1.382101   3.381369
    12  H    3.394169   3.920329   3.452266   2.151887   4.290233
    13  C    2.843264   2.485817   1.465124   2.493060   3.928360
    14  H    3.786370   3.334922   2.160489   3.364142   4.860416
    15  Br   4.046416   3.728900   2.812194   3.628609   5.028314
                    6          7          8          9         10
     6  H    0.000000
     7  H    4.341452   0.000000
     8  N    2.657047   5.370150   0.000000
     9  O    3.888434   6.012948   1.249048   0.000000
    10  O    2.404752   6.054572   1.243863   2.226587   0.000000
    11  C    3.918516   2.144043   3.813080   4.149391   4.794941
    12  H    5.003018   2.489080   4.679774   4.798846   5.748876
    13  C    3.464662   3.475788   2.501842   2.688591   3.623886
    14  H    4.222698   4.268978   2.700314   2.434893   3.916224
    15  Br   4.569706   4.420610   3.411663   3.338935   4.434144
                   11         12         13         14         15
    11  C    0.000000
    12  H    1.084880   0.000000
    13  C    1.470034   2.189625   0.000000
    14  H    2.187771   2.543302   1.092353   0.000000
    15  Br   2.672762   2.955683   2.033334   2.535818   0.000000
 Symmetry turned off by external request.
 Stoichiometry    C6H5BrNO2(1+)
 Framework group  C1[X(C6H5BrNO2)]
 Deg. of freedom    39
 Full point group                 C1      NOp   1
 Rotational constants (GHZ):           1.1632986           0.9594224           0.5957624
 Leave Link  202 at Thu May  2 13:58:24 2024, MaxMem=   134217728 cpu:               1.3 elap:               1.3
 (Enter /software/gaussian/g16-c01/sse4/g16/l301.exe)
 Standard basis: 6-311+G(d) (5D, 7F)
 Ernie: Thresh=  0.10000D-02 Tol=  0.10000D-05 Strict=F.
 The following finite field(s) will be applied:
 An electric field of              0.0000  0.0272  0.0000
   261 basis functions,   443 primitive gaussians,   273 cartesian basis functions
    49 alpha electrons       49 beta electrons
       nuclear repulsion energy       772.8945969580 Hartrees.
 IExCor= 4639 DFT=T Ex+Corr=wB97XD ExCW=0 ScaHFX=  1.000000
 ScaDFX=  1.000000  1.000000  1.000000  1.000000 ScalE2=  1.000000  1.000000
 IRadAn=      5 IRanWt=     -1 IRanGd=            0 ICorTp=0 IEmpDi=121
 HFx  wShort=  0.000000 wLong=  0.200000 cFull=  0.222036 cShort=  0.000000 cLong=  0.777964
 DFx  wShort=  0.000000 wLong=  0.200000 cFull=  0.000000 cShort=  0.000000 cLong=  1.000000
 NAtoms=   15 NActive=   15 NUniq=   15 SFac= 1.00D+00 NAtFMM=   60 NAOKFM=F Big=F
 Integral buffers will be    131072 words long.
 Raffenetti 2 integral format.
 Two-electron integral symmetry is turned off.
 R6Disp:  Grimme-D2 Dispersion energy=       -0.0080346408 Hartrees.
 Nuclear repulsion after empirical dispersion term =      772.8865623173 Hartrees.
 Leave Link  301 at Thu May  2 13:58:25 2024, MaxMem=   134217728 cpu:               0.9 elap:               0.9
 (Enter /software/gaussian/g16-c01/sse4/g16/l302.exe)
 NPDir=0 NMtPBC=     1 NCelOv=     1 NCel=       1 NClECP=     1 NCelD=      1
         NCelK=      1 NCelE2=     1 NClLst=     1 CellRange=     0.0.
 One-electron integrals computed using PRISM.
 NBasis=   261 RedAO= T EigKep=  2.52D-06  NBF=   261
 NBsUse=   261 1.00D-06 EigRej= -1.00D+00 NBFU=   261
 Precomputing XC quadrature grid using
 IXCGrd= 4 IRadAn=           5 IRanWt=          -1 IRanGd=           0 AccXCQ= 0.00D+00.
 Generated NRdTot=       0 NPtTot=           0 NUsed=           0 NTot=          32
 NSgBfM=   273   273   273   273   273 MxSgAt=    15 MxSgA2=    15.
 Leave Link  302 at Thu May  2 13:58:47 2024, MaxMem=   134217728 cpu:              21.8 elap:              21.8
 (Enter /software/gaussian/g16-c01/sse4/g16/l303.exe)
 DipDrv:  MaxL=1.
 The nuclear repulsion energy is now       769.5794714527 hartrees.
 Leave Link  303 at Thu May  2 13:58:50 2024, MaxMem=   134217728 cpu:               3.4 elap:               3.4
 (Enter /software/gaussian/g16-c01/sse4/g16/l401.exe)
 ExpMin= 3.50D-02 ExpMax= 4.40D+05 ExpMxC= 1.51D+04 IAcc=3 IRadAn=         5 AccDes= 0.00D+00
 Harris functional with IExCor= 4639 and IRadAn=       5 diagonalized for initial guess.
 HarFok:  IExCor= 4639 AccDes= 0.00D+00 IRadAn=         5 IDoV= 1 UseB2=F ITyADJ=14
 ICtDFT=  3500011 ScaDFX=  1.000000  1.000000  1.000000  1.000000
 FoFCou: FMM=F IPFlag=           0 FMFlag=      100000 FMFlg1=           0
         NFxFlg=           0 DoJE=T BraDBF=F KetDBF=T FulRan=T
         wScrn=  0.000000 ICntrl=       500 IOpCl=  0 I1Cent=   200000004 NGrid=           0
         NMat0=    1 NMatS0=      1 NMatT0=    0 NMatD0=    1 NMtDS0=    0 NMtDT0=    0
 Symmetry not used in FoFCou.
 Harris En= -2970.87847459696    
 JPrj=0 DoOrth=F DoCkMO=F.
 Leave Link  401 at Thu May  2 13:59:22 2024, MaxMem=   134217728 cpu:              31.4 elap:              31.4
 (Enter /software/gaussian/g16-c01/sse4/g16/l502.exe)
 Two-electron integral symmetry not used.
 Closed shell SCF:
 Using DIIS extrapolation, IDIIS=  1040.
 NGot=   134217728 LenX=   134063053 LenY=   133988083
 Requested convergence on RMS density matrix=1.00D-08 within 128 cycles.
 Requested convergence on MAX density matrix=1.00D-06.
 Requested convergence on             energy=1.00D-06.
 No special actions if energy rises.
 Fock matrices will be formed incrementally for  20 cycles.

 Cycle   1  Pass 1  IDiag  1:
 FoFJK:  IHMeth= 1 ICntrl=       0 DoSepK=T KAlg= 0 I1Cent=           0 FoldK=F
 IRaf=         1 NMat=       1 IRICut=       1 DoRegI=T DoRafI=F ISym2E= 0 IDoP0=0 IntGTp=1.
 FoFCou: FMM=F IPFlag=           0 FMFlag=      100000 FMFlg1=           0
         NFxFlg=           0 DoJE=T BraDBF=F KetDBF=F FulRan=T
         wScrn=  0.000000 ICntrl=       500 IOpCl=  0 I1Cent=           0 NGrid=           0
         NMat0=    1 NMatS0=      1 NMatT0=    0 NMatD0=    1 NMtDS0=    0 NMtDT0=    0
 Symmetry not used in FoFCou.
 E= -3005.28338781178    
 DIIS: error= 2.91D-01 at cycle   1 NSaved=   1.
 NSaved= 1 IEnMin= 1 EnMin= -3005.28338781178     IErMin= 1 ErrMin= 2.91D-01
 ErrMax= 2.91D-01  0.00D+00 EMaxC= 1.00D-01 BMatC= 1.45D+01 BMatP= 1.45D+01
 IDIUse=3 WtCom= 0.00D+00 WtEn= 1.00D+00
 Coeff-Com:  0.100D+01
 Coeff-En:   0.100D+01
 Coeff:      0.100D+01
 Gap=    -0.026 Goal=   None    Shift=    0.000
 GapD=   -0.026 DampG=0.250 DampE=0.250 DampFc=0.2500 IDamp=-1.
 Damping current iteration by 2.50D-01
 RMSDP=3.08D+01 MaxDP=2.44D+03              OVMax= 7.84D-01

 Cycle   2  Pass 1  IDiag  1:
 RMSU=  1.74D-01    CP:  7.52D-01
 E= -3006.75028936105     Delta-E=       -1.466901549266 Rises=F Damp=T
 DIIS: error= 2.21D-01 at cycle   2 NSaved=   2.
 NSaved= 2 IEnMin= 2 EnMin= -3006.75028936105     IErMin= 2 ErrMin= 2.21D-01
 ErrMax= 2.21D-01  0.00D+00 EMaxC= 1.00D-01 BMatC= 5.51D+00 BMatP= 1.45D+01
 IDIUse=3 WtCom= 0.00D+00 WtEn= 1.00D+00
 Coeff-Com: -0.782D+00 0.178D+01
 Coeff-En:   0.190D+00 0.810D+00
 Coeff:      0.190D+00 0.810D+00
 Gap=     0.242 Goal=   None    Shift=    0.000
 RMSDP=2.33D+01 MaxDP=1.86D+03 DE=-1.47D+00 OVMax= 8.00D-01

 Cycle   3  Pass 1  IDiag  1:
 RMSU=  4.34D-02    CP:  1.03D-03  3.54D-01
 E= -3009.02651941995     Delta-E=       -2.276230058904 Rises=F Damp=F
 DIIS: error= 1.15D-01 at cycle   3 NSaved=   3.
 NSaved= 3 IEnMin= 3 EnMin= -3009.02651941995     IErMin= 3 ErrMin= 1.15D-01
 ErrMax= 1.15D-01  0.00D+00 EMaxC= 1.00D-01 BMatC= 2.72D+00 BMatP= 5.51D+00
 IDIUse=3 WtCom= 0.00D+00 WtEn= 1.00D+00
 Coeff-Com:  0.133D+00 0.189D+00 0.678D+00
 Coeff-En:   0.238D+00 0.000D+00 0.762D+00
 Coeff:      0.238D+00 0.000D+00 0.762D+00
 Gap=     0.603 Goal=   None    Shift=    0.000
 RMSDP=5.74D-02 MaxDP=6.21D+00 DE=-2.28D+00 OVMax= 4.38D-01

 Cycle   4  Pass 1  IDiag  1:
 RMSU=  4.46D-02    CP:  2.02D-03  2.70D-01  1.27D+00
 E= -3009.26572267616     Delta-E=       -0.239203256205 Rises=F Damp=F
 DIIS: error= 1.23D-01 at cycle   4 NSaved=   4.
 NSaved= 4 IEnMin= 4 EnMin= -3009.26572267616     IErMin= 3 ErrMin= 1.15D-01
 ErrMax= 1.23D-01  0.00D+00 EMaxC= 1.00D-01 BMatC= 1.86D+00 BMatP= 2.72D+00
 IDIUse=3 WtCom= 0.00D+00 WtEn= 1.00D+00
 Coeff-Com:  0.128D+00-0.530D-01 0.475D+00 0.450D+00
 Coeff-En:   0.000D+00 0.000D+00 0.462D+00 0.538D+00
 Coeff:      0.000D+00 0.000D+00 0.462D+00 0.538D+00
 Gap=     0.214 Goal=   None    Shift=    0.000
 RMSDP=3.69D-02 MaxDP=3.54D+00 DE=-2.39D-01 OVMax= 4.93D-01

 Cycle   5  Pass 1  IDiag  1:
 RMSU=  2.07D-02    CP:  1.53D-03  2.06D-01  1.08D+00  4.95D-01
 E= -3010.33043063689     Delta-E=       -1.064707960729 Rises=F Damp=F
 DIIS: error= 4.28D-02 at cycle   5 NSaved=   5.
 NSaved= 5 IEnMin= 5 EnMin= -3010.33043063689     IErMin= 5 ErrMin= 4.28D-02
 ErrMax= 4.28D-02  0.00D+00 EMaxC= 1.00D-01 BMatC= 3.93D-01 BMatP= 1.86D+00
 IDIUse=3 WtCom= 5.72D-01 WtEn= 4.28D-01
 Coeff-Com: -0.453D-01 0.637D-01 0.176D+00 0.289D+00 0.517D+00
 Coeff-En:   0.000D+00 0.000D+00 0.000D+00 0.158D+00 0.842D+00
 Coeff:     -0.259D-01 0.364D-01 0.101D+00 0.233D+00 0.656D+00
 Gap=     0.266 Goal=   None    Shift=    0.000
 RMSDP=1.58D-02 MaxDP=1.20D+00 DE=-1.06D+00 OVMax= 2.08D-01

 Cycle   6  Pass 1  IDiag  1:
 RMSU=  9.92D-03    CP:  1.41D-03  1.87D-01  9.63D-01  3.83D-01  5.85D-01
 E= -3010.53595180611     Delta-E=       -0.205521169222 Rises=F Damp=F
 DIIS: error= 2.48D-02 at cycle   6 NSaved=   6.
 NSaved= 6 IEnMin= 6 EnMin= -3010.53595180611     IErMin= 6 ErrMin= 2.48D-02
 ErrMax= 2.48D-02  0.00D+00 EMaxC= 1.00D-01 BMatC= 9.43D-02 BMatP= 3.93D-01
 IDIUse=3 WtCom= 7.52D-01 WtEn= 2.48D-01
 Coeff-Com: -0.394D-01 0.544D-01-0.407D-02 0.269D-01 0.349D+00 0.613D+00
 Coeff-En:   0.000D+00 0.000D+00 0.000D+00 0.000D+00 0.148D+00 0.852D+00
 Coeff:     -0.296D-01 0.410D-01-0.306D-02 0.202D-01 0.299D+00 0.672D+00
 Gap=     0.271 Goal=   None    Shift=    0.000
 RMSDP=5.64D-03 MaxDP=4.34D-01 DE=-2.06D-01 OVMax= 8.58D-02

 Cycle   7  Pass 1  IDiag  1:
 RMSU=  4.27D-03    CP:  1.39D-03  1.96D-01  9.60D-01  3.22D-01  6.36D-01
                    CP:  8.56D-01
 E= -3010.57962084133     Delta-E=       -0.043669035217 Rises=F Damp=F
 DIIS: error= 6.54D-03 at cycle   7 NSaved=   7.
 NSaved= 7 IEnMin= 7 EnMin= -3010.57962084133     IErMin= 7 ErrMin= 6.54D-03
 ErrMax= 6.54D-03  0.00D+00 EMaxC= 1.00D-01 BMatC= 6.41D-03 BMatP= 9.43D-02
 IDIUse=3 WtCom= 9.35D-01 WtEn= 6.54D-02
 Coeff-Com: -0.958D-02 0.133D-01-0.184D-01-0.870D-02 0.275D-01 0.250D+00
 Coeff-Com:  0.746D+00
 Coeff-En:   0.000D+00 0.000D+00 0.000D+00 0.000D+00 0.000D+00 0.413D-01
 Coeff-En:   0.959D+00
 Coeff:     -0.896D-02 0.125D-01-0.172D-01-0.813D-02 0.257D-01 0.236D+00
 Coeff:      0.760D+00
 Gap=     0.229 Goal=   None    Shift=    0.000
 RMSDP=1.76D-03 MaxDP=9.86D-02 DE=-4.37D-02 OVMax= 2.23D-02

 Cycle   8  Pass 1  IDiag  1:
 RMSU=  1.10D-03    CP:  1.40D-03  1.91D-01  9.52D-01  3.14D-01  6.33D-01
                    CP:  9.41D-01  1.01D+00
 E= -3010.58403569601     Delta-E=       -0.004414854681 Rises=F Damp=F
 DIIS: error= 1.05D-03 at cycle   8 NSaved=   8.
 NSaved= 8 IEnMin= 8 EnMin= -3010.58403569601     IErMin= 8 ErrMin= 1.05D-03
 ErrMax= 1.05D-03  0.00D+00 EMaxC= 1.00D-01 BMatC= 2.47D-04 BMatP= 6.41D-03
 IDIUse=3 WtCom= 9.89D-01 WtEn= 1.05D-02
 Coeff-Com: -0.319D-02 0.404D-02-0.705D-02-0.409D-02-0.932D-02 0.528D-01
 Coeff-Com:  0.323D+00 0.644D+00
 Coeff-En:   0.000D+00 0.000D+00 0.000D+00 0.000D+00 0.000D+00 0.000D+00
 Coeff-En:   0.000D+00 0.100D+01
 Coeff:     -0.316D-02 0.399D-02-0.698D-02-0.405D-02-0.922D-02 0.523D-01
 Coeff:      0.319D+00 0.648D+00
 Gap=     0.226 Goal=   None    Shift=    0.000
 RMSDP=7.24D-04 MaxDP=6.29D-02 DE=-4.41D-03 OVMax= 6.41D-03

 Cycle   9  Pass 1  IDiag  1:
 RMSU=  2.87D-04    CP:  1.40D-03  1.92D-01  9.53D-01  3.11D-01  6.28D-01
                    CP:  9.47D-01  1.14D+00  1.12D+00
 E= -3010.58435716788     Delta-E=       -0.000321471875 Rises=F Damp=F
 DIIS: error= 2.59D-04 at cycle   9 NSaved=   9.
 NSaved= 9 IEnMin= 9 EnMin= -3010.58435716788     IErMin= 9 ErrMin= 2.59D-04
 ErrMax= 2.59D-04  0.00D+00 EMaxC= 1.00D-01 BMatC= 2.26D-05 BMatP= 2.47D-04
 IDIUse=3 WtCom= 9.97D-01 WtEn= 2.59D-03
 Coeff-Com: -0.330D-04 0.422D-04 0.581D-03-0.512D-03-0.869D-02-0.231D-01
 Coeff-Com: -0.199D-01 0.184D+00 0.868D+00
 Coeff-En:   0.000D+00 0.000D+00 0.000D+00 0.000D+00 0.000D+00 0.000D+00
 Coeff-En:   0.000D+00 0.000D+00 0.100D+01
 Coeff:     -0.329D-04 0.421D-04 0.580D-03-0.510D-03-0.867D-02-0.230D-01
 Coeff:     -0.198D-01 0.183D+00 0.868D+00
 Gap=     0.226 Goal=   None    Shift=    0.000
 RMSDP=3.51D-04 MaxDP=1.98D-02 DE=-3.21D-04 OVMax= 8.31D-03

 Cycle  10  Pass 1  IDiag  1:
 RMSU=  1.14D-04    CP:  1.40D-03  1.92D-01  9.54D-01  3.08D-01  6.27D-01
                    CP:  9.54D-01  1.19D+00  1.28D+00  1.25D+00
 E= -3010.58445027063     Delta-E=       -0.000093102747 Rises=F Damp=F
 DIIS: error= 1.32D-04 at cycle  10 NSaved=  10.
 NSaved=10 IEnMin=10 EnMin= -3010.58445027063     IErMin=10 ErrMin= 1.32D-04
 ErrMax= 1.32D-04  0.00D+00 EMaxC= 1.00D-01 BMatC= 5.48D-06 BMatP= 2.26D-05
 IDIUse=3 WtCom= 9.99D-01 WtEn= 1.32D-03
 Coeff-Com:  0.140D-03-0.178D-03 0.916D-03 0.890D-04-0.883D-03-0.136D-01
 Coeff-Com: -0.502D-01-0.397D-01 0.289D+00 0.814D+00
 Coeff-En:   0.000D+00 0.000D+00 0.000D+00 0.000D+00 0.000D+00 0.000D+00
 Coeff-En:   0.000D+00 0.000D+00 0.000D+00 0.100D+01
 Coeff:      0.140D-03-0.178D-03 0.914D-03 0.889D-04-0.882D-03-0.136D-01
 Coeff:     -0.502D-01-0.397D-01 0.289D+00 0.814D+00
 Gap=     0.226 Goal=   None    Shift=    0.000
 RMSDP=1.67D-04 MaxDP=1.04D-02 DE=-9.31D-05 OVMax= 5.67D-03

 Cycle  11  Pass 1  IDiag  1:
 RMSU=  8.30D-05    CP:  1.40D-03  1.92D-01  9.52D-01  3.07D-01  6.27D-01
                    CP:  9.54D-01  1.21D+00  1.35D+00  1.28D+00  1.55D+00
 E= -3010.58448364197     Delta-E=       -0.000033371344 Rises=F Damp=F
 DIIS: error= 1.11D-04 at cycle  11 NSaved=  11.
 NSaved=11 IEnMin=11 EnMin= -3010.58448364197     IErMin=11 ErrMin= 1.11D-04
 ErrMax= 1.11D-04  0.00D+00 EMaxC= 1.00D-01 BMatC= 2.26D-06 BMatP= 5.48D-06
 IDIUse=3 WtCom= 9.99D-01 WtEn= 1.11D-03
 Coeff-Com: -0.134D-03 0.164D-03-0.453D-04 0.247D-03 0.325D-02 0.234D-02
 Coeff-Com: -0.127D-01-0.865D-01-0.221D+00 0.300D+00 0.101D+01
 Coeff-En:   0.000D+00 0.000D+00 0.000D+00 0.000D+00 0.000D+00 0.000D+00
 Coeff-En:   0.000D+00 0.000D+00 0.000D+00 0.000D+00 0.100D+01
 Coeff:     -0.134D-03 0.164D-03-0.453D-04 0.247D-03 0.325D-02 0.234D-02
 Coeff:     -0.127D-01-0.864D-01-0.221D+00 0.300D+00 0.101D+01
 Gap=     0.226 Goal=   None    Shift=    0.000
 RMSDP=1.52D-04 MaxDP=1.63D-02 DE=-3.34D-05 OVMax= 5.57D-03

 Cycle  12  Pass 1  IDiag  1:
 RMSU=  4.22D-05    CP:  1.40D-03  1.92D-01  9.53D-01  3.06D-01  6.29D-01
                    CP:  9.53D-01  1.22D+00  1.38D+00  1.30D+00  2.26D+00
                    CP:  1.66D+00
 E= -3010.58450234462     Delta-E=       -0.000018702651 Rises=F Damp=F
 DIIS: error= 4.07D-05 at cycle  12 NSaved=  12.
 NSaved=12 IEnMin=12 EnMin= -3010.58450234462     IErMin=12 ErrMin= 4.07D-05
 ErrMax= 4.07D-05  0.00D+00 EMaxC= 1.00D-01 BMatC= 6.35D-07 BMatP= 2.26D-06
 IDIUse=1 WtCom= 1.00D+00 WtEn= 0.00D+00
 Coeff-Com: -0.654D-04 0.690D-04-0.170D-03 0.283D-03 0.115D-02 0.362D-02
 Coeff-Com:  0.972D-02-0.195D-01-0.156D+00-0.151D+00 0.433D+00 0.878D+00
 Coeff:     -0.654D-04 0.690D-04-0.170D-03 0.283D-03 0.115D-02 0.362D-02
 Coeff:      0.972D-02-0.195D-01-0.156D+00-0.151D+00 0.433D+00 0.878D+00
 Gap=     0.226 Goal=   None    Shift=    0.000
 RMSDP=6.79D-05 MaxDP=3.72D-03 DE=-1.87D-05 OVMax= 3.05D-03

 Cycle  13  Pass 1  IDiag  1:
 RMSU=  2.28D-05    CP:  1.40D-03  1.92D-01  9.53D-01  3.06D-01  6.30D-01
                    CP:  9.50D-01  1.23D+00  1.40D+00  1.31D+00  2.53D+00
                    CP:  2.07D+00  1.30D+00
 E= -3010.58450681048     Delta-E=       -0.000004465860 Rises=F Damp=F
 DIIS: error= 1.87D-05 at cycle  13 NSaved=  13.
 NSaved=13 IEnMin=13 EnMin= -3010.58450681048     IErMin=13 ErrMin= 1.87D-05
 ErrMax= 1.87D-05  0.00D+00 EMaxC= 1.00D-01 BMatC= 9.45D-08 BMatP= 6.35D-07
 IDIUse=1 WtCom= 1.00D+00 WtEn= 0.00D+00
 Coeff-Com: -0.381D-04 0.606D-04-0.259D-04 0.417D-04-0.438D-03 0.428D-03
 Coeff-Com:  0.426D-02 0.139D-01 0.225D-01-0.108D+00-0.135D+00 0.148D+00
 Coeff-Com:  0.106D+01
 Coeff:     -0.381D-04 0.606D-04-0.259D-04 0.417D-04-0.438D-03 0.428D-03
 Coeff:      0.426D-02 0.139D-01 0.225D-01-0.108D+00-0.135D+00 0.148D+00
 Coeff:      0.106D+01
 Gap=     0.226 Goal=   None    Shift=    0.000
 RMSDP=3.88D-05 MaxDP=3.75D-03 DE=-4.47D-06 OVMax= 1.51D-03

 Cycle  14  Pass 1  IDiag  1:
 RMSU=  7.85D-06    CP:  1.40D-03  1.92D-01  9.53D-01  3.07D-01  6.30D-01
                    CP:  9.49D-01  1.23D+00  1.40D+00  1.30D+00  2.64D+00
                    CP:  2.27D+00  1.62D+00  1.44D+00
 E= -3010.58450767180     Delta-E=       -0.000000861315 Rises=F Damp=F
 DIIS: error= 5.79D-06 at cycle  14 NSaved=  14.
 NSaved=14 IEnMin=14 EnMin= -3010.58450767180     IErMin=14 ErrMin= 5.79D-06
 ErrMax= 5.79D-06  0.00D+00 EMaxC= 1.00D-01 BMatC= 1.93D-08 BMatP= 9.45D-08
 IDIUse=1 WtCom= 1.00D+00 WtEn= 0.00D+00
 Coeff-Com: -0.151D-04 0.238D-04 0.819D-05-0.221D-04-0.256D-03-0.283D-03
 Coeff-Com: -0.221D-03 0.681D-02 0.323D-01-0.127D-03-0.121D+00-0.104D+00
 Coeff-Com:  0.307D+00 0.879D+00
 Coeff:     -0.151D-04 0.238D-04 0.819D-05-0.221D-04-0.256D-03-0.283D-03
 Coeff:     -0.221D-03 0.681D-02 0.323D-01-0.127D-03-0.121D+00-0.104D+00
 Coeff:      0.307D+00 0.879D+00
 Gap=     0.226 Goal=   None    Shift=    0.000
 RMSDP=1.41D-05 MaxDP=1.35D-03 DE=-8.61D-07 OVMax= 4.34D-04

 Cycle  15  Pass 1  IDiag  1:
 RMSU=  2.46D-06    CP:  1.40D-03  1.93D-01  9.53D-01  3.07D-01  6.30D-01
                    CP:  9.49D-01  1.23D+00  1.41D+00  1.30D+00  2.65D+00
                    CP:  2.32D+00  1.71D+00  1.63D+00  1.42D+00
 E= -3010.58450776843     Delta-E=       -0.000000096633 Rises=F Damp=F
 DIIS: error= 3.03D-06 at cycle  15 NSaved=  15.
 NSaved=15 IEnMin=15 EnMin= -3010.58450776843     IErMin=15 ErrMin= 3.03D-06
 ErrMax= 3.03D-06  0.00D+00 EMaxC= 1.00D-01 BMatC= 3.24D-09 BMatP= 1.93D-08
 IDIUse=1 WtCom= 1.00D+00 WtEn= 0.00D+00
 Coeff-Com:  0.758D-06-0.279D-05-0.383D-06-0.412D-05 0.384D-04-0.142D-03
 Coeff-Com: -0.795D-03-0.165D-02-0.105D-02 0.220D-01-0.377D-02-0.358D-01
 Coeff-Com: -0.140D+00 0.215D+00 0.946D+00
 Coeff:      0.758D-06-0.279D-05-0.383D-06-0.412D-05 0.384D-04-0.142D-03
 Coeff:     -0.795D-03-0.165D-02-0.105D-02 0.220D-01-0.377D-02-0.358D-01
 Coeff:     -0.140D+00 0.215D+00 0.946D+00
 Gap=     0.226 Goal=   None    Shift=    0.000
 RMSDP=6.57D-06 MaxDP=5.62D-04 DE=-9.66D-08 OVMax= 1.76D-04

 Cycle  16  Pass 1  IDiag  1:
 RMSU=  1.23D-06    CP:  1.40D-03  1.93D-01  9.53D-01  3.07D-01  6.31D-01
                    CP:  9.48D-01  1.23D+00  1.41D+00  1.30D+00  2.65D+00
                    CP:  2.32D+00  1.75D+00  1.70D+00  1.57D+00  1.29D+00
 E= -3010.58450778288     Delta-E=       -0.000000014446 Rises=F Damp=F
 DIIS: error= 1.09D-06 at cycle  16 NSaved=  16.
 NSaved=16 IEnMin=16 EnMin= -3010.58450778288     IErMin=16 ErrMin= 1.09D-06
 ErrMax= 1.09D-06  0.00D+00 EMaxC= 1.00D-01 BMatC= 4.11D-10 BMatP= 3.24D-09
 IDIUse=1 WtCom= 1.00D+00 WtEn= 0.00D+00
 Coeff-Com:  0.288D-05-0.453D-05-0.220D-05-0.196D-06 0.199D-04 0.396D-05
 Coeff-Com: -0.521D-04-0.797D-03-0.307D-02 0.484D-02 0.115D-01 0.388D-02
 Coeff-Com: -0.586D-01-0.777D-01 0.191D+00 0.929D+00
 Coeff:      0.288D-05-0.453D-05-0.220D-05-0.196D-06 0.199D-04 0.396D-05
 Coeff:     -0.521D-04-0.797D-03-0.307D-02 0.484D-02 0.115D-01 0.388D-02
 Coeff:     -0.586D-01-0.777D-01 0.191D+00 0.929D+00
 Gap=     0.226 Goal=   None    Shift=    0.000
 RMSDP=2.33D-06 MaxDP=2.02D-04 DE=-1.44D-08 OVMax= 2.69D-05

 Cycle  17  Pass 1  IDiag  1:
 RMSU=  4.21D-07    CP:  1.40D-03  1.93D-01  9.53D-01  3.07D-01  6.30D-01
                    CP:  9.48D-01  1.23D+00  1.41D+00  1.30D+00  2.65D+00
                    CP:  2.32D+00  1.75D+00  1.71D+00  1.62D+00  1.51D+00
                    CP:  1.33D+00
 E= -3010.58450778438     Delta-E=       -0.000000001507 Rises=F Damp=F
 DIIS: error= 5.99D-07 at cycle  17 NSaved=  17.
 NSaved=17 IEnMin=17 EnMin= -3010.58450778438     IErMin=17 ErrMin= 5.99D-07
 ErrMax= 5.99D-07  0.00D+00 EMaxC= 1.00D-01 BMatC= 1.01D-10 BMatP= 4.11D-10
 IDIUse=1 WtCom= 1.00D+00 WtEn= 0.00D+00
 Coeff-Com:  0.159D-05-0.225D-05-0.201D-05 0.482D-06 0.569D-05 0.410D-04
 Coeff-Com:  0.127D-03-0.133D-03-0.139D-02-0.163D-02 0.543D-02 0.708D-02
 Coeff-Com:  0.230D-02-0.679D-01-0.687D-01 0.381D+00 0.744D+00
 Coeff:      0.159D-05-0.225D-05-0.201D-05 0.482D-06 0.569D-05 0.410D-04
 Coeff:      0.127D-03-0.133D-03-0.139D-02-0.163D-02 0.543D-02 0.708D-02
 Coeff:      0.230D-02-0.679D-01-0.687D-01 0.381D+00 0.744D+00
 Gap=     0.226 Goal=   None    Shift=    0.000
 RMSDP=8.18D-07 MaxDP=5.82D-05 DE=-1.51D-09 OVMax= 9.18D-06

 Cycle  18  Pass 1  IDiag  1:
 RMSU=  2.54D-07    CP:  1.40D-03  1.93D-01  9.53D-01  3.07D-01  6.30D-01
                    CP:  9.48D-01  1.23D+00  1.41D+00  1.30D+00  2.65D+00
                    CP:  2.32D+00  1.74D+00  1.71D+00  1.63D+00  1.57D+00
                    CP:  1.46D+00  1.20D+00
 E= -3010.58450778467     Delta-E=       -0.000000000281 Rises=F Damp=F
 DIIS: error= 3.18D-07 at cycle  18 NSaved=  18.
 NSaved=18 IEnMin=18 EnMin= -3010.58450778467     IErMin=18 ErrMin= 3.18D-07
 ErrMax= 3.18D-07  0.00D+00 EMaxC= 1.00D-01 BMatC= 1.37D-11 BMatP= 1.01D-10
 IDIUse=1 WtCom= 1.00D+00 WtEn= 0.00D+00
 Coeff-Com:  0.145D-06-0.160D-06-0.307D-06 0.173D-06-0.197D-05 0.984D-05
 Coeff-Com:  0.390D-04 0.146D-03 0.362D-03-0.109D-02-0.145D-02 0.457D-03
 Coeff-Com:  0.118D-01 0.481D-04-0.501D-01-0.110D+00 0.104D+00 0.105D+01
 Coeff:      0.145D-06-0.160D-06-0.307D-06 0.173D-06-0.197D-05 0.984D-05
 Coeff:      0.390D-04 0.146D-03 0.362D-03-0.109D-02-0.145D-02 0.457D-03
 Coeff:      0.118D-01 0.481D-04-0.501D-01-0.110D+00 0.104D+00 0.105D+01
 Gap=     0.226 Goal=   None    Shift=    0.000
 RMSDP=4.48D-07 MaxDP=2.67D-05 DE=-2.81D-10 OVMax= 7.44D-06

 Cycle  19  Pass 1  IDiag  1:
 RMSU=  8.03D-08    CP:  1.40D-03  1.93D-01  9.53D-01  3.07D-01  6.30D-01
                    CP:  9.48D-01  1.23D+00  1.41D+00  1.30D+00  2.65D+00
                    CP:  2.31D+00  1.74D+00  1.71D+00  1.63D+00  1.59D+00
                    CP:  1.53D+00  1.43D+00  1.42D+00
 E= -3010.58450778474     Delta-E=       -0.000000000077 Rises=F Damp=F
 DIIS: error= 1.61D-07 at cycle  19 NSaved=  19.
 NSaved=19 IEnMin=19 EnMin= -3010.58450778474     IErMin=19 ErrMin= 1.61D-07
 ErrMax= 1.61D-07  0.00D+00 EMaxC= 1.00D-01 BMatC= 2.81D-12 BMatP= 1.37D-11
 IDIUse=1 WtCom= 1.00D+00 WtEn= 0.00D+00
 Coeff-Com: -0.268D-06 0.413D-06 0.307D-06-0.280D-06-0.565D-06-0.464D-05
 Coeff-Com: -0.153D-04 0.242D-04 0.207D-03 0.128D-03-0.829D-03-0.744D-03
 Coeff-Com:  0.349D-03 0.989D-02 0.629D-02-0.529D-01-0.119D+00 0.130D+00
 Coeff-Com:  0.103D+01
 Coeff:     -0.268D-06 0.413D-06 0.307D-06-0.280D-06-0.565D-06-0.464D-05
 Coeff:     -0.153D-04 0.242D-04 0.207D-03 0.128D-03-0.829D-03-0.744D-03
 Coeff:      0.349D-03 0.989D-02 0.629D-02-0.529D-01-0.119D+00 0.130D+00
 Coeff:      0.103D+01
 Gap=     0.226 Goal=   None    Shift=    0.000
 RMSDP=1.15D-07 MaxDP=9.35D-06 DE=-7.73D-11 OVMax= 4.02D-06

 Cycle  20  Pass 1  IDiag  1:
 RMSU=  4.14D-08    CP:  1.40D-03  1.93D-01  9.53D-01  3.07D-01  6.30D-01
                    CP:  9.48D-01  1.23D+00  1.41D+00  1.30D+00  2.65D+00
                    CP:  2.31D+00  1.74D+00  1.72D+00  1.63D+00  1.58D+00
                    CP:  1.54D+00  1.48D+00  1.65D+00  1.44D+00
 E= -3010.58450778476     Delta-E=       -0.000000000013 Rises=F Damp=F
 DIIS: error= 9.24D-08 at cycle  20 NSaved=  20.
 NSaved=20 IEnMin=20 EnMin= -3010.58450778476     IErMin=20 ErrMin= 9.24D-08
 ErrMax= 9.24D-08  0.00D+00 EMaxC= 1.00D-01 BMatC= 8.68D-13 BMatP= 2.81D-12
 IDIUse=1 WtCom= 1.00D+00 WtEn= 0.00D+00
 Coeff-Com: -0.123D-06 0.165D-06 0.336D-06-0.585D-07-0.159D-06-0.579D-05
 Coeff-Com: -0.143D-04-0.260D-04-0.294D-04 0.251D-03 0.261D-03-0.183D-03
 Coeff-Com: -0.319D-02 0.137D-02 0.116D-01 0.222D-01-0.565D-01-0.200D+00
 Coeff-Com:  0.453D-01 0.118D+01
 Coeff:     -0.123D-06 0.165D-06 0.336D-06-0.585D-07-0.159D-06-0.579D-05
 Coeff:     -0.143D-04-0.260D-04-0.294D-04 0.251D-03 0.261D-03-0.183D-03
 Coeff:     -0.319D-02 0.137D-02 0.116D-01 0.222D-01-0.565D-01-0.200D+00
 Coeff:      0.453D-01 0.118D+01
 Gap=     0.226 Goal=   None    Shift=    0.000
 RMSDP=7.74D-08 MaxDP=6.07D-06 DE=-1.32D-11 OVMax= 3.23D-06

 Cycle  21  Pass 1  IDiag  1:
 Restarting incremental Fock formation.
 E= -3010.58450778479     Delta-E=       -0.000000000035 Rises=F Damp=F
 DIIS: error= 2.32D-08 at cycle  21 NSaved=  20.
 NSaved=20 IEnMin=20 EnMin= -3010.58450778479     IErMin=20 ErrMin= 2.32D-08
 ErrMax= 2.32D-08  0.00D+00 EMaxC= 1.00D-01 BMatC= 2.28D-13 BMatP= 8.68D-13
 IDIUse=1 WtCom= 1.00D+00 WtEn= 0.00D+00
 Coeff-Com: -0.155D-07 0.150D-07 0.729D-07 0.154D-06-0.144D-06 0.120D-05
 Coeff-Com: -0.132D-04-0.638D-04 0.195D-05 0.309D-03 0.123D-03-0.924D-03
 Coeff-Com: -0.168D-02 0.163D-02 0.179D-01 0.475D-02-0.606D-01-0.309D+00
 Coeff-Com:  0.328D+00 0.102D+01
 Coeff:     -0.155D-07 0.150D-07 0.729D-07 0.154D-06-0.144D-06 0.120D-05
 Coeff:     -0.132D-04-0.638D-04 0.195D-05 0.309D-03 0.123D-03-0.924D-03
 Coeff:     -0.168D-02 0.163D-02 0.179D-01 0.475D-02-0.606D-01-0.309D+00
 Coeff:      0.328D+00 0.102D+01
 Gap=     0.226 Goal=   None    Shift=    0.000
 RMSDP=5.19D-08 MaxDP=3.97D-06 DE=-3.50D-11 OVMax= 1.93D-06

 Cycle  22  Pass 1  IDiag  1:
 RMSU=  5.16D-08    CP:  1.00D+00
 E= -3010.58450778478     Delta-E=        0.000000000009 Rises=F Damp=F
 DIIS: error= 1.27D-08 at cycle  22 NSaved=  20.
 NSaved=20 IEnMin=19 EnMin= -3010.58450778479     IErMin=20 ErrMin= 1.27D-08
 ErrMax= 1.27D-08  0.00D+00 EMaxC= 1.00D-01 BMatC= 3.49D-14 BMatP= 2.28D-13
 IDIUse=1 WtCom= 1.00D+00 WtEn= 0.00D+00
 Coeff-Com: -0.751D-07 0.674D-08 0.140D-06 0.117D-05 0.283D-05 0.515D-06
 Coeff-Com: -0.711D-05-0.346D-04 0.430D-04 0.175D-04 0.196D-03-0.402D-03
 Coeff-Com: -0.864D-03 0.765D-03 0.218D-02 0.221D-01-0.700D-01-0.779D-01
 Coeff-Com:  0.187D+00 0.937D+00
 Coeff:     -0.751D-07 0.674D-08 0.140D-06 0.117D-05 0.283D-05 0.515D-06
 Coeff:     -0.711D-05-0.346D-04 0.430D-04 0.175D-04 0.196D-03-0.402D-03
 Coeff:     -0.864D-03 0.765D-03 0.218D-02 0.221D-01-0.700D-01-0.779D-01
 Coeff:      0.187D+00 0.937D+00
 Gap=     0.226 Goal=   None    Shift=    0.000
 RMSDP=2.15D-08 MaxDP=1.42D-06 DE= 9.09D-12 OVMax= 6.33D-07

 Cycle  23  Pass 1  IDiag  1:
 RMSU=  1.05D-08    CP:  1.00D+00  1.34D+00
 E= -3010.58450778483     Delta-E=       -0.000000000046 Rises=F Damp=F
 DIIS: error= 4.95D-09 at cycle  23 NSaved=  20.
 NSaved=20 IEnMin=20 EnMin= -3010.58450778483     IErMin=20 ErrMin= 4.95D-09
 ErrMax= 4.95D-09  0.00D+00 EMaxC= 1.00D-01 BMatC= 9.15D-15 BMatP= 3.49D-14
 IDIUse=1 WtCom= 1.00D+00 WtEn= 0.00D+00
 Coeff-Com: -0.103D-08 0.104D-07-0.445D-07-0.100D-05 0.160D-05 0.165D-04
 Coeff-Com:  0.470D-05-0.690D-04-0.487D-04 0.163D-03 0.453D-03-0.149D-03
 Coeff-Com: -0.336D-02-0.508D-02 0.157D-01 0.757D-01-0.679D-01-0.281D+00
 Coeff-Com:  0.385D-01 0.123D+01
 Coeff:     -0.103D-08 0.104D-07-0.445D-07-0.100D-05 0.160D-05 0.165D-04
 Coeff:      0.470D-05-0.690D-04-0.487D-04 0.163D-03 0.453D-03-0.149D-03
 Coeff:     -0.336D-02-0.508D-02 0.157D-01 0.757D-01-0.679D-01-0.281D+00
 Coeff:      0.385D-01 0.123D+01
 Gap=     0.226 Goal=   None    Shift=    0.000
 RMSDP=1.12D-08 MaxDP=7.03D-07 DE=-4.64D-11 OVMax= 4.22D-07

 Cycle  24  Pass 1  IDiag  1:
 RMSU=  4.32D-09    CP:  1.00D+00  1.50D+00  1.44D+00
 E= -3010.58450778477     Delta-E=        0.000000000061 Rises=F Damp=F
 DIIS: error= 3.80D-09 at cycle  24 NSaved=  20.
 NSaved=20 IEnMin=19 EnMin= -3010.58450778483     IErMin=20 ErrMin= 3.80D-09
 ErrMax= 3.80D-09  0.00D+00 EMaxC= 1.00D-01 BMatC= 1.48D-15 BMatP= 9.15D-15
 IDIUse=1 WtCom= 1.00D+00 WtEn= 0.00D+00
 Large coefficients: NSaved= 20 BigCof=    0.00 CofMax=   10.00 Det=-1.83D-15
 Inversion failed.  Reducing to 19 matrices.
 Large coefficients: NSaved= 19 BigCof=    0.00 CofMax=   10.00 Det=-1.84D-15
 Inversion failed.  Reducing to 18 matrices.
 Large coefficients: NSaved= 18 BigCof=    0.00 CofMax=   10.00 Det=-1.85D-15
 Inversion failed.  Reducing to 17 matrices.
 Large coefficients: NSaved= 17 BigCof=    0.00 CofMax=   10.00 Det=-2.55D-15
 Inversion failed.  Reducing to 16 matrices.
 Large coefficients: NSaved= 16 BigCof=    0.00 CofMax=   10.00 Det=-2.71D-15
 Inversion failed.  Reducing to 15 matrices.
 Coeff-Com: -0.167D-05-0.385D-05 0.886D-05 0.215D-04 0.111D-04-0.197D-03
 Coeff-Com: -0.286D-03-0.167D-03 0.339D-02 0.114D-01-0.408D-02-0.586D-01
 Coeff-Com: -0.108D+00 0.124D+00 0.103D+01
 Coeff:     -0.167D-05-0.385D-05 0.886D-05 0.215D-04 0.111D-04-0.197D-03
 Coeff:     -0.286D-03-0.167D-03 0.339D-02 0.114D-01-0.408D-02-0.586D-01
 Coeff:     -0.108D+00 0.124D+00 0.103D+01
 Gap=     0.226 Goal=   None    Shift=    0.000
 RMSDP=3.99D-09 MaxDP=4.20D-07 DE= 6.09D-11 OVMax= 1.66D-07

 SCF Done:  E(RwB97XD) =  -3010.58450778     A.U. after   24 cycles
            NFock= 24  Conv=0.40D-08     -V/T= 2.0016
 KE= 3.005780240945D+03 PE=-8.694644258220D+03 EE= 1.908700038037D+03
 Leave Link  502 at Thu May  2 14:24:02 2024, MaxMem=   134217728 cpu:            1480.1 elap:            1480.4
 (Enter /software/gaussian/g16-c01/sse4/g16/l601.exe)
 Copying SCF densities to generalized density rwf, IOpCl= 0 IROHF=0.

 **********************************************************************

            Population analysis using the SCF Density.

 **********************************************************************

 Alpha  occ. eigenvalues -- -483.27536 -62.82483 -56.62234 -56.61598 -56.61571
 Alpha  occ. eigenvalues --  -19.46533 -19.46039 -14.85428 -10.58523 -10.56685
 Alpha  occ. eigenvalues --  -10.55072 -10.54416 -10.53922 -10.51925  -8.98232
 Alpha  occ. eigenvalues --   -6.81057  -6.78981  -6.78898  -2.90923  -2.90393
 Alpha  occ. eigenvalues --   -2.90328  -2.88668  -2.88666  -1.49834  -1.32819
 Alpha  occ. eigenvalues --   -1.21183  -1.11977  -1.10686  -1.02624  -0.98762
 Alpha  occ. eigenvalues --   -0.94003  -0.89724  -0.84734  -0.80446  -0.79866
 Alpha  occ. eigenvalues --   -0.79202  -0.77119  -0.75805  -0.74185  -0.70480
 Alpha  occ. eigenvalues --   -0.67161  -0.66255  -0.61768  -0.58131  -0.57439
 Alpha  occ. eigenvalues --   -0.56485  -0.55643  -0.51427  -0.50990
 Alpha virt. eigenvalues --   -0.28408  -0.20900  -0.20168  -0.16480  -0.13382
 Alpha virt. eigenvalues --   -0.11926  -0.09749  -0.09561  -0.07372  -0.05324
 Alpha virt. eigenvalues --   -0.05055  -0.03292  -0.01461  -0.00690  -0.00414
 Alpha virt. eigenvalues --   -0.00230   0.01878   0.02671   0.03054   0.03826
 Alpha virt. eigenvalues --    0.04618   0.06239   0.06312   0.07516   0.08266
 Alpha virt. eigenvalues --    0.08678   0.08858   0.09444   0.10145   0.11486
 Alpha virt. eigenvalues --    0.12159   0.12664   0.13871   0.14602   0.14670
 Alpha virt. eigenvalues --    0.15436   0.16372   0.16744   0.17258   0.17813
 Alpha virt. eigenvalues --    0.18876   0.19801   0.20532   0.21393   0.22233
 Alpha virt. eigenvalues --    0.23608   0.25219   0.25718   0.26388   0.27309
 Alpha virt. eigenvalues --    0.28121   0.28771   0.29927   0.31935   0.33876
 Alpha virt. eigenvalues --    0.34287   0.34934   0.37353   0.38386   0.38637
 Alpha virt. eigenvalues --    0.39780   0.40643   0.41822   0.43654   0.44615
 Alpha virt. eigenvalues --    0.44948   0.45816   0.46417   0.47621   0.49276
 Alpha virt. eigenvalues --    0.50548   0.52403   0.52982   0.53206   0.54737
 Alpha virt. eigenvalues --    0.55393   0.57542   0.58665   0.61281   0.61546
 Alpha virt. eigenvalues --    0.64219   0.64921   0.67675   0.68462   0.69557
 Alpha virt. eigenvalues --    0.71338   0.72025   0.74130   0.75284   0.76612
 Alpha virt. eigenvalues --    0.77739   0.78973   0.80550   0.86604   0.87214
 Alpha virt. eigenvalues --    0.88385   0.89288   0.91947   0.95208   0.97936
 Alpha virt. eigenvalues --    1.01838   1.03506   1.03970   1.06782   1.07695
 Alpha virt. eigenvalues --    1.10724   1.12933   1.13672   1.14358   1.18142
 Alpha virt. eigenvalues --    1.22754   1.24675   1.28542   1.35541   1.37011
 Alpha virt. eigenvalues --    1.38101   1.40203   1.45401   1.56771   1.57431
 Alpha virt. eigenvalues --    1.58114   1.60372   1.62627   1.64715   1.67457
 Alpha virt. eigenvalues --    1.68701   1.72657   1.74739   1.76648   1.80586
 Alpha virt. eigenvalues --    1.84542   1.86127   1.88397   1.98229   1.99401
 Alpha virt. eigenvalues --    1.99709   2.03785   2.05524   2.08717   2.10780
 Alpha virt. eigenvalues --    2.14914   2.16458   2.23217   2.24428   2.26826
 Alpha virt. eigenvalues --    2.34093   2.41116   2.42847   2.45988   2.54025
 Alpha virt. eigenvalues --    2.60217   2.63874   2.66697   2.69648   2.71710
 Alpha virt. eigenvalues --    2.73980   2.76498   2.78276   2.80993   2.83710
 Alpha virt. eigenvalues --    2.95074   2.99267   3.02266   3.08046   3.09796
 Alpha virt. eigenvalues --    3.15493   3.16233   3.19439   3.22963   3.26433
 Alpha virt. eigenvalues --    3.27559   3.38567   3.46901   3.51081   3.54836
 Alpha virt. eigenvalues --    3.58819   3.69085   3.74420   3.84981   3.88615
 Alpha virt. eigenvalues --    4.14192   4.15105   4.23257   4.27602   4.44854
 Alpha virt. eigenvalues --    4.47668   4.56057   4.60132   4.93159   4.96732
 Alpha virt. eigenvalues --    5.04625   5.10343   5.62096   6.15167   6.72268
 Alpha virt. eigenvalues --    7.53167   7.55457   7.65460  23.23291  23.62317
 Alpha virt. eigenvalues --   23.75056  23.79087  23.96762  24.02408  35.31732
 Alpha virt. eigenvalues --   47.97940  49.85169  49.93844 289.85486 289.87821
 Alpha virt. eigenvalues --  290.004031020.98996
          Condensed to atoms (all electrons):
               1          2          3          4          5          6
     1  C   10.933106  -5.907485   1.516939  -0.954712   0.257647   0.099051
     2  C   -5.907485  21.828696  -6.524065   1.086267  -0.051334   0.013337
     3  C    1.516939  -6.524065  18.940013  -2.015563   0.015539   0.302511
     4  C   -0.954712   1.086267  -2.015563   7.763618   0.112540  -0.048220
     5  H    0.257647  -0.051334   0.015539   0.112540   0.465357  -0.004114
     6  H    0.099051   0.013337   0.302511  -0.048220  -0.004114   0.425822
     7  H    0.002824  -0.023924   0.019173   0.276537  -0.004238  -0.000012
     8  N   -0.200853   0.278227  -1.524630  -0.057015  -0.000574  -0.048158
     9  O   -0.096894   0.321100  -0.235828   0.017881  -0.000065  -0.003755
    10  O    0.421932  -0.388218  -0.204584  -0.043767   0.000073   0.030511
    11  C    1.508919  -1.925518   2.085407  -1.053660  -0.044390   0.024008
    12  H    0.005180   0.014023  -0.004916  -0.004782   0.000043  -0.000025
    13  C   -1.408267  -2.932942  -6.072392   1.219323   0.031717  -0.025956
    14  H   -0.019836   0.038144   0.083724   0.021792  -0.000043   0.000027
    15  Br  -0.053827  -0.079272  -0.222949   0.094188   0.000099  -0.001202
               7          8          9         10         11         12
     1  C    0.002824  -0.200853  -0.096894   0.421932   1.508919   0.005180
     2  C   -0.023924   0.278227   0.321100  -0.388218  -1.925518   0.014023
     3  C    0.019173  -1.524630  -0.235828  -0.204584   2.085407  -0.004916
     4  C    0.276537  -0.057015   0.017881  -0.043767  -1.053660  -0.004782
     5  H   -0.004238  -0.000574  -0.000065   0.000073  -0.044390   0.000043
     6  H   -0.000012  -0.048158  -0.003755   0.030511   0.024008  -0.000025
     7  H    0.344689   0.000214  -0.000015   0.000008   0.073716  -0.001468
     8  N    0.000214   7.724237   0.140079   0.076198  -0.005920   0.001437
     9  O   -0.000015   0.140079   7.683707  -0.018735   0.158514   0.000002
    10  O    0.000008   0.076198  -0.018735   8.118304   0.050111  -0.000018
    11  C    0.073716  -0.005920   0.158514   0.050111   9.431980   0.320889
    12  H   -0.001468   0.001437   0.000002  -0.000018   0.320889   0.248729
    13  C   -0.012645   0.756254  -0.165256   0.040918  -4.477979  -0.020726
    14  H   -0.000064  -0.048860   0.015247  -0.002589  -0.104884  -0.003249
    15  Br  -0.000410   0.158924  -0.057280   0.002610   0.112108  -0.002158
              13         14         15
     1  C   -1.408267  -0.019836  -0.053827
     2  C   -2.932942   0.038144  -0.079272
     3  C   -6.072392   0.083724  -0.222949
     4  C    1.219323   0.021792   0.094188
     5  H    0.031717  -0.000043   0.000099
     6  H   -0.025956   0.000027  -0.001202
     7  H   -0.012645  -0.000064  -0.000410
     8  N    0.756254  -0.048860   0.158924
     9  O   -0.165256   0.015247  -0.057280
    10  O    0.040918  -0.002589   0.002610
    11  C   -4.477979  -0.104884   0.112108
    12  H   -0.020726  -0.003249  -0.002158
    13  C   18.979699   0.294558   0.227357
    14  H    0.294558   0.279210  -0.027171
    15  Br   0.227357  -0.027171  34.452006
 Mulliken charges:
               1
     1  C   -0.103723
     2  C    0.252965
     3  C   -0.158379
     4  C   -0.414428
     5  H    0.221743
     6  H    0.236175
     7  H    0.325615
     8  N   -0.249558
     9  O    0.241299
    10  O   -0.082753
    11  C   -0.153304
    12  H    0.447039
    13  C   -0.433662
    14  H    0.473994
    15  Br   0.396977
 Sum of Mulliken charges =   1.00000
 Mulliken charges with hydrogens summed into heavy atoms:
               1
     1  C    0.118020
     2  C    0.489140
     3  C   -0.158379
     4  C   -0.088813
     8  N   -0.249558
     9  O    0.241299
    10  O   -0.082753
    11  C    0.293736
    13  C    0.040332
    15  Br   0.396977
 Electronic spatial extent (au):  <R**2>=           3941.4512
 Charge=              1.0000 electrons
 Dipole moment (field-independent basis, Debye):
    X=              3.2029    Y=             -8.9657    Z=             -1.9025  Tot=              9.7089
 Quadrupole moment (field-independent basis, Debye-Ang):
   XX=            -67.4377   YY=            -48.0654   ZZ=            -59.3673
   XY=            -19.8319   XZ=             -5.0789   YZ=              6.7554
 Traceless Quadrupole moment (field-independent basis, Debye-Ang):
   XX=             -9.1476   YY=             10.2248   ZZ=             -1.0772
   XY=            -19.8319   XZ=             -5.0789   YZ=              6.7554
 Octapole moment (field-independent basis, Debye-Ang**2):
  XXX=           -514.9751  YYY=             43.8552  ZZZ=             74.2675  XYY=           -128.5489
  XXY=            -36.9012  XXZ=             19.9584  XZZ=           -125.5548  YZZ=              2.2582
  YYZ=             13.4873  XYZ=             17.4712
 Hexadecapole moment (field-independent basis, Debye-Ang**3):
 XXXX=          -3476.4169 YYYY=           -664.4563 ZZZZ=           -371.6629 XXXY=            -66.3465
 XXXZ=            172.4283 YYYX=             90.7649 YYYZ=           -133.7338 ZZZX=            147.8362
 ZZZY=           -117.0133 XXYY=           -609.8928 XXZZ=           -508.4737 YYZZ=           -143.4607
 XXYZ=            -17.6221 YYXZ=             22.1606 ZZXY=             -3.5149
 N-N= 7.695794714527D+02 E-N=-8.694644258287D+03  KE= 3.005780240945D+03
 No NMR shielding tensors so no spin-rotation constants.
 Leave Link  601 at Thu May  2 14:24:10 2024, MaxMem=   134217728 cpu:               7.7 elap:               7.7
 (Enter /software/gaussian/g16-c01/sse4/g16/l9999.exe)
 Unable to Open any file for archive entry.
 1\1\GINC-BHX0014\SP\RwB97XD\6-311+G(d)\C6H5Br1N1O2(1+)\BWEIGHT\02-May-
 2024\0\\#P wB97XD/6-311+G* NoSymm #P Field=Y+272\\TitleMe\\1,1\C,0,0.5
 193,1.233,-0.0319\C,0,1.9445,1.2692,-0.0367\C,0,2.6204,0.0928,-0.025\C
 ,0,-0.196,0.0301,0.001\H,0,-0.0207,2.1742,-0.0434\H,0,2.4828,2.2089,-0
 .0361\H,0,-1.2777,0.0399,0.0117\N,0,4.0921,0.0959,0.0366\O,0,4.6393,-1
 .0217,0.1446\O,0,4.6649,1.1984,-0.0233\C,0,0.4943,-1.1671,0.021\H,0,-0
 .0325,-2.1149,0.0545\C,0,1.9629,-1.2165,-0.0211\H,0,2.4436,-1.9631,0.6
 151\Br,0,2.173,-1.9491,-1.9062\\Version=ES64L-G16RevC.01\HF=-3010.5845
 078\RMSD=3.986e-09\Dipole=-3.0690785,-2.2992541,0.5007029\Quadrupole=-
 6.8009986,7.6018557,-0.8008571,-14.7445442,-3.7760505,5.0224557\PG=C01
  [X(C6H5Br1N1O2)]\\@
 The archive entry for this job was punched.


 KNOWLEDGE IS CHIMERA - FOR BEYOND IT LIES OTHER KNOWLEDGE,
 AND THE INCOMPLETENESS OF WHAT IS KNOWN RENDERS THE KNOWING FALSE.
     -- THE THOMAS COVENANT CHRONICLES
 Job cpu time:       0 days  0 hours 25 minutes 51.0 seconds.
 Elapsed time:       0 days  0 hours 25 minutes 51.4 seconds.
 File lengths (MBytes):  RWF=     40 Int=      0 D2E=      0 Chk=     32 Scr=      1
 Normal termination of Gaussian 16 at Thu May  2 14:24:11 2024.
