
Running Job 1 of 1 QCHEM.in
qchem QCHEM.in_7476.0 /local_scratch/17180077/QCLOCALSCR/save/ 0
/gpfs/fs2/scratch/phuo_lab/Program/Qchem/exe/qcprog.exe_s QCHEM.in_7476.0 /local_scratch/17180077/QCLOCALSCR/save/
                  Welcome to Q-Chem
     A Quantum Leap Into The Future Of Chemistry


 Q-Chem 6.0, Q-Chem, Inc., Pleasanton, CA (2022)

 License issued to: SRG Frank Huo, University of Rochester

 E. Epifanovsky,  A. T. B. Gilbert,  Xintian Feng,  Joonho Lee,  Yuezhi Mao,  
 N. Mardirossian,  P. Pokhilko,  A. White,  M. Wormit,  M. P. Coons,  
 A. L. Dempwolff,  Zhengting Gan,  D. Hait,  P. R. Horn,  L. D. Jacobson,  
 I. Kaliman,  J. Kussmann,  A. W. Lange,  Ka Un Lao,  D. S. Levine,  Jie Liu,  
 S. C. McKenzie,  A. F. Morrison,  K. Nanda,  F. Plasser,  D. R. Rehn,  
 M. L. Vidal,  Zhi-Qiang You,  Ying Zhu,  B. Alam,  B. Albrecht,  
 A. Aldossary,  E. Alguire,  J. H. Andersen,  V. Athavale,  D. Barton,  
 K. Begam,  A. Behn,  N. Bellonzi,  Y. A. Bernard,  E. J. Berquist,  
 H. Burton,  A. Carreras,  K. Carter-Fenk,  Romit Chakraborty,  
 Chandrima Chakravarty,  Junhan Chen,  A. D. Chien,  K. D. Closser,  
 V. Cofer-Shabica,  L. Cunha,  S. Dasgupta,  Jia Deng,  M. de Wergifosse,  
 M. Diedenhofen,  Hainam Do,  S. Ehlert,  Po-Tung Fang,  S. Fatehi,  
 Qingguo Feng,  T. Friedhoff,  B. Ganoe,  J. Gayvert,  Qinghui Ge,  
 G. Gidofalvi,  M. Goldey,  J. Gomes,  C. Gonzalez-Espinoza,  S. Gulania,  
 A. Gunina,  J. A. Gyamfi,  M. W. D. Hanson-Heine,  P. H. P. Harbach,  
 A. W. Hauser,  M. F. Herbst,  M. Hernandez Vera,  M. Hodecker,  
 Z. C. Holden,  S. Houck,  Xunkun Huang,  Kerwin Hui,  B. C. Huynh,  
 K. Ikeda,  M. Ivanov,  Hyunjun Ji,  Zuxin Jin,  Hanjie Jiang,  B. Kaduk,  
 S. Kaehler,  R. Kang,  K. Khistyaev,  Jaehoon Kim,  Yongbin Kim,  
 P. Klunzinger,  Z. Koczor-Benda,  Joong Hoon Koh,  D. Kosenkov,  
 Saikiran Kotaru,  L. Koulias,  T. Kowalczyk,  C. M. Krauter,  K. Kue,  
 A. Kunitsa,  T. Kus,  A. Landau,  K. V. Lawler,  D. Lefrancois,  S. Lehtola,  
 Rain Li,  Shaozhi Li,  Yi-Pei Li,  Jiashu Liang,  M. Liebenthal,  
 Hung-Hsuan Lin,  You-Sheng Lin,  Fenglai Liu,  Kuan-Yu Liu,  
 M. Loipersberger,  A. Luenser,  C. Malbon,  A. Manjanath,  P. Manohar,  
 E. Mansoor,  S. F. Manzer,  Shan-Ping Mao,  A. V. Marenich,  T. Markovich,  
 S. Mason,  F. Matz,  S. A. Maurer,  P. F. McLaughlin,  M. F. S. J. Menger,  
 J.-M. Mewes,  S. A. Mewes,  P. Morgante,  Mohammad Mostafanejad,  
 J. W. Mullinax,  K. J. Oosterbaan,  G. Paran,  V. Parravicini,  
 Alexander C. Paul,  Suranjan K. Paul,  F. Pavosevic,  Zheng Pei,  S. Prager,  
 E. I. Proynov,  E. Ramos,  B. Rana,  A. E. Rask,  A. Rettig,  R. M. Richard,  
 F. Rob,  E. Rossomme,  T. Scheele,  M. Scheurer,  M. Schneider,  
 P. E. Schneider,  N. Sergueev,  S. M. Sharada,  Hengyuan Shen,  
 W. Skomorowski,  D. W. Small,  C. J. Stein,  Yingli Su,  Yu-Chuan Su,  
 E. J. Sundstrom,  Zhen Tao,  J. Thirman,  Hung-Yi Tsai,  T. Tsuchimochi,  
 N. M. Tubman,  C. Utku,  S. P. Veccham,  O. Vydrov,  J. Wenzel,  
 Jonathan Wong,  J. Witte,  A. Yamada,  Chou-Hsun Yang,  Kun Yao,  
 S. Yeganeh,  S. R. Yost,  A. Zech,  F. Zeller,  Igor Ying Zhang,  
 Xing Zhang,  Yu Zhang,  D. Zuev,  A. Aspuru-Guzik,  A. T. Bell,  
 N. A. Besley,  K. B. Bravaya,  B. R. Brooks,  D. Casanova,  Jeng-Da Chai,  
 Hsing-Ta Chen,  S. Coriani,  C. J. Cramer,  A. E. DePrince, III,  
 R. A. DiStasio Jr.,  A. Dreuw,  B. D. Dunietz,  T. R. Furlani,  
 W. A. Goddard III,  S. Grimme,  S. Hammes-Schiffer,  T. Head-Gordon,  
 W. J. Hehre,  Chao-Ping Hsu,  T.-C. Jagau,  Yousung Jung,  A. Klamt,  
 Jing Kong,  D. S. Lambrecht,  Xiangyuan Li,  WanZhen Liang,  N. J. Mayhall,  
 C. W. McCurdy,  J. B. Neaton,  T. Neudecker,  C. Ochsenfeld,  
 J. A. Parkhill,  R. Peverati,  V. A. Rassolov,  Haisheng Ren,  Yihan Shao,  
 L. V. Slipchenko,  R. P. Steele,  J. E. Subotnik,  A. J. W. Thom,  
 A. Tkatchenko,  D. G. Truhlar,  T. Van Voorhis,  Fan Wang,  
 T. A. Wesolowski,  K. B. Whaley,  H. L. Woodcock III,  P. M. Zimmerman,  
 S. Faraji,  P. M. W. Gill,  M. Head-Gordon,  J. M. Herbert,  A. I. Krylov

 Contributors to earlier versions of Q-Chem not listed above: 
 R. D. Adamson,  B. Austin,  R. Baer,  J. Baker,  G. J. O. Beran,  
 K. Brandhorst,  S. T. Brown,  E. F. C. Byrd,  Arup K. Chakraborty,  
 G. K. L. Chan,  Chun-Min Chang,  Yunqing Chen,  C.-L. Cheng,  
 Siu Hung Chien,  D. M. Chipman,  D. L. Crittenden,  H. Dachsel,  
 R. J. Doerksen,  A. D. Dutoi,  R. G. Edgar,  J. Fosso-Tande,  
 L. Fusti-Molnar,  D. Ghosh,  A. Ghysels,  A. Golubeva-Zadorozhnaya,  
 J. Gonthier,  M. S. Gordon,  S. R. Gwaltney,  G. Hawkins,  J. E. Herr,  
 A. Heyden,  S. Hirata,  E. G. Hohenstein,  G. Kedziora,  F. J. Keil,  
 C. Kelley,  Jihan Kim,  R. A. King,  R. Z. Khaliullin,  P. P. Korambath,  
 W. Kurlancheek,  A. Laurent,  A. M. Lee,  M. S. Lee,  S. V. Levchenko,  
 Ching Yeh Lin,  D. Liotard,  E. Livshits,  R. C. Lochan,  I. Lotan,  
 L. A. Martinez-Martinez,  P. E. Maslen,  N. Nair,  D. P. O'Neill,  
 D. Neuhauser,  E. Neuscamman,  C. M. Oana,  R. Olivares-Amaya,  R. Olson,  
 T. M. Perrine,  B. Peters,  P. A. Pieniazek,  A. Prociuk,  Y. M. Rhee,  
 J. Ritchie,  M. A. Rohrdanz,  E. Rosta,  N. J. Russ,  H. F. Schaefer III,  
 M. W. Schmidt,  N. E. Schultz,  S. Sharma,  N. Shenvi,  C. D. Sherrill,  
 A. C. Simmonett,  A. Sodt,  T. Stein,  D. Stuck,  K. S. Thanthiriwatte,  
 V. Vanovschi,  L. Vogt,  Tao Wang,  A. Warshel,  M. A. Watson,  
 C. F. Williams,  Q. Wu,  X. Xu,  Jun Yang,  W. Zhang,  Yan Zhao

   Please cite Q-Chem as follows:
  "Software for the frontiers of quantum chemistry:
   An overview of developments in the Q-Chem 5 package"
   J. Chem. Phys. 155, 084801 (2021)
   https://doi.org/10.1063/5.0055522 (open access)

 Q-Chem 6.0.2 for Intel X86 EM64T Linux

 Parts of Q-Chem use Armadillo 9.900.5 (Nocturnal Misbehaviour).
 http://arma.sourceforge.net/

 Q-Chem begins on Thu Jun 15 16:53:48 2023  

 Host: 
0

     Scratch files written to /local_scratch/17180077/QCLOCALSCR/save//
 Dec722 |scratch|qcdevops|jenkins|workspace|build_RNUM 9024   
 Processing $rem in /gpfs/fs2/scratch/phuo_lab/Program/Qchem/config/preferences:
 Processing $rem in /home/bweight/.qchemrc:

 Checking the input file for inconsistencies... 	...done.

--------------------------------------------------------------
User input:
--------------------------------------------------------------
$molecule
1 1
C                 -0.80658313    1.22973465    0.03041801
C                  0.56153576    1.23725234    0.01622618
C                  1.22915389    0.01001055    0.01220575
H                 -1.36676923    2.15803094    0.04420367
H                  1.14116413    2.14927050    0.01037697
N                  2.71357475    0.03144573   -0.00289824
O                  3.28013247   -1.09741954   -0.00254733
O                  3.24714953    1.17621948   -0.01252002
C                 -0.77042978   -1.26805414    0.04039660
H                 -1.30353926   -2.21202933    0.06122375
C                  0.59726287   -1.23605918    0.02634378
H                  1.20308359   -2.13089607    0.02793117
C                 -1.56287141   -0.03049318    0.01040538
H                 -2.41148563   -0.03994459    0.70143946
Br                -2.40993182   -0.04931830   -1.82359612
$end

$rem
!SCF_GUESS         read
!SKIP_CIS_RPA      TRUE
METHOD             wB97XD
RPA                TRUE
BASIS              6-311+G*
CIS_N_ROOTS        50
CIS_SINGLETS       TRUE
CIS_TRIPLETS       FALSE
MAKE_CUBE_FILES    TRUE
PLOTS              TRUE
STS_MOM            TRUE
SYM_IGNORE         TRUE
SYMMETRY           FALSE
NTO_PAIRS          1
CIS_MULLIKEN       TRUE
! NBO                2
$end

$plots
grid_points                    75 75 75
total_density                  0-5
transition_density             1-5
natural_transition_orbital     1-5
$end

! natural_bond_orbital           1-5 ! How many here ? Is it physical to mix these ?
! nbo_state                      0-10






























--------------------------------------------------------------
 ----------------------------------------------------------------
             Standard Nuclear Orientation (Angstroms)
    I     Atom           X                Y                Z
 ----------------------------------------------------------------
    1      C      -0.8065831300     1.2297346500     0.0304180100
    2      C       0.5615357600     1.2372523400     0.0162261800
    3      C       1.2291538900     0.0100105500     0.0122057500
    4      H      -1.3667692300     2.1580309400     0.0442036700
    5      H       1.1411641300     2.1492705000     0.0103769700
    6      N       2.7135747500     0.0314457300    -0.0028982400
    7      O       3.2801324700    -1.0974195400    -0.0025473300
    8      O       3.2471495300     1.1762194800    -0.0125200200
    9      C      -0.7704297800    -1.2680541400     0.0403966000
   10      H      -1.3035392600    -2.2120293300     0.0612237500
   11      C       0.5972628700    -1.2360591800     0.0263437800
   12      H       1.2030835900    -2.1308960700     0.0279311700
   13      C      -1.5628714100    -0.0304931800     0.0104053800
   14      H      -2.4114856300    -0.0399445900     0.7014394600
   15      Br     -2.4099318200    -0.0493183000    -1.8235961200
 ----------------------------------------------------------------
 Nuclear Repulsion Energy =         731.01509957 hartrees
 There are       49 alpha and       49 beta electrons
 Requested basis set is 6-311+G(d)
 There are 88 shells and 261 basis functions

 Total QAlloc Memory Limit   2000 MB
 Mega-Array Size       188 MB
 MEM_STATIC part       192 MB


                       Distance Matrix (Angstroms)
             C (  1)   C (  2)   C (  3)   H (  4)   H (  5)   N (  6)
   C (  2)  1.368213
   C (  3)  2.373243  1.397087
   H (  4)  1.084312  2.137048  3.369545
   H (  5)  2.153989  1.080639  2.141070  2.508177
   N (  6)  3.718672  2.466902  1.484652  4.601499  2.637770
   O (  7)  4.702975  3.583548  2.330908  5.673961  3.887975  1.263062
   O (  8)  4.054313  2.686461  2.330871  4.717565  2.320027  1.263052
   C (  9)  2.498070  2.837477  2.373305  3.477599  3.915763  3.718718
   H ( 10)  3.477593  3.921489  3.369629  4.370551  5.000010  4.601575
   C ( 11)  2.837418  2.473590  1.397203  3.921427  3.428781  2.467022
   H ( 12)  3.915687  3.428723  2.141123  4.999930  4.280650  2.637851
   C ( 13)  1.469880  2.473928  2.792320  2.197552  3.473209  4.276915
   H ( 14)  2.153617  3.307507  3.705644  2.520811  4.229840  5.173725
   Br( 15)  2.764791  3.724222  4.076350  3.073964  4.561527  5.437994
             O (  7)   O (  8)   C (  9)   H ( 10)   C ( 11)   H ( 12)
   O (  8)  2.273900
   C (  9)  4.054382  4.703001
   H ( 10)  4.717676  5.674014  1.084310
   C ( 11)  2.686605  3.583643  1.368139  2.137003
   H ( 12)  2.320158  3.888040  2.153928  2.508157  1.080627
   C ( 13)  4.959152  4.959131  1.469837  2.197484  2.473828  3.473112
   H ( 14)  5.831669  5.831719  2.153670  2.520987  3.307418  4.229752
   Br( 15)  6.065605  6.065023  2.765457  3.074731  3.724762  4.562346
             C ( 13)   H ( 14)
   H ( 14)  1.094424
   Br( 15)  2.020254  2.525053
 
 A cutoff of  1.0D-12 yielded   3323 shell pairs
 There are     30441 function pairs (     33208 Cartesian)
 Smallest overlap matrix eigenvalue = 2.60E-06

 Scale SEOQF with 1.000000e-01/1.000000e-01/1.000000e-01

 Standard Electronic Orientation quadrupole field applied
 Nucleus-field energy     =     0.0000000098 hartrees
 Guess from superposition of atomic densities
 Warning:  Energy on first SCF cycle will be non-variational
 SAD guess density has 99.000000 electrons

 -----------------------------------------------------------------------
  General SCF calculation program by
  Eric Jon Sundstrom, Paul Horn, Yuezhi Mao, Dmitri Zuev, Alec White,
  David Stuck, Shaama M.S., Shane Yost, Joonho Lee, David Small,
  Daniel Levine, Susi Lehtola, Hugh Burton, Evgeny Epifanovsky,
  Bang C. Huynh
 -----------------------------------------------------------------------
 Exchange:     0.2220 Hartree-Fock + 1.0000 wB97X-D + LR-HF
 Correlation:  1.0000 wB97X-D
 Using SG-2 standard quadrature grid
 Dispersion:   Grimme D
 using 12 threads for integral computing
 -------------------------------------------------------
 OpenMP Integral computing Module                
 Release: version 1.0, May 2013, Q-Chem Inc. Pittsburgh 
 -------------------------------------------------------
 A restricted SCF calculation will be
 performed using DIIS
 SCF converges when DIIS error is below 1.0e-08
 ---------------------------------------
  Cycle       Energy         DIIS error
 ---------------------------------------
    1   -3013.4019450762      3.96e-02  
    2   -3010.2445033264      6.30e-03  
    3   -3009.9608322947      1.00e-02  
    4   -3010.5159925313      6.20e-04  
    5   -3010.5173716515      4.46e-04  
    6   -3010.5188310881      8.65e-05  
    7   -3010.5188952491      3.25e-05  
    8   -3010.5189043052      7.37e-06  
    9   -3010.5189052314      2.08e-06  
   10   -3010.5189053028      9.05e-07  
   11   -3010.5189053102      7.35e-07  
   12   -3010.5189053142      1.97e-07  
   13   -3010.5189053149      7.11e-08  
   14   -3010.5189053151      3.04e-08  
   15   -3010.5189053152      1.22e-08  
   16   -3010.5189053152      4.04e-09  Convergence criterion met
 ---------------------------------------
 SCF time:   CPU 259.42s  wall 22.00s 
 SCF   energy in the final basis set =    -3010.5189053152
 Total energy in the final basis set =    -3010.5189053152
 
 MAX_CIS_SUBSPACE fits in available memory
 Direct TDDFT/TDA calculation will be performed
 Exchange:     0.2220 Hartree-Fock + 1.0000 wB97X-D + LR-HF
 Correlation:  1.0000 wB97X-D
 Using SG-2 standard quadrature grid
 Dispersion:   Grimme D
 Singlet excitation energies requested
 CIS energy converged when residual is below 10e- 6
 ---------------------------------------------------
 Iter    Rts Conv    Rts Left    Ttl Dev     Max Dev
 ---------------------------------------------------
   1         0          50      0.026086    0.002662
   2         0          50      0.007048    0.000284
   3         0          50      0.003906    0.000651
   4         1          49      0.001464    0.000174
   5        13          37      0.000781    0.000243
   6        30          20      0.000303    0.000088
   7        36          14      0.000110    0.000031
   8        41           9      0.000042    0.000011
   9        48           2      0.000020    0.000004
  10        49           1      0.000016    0.000001
  11        50           0      0.000015    0.000001    Roots Converged
 ---------------------------------------------------
 
 ---------------------------------------------------
         TDDFT/TDA Excitation Energies              
 ---------------------------------------------------

 Excited state   1: excitation energy (eV) =    2.4560
 Total energy for state  1:                 -3010.42864993 au
    Multiplicity: Singlet
    Trans. Mom.: -0.0052 X   0.2990 Y  -0.0018 Z
    Strength   :     0.0053798715
    D(   49) --> V(    1) amplitude =  0.9422

 Excited state   2: excitation energy (eV) =    2.6961
 Total energy for state  2:                 -3010.41982400 au
    Multiplicity: Singlet
    Trans. Mom.:  0.0009 X  -0.0737 Y   0.0003 Z
    Strength   :     0.0003592243
    D(   47) --> V(    1) amplitude =  0.8720
    D(   47) --> V(    2) amplitude = -0.4374

 Excited state   3: excitation energy (eV) =    2.7230
 Total energy for state  3:                 -3010.41883768 au
    Multiplicity: Singlet
    Trans. Mom.:  0.2927 X   0.0049 Y   0.2027 Z
    Strength   :     0.0084571464
    D(   48) --> V(    1) amplitude =  0.9694

 Excited state   4: excitation energy (eV) =    2.9935
 Total energy for state  4:                 -3010.40889579 au
    Multiplicity: Singlet
    Trans. Mom.: -0.0221 X  -0.0003 Y   0.0038 Z
    Strength   :     0.0000367409
    D(   45) --> V(    1) amplitude =  0.9100
    D(   45) --> V(    2) amplitude = -0.4011

 Excited state   5: excitation energy (eV) =    3.8391
 Total energy for state  5:                 -3010.37782128 au
    Multiplicity: Singlet
    Trans. Mom.:  0.0002 X  -0.0191 Y  -0.0002 Z
    Strength   :     0.0000344538
    D(   46) --> V(    1) amplitude =  0.9253

 Excited state   6: excitation energy (eV) =    4.1210
 Total energy for state  6:                 -3010.36746246 au
    Multiplicity: Singlet
    Trans. Mom.: -0.0151 X   1.0697 Y  -0.0040 Z
    Strength   :     0.1155486283
    D(   44) --> V(    1) amplitude =  0.9121
    D(   46) --> V(    1) amplitude =  0.2487

 Excited state   7: excitation energy (eV) =    4.8264
 Total energy for state  7:                 -3010.34153739 au
    Multiplicity: Singlet
    Trans. Mom.: -0.0018 X   0.1021 Y  -0.0005 Z
    Strength   :     0.0012322353
    D(   42) --> V(    1) amplitude =  0.2472
    D(   47) --> V(    1) amplitude =  0.4238
    D(   47) --> V(    2) amplitude =  0.7879
    D(   47) --> V(    4) amplitude = -0.2929

 Excited state   8: excitation energy (eV) =    4.9860
 Total energy for state  8:                 -3010.33567184 au
    Multiplicity: Singlet
    Trans. Mom.: -0.0034 X   0.2336 Y  -0.0013 Z
    Strength   :     0.0066667242
    D(   42) --> V(    1) amplitude =  0.9424

 Excited state   9: excitation energy (eV) =    5.0726
 Total energy for state  9:                 -3010.33248947 au
    Multiplicity: Singlet
    Trans. Mom.: -0.0539 X  -0.0014 Y  -0.0944 Z
    Strength   :     0.0014687764
    D(   45) --> V(    1) amplitude =  0.3899
    D(   45) --> V(    2) amplitude =  0.8406
    D(   45) --> V(    4) amplitude = -0.3096

 Excited state  10: excitation energy (eV) =    5.3007
 Total energy for state 10:                 -3010.32410788 au
    Multiplicity: Singlet
    Trans. Mom.:  1.4715 X   0.0231 Y   0.5507 Z
    Strength   :     0.3206423357
    D(   43) --> V(    1) amplitude =  0.9021
    D(   49) --> V(    3) amplitude =  0.3411

 Excited state  11: excitation energy (eV) =    5.7943
 Total energy for state 11:                 -3010.30597014 au
    Multiplicity: Singlet
    Trans. Mom.:  0.3175 X   0.0035 Y  -0.2531 Z
    Strength   :     0.0234086958
    D(   40) --> V(    1) amplitude =  0.2259
    D(   41) --> V(    1) amplitude =  0.9293

 Excited state  12: excitation energy (eV) =    5.8205
 Total energy for state 12:                 -3010.30500688 au
    Multiplicity: Singlet
    Trans. Mom.:  0.0020 X  -0.0057 Y   0.0002 Z
    Strength   :     0.0000052585
    D(   49) --> V(    2) amplitude =  0.8161
    D(   49) --> V(    4) amplitude =  0.4822

 Excited state  13: excitation energy (eV) =    6.0769
 Total energy for state 13:                 -3010.29558405 au
    Multiplicity: Singlet
    Trans. Mom.: -0.1886 X  -0.0026 Y   0.0164 Z
    Strength   :     0.0053347597
    D(   48) --> V(    2) amplitude =  0.6822
    D(   48) --> V(    4) amplitude =  0.6672

 Excited state  14: excitation energy (eV) =    6.5712
 Total energy for state 14:                 -3010.27741981 au
    Multiplicity: Singlet
    Trans. Mom.: -0.0023 X   0.0788 Y  -0.0006 Z
    Strength   :     0.0010004314
    D(   44) --> V(    2) amplitude =  0.5471
    D(   48) --> V(    3) amplitude =  0.5133
    D(   49) --> V(    2) amplitude =  0.3005
    D(   49) --> V(    4) amplitude = -0.5189

 Excited state  15: excitation energy (eV) =    6.6303
 Total energy for state 15:                 -3010.27524654 au
    Multiplicity: Singlet
    Trans. Mom.:  0.0022 X   0.0773 Y   0.0007 Z
    Strength   :     0.0009712472
    D(   44) --> V(    2) amplitude = -0.2819
    D(   48) --> V(    3) amplitude =  0.8474
    D(   49) --> V(    4) amplitude =  0.3523

 Excited state  16: excitation energy (eV) =    6.7477
 Total energy for state 16:                 -3010.27093332 au
    Multiplicity: Singlet
    Trans. Mom.: -1.5047 X  -0.0230 Y  -0.3172 Z
    Strength   :     0.3910000958
    D(   43) --> V(    1) amplitude = -0.2538
    D(   44) --> V(    3) amplitude = -0.3262
    D(   49) --> V(    3) amplitude =  0.8108

 Excited state  17: excitation energy (eV) =    7.0903
 Total energy for state 17:                 -3010.25834202 au
    Multiplicity: Singlet
    Trans. Mom.:  0.4655 X   0.0083 Y   0.1335 Z
    Strength   :     0.0407450564
    D(   47) --> V(    3) amplitude =  0.9674

 Excited state  18: excitation energy (eV) =    7.1751
 Total energy for state 18:                 -3010.25522667 au
    Multiplicity: Singlet
    Trans. Mom.:  0.0130 X  -0.9166 Y   0.0039 Z
    Strength   :     0.1477163461
    D(   46) --> V(    2) amplitude =  0.8855

 Excited state  19: excitation energy (eV) =    7.2088
 Total energy for state 19:                 -3010.25398836 au
    Multiplicity: Singlet
    Trans. Mom.:  0.0038 X  -0.1715 Y   0.0012 Z
    Strength   :     0.0051982573
    D(   39) --> V(    1) amplitude = -0.5627
    D(   45) --> V(    3) amplitude =  0.7833

 Excited state  20: excitation energy (eV) =    7.2781
 Total energy for state 20:                 -3010.25144000 au
    Multiplicity: Singlet
    Trans. Mom.:  0.6890 X   0.0103 Y   0.2192 Z
    Strength   :     0.0932338294
    D(   40) --> V(    1) amplitude =  0.2156
    D(   46) --> V(    3) amplitude =  0.9358
    D(   49) --> V(    3) amplitude = -0.2217

 Excited state  21: excitation energy (eV) =    7.2998
 Total energy for state 21:                 -3010.25064392 au
    Multiplicity: Singlet
    Trans. Mom.:  0.0004 X   0.0859 Y  -0.0002 Z
    Strength   :     0.0013198132
    D(   39) --> V(    1) amplitude =  0.7562
    D(   45) --> V(    3) amplitude =  0.5933

 Excited state  22: excitation energy (eV) =    7.4234
 Total energy for state 22:                 -3010.24610023 au
    Multiplicity: Singlet
    Trans. Mom.:  0.6906 X   0.0133 Y   0.3922 Z
    Strength   :     0.1147364236
    D(   37) --> V(    1) amplitude =  0.2478
    D(   40) --> V(    1) amplitude =  0.7072
    D(   44) --> V(    3) amplitude = -0.3647
    D(   46) --> V(    3) amplitude = -0.2146
    D(   48) --> V(    2) amplitude = -0.2866
    D(   48) --> V(    4) amplitude =  0.2315

 Excited state  23: excitation energy (eV) =    7.4387
 Total energy for state 23:                 -3010.24553932 au
    Multiplicity: Singlet
    Trans. Mom.:  0.0090 X  -0.3988 Y   0.0036 Z
    Strength   :     0.0290002798
    D(   43) --> V(    3) amplitude =  0.2165
    D(   44) --> V(    2) amplitude =  0.5819
    D(   44) --> V(    4) amplitude =  0.4084
    D(   49) --> V(    2) amplitude = -0.3098
    D(   49) --> V(    4) amplitude =  0.5256

 Excited state  24: excitation energy (eV) =    7.5997
 Total energy for state 24:                 -3010.23962097 au
    Multiplicity: Singlet
    Trans. Mom.: -0.2634 X  -0.0050 Y  -0.2635 Z
    Strength   :     0.0258489107
    D(   37) --> V(    1) amplitude = -0.4043
    D(   40) --> V(    1) amplitude = -0.2670
    D(   48) --> V(    2) amplitude = -0.5228
    D(   48) --> V(    4) amplitude =  0.5781

 Excited state  25: excitation energy (eV) =    7.7617
 Total energy for state 25:                 -3010.23366641 au
    Multiplicity: Singlet
    Trans. Mom.: -1.1182 X  -0.0172 Y  -0.3082 Z
    Strength   :     0.2558679901
    D(   37) --> V(    1) amplitude =  0.6219
    D(   42) --> V(    3) amplitude = -0.2851
    D(   43) --> V(    2) amplitude =  0.2276
    D(   44) --> V(    3) amplitude =  0.4521
    D(   48) --> V(    2) amplitude = -0.2777
    D(   48) --> V(    4) amplitude =  0.3079

 Excited state  26: excitation energy (eV) =    7.8588
 Total energy for state 26:                 -3010.23010090 au
    Multiplicity: Singlet
    Trans. Mom.:  0.0005 X  -0.0552 Y   0.0001 Z
    Strength   :     0.0005868155
    D(   35) --> V(    1) amplitude = -0.4198
    D(   38) --> V(    1) amplitude =  0.8023
    D(   42) --> V(    2) amplitude =  0.2757

 Excited state  27: excitation energy (eV) =    8.0104
 Total energy for state 27:                 -3010.22453005 au
    Multiplicity: Singlet
    Trans. Mom.:  0.1633 X   0.0051 Y   0.5872 Z
    Strength   :     0.0729121129
    D(   37) --> V(    1) amplitude = -0.4023
    D(   40) --> V(    1) amplitude =  0.3004
    D(   43) --> V(    2) amplitude =  0.7148
    D(   44) --> V(    3) amplitude =  0.2261

 Excited state  28: excitation energy (eV) =    8.2326
 Total energy for state 28:                 -3010.21636104 au
    Multiplicity: Singlet
    Trans. Mom.: -1.2457 X  -0.0201 Y  -0.0771 Z
    Strength   :     0.3142580948
    D(   37) --> V(    1) amplitude = -0.2880
    D(   40) --> V(    1) amplitude =  0.3656
    D(   43) --> V(    2) amplitude = -0.4734
    D(   44) --> V(    3) amplitude =  0.6171

 Excited state  29: excitation energy (eV) =    8.2372
 Total energy for state 29:                 -3010.21619556 au
    Multiplicity: Singlet
    Trans. Mom.:  0.0172 X  -0.1810 Y   0.0014 Z
    Strength   :     0.0066718310
    D(   43) --> V(    3) amplitude =  0.4900
    D(   44) --> V(    2) amplitude = -0.4294
    D(   44) --> V(    4) amplitude =  0.6205

 Excited state  30: excitation energy (eV) =    8.4044
 Total energy for state 30:                 -3010.21004792 au
    Multiplicity: Singlet
    Trans. Mom.:  0.0007 X  -0.0217 Y  -0.0001 Z
    Strength   :     0.0000968016
    D(   47) --> V(    2) amplitude =  0.3242
    D(   47) --> V(    4) amplitude =  0.8632

 Excited state  31: excitation energy (eV) =    8.5564
 Total energy for state 31:                 -3010.20446361 au
    Multiplicity: Singlet
    Trans. Mom.: -0.2651 X   0.0071 Y   0.1053 Z
    Strength   :     0.0170713191
    D(   37) --> V(    1) amplitude =  0.2661
    D(   42) --> V(    3) amplitude =  0.7740
    D(   45) --> V(    4) amplitude = -0.4302

 Excited state  32: excitation energy (eV) =    8.5603
 Total energy for state 32:                 -3010.20431970 au
    Multiplicity: Singlet
    Trans. Mom.: -0.0034 X   0.5760 Y  -0.0044 Z
    Strength   :     0.0695965365
    D(   38) --> V(    1) amplitude =  0.2182
    D(   43) --> V(    3) amplitude =  0.6052
    D(   44) --> V(    4) amplitude = -0.3997
    D(   49) --> V(    5) amplitude =  0.4812

 Excited state  33: excitation energy (eV) =    8.5978
 Total energy for state 33:                 -3010.20294058 au
    Multiplicity: Singlet
    Trans. Mom.: -0.0796 X  -0.0017 Y   0.0413 Z
    Strength   :     0.0016953604
    D(   42) --> V(    3) amplitude =  0.4724
    D(   45) --> V(    2) amplitude =  0.2748
    D(   45) --> V(    4) amplitude =  0.7586

 Excited state  34: excitation energy (eV) =    8.6608
 Total energy for state 34:                 -3010.20062812 au
    Multiplicity: Singlet
    Trans. Mom.: -0.0039 X   0.2112 Y  -0.0011 Z
    Strength   :     0.0094639971
    D(   35) --> V(    1) amplitude =  0.3851
    D(   42) --> V(    2) amplitude =  0.8164

 Excited state  35: excitation energy (eV) =    8.6983
 Total energy for state 35:                 -3010.19924907 au
    Multiplicity: Singlet
    Trans. Mom.: -0.0027 X   0.1819 Y  -0.0009 Z
    Strength   :     0.0070543092
    D(   44) --> V(    4) amplitude =  0.2960
    D(   46) --> V(    4) amplitude =  0.8580

 Excited state  36: excitation energy (eV) =    8.7775
 Total energy for state 36:                 -3010.19633800 au
    Multiplicity: Singlet
    Trans. Mom.:  0.0091 X  -0.6625 Y   0.0025 Z
    Strength   :     0.0944067051
    D(   35) --> V(    1) amplitude = -0.3756
    D(   38) --> V(    1) amplitude = -0.3126
    D(   41) --> V(    3) amplitude =  0.2775
    D(   42) --> V(    2) amplitude =  0.2483
    D(   43) --> V(    3) amplitude = -0.2452
    D(   49) --> V(    5) amplitude =  0.6460

 Excited state  37: excitation energy (eV) =    8.8526
 Total energy for state 37:                 -3010.19357648 au
    Multiplicity: Singlet
    Trans. Mom.:  0.0124 X  -0.8552 Y   0.0038 Z
    Strength   :     0.1586753679
    D(   35) --> V(    1) amplitude =  0.5559
    D(   38) --> V(    1) amplitude =  0.2792
    D(   38) --> V(    2) amplitude = -0.2537
    D(   43) --> V(    3) amplitude = -0.4062
    D(   44) --> V(    4) amplitude =  0.2398
    D(   49) --> V(    5) amplitude =  0.4495

 Excited state  38: excitation energy (eV) =    8.8989
 Total energy for state 38:                 -3010.19187803 au
    Multiplicity: Singlet
    Trans. Mom.:  0.1786 X   0.0035 Y   0.2297 Z
    Strength   :     0.0184562216
    D(   34) --> V(    1) amplitude =  0.6622
    D(   36) --> V(    1) amplitude = -0.3096
    D(   40) --> V(    2) amplitude = -0.2330
    D(   41) --> V(    2) amplitude = -0.5429

 Excited state  39: excitation energy (eV) =    8.9999
 Total energy for state 39:                 -3010.18816336 au
    Multiplicity: Singlet
    Trans. Mom.:  0.4332 X   0.0059 Y  -0.0350 Z
    Strength   :     0.0416658706
    D(   48) --> V(    5) amplitude =  0.8870
    D(   48) --> V(    7) amplitude =  0.2222
    D(   48) --> V(    9) amplitude =  0.3151

 Excited state  40: excitation energy (eV) =    9.1983
 Total energy for state 40:                 -3010.18087380 au
    Multiplicity: Singlet
    Trans. Mom.:  0.0023 X  -0.1925 Y   0.0006 Z
    Strength   :     0.0083533766
    D(   35) --> V(    1) amplitude = -0.2684
    D(   41) --> V(    3) amplitude = -0.8146
    D(   47) --> V(    5) amplitude = -0.2465

 Excited state  41: excitation energy (eV) =    9.3112
 Total energy for state 41:                 -3010.17672662 au
    Multiplicity: Singlet
    Trans. Mom.:  0.0059 X  -0.3475 Y   0.0024 Z
    Strength   :     0.0275488165
    D(   41) --> V(    3) amplitude = -0.3098
    D(   47) --> V(    5) amplitude =  0.5912
    D(   47) --> V(    7) amplitude = -0.3389
    D(   47) --> V(    8) amplitude =  0.2807
    D(   47) --> V(   11) amplitude = -0.2745
    D(   47) --> V(   12) amplitude =  0.3141

 Excited state  42: excitation energy (eV) =    9.3303
 Total energy for state 42:                 -3010.17602203 au
    Multiplicity: Singlet
    Trans. Mom.:  0.1704 X   0.0049 Y   0.2668 Z
    Strength   :     0.0229207441
    D(   36) --> V(    1) amplitude =  0.7518
    D(   43) --> V(    4) amplitude =  0.3736
    D(   45) --> V(    5) amplitude = -0.2154

 Excited state  43: excitation energy (eV) =    9.3693
 Total energy for state 43:                 -3010.17458921 au
    Multiplicity: Singlet
    Trans. Mom.:  0.0012 X  -0.0715 Y   0.0005 Z
    Strength   :     0.0011745213
    D(   46) --> V(    5) amplitude =  0.5994
    D(   46) --> V(    7) amplitude = -0.3463
    D(   46) --> V(   11) amplitude = -0.2795
    D(   46) --> V(   12) amplitude =  0.3163
    D(   49) --> V(    7) amplitude =  0.2478

 Excited state  44: excitation energy (eV) =    9.5094
 Total energy for state 44:                 -3010.16944270 au
    Multiplicity: Singlet
    Trans. Mom.: -0.1237 X  -0.0021 Y  -0.1797 Z
    Strength   :     0.0110832625
    D(   33) --> V(    1) amplitude = -0.2231
    D(   34) --> V(    1) amplitude =  0.6021
    D(   41) --> V(    2) amplitude =  0.6444

 Excited state  45: excitation energy (eV) =    9.5195
 Total energy for state 45:                 -3010.16906880 au
    Multiplicity: Singlet
    Trans. Mom.: -0.0008 X   0.0861 Y  -0.0002 Z
    Strength   :     0.0017271769
    D(   44) --> V(    8) amplitude =  0.2372
    D(   49) --> V(    7) amplitude =  0.6157
    D(   49) --> V(    8) amplitude =  0.6148
    D(   49) --> V(    9) amplitude = -0.2508

 Excited state  46: excitation energy (eV) =    9.5609
 Total energy for state 46:                 -3010.16754874 au
    Multiplicity: Singlet
    Trans. Mom.:  0.0040 X  -0.2082 Y   0.0003 Z
    Strength   :     0.0101556710
    D(   44) --> V(    5) amplitude = -0.6443
    D(   49) --> V(    9) amplitude =  0.5524

 Excited state  47: excitation energy (eV) =    9.6058
 Total energy for state 47:                 -3010.16589899 au
    Multiplicity: Singlet
    Trans. Mom.: -0.5935 X  -0.0074 Y   0.3093 Z
    Strength   :     0.1054176351
    D(   43) --> V(    4) amplitude =  0.6239
    D(   45) --> V(    5) amplitude =  0.3604
    D(   45) --> V(    7) amplitude = -0.2411
    D(   49) --> V(    6) amplitude = -0.3717

 Excited state  48: excitation energy (eV) =    9.7289
 Total energy for state 48:                 -3010.16137622 au
    Multiplicity: Singlet
    Trans. Mom.: -0.0002 X  -0.0189 Y  -0.0001 Z
    Strength   :     0.0000847327
    D(   44) --> V(    8) amplitude =  0.2167
    D(   49) --> V(    7) amplitude = -0.5019
    D(   49) --> V(    8) amplitude =  0.5811
    D(   49) --> V(    9) amplitude =  0.4232

 Excited state  49: excitation energy (eV) =    9.7814
 Total energy for state 49:                 -3010.15944525 au
    Multiplicity: Singlet
    Trans. Mom.: -0.3727 X  -0.0041 Y   0.3043 Z
    Strength   :     0.0554897697
    D(   45) --> V(    5) amplitude =  0.3589
    D(   45) --> V(    7) amplitude = -0.3007
    D(   49) --> V(    6) amplitude =  0.7161

 Excited state  50: excitation energy (eV) =    9.8077
 Total energy for state 50:                 -3010.15848055 au
    Multiplicity: Singlet
    Trans. Mom.: -0.0006 X  -0.0168 Y   0.0009 Z
    Strength   :     0.0000682777
    D(   39) --> V(    2) amplitude = -0.2445
    D(   42) --> V(    4) amplitude = -0.8897
 
 ---------------------------------------------------

 Direct TDDFT calculation will be performed
 Exchange:     0.2220 Hartree-Fock + 1.0000 wB97X-D + LR-HF
 Correlation:  1.0000 wB97X-D
 Using SG-2 standard quadrature grid
 Dispersion:   Grimme D
 ---------------------------------------------------
 Iter    Rts Conv    Rts Left    Ttl Dev     Max Dev
 ---------------------------------------------------
   1         0          50      0.015563    0.001077
   2         0          50      0.004175    0.000179
   3         0          50      0.001373    0.000087
   4         0          50      0.000723    0.000067
   5         5          45      0.000334    0.000053
   6        15          35      0.000171    0.000046
   7        34          16      0.000095    0.000036
   8        45           5      0.000052    0.000019
   9        46           4      0.000038    0.000010
  10        49           1      0.000029    0.000005
  11        49           1      0.000025    0.000002
  12        49           1      0.000024    0.000001
  13        50           0      0.000023    0.000001    Roots Converged
 ---------------------------------------------------
 
 ---------------------------------------------------
             TDDFT Excitation Energies              
 ---------------------------------------------------

 Excited state   1: excitation energy (eV) =    2.3535
 Total energy for state  1:                 -3010.43241656 au
    Multiplicity: Singlet 
    Trans. Mom.: -0.0046 X   0.2580 Y  -0.0015 Z
    Strength   :     0.0038396244
    X: D(   49) --> V(    1) amplitude =  0.9711

 Excited state   2: excitation energy (eV) =    2.6707
 Total energy for state  2:                 -3010.42075753 au
    Multiplicity: Singlet 
    Trans. Mom.:  0.0006 X  -0.0524 Y   0.0002 Z
    Strength   :     0.0001793817
    X: D(   47) --> V(    1) amplitude =  0.8767
    X: D(   47) --> V(    2) amplitude = -0.4471

 Excited state   3: excitation energy (eV) =    2.6799
 Total energy for state  3:                 -3010.42042177 au
    Multiplicity: Singlet 
    Trans. Mom.:  0.2926 X   0.0048 Y   0.1563 Z
    Strength   :     0.0072265161
    X: D(   48) --> V(    1) amplitude =  0.9719

 Excited state   4: excitation energy (eV) =    2.9663
 Total energy for state  4:                 -3010.40989740 au
    Multiplicity: Singlet 
    Trans. Mom.: -0.0211 X  -0.0002 Y   0.0161 Z
    Strength   :     0.0000512436
    X: D(   45) --> V(    1) amplitude =  0.9083
    X: D(   45) --> V(    2) amplitude = -0.4077

 Excited state   5: excitation energy (eV) =    3.6635
 Total energy for state  5:                 -3010.38427590 au
    Multiplicity: Singlet 
    Trans. Mom.:  0.0018 X  -0.1307 Y   0.0002 Z
    Strength   :     0.0015336657
    X: D(   44) --> V(    1) amplitude = -0.4033
    X: D(   46) --> V(    1) amplitude =  0.8796

 Excited state   6: excitation energy (eV) =    3.8785
 Total energy for state  6:                 -3010.37637293 au
    Multiplicity: Singlet 
    Trans. Mom.: -0.0124 X   0.8797 Y  -0.0033 Z
    Strength   :     0.0735418527
    X: D(   44) --> V(    1) amplitude =  0.8841
    X: D(   46) --> V(    1) amplitude =  0.4280

 Excited state   7: excitation energy (eV) =    4.8124
 Total energy for state  7:                 -3010.34205404 au
    Multiplicity: Singlet 
    Trans. Mom.: -0.0015 X   0.0703 Y  -0.0005 Z
    Strength   :     0.0005834925
    X: D(   42) --> V(    1) amplitude =  0.2757
    X: D(   47) --> V(    1) amplitude =  0.4277
    X: D(   47) --> V(    2) amplitude =  0.7801
    X: D(   47) --> V(    4) amplitude = -0.2906

 Excited state   8: excitation energy (eV) =    4.9625
 Total energy for state  8:                 -3010.33653673 au
    Multiplicity: Singlet 
    Trans. Mom.: -0.0024 X   0.1572 Y  -0.0010 Z
    Strength   :     0.0030070079
    X: D(   42) --> V(    1) amplitude =  0.9417
    X: D(   47) --> V(    2) amplitude = -0.2236

 Excited state   9: excitation energy (eV) =    5.0583
 Total energy for state  9:                 -3010.33301557 au
    Multiplicity: Singlet 
    Trans. Mom.: -0.1986 X  -0.0036 Y  -0.1438 Z
    Strength   :     0.0074498186
    X: D(   45) --> V(    1) amplitude =  0.3913
    X: D(   45) --> V(    2) amplitude =  0.8294
    X: D(   45) --> V(    4) amplitude = -0.3061

 Excited state  10: excitation energy (eV) =    5.1130
 Total energy for state 10:                 -3010.33100425 au
    Multiplicity: Singlet 
    Trans. Mom.:  1.4403 X   0.0225 Y   0.4962 Z
    Strength   :     0.2907572083
    X: D(   43) --> V(    1) amplitude =  0.9397
    X: D(   49) --> V(    3) amplitude =  0.2582

 Excited state  11: excitation energy (eV) =    5.7375
 Total energy for state 11:                 -3010.30805471 au
    Multiplicity: Singlet 
    Trans. Mom.:  0.2374 X   0.0023 Y  -0.2719 Z
    Strength   :     0.0183135783
    X: D(   41) --> V(    1) amplitude =  0.9488

 Excited state  12: excitation energy (eV) =    5.7745
 Total energy for state 12:                 -3010.30669623 au
    Multiplicity: Singlet 
    Trans. Mom.:  0.0013 X   0.0083 Y   0.0002 Z
    Strength   :     0.0000099024
    X: D(   49) --> V(    2) amplitude =  0.8236
    X: D(   49) --> V(    4) amplitude =  0.4731

 Excited state  13: excitation energy (eV) =    6.0397
 Total energy for state 13:                 -3010.29695009 au
    Multiplicity: Singlet 
    Trans. Mom.: -0.1330 X  -0.0018 Y   0.0124 Z
    Strength   :     0.0026398471
    X: D(   48) --> V(    2) amplitude =  0.6779
    X: D(   48) --> V(    4) amplitude =  0.6751

 Excited state  14: excitation energy (eV) =    6.4443
 Total energy for state 14:                 -3010.28208218 au
    Multiplicity: Singlet 
    Trans. Mom.:  0.0105 X  -0.5640 Y   0.0031 Z
    Strength   :     0.0502318965
    X: D(   44) --> V(    2) amplitude = -0.3231
    X: D(   46) --> V(    2) amplitude =  0.7320
    X: D(   49) --> V(    2) amplitude = -0.2567
    X: D(   49) --> V(    4) amplitude =  0.4626

 Excited state  15: excitation energy (eV) =    6.5850
 Total energy for state 15:                 -3010.27691089 au
    Multiplicity: Singlet 
    Trans. Mom.: -1.4932 X  -0.0221 Y  -0.3021 Z
    Strength   :     0.3745349192
    X: D(   43) --> V(    1) amplitude = -0.2306
    X: D(   49) --> V(    3) amplitude =  0.9168

 Excited state  16: excitation energy (eV) =    6.5919
 Total energy for state 16:                 -3010.27665724 au
    Multiplicity: Singlet 
    Trans. Mom.: -0.0209 X  -0.1969 Y  -0.0038 Z
    Strength   :     0.0063325157
    X: D(   44) --> V(    2) amplitude =  0.2908
    X: D(   46) --> V(    2) amplitude =  0.2824
    X: D(   48) --> V(    3) amplitude =  0.8727

 Excited state  17: excitation energy (eV) =    6.6679
 Total energy for state 17:                 -3010.27386618 au
    Multiplicity: Singlet 
    Trans. Mom.: -0.0118 X   0.6290 Y  -0.0031 Z
    Strength   :     0.0646643026
    X: D(   44) --> V(    2) amplitude = -0.4756
    X: D(   46) --> V(    2) amplitude = -0.5233
    X: D(   48) --> V(    3) amplitude =  0.4727
    X: D(   49) --> V(    4) amplitude =  0.4037

 Excited state  18: excitation energy (eV) =    7.0735
 Total energy for state 18:                 -3010.25895992 au
    Multiplicity: Singlet 
    Trans. Mom.:  0.4184 X   0.0063 Y   0.1286 Z
    Strength   :     0.0332135103
    X: D(   47) --> V(    3) amplitude =  0.9763

 Excited state  19: excitation energy (eV) =    7.2024
 Total energy for state 19:                 -3010.25422261 au
    Multiplicity: Singlet 
    Trans. Mom.:  0.0026 X  -0.0524 Y   0.0010 Z
    Strength   :     0.0004864706
    X: D(   39) --> V(    1) amplitude = -0.6004
    X: D(   45) --> V(    3) amplitude =  0.7603

 Excited state  20: excitation energy (eV) =    7.2484
 Total energy for state 20:                 -3010.25253100 au
    Multiplicity: Singlet 
    Trans. Mom.:  0.6881 X   0.0108 Y   0.2665 Z
    Strength   :     0.0967242776
    X: D(   40) --> V(    1) amplitude =  0.3788
    X: D(   44) --> V(    3) amplitude = -0.2234
    X: D(   46) --> V(    3) amplitude =  0.8606

 Excited state  21: excitation energy (eV) =    7.2931
 Total energy for state 21:                 -3010.25088762 au
    Multiplicity: Singlet 
    Trans. Mom.:  0.0000 X   0.0675 Y  -0.0004 Z
    Strength   :     0.0008133775
    X: D(   39) --> V(    1) amplitude =  0.7236
    X: D(   45) --> V(    3) amplitude =  0.6289

 Excited state  22: excitation energy (eV) =    7.3706
 Total energy for state 22:                 -3010.24803975 au
    Multiplicity: Singlet 
    Trans. Mom.:  0.4979 X   0.0090 Y   0.3544 Z
    Strength   :     0.0674589934
    X: D(   40) --> V(    1) amplitude =  0.6775
    X: D(   44) --> V(    3) amplitude = -0.4107
    X: D(   46) --> V(    3) amplitude = -0.4521

 Excited state  23: excitation energy (eV) =    7.4156
 Total energy for state 23:                 -3010.24638683 au
    Multiplicity: Singlet 
    Trans. Mom.:  0.0049 X  -0.2784 Y   0.0018 Z
    Strength   :     0.0140888552
    X: D(   44) --> V(    2) amplitude =  0.5604
    X: D(   44) --> V(    4) amplitude =  0.4354
    X: D(   49) --> V(    2) amplitude = -0.3006
    X: D(   49) --> V(    4) amplitude =  0.5340

 Excited state  24: excitation energy (eV) =    7.5635
 Total energy for state 24:                 -3010.24095143 au
    Multiplicity: Singlet 
    Trans. Mom.: -0.0699 X  -0.0021 Y  -0.2279 Z
    Strength   :     0.0105305481
    X: D(   37) --> V(    1) amplitude = -0.3266
    X: D(   43) --> V(    2) amplitude = -0.2934
    X: D(   48) --> V(    2) amplitude = -0.5376
    X: D(   48) --> V(    4) amplitude =  0.5829

 Excited state  25: excitation energy (eV) =    7.6343
 Total energy for state 25:                 -3010.23835071 au
    Multiplicity: Singlet 
    Trans. Mom.: -0.8608 X  -0.0127 Y  -0.1197 Z
    Strength   :     0.1412897503
    X: D(   37) --> V(    1) amplitude =  0.5076
    X: D(   42) --> V(    3) amplitude = -0.2522
    X: D(   44) --> V(    3) amplitude =  0.6458
    X: D(   48) --> V(    2) amplitude = -0.3072
    X: D(   48) --> V(    4) amplitude =  0.2991

 Excited state  26: excitation energy (eV) =    7.8334
 Total energy for state 26:                 -3010.23103380 au
    Multiplicity: Singlet 
    Trans. Mom.:  0.0006 X  -0.0448 Y   0.0002 Z
    Strength   :     0.0003846727
    X: D(   35) --> V(    1) amplitude = -0.4089
    X: D(   38) --> V(    1) amplitude =  0.8046
    X: D(   42) --> V(    2) amplitude =  0.2753

 Excited state  27: excitation energy (eV) =    7.9079
 Total energy for state 27:                 -3010.22829558 au
    Multiplicity: Singlet 
    Trans. Mom.: -0.0400 X   0.0019 Y   0.5237 Z
    Strength   :     0.0534522276
    X: D(   37) --> V(    1) amplitude = -0.5822
    X: D(   40) --> V(    1) amplitude =  0.3378
    X: D(   43) --> V(    2) amplitude =  0.5243
    X: D(   44) --> V(    3) amplitude =  0.3593

 Excited state  28: excitation energy (eV) =    7.9963
 Total energy for state 28:                 -3010.22504675 au
    Multiplicity: Singlet 
    Trans. Mom.: -0.4068 X  -0.0058 Y  -0.0025 Z
    Strength   :     0.0324244116
    X: D(   37) --> V(    1) amplitude = -0.3190
    X: D(   40) --> V(    1) amplitude =  0.3255
    X: D(   43) --> V(    2) amplitude = -0.7190
    X: D(   44) --> V(    3) amplitude =  0.3519

 Excited state  29: excitation energy (eV) =    8.2029
 Total energy for state 29:                 -3010.21745317 au
    Multiplicity: Singlet 
    Trans. Mom.:  0.0011 X  -0.0838 Y   0.0001 Z
    Strength   :     0.0014123079
    X: D(   43) --> V(    3) amplitude =  0.5687
    X: D(   44) --> V(    2) amplitude = -0.4163
    X: D(   44) --> V(    4) amplitude =  0.5823

 Excited state  30: excitation energy (eV) =    8.4023
 Total energy for state 30:                 -3010.21012794 au
    Multiplicity: Singlet 
    Trans. Mom.:  0.0003 X  -0.0203 Y  -0.0001 Z
    Strength   :     0.0000845396
    X: D(   47) --> V(    2) amplitude =  0.3240
    X: D(   47) --> V(    4) amplitude =  0.8625

 Excited state  31: excitation energy (eV) =    8.4510
 Total energy for state 31:                 -3010.20833806 au
    Multiplicity: Singlet 
    Trans. Mom.: -0.0104 X   0.7073 Y  -0.0031 Z
    Strength   :     0.1036101072
    X: D(   43) --> V(    3) amplitude =  0.7066
    X: D(   44) --> V(    4) amplitude = -0.4747
    X: D(   46) --> V(    4) amplitude =  0.2405
    X: D(   49) --> V(    5) amplitude =  0.2167

 Excited state  32: excitation energy (eV) =    8.5440
 Total energy for state 32:                 -3010.20492036 au
    Multiplicity: Singlet 
    Trans. Mom.: -0.1613 X  -0.0025 Y   0.1173 Z
    Strength   :     0.0083238866
    X: D(   37) --> V(    1) amplitude =  0.2959
    X: D(   42) --> V(    3) amplitude =  0.8179
    X: D(   45) --> V(    4) amplitude = -0.3521

 Excited state  33: excitation energy (eV) =    8.5920
 Total energy for state 33:                 -3010.20315374 au
    Multiplicity: Singlet 
    Trans. Mom.:  0.0044 X   0.0000 Y   0.0339 Z
    Strength   :     0.0002462131
    X: D(   42) --> V(    3) amplitude =  0.3970
    X: D(   45) --> V(    2) amplitude =  0.2905
    X: D(   45) --> V(    4) amplitude =  0.7946

 Excited state  34: excitation energy (eV) =    8.6455
 Total energy for state 34:                 -3010.20118962 au
    Multiplicity: Singlet 
    Trans. Mom.: -0.0029 X   0.1625 Y  -0.0008 Z
    Strength   :     0.0055917347
    X: D(   35) --> V(    1) amplitude =  0.3987
    X: D(   42) --> V(    2) amplitude =  0.7355
    X: D(   46) --> V(    4) amplitude =  0.3673

 Excited state  35: excitation energy (eV) =    8.6558
 Total energy for state 35:                 -3010.20080984 au
    Multiplicity: Singlet 
    Trans. Mom.: -0.0005 X   0.0451 Y  -0.0002 Z
    Strength   :     0.0004308593
    X: D(   35) --> V(    1) amplitude = -0.2435
    X: D(   42) --> V(    2) amplitude = -0.2710
    X: D(   44) --> V(    4) amplitude =  0.3082
    X: D(   46) --> V(    4) amplitude =  0.7695

 Excited state  36: excitation energy (eV) =    8.7431
 Total energy for state 36:                 -3010.19760370 au
    Multiplicity: Singlet 
    Trans. Mom.:  0.0093 X  -0.6702 Y   0.0026 Z
    Strength   :     0.0962218929
    X: D(   42) --> V(    2) amplitude =  0.2292
    X: D(   43) --> V(    3) amplitude = -0.2156
    X: D(   49) --> V(    5) amplitude =  0.8490

 Excited state  37: excitation energy (eV) =    8.7794
 Total energy for state 37:                 -3010.19626885 au
    Multiplicity: Singlet 
    Trans. Mom.:  0.0063 X  -0.4280 Y   0.0021 Z
    Strength   :     0.0394060289
    X: D(   35) --> V(    1) amplitude =  0.6102
    X: D(   38) --> V(    1) amplitude =  0.3869
    X: D(   38) --> V(    2) amplitude = -0.3150
    X: D(   41) --> V(    3) amplitude = -0.2186
    X: D(   42) --> V(    2) amplitude = -0.3348
    X: D(   49) --> V(    5) amplitude =  0.2517

 Excited state  38: excitation energy (eV) =    8.8612
 Total energy for state 38:                 -3010.19326223 au
    Multiplicity: Singlet 
    Trans. Mom.:  0.1257 X   0.0027 Y   0.2155 Z
    Strength   :     0.0135130690
    X: D(   34) --> V(    1) amplitude =  0.6681
    X: D(   36) --> V(    1) amplitude = -0.3040
    X: D(   40) --> V(    2) amplitude = -0.2278
    X: D(   41) --> V(    2) amplitude = -0.5414

 Excited state  39: excitation energy (eV) =    8.9948
 Total energy for state 39:                 -3010.18835198 au
    Multiplicity: Singlet 
    Trans. Mom.:  0.4401 X   0.0060 Y  -0.0236 Z
    Strength   :     0.0428056144
    X: D(   48) --> V(    5) amplitude =  0.8846
    X: D(   48) --> V(    7) amplitude =  0.2226
    X: D(   48) --> V(    9) amplitude =  0.3159

 Excited state  40: excitation energy (eV) =    9.1700
 Total energy for state 40:                 -3010.18191253 au
    Multiplicity: Singlet 
    Trans. Mom.:  0.0012 X  -0.1058 Y   0.0002 Z
    Strength   :     0.0025153082
    X: D(   35) --> V(    1) amplitude = -0.2900
    X: D(   41) --> V(    3) amplitude = -0.8513

 Excited state  41: excitation energy (eV) =    9.2840
 Total energy for state 41:                 -3010.17772449 au
    Multiplicity: Singlet 
    Trans. Mom.:  0.0863 X  -0.0036 Y   0.2051 Z
    Strength   :     0.0112681063
    X: D(   34) --> V(    1) amplitude =  0.2246
    X: D(   36) --> V(    1) amplitude =  0.7919
    X: D(   43) --> V(    4) amplitude =  0.3390

 Excited state  42: excitation energy (eV) =    9.2871
 Total energy for state 42:                 -3010.17761248 au
    Multiplicity: Singlet 
    Trans. Mom.:  0.0019 X  -0.2463 Y  -0.0038 Z
    Strength   :     0.0138091999
    X: D(   41) --> V(    3) amplitude = -0.2582
    X: D(   47) --> V(    5) amplitude =  0.6057
    X: D(   47) --> V(    7) amplitude = -0.3623
    X: D(   47) --> V(    8) amplitude =  0.2778
    X: D(   47) --> V(   11) amplitude = -0.2863
    X: D(   47) --> V(   12) amplitude =  0.3281

 Excited state  43: excitation energy (eV) =    9.3546
 Total energy for state 43:                 -3010.17512850 au
    Multiplicity: Singlet 
    Trans. Mom.:  0.0013 X  -0.0962 Y   0.0003 Z
    Strength   :     0.0021200225
    X: D(   46) --> V(    5) amplitude =  0.6006
    X: D(   46) --> V(    7) amplitude = -0.3498
    X: D(   46) --> V(   11) amplitude = -0.2837
    X: D(   46) --> V(   12) amplitude =  0.3215
    X: D(   49) --> V(    7) amplitude =  0.2378

 Excited state  44: excitation energy (eV) =    9.4611
 Total energy for state 44:                 -3010.17121579 au
    Multiplicity: Singlet 
    Trans. Mom.: -0.0328 X  -0.0024 Y  -0.4454 Z
    Strength   :     0.0462406533
    X: D(   34) --> V(    1) amplitude =  0.4958
    X: D(   41) --> V(    2) amplitude =  0.5109
    X: D(   43) --> V(    4) amplitude = -0.4409

 Excited state  45: excitation energy (eV) =    9.5135
 Total energy for state 45:                 -3010.16928920 au
    Multiplicity: Singlet 
    Trans. Mom.: -0.0010 X   0.0818 Y  -0.0002 Z
    Strength   :     0.0015604975
    X: D(   44) --> V(    8) amplitude =  0.2415
    X: D(   49) --> V(    7) amplitude =  0.6112
    X: D(   49) --> V(    8) amplitude =  0.6205
    X: D(   49) --> V(    9) amplitude = -0.2477

 Excited state  46: excitation energy (eV) =    9.5264
 Total energy for state 46:                 -3010.16881527 au
    Multiplicity: Singlet 
    Trans. Mom.: -0.3217 X  -0.0031 Y   0.1925 Z
    Strength   :     0.0328020444
    X: D(   34) --> V(    1) amplitude =  0.3445
    X: D(   41) --> V(    2) amplitude =  0.4138
    X: D(   43) --> V(    4) amplitude =  0.6333
    X: D(   49) --> V(    6) amplitude = -0.2171

 Excited state  47: excitation energy (eV) =    9.5539
 Total energy for state 47:                 -3010.16780626 au
    Multiplicity: Singlet 
    Trans. Mom.:  0.0018 X  -0.2004 Y   0.0016 Z
    Strength   :     0.0094037212
    X: D(   44) --> V(    5) amplitude = -0.6510
    X: D(   49) --> V(    9) amplitude =  0.5605

 Excited state  48: excitation energy (eV) =    9.7192
 Total energy for state 48:                 -3010.16173149 au
    Multiplicity: Singlet 
    Trans. Mom.: -0.0002 X  -0.0036 Y  -0.0002 Z
    Strength   :     0.0000030530
    X: D(   44) --> V(    8) amplitude =  0.2176
    X: D(   49) --> V(    7) amplitude = -0.5136
    X: D(   49) --> V(    8) amplitude =  0.5786
    X: D(   49) --> V(    9) amplitude =  0.4119

 Excited state  49: excitation energy (eV) =    9.7488
 Total energy for state 49:                 -3010.16064274 au
    Multiplicity: Singlet 
    Trans. Mom.: -0.5466 X  -0.0073 Y   0.1157 Z
    Strength   :     0.0745637530
    X: D(   36) --> V(    1) amplitude =  0.2912
    X: D(   45) --> V(    5) amplitude =  0.5403
    X: D(   45) --> V(    7) amplitude = -0.4289
    X: D(   45) --> V(   11) amplitude = -0.2321
    X: D(   49) --> V(    6) amplitude =  0.4746

 Excited state  50: excitation energy (eV) =    9.7975
 Total energy for state 50:                 -3010.15885553 au
    Multiplicity: Singlet 
    Trans. Mom.: -0.0004 X  -0.0193 Y  -0.0018 Z
    Strength   :     0.0000902916
    X: D(   39) --> V(    2) amplitude = -0.2449
    X: D(   42) --> V(    4) amplitude = -0.8912
 
 ---------------------------------------------------
  SETman timing summary (seconds)
  CPU time              3123.10s
  System time              0.01s
  Wall time              318.24s

                    STATE-TO-STATE TRANSITION MOMENTS


    Electron Dipole Moments of Ground State
 -----------------------------------------------------
   State     X           Y           Z(a.u.) 
 -----------------------------------------------------
       0   -36.567199   -2.407447  -117.636039
 -----------------------------------------------------

 Within CIS/TDA Excited States:

    Electron Dipole Moments of Singlet Excited State
 -----------------------------------------------------
   State     X           Y           Z(a.u.) 
 -----------------------------------------------------
       1   -34.272910   -2.366956  -115.777362
       2   -39.580603   -2.452906  -117.736313
       3   -33.457100   -2.353392  -115.302811
       4   -39.810501   -2.453087  -117.812973
       5   -42.077297   -2.487911  -117.953759
       6   -36.958151   -2.413005  -117.849363
       7   -40.057362   -2.460209  -117.901055
       8   -36.849293   -2.412723  -117.980695
       9   -39.658600   -2.451342  -117.883058
      10   -36.263475   -2.401092  -117.158956
      11   -36.302794   -2.404713  -118.039253
      12   -33.951494   -2.365716  -116.709600
      13   -33.648209   -2.358975  -115.864682
      14   -33.177170   -2.353129  -116.401027
      15   -32.749956   -2.342379  -115.291494
      16   -33.731070   -2.359021  -115.343263
      17   -42.014376   -2.486981  -117.511283
      18   -38.176093   -2.431508  -117.756519
      19   -40.099887   -2.459164  -117.789428
      20   -42.211245   -2.489097  -117.586155
      21   -38.634371   -2.438151  -117.894266
      22   -35.109215   -2.381342  -117.079502
      23   -34.340161   -2.373928  -117.120282
      24   -32.055409   -2.335908  -115.948617
      25   -34.881814   -2.380862  -117.190952
      26   -37.521788   -2.422530  -117.950336
      27   -33.678901   -2.363774  -117.164276
      28   -36.558944   -2.408808  -117.635324
      29   -33.404670   -2.355971  -116.504683
      30   -43.983151   -2.522306  -118.936312
      31   -38.247514   -2.425179  -117.944682
      32   -36.420179   -2.410884  -117.029110
      33   -41.826995   -2.485840  -118.603696
      34   -35.047759   -2.384737  -117.889172
      35   -43.310244   -2.508944  -118.754247
      36   -37.180406   -2.412309  -116.742733
      37   -37.990195   -2.425834  -117.194340
      38   -35.944396   -2.400398  -118.103277
      39   -36.275360   -2.395864  -115.443697
      40   -36.634231   -2.408082  -117.548642
      41   -38.927198   -2.441250  -117.498663
      42   -39.737622   -2.453126  -117.898841
      43   -38.662253   -2.436045  -117.372670
      44   -35.336449   -2.389916  -118.008182
      45   -35.009974   -2.382487  -117.186612
      46   -37.057235   -2.410540  -116.729306
      47   -38.153048   -2.430390  -117.584136
      48   -35.982447   -2.393380  -116.621797
      49   -37.669445   -2.421125  -116.694438
      50   -37.141309   -2.418151  -118.543136
 -----------------------------------------------------

                Transition Moments Between Ground and Singlet Excited States
 --------------------------------------------------------------------------------
    States   X          Y          Z           Strength(a.u.)
 --------------------------------------------------------------------------------
    0    1  -0.005199   0.298966  -0.001765    0.005379871
    0    2   0.000905  -0.073739   0.000330   0.0003592243
    0    3   0.292687   0.004895   0.202686    0.008457146
    0    4  -0.022061  -0.000311   0.003767   3.674089E-05
    0    5   0.000170  -0.019138  -0.000172   3.445384E-05
    0    6  -0.015128   1.069688  -0.004018      0.1155486
    0    7  -0.001820   0.102066  -0.000522    0.001232235
    0    8  -0.003430   0.233586  -0.001270    0.006666724
    0    9  -0.053935  -0.001397  -0.094380    0.001468776
    0   10   1.471481   0.023100   0.550684      0.3206423
    0   11   0.317539   0.003475  -0.253095      0.0234087
    0   12   0.002016  -0.005723   0.000238   5.258469E-06
    0   13  -0.188563  -0.002637   0.016418     0.00533476
    0   14  -0.002288   0.078795  -0.000604    0.001000431
    0   15   0.002240   0.077289   0.000699   0.0009712472
    0   16  -1.504683  -0.023030  -0.317151      0.3910001
    0   17   0.465462   0.008309   0.133549     0.04074506
    0   18   0.013016  -0.916589   0.003928      0.1477163
    0   19   0.003752  -0.171516   0.001239    0.005198257
    0   20   0.688990   0.010343   0.219226     0.09323383
    0   21   0.000415   0.085905  -0.000228    0.001319813
    0   22   0.690587   0.013323   0.392151      0.1147364
    0   23   0.008954  -0.398793   0.003597     0.02900028
    0   24  -0.263371  -0.004963  -0.263519     0.02584891
    0   25  -1.118155  -0.017197  -0.308189       0.255868
    0   26   0.000548  -0.055204   0.000125   0.0005868155
    0   27   0.163273   0.005140   0.587232     0.07291211
    0   28  -1.245680  -0.020133  -0.077149      0.3142581
    0   29   0.017183  -0.181006   0.001399    0.006671831
    0   30   0.000736  -0.021670  -0.000080    9.68016E-05
    0   31  -0.265146   0.007111   0.105278     0.01707132
    0   32  -0.003371   0.576036  -0.004421     0.06959654
    0   33  -0.079635  -0.001700   0.041277     0.00169536
    0   34  -0.003874   0.211155  -0.001107    0.009463997
    0   35  -0.002681   0.181920  -0.000859    0.007054309
    0   36   0.009097  -0.662511   0.002490     0.09440671
    0   37   0.012359  -0.855243   0.003824      0.1586754
    0   38   0.178562   0.003543   0.229690     0.01845622
    0   39   0.433247   0.005882  -0.035035     0.04166587
    0   40   0.002332  -0.192515   0.000589    0.008353377
    0   41   0.005928  -0.347454   0.002396     0.02754882
    0   42   0.170439   0.004939   0.266827     0.02292074
    0   43   0.001196  -0.071520   0.000535    0.001174521
    0   44  -0.123669  -0.002111  -0.179650     0.01108326
    0   45  -0.000757   0.086053  -0.000185    0.001727177
    0   46   0.003970  -0.208184   0.000288     0.01015567
    0   47  -0.593472  -0.007352   0.309321      0.1054176
    0   48  -0.000158  -0.018854  -0.000066   8.473266E-05
    0   49  -0.372705  -0.004104   0.304350     0.05548977
    0   50  -0.000571  -0.016823   0.000899   6.827771E-05
 --------------------------------------------------------------------------------

                Transition Moments Between Singlet Excited States
 --------------------------------------------------------------------------------
    States   X          Y          Z           Strength(a.u.)
 --------------------------------------------------------------------------------
    1    2  -1.063003  -0.017084  -0.376160    0.007482997
    1    3  -0.000999   0.083406  -0.000105   4.551301E-05
    1    4  -0.004708   0.283860  -0.001504    0.001061469
    1    5   0.745764   0.012211   0.421726     0.02487777
    1    6  -0.977786  -0.016817  -0.905976     0.07249244
    1    7  -0.819966  -0.012706  -0.237602     0.04233443
    1    8  -0.129537  -0.002896  -0.359875    0.009068379
    1    9   0.000488  -0.050046   0.000394   0.0001605874
    1   10  -0.009712   0.747753  -0.002463     0.03897573
    1   11   0.000246   0.154330   0.000132    0.001947984
    1   12  -2.158714  -0.033789  -0.853250      0.4442267
    1   13   0.002071  -0.183036   0.000458    0.002972401
    1   14  -0.009803   0.001380   0.358305     0.01295343
    1   15  -0.024746  -0.002528  -0.267213    0.007365589
    1   16  -0.009737   0.603428  -0.003399     0.03829691
    1   17   0.001556  -0.094194   0.000414    0.001007666
    1   18  -0.111960  -0.001367   0.052036    0.001762524
    1   19  -0.014954  -0.000935  -0.034865   0.0001676825
    1   20   0.002485  -0.156847   0.000573    0.002907145
    1   21  -0.080028  -0.000854  -0.009823   0.0007715574
    1   22   0.005097  -0.516987   0.002382     0.03253123
    1   23   0.562510   0.006002  -0.097587     0.03979324
    1   24  -0.002492   0.210888  -0.000938    0.005605423
    1   25  -0.002369   0.187880  -0.000458    0.004589211
    1   26  -0.234100  -0.004482  -0.296546     0.01889692
    1   27   0.005822  -0.428592   0.001472     0.02500153
    1   28   0.000694  -0.385365   0.002740     0.02101863
    1   29  -0.409216  -0.000859   0.098078     0.02508061
    1   30  -0.112713  -0.001585  -0.050432    0.002222467
    1   31  -0.002615  -0.050254  -0.004905     0.00038207
    1   32  -0.167031  -0.002242  -0.273343     0.01534734
    1   33  -0.000049   0.004683   0.000178    3.30522E-06
    1   34   0.151539   0.002834   0.122402    0.005769601
    1   35   0.000542   0.000014   0.011966   2.194446E-05
    1   36  -0.264263  -0.005129  -0.317519     0.02643389
    1   37  -0.183008  -0.002869  -0.017325    0.005297054
    1   38   0.001281  -0.098001   0.000436    0.001516285
    1   39  -0.000140   0.003124  -0.000197   1.574181E-06
    1   40  -0.087208  -0.001828  -0.130410    0.004066075
    1   41  -0.060333  -0.000749  -0.089261    0.001949582
    1   42  -0.001351   0.108507  -0.000304    0.001983248
    1   43  -0.097738  -0.001556  -0.058946    0.002206892
    1   44  -0.000114   0.021271   0.000553   7.823999E-05
    1   45   0.058264   0.001698   0.220058    0.008968162
    1   46  -0.124196  -0.002071  -0.050582    0.003131025
    1   47   0.000234  -0.038233  -0.000110   0.0002560629
    1   48   0.140641   0.001751  -0.094300    0.005109455
    1   49   0.001000  -0.073137   0.000504   0.0009602218
    1   50  -0.026448  -0.000642  -0.041988   0.0004436004
    2    3  -0.002548   0.144350  -0.000854   1.370609E-05
    2    4  -0.022266   1.552795  -0.006729     0.01757047
    2    5  -0.145119  -0.002434  -0.111698   0.0009392326
    2    6   0.201009   0.003395   0.190929    0.002683347
    2    7  -2.740682  -0.040166  -0.167290      0.3935695
    2    8   0.983214   0.014068   0.123524     0.05510087
    2    9   0.002639  -0.212276   0.000871    0.002624045
    2   10   0.000050  -0.053675   0.000037   0.0001838365
    2   11   0.005763  -0.441661   0.001721     0.01480861
    2   12   0.394901   0.005752   0.149065     0.01364028
    2   13  -0.000548   0.053060  -0.000109   0.0002332162
    2   14   0.049661   0.000430  -0.056522   0.0005374379
    2   15  -0.064974  -0.000740   0.045263   0.0006044233
    2   16   0.000747  -0.051431   0.000368    0.000262625
    2   17  -0.006576   0.432361  -0.001711     0.02012952
    2   18  -0.008883   0.000325  -0.018479   4.614158E-05
    2   19   0.282525   0.003951   0.017844     0.00886165
    2   20   0.001692  -0.081791   0.000322   0.0007512949
    2   21  -0.293233  -0.004139   0.007370    0.009706063
    2   22   0.002813  -0.236728   0.000824    0.006491348
    2   23  -0.109496  -0.002388   0.045734    0.001636723
    2   24  -0.001987   0.178781  -0.000725    0.003840393
    2   25   0.001007  -0.137180   0.000611    0.002335619
    2   26   0.483318   0.006931   0.042236      0.0297775
    2   27  -0.001334   0.107144  -0.000464    0.001494887
    2   28   0.000616  -0.001389  -0.000009   3.133147E-07
    2   29   0.050779   0.000922   0.015602    0.000383198
    2   30  -0.447853  -0.007876  -0.382652     0.04853619
    2   31   0.004616  -0.247293   0.001771    0.008783566
    2   32   0.041332   0.005037   0.033348   0.0004088549
    2   33  -0.000463   0.037210  -0.000260   0.0002002368
    2   34  -0.234605  -0.003868   0.015171    0.008078765
    2   35   0.041192   0.000628  -0.002895   0.0002508053
    2   36   0.263708   0.004967   0.096166     0.01174264
    2   37  -0.272452  -0.004857  -0.001667     0.01120023
    2   38   0.010787  -0.709275   0.003114     0.07646774
    2   39  -0.000365   0.032152  -0.000085   0.0001596738
    2   40   0.254688   0.003669   0.040097     0.01059144
    2   41  -0.052988  -0.001586  -0.103895    0.002204802
    2   42   0.001248  -0.067935   0.000663    0.000750458
    2   43   0.071805   0.000994   0.029427   0.0009846933
    2   44   0.002929  -0.208738   0.000805    0.007274556
    2   45   0.005023   0.000235  -0.035556   0.0002155712
    2   46   0.003393   0.000007   0.005881   7.752289E-06
    2   47   0.000152  -0.007309   0.000123   9.049826E-06
    2   48  -0.037758  -0.000414   0.009140   0.0002600699
    2   49   0.001200  -0.066076   0.000472    0.000758175
    2   50  -0.009899   0.000032  -0.008014   2.826276E-05
    3    4  -0.532770  -0.008195  -0.196528    0.002137735
    3    5   0.000054  -0.005133   0.000012   7.204406E-07
    3    6   0.001534  -0.091210   0.000547    0.000285027
    3    7  -0.000780   0.042169  -0.000157    9.16713E-05
    3    8  -0.001079   0.065098  -0.000138   0.0002350214
    3    9  -0.268669  -0.003902   0.011949    0.004164334
    3   10  -0.252639  -0.004400  -0.168126    0.005817181
    3   11   0.012197   0.001338   0.389129     0.01140505
    3   12   0.000815  -0.011297   0.000686    9.77103E-06
    3   13  -1.928425  -0.031979  -0.889553      0.3706771
    3   14  -0.008767   0.529375  -0.002540     0.02642832
    3   15  -0.014109   0.860408  -0.003864     0.07088766
    3   16  -0.061639   0.000500  -0.022387   0.0004240651
    3   17   0.051944   0.000745  -0.022490   0.0003428725
    3   18   0.000843  -0.046691   0.000097   0.0002378634
    3   19  -0.000278   0.044975   0.000001   0.0002223035
    3   20   0.173389   0.002807   0.111334    0.004739236
    3   21  -0.000037  -0.006410   0.000089   4.608493E-06
    3   22   0.648278   0.010148   0.104134     0.04965755
    3   23   0.004065  -0.106503   0.001110     0.00131251
    3   24   0.531703   0.007109  -0.268359     0.04238775
    3   25   0.224563   0.002145  -0.293488     0.01685899
    3   26  -0.002659   0.183904  -0.001161    0.004256537
    3   27   0.509050   0.008258   0.232954     0.04060609
    3   28   0.007141  -0.000300   0.057007   0.0004455709
    3   29   0.000744  -0.050389  -0.000429   0.0003431062
    3   30   0.000076  -0.007938  -0.000083   8.772085E-06
    3   31   0.010361  -0.000439  -0.130652    0.002454929
    3   32  -0.000120  -0.008617   0.002271    1.13576E-05
    3   33  -0.091046  -0.001491  -0.061297    0.001734233
    3   34   0.000355  -0.038394  -0.000225    0.000214471
    3   35   0.000098  -0.002751   0.000064   1.110258E-06
    3   36  -0.000433   0.034937   0.000258   0.0001810918
    3   37   0.000036   0.005365  -0.000269   4.332972E-06
    3   38   0.093917  -0.000079  -0.372057     0.02227943
    3   39  -0.440592  -0.007594  -0.329574     0.04656505
    3   40   0.000329  -0.025192  -0.000262   0.0001007056
    3   41   0.000421  -0.014646   0.000297   3.466712E-05
    3   42   0.061611   0.001322   0.116684    0.002818741
    3   43   0.000031   0.007192   0.000113   8.424572E-06
    3   44  -0.028428  -0.001746  -0.344853     0.01990748
    3   45  -0.000142   0.011426   0.000410   2.176908E-05
    3   46  -0.000298   0.012658  -0.000153   2.686171E-05
    3   47   0.110087   0.002120   0.136126    0.005169027
    3   48   0.000206  -0.018587   0.000016   5.930509E-05
    3   49   0.025352   0.000629   0.087602     0.00143827
    3   50   0.000066   0.004037   0.000078     2.8309E-06
    4    5   0.000157  -0.010025  -0.000013   2.082591E-06
    4    6  -0.000176   0.020392  -0.000010   1.148668E-05
    4    7  -0.000634   0.027806  -0.000112   3.473805E-05
    4    8  -0.002750   0.055888  -0.000308   0.0001528492
    4    9  -2.829921  -0.041812  -0.219085      0.4104649
    4   10  -0.175243  -0.002417   0.008334    0.001740144
    4   11   0.511522   0.006959  -0.022823     0.01799305
    4   12   0.000169   0.028740  -0.000074   5.720985E-05
    4   13   0.108933   0.001902   0.057782    0.001148887
    4   14   0.000773  -0.044163   0.000171   0.0001710093
    4   15   0.000800  -0.048387   0.000252   0.0002086694
    4   16   0.012898   0.000135  -0.000809   1.536296E-05
    4   17   0.025702   0.000443   0.010528   7.744892E-05
    4   18   0.000540  -0.019566   0.000127   3.925104E-05
    4   19  -0.002531   0.208058  -0.000768     0.00447115
    4   20   0.145506   0.000425  -0.005765    0.002225954
    4   21  -0.008084   0.502017  -0.002048     0.02659591
    4   22   0.540870   0.008098   0.001768     0.03175698
    4   23   0.001428   0.052675  -0.000206   0.0003024042
    4   24  -0.600688  -0.008713   0.024832     0.04079728
    4   25   0.618300   0.009013   0.023401     0.04473296
    4   26   0.001115   0.027895  -0.000170   9.290371E-05
    4   27  -0.379064  -0.005467  -0.025249     0.01774297
    4   28  -0.152885  -0.002223   0.010816    0.003015826
    4   29   0.001740  -0.009673  -0.000111   1.241021E-05
    4   30   0.000201   0.009568   0.000144   1.214364E-05
    4   31   0.587932   0.011263   0.213115     0.05331709
    4   32  -0.013222   0.134756  -0.004989    0.002503853
    4   33  -0.300989  -0.006154  -0.355762     0.02982218
    4   34  -0.003018   0.239632  -0.000974    0.007974354
    4   35   0.001836  -0.103821   0.000780    0.001507062
    4   36   0.006696  -0.442525   0.002058     0.02775687
    4   37  -0.008402   0.557273  -0.002526     0.04458973
    4   38  -0.016382  -0.001731  -0.039849   0.0002689986
    4   39   0.045269   0.000683   0.030844    0.000441625
    4   40   0.003435  -0.223798   0.000938    0.007615663
    4   41   0.001185  -0.060304   0.000597   0.0005631376
    4   42   0.071912   0.001441   0.090809    0.002083401
    4   43   0.000781  -0.045292   0.000345   0.0003205496
    4   44  -0.033359  -0.000206   0.070629    0.000973984
    4   45   0.000420  -0.020897  -0.000018   6.984598E-05
    4   46  -0.000203   0.030159   0.000029   0.0001463515
    4   47  -0.102550  -0.001732  -0.081833    0.002788955
    4   48   0.000152  -0.012599   0.000052   2.619712E-05
    4   49  -0.091839  -0.001486  -0.065767    0.002122297
    4   50   0.000586  -0.078038   0.000126    0.001016746
    5    6  -2.208435  -0.032438  -0.096630     0.03375303
    5    7  -0.099952  -0.001747  -0.063860   0.0003403775
    5    8  -0.157379  -0.002807  -0.085027   0.0008993442
    5    9  -0.000595   0.035273  -0.000128   3.761269E-05
    5   10   0.009089  -0.640702   0.002623     0.01470273
    5   11   0.006687  -0.449859   0.001821     0.00969615
    5   12   0.271291   0.003108   0.032729    0.003625183
    5   13  -0.001195   0.084195  -0.000366   0.0003887307
    5   14   0.665254   0.010600   0.137225     0.03089059
    5   15  -0.431712  -0.007437  -0.050361     0.01292218
    5   16  -0.007479   0.438636  -0.002115     0.01371458
    5   17   0.001697  -0.001859   0.000285   5.109941E-07
    5   18  -1.535452  -0.023131  -0.235291      0.1972555
    5   19  -0.235753  -0.002921  -0.029699     0.00466189
    5   20  -0.012538   0.835987  -0.003298     0.05889725
    5   21   0.028054   0.002581  -0.012519   8.058158E-05
    5   22  -0.005127   0.260201  -0.001816    0.005947989
    5   23   0.351168   0.006352   0.166522     0.01332422
    5   24   0.000432  -0.006140   0.000207   3.495036E-06
    5   25  -0.000234   0.018494  -0.000171   3.287979E-05
    5   26  -0.030339  -0.000190   0.092496   0.0009331995
    5   27   0.000383  -0.029418  -0.000045   8.845425E-05
    5   28  -0.003582   0.329867   0.000901     0.01171405
    5   29   0.082369  -0.002270   0.185991    0.004458988
    5   30  -0.038174  -0.000734  -0.002933   0.0001640136
    5   31   0.001324   0.000534  -0.000407   2.545767E-07
    5   32   0.036533   0.000410  -0.039788   0.0003375062
    5   33  -0.001366   0.052431  -0.000532    0.000320745
    5   34  -0.171432  -0.002611  -0.073638    0.004113048
    5   35  -0.852119  -0.014049  -0.506953      0.1170606
    5   36   0.048973   0.000564  -0.064612   0.0007953039
    5   37  -0.045479  -0.000102   0.166923    0.003676484
    5   38   0.003184  -0.224478   0.000758    0.006247807
    5   39  -0.000270   0.019924  -0.000141   5.020288E-05
    5   40  -0.018267  -0.000986  -0.018057   8.675235E-05
    5   41  -0.008172   0.002994  -0.019395   6.058355E-05
    5   42  -0.011811   0.843337  -0.003308     0.09570236
    5   43  -0.299738  -0.004078  -0.250167      0.0206542
    5   44  -0.000521   0.030907  -0.000205   0.0001327421
    5   45  -0.048905  -0.001028  -0.084100    0.001317295
    5   46   0.006295   0.000390  -0.032070   0.0001497468
    5   47   0.001206  -0.083904   0.000256    0.000994825
    5   48  -0.107573  -0.001749  -0.047915    0.002001504
    5   49  -0.003910   0.274324  -0.001137     0.01095812
    5   50   0.027499   0.001252  -0.035209   0.0002920835
    6    7   0.150252   0.002523   0.065776   0.0004650688
    6    8   0.138045   0.002995   0.169703     0.00101443
    6    9   0.001205  -0.092418   0.000265   0.0001991737
    6   10  -0.008234   0.601008  -0.002162     0.01044218
    6   11  -0.008685   0.667135  -0.002456     0.01824888
    6   12  -0.742216  -0.009950  -0.134801      0.0236979
    6   13   0.001459  -0.100586   0.000437   0.0004849339
    6   14  -1.468192  -0.022840  -0.290376      0.1344894
    6   15   0.645870   0.010663   0.019640      0.0256758
    6   16   0.010830  -0.544606   0.002870     0.01909485
    6   17   0.001346  -0.035441   0.000177    9.15104E-05
    6   18  -0.712982  -0.010734  -0.068975     0.03840076
    6   19   0.019326  -0.000182  -0.043133   0.0001689963
    6   20  -0.000972   0.057369  -0.000487     0.00025466
    6   21  -0.059133   0.000902   0.076894   0.0007328556
    6   22   0.019306  -0.959015   0.005710     0.07444478
    6   23  -1.217346  -0.023172  -0.432227      0.1356832
    6   24  -0.005242   0.338351  -0.001597     0.00975953
    6   25  -0.003637   0.206646  -0.001038    0.003810248
    6   26   0.060725   0.001014   0.117455    0.001601113
    6   27   0.000688  -0.050654   0.000472   0.0002445617
    6   28   0.000851   0.289607  -0.004708    0.008451123
    6   29   0.439829   0.002226  -0.291911       0.028102
    6   30   0.091455   0.001169  -0.023776   0.0009372198
    6   31  -0.001533  -0.091848   0.002392   0.0009175886
    6   32  -0.143508  -0.000130   0.111786    0.003599014
    6   33   0.000708  -0.063584  -0.000158   0.0004434863
    6   34   0.178946   0.002659   0.025686    0.003635692
    6   35  -0.338665  -0.005809  -0.286251     0.02205473
    6   36  -0.046318  -0.001301  -0.086398    0.001096519
    6   37  -0.214784  -0.003357  -0.169458    0.008678035
    6   38  -0.003294   0.245008  -0.001072    0.007028195
    6   39  -0.000226   0.015827  -0.000004   2.994804E-05
    6   40  -0.043642  -0.000964  -0.039582   0.0004319273
    6   41   0.025441   0.002722   0.007302   9.002333E-05
    6   42  -0.008088   0.551848  -0.002547     0.03887621
    6   43  -0.033128   0.000487   0.038948   0.0003361979
    6   44  -0.006181   0.438323  -0.001444     0.02536866
    6   45   0.028009   0.000535   0.197918    0.005284728
    6   46   0.267549   0.005135   0.326542     0.02375488
    6   47   0.000719  -0.005505   0.000817   4.231061E-06
    6   48   0.014576   0.000203   0.010790   4.519326E-05
    6   49  -0.001933   0.122734  -0.000555    0.002089569
    6   50  -0.066784  -0.000491  -0.048166   0.0009446442
    7    8   1.043358   0.016558  -0.002936    0.004257919
    7    9  -0.022428   1.472618  -0.006450      0.0130842
    7   10  -0.004588   0.269049  -0.001305   0.0008413798
    7   11   0.006314  -0.423754   0.001877    0.004258849
    7   12  -0.000928  -0.000404   0.006658    1.10445E-06
    7   13  -0.000057  -0.002232  -0.000021   1.527319E-07
    7   14  -0.109824  -0.001808  -0.016165   0.0005268725
    7   15  -0.022141  -0.000514  -0.027107   5.415128E-05
    7   16  -0.001331   0.091487  -0.000436   0.0003940567
    7   17  -0.012691   0.866039  -0.003423     0.04160858
    7   18   0.004357   0.000884  -0.004963   2.554626E-06
    7   19   0.192486   0.002622   0.021145    0.002189016
    7   20   0.000619  -0.099473   0.000346   0.0005943641
    7   21   0.164981   0.002622   0.002783    0.001650213
    7   22   0.003918  -0.258503   0.001151    0.004252714
    7   23  -0.141912  -0.003072  -0.043990    0.001413311
    7   24   0.001215  -0.044278   0.000181   0.0001333124
    7   25  -0.003975   0.229251  -0.000775     0.00378068
    7   26   0.385799   0.005843  -0.031327     0.01113297
    7   27   0.002077  -0.171036   0.000540    0.002282263
    7   28   0.003688  -0.175113   0.000664    0.002560155
    7   29   0.159198   0.004428   0.025898    0.002175459
    7   30  -1.757480  -0.027201  -0.547654      0.2971137
    7   31  -0.001176   0.158109  -0.000385    0.002284559
    7   32  -0.005472  -0.002981  -0.003905    4.94663E-06
    7   33  -0.002210   0.138069  -0.000674    0.001761891
    7   34  -0.420578  -0.006061  -0.033893     0.01672794
    7   35   0.047181   0.000669  -0.002751   0.0002119167
    7   36   0.076289   0.001232   0.005450    0.000566395
    7   37  -0.137670  -0.002109  -0.010005    0.001879843
    7   38   0.002436  -0.153913   0.000607    0.002364161
    7   39  -0.000277   0.019321  -0.000077    3.81767E-05
    7   40   0.148983   0.001472  -0.034214    0.002502994
    7   41  -0.358358  -0.005211  -0.129451     0.01595422
    7   42  -0.001216   0.182114  -0.000320    0.003659792
    7   43   0.068189   0.001304   0.029766    0.000616316
    7   44   0.009385  -0.658406   0.002783     0.04974612
    7   45   0.023429   0.001363  -0.009199   7.305546E-05
    7   46   0.001420   0.000372   0.027396   8.730495E-05
    7   47   0.000257  -0.015589   0.000065   2.846332E-05
    7   48   0.035531   0.000619   0.035509   0.0003031231
    7   49  -0.000429   0.050521  -0.000823   0.0003099454
    7   50   0.038508   0.000646   0.143274    0.002686132
    8    9   0.001812  -0.265085   0.001369   0.0001490944
    8   10  -0.004886   0.280069  -0.001527   0.0006049081
    8   11   0.004415  -0.224159   0.001112    0.000995364
    8   12  -0.314138  -0.004854  -0.096695    0.002209027
    8   13   0.000502  -0.036178   0.000128   3.498683E-05
    8   14  -0.356517  -0.005456  -0.036845    0.004989937
    8   15   0.166555   0.002751  -0.047318    0.001207988
    8   16   0.003828  -0.222081   0.000876     0.00212926
    8   17   0.001731  -0.133626   0.000520   0.0009206955
    8   18  -0.055572  -0.001259  -0.015559   0.0001786943
    8   19  -0.574737  -0.007534   0.059750     0.01818543
    8   20  -0.004167   0.134643  -0.000441    0.001019005
[...]
     15 Br                    0.195851
  ----------------------------------------
  Sum of atomic charges =     1.000000

         RPA Excited State 29:  Mulliken Net Atomic Charges

     Atom                 Charge (a.u.)
  ----------------------------------------
      1 C                    -0.328103
      2 C                     0.108264
      3 C                    -0.302579
      4 H                     0.349097
      5 H                     0.353563
      6 N                    -0.262217
      7 O                    -0.031788
      8 O                    -0.031803
      9 C                    -0.327804
     10 H                     0.349039
     11 C                     0.107904
     12 H                     0.353558
     13 C                    -0.148068
     14 H                     0.384491
     15 Br                    0.426446
  ----------------------------------------
  Sum of atomic charges =     1.000000

         RPA Excited State 30:  Mulliken Net Atomic Charges

     Atom                 Charge (a.u.)
  ----------------------------------------
      1 C                    -0.254357
      2 C                     0.070952
      3 C                    -0.449433
      4 H                     0.346466
      5 H                     0.356263
      6 N                    -0.147047
      7 O                     0.507332
      8 O                     0.508640
      9 C                    -0.253889
     10 H                     0.346400
     11 C                     0.070650
     12 H                     0.356258
     13 C                    -0.604583
     14 H                     0.403179
     15 Br                   -0.256831
  ----------------------------------------
  Sum of atomic charges =     1.000000

         RPA Excited State 31:  Mulliken Net Atomic Charges

     Atom                 Charge (a.u.)
  ----------------------------------------
      1 C                    -0.372971
      2 C                     0.134057
      3 C                    -0.350718
      4 H                     0.346964
      5 H                     0.353251
      6 N                    -0.155814
      7 O                     0.067836
      8 O                     0.067802
      9 C                    -0.372496
     10 H                     0.346892
     11 C                     0.133532
     12 H                     0.353288
     13 C                    -0.194479
     14 H                     0.382480
     15 Br                    0.260377
  ----------------------------------------
  Sum of atomic charges =     1.000000

         RPA Excited State 32:  Mulliken Net Atomic Charges

     Atom                 Charge (a.u.)
  ----------------------------------------
      1 C                    -0.337186
      2 C                    -0.006697
      3 C                    -0.332154
      4 H                     0.394151
      5 H                     0.390844
      6 N                    -0.090271
      7 O                     0.116430
      8 O                     0.116195
      9 C                    -0.337206
     10 H                     0.394246
     11 C                    -0.007697
     12 H                     0.390840
     13 C                    -0.162296
     14 H                     0.399261
     15 Br                    0.071542
  ----------------------------------------
  Sum of atomic charges =     1.000000

         RPA Excited State 33:  Mulliken Net Atomic Charges

     Atom                 Charge (a.u.)
  ----------------------------------------
      1 C                    -0.254748
      2 C                     0.027893
      3 C                    -0.316135
      4 H                     0.360103
      5 H                     0.363473
      6 N                    -0.044875
      7 O                     0.336657
      8 O                     0.335673
      9 C                    -0.254535
     10 H                     0.360048
     11 C                     0.027459
     12 H                     0.363460
     13 C                    -0.522116
     14 H                     0.402366
     15 Br                   -0.184722
  ----------------------------------------
  Sum of atomic charges =     1.000000

         RPA Excited State 34:  Mulliken Net Atomic Charges

     Atom                 Charge (a.u.)
  ----------------------------------------
      1 C                    -0.241611
      2 C                     0.146867
      3 C                    -0.331568
      4 H                     0.373890
      5 H                     0.389246
      6 N                    -0.260451
      7 O                     0.043674
      8 O                     0.043705
      9 C                    -0.241005
     10 H                     0.373776
     11 C                     0.146888
     12 H                     0.389168
     13 C                    -0.229863
     14 H                     0.389684
     15 Br                    0.007600
  ----------------------------------------
  Sum of atomic charges =     1.000000

         RPA Excited State 35:  Mulliken Net Atomic Charges

     Atom                 Charge (a.u.)
  ----------------------------------------
      1 C                    -0.291079
      2 C                     0.117727
      3 C                    -0.446370
      4 H                     0.350205
      5 H                     0.354624
      6 N                    -0.162635
      7 O                     0.417185
      8 O                     0.417274
      9 C                    -0.290580
     10 H                     0.350138
     11 C                     0.117253
     12 H                     0.354623
     13 C                    -0.508268
     14 H                     0.399247
     15 Br                   -0.179342
  ----------------------------------------
  Sum of atomic charges =     1.000000

         RPA Excited State 36:  Mulliken Net Atomic Charges

     Atom                 Charge (a.u.)
  ----------------------------------------
      1 C                    -0.488449
      2 C                     0.594618
      3 C                    -1.232968
      4 H                     0.328326
      5 H                     0.354489
      6 N                    -0.131665
      7 O                     0.063569
      8 O                     0.063502
      9 C                    -0.487055
     10 H                     0.328275
     11 C                     0.594133
     12 H                     0.354483
     13 C                     0.079102
     14 H                     0.338915
     15 Br                    0.240725
  ----------------------------------------
  Sum of atomic charges =     1.000000

         RPA Excited State 37:  Mulliken Net Atomic Charges

     Atom                 Charge (a.u.)
  ----------------------------------------
      1 C                    -0.330468
      2 C                     0.149198
      3 C                    -0.589125
      4 H                     0.355239
      5 H                     0.362945
      6 N                    -0.050370
      7 O                     0.138106
      8 O                     0.137667
      9 C                    -0.330181
     10 H                     0.355189
     11 C                     0.148686
     12 H                     0.362870
     13 C                    -0.164208
     14 H                     0.385758
     15 Br                    0.068694
  ----------------------------------------
  Sum of atomic charges =     1.000000

         RPA Excited State 38:  Mulliken Net Atomic Charges

     Atom                 Charge (a.u.)
  ----------------------------------------
      1 C                    -0.315691
      2 C                     0.117019
      3 C                    -0.423109
      4 H                     0.351306
      5 H                     0.389642
      6 N                    -0.123361
      7 O                     0.020103
      8 O                     0.020497
      9 C                    -0.315317
     10 H                     0.351234
     11 C                     0.116814
     12 H                     0.389781
     13 C                    -0.061517
     14 H                     0.455374
     15 Br                    0.027225
  ----------------------------------------
  Sum of atomic charges =     1.000000

         RPA Excited State 39:  Mulliken Net Atomic Charges

     Atom                 Charge (a.u.)
  ----------------------------------------
      1 C                    -0.711115
      2 C                     0.465163
      3 C                    -1.112503
      4 H                     0.324668
      5 H                     0.352352
      6 N                    -0.116311
      7 O                     0.049585
      8 O                     0.049587
      9 C                    -0.708906
     10 H                     0.324565
     11 C                     0.463348
     12 H                     0.352361
     13 C                     0.511491
     14 H                     0.344162
     15 Br                    0.411552
  ----------------------------------------
  Sum of atomic charges =     1.000000

         RPA Excited State 40:  Mulliken Net Atomic Charges

     Atom                 Charge (a.u.)
  ----------------------------------------
      1 C                    -0.469321
      2 C                     0.147003
      3 C                    -0.491940
      4 H                     0.355654
      5 H                     0.368910
      6 N                    -0.135439
      7 O                     0.117226
      8 O                     0.117366
      9 C                    -0.468943
     10 H                     0.355601
     11 C                     0.145802
     12 H                     0.369000
     13 C                    -0.003464
     14 H                     0.434081
     15 Br                    0.158466
  ----------------------------------------
  Sum of atomic charges =     1.000000

         RPA Excited State 41:  Mulliken Net Atomic Charges

     Atom                 Charge (a.u.)
  ----------------------------------------
      1 C                    -0.487418
      2 C                     0.220202
      3 C                    -0.604928
      4 H                     0.347769
      5 H                     0.345916
      6 N                     0.192555
      7 O                     0.154942
      8 O                     0.166250
      9 C                    -0.474185
     10 H                     0.347738
     11 C                     0.196007
     12 H                     0.346638
     13 C                    -0.182379
     14 H                     0.387829
     15 Br                    0.043064
  ----------------------------------------
  Sum of atomic charges =     1.000000

         RPA Excited State 42:  Mulliken Net Atomic Charges

     Atom                 Charge (a.u.)
  ----------------------------------------
      1 C                    -1.234528
      2 C                     1.285801
      3 C                    -1.697048
      4 H                     0.336112
      5 H                     0.314225
      6 N                    -0.556856
      7 O                     0.583949
      8 O                     0.572605
      9 C                    -1.248125
     10 H                     0.336037
     11 C                     1.303294
     12 H                     0.313554
     13 C                     0.211818
     14 H                     0.392385
     15 Br                    0.086778
  ----------------------------------------
  Sum of atomic charges =     1.000000

         RPA Excited State 43:  Mulliken Net Atomic Charges

     Atom                 Charge (a.u.)
  ----------------------------------------
      1 C                    -1.054140
      2 C                     1.057103
      3 C                    -1.571289
      4 H                     0.336701
      5 H                     0.322066
      6 N                    -0.601822
      7 O                     0.577685
      8 O                     0.577501
      9 C                    -1.054660
     10 H                     0.336654
     11 C                     1.052541
     12 H                     0.322093
     13 C                     0.207066
     14 H                     0.384700
     15 Br                    0.107802
  ----------------------------------------
  Sum of atomic charges =     1.000000

         RPA Excited State 44:  Mulliken Net Atomic Charges

     Atom                 Charge (a.u.)
  ----------------------------------------
      1 C                    -0.383247
      2 C                     0.250049
      3 C                    -0.513046
      4 H                     0.353798
      5 H                     0.368698
      6 N                    -0.150025
      7 O                     0.058056
      8 O                     0.057877
      9 C                    -0.382723
     10 H                     0.353698
     11 C                     0.249281
     12 H                     0.368738
     13 C                    -0.162913
     14 H                     0.419383
     15 Br                    0.112375
  ----------------------------------------
  Sum of atomic charges =     1.000000

         RPA Excited State 45:  Mulliken Net Atomic Charges

     Atom                 Charge (a.u.)
  ----------------------------------------
      1 C                    -0.956647
      2 C                     0.630100
      3 C                    -1.144309
      4 H                     0.307216
      5 H                     0.354361
      6 N                     0.335842
      7 O                     0.053719
      8 O                     0.054072
      9 C                    -0.955647
     10 H                     0.307330
     11 C                     0.636743
     12 H                     0.354417
     13 C                     0.312679
     14 H                     0.379665
     15 Br                    0.330460
  ----------------------------------------
  Sum of atomic charges =     1.000000

         RPA Excited State 46:  Mulliken Net Atomic Charges

     Atom                 Charge (a.u.)
  ----------------------------------------
      1 C                    -0.396499
      2 C                     0.328657
      3 C                    -0.455502
      4 H                     0.349217
      5 H                     0.365681
      6 N                    -0.198427
      7 O                     0.065592
      8 O                     0.065500
      9 C                    -0.395587
     10 H                     0.349146
     11 C                     0.326409
     12 H                     0.365715
     13 C                    -0.228711
     14 H                     0.431780
     15 Br                    0.027030
  ----------------------------------------
  Sum of atomic charges =     1.000000

         RPA Excited State 47:  Mulliken Net Atomic Charges

     Atom                 Charge (a.u.)
  ----------------------------------------
      1 C                    -0.541225
      2 C                     0.721503
      3 C                    -1.113820
      4 H                     0.336129
      5 H                     0.336344
      6 N                    -0.217653
      7 O                     0.145915
      8 O                     0.145902
      9 C                    -0.541634
     10 H                     0.336069
     11 C                     0.721650
     12 H                     0.336333
     13 C                    -0.120217
     14 H                     0.367181
     15 Br                    0.087524
  ----------------------------------------
  Sum of atomic charges =     1.000000

         RPA Excited State 48:  Mulliken Net Atomic Charges

     Atom                 Charge (a.u.)
  ----------------------------------------
      1 C                    -0.189091
      2 C                     0.125797
      3 C                    -0.591121
      4 H                     0.330929
      5 H                     0.340063
      6 N                    -0.146380
      7 O                     0.086983
      8 O                     0.087011
      9 C                    -0.191813
     10 H                     0.330956
     11 C                     0.124391
     12 H                     0.340126
     13 C                    -0.341424
     14 H                     0.307041
     15 Br                    0.386532
  ----------------------------------------
  Sum of atomic charges =     1.000000

         RPA Excited State 49:  Mulliken Net Atomic Charges

     Atom                 Charge (a.u.)
  ----------------------------------------
      1 C                    -1.177787
      2 C                     1.367893
      3 C                    -2.311438
      4 H                     0.344391
      5 H                     0.348920
      6 N                    -0.056387
      7 O                     0.402884
      8 O                     0.403209
      9 C                    -1.177319
     10 H                     0.344239
     11 C                     1.359491
     12 H                     0.348762
     13 C                     0.256687
     14 H                     0.386392
     15 Br                    0.160062
  ----------------------------------------
  Sum of atomic charges =     1.000000

         RPA Excited State 50:  Mulliken Net Atomic Charges

     Atom                 Charge (a.u.)
  ----------------------------------------
      1 C                    -0.154701
      2 C                     0.195663
      3 C                    -0.382207
      4 H                     0.402754
      5 H                     0.392539
      6 N                    -0.182733
      7 O                     0.024920
      8 O                     0.024687
      9 C                    -0.154176
     10 H                     0.402727
     11 C                     0.198186
     12 H                     0.392512
     13 C                    -0.423980
     14 H                     0.392375
     15 Br                   -0.128567
  ----------------------------------------
  Sum of atomic charges =     1.000000

 -----------------------------------------------------------------
                    Cartesian Multipole Moments
 -----------------------------------------------------------------
    Charge (ESU x 10^10)
                 4.8032
    Dipole Moment (Debye)
         X      -4.9614      Y      -0.1099      Z      -0.2653
       Tot       4.9697
    Quadrupole Moments (Debye-Ang)
        XX     -61.3862     XY      -0.0479     YY     -54.9518
        XZ       2.2361     YZ       0.0043     ZZ     -62.6164
    Octopole Moments (Debye-Ang^2)
       XXX     -63.6410    XXY      -0.0429    XYY     -10.9374
       YYY       1.1755    XXZ      22.4987    XYZ      -0.1714
       YYZ      32.7657    XZZ     -13.9067    YZZ       0.3402
       ZZZ      79.6305
    Hexadecapole Moments (Debye-Ang^3)
      XXXX   -1897.5706   XXXY     -11.5843   XXYY    -371.0122
      XYYY     -12.0498   YYYY    -322.8901   XXXZ    -196.0456
      XXYZ      -0.4872   XYYZ     -78.5075   YYYZ      -4.4965
      XXZZ    -314.0794   XYZZ      -2.4739   YYZZ    -141.5888
      XZZZ    -180.4814   YZZZ      -2.9536   ZZZZ    -371.4842
 -----------------------------------------------------------------
Grid information in Angstroms:
 x:         75  min =  -5.411486 max =   6.280132
 y:         75  min =  -5.212029 max =   5.158031
 z:         75  min =  -4.823596 max =   3.701439
 Plotting NTOs for the following states:  1 2 3 4 5
 Created directory /local_scratch/17180077/QCLOCALSCR/save/plots
 Plotting total densities:  0 1 2 3 4 5
 Plotting transition densities:  1 2 3 4 5
 Total job time:  418.12s(wall), 4320.52s(cpu) 
 Thu Jun 15 17:00:46 2023

        *************************************************************
        *                                                           *
        *  Thank you very much for using Q-Chem.  Have a nice day.  *
        *                                                           *
        *************************************************************


