 Entering Gaussian System, Link 0=g16
 Initial command:
 /software/gaussian/g16-c01/sse4/g16/l1.exe "/local_scratch/24657488/Gau-27134.inp" -scrdir="/local_scratch/24657488/"
 Entering Link 1 = /software/gaussian/g16-c01/sse4/g16/l1.exe PID=     27136.
  
 Copyright (c) 1988-2019, Gaussian, Inc.  All Rights Reserved.
  
 This is part of the Gaussian(R) 16 program.  It is based on
 the Gaussian(R) 09 system (copyright 2009, Gaussian, Inc.),
 the Gaussian(R) 03 system (copyright 2003, Gaussian, Inc.),
 the Gaussian(R) 98 system (copyright 1998, Gaussian, Inc.),
 the Gaussian(R) 94 system (copyright 1995, Gaussian, Inc.),
 the Gaussian 92(TM) system (copyright 1992, Gaussian, Inc.),
 the Gaussian 90(TM) system (copyright 1990, Gaussian, Inc.),
 the Gaussian 88(TM) system (copyright 1988, Gaussian, Inc.),
 the Gaussian 86(TM) system (copyright 1986, Carnegie Mellon
 University), and the Gaussian 82(TM) system (copyright 1983,
 Carnegie Mellon University). Gaussian is a federally registered
 trademark of Gaussian, Inc.
  
 This software contains proprietary and confidential information,
 including trade secrets, belonging to Gaussian, Inc.
  
 This software is provided under written license and may be
 used, copied, transmitted, or stored only in accord with that
 written license.
  
 The following legend is applicable only to US Government
 contracts under FAR:
  
                    RESTRICTED RIGHTS LEGEND
  
 Use, reproduction and disclosure by the US Government is
 subject to restrictions as set forth in subparagraphs (a)
 and (c) of the Commercial Computer Software - Restricted
 Rights clause in FAR 52.227-19.
  
 Gaussian, Inc.
 340 Quinnipiac St., Bldg. 40, Wallingford CT 06492
  
  
 ---------------------------------------------------------------
 Warning -- This program may not be used in any manner that
 competes with the business of Gaussian, Inc. or will provide
 assistance to any competitor of Gaussian, Inc.  The licensee
 of this program is prohibited from giving any competitor of
 Gaussian, Inc. access to this program.  By using this program,
 the user acknowledges that Gaussian, Inc. is engaged in the
 business of creating and licensing software in the field of
 computational chemistry and represents and warrants to the
 licensee that it is not a competitor of Gaussian, Inc. and that
 it will not use this program in any manner prohibited above.
 ---------------------------------------------------------------
  

 Cite this work as:
 Gaussian 16, Revision C.01,
 M. J. Frisch, G. W. Trucks, H. B. Schlegel, G. E. Scuseria, 
 M. A. Robb, J. R. Cheeseman, G. Scalmani, V. Barone, 
 G. A. Petersson, H. Nakatsuji, X. Li, M. Caricato, A. V. Marenich, 
 J. Bloino, B. G. Janesko, R. Gomperts, B. Mennucci, H. P. Hratchian, 
 J. V. Ortiz, A. F. Izmaylov, J. L. Sonnenberg, D. Williams-Young, 
 F. Ding, F. Lipparini, F. Egidi, J. Goings, B. Peng, A. Petrone, 
 T. Henderson, D. Ranasinghe, V. G. Zakrzewski, J. Gao, N. Rega, 
 G. Zheng, W. Liang, M. Hada, M. Ehara, K. Toyota, R. Fukuda, 
 J. Hasegawa, M. Ishida, T. Nakajima, Y. Honda, O. Kitao, H. Nakai, 
 T. Vreven, K. Throssell, J. A. Montgomery, Jr., J. E. Peralta, 
 F. Ogliaro, M. J. Bearpark, J. J. Heyd, E. N. Brothers, K. N. Kudin, 
 V. N. Staroverov, T. A. Keith, R. Kobayashi, J. Normand, 
 K. Raghavachari, A. P. Rendell, J. C. Burant, S. S. Iyengar, 
 J. Tomasi, M. Cossi, J. M. Millam, M. Klene, C. Adamo, R. Cammi, 
 J. W. Ochterski, R. L. Martin, K. Morokuma, O. Farkas, 
 J. B. Foresman, and D. J. Fox, Gaussian, Inc., Wallingford CT, 2019.
 
 ******************************************
 Gaussian 16:  ES64L-G16RevC.01  3-Jul-2019
                 1-May-2024 
 ******************************************
 %chk=geometry.chk
 %mem=9GB
 %nprocshared=12
 Will use up to   12 processors via shared memory.
 ----------------------------------------
 #P wB97XD/6-311+G* NoSymm #P Field=Y-126
 ----------------------------------------
 1/38=1,172=1/1;
 2/12=2,15=1,17=6,18=5,40=1/2;
 3/5=4,6=6,7=11,11=2,14=2,15=-126,25=1,30=1,74=-58/1,2,3;
 4//1;
 5/5=2,38=5/2;
 6/7=2,8=2,9=2,10=2,28=1/1;
 99/5=1,9=1/99;
 Leave Link    1 at Wed May  1 14:45:56 2024, MaxMem=  1207959552 cpu:               1.2 elap:               1.2
 (Enter /software/gaussian/g16-c01/sse4/g16/l101.exe)
 -------
 TitleMe
 -------
 Symbolic Z-matrix:
 Charge =  1 Multiplicity = 1
 C                     0.0295    1.3397    0.0682 
 C                     1.4348    1.2867    0.0064 
 C                     2.1118    0.0511   -0.0054 
 C                     1.4451   -1.1372    0.0312 
 C                    -0.6879    0.1682    0.11 
 H                    -0.4713    2.2984    0.0781 
 H                     2.0273    2.1965   -0.0322 
 H                     1.9897   -2.0764    0.0232 
 H                    -1.7716    0.1804    0.1582 
 N                     3.5864    0.051    -0.0675 
 O                     4.1471   -1.0597   -0.0881 
 O                     4.145     1.1639   -0.0901 
 C                    -0.0236   -1.1458    0.0835 
 H                    -0.4367   -1.8725    0.7889 
 Br                   -0.5359   -1.8697   -1.7408 
 
 ITRead=  0  0  0  0  0  0  0  0  0  0  0  0  0  0  0
 MicOpt= -1 -1 -1 -1 -1 -1 -1 -1 -1 -1 -1 -1 -1 -1 -1
 NAtoms=     15 NQM=       15 NQMF=       0 NMMI=      0 NMMIF=      0
                NMic=       0 NMicF=      0.
                    Isotopes and Nuclear Properties:
 (Nuclear quadrupole moments (NQMom) in fm**2, nuclear magnetic moments (NMagM)
  in nuclear magnetons)

  Atom         1           2           3           4           5           6           7           8           9          10
 IAtWgt=          12          12          12          12          12           1           1           1           1          14
 AtmWgt=  12.0000000  12.0000000  12.0000000  12.0000000  12.0000000   1.0078250   1.0078250   1.0078250   1.0078250  14.0030740
 NucSpn=           0           0           0           0           0           1           1           1           1           2
 AtZEff=  -0.0000000  -0.0000000  -0.0000000  -0.0000000  -0.0000000  -0.0000000  -0.0000000  -0.0000000  -0.0000000  -0.0000000
 NQMom=    0.0000000   0.0000000   0.0000000   0.0000000   0.0000000   0.0000000   0.0000000   0.0000000   0.0000000   2.0440000
 NMagM=    0.0000000   0.0000000   0.0000000   0.0000000   0.0000000   2.7928460   2.7928460   2.7928460   2.7928460   0.4037610
 AtZNuc=   6.0000000   6.0000000   6.0000000   6.0000000   6.0000000   1.0000000   1.0000000   1.0000000   1.0000000   7.0000000

  Atom        11          12          13          14          15
 IAtWgt=          16          16          12           1          79
 AtmWgt=  15.9949146  15.9949146  12.0000000   1.0078250  78.9183361
 NucSpn=           0           0           0           1           3
 AtZEff=  -0.0000000  -0.0000000  -0.0000000  -0.0000000  -0.0000000
 NQMom=    0.0000000   0.0000000   0.0000000   0.0000000  31.3000000
 NMagM=    0.0000000   0.0000000   0.0000000   2.7928460   2.1063990
 AtZNuc=   8.0000000   8.0000000   6.0000000   1.0000000  35.0000000
 Leave Link  101 at Wed May  1 14:45:57 2024, MaxMem=  1207959552 cpu:               1.4 elap:               1.4
 (Enter /software/gaussian/g16-c01/sse4/g16/l202.exe)
                          Input orientation:                          
 ---------------------------------------------------------------------
 Center     Atomic      Atomic             Coordinates (Angstroms)
 Number     Number       Type             X           Y           Z
 ---------------------------------------------------------------------
      1          6           0        0.029500    1.339700    0.068200
      2          6           0        1.434800    1.286700    0.006400
      3          6           0        2.111800    0.051100   -0.005400
      4          6           0        1.445100   -1.137200    0.031200
      5          6           0       -0.687900    0.168200    0.110000
      6          1           0       -0.471300    2.298400    0.078100
      7          1           0        2.027300    2.196500   -0.032200
      8          1           0        1.989700   -2.076400    0.023200
      9          1           0       -1.771600    0.180400    0.158200
     10          7           0        3.586400    0.051000   -0.067500
     11          8           0        4.147100   -1.059700   -0.088100
     12          8           0        4.145000    1.163900   -0.090100
     13          6           0       -0.023600   -1.145800    0.083500
     14          1           0       -0.436700   -1.872500    0.788900
     15         35           0       -0.535900   -1.869700   -1.740800
 ---------------------------------------------------------------------
                    Distance matrix (angstroms):
                    1          2          3          4          5
     1  C    0.000000
     2  C    1.407656   0.000000
     3  C    2.449874   1.408963   0.000000
     4  C    2.853126   2.424049   1.363043   0.000000
     5  C    1.374344   2.401589   2.804523   2.501993   0.000000
     6  H    1.081667   2.159142   3.424870   3.934226   2.141421
     7  H    2.176095   1.086408   2.147231   3.384750   3.392128
     8  H    3.938800   3.408612   2.131193   1.085702   3.495040
     9  H    2.143837   3.395283   3.888995   3.478413   1.084840
    10  N    3.785591   2.482297   1.475907   2.450862   4.279589
    11  O    4.768247   3.587631   2.320164   2.705743   4.992415
    12  O    4.122294   2.714696   2.319353   3.549540   4.938459
    13  C    2.486114   2.837240   2.449573   1.469656   1.472614
    14  H    3.324903   3.754379   3.290289   2.157764   2.165286
    15  Br   3.727252   4.110867   3.702891   2.756973   2.757100
                    6          7          8          9         10
     6  H    0.000000
     7  H    2.503108   0.000000
     8  H    5.019802   4.273425   0.000000
     9  H    2.486588   4.304945   4.388479   0.000000
    10  N    4.640790   2.652397   2.661486   5.364313   0.000000
    11  O    5.712624   3.885809   2.387560   6.052233   1.244373
    12  O    4.756638   2.356750   3.893289   6.002923   1.245428
    13  C    3.473180   3.923079   2.218790   2.195425   3.806210
    14  H    4.231175   4.827242   2.552506   2.528663   4.540772
    15  Br   4.548146   5.101303   3.087568   3.055498   4.845862
                   11         12         13         14         15
    11  O    0.000000
    12  O    2.223602   0.000000
    13  C    4.175117   4.768865   0.000000
    14  H    4.737193   5.566358   1.093770   0.000000
    15  Br   5.031700   5.817075   2.028436   2.531646   0.000000
 Symmetry turned off by external request.
 Stoichiometry    C6H5BrNO2(1+)
 Framework group  C1[X(C6H5BrNO2)]
 Deg. of freedom    39
 Full point group                 C1      NOp   1
 Rotational constants (GHZ):           1.8252210           0.5518633           0.4576002
 Leave Link  202 at Wed May  1 14:45:58 2024, MaxMem=  1207959552 cpu:               1.1 elap:               1.1
 (Enter /software/gaussian/g16-c01/sse4/g16/l301.exe)
 Standard basis: 6-311+G(d) (5D, 7F)
 Ernie: Thresh=  0.10000D-02 Tol=  0.10000D-05 Strict=F.
 The following finite field(s) will be applied:
 An electric field of              0.0000 -0.0126  0.0000
   261 basis functions,   443 primitive gaussians,   273 cartesian basis functions
    49 alpha electrons       49 beta electrons
       nuclear repulsion energy       739.2122215416 Hartrees.
 IExCor= 4639 DFT=T Ex+Corr=wB97XD ExCW=0 ScaHFX=  1.000000
 ScaDFX=  1.000000  1.000000  1.000000  1.000000 ScalE2=  1.000000  1.000000
 IRadAn=      5 IRanWt=     -1 IRanGd=            0 ICorTp=0 IEmpDi=121
 HFx  wShort=  0.000000 wLong=  0.200000 cFull=  0.222036 cShort=  0.000000 cLong=  0.777964
 DFx  wShort=  0.000000 wLong=  0.200000 cFull=  0.000000 cShort=  0.000000 cLong=  1.000000
 NAtoms=   15 NActive=   15 NUniq=   15 SFac= 1.00D+00 NAtFMM=   60 NAOKFM=F Big=F
 Integral buffers will be    131072 words long.
 Raffenetti 2 integral format.
 Two-electron integral symmetry is turned off.
 R6Disp:  Grimme-D2 Dispersion energy=       -0.0077368520 Hartrees.
 Nuclear repulsion after empirical dispersion term =      739.2044846896 Hartrees.
 Leave Link  301 at Wed May  1 14:45:59 2024, MaxMem=  1207959552 cpu:               1.0 elap:               1.0
 (Enter /software/gaussian/g16-c01/sse4/g16/l302.exe)
 NPDir=0 NMtPBC=     1 NCelOv=     1 NCel=       1 NClECP=     1 NCelD=      1
         NCelK=      1 NCelE2=     1 NClLst=     1 CellRange=     0.0.
 One-electron integrals computed using PRISM.
 NBasis=   261 RedAO= T EigKep=  2.35D-06  NBF=   261
 NBsUse=   261 1.00D-06 EigRej= -1.00D+00 NBFU=   261
 Precomputing XC quadrature grid using
 IXCGrd= 4 IRadAn=           5 IRanWt=          -1 IRanGd=           0 AccXCQ= 0.00D+00.
 Generated NRdTot=       0 NPtTot=           0 NUsed=           0 NTot=          32
 NSgBfM=   273   273   273   273   273 MxSgAt=    15 MxSgA2=    15.
 Leave Link  302 at Wed May  1 14:46:20 2024, MaxMem=  1207959552 cpu:              20.9 elap:              20.9
 (Enter /software/gaussian/g16-c01/sse4/g16/l303.exe)
 DipDrv:  MaxL=1.
 The nuclear repulsion energy is now       740.6366011231 hartrees.
 Leave Link  303 at Wed May  1 14:46:24 2024, MaxMem=  1207959552 cpu:               3.3 elap:               3.3
 (Enter /software/gaussian/g16-c01/sse4/g16/l401.exe)
 ExpMin= 3.50D-02 ExpMax= 4.40D+05 ExpMxC= 1.51D+04 IAcc=3 IRadAn=         5 AccDes= 0.00D+00
 Harris functional with IExCor= 4639 and IRadAn=       5 diagonalized for initial guess.
 HarFok:  IExCor= 4639 AccDes= 0.00D+00 IRadAn=         5 IDoV= 1 UseB2=F ITyADJ=14
 ICtDFT=  3500011 ScaDFX=  1.000000  1.000000  1.000000  1.000000
 FoFCou: FMM=F IPFlag=           0 FMFlag=      100000 FMFlg1=           0
         NFxFlg=           0 DoJE=T BraDBF=F KetDBF=T FulRan=T
         wScrn=  0.000000 ICntrl=       500 IOpCl=  0 I1Cent=   200000004 NGrid=           0
         NMat0=    1 NMatS0=      1 NMatT0=    0 NMatD0=    1 NMtDS0=    0 NMtDT0=    0
 Symmetry not used in FoFCou.
 Harris En= -2970.62082062192    
 JPrj=0 DoOrth=F DoCkMO=F.
 Leave Link  401 at Wed May  1 14:46:53 2024, MaxMem=  1207959552 cpu:              29.6 elap:              29.6
 (Enter /software/gaussian/g16-c01/sse4/g16/l502.exe)
 Two-electron integral symmetry not used.
 Closed shell SCF:
 Using DIIS extrapolation, IDIIS=  1040.
 NGot=  1207959552 LenX=  1207804877 LenY=  1207729907
 Requested convergence on RMS density matrix=1.00D-08 within 128 cycles.
 Requested convergence on MAX density matrix=1.00D-06.
 Requested convergence on             energy=1.00D-06.
 No special actions if energy rises.
 Fock matrices will be formed incrementally for  20 cycles.

 Cycle   1  Pass 1  IDiag  1:
 FoFJK:  IHMeth= 1 ICntrl=       0 DoSepK=T KAlg= 0 I1Cent=           0 FoldK=F
 IRaf=         1 NMat=       1 IRICut=       1 DoRegI=T DoRafI=F ISym2E= 0 IDoP0=0 IntGTp=1.
 FoFCou: FMM=F IPFlag=           0 FMFlag=      100000 FMFlg1=           0
         NFxFlg=           0 DoJE=T BraDBF=F KetDBF=F FulRan=T
         wScrn=  0.000000 ICntrl=       500 IOpCl=  0 I1Cent=           0 NGrid=           0
         NMat0=    1 NMatS0=      1 NMatT0=    0 NMatD0=    1 NMtDS0=    0 NMtDT0=    0
 Symmetry not used in FoFCou.
 E= -3009.67988297544    
 DIIS: error= 3.21D-01 at cycle   1 NSaved=   1.
 NSaved= 1 IEnMin= 1 EnMin= -3009.67988297544     IErMin= 1 ErrMin= 3.21D-01
 ErrMax= 3.21D-01  0.00D+00 EMaxC= 1.00D-01 BMatC= 1.19D+01 BMatP= 1.19D+01
 IDIUse=3 WtCom= 0.00D+00 WtEn= 1.00D+00
 Coeff-Com:  0.100D+01
 Coeff-En:   0.100D+01
 Coeff:      0.100D+01
 Gap=     0.411 Goal=   None    Shift=    0.000
 GapD=    0.411 DampG=2.000 DampE=0.250 DampFc=0.5000 IDamp=-1.
 Damping current iteration by 5.00D-01
 RMSDP=7.45D-02 MaxDP=8.75D+00              OVMax= 2.80D-01

 Cycle   2  Pass 1  IDiag  1:
 RMSU=  1.21D-02    CP:  7.08D-01
 E= -3010.09721557379     Delta-E=       -0.417332598355 Rises=F Damp=T
 DIIS: error= 1.42D-01 at cycle   2 NSaved=   2.
 NSaved= 2 IEnMin= 2 EnMin= -3010.09721557379     IErMin= 2 ErrMin= 1.42D-01
 ErrMax= 1.42D-01  0.00D+00 EMaxC= 1.00D-01 BMatC= 1.78D+00 BMatP= 1.19D+01
 IDIUse=3 WtCom= 0.00D+00 WtEn= 1.00D+00
 Coeff-Com: -0.417D+00 0.142D+01
 Coeff-En:   0.000D+00 0.100D+01
 Coeff:      0.000D+00 0.100D+01
 Gap=     0.334 Goal=   None    Shift=    0.000
 RMSDP=4.07D-02 MaxDP=3.85D+00 DE=-4.17D-01 OVMax= 2.08D-01

 Cycle   3  Pass 1  IDiag  1:
 RMSU=  1.11D-02    CP:  3.89D-01  1.54D+00
 E= -3010.46523333369     Delta-E=       -0.368017759900 Rises=F Damp=F
 DIIS: error= 3.09D-02 at cycle   3 NSaved=   3.
 NSaved= 3 IEnMin= 3 EnMin= -3010.46523333369     IErMin= 3 ErrMin= 3.09D-02
 ErrMax= 3.09D-02  0.00D+00 EMaxC= 1.00D-01 BMatC= 1.26D-01 BMatP= 1.78D+00
 IDIUse=3 WtCom= 6.91D-01 WtEn= 3.09D-01
 Coeff-Com: -0.414D-01 0.215D+00 0.826D+00
 Coeff-En:   0.000D+00 0.000D+00 0.100D+01
 Coeff:     -0.286D-01 0.149D+00 0.880D+00
 Gap=     0.331 Goal=   None    Shift=    0.000
 RMSDP=7.14D-03 MaxDP=3.64D-01 DE=-3.68D-01 OVMax= 2.72D-01

 Cycle   4  Pass 1  IDiag  1:
 RMSU=  5.77D-03    CP:  4.01D-01  1.73D+00  7.16D-01
 E= -3010.34849349874     Delta-E=        0.116739834957 Rises=F Damp=F
 DIIS: error= 5.86D-02 at cycle   4 NSaved=   4.
 NSaved= 4 IEnMin= 3 EnMin= -3010.46523333369     IErMin= 3 ErrMin= 3.09D-02
 ErrMax= 5.86D-02  0.00D+00 EMaxC= 1.00D-01 BMatC= 2.75D-01 BMatP= 1.26D-01
 IDIUse=2 WtCom= 0.00D+00 WtEn= 1.00D+00
 Coeff-En:   0.000D+00 0.000D+00 0.676D+00 0.324D+00
 Coeff:      0.000D+00 0.000D+00 0.676D+00 0.324D+00
 Gap=     0.249 Goal=   None    Shift=    0.000
 RMSDP=4.89D-03 MaxDP=2.79D-01 DE= 1.17D-01 OVMax= 1.58D-01

 Cycle   5  Pass 1  IDiag  1:
 RMSU=  1.18D-03    CP:  3.85D-01  1.66D+00  1.02D+00  5.60D-01
 E= -3010.53565402542     Delta-E=       -0.187160526685 Rises=F Damp=F
 DIIS: error= 7.55D-03 at cycle   5 NSaved=   5.
 NSaved= 5 IEnMin= 5 EnMin= -3010.53565402542     IErMin= 5 ErrMin= 7.55D-03
 ErrMax= 7.55D-03  0.00D+00 EMaxC= 1.00D-01 BMatC= 8.97D-03 BMatP= 1.26D-01
 IDIUse=3 WtCom= 9.24D-01 WtEn= 7.55D-02
 Coeff-Com:  0.199D-02 0.260D-02 0.249D+00 0.410D-01 0.706D+00
 Coeff-En:   0.000D+00 0.000D+00 0.315D-01 0.000D+00 0.968D+00
 Coeff:      0.184D-02 0.240D-02 0.233D+00 0.379D-01 0.725D+00
 Gap=     0.262 Goal=   None    Shift=    0.000
 RMSDP=1.58D-03 MaxDP=1.00D-01 DE=-1.87D-01 OVMax= 2.12D-02

 Cycle   6  Pass 1  IDiag  1:
 RMSU=  5.85D-04    CP:  3.74D-01  1.65D+00  1.06D+00  4.62D-01  9.42D-01
 E= -3010.54102604748     Delta-E=       -0.005372022062 Rises=F Damp=F
 DIIS: error= 1.64D-03 at cycle   6 NSaved=   6.
 NSaved= 6 IEnMin= 6 EnMin= -3010.54102604748     IErMin= 6 ErrMin= 1.64D-03
 ErrMax= 1.64D-03  0.00D+00 EMaxC= 1.00D-01 BMatC= 4.21D-04 BMatP= 8.97D-03
 IDIUse=3 WtCom= 9.84D-01 WtEn= 1.64D-02
 Coeff-Com: -0.271D-02 0.598D-02 0.325D-01-0.319D-01 0.367D+00 0.629D+00
 Coeff-En:   0.000D+00 0.000D+00 0.000D+00 0.000D+00 0.000D+00 0.100D+01
 Coeff:     -0.267D-02 0.588D-02 0.320D-01-0.314D-01 0.361D+00 0.635D+00
 Gap=     0.255 Goal=   None    Shift=    0.000
 RMSDP=3.32D-04 MaxDP=1.91D-02 DE=-5.37D-03 OVMax= 4.35D-03

 Cycle   7  Pass 1  IDiag  1:
 RMSU=  2.59D-04    CP:  3.73D-01  1.65D+00  1.06D+00  4.69D-01  1.06D+00
                    CP:  1.08D+00
 E= -3010.54135921081     Delta-E=       -0.000333163330 Rises=F Damp=F
 DIIS: error= 3.38D-04 at cycle   7 NSaved=   7.
 NSaved= 7 IEnMin= 7 EnMin= -3010.54135921081     IErMin= 7 ErrMin= 3.38D-04
 ErrMax= 3.38D-04  0.00D+00 EMaxC= 1.00D-01 BMatC= 1.81D-05 BMatP= 4.21D-04
 IDIUse=3 WtCom= 9.97D-01 WtEn= 3.38D-03
 Coeff-Com: -0.108D-02 0.181D-02-0.853D-02-0.152D-01 0.677D-01 0.232D+00
 Coeff-Com:  0.723D+00
 Coeff-En:   0.000D+00 0.000D+00 0.000D+00 0.000D+00 0.000D+00 0.000D+00
 Coeff-En:   0.100D+01
 Coeff:     -0.108D-02 0.180D-02-0.850D-02-0.151D-01 0.675D-01 0.231D+00
 Coeff:      0.724D+00
 Gap=     0.255 Goal=   None    Shift=    0.000
 RMSDP=1.91D-04 MaxDP=1.49D-02 DE=-3.33D-04 OVMax= 3.06D-03

 Cycle   8  Pass 1  IDiag  1:
 RMSU=  6.68D-05    CP:  3.72D-01  1.65D+00  1.07D+00  4.73D-01  1.11D+00
                    CP:  1.15D+00  9.28D-01
 E= -3010.54139357419     Delta-E=       -0.000034363372 Rises=F Damp=F
 DIIS: error= 1.01D-04 at cycle   8 NSaved=   8.
 NSaved= 8 IEnMin= 8 EnMin= -3010.54139357419     IErMin= 8 ErrMin= 1.01D-04
 ErrMax= 1.01D-04  0.00D+00 EMaxC= 1.00D-01 BMatC= 3.14D-06 BMatP= 1.81D-05
 IDIUse=3 WtCom= 9.99D-01 WtEn= 1.01D-03
 Coeff-Com:  0.462D-03-0.120D-02-0.981D-02 0.190D-02-0.595D-01-0.723D-01
 Coeff-Com:  0.223D+00 0.917D+00
 Coeff-En:   0.000D+00 0.000D+00 0.000D+00 0.000D+00 0.000D+00 0.000D+00
 Coeff-En:   0.000D+00 0.100D+01
 Coeff:      0.462D-03-0.120D-02-0.980D-02 0.190D-02-0.594D-01-0.722D-01
 Coeff:      0.223D+00 0.917D+00
 Gap=     0.255 Goal=   None    Shift=    0.000
 RMSDP=8.84D-05 MaxDP=6.05D-03 DE=-3.44D-05 OVMax= 2.68D-03

 Cycle   9  Pass 1  IDiag  1:
 RMSU=  3.50D-05    CP:  3.72D-01  1.65D+00  1.07D+00  4.72D-01  1.13D+00
                    CP:  1.20D+00  1.11D+00  1.32D+00
 E= -3010.54140511331     Delta-E=       -0.000011539129 Rises=F Damp=F
 DIIS: error= 4.84D-05 at cycle   9 NSaved=   9.
 NSaved= 9 IEnMin= 9 EnMin= -3010.54140511331     IErMin= 9 ErrMin= 4.84D-05
 ErrMax= 4.84D-05  0.00D+00 EMaxC= 1.00D-01 BMatC= 4.86D-07 BMatP= 3.14D-06
 IDIUse=1 WtCom= 1.00D+00 WtEn= 0.00D+00
 Coeff-Com:  0.292D-03-0.621D-03-0.209D-02 0.327D-02-0.312D-01-0.565D-01
 Coeff-Com: -0.177D-01 0.322D+00 0.782D+00
 Coeff:      0.292D-03-0.621D-03-0.209D-02 0.327D-02-0.312D-01-0.565D-01
 Coeff:     -0.177D-01 0.322D+00 0.782D+00
 Gap=     0.255 Goal=   None    Shift=    0.000
 RMSDP=2.54D-05 MaxDP=2.02D-03 DE=-1.15D-05 OVMax= 1.05D-03

 Cycle  10  Pass 1  IDiag  1:
 RMSU=  1.14D-05    CP:  3.72D-01  1.65D+00  1.07D+00  4.71D-01  1.13D+00
                    CP:  1.21D+00  1.15D+00  1.49D+00  1.23D+00
 E= -3010.54140699715     Delta-E=       -0.000001883836 Rises=F Damp=F
 DIIS: error= 1.96D-05 at cycle  10 NSaved=  10.
 NSaved=10 IEnMin=10 EnMin= -3010.54140699715     IErMin=10 ErrMin= 1.96D-05
 ErrMax= 1.96D-05  0.00D+00 EMaxC= 1.00D-01 BMatC= 9.81D-08 BMatP= 4.86D-07
 IDIUse=1 WtCom= 1.00D+00 WtEn= 0.00D+00
 Coeff-Com: -0.632D-04 0.167D-03 0.113D-02 0.357D-03 0.435D-02 0.266D-02
 Coeff-Com: -0.545D-01-0.126D+00 0.225D+00 0.947D+00
 Coeff:     -0.632D-04 0.167D-03 0.113D-02 0.357D-03 0.435D-02 0.266D-02
 Coeff:     -0.545D-01-0.126D+00 0.225D+00 0.947D+00
 Gap=     0.255 Goal=   None    Shift=    0.000
 RMSDP=1.86D-05 MaxDP=8.51D-04 DE=-1.88D-06 OVMax= 6.35D-04

 Cycle  11  Pass 1  IDiag  1:
 RMSU=  5.93D-06    CP:  3.72D-01  1.65D+00  1.07D+00  4.72D-01  1.13D+00
                    CP:  1.20D+00  1.17D+00  1.59D+00  1.42D+00  1.21D+00
 E= -3010.54140743801     Delta-E=       -0.000000440860 Rises=F Damp=F
 DIIS: error= 6.17D-06 at cycle  11 NSaved=  11.
 NSaved=11 IEnMin=11 EnMin= -3010.54140743801     IErMin=11 ErrMin= 6.17D-06
 ErrMax= 6.17D-06  0.00D+00 EMaxC= 1.00D-01 BMatC= 1.82D-08 BMatP= 9.81D-08
 IDIUse=1 WtCom= 1.00D+00 WtEn= 0.00D+00
 Coeff-Com: -0.619D-04 0.150D-03 0.937D-03-0.338D-03 0.688D-02 0.987D-02
 Coeff-Com: -0.176D-01-0.103D+00-0.238D-01 0.377D+00 0.750D+00
 Coeff:     -0.619D-04 0.150D-03 0.937D-03-0.338D-03 0.688D-02 0.987D-02
 Coeff:     -0.176D-01-0.103D+00-0.238D-01 0.377D+00 0.750D+00
 Gap=     0.255 Goal=   None    Shift=    0.000
 RMSDP=7.18D-06 MaxDP=3.44D-04 DE=-4.41D-07 OVMax= 1.95D-04

 Cycle  12  Pass 1  IDiag  1:
 RMSU=  1.68D-06    CP:  3.72D-01  1.65D+00  1.07D+00  4.71D-01  1.13D+00
                    CP:  1.20D+00  1.18D+00  1.60D+00  1.48D+00  1.42D+00
                    CP:  1.28D+00
 E= -3010.54140748893     Delta-E=       -0.000000050916 Rises=F Damp=F
 DIIS: error= 4.17D-06 at cycle  12 NSaved=  12.
 NSaved=12 IEnMin=12 EnMin= -3010.54140748893     IErMin=12 ErrMin= 4.17D-06
 ErrMax= 4.17D-06  0.00D+00 EMaxC= 1.00D-01 BMatC= 3.24D-09 BMatP= 1.82D-08
 IDIUse=1 WtCom= 1.00D+00 WtEn= 0.00D+00
 Coeff-Com:  0.203D-05-0.219D-05 0.144D-03-0.173D-03 0.127D-02 0.195D-02
 Coeff-Com:  0.554D-02-0.112D-01-0.480D-01-0.522D-01 0.218D+00 0.885D+00
 Coeff:      0.203D-05-0.219D-05 0.144D-03-0.173D-03 0.127D-02 0.195D-02
 Coeff:      0.554D-02-0.112D-01-0.480D-01-0.522D-01 0.218D+00 0.885D+00
 Gap=     0.255 Goal=   None    Shift=    0.000
 RMSDP=2.88D-06 MaxDP=1.53D-04 DE=-5.09D-08 OVMax= 1.08D-04

 Cycle  13  Pass 1  IDiag  1:
 RMSU=  1.11D-06    CP:  3.72D-01  1.65D+00  1.07D+00  4.71D-01  1.13D+00
                    CP:  1.20D+00  1.18D+00  1.60D+00  1.50D+00  1.45D+00
                    CP:  1.42D+00  1.11D+00
 E= -3010.54140750001     Delta-E=       -0.000000011086 Rises=F Damp=F
 DIIS: error= 8.62D-07 at cycle  13 NSaved=  13.
 NSaved=13 IEnMin=13 EnMin= -3010.54140750001     IErMin=13 ErrMin= 8.62D-07
 ErrMax= 8.62D-07  0.00D+00 EMaxC= 1.00D-01 BMatC= 4.62D-10 BMatP= 3.24D-09
 IDIUse=1 WtCom= 1.00D+00 WtEn= 0.00D+00
 Coeff-Com:  0.772D-05-0.181D-04-0.788D-04 0.913D-05-0.592D-03-0.821D-03
 Coeff-Com:  0.338D-02 0.826D-02-0.281D-02-0.510D-01-0.904D-01 0.166D+00
 Coeff-Com:  0.968D+00
 Coeff:      0.772D-05-0.181D-04-0.788D-04 0.913D-05-0.592D-03-0.821D-03
 Coeff:      0.338D-02 0.826D-02-0.281D-02-0.510D-01-0.904D-01 0.166D+00
 Coeff:      0.968D+00
 Gap=     0.255 Goal=   None    Shift=    0.000
 RMSDP=9.15D-07 MaxDP=4.33D-05 DE=-1.11D-08 OVMax= 4.01D-05

 Cycle  14  Pass 1  IDiag  1:
 RMSU=  4.49D-07    CP:  3.72D-01  1.65D+00  1.07D+00  4.71D-01  1.13D+00
                    CP:  1.20D+00  1.18D+00  1.60D+00  1.51D+00  1.46D+00
                    CP:  1.49D+00  1.29D+00  1.22D+00
 E= -3010.54140750217     Delta-E=       -0.000000002159 Rises=F Damp=F
 DIIS: error= 6.19D-07 at cycle  14 NSaved=  14.
 NSaved=14 IEnMin=14 EnMin= -3010.54140750217     IErMin=14 ErrMin= 6.19D-07
 ErrMax= 6.19D-07  0.00D+00 EMaxC= 1.00D-01 BMatC= 7.89D-11 BMatP= 4.62D-10
 IDIUse=1 WtCom= 1.00D+00 WtEn= 0.00D+00
 Coeff-Com:  0.183D-06-0.157D-05-0.537D-04 0.267D-04-0.340D-03-0.396D-03
 Coeff-Com:  0.980D-04 0.350D-02 0.969D-02-0.268D-02-0.677D-01-0.105D+00
 Coeff-Com:  0.241D+00 0.922D+00
 Coeff:      0.183D-06-0.157D-05-0.537D-04 0.267D-04-0.340D-03-0.396D-03
 Coeff:      0.980D-04 0.350D-02 0.969D-02-0.268D-02-0.677D-01-0.105D+00
 Coeff:      0.241D+00 0.922D+00
 Gap=     0.255 Goal=   None    Shift=    0.000
 RMSDP=3.16D-07 MaxDP=1.39D-05 DE=-2.16D-09 OVMax= 1.97D-05

 Cycle  15  Pass 1  IDiag  1:
 RMSU=  1.46D-07    CP:  3.72D-01  1.65D+00  1.07D+00  4.71D-01  1.13D+00
                    CP:  1.20D+00  1.18D+00  1.60D+00  1.51D+00  1.46D+00
                    CP:  1.50D+00  1.35D+00  1.31D+00  1.28D+00
 E= -3010.54140750270     Delta-E=       -0.000000000528 Rises=F Damp=F
 DIIS: error= 2.21D-07 at cycle  15 NSaved=  15.
 NSaved=15 IEnMin=15 EnMin= -3010.54140750270     IErMin=15 ErrMin= 2.21D-07
 ErrMax= 2.21D-07  0.00D+00 EMaxC= 1.00D-01 BMatC= 2.49D-11 BMatP= 7.89D-11
 IDIUse=1 WtCom= 1.00D+00 WtEn= 0.00D+00
 Coeff-Com: -0.196D-05 0.412D-05-0.112D-08 0.298D-05 0.493D-04 0.116D-03
 Coeff-Com: -0.717D-03-0.131D-02 0.270D-02 0.846D-02 0.748D-02-0.594D-01
 Coeff-Com: -0.222D+00 0.276D+00 0.989D+00
 Coeff:     -0.196D-05 0.412D-05-0.112D-08 0.298D-05 0.493D-04 0.116D-03
 Coeff:     -0.717D-03-0.131D-02 0.270D-02 0.846D-02 0.748D-02-0.594D-01
 Coeff:     -0.222D+00 0.276D+00 0.989D+00
 Gap=     0.255 Goal=   None    Shift=    0.000
 RMSDP=2.64D-07 MaxDP=1.55D-05 DE=-5.28D-10 OVMax= 1.09D-05

 Cycle  16  Pass 1  IDiag  1:
 RMSU=  1.12D-07    CP:  3.72D-01  1.65D+00  1.07D+00  4.71D-01  1.13D+00
                    CP:  1.20D+00  1.18D+00  1.60D+00  1.51D+00  1.46D+00
                    CP:  1.50D+00  1.39D+00  1.41D+00  1.49D+00  1.42D+00
 E= -3010.54140750281     Delta-E=       -0.000000000111 Rises=F Damp=F
 DIIS: error= 6.33D-08 at cycle  16 NSaved=  16.
 NSaved=16 IEnMin=16 EnMin= -3010.54140750281     IErMin=16 ErrMin= 6.33D-08
 ErrMax= 6.33D-08  0.00D+00 EMaxC= 1.00D-01 BMatC= 1.79D-12 BMatP= 2.49D-11
 IDIUse=1 WtCom= 1.00D+00 WtEn= 0.00D+00
 Coeff-Com: -0.154D-06 0.475D-06 0.623D-05-0.140D-05 0.428D-04 0.630D-04
 Coeff-Com: -0.157D-03-0.640D-03-0.337D-03 0.225D-02 0.117D-01 0.571D-03
 Coeff-Com: -0.853D-01-0.234D-01 0.192D+00 0.903D+00
 Coeff:     -0.154D-06 0.475D-06 0.623D-05-0.140D-05 0.428D-04 0.630D-04
 Coeff:     -0.157D-03-0.640D-03-0.337D-03 0.225D-02 0.117D-01 0.571D-03
 Coeff:     -0.853D-01-0.234D-01 0.192D+00 0.903D+00
 Gap=     0.255 Goal=   None    Shift=    0.000
 RMSDP=4.97D-08 MaxDP=1.49D-06 DE=-1.11D-10 OVMax= 2.87D-06

 Cycle  17  Pass 1  IDiag  1:
 RMSU=  2.27D-08    CP:  3.72D-01  1.65D+00  1.07D+00  4.71D-01  1.13D+00
                    CP:  1.20D+00  1.18D+00  1.60D+00  1.51D+00  1.46D+00
                    CP:  1.50D+00  1.40D+00  1.41D+00  1.54D+00  1.58D+00
                    CP:  1.11D+00
 E= -3010.54140750281     Delta-E=       -0.000000000000 Rises=F Damp=F
 DIIS: error= 3.30D-08 at cycle  17 NSaved=  17.
 NSaved=17 IEnMin=17 EnMin= -3010.54140750281     IErMin=17 ErrMin= 3.30D-08
 ErrMax= 3.30D-08  0.00D+00 EMaxC= 1.00D-01 BMatC= 4.41D-13 BMatP= 1.79D-12
 IDIUse=1 WtCom= 1.00D+00 WtEn= 0.00D+00
 Coeff-Com:  0.201D-06-0.368D-06 0.239D-05-0.118D-05 0.102D-04 0.132D-04
 Coeff-Com:  0.441D-04-0.702D-04-0.628D-03-0.592D-03 0.348D-02 0.831D-02
 Coeff-Com: -0.173D-02-0.421D-01-0.900D-01 0.331D+00 0.792D+00
 Coeff:      0.201D-06-0.368D-06 0.239D-05-0.118D-05 0.102D-04 0.132D-04
 Coeff:      0.441D-04-0.702D-04-0.628D-03-0.592D-03 0.348D-02 0.831D-02
 Coeff:     -0.173D-02-0.421D-01-0.900D-01 0.331D+00 0.792D+00
 Gap=     0.255 Goal=   None    Shift=    0.000
 RMSDP=2.65D-08 MaxDP=1.24D-06 DE=-4.55D-13 OVMax= 8.54D-07

 Cycle  18  Pass 1  IDiag  1:
 RMSU=  8.30D-09    CP:  3.72D-01  1.65D+00  1.07D+00  4.71D-01  1.13D+00
                    CP:  1.20D+00  1.18D+00  1.60D+00  1.51D+00  1.46D+00
                    CP:  1.51D+00  1.40D+00  1.41D+00  1.54D+00  1.64D+00
                    CP:  1.23D+00  1.19D+00
 E= -3010.54140750283     Delta-E=       -0.000000000016 Rises=F Damp=F
 DIIS: error= 6.17D-09 at cycle  18 NSaved=  18.
 NSaved=18 IEnMin=18 EnMin= -3010.54140750283     IErMin=18 ErrMin= 6.17D-09
 ErrMax= 6.17D-09  0.00D+00 EMaxC= 1.00D-01 BMatC= 2.72D-14 BMatP= 4.41D-13
 IDIUse=1 WtCom= 1.00D+00 WtEn= 0.00D+00
 Coeff-Com:  0.500D-07-0.112D-06-0.500D-06 0.207D-06-0.531D-05-0.609D-05
 Coeff-Com:  0.281D-04 0.926D-04-0.462D-04-0.405D-03-0.751D-03 0.129D-02
 Coeff-Com:  0.905D-02-0.769D-03-0.416D-01-0.438D-01 0.118D+00 0.959D+00
 Coeff:      0.500D-07-0.112D-06-0.500D-06 0.207D-06-0.531D-05-0.609D-05
 Coeff:      0.281D-04 0.926D-04-0.462D-04-0.405D-03-0.751D-03 0.129D-02
 Coeff:      0.905D-02-0.769D-03-0.416D-01-0.438D-01 0.118D+00 0.959D+00
 Gap=     0.255 Goal=   None    Shift=    0.000
 RMSDP=1.10D-08 MaxDP=6.40D-07 DE=-1.64D-11 OVMax= 2.01D-07

 Cycle  19  Pass 1  IDiag  1:
 RMSU=  3.31D-09    CP:  3.72D-01  1.65D+00  1.07D+00  4.71D-01  1.13D+00
                    CP:  1.20D+00  1.18D+00  1.60D+00  1.51D+00  1.46D+00
                    CP:  1.51D+00  1.40D+00  1.42D+00  1.54D+00  1.65D+00
                    CP:  1.26D+00  1.29D+00  1.32D+00
 E= -3010.54140750280     Delta-E=        0.000000000030 Rises=F Damp=F
 DIIS: error= 4.38D-09 at cycle  19 NSaved=  19.
 NSaved=19 IEnMin=18 EnMin= -3010.54140750283     IErMin=19 ErrMin= 4.38D-09
 ErrMax= 4.38D-09  0.00D+00 EMaxC= 1.00D-01 BMatC= 4.79D-15 BMatP= 2.72D-14
 IDIUse=1 WtCom= 1.00D+00 WtEn= 0.00D+00
 Large coefficients: NSaved= 19 BigCof=    0.00 CofMax=   10.00 Det=-9.71D-15
 Inversion failed.  Reducing to 18 matrices.
 Coeff-Com: -0.996D-08-0.431D-06 0.207D-06-0.256D-05-0.234D-05 0.447D-05
 Coeff-Com:  0.294D-04 0.392D-04-0.640D-04-0.427D-03-0.277D-03 0.197D-02
 Coeff-Com:  0.371D-02-0.314D-02-0.359D-01-0.409D-01 0.211D+00 0.864D+00
 Coeff:     -0.996D-08-0.431D-06 0.207D-06-0.256D-05-0.234D-05 0.447D-05
 Coeff:      0.294D-04 0.392D-04-0.640D-04-0.427D-03-0.277D-03 0.197D-02
 Coeff:      0.371D-02-0.314D-02-0.359D-01-0.409D-01 0.211D+00 0.864D+00
 Gap=     0.255 Goal=   None    Shift=    0.000
 RMSDP=2.45D-09 MaxDP=1.18D-07 DE= 3.00D-11 OVMax= 7.56D-08

 SCF Done:  E(RwB97XD) =  -3010.54140750     A.U. after   19 cycles
            NFock= 19  Conv=0.25D-08     -V/T= 2.0016
 KE= 3.005868695267D+03 PE=-8.633999447123D+03 EE= 1.876952743229D+03
 Leave Link  502 at Wed May  1 15:04:30 2024, MaxMem=  1207959552 cpu:            1056.6 elap:            1056.6
 (Enter /software/gaussian/g16-c01/sse4/g16/l601.exe)
 Copying SCF densities to generalized density rwf, IOpCl= 0 IROHF=0.

 **********************************************************************

            Population analysis using the SCF Density.

 **********************************************************************

 Alpha  occ. eigenvalues -- -483.33173 -62.88222 -56.67883 -56.67354 -56.67353
 Alpha  occ. eigenvalues --  -19.46213 -19.45903 -14.85541 -10.59893 -10.57698
 Alpha  occ. eigenvalues --  -10.57626 -10.57237 -10.56651 -10.52268  -9.04045
 Alpha  occ. eigenvalues --   -6.86635  -6.84897  -6.84889  -2.96561  -2.96096
 Alpha  occ. eigenvalues --   -2.96088  -2.94696  -2.94696  -1.49823  -1.32792
 Alpha  occ. eigenvalues --   -1.23140  -1.14910  -1.11798  -1.05845  -1.01206
 Alpha  occ. eigenvalues --   -0.95919  -0.91198  -0.85452  -0.81028  -0.80802
 Alpha  occ. eigenvalues --   -0.80217  -0.78931  -0.76255  -0.75922  -0.73038
 Alpha  occ. eigenvalues --   -0.69389  -0.67408  -0.64027  -0.61190  -0.58797
 Alpha  occ. eigenvalues --   -0.57298  -0.56580  -0.56260  -0.55697
 Alpha virt. eigenvalues --   -0.30209  -0.21568  -0.16883  -0.14119  -0.12717
 Alpha virt. eigenvalues --   -0.09107  -0.08971  -0.06800  -0.05593  -0.04713
 Alpha virt. eigenvalues --   -0.03976  -0.03849  -0.02490  -0.02277  -0.01477
 Alpha virt. eigenvalues --    0.00314   0.00655   0.02019   0.02340   0.02614
 Alpha virt. eigenvalues --    0.03046   0.03981   0.04564   0.05207   0.06452
 Alpha virt. eigenvalues --    0.06987   0.07832   0.08509   0.09047   0.09694
 Alpha virt. eigenvalues --    0.10064   0.10940   0.11481   0.11753   0.12390
 Alpha virt. eigenvalues --    0.13306   0.13393   0.14084   0.14875   0.15888
 Alpha virt. eigenvalues --    0.16941   0.18171   0.18880   0.19641   0.19992
 Alpha virt. eigenvalues --    0.20420   0.21137   0.21644   0.23294   0.25003
 Alpha virt. eigenvalues --    0.26157   0.26748   0.28114   0.28168   0.28571
 Alpha virt. eigenvalues --    0.30783   0.32099   0.33236   0.35009   0.36202
 Alpha virt. eigenvalues --    0.36810   0.37799   0.39644   0.40316   0.40816
 Alpha virt. eigenvalues --    0.42845   0.43496   0.44481   0.46133   0.47097
 Alpha virt. eigenvalues --    0.48306   0.49015   0.50694   0.51346   0.52954
 Alpha virt. eigenvalues --    0.53479   0.53779   0.56023   0.56751   0.60210
 Alpha virt. eigenvalues --    0.61208   0.62102   0.62676   0.65531   0.68429
 Alpha virt. eigenvalues --    0.69348   0.71717   0.72789   0.73573   0.74335
 Alpha virt. eigenvalues --    0.75690   0.79582   0.79969   0.81724   0.84747
 Alpha virt. eigenvalues --    0.85818   0.87935   0.91352   0.92593   0.97864
 Alpha virt. eigenvalues --    0.99588   1.01184   1.03958   1.05264   1.06193
 Alpha virt. eigenvalues --    1.08424   1.10746   1.11957   1.12385   1.14245
 Alpha virt. eigenvalues --    1.22158   1.24279   1.26409   1.32975   1.36193
 Alpha virt. eigenvalues --    1.36600   1.37138   1.44511   1.54072   1.56859
 Alpha virt. eigenvalues --    1.58082   1.58379   1.60452   1.61859   1.65879
 Alpha virt. eigenvalues --    1.68777   1.69153   1.73554   1.75124   1.78866
 Alpha virt. eigenvalues --    1.80621   1.85270   1.87601   1.91427   1.93507
 Alpha virt. eigenvalues --    1.97157   2.02612   2.03374   2.05487   2.07397
 Alpha virt. eigenvalues --    2.08614   2.14495   2.20520   2.22708   2.30446
 Alpha virt. eigenvalues --    2.37198   2.40654   2.41622   2.43230   2.52303
 Alpha virt. eigenvalues --    2.56588   2.62939   2.65886   2.67983   2.71655
 Alpha virt. eigenvalues --    2.72931   2.76170   2.77213   2.80799   2.81295
 Alpha virt. eigenvalues --    2.92948   2.95650   3.00409   3.04464   3.08628
 Alpha virt. eigenvalues --    3.12822   3.15307   3.19327   3.23547   3.24126
 Alpha virt. eigenvalues --    3.27154   3.38915   3.48042   3.51073   3.54036
 Alpha virt. eigenvalues --    3.56512   3.69691   3.73917   3.81978   3.86802
 Alpha virt. eigenvalues --    4.06728   4.06978   4.14668   4.19813   4.40698
 Alpha virt. eigenvalues --    4.44163   4.57035   4.59680   4.92977   4.95698
 Alpha virt. eigenvalues --    5.04282   5.08529   5.62616   6.15574   6.62486
 Alpha virt. eigenvalues --    7.45412   7.46981   7.56865  23.21015  23.61042
 Alpha virt. eigenvalues --   23.68175  23.79512  23.96021  24.01203  35.32414
 Alpha virt. eigenvalues --   47.89190  49.85331  49.94149 289.78544 289.80214
 Alpha virt. eigenvalues --  289.926791020.89650
          Condensed to atoms (all electrons):
               1          2          3          4          5          6
     1  C    8.555534  -1.891319   0.167425  -1.452980  -0.803361   0.306669
     2  C   -1.891319  12.053903  -1.720303  -2.787885   0.975613  -0.010929
     3  C    0.167425  -1.720303  12.769222  -2.668404  -1.287977   0.022790
     4  C   -1.452980  -2.787885  -2.668404  15.109876   0.922044   0.005440
     5  C   -0.803361   0.975613  -1.287977   0.922044   7.486404   0.008836
     6  H    0.306669  -0.010929   0.022790   0.005440   0.008836   0.291353
     7  H    0.050969   0.249741   0.054031  -0.021942  -0.015460  -0.001151
     8  H    0.008058  -0.027330   0.108034   0.186514  -0.025261   0.000003
     9  H    0.052719  -0.023221   0.007755  -0.017015   0.299778  -0.002055
    10  N   -0.098428   0.291919  -0.904723   0.315231   0.027797  -0.000464
    11  O    0.033386  -0.098390  -0.248230  -0.057423  -0.064989  -0.000026
    12  O    0.284990   0.030240  -0.290170  -0.087890  -0.036543  -0.000003
    13  C    1.329554  -1.554774   0.689594  -3.722821  -1.523402  -0.004234
    14  H   -0.016992   0.018543  -0.012404   0.032890  -0.008874  -0.000023
    15  Br   0.024117   0.034149  -0.031110  -0.019846   0.007666  -0.000330
               7          8          9         10         11         12
     1  C    0.050969   0.008058   0.052719  -0.098428   0.033386   0.284990
     2  C    0.249741  -0.027330  -0.023221   0.291919  -0.098390   0.030240
     3  C    0.054031   0.108034   0.007755  -0.904723  -0.248230  -0.290170
     4  C   -0.021942   0.186514  -0.017015   0.315231  -0.057423  -0.087890
     5  C   -0.015460  -0.025261   0.299778   0.027797  -0.064989  -0.036543
     6  H   -0.001151   0.000003  -0.002055  -0.000464  -0.000026  -0.000003
     7  H    0.265620   0.000012   0.000039  -0.020854  -0.001107   0.018405
     8  H    0.000012   0.333139   0.000093  -0.028154   0.026329  -0.001245
     9  H    0.000039   0.000093   0.318483   0.000307   0.000006   0.000005
    10  N   -0.020854  -0.028154   0.000307   7.364037   0.136267   0.202339
    11  O   -0.001107   0.026329   0.000006   0.136267   7.955275   0.001002
    12  O    0.018405  -0.001245   0.000005   0.202339   0.001002   7.748707
    13  C    0.011282   0.090021   0.008690  -0.188314   0.351089   0.027199
    14  H   -0.000024  -0.005448  -0.005172  -0.000185  -0.000154  -0.000084
    15  Br   0.000022   0.004948   0.004911   0.012335  -0.000867   0.002124
              13         14         15
     1  C    1.329554  -0.016992   0.024117
     2  C   -1.554774   0.018543   0.034149
     3  C    0.689594  -0.012404  -0.031110
     4  C   -3.722821   0.032890  -0.019846
     5  C   -1.523402  -0.008874   0.007666
     6  H   -0.004234  -0.000023  -0.000330
     7  H    0.011282  -0.000024   0.000022
     8  H    0.090021  -0.005448   0.004948
     9  H    0.008690  -0.005172   0.004911
    10  N   -0.188314  -0.000185   0.012335
    11  O    0.351089  -0.000154  -0.000867
    12  O    0.027199  -0.000084   0.002124
    13  C   10.519416   0.300380   0.124913
    14  H    0.300380   0.381084  -0.054963
    15  Br   0.124913  -0.054963  34.800021
 Mulliken charges:
               1
     1  C   -0.550343
     2  C    0.460042
     3  C   -0.655529
     4  C    0.264211
     5  C    0.037729
     6  H    0.384122
     7  H    0.410416
     8  H    0.330287
     9  H    0.354677
    10  N   -0.109111
    11  O   -0.032169
    12  O    0.100924
    13  C   -0.458595
    14  H    0.371426
    15  Br   0.091912
 Sum of Mulliken charges =   1.00000
 Mulliken charges with hydrogens summed into heavy atoms:
               1
     1  C   -0.166220
     2  C    0.870458
     3  C   -0.655529
     4  C    0.594498
     5  C    0.392406
    10  N   -0.109111
    11  O   -0.032169
    12  O    0.100924
    13  C   -0.087169
    15  Br   0.091912
 Electronic spatial extent (au):  <R**2>=           2800.0031
 Charge=              1.0000 electrons
 Dipole moment (field-independent basis, Debye):
    X=             -0.3841    Y=              3.0345    Z=              0.4450  Tot=              3.0909
 Quadrupole moment (field-independent basis, Debye-Ang):
   XX=            -70.5188   YY=            -53.8241   ZZ=            -63.7037
   XY=              5.3502   XZ=              0.7076   YZ=              0.0026
 Traceless Quadrupole moment (field-independent basis, Debye-Ang):
   XX=             -7.8366   YY=              8.8581   ZZ=             -1.0215
   XY=              5.3502   XZ=              0.7076   YZ=              0.0026
 Octapole moment (field-independent basis, Debye-Ang**2):
  XXX=           -295.1432  YYY=            109.5419  ZZZ=             80.4319  XYY=            -73.6897
  XXY=             49.4512  XXZ=             32.7017  XZZ=            -77.0862  YZZ=             22.1111
  YYZ=             30.4125  XYZ=             -2.5838
 Hexadecapole moment (field-independent basis, Debye-Ang**3):
 XXXX=          -2263.2257 YYYY=           -699.4728 ZZZZ=           -356.1823 XXXY=             -1.2606
 XXXZ=            -23.2005 YYYX=            -47.2967 YYYZ=           -170.6915 ZZZX=            -20.4451
 ZZZY=           -145.2544 XXYY=           -456.0173 XXZZ=           -371.3554 YYZZ=           -174.5979
 XXYZ=            -57.6056 YYXZ=             -5.1989 ZZXY=             -8.1663
 N-N= 7.406366011231D+02 E-N=-8.633999446478D+03  KE= 3.005868695267D+03
 No NMR shielding tensors so no spin-rotation constants.
 Leave Link  601 at Wed May  1 15:04:37 2024, MaxMem=  1207959552 cpu:               7.5 elap:               7.5
 (Enter /software/gaussian/g16-c01/sse4/g16/l9999.exe)
 Unable to Open any file for archive entry.
 1\1\GINC-BHX0021\SP\RwB97XD\6-311+G(d)\C6H5Br1N1O2(1+)\BWEIGHT\01-May-
 2024\0\\#P wB97XD/6-311+G* NoSymm #P Field=Y-126\\TitleMe\\1,1\C,0,0.0
 295,1.3397,0.0682\C,0,1.4348,1.2867,0.0064\C,0,2.1118,0.0511,-0.0054\C
 ,0,1.4451,-1.1372,0.0312\C,0,-0.6879,0.1682,0.11\H,0,-0.4713,2.2984,0.
 0781\H,0,2.0273,2.1965,-0.0322\H,0,1.9897,-2.0764,0.0232\H,0,-1.7716,0
 .1804,0.1582\N,0,3.5864,0.051,-0.0675\O,0,4.1471,-1.0597,-0.0881\O,0,4
 .145,1.1639,-0.0901\C,0,-0.0236,-1.1458,0.0835\H,0,-0.4367,-1.8725,0.7
 889\Br,0,-0.5359,-1.8697,-1.7408\\Version=ES64L-G16RevC.01\HF=-3010.54
 14075\RMSD=2.451e-09\Dipole=-2.057663,2.3419495,1.3212602\Quadrupole=-
 5.826316,6.585788,-0.759472,3.9777527,0.5260739,0.0019149\PG=C01 [X(C6
 H5Br1N1O2)]\\@
 The archive entry for this job was punched.


 "TIGER, TIGER BURNING BRIGHT
 IN THE FOREST OF THE NIGHT.
 WHAT IMMORTAL HAND OR EYE
 CAN FRAME THY FEARFUL SYMMETRYE?"
                     - WILLIAM BLAKE
 Job cpu time:       0 days  0 hours 18 minutes 43.5 seconds.
 Elapsed time:       0 days  0 hours 18 minutes 43.5 seconds.
 File lengths (MBytes):  RWF=     40 Int=      0 D2E=      0 Chk=     32 Scr=      1
 Normal termination of Gaussian 16 at Wed May  1 15:04:38 2024.
