 Entering Gaussian System, Link 0=g16
 Initial command:
 /software/gaussian/g16-c01/sse4/g16/l1.exe "/local_scratch/24657432/Gau-23748.inp" -scrdir="/local_scratch/24657432/"
 Entering Link 1 = /software/gaussian/g16-c01/sse4/g16/l1.exe PID=     23750.
  
 Copyright (c) 1988-2019, Gaussian, Inc.  All Rights Reserved.
  
 This is part of the Gaussian(R) 16 program.  It is based on
 the Gaussian(R) 09 system (copyright 2009, Gaussian, Inc.),
 the Gaussian(R) 03 system (copyright 2003, Gaussian, Inc.),
 the Gaussian(R) 98 system (copyright 1998, Gaussian, Inc.),
 the Gaussian(R) 94 system (copyright 1995, Gaussian, Inc.),
 the Gaussian 92(TM) system (copyright 1992, Gaussian, Inc.),
 the Gaussian 90(TM) system (copyright 1990, Gaussian, Inc.),
 the Gaussian 88(TM) system (copyright 1988, Gaussian, Inc.),
 the Gaussian 86(TM) system (copyright 1986, Carnegie Mellon
 University), and the Gaussian 82(TM) system (copyright 1983,
 Carnegie Mellon University). Gaussian is a federally registered
 trademark of Gaussian, Inc.
  
 This software contains proprietary and confidential information,
 including trade secrets, belonging to Gaussian, Inc.
  
 This software is provided under written license and may be
 used, copied, transmitted, or stored only in accord with that
 written license.
  
 The following legend is applicable only to US Government
 contracts under FAR:
  
                    RESTRICTED RIGHTS LEGEND
  
 Use, reproduction and disclosure by the US Government is
 subject to restrictions as set forth in subparagraphs (a)
 and (c) of the Commercial Computer Software - Restricted
 Rights clause in FAR 52.227-19.
  
 Gaussian, Inc.
 340 Quinnipiac St., Bldg. 40, Wallingford CT 06492
  
  
 ---------------------------------------------------------------
 Warning -- This program may not be used in any manner that
 competes with the business of Gaussian, Inc. or will provide
 assistance to any competitor of Gaussian, Inc.  The licensee
 of this program is prohibited from giving any competitor of
 Gaussian, Inc. access to this program.  By using this program,
 the user acknowledges that Gaussian, Inc. is engaged in the
 business of creating and licensing software in the field of
 computational chemistry and represents and warrants to the
 licensee that it is not a competitor of Gaussian, Inc. and that
 it will not use this program in any manner prohibited above.
 ---------------------------------------------------------------
  

 Cite this work as:
 Gaussian 16, Revision C.01,
 M. J. Frisch, G. W. Trucks, H. B. Schlegel, G. E. Scuseria, 
 M. A. Robb, J. R. Cheeseman, G. Scalmani, V. Barone, 
 G. A. Petersson, H. Nakatsuji, X. Li, M. Caricato, A. V. Marenich, 
 J. Bloino, B. G. Janesko, R. Gomperts, B. Mennucci, H. P. Hratchian, 
 J. V. Ortiz, A. F. Izmaylov, J. L. Sonnenberg, D. Williams-Young, 
 F. Ding, F. Lipparini, F. Egidi, J. Goings, B. Peng, A. Petrone, 
 T. Henderson, D. Ranasinghe, V. G. Zakrzewski, J. Gao, N. Rega, 
 G. Zheng, W. Liang, M. Hada, M. Ehara, K. Toyota, R. Fukuda, 
 J. Hasegawa, M. Ishida, T. Nakajima, Y. Honda, O. Kitao, H. Nakai, 
 T. Vreven, K. Throssell, J. A. Montgomery, Jr., J. E. Peralta, 
 F. Ogliaro, M. J. Bearpark, J. J. Heyd, E. N. Brothers, K. N. Kudin, 
 V. N. Staroverov, T. A. Keith, R. Kobayashi, J. Normand, 
 K. Raghavachari, A. P. Rendell, J. C. Burant, S. S. Iyengar, 
 J. Tomasi, M. Cossi, J. M. Millam, M. Klene, C. Adamo, R. Cammi, 
 J. W. Ochterski, R. L. Martin, K. Morokuma, O. Farkas, 
 J. B. Foresman, and D. J. Fox, Gaussian, Inc., Wallingford CT, 2019.
 
 ******************************************
 Gaussian 16:  ES64L-G16RevC.01  3-Jul-2019
                 1-May-2024 
 ******************************************
 %chk=geometry.chk
 %mem=9GB
 %nprocshared=12
 Will use up to   12 processors via shared memory.
 ---------------------------------------
 #P wB97XD/6-311+G* NoSymm #P Field=X-87
 ---------------------------------------
 1/38=1,172=1/1;
 2/12=2,15=1,17=6,18=5,40=1/2;
 3/5=4,6=6,7=11,11=2,14=1,15=-87,25=1,30=1,74=-58/1,2,3;
 4//1;
 5/5=2,38=5/2;
 6/7=2,8=2,9=2,10=2,28=1/1;
 99/5=1,9=1/99;
 Leave Link    1 at Wed May  1 14:27:44 2024, MaxMem=  1207959552 cpu:               1.6 elap:               1.7
 (Enter /software/gaussian/g16-c01/sse4/g16/l101.exe)
 -------
 TitleMe
 -------
 Symbolic Z-matrix:
 Charge =  1 Multiplicity = 1
 C                     0.0295    1.3397    0.0682 
 C                     1.4348    1.2867    0.0064 
 C                     2.1118    0.0511   -0.0054 
 C                     1.4451   -1.1372    0.0312 
 C                    -0.6879    0.1682    0.11 
 H                    -0.4713    2.2984    0.0781 
 H                     2.0273    2.1965   -0.0322 
 H                     1.9897   -2.0764    0.0232 
 H                    -1.7716    0.1804    0.1582 
 N                     3.5864    0.051    -0.0675 
 O                     4.1471   -1.0597   -0.0881 
 O                     4.145     1.1639   -0.0901 
 C                    -0.0236   -1.1458    0.0835 
 H                    -0.4367   -1.8725    0.7889 
 Br                   -0.5359   -1.8697   -1.7408 
 
 ITRead=  0  0  0  0  0  0  0  0  0  0  0  0  0  0  0
 MicOpt= -1 -1 -1 -1 -1 -1 -1 -1 -1 -1 -1 -1 -1 -1 -1
 NAtoms=     15 NQM=       15 NQMF=       0 NMMI=      0 NMMIF=      0
                NMic=       0 NMicF=      0.
                    Isotopes and Nuclear Properties:
 (Nuclear quadrupole moments (NQMom) in fm**2, nuclear magnetic moments (NMagM)
  in nuclear magnetons)

  Atom         1           2           3           4           5           6           7           8           9          10
 IAtWgt=          12          12          12          12          12           1           1           1           1          14
 AtmWgt=  12.0000000  12.0000000  12.0000000  12.0000000  12.0000000   1.0078250   1.0078250   1.0078250   1.0078250  14.0030740
 NucSpn=           0           0           0           0           0           1           1           1           1           2
 AtZEff=  -0.0000000  -0.0000000  -0.0000000  -0.0000000  -0.0000000  -0.0000000  -0.0000000  -0.0000000  -0.0000000  -0.0000000
 NQMom=    0.0000000   0.0000000   0.0000000   0.0000000   0.0000000   0.0000000   0.0000000   0.0000000   0.0000000   2.0440000
 NMagM=    0.0000000   0.0000000   0.0000000   0.0000000   0.0000000   2.7928460   2.7928460   2.7928460   2.7928460   0.4037610
 AtZNuc=   6.0000000   6.0000000   6.0000000   6.0000000   6.0000000   1.0000000   1.0000000   1.0000000   1.0000000   7.0000000

  Atom        11          12          13          14          15
 IAtWgt=          16          16          12           1          79
 AtmWgt=  15.9949146  15.9949146  12.0000000   1.0078250  78.9183361
 NucSpn=           0           0           0           1           3
 AtZEff=  -0.0000000  -0.0000000  -0.0000000  -0.0000000  -0.0000000
 NQMom=    0.0000000   0.0000000   0.0000000   0.0000000  31.3000000
 NMagM=    0.0000000   0.0000000   0.0000000   2.7928460   2.1063990
 AtZNuc=   8.0000000   8.0000000   6.0000000   1.0000000  35.0000000
 Leave Link  101 at Wed May  1 14:27:45 2024, MaxMem=  1207959552 cpu:               1.4 elap:               1.4
 (Enter /software/gaussian/g16-c01/sse4/g16/l202.exe)
                          Input orientation:                          
 ---------------------------------------------------------------------
 Center     Atomic      Atomic             Coordinates (Angstroms)
 Number     Number       Type             X           Y           Z
 ---------------------------------------------------------------------
      1          6           0        0.029500    1.339700    0.068200
      2          6           0        1.434800    1.286700    0.006400
      3          6           0        2.111800    0.051100   -0.005400
      4          6           0        1.445100   -1.137200    0.031200
      5          6           0       -0.687900    0.168200    0.110000
      6          1           0       -0.471300    2.298400    0.078100
      7          1           0        2.027300    2.196500   -0.032200
      8          1           0        1.989700   -2.076400    0.023200
      9          1           0       -1.771600    0.180400    0.158200
     10          7           0        3.586400    0.051000   -0.067500
     11          8           0        4.147100   -1.059700   -0.088100
     12          8           0        4.145000    1.163900   -0.090100
     13          6           0       -0.023600   -1.145800    0.083500
     14          1           0       -0.436700   -1.872500    0.788900
     15         35           0       -0.535900   -1.869700   -1.740800
 ---------------------------------------------------------------------
                    Distance matrix (angstroms):
                    1          2          3          4          5
     1  C    0.000000
     2  C    1.407656   0.000000
     3  C    2.449874   1.408963   0.000000
     4  C    2.853126   2.424049   1.363043   0.000000
     5  C    1.374344   2.401589   2.804523   2.501993   0.000000
     6  H    1.081667   2.159142   3.424870   3.934226   2.141421
     7  H    2.176095   1.086408   2.147231   3.384750   3.392128
     8  H    3.938800   3.408612   2.131193   1.085702   3.495040
     9  H    2.143837   3.395283   3.888995   3.478413   1.084840
    10  N    3.785591   2.482297   1.475907   2.450862   4.279589
    11  O    4.768247   3.587631   2.320164   2.705743   4.992415
    12  O    4.122294   2.714696   2.319353   3.549540   4.938459
    13  C    2.486114   2.837240   2.449573   1.469656   1.472614
    14  H    3.324903   3.754379   3.290289   2.157764   2.165286
    15  Br   3.727252   4.110867   3.702891   2.756973   2.757100
                    6          7          8          9         10
     6  H    0.000000
     7  H    2.503108   0.000000
     8  H    5.019802   4.273425   0.000000
     9  H    2.486588   4.304945   4.388479   0.000000
    10  N    4.640790   2.652397   2.661486   5.364313   0.000000
    11  O    5.712624   3.885809   2.387560   6.052233   1.244373
    12  O    4.756638   2.356750   3.893289   6.002923   1.245428
    13  C    3.473180   3.923079   2.218790   2.195425   3.806210
    14  H    4.231175   4.827242   2.552506   2.528663   4.540772
    15  Br   4.548146   5.101303   3.087568   3.055498   4.845862
                   11         12         13         14         15
    11  O    0.000000
    12  O    2.223602   0.000000
    13  C    4.175117   4.768865   0.000000
    14  H    4.737193   5.566358   1.093770   0.000000
    15  Br   5.031700   5.817075   2.028436   2.531646   0.000000
 Symmetry turned off by external request.
 Stoichiometry    C6H5BrNO2(1+)
 Framework group  C1[X(C6H5BrNO2)]
 Deg. of freedom    39
 Full point group                 C1      NOp   1
 Rotational constants (GHZ):           1.8252210           0.5518633           0.4576002
 Leave Link  202 at Wed May  1 14:27:47 2024, MaxMem=  1207959552 cpu:               1.2 elap:               1.2
 (Enter /software/gaussian/g16-c01/sse4/g16/l301.exe)
 Standard basis: 6-311+G(d) (5D, 7F)
 Ernie: Thresh=  0.10000D-02 Tol=  0.10000D-05 Strict=F.
 The following finite field(s) will be applied:
 An electric field of             -0.0087  0.0000  0.0000
   261 basis functions,   443 primitive gaussians,   273 cartesian basis functions
    49 alpha electrons       49 beta electrons
       nuclear repulsion energy       739.2122215416 Hartrees.
 IExCor= 4639 DFT=T Ex+Corr=wB97XD ExCW=0 ScaHFX=  1.000000
 ScaDFX=  1.000000  1.000000  1.000000  1.000000 ScalE2=  1.000000  1.000000
 IRadAn=      5 IRanWt=     -1 IRanGd=            0 ICorTp=0 IEmpDi=121
 HFx  wShort=  0.000000 wLong=  0.200000 cFull=  0.222036 cShort=  0.000000 cLong=  0.777964
 DFx  wShort=  0.000000 wLong=  0.200000 cFull=  0.000000 cShort=  0.000000 cLong=  1.000000
 NAtoms=   15 NActive=   15 NUniq=   15 SFac= 1.00D+00 NAtFMM=   60 NAOKFM=F Big=F
 Integral buffers will be    131072 words long.
 Raffenetti 2 integral format.
 Two-electron integral symmetry is turned off.
 R6Disp:  Grimme-D2 Dispersion energy=       -0.0077368520 Hartrees.
 Nuclear repulsion after empirical dispersion term =      739.2044846896 Hartrees.
 Leave Link  301 at Wed May  1 14:27:48 2024, MaxMem=  1207959552 cpu:               1.0 elap:               1.1
 (Enter /software/gaussian/g16-c01/sse4/g16/l302.exe)
 NPDir=0 NMtPBC=     1 NCelOv=     1 NCel=       1 NClECP=     1 NCelD=      1
         NCelK=      1 NCelE2=     1 NClLst=     1 CellRange=     0.0.
 One-electron integrals computed using PRISM.
 NBasis=   261 RedAO= T EigKep=  2.35D-06  NBF=   261
 NBsUse=   261 1.00D-06 EigRej= -1.00D+00 NBFU=   261
 Precomputing XC quadrature grid using
 IXCGrd= 4 IRadAn=           5 IRanWt=          -1 IRanGd=           0 AccXCQ= 0.00D+00.
 Generated NRdTot=       0 NPtTot=           0 NUsed=           0 NTot=          32
 NSgBfM=   273   273   273   273   273 MxSgAt=    15 MxSgA2=    15.
 Leave Link  302 at Wed May  1 14:28:09 2024, MaxMem=  1207959552 cpu:              21.3 elap:              21.3
 (Enter /software/gaussian/g16-c01/sse4/g16/l303.exe)
 DipDrv:  MaxL=1.
 The nuclear repulsion energy is now       737.5623843268 hartrees.
 Leave Link  303 at Wed May  1 14:28:13 2024, MaxMem=  1207959552 cpu:               3.2 elap:               3.2
 (Enter /software/gaussian/g16-c01/sse4/g16/l401.exe)
 ExpMin= 3.50D-02 ExpMax= 4.40D+05 ExpMxC= 1.51D+04 IAcc=3 IRadAn=         5 AccDes= 0.00D+00
 Harris functional with IExCor= 4639 and IRadAn=       5 diagonalized for initial guess.
 HarFok:  IExCor= 4639 AccDes= 0.00D+00 IRadAn=         5 IDoV= 1 UseB2=F ITyADJ=14
 ICtDFT=  3500011 ScaDFX=  1.000000  1.000000  1.000000  1.000000
 FoFCou: FMM=F IPFlag=           0 FMFlag=      100000 FMFlg1=           0
         NFxFlg=           0 DoJE=T BraDBF=F KetDBF=T FulRan=T
         wScrn=  0.000000 ICntrl=       500 IOpCl=  0 I1Cent=   200000004 NGrid=           0
         NMat0=    1 NMatS0=      1 NMatT0=    0 NMatD0=    1 NMtDS0=    0 NMtDT0=    0
 Symmetry not used in FoFCou.
 Harris En= -2970.66201800421    
 JPrj=0 DoOrth=F DoCkMO=F.
 Leave Link  401 at Wed May  1 14:28:43 2024, MaxMem=  1207959552 cpu:              30.4 elap:              30.4
 (Enter /software/gaussian/g16-c01/sse4/g16/l502.exe)
 Two-electron integral symmetry not used.
 Closed shell SCF:
 Using DIIS extrapolation, IDIIS=  1040.
 NGot=  1207959552 LenX=  1207804877 LenY=  1207729907
 Requested convergence on RMS density matrix=1.00D-08 within 128 cycles.
 Requested convergence on MAX density matrix=1.00D-06.
 Requested convergence on             energy=1.00D-06.
 No special actions if energy rises.
 Fock matrices will be formed incrementally for  20 cycles.

 Cycle   1  Pass 1  IDiag  1:
 FoFJK:  IHMeth= 1 ICntrl=       0 DoSepK=T KAlg= 0 I1Cent=           0 FoldK=F
 IRaf=         1 NMat=       1 IRICut=       1 DoRegI=T DoRafI=F ISym2E= 0 IDoP0=0 IntGTp=1.
 FoFCou: FMM=F IPFlag=           0 FMFlag=      100000 FMFlg1=           0
         NFxFlg=           0 DoJE=T BraDBF=F KetDBF=F FulRan=T
         wScrn=  0.000000 ICntrl=       500 IOpCl=  0 I1Cent=           0 NGrid=           0
         NMat0=    1 NMatS0=      1 NMatT0=    0 NMatD0=    1 NMtDS0=    0 NMtDT0=    0
 Symmetry not used in FoFCou.
 E= -3008.66348417969    
 DIIS: error= 3.21D-01 at cycle   1 NSaved=   1.
 NSaved= 1 IEnMin= 1 EnMin= -3008.66348417969     IErMin= 1 ErrMin= 3.21D-01
 ErrMax= 3.21D-01  0.00D+00 EMaxC= 1.00D-01 BMatC= 1.23D+01 BMatP= 1.23D+01
 IDIUse=3 WtCom= 0.00D+00 WtEn= 1.00D+00
 Coeff-Com:  0.100D+01
 Coeff-En:   0.100D+01
 Coeff:      0.100D+01
 Gap=     0.065 Goal=   None    Shift=    0.000
 GapD=    0.065 DampG=0.500 DampE=0.250 DampFc=0.2500 IDamp=-1.
 Damping current iteration by 2.50D-01
 RMSDP=6.38D-02 MaxDP=3.92D+00              OVMax= 9.57D-01

 Cycle   2  Pass 1  IDiag  1:
 RMSU=  1.58D-02    CP:  9.78D-01
 E= -3008.62621786843     Delta-E=        0.037266311252 Rises=F Damp=T
 DIIS: error= 2.26D-01 at cycle   2 NSaved=   2.
 NSaved= 2 IEnMin= 1 EnMin= -3008.66348417969     IErMin= 2 ErrMin= 2.26D-01
 ErrMax= 2.26D-01  0.00D+00 EMaxC= 1.00D-01 BMatC= 5.55D+00 BMatP= 1.23D+01
 IDIUse=3 WtCom= 0.00D+00 WtEn= 1.00D+00
 Coeff-Com: -0.104D+01 0.204D+01
 Coeff-En:   0.513D+00 0.487D+00
 Coeff:      0.513D+00 0.487D+00
 Gap=     0.046 Goal=   None    Shift=    0.000
 RMSDP=4.04D-02 MaxDP=3.31D+00 DE= 3.73D-02 OVMax= 9.86D-01

 Cycle   3  Pass 1  IDiag  1:
 RMSU=  1.73D-02    CP:  5.96D-01  1.42D+00
 E= -3009.05717517520     Delta-E=       -0.430957306769 Rises=F Damp=F
 DIIS: error= 1.38D-01 at cycle   3 NSaved=   3.
 NSaved= 3 IEnMin= 3 EnMin= -3009.05717517520     IErMin= 3 ErrMin= 1.38D-01
 ErrMax= 1.38D-01  0.00D+00 EMaxC= 1.00D-01 BMatC= 2.52D+00 BMatP= 5.55D+00
 IDIUse=3 WtCom= 0.00D+00 WtEn= 1.00D+00
 EnCoef did   100 forward-backward iterations
 Coeff-Com:  0.458D+00-0.263D+00 0.805D+00
 Coeff-En:   0.447D+00 0.403D-02 0.549D+00
 Coeff:      0.447D+00 0.403D-02 0.549D+00
 Gap=     0.121 Goal=   None    Shift=    0.000
 RMSDP=2.10D-02 MaxDP=9.55D-01 DE=-4.31D-01 OVMax= 5.56D-01

 Cycle   4  Pass 1  IDiag  1:
 RMSU=  1.53D-02    CP:  5.99D-01  5.05D-01  9.79D-01
 E= -3010.47322741854     Delta-E=       -1.416052243339 Rises=F Damp=F
 DIIS: error= 1.52D-02 at cycle   4 NSaved=   4.
 NSaved= 4 IEnMin= 4 EnMin= -3010.47322741854     IErMin= 4 ErrMin= 1.52D-02
 ErrMax= 1.52D-02  0.00D+00 EMaxC= 1.00D-01 BMatC= 6.15D-02 BMatP= 2.52D+00
 IDIUse=3 WtCom= 8.48D-01 WtEn= 1.52D-01
 Coeff-Com:  0.818D-01-0.565D-01 0.787D-01 0.896D+00
 Coeff-En:   0.000D+00 0.000D+00 0.000D+00 0.100D+01
 Coeff:      0.694D-01-0.479D-01 0.668D-01 0.912D+00
 Gap=     0.222 Goal=   None    Shift=    0.000
 RMSDP=1.12D-02 MaxDP=6.88D-01 DE=-1.42D+00 OVMax= 9.09D-02

 Cycle   5  Pass 1  IDiag  1:
 RMSU=  5.94D-03    CP:  5.21D-01  6.14D-01  9.50D-01  6.35D-01
 E= -3010.50185276994     Delta-E=       -0.028625351403 Rises=F Damp=F
 DIIS: error= 1.74D-02 at cycle   5 NSaved=   5.
 NSaved= 5 IEnMin= 5 EnMin= -3010.50185276994     IErMin= 4 ErrMin= 1.52D-02
 ErrMax= 1.74D-02  0.00D+00 EMaxC= 1.00D-01 BMatC= 3.89D-02 BMatP= 6.15D-02
 IDIUse=3 WtCom= 8.26D-01 WtEn= 1.74D-01
 Coeff-Com:  0.277D-03 0.621D-02-0.215D-01 0.446D+00 0.569D+00
 Coeff-En:   0.000D+00 0.000D+00 0.000D+00 0.317D+00 0.683D+00
 Coeff:      0.229D-03 0.513D-02-0.177D-01 0.423D+00 0.589D+00
 Gap=     0.201 Goal=   None    Shift=    0.000
 RMSDP=4.27D-03 MaxDP=2.16D-01 DE=-2.86D-02 OVMax= 4.79D-02

 Cycle   6  Pass 1  IDiag  1:
 RMSU=  1.72D-03    CP:  5.35D-01  4.97D-01  9.23D-01  8.25D-01  7.97D-01
 E= -3010.53491076810     Delta-E=       -0.033057998155 Rises=F Damp=F
 DIIS: error= 4.24D-03 at cycle   6 NSaved=   6.
 NSaved= 6 IEnMin= 6 EnMin= -3010.53491076810     IErMin= 6 ErrMin= 4.24D-03
 ErrMax= 4.24D-03  0.00D+00 EMaxC= 1.00D-01 BMatC= 2.38D-03 BMatP= 3.89D-02
 IDIUse=3 WtCom= 9.58D-01 WtEn= 4.24D-02
 Coeff-Com: -0.312D-02 0.651D-02-0.111D-01 0.161D+00 0.289D+00 0.558D+00
 Coeff-En:   0.000D+00 0.000D+00 0.000D+00 0.000D+00 0.000D+00 0.100D+01
 Coeff:     -0.299D-02 0.624D-02-0.107D-01 0.154D+00 0.277D+00 0.576D+00
 Gap=     0.217 Goal=   None    Shift=    0.000
 RMSDP=9.46D-04 MaxDP=4.10D-02 DE=-3.31D-02 OVMax= 8.52D-03

 Cycle   7  Pass 1  IDiag  1:
 RMSU=  5.80D-04    CP:  5.31D-01  5.01D-01  9.13D-01  7.90D-01  8.46D-01
                    CP:  1.06D+00
 E= -3010.53661175630     Delta-E=       -0.001700988196 Rises=F Damp=F
 DIIS: error= 1.61D-03 at cycle   7 NSaved=   7.
 NSaved= 7 IEnMin= 7 EnMin= -3010.53661175630     IErMin= 7 ErrMin= 1.61D-03
 ErrMax= 1.61D-03  0.00D+00 EMaxC= 1.00D-01 BMatC= 2.00D-04 BMatP= 2.38D-03
 IDIUse=3 WtCom= 9.84D-01 WtEn= 1.61D-02
 Coeff-Com: -0.686D-02 0.880D-02-0.318D-02-0.144D-01 0.281D-02 0.200D+00
 Coeff-Com:  0.813D+00
 Coeff-En:   0.000D+00 0.000D+00 0.000D+00 0.000D+00 0.000D+00 0.000D+00
 Coeff-En:   0.100D+01
 Coeff:     -0.675D-02 0.866D-02-0.313D-02-0.142D-01 0.277D-02 0.197D+00
 Coeff:      0.816D+00
 Gap=     0.221 Goal=   None    Shift=    0.000
 RMSDP=3.78D-04 MaxDP=2.85D-02 DE=-1.70D-03 OVMax= 1.03D-02

 Cycle   8  Pass 1  IDiag  1:
 RMSU=  2.41D-04    CP:  5.32D-01  5.15D-01  9.12D-01  7.84D-01  8.64D-01
                    CP:  1.06D+00  1.04D+00
 E= -3010.53686762654     Delta-E=       -0.000255870244 Rises=F Damp=F
 DIIS: error= 6.99D-04 at cycle   8 NSaved=   8.
 NSaved= 8 IEnMin= 8 EnMin= -3010.53686762654     IErMin= 8 ErrMin= 6.99D-04
 ErrMax= 6.99D-04  0.00D+00 EMaxC= 1.00D-01 BMatC= 6.00D-05 BMatP= 2.00D-04
 IDIUse=3 WtCom= 9.93D-01 WtEn= 6.99D-03
 Coeff-Com: -0.546D-02 0.713D-02-0.141D-02-0.161D-01-0.177D-01 0.457D-01
 Coeff-Com:  0.395D+00 0.593D+00
 Coeff-En:   0.000D+00 0.000D+00 0.000D+00 0.000D+00 0.000D+00 0.000D+00
 Coeff-En:   0.000D+00 0.100D+01
 Coeff:     -0.542D-02 0.708D-02-0.140D-02-0.159D-01-0.175D-01 0.454D-01
 Coeff:      0.392D+00 0.596D+00
 Gap=     0.223 Goal=   None    Shift=    0.000
 RMSDP=1.36D-04 MaxDP=9.27D-03 DE=-2.56D-04 OVMax= 3.68D-03

 Cycle   9  Pass 1  IDiag  1:
 RMSU=  9.22D-05    CP:  5.33D-01  5.19D-01  9.13D-01  7.80D-01  8.63D-01
                    CP:  1.07D+00  1.10D+00  1.01D+00
 E= -3010.53691508777     Delta-E=       -0.000047461231 Rises=F Damp=F
 DIIS: error= 4.51D-04 at cycle   9 NSaved=   9.
 NSaved= 9 IEnMin= 9 EnMin= -3010.53691508777     IErMin= 9 ErrMin= 4.51D-04
 ErrMax= 4.51D-04  0.00D+00 EMaxC= 1.00D-01 BMatC= 2.77D-05 BMatP= 6.00D-05
 IDIUse=3 WtCom= 9.95D-01 WtEn= 4.51D-03
 Coeff-Com: -0.351D-02 0.482D-02-0.527D-03-0.376D-02-0.100D-01-0.317D-01
 Coeff-Com:  0.216D-01 0.400D+00 0.623D+00
 Coeff-En:   0.000D+00 0.000D+00 0.000D+00 0.000D+00 0.000D+00 0.000D+00
 Coeff-En:   0.000D+00 0.000D+00 0.100D+01
 Coeff:     -0.349D-02 0.480D-02-0.525D-03-0.374D-02-0.997D-02-0.315D-01
 Coeff:      0.215D-01 0.399D+00 0.624D+00
 Gap=     0.224 Goal=   None    Shift=    0.000
 RMSDP=1.14D-04 MaxDP=5.87D-03 DE=-4.75D-05 OVMax= 1.81D-03

 Cycle  10  Pass 1  IDiag  1:
 RMSU=  4.83D-05    CP:  5.33D-01  5.22D-01  9.13D-01  7.76D-01  8.64D-01
                    CP:  1.07D+00  1.15D+00  1.24D+00  9.55D-01
 E= -3010.53694027085     Delta-E=       -0.000025183076 Rises=F Damp=F
 DIIS: error= 1.33D-04 at cycle  10 NSaved=  10.
 NSaved=10 IEnMin=10 EnMin= -3010.53694027085     IErMin=10 ErrMin= 1.33D-04
 ErrMax= 1.33D-04  0.00D+00 EMaxC= 1.00D-01 BMatC= 6.51D-06 BMatP= 2.77D-05
 IDIUse=3 WtCom= 9.99D-01 WtEn= 1.33D-03
 Coeff-Com: -0.158D-02 0.232D-02-0.307D-03 0.631D-02 0.461D-02-0.259D-01
 Coeff-Com: -0.102D+00-0.374D-01 0.257D+00 0.897D+00
 Coeff-En:   0.000D+00 0.000D+00 0.000D+00 0.000D+00 0.000D+00 0.000D+00
 Coeff-En:   0.000D+00 0.000D+00 0.000D+00 0.100D+01
 Coeff:     -0.157D-02 0.232D-02-0.307D-03 0.631D-02 0.460D-02-0.258D-01
 Coeff:     -0.102D+00-0.373D-01 0.256D+00 0.898D+00
 Gap=     0.224 Goal=   None    Shift=    0.000
 RMSDP=8.21D-05 MaxDP=4.48D-03 DE=-2.52D-05 OVMax= 1.47D-03

 Cycle  11  Pass 1  IDiag  1:
 RMSU=  2.20D-05    CP:  5.33D-01  5.25D-01  9.14D-01  7.73D-01  8.63D-01
                    CP:  1.06D+00  1.18D+00  1.32D+00  1.24D+00  1.38D+00
 E= -3010.53694830813     Delta-E=       -0.000008037286 Rises=F Damp=F
 DIIS: error= 6.15D-05 at cycle  11 NSaved=  11.
 NSaved=11 IEnMin=11 EnMin= -3010.53694830813     IErMin=11 ErrMin= 6.15D-05
 ErrMax= 6.15D-05  0.00D+00 EMaxC= 1.00D-01 BMatC= 1.14D-06 BMatP= 6.51D-06
 IDIUse=1 WtCom= 1.00D+00 WtEn= 0.00D+00
 Coeff-Com: -0.443D-03 0.683D-03-0.945D-04 0.312D-02 0.373D-02 0.535D-03
 Coeff-Com: -0.224D-01-0.945D-01-0.763D-01 0.229D+00 0.957D+00
 Coeff:     -0.443D-03 0.683D-03-0.945D-04 0.312D-02 0.373D-02 0.535D-03
 Coeff:     -0.224D-01-0.945D-01-0.763D-01 0.229D+00 0.957D+00
 Gap=     0.225 Goal=   None    Shift=    0.000
 RMSDP=3.50D-05 MaxDP=1.64D-03 DE=-8.04D-06 OVMax= 8.45D-04

 Cycle  12  Pass 1  IDiag  1:
 RMSU=  1.18D-05    CP:  5.33D-01  5.26D-01  9.14D-01  7.72D-01  8.63D-01
                    CP:  1.06D+00  1.19D+00  1.35D+00  1.32D+00  1.68D+00
                    CP:  1.17D+00
 E= -3010.53695013568     Delta-E=       -0.000001827552 Rises=F Damp=F
 DIIS: error= 2.89D-05 at cycle  12 NSaved=  12.
 NSaved=12 IEnMin=12 EnMin= -3010.53695013568     IErMin=12 ErrMin= 2.89D-05
 ErrMax= 2.89D-05  0.00D+00 EMaxC= 1.00D-01 BMatC= 1.37D-07 BMatP= 1.14D-06
 IDIUse=1 WtCom= 1.00D+00 WtEn= 0.00D+00
 Coeff-Com: -0.903D-04 0.123D-03 0.307D-04-0.563D-04 0.185D-03 0.504D-02
 Coeff-Com:  0.137D-01-0.852D-02-0.545D-01-0.104D+00 0.245D+00 0.904D+00
 Coeff:     -0.903D-04 0.123D-03 0.307D-04-0.563D-04 0.185D-03 0.504D-02
 Coeff:      0.137D-01-0.852D-02-0.545D-01-0.104D+00 0.245D+00 0.904D+00
 Gap=     0.225 Goal=   None    Shift=    0.000
 RMSDP=8.91D-06 MaxDP=5.09D-04 DE=-1.83D-06 OVMax= 3.35D-04

 Cycle  13  Pass 1  IDiag  1:
 RMSU=  4.88D-06    CP:  5.33D-01  5.26D-01  9.14D-01  7.71D-01  8.63D-01
                    CP:  1.06D+00  1.19D+00  1.36D+00  1.33D+00  1.75D+00
                    CP:  1.33D+00  1.13D+00
 E= -3010.53695040409     Delta-E=       -0.000000268408 Rises=F Damp=F
 DIIS: error= 7.63D-06 at cycle  13 NSaved=  13.
 NSaved=13 IEnMin=13 EnMin= -3010.53695040409     IErMin=13 ErrMin= 7.63D-06
 ErrMax= 7.63D-06  0.00D+00 EMaxC= 1.00D-01 BMatC= 1.80D-08 BMatP= 1.37D-07
 IDIUse=1 WtCom= 1.00D+00 WtEn= 0.00D+00
 Coeff-Com: -0.125D-04 0.636D-05-0.102D-05-0.368D-03-0.268D-03 0.236D-02
 Coeff-Com:  0.823D-02 0.999D-02-0.115D-01-0.747D-01-0.379D-01 0.343D+00
 Coeff-Com:  0.761D+00
 Coeff:     -0.125D-04 0.636D-05-0.102D-05-0.368D-03-0.268D-03 0.236D-02
 Coeff:      0.823D-02 0.999D-02-0.115D-01-0.747D-01-0.379D-01 0.343D+00
 Coeff:      0.761D+00
 Gap=     0.225 Goal=   None    Shift=    0.000
 RMSDP=3.61D-06 MaxDP=2.05D-04 DE=-2.68D-07 OVMax= 1.54D-04

 Cycle  14  Pass 1  IDiag  1:
 RMSU=  1.67D-06    CP:  5.33D-01  5.26D-01  9.14D-01  7.71D-01  8.63D-01
                    CP:  1.06D+00  1.18D+00  1.36D+00  1.33D+00  1.77D+00
                    CP:  1.34D+00  1.32D+00  1.20D+00
 E= -3010.53695044938     Delta-E=       -0.000000045291 Rises=F Damp=F
 DIIS: error= 3.90D-06 at cycle  14 NSaved=  14.
 NSaved=14 IEnMin=14 EnMin= -3010.53695044938     IErMin=14 ErrMin= 3.90D-06
 ErrMax= 3.90D-06  0.00D+00 EMaxC= 1.00D-01 BMatC= 2.16D-09 BMatP= 1.80D-08
 IDIUse=1 WtCom= 1.00D+00 WtEn= 0.00D+00
 Coeff-Com:  0.116D-04-0.199D-04-0.171D-04-0.127D-03-0.116D-03-0.687D-04
 Coeff-Com: -0.812D-04 0.416D-02 0.562D-02-0.680D-02-0.503D-01-0.569D-01
 Coeff-Com:  0.201D+00 0.904D+00
 Coeff:      0.116D-04-0.199D-04-0.171D-04-0.127D-03-0.116D-03-0.687D-04
 Coeff:     -0.812D-04 0.416D-02 0.562D-02-0.680D-02-0.503D-01-0.569D-01
 Coeff:      0.201D+00 0.904D+00
 Gap=     0.225 Goal=   None    Shift=    0.000
 RMSDP=2.47D-06 MaxDP=1.82D-04 DE=-4.53D-08 OVMax= 1.04D-04

 Cycle  15  Pass 1  IDiag  1:
 RMSU=  1.17D-06    CP:  5.33D-01  5.26D-01  9.14D-01  7.71D-01  8.63D-01
                    CP:  1.06D+00  1.18D+00  1.36D+00  1.34D+00  1.78D+00
                    CP:  1.35D+00  1.37D+00  1.53D+00  1.08D+00
 E= -3010.53695046015     Delta-E=       -0.000000010763 Rises=F Damp=F
 DIIS: error= 1.68D-06 at cycle  15 NSaved=  15.
 NSaved=15 IEnMin=15 EnMin= -3010.53695046015     IErMin=15 ErrMin= 1.68D-06
 ErrMax= 1.68D-06  0.00D+00 EMaxC= 1.00D-01 BMatC= 7.94D-10 BMatP= 2.16D-09
 IDIUse=1 WtCom= 1.00D+00 WtEn= 0.00D+00
 Coeff-Com:  0.955D-05-0.126D-04-0.298D-05 0.262D-04-0.189D-04-0.528D-03
 Coeff-Com: -0.154D-02 0.586D-03 0.517D-02 0.112D-01-0.663D-02-0.722D-01
 Coeff-Com: -0.611D-01 0.279D+00 0.846D+00
 Coeff:      0.955D-05-0.126D-04-0.298D-05 0.262D-04-0.189D-04-0.528D-03
 Coeff:     -0.154D-02 0.586D-03 0.517D-02 0.112D-01-0.663D-02-0.722D-01
 Coeff:     -0.611D-01 0.279D+00 0.846D+00
 Gap=     0.225 Goal=   None    Shift=    0.000
 RMSDP=1.03D-06 MaxDP=6.61D-05 DE=-1.08D-08 OVMax= 4.04D-05

 Cycle  16  Pass 1  IDiag  1:
 RMSU=  4.52D-07    CP:  5.33D-01  5.26D-01  9.14D-01  7.71D-01  8.63D-01
                    CP:  1.06D+00  1.18D+00  1.36D+00  1.34D+00  1.78D+00
                    CP:  1.35D+00  1.38D+00  1.64D+00  1.22D+00  1.28D+00
 E= -3010.53695046273     Delta-E=       -0.000000002583 Rises=F Damp=F
 DIIS: error= 9.30D-07 at cycle  16 NSaved=  16.
 NSaved=16 IEnMin=16 EnMin= -3010.53695046273     IErMin=16 ErrMin= 9.30D-07
 ErrMax= 9.30D-07  0.00D+00 EMaxC= 1.00D-01 BMatC= 1.59D-10 BMatP= 7.94D-10
 IDIUse=1 WtCom= 1.00D+00 WtEn= 0.00D+00
 Coeff-Com:  0.614D-05-0.758D-05 0.624D-05 0.327D-04 0.358D-05-0.175D-03
 Coeff-Com: -0.524D-03-0.814D-03 0.809D-04 0.446D-02 0.124D-01-0.322D-02
 Coeff-Com: -0.614D-01-0.160D+00 0.211D+00 0.998D+00
 Coeff:      0.614D-05-0.758D-05 0.624D-05 0.327D-04 0.358D-05-0.175D-03
 Coeff:     -0.524D-03-0.814D-03 0.809D-04 0.446D-02 0.124D-01-0.322D-02
 Coeff:     -0.614D-01-0.160D+00 0.211D+00 0.998D+00
 Gap=     0.225 Goal=   None    Shift=    0.000
 RMSDP=7.62D-07 MaxDP=4.60D-05 DE=-2.58D-09 OVMax= 3.28D-05

 Cycle  17  Pass 1  IDiag  1:
 RMSU=  2.03D-07    CP:  5.33D-01  5.26D-01  9.14D-01  7.71D-01  8.63D-01
                    CP:  1.06D+00  1.18D+00  1.36D+00  1.34D+00  1.78D+00
                    CP:  1.35D+00  1.38D+00  1.72D+00  1.26D+00  1.58D+00
                    CP:  1.30D+00
 E= -3010.53695046359     Delta-E=       -0.000000000856 Rises=F Damp=F
 DIIS: error= 3.76D-07 at cycle  17 NSaved=  17.
 NSaved=17 IEnMin=17 EnMin= -3010.53695046359     IErMin=17 ErrMin= 3.76D-07
 ErrMax= 3.76D-07  0.00D+00 EMaxC= 1.00D-01 BMatC= 2.11D-11 BMatP= 1.59D-10
 IDIUse=1 WtCom= 1.00D+00 WtEn= 0.00D+00
 Coeff-Com:  0.952D-06-0.133D-05 0.117D-05-0.545D-05 0.795D-05 0.112D-03
 Coeff-Com:  0.280D-03-0.336D-03-0.123D-02-0.167D-02 0.255D-02 0.132D-01
 Coeff-Com:  0.645D-02-0.822D-01-0.162D+00 0.146D+00 0.108D+01
 Coeff:      0.952D-06-0.133D-05 0.117D-05-0.545D-05 0.795D-05 0.112D-03
 Coeff:      0.280D-03-0.336D-03-0.123D-02-0.167D-02 0.255D-02 0.132D-01
 Coeff:      0.645D-02-0.822D-01-0.162D+00 0.146D+00 0.108D+01
 Gap=     0.225 Goal=   None    Shift=    0.000
 RMSDP=3.79D-07 MaxDP=1.71D-05 DE=-8.56D-10 OVMax= 2.01D-05

 Cycle  18  Pass 1  IDiag  1:
 RMSU=  8.26D-08    CP:  5.33D-01  5.26D-01  9.14D-01  7.71D-01  8.63D-01
                    CP:  1.06D+00  1.18D+00  1.36D+00  1.34D+00  1.78D+00
                    CP:  1.35D+00  1.39D+00  1.77D+00  1.25D+00  1.72D+00
                    CP:  1.59D+00  1.41D+00
 E= -3010.53695046376     Delta-E=       -0.000000000172 Rises=F Damp=F
 DIIS: error= 1.10D-07 at cycle  18 NSaved=  18.
 NSaved=18 IEnMin=18 EnMin= -3010.53695046376     IErMin=18 ErrMin= 1.10D-07
 ErrMax= 1.10D-07  0.00D+00 EMaxC= 1.00D-01 BMatC= 4.72D-12 BMatP= 2.11D-11
 IDIUse=1 WtCom= 1.00D+00 WtEn= 0.00D+00
 Coeff-Com:  0.376D-06-0.615D-06-0.220D-06-0.598D-05 0.370D-05 0.647D-04
 Coeff-Com:  0.161D-03-0.551D-04-0.485D-03-0.111D-02-0.116D-02 0.467D-02
 Coeff-Com:  0.114D-01-0.852D-02-0.798D-01-0.779D-01 0.424D+00 0.729D+00
 Coeff:      0.376D-06-0.615D-06-0.220D-06-0.598D-05 0.370D-05 0.647D-04
 Coeff:      0.161D-03-0.551D-04-0.485D-03-0.111D-02-0.116D-02 0.467D-02
 Coeff:      0.114D-01-0.852D-02-0.798D-01-0.779D-01 0.424D+00 0.729D+00
 Gap=     0.225 Goal=   None    Shift=    0.000
 RMSDP=9.87D-08 MaxDP=6.18D-06 DE=-1.72D-10 OVMax= 4.65D-06

 Cycle  19  Pass 1  IDiag  1:
 RMSU=  2.06D-08    CP:  5.33D-01  5.26D-01  9.14D-01  7.71D-01  8.63D-01
                    CP:  1.06D+00  1.18D+00  1.36D+00  1.34D+00  1.78D+00
                    CP:  1.36D+00  1.39D+00  1.77D+00  1.26D+00  1.73D+00
                    CP:  1.61D+00  1.55D+00  1.05D+00
 E= -3010.53695046379     Delta-E=       -0.000000000037 Rises=F Damp=F
 DIIS: error= 5.51D-08 at cycle  19 NSaved=  19.
 NSaved=19 IEnMin=19 EnMin= -3010.53695046379     IErMin=19 ErrMin= 5.51D-08
 ErrMax= 5.51D-08  0.00D+00 EMaxC= 1.00D-01 BMatC= 5.25D-13 BMatP= 4.72D-12
 IDIUse=1 WtCom= 1.00D+00 WtEn= 0.00D+00
 Coeff-Com:  0.121D-07-0.209D-07-0.126D-06 0.409D-06-0.646D-06-0.999D-05
 Coeff-Com: -0.224D-04 0.315D-04 0.135D-03 0.211D-03-0.765D-03-0.121D-02
 Coeff-Com:  0.178D-02 0.106D-01 0.141D-01-0.491D-01-0.108D+00 0.130D+00
 Coeff-Com:  0.100D+01
 Coeff:      0.121D-07-0.209D-07-0.126D-06 0.409D-06-0.646D-06-0.999D-05
 Coeff:     -0.224D-04 0.315D-04 0.135D-03 0.211D-03-0.765D-03-0.121D-02
 Coeff:      0.178D-02 0.106D-01 0.141D-01-0.491D-01-0.108D+00 0.130D+00
 Coeff:      0.100D+01
 Gap=     0.225 Goal=   None    Shift=    0.000
 RMSDP=5.21D-08 MaxDP=3.09D-06 DE=-3.68D-11 OVMax= 2.15D-06

 Cycle  20  Pass 1  IDiag  1:
 RMSU=  1.04D-08    CP:  5.33D-01  5.26D-01  9.14D-01  7.71D-01  8.63D-01
                    CP:  1.06D+00  1.18D+00  1.36D+00  1.34D+00  1.78D+00
                    CP:  1.36D+00  1.39D+00  1.77D+00  1.25D+00  1.73D+00
                    CP:  1.64D+00  1.60D+00  1.20D+00  1.36D+00
 E= -3010.53695046383     Delta-E=       -0.000000000038 Rises=F Damp=F
 DIIS: error= 1.67D-08 at cycle  20 NSaved=  20.
 NSaved=20 IEnMin=20 EnMin= -3010.53695046383     IErMin=20 ErrMin= 1.67D-08
 ErrMax= 1.67D-08  0.00D+00 EMaxC= 1.00D-01 BMatC= 5.49D-14 BMatP= 5.25D-13
 IDIUse=1 WtCom= 1.00D+00 WtEn= 0.00D+00
 Coeff-Com: -0.555D-08 0.154D-07-0.192D-08 0.578D-06-0.508D-06-0.733D-05
 Coeff-Com: -0.177D-04 0.760D-05 0.615D-04 0.137D-03-0.784D-04-0.580D-03
 Coeff-Com: -0.535D-03 0.253D-02 0.858D-02-0.168D-02-0.463D-01-0.664D-01
 Coeff-Com:  0.176D+00 0.928D+00
 Coeff:     -0.555D-08 0.154D-07-0.192D-08 0.578D-06-0.508D-06-0.733D-05
 Coeff:     -0.177D-04 0.760D-05 0.615D-04 0.137D-03-0.784D-04-0.580D-03
 Coeff:     -0.535D-03 0.253D-02 0.858D-02-0.168D-02-0.463D-01-0.664D-01
 Coeff:      0.176D+00 0.928D+00
 Gap=     0.225 Goal=   None    Shift=    0.000
 RMSDP=1.40D-08 MaxDP=6.22D-07 DE=-3.77D-11 OVMax= 4.97D-07

 Cycle  21  Pass 1  IDiag  1:
 Restarting incremental Fock formation.
 E= -3010.53695046381     Delta-E=        0.000000000023 Rises=F Damp=F
 DIIS: error= 8.02D-09 at cycle  21 NSaved=  20.
 NSaved=20 IEnMin=19 EnMin= -3010.53695046383     IErMin=20 ErrMin= 8.02D-09
 ErrMax= 8.02D-09  0.00D+00 EMaxC= 1.00D-01 BMatC= 8.62D-15 BMatP= 5.49D-14
 IDIUse=1 WtCom= 1.00D+00 WtEn= 0.00D+00
 Large coefficients: NSaved= 20 BigCof=    0.00 CofMax=   10.00 Det=-2.78D-14
 Inversion failed.  Reducing to 19 matrices.
 Coeff-Com:  0.490D-08-0.560D-07 0.559D-07 0.944D-06 0.133D-05-0.550D-05
 Coeff-Com: -0.157D-04-0.177D-04 0.889D-04 0.922D-04-0.378D-03-0.104D-02
 Coeff-Com: -0.133D-02 0.780D-02 0.147D-01-0.395D-01-0.130D+00 0.104D+00
 Coeff-Com:  0.105D+01
 Coeff:      0.490D-08-0.560D-07 0.559D-07 0.944D-06 0.133D-05-0.550D-05
 Coeff:     -0.157D-04-0.177D-04 0.889D-04 0.922D-04-0.378D-03-0.104D-02
 Coeff:     -0.133D-02 0.780D-02 0.147D-01-0.395D-01-0.130D+00 0.104D+00
 Coeff:      0.105D+01
 Gap=     0.225 Goal=   None    Shift=    0.000
 RMSDP=6.69D-09 MaxDP=2.97D-07 DE= 2.27D-11 OVMax= 2.64D-07

 SCF Done:  E(RwB97XD) =  -3010.53695046     A.U. after   21 cycles
            NFock= 21  Conv=0.67D-08     -V/T= 2.0016
 KE= 3.005858407378D+03 PE=-8.630565670900D+03 EE= 1.876607928732D+03
 Leave Link  502 at Wed May  1 14:48:18 2024, MaxMem=  1207959552 cpu:            1174.1 elap:            1174.3
 (Enter /software/gaussian/g16-c01/sse4/g16/l601.exe)
 Copying SCF densities to generalized density rwf, IOpCl= 0 IROHF=0.

 **********************************************************************

            Population analysis using the SCF Density.

 **********************************************************************

 Alpha  occ. eigenvalues -- -483.30577 -62.85616 -56.65290 -56.64743 -56.64741
 Alpha  occ. eigenvalues --  -19.41242 -19.41172 -14.80837 -10.57434 -10.55806
 Alpha  occ. eigenvalues --  -10.55652 -10.55053 -10.54834 -10.51971  -9.01432
 Alpha  occ. eigenvalues --   -6.84060  -6.82264  -6.82251  -2.93976  -2.93498
 Alpha  occ. eigenvalues --   -2.93486  -2.92049  -2.92049  -1.45013  -1.27934
 Alpha  occ. eigenvalues --   -1.21079  -1.12416  -1.10201  -1.03379  -0.98465
 Alpha  occ. eigenvalues --   -0.93984  -0.89058  -0.83058  -0.78836  -0.77593
 Alpha  occ. eigenvalues --   -0.76851  -0.75610  -0.74418  -0.71647  -0.70720
 Alpha  occ. eigenvalues --   -0.68038  -0.66008  -0.62176  -0.58897  -0.56001
 Alpha  occ. eigenvalues --   -0.54349  -0.52279  -0.51125  -0.50798
 Alpha virt. eigenvalues --   -0.28328  -0.18211  -0.14687  -0.11029  -0.10012
 Alpha virt. eigenvalues --   -0.07084  -0.05635  -0.05546  -0.03467  -0.02153
 Alpha virt. eigenvalues --   -0.01954  -0.01031  -0.00876  -0.00454   0.00243
 Alpha virt. eigenvalues --    0.01875   0.02290   0.02905   0.03588   0.03720
 Alpha virt. eigenvalues --    0.05230   0.06375   0.06720   0.07302   0.08072
 Alpha virt. eigenvalues --    0.08421   0.09037   0.09572   0.10511   0.10719
 Alpha virt. eigenvalues --    0.11569   0.12952   0.13357   0.13815   0.14291
 Alpha virt. eigenvalues --    0.14673   0.16104   0.17266   0.18245   0.18360
 Alpha virt. eigenvalues --    0.18653   0.19540   0.20486   0.21253   0.21600
 Alpha virt. eigenvalues --    0.22163   0.24508   0.25525   0.26598   0.27741
 Alpha virt. eigenvalues --    0.29353   0.30878   0.31035   0.31516   0.33422
 Alpha virt. eigenvalues --    0.34251   0.35007   0.37468   0.37935   0.38962
 Alpha virt. eigenvalues --    0.39520   0.40744   0.41812   0.42032   0.42892
 Alpha virt. eigenvalues --    0.44284   0.45841   0.46785   0.48046   0.49261
 Alpha virt. eigenvalues --    0.50565   0.51322   0.52648   0.53251   0.55314
 Alpha virt. eigenvalues --    0.56683   0.57505   0.58390   0.58755   0.61174
 Alpha virt. eigenvalues --    0.62053   0.64153   0.65021   0.67594   0.69577
 Alpha virt. eigenvalues --    0.71566   0.72799   0.74175   0.74840   0.75793
 Alpha virt. eigenvalues --    0.76929   0.82004   0.82442   0.84804   0.86889
 Alpha virt. eigenvalues --    0.87899   0.91325   0.94341   0.95250   1.01806
 Alpha virt. eigenvalues --    1.03055   1.04507   1.06648   1.07751   1.08574
 Alpha virt. eigenvalues --    1.11746   1.14202   1.16371   1.17051   1.19288
 Alpha virt. eigenvalues --    1.26700   1.27289   1.29750   1.34484   1.38140
 Alpha virt. eigenvalues --    1.38510   1.39485   1.46556   1.56350   1.59077
 Alpha virt. eigenvalues --    1.60831   1.60969   1.63343   1.65433   1.67723
 Alpha virt. eigenvalues --    1.71302   1.72026   1.74867   1.78966   1.80775
 Alpha virt. eigenvalues --    1.82216   1.87566   1.89588   1.94076   1.96362
 Alpha virt. eigenvalues --    2.00090   2.05053   2.06490   2.08103   2.09518
 Alpha virt. eigenvalues --    2.11269   2.16246   2.22013   2.25450   2.30640
 Alpha virt. eigenvalues --    2.39809   2.43837   2.44633   2.45890   2.54004
 Alpha virt. eigenvalues --    2.58096   2.64781   2.67802   2.70034   2.75571
 Alpha virt. eigenvalues --    2.77095   2.80169   2.80764   2.83150   2.85840
 Alpha virt. eigenvalues --    2.94824   2.97928   3.05054   3.06991   3.10997
 Alpha virt. eigenvalues --    3.14738   3.16823   3.20753   3.25856   3.27962
 Alpha virt. eigenvalues --    3.32118   3.41997   3.48973   3.53903   3.57311
 Alpha virt. eigenvalues --    3.60593   3.74349   3.78691   3.83751   3.88831
 Alpha virt. eigenvalues --    4.09426   4.09664   4.17271   4.22443   4.43302
 Alpha virt. eigenvalues --    4.49141   4.58953   4.63895   4.98044   5.00755
 Alpha virt. eigenvalues --    5.09382   5.13547   5.67438   6.20567   6.65158
 Alpha virt. eigenvalues --    7.48096   7.49674   7.59511  23.22718  23.62771
 Alpha virt. eigenvalues --   23.70531  23.81025  23.97363  24.03162  35.37111
 Alpha virt. eigenvalues --   47.91806  49.90206  49.99018 289.81149 289.82818
 Alpha virt. eigenvalues --  289.952721020.92249
          Condensed to atoms (all electrons):
               1          2          3          4          5          6
     1  C    9.482068  -2.692282   0.171006  -1.858853  -0.682191   0.309520
     2  C   -2.692282  13.251336  -1.869749  -2.181816   0.537408  -0.003619
     3  C    0.171006  -1.869749  13.589728  -3.774921  -1.246759   0.026607
     4  C   -1.858853  -2.181816  -3.774921  16.118857   1.218301   0.011213
     5  C   -0.682191   0.537408  -1.246759   1.218301   7.787648   0.000736
     6  H    0.309520  -0.003619   0.026607   0.011213   0.000736   0.353572
     7  H    0.085649   0.208233   0.074744  -0.035016  -0.018201  -0.001774
     8  H    0.007644  -0.015496   0.086268   0.211736  -0.028245  -0.000000
     9  H    0.047358  -0.028852   0.009957  -0.011696   0.283337  -0.002878
    10  N   -0.200664   0.386853  -0.937602   0.379389   0.001485  -0.000684
    11  O    0.005323  -0.110894  -0.262913   0.013056  -0.064019  -0.000027
    12  O    0.387004  -0.034957  -0.272803  -0.142907  -0.043626   0.000056
    13  C    1.485665  -1.954418   1.075367  -4.217441  -1.775973  -0.008004
    14  H   -0.022181   0.009177  -0.003664  -0.078403   0.027847  -0.000042
    15  Br   0.027285   0.020948   0.018481   0.031364   0.020811  -0.000349
               7          8          9         10         11         12
     1  C    0.085649   0.007644   0.047358  -0.200664   0.005323   0.387004
     2  C    0.208233  -0.015496  -0.028852   0.386853  -0.110894  -0.034957
     3  C    0.074744   0.086268   0.009957  -0.937602  -0.262913  -0.272803
     4  C   -0.035016   0.211736  -0.011696   0.379389   0.013056  -0.142907
     5  C   -0.018201  -0.028245   0.283337   0.001485  -0.064019  -0.043626
     6  H   -0.001774  -0.000000  -0.002878  -0.000684  -0.000027   0.000056
     7  H    0.287780  -0.000003   0.000021  -0.026311  -0.001528   0.027470
     8  H   -0.000003   0.280989   0.000097  -0.024488   0.027137  -0.000800
     9  H    0.000021   0.000097   0.366746   0.000321   0.000011   0.000009
    10  N   -0.026311  -0.024488   0.000321   7.528685   0.119615   0.084584
    11  O   -0.001528   0.027137   0.000011   0.119615   7.837818   0.011177
    12  O    0.027470  -0.000800   0.000009   0.084584   0.011177   7.875039
    13  C    0.017371   0.066761   0.030280  -0.207147   0.354908   0.039788
    14  H   -0.000022  -0.003383  -0.006544   0.000644  -0.000366  -0.000077
    15  Br   0.000024   0.005335   0.001318   0.006994  -0.000067   0.002101
              13         14         15
     1  C    1.485665  -0.022181   0.027285
     2  C   -1.954418   0.009177   0.020948
     3  C    1.075367  -0.003664   0.018481
     4  C   -4.217441  -0.078403   0.031364
     5  C   -1.775973   0.027847   0.020811
     6  H   -0.008004  -0.000042  -0.000349
     7  H    0.017371  -0.000022   0.000024
     8  H    0.066761  -0.003383   0.005335
     9  H    0.030280  -0.006544   0.001318
    10  N   -0.207147   0.000644   0.006994
    11  O    0.354908  -0.000366  -0.000067
    12  O    0.039788  -0.000077   0.002101
    13  C   11.164136   0.375610   0.033682
    14  H    0.375610   0.357099  -0.045463
    15  Br   0.033682  -0.045463  34.748575
 Mulliken charges:
               1
     1  C   -0.552351
     2  C    0.478127
     3  C   -0.683748
     4  C    0.317139
     5  C   -0.018557
     6  H    0.315674
     7  H    0.381564
     8  H    0.386449
     9  H    0.310516
    10  N   -0.111672
    11  O    0.070772
    12  O    0.067943
    13  C   -0.480583
    14  H    0.389769
    15  Br   0.128960
 Sum of Mulliken charges =   1.00000
 Mulliken charges with hydrogens summed into heavy atoms:
               1
     1  C   -0.236677
     2  C    0.859691
     3  C   -0.683748
     4  C    0.703587
     5  C    0.291959
    10  N   -0.111672
    11  O    0.070772
    12  O    0.067943
    13  C   -0.090814
    15  Br   0.128960
 Electronic spatial extent (au):  <R**2>=           2794.6322
 Charge=              1.0000 electrons
 Dipole moment (field-independent basis, Debye):
    X=              1.7722    Y=             -0.2973    Z=              0.1888  Tot=              1.8069
 Quadrupole moment (field-independent basis, Debye-Ang):
   XX=            -65.2638   YY=            -52.2860   ZZ=            -63.2729
   XY=              0.8627   XZ=              0.4409   YZ=              1.0680
 Traceless Quadrupole moment (field-independent basis, Debye-Ang):
   XX=             -4.9896   YY=              7.9882   ZZ=             -2.9987
   XY=              0.8627   XZ=              0.4409   YZ=              1.0680
 Octapole moment (field-independent basis, Debye-Ang**2):
  XXX=           -264.0359  YYY=             89.7355  ZZZ=             78.9476  XYY=            -70.0307
  XXY=             31.2618  XXZ=             32.4742  XZZ=            -75.2862  YZZ=             17.7028
  YYZ=             26.6991  XYZ=             -2.1453
 Hexadecapole moment (field-independent basis, Debye-Ang**3):
 XXXX=          -2129.4553 YYYY=           -681.6826 ZZZZ=           -352.5679 XXXY=            -68.8245
 XXXZ=            -25.9732 YYYX=            -62.6505 YYYZ=           -159.2270 ZZZX=            -21.6859
 ZZZY=           -139.0555 XXYY=           -445.0538 XXZZ=           -368.5361 YYZZ=           -166.5782
 XXYZ=            -56.2292 YYXZ=             -5.0195 ZZXY=            -11.0800
 N-N= 7.375623843268D+02 E-N=-8.630565671509D+03  KE= 3.005858407378D+03
 No NMR shielding tensors so no spin-rotation constants.
 Leave Link  601 at Wed May  1 14:48:26 2024, MaxMem=  1207959552 cpu:               7.6 elap:               7.6
 (Enter /software/gaussian/g16-c01/sse4/g16/l9999.exe)
 Unable to Open any file for archive entry.
 1\1\GINC-BHX0011\SP\RwB97XD\6-311+G(d)\C6H5Br1N1O2(1+)\BWEIGHT\01-May-
 2024\0\\#P wB97XD/6-311+G* NoSymm #P Field=X-87\\TitleMe\\1,1\C,0,0.02
 95,1.3397,0.0682\C,0,1.4348,1.2867,0.0064\C,0,2.1118,0.0511,-0.0054\C,
 0,1.4451,-1.1372,0.0312\C,0,-0.6879,0.1682,0.11\H,0,-0.4713,2.2984,0.0
 781\H,0,2.0273,2.1965,-0.0322\H,0,1.9897,-2.0764,0.0232\H,0,-1.7716,0.
 1804,0.1582\N,0,3.5864,0.051,-0.0675\O,0,4.1471,-1.0597,-0.0881\O,0,4.
 145,1.1639,-0.0901\C,0,-0.0236,-1.1458,0.0835\H,0,-0.4367,-1.8725,0.78
 89\Br,0,-0.5359,-1.8697,-1.7408\\Version=ES64L-G16RevC.01\HF=-3010.536
 9505\RMSD=6.692e-09\Dipole=-1.2092966,1.031108,1.2204619\Quadrupole=-3
 .7096093,5.9390643,-2.229455,0.6414232,0.3278033,0.7940544\PG=C01 [X(C
 6H5Br1N1O2)]\\@
 The archive entry for this job was punched.


 ...THOSE SCIENCES ARE VAIN AND FULL OF ERRORS WHICH 
 ARE NOT BORN FROM EXPERIMENT, THE MOTHER OF CERTAINTY...

                          -- LEONARDO DA VINCI, 1452-1519
 Job cpu time:       0 days  0 hours 20 minutes 42.7 seconds.
 Elapsed time:       0 days  0 hours 20 minutes 43.1 seconds.
 File lengths (MBytes):  RWF=     40 Int=      0 D2E=      0 Chk=     32 Scr=      1
 Normal termination of Gaussian 16 at Wed May  1 14:48:27 2024.
