[Molden Format]
[Atoms] (Angs)
  C      1    6      0.78808821      1.24068913      0.02492945
  C      2    6      2.17658059      1.20482783      0.01961732
  C      3    6      2.84604848     -0.01987894     -0.00618268
  C      4    6      0.06874473      0.04470619      0.01965705
  H      5    1      0.27342680      2.19328085      0.03465240
  H      6    1      2.76334949      2.11354885      0.03637404
  H      7    1     -1.01469187      0.05821664      0.02642497
  N      8    7      4.30685693      0.04595834     -0.03962592
  O      9    8      4.93785288     -0.87773037     -0.59362170
  O     10    8      4.84651823      1.05363205      0.47829467
  C     11    6      0.74008238     -1.17504363      0.01238440
  H     12    1      0.18852059     -2.10639187      0.02395406
  C     13    6      2.13307197     -1.21959994     -0.00494717
 Br     14   35      2.92645518     -2.95940256      0.03206369
[GTO]
1    0
S    6    1.000000
   4.56324000E+03    1.96665000E-03 
   6.82024000E+02    1.52306000E-02 
   1.54973000E+02    7.61269000E-02 
   4.44553000E+01    2.60801000E-01 
   1.30290000E+01    6.16462000E-01 
   1.82773000E+00    2.21006000E-01 
SP   3    1.000000
   2.09642000E+01    1.14660000E-01   4.02487000E-02 
   4.80331000E+00    9.19999000E-01   2.37594000E-01 
   1.45933000E+00   -3.03068000E-03   8.15854000E-01 
SP   1    1.000000
   4.83456000E-01    1.00000000E+00   1.00000000E+00 
SP   1    1.000000
   1.45585000E-01    1.00000000E+00   1.00000000E+00 
SP   1    1.000000
   4.38000000E-02    1.00000000E+00   1.00000000E+00 
D    1    1.000000
   6.26000000E-01    1.00000000E+00 

2    0
S    6    1.000000
   4.56324000E+03    1.96665000E-03 
   6.82024000E+02    1.52306000E-02 
   1.54973000E+02    7.61269000E-02 
   4.44553000E+01    2.60801000E-01 
   1.30290000E+01    6.16462000E-01 
   1.82773000E+00    2.21006000E-01 
SP   3    1.000000
   2.09642000E+01    1.14660000E-01   4.02487000E-02 
   4.80331000E+00    9.19999000E-01   2.37594000E-01 
   1.45933000E+00   -3.03068000E-03   8.15854000E-01 
SP   1    1.000000
   4.83456000E-01    1.00000000E+00   1.00000000E+00 
SP   1    1.000000
   1.45585000E-01    1.00000000E+00   1.00000000E+00 
SP   1    1.000000
   4.38000000E-02    1.00000000E+00   1.00000000E+00 
D    1    1.000000
   6.26000000E-01    1.00000000E+00 

3    0
S    6    1.000000
   4.56324000E+03    1.96665000E-03 
   6.82024000E+02    1.52306000E-02 
   1.54973000E+02    7.61269000E-02 
   4.44553000E+01    2.60801000E-01 
   1.30290000E+01    6.16462000E-01 
   1.82773000E+00    2.21006000E-01 
SP   3    1.000000
   2.09642000E+01    1.14660000E-01   4.02487000E-02 
   4.80331000E+00    9.19999000E-01   2.37594000E-01 
   1.45933000E+00   -3.03068000E-03   8.15854000E-01 
SP   1    1.000000
   4.83456000E-01    1.00000000E+00   1.00000000E+00 
SP   1    1.000000
   1.45585000E-01    1.00000000E+00   1.00000000E+00 
SP   1    1.000000
   4.38000000E-02    1.00000000E+00   1.00000000E+00 
D    1    1.000000
   6.26000000E-01    1.00000000E+00 

4    0
S    6    1.000000
   4.56324000E+03    1.96665000E-03 
   6.82024000E+02    1.52306000E-02 
   1.54973000E+02    7.61269000E-02 
   4.44553000E+01    2.60801000E-01 
   1.30290000E+01    6.16462000E-01 
   1.82773000E+00    2.21006000E-01 
SP   3    1.000000
   2.09642000E+01    1.14660000E-01   4.02487000E-02 
   4.80331000E+00    9.19999000E-01   2.37594000E-01 
   1.45933000E+00   -3.03068000E-03   8.15854000E-01 
SP   1    1.000000
   4.83456000E-01    1.00000000E+00   1.00000000E+00 
SP   1    1.000000
   1.45585000E-01    1.00000000E+00   1.00000000E+00 
SP   1    1.000000
   4.38000000E-02    1.00000000E+00   1.00000000E+00 
D    1    1.000000
   6.26000000E-01    1.00000000E+00 

5    0
S    3    1.000000
   3.38650000E+01    2.54938000E-02 
   5.09479000E+00    1.90373000E-01 
   1.15879000E+00    8.52161000E-01 
S    1    1.000000
   3.25840000E-01    1.00000000E+00 
S    1    1.000000
   1.02741000E-01    1.00000000E+00 

6    0
S    3    1.000000
   3.38650000E+01    2.54938000E-02 
   5.09479000E+00    1.90373000E-01 
   1.15879000E+00    8.52161000E-01 
S    1    1.000000
   3.25840000E-01    1.00000000E+00 
S    1    1.000000
   1.02741000E-01    1.00000000E+00 

7    0
S    3    1.000000
   3.38650000E+01    2.54938000E-02 
   5.09479000E+00    1.90373000E-01 
   1.15879000E+00    8.52161000E-01 
S    1    1.000000
   3.25840000E-01    1.00000000E+00 
S    1    1.000000
   1.02741000E-01    1.00000000E+00 

8    0
S    6    1.000000
   6.29348000E+03    1.96979000E-03 
   9.49044000E+02    1.49613000E-02 
   2.18776000E+02    7.35006000E-02 
   6.36916000E+01    2.48937000E-01 
   1.88282000E+01    6.02460000E-01 
   2.72023000E+00    2.56202000E-01 
SP   3    1.000000
   3.06331000E+01    1.11906000E-01   3.83119000E-02 
   7.02614000E+00    9.21666000E-01   2.37403000E-01 
   2.11205000E+00   -2.56919000E-03   8.17592000E-01 
SP   1    1.000000
   6.84009000E-01    1.00000000E+00   1.00000000E+00 
SP   1    1.000000
   2.00878000E-01    1.00000000E+00   1.00000000E+00 
SP   1    1.000000
   6.39000000E-02    1.00000000E+00   1.00000000E+00 
D    1    1.000000
   9.13000000E-01    1.00000000E+00 

9    0
S    6    1.000000
   8.58850000E+03    1.89515000E-03 
   1.29723000E+03    1.43859000E-02 
   2.99296000E+02    7.07320000E-02 
   8.73771000E+01    2.40001000E-01 
   2.56789000E+01    5.94797000E-01 
   3.74004000E+00    2.80802000E-01 
SP   3    1.000000
   4.21175000E+01    1.13889000E-01   3.65114000E-02 
   9.62837000E+00    9.20811000E-01   2.37153000E-01 
   2.85332000E+00   -3.27447000E-03   8.19702000E-01 
SP   1    1.000000
   9.05661000E-01    1.00000000E+00   1.00000000E+00 
SP   1    1.000000
   2.55611000E-01    1.00000000E+00   1.00000000E+00 
SP   1    1.000000
   8.45000000E-02    1.00000000E+00   1.00000000E+00 
D    1    1.000000
   1.29200000E+00    1.00000000E+00 

10    0
S    6    1.000000
   8.58850000E+03    1.89515000E-03 
   1.29723000E+03    1.43859000E-02 
   2.99296000E+02    7.07320000E-02 
   8.73771000E+01    2.40001000E-01 
   2.56789000E+01    5.94797000E-01 
   3.74004000E+00    2.80802000E-01 
SP   3    1.000000
   4.21175000E+01    1.13889000E-01   3.65114000E-02 
   9.62837000E+00    9.20811000E-01   2.37153000E-01 
   2.85332000E+00   -3.27447000E-03   8.19702000E-01 
SP   1    1.000000
   9.05661000E-01    1.00000000E+00   1.00000000E+00 
SP   1    1.000000
   2.55611000E-01    1.00000000E+00   1.00000000E+00 
SP   1    1.000000
   8.45000000E-02    1.00000000E+00   1.00000000E+00 
D    1    1.000000
   1.29200000E+00    1.00000000E+00 

11    0
S    6    1.000000
   4.56324000E+03    1.96665000E-03 
   6.82024000E+02    1.52306000E-02 
   1.54973000E+02    7.61269000E-02 
   4.44553000E+01    2.60801000E-01 
   1.30290000E+01    6.16462000E-01 
   1.82773000E+00    2.21006000E-01 
SP   3    1.000000
   2.09642000E+01    1.14660000E-01   4.02487000E-02 
   4.80331000E+00    9.19999000E-01   2.37594000E-01 
   1.45933000E+00   -3.03068000E-03   8.15854000E-01 
SP   1    1.000000
   4.83456000E-01    1.00000000E+00   1.00000000E+00 
SP   1    1.000000
   1.45585000E-01    1.00000000E+00   1.00000000E+00 
SP   1    1.000000
   4.38000000E-02    1.00000000E+00   1.00000000E+00 
D    1    1.000000
   6.26000000E-01    1.00000000E+00 

12    0
S    3    1.000000
   3.38650000E+01    2.54938000E-02 
   5.09479000E+00    1.90373000E-01 
   1.15879000E+00    8.52161000E-01 
S    1    1.000000
   3.25840000E-01    1.00000000E+00 
S    1    1.000000
   1.02741000E-01    1.00000000E+00 

13    0
S    6    1.000000
   4.56324000E+03    1.96665000E-03 
   6.82024000E+02    1.52306000E-02 
   1.54973000E+02    7.61269000E-02 
   4.44553000E+01    2.60801000E-01 
   1.30290000E+01    6.16462000E-01 
   1.82773000E+00    2.21006000E-01 
SP   3    1.000000
   2.09642000E+01    1.14660000E-01   4.02487000E-02 
   4.80331000E+00    9.19999000E-01   2.37594000E-01 
   1.45933000E+00   -3.03068000E-03   8.15854000E-01 
SP   1    1.000000
   4.83456000E-01    1.00000000E+00   1.00000000E+00 
SP   1    1.000000
   1.45585000E-01    1.00000000E+00   1.00000000E+00 
SP   1    1.000000
   4.38000000E-02    1.00000000E+00   1.00000000E+00 
D    1    1.000000
   6.26000000E-01    1.00000000E+00 

14    0
S    6    1.000000
   4.39700000E+05    8.13000000E-04 
   6.60300000E+04    6.28500000E-03 
   1.51400000E+04    3.19200000E-02 
   4.31700000E+03    1.28800000E-01 
   1.41400000E+03    3.94600000E-01 
   5.23900000E+02    5.41300000E-01 
S    3    1.000000
   5.23900000E+02    1.83100000E-01 
   2.07700000E+02    6.17600000E-01 
   8.65400000E+01    2.53800000E-01 
S    1    1.000000
   3.05200000E+01    1.00000000E+00 
S    1    1.000000
   1.29800000E+01    1.00000000E+00 
S    1    1.000000
   4.41200000E+00    1.00000000E+00 
S    1    1.000000
   1.86200000E+00    1.00000000E+00 
S    1    1.000000
   3.93200000E-01    1.00000000E+00 
S    1    1.000000
   1.40000000E-01    1.00000000E+00 
P    3    1.000000
   2.95700000E+03    2.22600000E-02 
   7.00300000E+02    1.80200000E-01 
   2.24600000E+02    8.62400000E-01 
P    3    1.000000
   8.25900000E+01    3.44000000E-01 
   3.31900000E+01    5.07100000E-01 
   1.42000000E+01    2.59000000E-01 
P    3    1.000000
   1.42000000E+01    7.96500000E-02 
   7.43800000E+00    3.73400000E-01 
   3.52600000E+00    6.04900000E-01 
P    1    1.000000
   1.59500000E+00    1.00000000E+00 
P    1    1.000000
   8.46200000E-01    1.00000000E+00 
P    1    1.000000
   3.18600000E-01    1.00000000E+00 
P    1    1.000000
   1.09600000E-01    1.00000000E+00 
D    4    1.000000
   1.34800000E+02    1.83100000E-02 
   3.63900000E+01    1.35000000E-01 
   1.21600000E+01    4.26100000E-01 
   4.34100000E+00    6.04300000E-01 
D    1    1.000000
   1.53500000E+00    1.00000000E+00 
SP   1    1.000000
   3.90000000E-02    1.00000000E+00   1.00000000E+00 
D    1    1.000000
   4.15000000E-01    1.00000000E+00 

[MO]
Sym=X
Ene= -0.195917
Spin=Alpha
Occup=1
     1    2.277863346971e-03
     2    3.600302830767e-03
     3   -1.600881140351e-02
     4    2.679245770194e-03
     5    6.572091234182e-02
     6   -1.067926973813e-02
     7   -2.319141390729e-02
     8    3.964447890309e-03
     9    1.064444512761e-01
    10   -3.299815186656e-03
    11   -2.206274112226e-02
    12   -1.030389507441e-02
    13    8.865368546049e-02
    14   -2.099924206865e-01
    15    2.257016594858e-02
    16    4.846640020574e-02
    17    1.333124265771e-02
    18   -4.837351484536e-04
    19   -4.064974220641e-03
    20   -7.973774109979e-03
    21    5.717293975941e-04
    22   -1.446382375680e-03
    23   -4.825728627880e-03
    24   -7.855379639737e-03
    25    1.950746101927e-02
    26   -1.501699119495e-02
    27    5.607317668839e-03
    28    2.361634656126e-02
    29    3.098372680740e-02
    30   -2.096107495432e-02
    31    9.045094838516e-03
    32    9.480174827563e-03
    33    1.261632056702e-03
    34    9.515971255514e-04
    35    3.406063969419e-03
    36    7.826848852714e-01
    37    6.178592679866e-02
    38   -1.384253375728e-01
    39   -9.430758794258e-03
    40    3.020046994883e-04
    41   -1.123834324558e-02
    42    4.164985704941e-03
    43   -4.028465037624e-03
    44   -1.757434619601e-04
    45    8.756962908800e-03
    46    1.416435543945e-02
    47   -2.612812164373e-02
    48    2.602515276369e-02
    49   -4.978592535681e-02
    50   -4.171051698995e-02
    51   -4.731317165751e-02
    52    4.143594470431e-02
    53   -8.032336432711e-02
    54   -1.217815941031e-01
    55   -4.793443965175e-02
    56    7.304812716140e-02
    57   -6.964215609068e-02
    58   -1.517121803933e-01
    59    1.461880142422e-01
    60   -4.618382661276e-01
    61   -2.711761949131e-02
    62    5.923778075816e-04
    63   -3.006943969162e-03
    64    3.688585007113e-03
    65   -4.127176593029e-03
    66   -6.125054703722e-04
    67    2.801890365137e-03
    68    4.455991161241e-03
    69   -8.490681442684e-03
    70    1.148271225397e-02
    71    8.449512667537e-02
    72   -1.188241459203e-02
    73   -1.257557871635e-02
    74    1.790198215053e-02
    75    1.377471555339e-01
    76   -4.773723688602e-02
    77   -3.021295821915e-02
    78    1.120368630851e-02
    79    1.102653830011e-01
    80   -5.709618587833e-03
    81    2.010201458172e-02
    82    8.769196194764e-02
    83    3.990644776677e-03
    84   -1.051608384663e-04
    85    5.794929028021e-03
    86    1.641448870026e-03
    87    4.525578767636e-04
    88   -9.865429927584e-04
    89    7.088278037732e-03
    90    1.193798254400e-02
    91    5.928345233115e-03
    92    1.313092008221e-03
    93   -6.315338067730e-04
    94   -1.378590862318e-02
    95    5.179227884432e-03
    96    5.637627459343e-03
    97   -3.588574363935e-03
    98   -3.843326914404e-04
    99   -5.937398863171e-04
   100    2.254153832913e-02
   101    1.336648103663e-02
   102   -3.610526000328e-03
   103    1.903822870158e-03
   104    3.652679210096e-02
   105    2.637208048944e-02
   106   -3.927873114623e-03
   107    1.639227255676e-03
   108   -1.054725470011e-02
   109   -5.845860055011e-02
   110   -3.849962449577e-02
   111   -6.885768145301e-02
   112   -7.260294875733e-02
   113    7.358416565556e-02
   114    3.303090212046e-02
   115   -1.048030970221e-03
   116    1.786688758563e-02
   117    5.609984123020e-03
   118   -1.560874957782e-02
   119    1.799854748962e-02
   120    6.539575008370e-03
   121    1.074946022155e-02
   122   -1.411194051736e-01
   123   -9.701784658631e-02
   124   -1.475384422849e-02
   125   -3.499514346445e-02
   126   -2.078467821604e-01
   127   -1.428291796831e-01
   128   -2.239316673532e-02
   129   -6.861066879088e-02
   130   -1.858158879152e-01
   131   -1.410619840931e-01
   132   -2.013867954473e-02
   133    1.031502569717e-01
   134   -1.975542107989e-02
   135    1.621126223254e-02
   136    1.068923892826e-02
   137   -1.744958521465e-03
   138   -3.503110041292e-03
   139   -3.043491493455e-03
   140    9.177943370807e-03
   141   -2.280379169777e-03
   142   -6.272957518326e-04
   143   -9.587158470994e-04
   144    4.731808005589e-02
   145   -7.108277818243e-02
   146   -4.035264364372e-02
   147    4.715066963650e-03
   148    7.157843445375e-02
   149   -1.038654692202e-01
   150   -5.941912698518e-02
   151    4.117670643929e-02
   152    6.017769056508e-02
   153   -1.052287147878e-01
   154   -5.605665681820e-02
   155   -1.947063831756e-02
   156    1.985095739268e-02
   157   -4.359894050652e-03
   158   -2.877983390443e-03
   159    1.213064742653e-03
   160    2.583045650762e-04
   161    3.737957504556e-03
   162   -5.877283736456e-03
   163   -1.119988331212e-03
   164   -7.007733313735e-03
   165   -1.118060324119e-02
   166    1.908070655423e-02
   167   -1.316023017727e-02
   168    4.628415520189e-02
   169    3.061350535195e-02
   170    2.614521198751e-02
   171   -2.295654361084e-02
   172    7.472932902625e-02
   173    1.313048464993e-01
   174    5.033524121585e-02
   175    3.051527463675e-03
   176    6.504818803573e-02
   177   -5.014090805843e-01
   178   -2.057183536933e-01
   179    8.984616399576e-02
   180    6.891972501957e-03
   181    2.229605504081e-04
   182   -6.633404134843e-03
   183    8.714209252102e-03
   184    1.259667635854e-03
   185    2.752759201279e-03
   186    7.332953369373e-03
   187    6.056930034337e-03
   188    1.374798983099e-02
   189    8.472843574042e-04
   190    1.473605247079e-03
   191   -2.156382183665e-02
   192   -7.095059493576e-05
   193   -2.335144003328e-02
   194   -5.519934833934e-03
   195   -3.742105101593e-02
   196    3.716936599642e-04
   197   -3.783107810760e-02
   198   -1.219715954602e-02
   199    8.104268626036e-02
   200    2.506657311055e-02
   201   -4.082236738356e-02
   202    4.792987896129e-02
   203   -4.019635341743e-01
   204   -9.750674410769e-02
   205    8.677522575921e-03
   206    9.710611553462e-05
   207   -1.107971168318e-02
   208   -1.344313491781e-03
   209    1.066618040891e-02
   210   -7.496010623856e-03
   211    4.917709565093e-04
   212    1.593091093398e-03
   213   -4.315935181028e-03
   214   -5.247478698394e-03
   215    1.033408216432e-02
   216    1.365483373974e-02
   217   -2.771764740016e-02
   218   -1.217387142437e-02
   219    6.881934707366e-03
   220    2.692388442474e-03
   221   -1.807998037881e-03
   222    5.680080742076e-02
   223    2.222392457456e-02
   224   -1.491929626694e-02
   225   -1.481976220401e-01
   226   -5.800337040943e-02
   227    3.885701109977e-02
   228   -5.549769035499e-02
   229   -2.152891134134e-02
   230    1.452867436582e-02
   231    1.213698283887e-01
   232    4.719640718478e-02
   233   -3.136185484087e-02
   234    2.888817912991e-01
   235    1.114686578079e-01
   236   -7.473287699674e-02
   237    1.687651627736e-01
   238    6.789889279470e-02
   239   -4.038050080764e-02
   240    3.329286938931e-05
   241    2.251993172681e-04
   242    3.892439467363e-03
   243    7.734675950687e-04
   244   -4.582465835224e-03
   245    1.332127260073e-04
   246    1.493527845856e-04
   247    7.420650066730e-04
   248    1.363081442685e-05
   249   -4.667998566701e-04
   250    3.868724856927e-02
   251    7.356009881105e-03
   252    1.417213261767e-02
   253   -2.498270195441e-03
   254   -6.648711481681e-05
   255    2.473591519585e-05
   256   -7.813971731174e-03
   257   -1.802901679964e-03
   258    9.572953381471e-03
Sym=X
Ene= -0.266527
Spin=Alpha
Occup=1
     1   -1.926986123468e-03
     2   -3.103846753857e-03
     3    1.846012760315e-02
     4   -6.127312805401e-03
     5    5.245263645286e-02
     6    1.002072095639e-02
     7    2.591099340918e-02
     8   -9.598058545000e-03
     9    8.455591409464e-02
    10   -4.589856117430e-02
    11   -1.153418567022e-03
    12   -2.130635295435e-02
    13    8.131611557490e-02
    14   -1.634907993574e-01
    15    4.067063986685e-02
    16    5.569934488728e-02
    17    1.302791837217e-02
    18    3.752573431979e-04
    19   -3.167640791428e-03
    20   -4.438057077921e-03
    21    1.703931549035e-03
    22    4.639269556658e-03
    23   -9.068977220300e-04
    24   -1.592914239603e-03
    25   -1.320942827162e-02
    26    2.810794444169e-02
    27   -2.610277202265e-03
    28    5.324927029580e-03
    29   -1.674313299669e-02
    30    4.222811196181e-02
    31   -2.645205948487e-03
    32    9.481386670634e-03
    33   -7.972657305399e-02
    34    4.212690970277e-02
    35   -7.313524064754e-03
    36   -5.381353184893e-03
    37    3.753276726087e-02
    38   -2.117214152794e-02
    39   -8.794645063951e-03
    40   -1.970538074145e-04
    41   -1.098563410731e-02
    42    5.427197001557e-03
    43    3.831438705547e-03
    44   -1.942121128386e-03
    45   -1.436135051918e-02
    46   -2.383298401081e-02
    47    8.928083180850e-02
    48    1.297258765770e-03
    49   -6.239515045533e-02
    50    7.383392999230e-02
    51    1.519171153174e-01
    52    2.917750295321e-03
    53   -1.025171004653e-01
    54    2.378793946985e-01
    55    1.930755593258e-01
    56    3.971696079399e-02
    57   -8.879437472528e-02
    58    5.803809050082e-01
    59   -1.862924452124e-01
    60   -1.558864888791e-01
    61   -7.937954233754e-03
    62   -3.093106220688e-03
    63    9.565845153871e-04
    64    1.067978508780e-03
    65    1.311472771130e-02
    66    5.526346791027e-04
    67   -2.506145884428e-03
    68   -3.960098315846e-03
    69    5.928221014259e-04
    70    4.966373614539e-04
    71    5.116669219084e-02
    72    1.125972877599e-02
    73    9.079486163859e-04
    74    8.000337233000e-04
    75    8.353194043375e-02
    76    8.626606992808e-03
    77    1.276270306254e-04
    78   -2.859848469667e-03
    79    7.161634973957e-02
    80    9.537352116121e-02
    81    2.089156805817e-02
    82    7.178481749748e-02
    83    4.698109660966e-03
    84    5.014111922823e-04
    85    2.452668747246e-03
    86    4.835933210337e-03
    87    3.593184265867e-03
    88   -4.602118109043e-04
    89   -1.344307097640e-02
    90   -1.691177328460e-02
    91   -4.820859921505e-03
    92    5.118149168913e-03
    93    3.344279539836e-03
    94    4.554204342639e-03
    95    4.468843162549e-03
    96    7.977044557529e-03
    97    4.153124889091e-03
    98   -2.662675954493e-03
    99   -4.356049376540e-03
   100   -5.635446388567e-02
   101   -2.426578379814e-03
   102    7.776803790167e-03
   103    1.208738438122e-02
   104   -9.187721201398e-02
   105   -2.712781135965e-03
   106    1.246689741481e-02
   107    2.604194117349e-02
   108    7.517386984723e-02
   109   -2.069639949062e-02
   110   -3.942102121985e-03
   111    1.579755051265e-01
   112    1.818180902444e-01
   113    4.336095338935e-02
   114    1.895191049238e-02
   115   -6.121234945195e-03
   116    9.295373076367e-03
   117   -2.337817281451e-02
   118    4.434101786969e-02
   119    7.603619028534e-03
   120    1.198217588647e-03
   121    1.910825958758e-03
   122    1.687974844299e-01
   123    1.328979334975e-02
   124    1.022403612419e-02
   125   -8.507617347491e-03
   126    2.470948137836e-01
   127    2.025975822540e-02
   128    1.593619405700e-02
   129   -4.047703361417e-02
   130    2.326747505706e-01
   131    8.997802596690e-03
   132    7.550826118261e-03
   133   -1.027805404582e-01
   134    8.826581189912e-03
   135   -2.253184668427e-02
   136   -1.379655179168e-02
   137    2.623379591685e-03
   138    4.050634746552e-03
   139    1.207262123622e-03
   140   -4.707316948062e-03
   141    6.662771442390e-03
   142   -1.510661380395e-04
   143   -2.833521930817e-04
   144    1.939539047584e-01
   145   -3.699157378529e-02
   146   -9.836842645092e-04
   147   -8.044908199165e-04
   148    2.840026515833e-01
   149   -5.557143115529e-02
   150   -1.418930395381e-03
   151   -1.053814753060e-02
   152    2.631220841225e-01
   153   -4.481113008653e-02
   154    3.123313129034e-03
   155   -1.466200654614e-01
   156    9.580447581699e-03
   157    2.806633237402e-02
   158    1.318620230524e-02
   159    1.382917777189e-03
   160   -4.793944459038e-03
   161    6.950018727496e-04
   162   -7.035885965322e-03
   163   -7.462658203694e-03
   164   -3.799054355029e-03
   165   -6.062348147817e-03
   166    2.268959934409e-02
   167    5.381306913671e-03
   168    1.049366514876e-03
   169    1.817597552171e-02
   170    3.106802678768e-02
   171    8.700477628907e-03
   172    2.307413920207e-03
   173   -2.125920952481e-02
   174    1.444572686391e-02
   175    6.520102632668e-03
   176   -1.194023004711e-03
   177    4.646071851124e-02
   178   -5.089116101375e-02
   179    4.088323812655e-02
   180   -1.495887833661e-04
   181    6.669307433671e-04
   182   -8.307889713741e-03
   183    5.155068588616e-03
   184    1.107329426636e-03
   185   -3.994018401525e-03
   186   -1.331876879600e-02
   187   -1.872261854224e-02
   188   -1.204025962320e-02
   189    2.052736057496e-03
   190    3.218076279874e-03
   191   -2.314025628105e-02
   192   -2.065663162651e-02
   193   -5.012066707760e-02
   194   -8.808618779699e-03
   195   -3.241271161809e-02
   196   -2.954570160894e-02
   197   -8.304099070093e-02
   198    4.175570983391e-02
   199   -5.578033740929e-02
   200    5.362852522165e-03
   201   -6.263557672299e-02
   202   -4.302249149536e-01
   203   -2.306464297671e-02
   204   -2.185424345616e-01
   205   -9.743548337868e-04
   206   -2.325749881551e-04
   207   -2.936179918029e-03
   208   -6.615085209083e-03
   209    7.487977860773e-03
   210    2.221912605780e-03
   211   -2.332945331425e-04
   212   -7.554559544578e-04
   213    2.044262848755e-03
   214    2.520085460282e-03
   215   -5.035258390378e-03
   216   -6.423652712181e-03
   217    1.346984336767e-02
   218    1.142679214389e-02
   219    5.897443709690e-04
   220   -2.979340747757e-04
   221    8.572087133561e-04
   222    4.865292656188e-03
   223   -2.456145412545e-03
   224    7.077508758234e-03
   225   -1.274660847672e-02
   226    6.345535609262e-03
   227   -1.853859785304e-02
   228   -5.490253451323e-03
   229    2.499795814096e-03
   230   -7.087484969664e-03
   231    1.288529760441e-02
   232   -5.177681276091e-03
   233    1.605015301395e-02
   234    2.205673469775e-02
   235   -1.061690292585e-02
   236    3.666411642135e-02
   237    2.784326214090e-02
   238    3.855319109909e-03
   239    3.249025319309e-02
   240   -4.773711624862e-04
   241   -2.116109696033e-03
   242    2.854331688617e-03
   243   -1.080781756769e-03
   244    2.644542924604e-03
   245    2.309870682355e-05
   246   -3.729785306685e-04
   247    2.516913750285e-04
   248    8.047919747694e-05
   249    4.935042980992e-04
   250   -1.059478738689e-01
   251    1.482212681091e-02
   252   -2.869640966089e-02
   253    3.172413107387e-03
   254    7.381138205924e-04
   255    4.653024985176e-03
   256   -5.041903252171e-03
   257    7.256086014450e-04
   258   -5.508590542687e-03
Sym=X
Ene= -0.356822
Spin=Alpha
Occup=1
     1   -1.153488863953e-03
     2   -1.824653168166e-03
     3    6.510886571281e-03
     4   -3.006022966059e-03
     5    6.080846593417e-02
     6    4.864118845508e-03
     7    9.531836969694e-03
     8   -4.694329241804e-03
     9    1.000215123928e-01
    10    1.525523373788e-02
    11    1.201313266400e-02
    12   -7.421851297446e-03
    13    9.250064288753e-02
    14   -1.012940513727e-01
    15   -3.942411583147e-02
    16   -2.455634167102e-02
    17    1.145870477237e-02
    18   -4.706671057201e-05
    19   -1.328678398045e-03
    20   -1.627822824321e-03
    21    1.832267916722e-03
    22   -2.039444114875e-04
    23    1.163524647528e-03
    24    1.927876673458e-03
    25   -1.038570981941e-02
    26   -8.854522075711e-03
    27    8.395592833565e-03
    28   -4.901422768849e-03
    29   -1.681091340452e-02
    30   -1.453753176878e-02
    31    1.350764447406e-02
    32   -4.936919919298e-02
    33   -1.106829768384e-02
    34   -5.640516598270e-03
    35    2.705422250624e-02
    36   -4.124566757193e-01
    37   -1.335246421705e-01
    38    1.040645984991e-01
    39    1.654027142172e-02
    40    1.064512217987e-03
    41   -9.718430610315e-03
    42    8.479697191646e-03
    43    1.530680737465e-03
    44    4.022208654125e-04
    45    6.193019105784e-03
    46    1.011905522741e-02
    47   -1.959279960670e-02
    48    2.145916527295e-03
    49   -7.893724139103e-02
    50   -3.033156289884e-02
    51   -3.607898457037e-02
    52   -8.098551510267e-04
    53   -1.293546481245e-01
    54   -9.925349796350e-02
    55   -1.868725907967e-02
    56    6.179553062071e-02
    57   -1.317345123040e-01
    58    2.228354373604e-01
    59    3.227595181707e-02
    60    3.254238413945e-01
    61   -3.044779631740e-02
    62    1.182196696196e-03
    63    2.841049906072e-03
    64    9.290752154578e-03
    65   -1.474430160309e-03
    66    1.652884051001e-03
    67    2.004610590548e-03
    68    3.178447787544e-03
    69   -1.209271404200e-02
    70    7.363547332239e-03
    71    2.894137758799e-02
    72   -9.232415512640e-03
    73   -1.809377930873e-02
    74    1.008359496896e-02
    75    4.780970017983e-02
    76   -1.366366608554e-02
    77   -1.653040576399e-02
    78    8.930481519988e-03
    79    4.785962289184e-02
    80   -3.535643636646e-02
    81    1.215418113304e-02
    82    2.699960392428e-03
    83    2.118131602876e-03
    84   -1.507295874643e-04
    85    2.586816953914e-04
    86    1.061120944583e-02
    87    1.639998854585e-03
    88    1.154220568424e-03
    89   -3.597191072688e-03
    90   -4.703965724305e-03
    91   -1.191237267012e-04
    92   -9.017691078152e-03
    93   -7.227983056931e-03
    94   -1.055271364066e-03
    95    8.970558787650e-03
    96    1.239261438382e-02
    97    2.820442810165e-03
    98    3.968263843455e-04
    99    6.550752552673e-04
   100    1.108411266167e-02
   101    5.445342128358e-04
   102   -8.018452716786e-03
   103   -1.505979404832e-03
   104    1.814729858902e-02
   105    3.269397054870e-04
   106   -1.472938233993e-02
   107   -1.463172840175e-02
   108   -1.727811344101e-02
   109    2.172286773415e-02
   110    1.188878725871e-02
   111   -5.864449799463e-02
   112   -3.566517214848e-02
   113   -4.299587870774e-02
   114    5.559217241684e-02
   115    7.174813946063e-03
   116    9.071719003470e-04
   117    9.908930116864e-03
   118   -5.542070924268e-03
   119   -1.631472722728e-02
   120    9.597910297938e-05
   121    2.227289847415e-04
   122    2.767817086976e-02
   123    4.942237963296e-02
   124    1.828044812999e-02
   125   -1.630314420263e-04
   126    4.279529944444e-02
   127    7.232410660246e-02
   128    2.634659873334e-02
   129    1.768911490663e-02
   130    3.555137368546e-02
   131    7.386242526644e-02
   132    2.890517026926e-02
   133    3.582105016013e-02
   134    7.481310690544e-03
   135    1.435113693053e-02
   136   -1.112132691431e-02
   137    4.998251029867e-05
   138    8.112454970179e-04
   139    1.218540575796e-03
   140   -3.756562197765e-03
   141   -4.449486669154e-04
   142    3.253108837687e-04
   143    5.108945520685e-04
   144   -1.149440065830e-01
   145    2.382161582053e-02
   146    7.967444237677e-02
   147   -1.559644538194e-03
   148   -1.708014134102e-01
   149    3.483660438630e-02
   150    1.177938137376e-01
   151   -9.109087514295e-03
   152   -1.534366430605e-01
   153    3.214794481541e-02
   154    1.126610939490e-01
   155    2.519731662926e-02
   156   -1.707756943936e-02
   157   -1.386038371819e-03
   158   -7.796456487821e-03
   159   -3.963489387452e-03
   160    7.521511594706e-04
   161   -4.375977190008e-03
   162    4.476773281056e-03
   163    4.908195636970e-03
   164    2.454827980649e-05
   165   -1.321192725409e-06
   166    1.171426361062e-03
   167   -1.420003424987e-02
   168   -4.387758482707e-02
   169    1.954004099817e-04
   170    9.368932163988e-04