[Molden Format]
[Atoms] (Angs)
  C      1    6      0.78808821      1.24068913      0.02492945
  C      2    6      2.17658059      1.20482783      0.01961732
  C      3    6      2.84604848     -0.01987894     -0.00618268
  C      4    6      0.06874473      0.04470619      0.01965705
  H      5    1      0.27342680      2.19328085      0.03465240
  H      6    1      2.76334949      2.11354885      0.03637404
  H      7    1     -1.01469187      0.05821664      0.02642497
  N      8    7      4.30685693      0.04595834     -0.03962592
  O      9    8      4.93785288     -0.87773037     -0.59362170
  O     10    8      4.84651823      1.05363205      0.47829467
  C     11    6      0.74008238     -1.17504363      0.01238440
  H     12    1      0.18852059     -2.10639187      0.02395406
  C     13    6      2.13307197     -1.21959994     -0.00494717
 Br     14   35      2.92645518     -2.95940256      0.03206369
[GTO]
1    0
S    6    1.000000
   4.56324000E+03    1.96665000E-03 
   6.82024000E+02    1.52306000E-02 
   1.54973000E+02    7.61269000E-02 
   4.44553000E+01    2.60801000E-01 
   1.30290000E+01    6.16462000E-01 
   1.82773000E+00    2.21006000E-01 
SP   3    1.000000
   2.09642000E+01    1.14660000E-01   4.02487000E-02 
   4.80331000E+00    9.19999000E-01   2.37594000E-01 
   1.45933000E+00   -3.03068000E-03   8.15854000E-01 
SP   1    1.000000
   4.83456000E-01    1.00000000E+00   1.00000000E+00 
SP   1    1.000000
   1.45585000E-01    1.00000000E+00   1.00000000E+00 
SP   1    1.000000
   4.38000000E-02    1.00000000E+00   1.00000000E+00 
D    1    1.000000
   6.26000000E-01    1.00000000E+00 

2    0
S    6    1.000000
   4.56324000E+03    1.96665000E-03 
   6.82024000E+02    1.52306000E-02 
   1.54973000E+02    7.61269000E-02 
   4.44553000E+01    2.60801000E-01 
   1.30290000E+01    6.16462000E-01 
   1.82773000E+00    2.21006000E-01 
SP   3    1.000000
   2.09642000E+01    1.14660000E-01   4.02487000E-02 
   4.80331000E+00    9.19999000E-01   2.37594000E-01 
   1.45933000E+00   -3.03068000E-03   8.15854000E-01 
SP   1    1.000000
   4.83456000E-01    1.00000000E+00   1.00000000E+00 
SP   1    1.000000
   1.45585000E-01    1.00000000E+00   1.00000000E+00 
SP   1    1.000000
   4.38000000E-02    1.00000000E+00   1.00000000E+00 
D    1    1.000000
   6.26000000E-01    1.00000000E+00 

3    0
S    6    1.000000
   4.56324000E+03    1.96665000E-03 
   6.82024000E+02    1.52306000E-02 
   1.54973000E+02    7.61269000E-02 
   4.44553000E+01    2.60801000E-01 
   1.30290000E+01    6.16462000E-01 
   1.82773000E+00    2.21006000E-01 
SP   3    1.000000
   2.09642000E+01    1.14660000E-01   4.02487000E-02 
   4.80331000E+00    9.19999000E-01   2.37594000E-01 
   1.45933000E+00   -3.03068000E-03   8.15854000E-01 
SP   1    1.000000
   4.83456000E-01    1.00000000E+00   1.00000000E+00 
SP   1    1.000000
   1.45585000E-01    1.00000000E+00   1.00000000E+00 
SP   1    1.000000
   4.38000000E-02    1.00000000E+00   1.00000000E+00 
D    1    1.000000
   6.26000000E-01    1.00000000E+00 

4    0
S    6    1.000000
   4.56324000E+03    1.96665000E-03 
   6.82024000E+02    1.52306000E-02 
   1.54973000E+02    7.61269000E-02 
   4.44553000E+01    2.60801000E-01 
   1.30290000E+01    6.16462000E-01 
   1.82773000E+00    2.21006000E-01 
SP   3    1.000000
   2.09642000E+01    1.14660000E-01   4.02487000E-02 
   4.80331000E+00    9.19999000E-01   2.37594000E-01 
   1.45933000E+00   -3.03068000E-03   8.15854000E-01 
SP   1    1.000000
   4.83456000E-01    1.00000000E+00   1.00000000E+00 
SP   1    1.000000
   1.45585000E-01    1.00000000E+00   1.00000000E+00 
SP   1    1.000000
   4.38000000E-02    1.00000000E+00   1.00000000E+00 
D    1    1.000000
   6.26000000E-01    1.00000000E+00 

5    0
S    3    1.000000
   3.38650000E+01    2.54938000E-02 
   5.09479000E+00    1.90373000E-01 
   1.15879000E+00    8.52161000E-01 
S    1    1.000000
   3.25840000E-01    1.00000000E+00 
S    1    1.000000
   1.02741000E-01    1.00000000E+00 

6    0
S    3    1.000000
   3.38650000E+01    2.54938000E-02 
   5.09479000E+00    1.90373000E-01 
   1.15879000E+00    8.52161000E-01 
S    1    1.000000
   3.25840000E-01    1.00000000E+00 
S    1    1.000000
   1.02741000E-01    1.00000000E+00 

7    0
S    3    1.000000
   3.38650000E+01    2.54938000E-02 
   5.09479000E+00    1.90373000E-01 
   1.15879000E+00    8.52161000E-01 
S    1    1.000000
   3.25840000E-01    1.00000000E+00 
S    1    1.000000
   1.02741000E-01    1.00000000E+00 

8    0
S    6    1.000000
   6.29348000E+03    1.96979000E-03 
   9.49044000E+02    1.49613000E-02 
   2.18776000E+02    7.35006000E-02 
   6.36916000E+01    2.48937000E-01 
   1.88282000E+01    6.02460000E-01 
   2.72023000E+00    2.56202000E-01 
SP   3    1.000000
   3.06331000E+01    1.11906000E-01   3.83119000E-02 
   7.02614000E+00    9.21666000E-01   2.37403000E-01 
   2.11205000E+00   -2.56919000E-03   8.17592000E-01 
SP   1    1.000000
   6.84009000E-01    1.00000000E+00   1.00000000E+00 
SP   1    1.000000
   2.00878000E-01    1.00000000E+00   1.00000000E+00 
SP   1    1.000000
   6.39000000E-02    1.00000000E+00   1.00000000E+00 
D    1    1.000000
   9.13000000E-01    1.00000000E+00 

9    0
S    6    1.000000
   8.58850000E+03    1.89515000E-03 
   1.29723000E+03    1.43859000E-02 
   2.99296000E+02    7.07320000E-02 
   8.73771000E+01    2.40001000E-01 
   2.56789000E+01    5.94797000E-01 
   3.74004000E+00    2.80802000E-01 
SP   3    1.000000
   4.21175000E+01    1.13889000E-01   3.65114000E-02 
   9.62837000E+00    9.20811000E-01   2.37153000E-01 
   2.85332000E+00   -3.27447000E-03   8.19702000E-01 
SP   1    1.000000
   9.05661000E-01    1.00000000E+00   1.00000000E+00 
SP   1    1.000000
   2.55611000E-01    1.00000000E+00   1.00000000E+00 
SP   1    1.000000
   8.45000000E-02    1.00000000E+00   1.00000000E+00 
D    1    1.000000
   1.29200000E+00    1.00000000E+00 

10    0
S    6    1.000000
   8.58850000E+03    1.89515000E-03 
   1.29723000E+03    1.43859000E-02 
   2.99296000E+02    7.07320000E-02 
   8.73771000E+01    2.40001000E-01 
   2.56789000E+01    5.94797000E-01 
   3.74004000E+00    2.80802000E-01 
SP   3    1.000000
   4.21175000E+01    1.13889000E-01   3.65114000E-02 
   9.62837000E+00    9.20811000E-01   2.37153000E-01 
   2.85332000E+00   -3.27447000E-03   8.19702000E-01 
SP   1    1.000000
   9.05661000E-01    1.00000000E+00   1.00000000E+00 
SP   1    1.000000
   2.55611000E-01    1.00000000E+00   1.00000000E+00 
SP   1    1.000000
   8.45000000E-02    1.00000000E+00   1.00000000E+00 
D    1    1.000000
   1.29200000E+00    1.00000000E+00 

11    0
S    6    1.000000
   4.56324000E+03    1.96665000E-03 
   6.82024000E+02    1.52306000E-02 
   1.54973000E+02    7.61269000E-02 
   4.44553000E+01    2.60801000E-01 
   1.30290000E+01    6.16462000E-01 
   1.82773000E+00    2.21006000E-01 
SP   3    1.000000
   2.09642000E+01    1.14660000E-01   4.02487000E-02 
   4.80331000E+00    9.19999000E-01   2.37594000E-01 
   1.45933000E+00   -3.03068000E-03   8.15854000E-01 
SP   1    1.000000
   4.83456000E-01    1.00000000E+00   1.00000000E+00 
SP   1    1.000000
   1.45585000E-01    1.00000000E+00   1.00000000E+00 
SP   1    1.000000
   4.38000000E-02    1.00000000E+00   1.00000000E+00 
D    1    1.000000
   6.26000000E-01    1.00000000E+00 

12    0
S    3    1.000000
   3.38650000E+01    2.54938000E-02 
   5.09479000E+00    1.90373000E-01 
   1.15879000E+00    8.52161000E-01 
S    1    1.000000
   3.25840000E-01    1.00000000E+00 
S    1    1.000000
   1.02741000E-01    1.00000000E+00 

13    0
S    6    1.000000
   4.56324000E+03    1.96665000E-03 
   6.82024000E+02    1.52306000E-02 
   1.54973000E+02    7.61269000E-02 
   4.44553000E+01    2.60801000E-01 
   1.30290000E+01    6.16462000E-01 
   1.82773000E+00    2.21006000E-01 
SP   3    1.000000
   2.09642000E+01    1.14660000E-01   4.02487000E-02 
   4.80331000E+00    9.19999000E-01   2.37594000E-01 
   1.45933000E+00   -3.03068000E-03   8.15854000E-01 
SP   1    1.000000
   4.83456000E-01    1.00000000E+00   1.00000000E+00 
SP   1    1.000000
   1.45585000E-01    1.00000000E+00   1.00000000E+00 
SP   1    1.000000
   4.38000000E-02    1.00000000E+00   1.00000000E+00 
D    1    1.000000
   6.26000000E-01    1.00000000E+00 

14    0
S    6    1.000000
   4.39700000E+05    8.13000000E-04 
   6.60300000E+04    6.28500000E-03 
   1.51400000E+04    3.19200000E-02 
   4.31700000E+03    1.28800000E-01 
   1.41400000E+03    3.94600000E-01 
   5.23900000E+02    5.41300000E-01 
S    3    1.000000
   5.23900000E+02    1.83100000E-01 
   2.07700000E+02    6.17600000E-01 
   8.65400000E+01    2.53800000E-01 
S    1    1.000000
   3.05200000E+01    1.00000000E+00 
S    1    1.000000
   1.29800000E+01    1.00000000E+00 
S    1    1.000000
   4.41200000E+00    1.00000000E+00 
S    1    1.000000
   1.86200000E+00    1.00000000E+00 
S    1    1.000000
   3.93200000E-01    1.00000000E+00 
S    1    1.000000
   1.40000000E-01    1.00000000E+00 
P    3    1.000000
   2.95700000E+03    2.22600000E-02 
   7.00300000E+02    1.80200000E-01 
   2.24600000E+02    8.62400000E-01 
P    3    1.000000
   8.25900000E+01    3.44000000E-01 
   3.31900000E+01    5.07100000E-01 
   1.42000000E+01    2.59000000E-01 
P    3    1.000000
   1.42000000E+01    7.96500000E-02 
   7.43800000E+00    3.73400000E-01 
   3.52600000E+00    6.04900000E-01 
P    1    1.000000
   1.59500000E+00    1.00000000E+00 
P    1    1.000000
   8.46200000E-01    1.00000000E+00 
P    1    1.000000
   3.18600000E-01    1.00000000E+00 
P    1    1.000000
   1.09600000E-01    1.00000000E+00 
D    4    1.000000
   1.34800000E+02    1.83100000E-02 
   3.63900000E+01    1.35000000E-01 
   1.21600000E+01    4.26100000E-01 
   4.34100000E+00    6.04300000E-01 
D    1    1.000000
   1.53500000E+00    1.00000000E+00 
SP   1    1.000000
   3.90000000E-02    1.00000000E+00   1.00000000E+00 
D    1    1.000000
   4.15000000E-01    1.00000000E+00 

[MO]
Sym=X
Ene= -0.311456
Spin=Alpha
Occup=1
     1   -2.923672057795e-03
     2   -4.619014229169e-03
     3    1.913626725466e-02
     4    1.832336878087e-03
     5    4.297180316104e-02
     6    1.153985577434e-02
     7    2.603087629603e-02
     8    1.324134170568e-03
     9    7.024409435876e-02
    10    6.536574241526e-02
    11    4.566690719119e-02
    12   -1.215576543811e-02
    13    5.141429168975e-02
    14    8.120431214617e-02
    15    2.336039825328e-01
    16    1.389341936923e-01
    17   -9.114923161318e-03
    18   -3.513723923021e-04
    19   -2.430164606814e-03
    20   -6.379994144266e-03
    21    3.297195113092e-03
    22   -8.213531983473e-04
    23    1.601241289326e-03
    24    2.655967083159e-03
    25   -2.308840402118e-02
    26   -1.634218625802e-02
    27    1.032398387007e-02
    28   -7.105676325631e-03
    29   -3.683413144982e-02
    30   -2.647347689685e-02
    31    1.724472370492e-02
    32   -7.475117167893e-02
    33    3.126793253699e-03
    34   -2.401725500539e-02
    35    1.620367002850e-03
    36    9.949469876057e-02
    37    2.933708698144e-01
    38   -2.000677447104e-01
    39    2.064679390961e-03
    40    3.378690755202e-04
    41   -5.151161086149e-03
    42    6.688816160360e-04
    43    4.778618136500e-03
    44   -4.159156263767e-03
    45    4.053701098520e-03
    46    6.270631653156e-03
    47    8.943229511828e-03
    48    1.543063201236e-02
    49   -7.501989329117e-03
    50   -1.429531821731e-02
    51    1.249399615593e-02
    52    1.715219047941e-02
    53   -1.594338818820e-02
    54   -1.012813484265e-01
    55    1.426245101664e-02
    56    7.732818910045e-02
    57   -2.057013233607e-04
    58   -3.054960190811e-01
    59    8.430742971718e-02
    60   -2.268120719652e-01
    61   -5.398720929864e-03
    62   -9.003033706725e-04
    63   -1.248690676544e-03
    64    1.021438985443e-03
    65    3.879988187406e-03
    66    1.512999334722e-03
    67    4.768101213202e-03
    68    7.564595835643e-03
    69   -2.240772929629e-02
    70    7.691307787903e-03
    71    6.494384212847e-02
    72   -2.039076598454e-02
    73   -3.324360585185e-02
    74    1.095705114740e-02
    75    1.054919510794e-01
    76   -6.156881661607e-02
    77   -5.829022837257e-02
    78    1.986911997721e-02
    79    8.590890134078e-02
    80    3.207350769374e-02
    81    1.993518447028e-02
    82    2.433528688866e-01
    83    1.952507622003e-02
    84   -3.359995884873e-05
    85    4.667093906239e-03
    86   -5.098522254358e-04
    87    4.770424088770e-03
    88    3.142188749442e-04
    89   -4.272105437751e-03
    90   -6.014089932031e-03
    91    2.007233651747e-03
    92   -2.261856895463e-02
    93   -2.837576170563e-02
    94   -1.411150167569e-03
    95    1.761540759648e-02
    96    2.214602424905e-02
    97    2.561937928891e-03
    98   -2.760174638214e-03
    99   -4.443655887785e-03
   100   -2.247474558065e-03
   101   -2.936452502535e-03
   102   -1.844238859114e-02
   103    1.283809734029e-02
   104   -3.315134570635e-03
   105   -5.191206354810e-03
   106   -2.942980508039e-02
   107    4.084419446875e-02
   108    1.704828580464e-03
   109    2.418370708752e-02
   110   -8.722007698062e-03
   111    4.367949550969e-02
   112   -2.061092823781e-02
   113   -9.671504646980e-02
   114   -1.327232926998e-02
   115   -8.600817965436e-03
   116   -9.246416709176e-03
   117   -8.954484072555e-03
   118    9.963166709656e-04
   119   -1.858801990793e-02
   120    5.614166321670e-03
   121    9.319995184488e-03
   122    8.883349408744e-02
   123    5.369768091719e-02
   124    7.976499127259e-02
   125   -2.950683202313e-02
   126    1.331317075283e-01
   127    7.924593830287e-02
   128    1.171856279794e-01
   129   -2.386614842896e-02
   130    1.247413999724e-01
   131    6.460529857657e-02
   132    1.106023771833e-01
   133   -8.449545780810e-02
   134    3.088100190924e-02
   135    1.496094215916e-02
   136   -7.079700330127e-04
   137    2.464207513910e-03
   138   -2.366306219547e-04
   139    4.453591069825e-03
   140   -6.282906515264e-03
   141    3.610983532178e-03
   142    1.606940161830e-03
   143    2.621158783667e-03
   144   -6.782525252873e-02
   145    7.987379829764e-02
   146   -7.044325238817e-03
   147   -9.587725139604e-03
   148   -1.015289630404e-01
   149    1.178059071940e-01
   150   -1.087270711611e-02
   151   -2.787708659755e-02
   152   -9.100978647537e-02
   153    1.145263285458e-01
   154   -6.842147051694e-03
   155    4.771524244164e-02
   156   -6.475082781723e-03
   157    2.206218679071e-03
   158   -9.169949177470e-03
   159    1.652039868567e-03
   160    2.875632697110e-03
   161   -4.450032132314e-04
   162    6.748291527363e-03
   163    9.945219238783e-04
   164   -5.542223679537e-03
   165   -8.917913925280e-03
   166    2.118105512470e-02
   167   -1.985478425727e-02
   168    4.373379365720e-02
   169    2.509160208461e-02
   170    2.905435088127e-02
   171   -3.373661780327e-02
   172    7.168463373047e-02
   173    1.188225994393e-01
   174    3.595167456105e-02
   175    8.343986002085e-03
   176    6.420561009195e-02
   177   -6.565859870061e-01
   178   -3.654724497889e-01
   179    1.563401546404e-01
   180   -9.463323736226e-03
   181    2.078820062171e-04
   182   -4.382957862061e-03
   183    7.469707963231e-03
   184    3.485119287635e-03
   185    1.891232461388e-03
   186    7.835837187811e-03
   187    7.274202680896e-03
   188    1.224997368892e-02
   189   -4.093162530882e-03
   190   -6.596000022248e-03
   191   -1.618359542686e-02
   192   -6.473006181277e-03
   193   -1.243986189842e-02
   194    1.882405580625e-02
   195   -2.504748168286e-02
   196   -1.075218100684e-02
   197   -2.128654940452e-02
   198    5.763794534657e-02
   199    6.445902724486e-02
   200    2.899451124538e-02
   201   -3.115603744626e-02
   202    6.620784738044e-01
   203   -5.102113695637e-01
   204   -9.890981183277e-02
   205    1.727484202862e-02
   206   -3.874948928504e-04
   207   -8.748351300748e-03
   208    7.715804576205e-03
   209    1.167989392753e-02
   210   -7.268090892323e-03
   211   -2.017031971154e-04
   212   -6.549960346126e-04
   213    1.791156601255e-03
   214    2.117584913280e-03
   215   -4.151668561363e-03
   216   -6.329170704771e-03
   217    1.781320936834e-02
   218   -8.106476824612e-03
   219    8.435322200482e-03
   220    3.189741552342e-03
   221   -6.053990711108e-03
   222    6.962074195489e-02
   223    2.631790615331e-02
   224   -4.997468599036e-02
   225   -1.818103650693e-01
   226   -6.865837991003e-02
   227    1.305111677654e-01
   228   -6.923498034548e-02
   229   -2.686923024819e-02
   230    4.876096443996e-02
   231    1.531968525788e-01
   232    5.952031762209e-02
   233   -1.073492202332e-01
   234    3.511283502619e-01
   235    1.291230422120e-01
   236   -2.554295200135e-01
   237    2.257143865024e-01
   238    7.927088225692e-02
   239   -1.501299463645e-01
   240   -2.707734235702e-04
   241   -2.302748510578e-03
   242    2.061125238375e-03
   243    2.381476202844e-03
   244    1.152993858622e-03
   245   -1.793414797089e-04
   246   -6.854237464474e-04
   247    1.253078802132e-04
   248    7.924587773232e-05
   249    5.581942756589e-04
   250    5.660241417305e-02
   251    1.799106089902e-02
   252    2.586317277888e-02
   253   -5.882641924481e-03
   254    1.706565765296e-03
   255    7.603379505037e-03
   256   -5.760885213806e-03
   257   -6.021304558767e-03
   258   -1.868350687208e-03
Sym=X
Ene= -0.345567
Spin=Alpha
Occup=1
     1    6.917648029158e-05
     2    4.238114893999e-05
     3    5.830750598208e-03
     4   -1.382856951321e-02
     5   -8.627349966721e-02
     6    1.831733520101e-03
     7    8.711606200450e-03
     8   -2.003423736276e-02
     9   -1.403332848117e-01
    10   -7.747495731907e-02
    11   -2.713262802391e-02
    12   -2.981281255960e-02
    13   -1.170530866061e-01
    14   -3.953184804881e-01
    15   -3.091486253068e-02
    16    2.078045666824e-02
    17   -1.682571187551e-02
    18    6.643389169499e-04
    19   -1.031549597003e-02
    20    1.195445243940e-03
    21    2.722509592885e-03
    22    5.312396755276e-03
    23   -1.070651120970e-03
    24   -1.852373317406e-03
    25   -5.350198673675e-03
    26    2.206314714975e-02
    27   -9.922561021885e-02
    28    6.114213329630e-03
    29   -3.111720377214e-03
    30    3.257589964428e-02
    31   -1.630449941325e-01
    32    9.196580409084e-03
    33   -9.752129072595e-02
    34    4.332758102160e-02
    35   -1.291415931680e-01
    36    1.399104745479e-01
    37   -1.256978372712e-01
    38    3.188914607517e-02
    39    7.209740121584e-03
    40    8.804663668904e-04
    41    7.465697238326e-03
    42    3.550040480530e-03
    43    9.319681703078e-04
    44    2.355147471845e-03
    45   -2.229818178578e-03
    46   -3.760955608220e-03
    47    3.184750885413e-02
    48   -3.801189451683e-03
    49   -4.093649106625e-02
    50    9.018810234353e-03
    51    5.098480490952e-02
    52   -6.922179779410e-03
    53   -6.734672636477e-02
    54    1.055811853864e-01
    55    1.238265409364e-01
    56    6.428293409984e-02
    57   -5.594076597380e-02
    58    9.167598093439e-01
    59    3.566400655210e-02
    60   -1.602777655007e-01
    61   -1.972503979462e-02
    62   -2.065381496207e-04
    63    2.884802361077e-03
    64   -1.418245728857e-02
    65    5.898859209784e-03
    66    2.127595373659e-03
    67   -2.506087404112e-04
    68   -3.852926731689e-04
    69   -6.341956171176e-03
    70    1.826500107699e-02
    71   -1.404295323438e-02
    72    6.885949842577e-04
    73   -9.696612504384e-03
    74    2.618508229752e-02
    75   -2.292685214189e-02
    76   -1.239225800835e-02
    77   -2.895205592108e-05
    78    1.755785878102e-02
    79   -1.130779546923e-02
    80   -1.482302339865e-02
    81    4.308468112156e-02
    82    9.669716042695e-02
    83    3.070476927373e-03
    84   -5.457776719423e-05
    85   -2.901271841222e-03
    86   -1.297510561320e-02
    87    2.684457436524e-03
    88    9.139383329189e-04
    89   -1.685216949608e-02
    90   -1.913869473278e-02
    91   -8.821148655096e-03
    92    9.177813037979e-03
    93    1.820369707243e-02
    94    5.475847450917e-03
    95    7.084194795566e-03
    96    1.444844117169e-02
    97    4.968263278059e-03
    98   -1.536318656619e-03
    99   -2.584889169147e-03
   100   -1.688499476218e-02
   101   -1.515305013610e-03
   102    1.946346821058e-03
   103    9.813438567576e-03
   104   -2.784242743530e-02
   105   -2.315446195690e-03
   106    2.425784099832e-03
   107   -2.334954902148e-02
   108    4.822822756485e-02
   109    9.912750673880e-04
   110    6.615483652188e-03
   111   -1.141631884847e-01
   112    4.056089624302e-02
   113    3.092914052868e-02
   114    3.202961183230e-02
   115    2.447217159066e-02
   116    1.359338023959e-03
   117    9.725349536941e-03
   118    3.028821331022e-02
   119   -1.200859409517e-03
   120    1.520825712345e-03
   121    2.495452796405e-03
   122    7.954968828951e-02
   123    9.798107775077e-02
   124   -1.062318292850e-01
   125   -8.521037258473e-03
   126    1.175189005737e-01
   127    1.451974950624e-01
   128   -1.573602458020e-01
   129   -1.803877340848e-02
   130    1.065332063722e-01
   131    1.353841234523e-01
   132   -1.545780652889e-01
   133    1.175767687117e-02
   134    6.940605601628e-03
   135    1.419899301177e-02
   136   -1.861083212235e-02
   137   -5.693885074904e-03
   138    7.008359017949e-03
   139   -2.831585091823e-03
   140   -7.567375606310e-03
   141   -4.071986294073e-04
   142    3.298992935613e-04
   143    4.828805867349e-04
   144    4.214692296467e-02
   145   -6.577445665119e-02
   146    1.460058526684e-01
   147   -1.651979831582e-03
   148    6.091524652673e-02
   149   -9.804274527975e-02
   150    2.160863860762e-01
   151   -1.720661919845e-02
   152    5.802491707727e-02
   153   -8.928637480851e-02
   154    2.106106576493e-01
   155   -3.172297492992e-02
   156   -2.959583832993e-03
   157    1.497135491980e-03
   158    1.552062186920e-02
   159   -6.892550531550e-03
   160   -6.365300948513e-03
   161   -6.183697561191e-03
   162   -5.173748633170e-03
   163    1.046209781277e-03
   164   -2.599347233242e-03
   165   -4.230643389296e-03
   166    1.996179512422e-02
   167   -1.339043653197e-02
   168    4.611095808968e-02
   169    1.362176011004e-02
   170    2.779218856274e-02
   171   -2.166906441699e-02
   172    7.534444655601e-02
   173   -1.387307471476e-02
   174   -5.722825631591e-03
   175   -6.440238397779e-03
   176    7.262534695789e-02
   177   -5.431114087248e-01
   178   -2.481684824676e-01
   179    1.096103547662e-01
   180    1.713212373537e-02
   181    5.874911981871e-04
   182    4.652796666046e-03
   183   -2.562164805647e-03
   184    1.305170247552e-03
   185    1.711446398335e-03
   186    3.207481242627e-03
   187    5.224932910594e-03
   188   -1.987067811579e-03
   189   -1.264858024518e-03
   190   -2.107505886817e-03
   191   -1.470959039547e-02
   192    5.512444395891e-04
   193    4.004222512118e-02
   194    6.492127171703e-03
   195   -1.958095264736e-02
   196    2.515823900324e-03
   197    6.572036551208e-02
   198    8.905114215168e-02
   199   -3.443743526043e-02
   200    3.310644337454e-02
   201    6.669077446359e-02
   202    8.342432203824e-02
   203   -3.855989433933e-01
   204   -2.691480110565e-01
   205    5.163548585798e-03
   206    6.218852246033e-04
   207   -6.740932855265e-03
   208   -5.223001855672e-03
   209    8.080753678737e-03
   210   -7.434229335031e-04
   211   -5.344462942347e-04
   212   -1.731518280387e-03
   213    4.694238417396e-03
   214    5.741806421594e-03
   215   -1.143127490226e-02
   216   -1.505932223597e-02
   217    3.313146558703e-02
   218    1.664534425207e-02
   219    3.810463766205e-03
   220    5.812363705012e-04
   221    4.326797624616e-04
   222    3.145050770559e-02
   223    4.806801231146e-03
   224    3.570157778969e-03
   225   -8.217327504494e-02
   226   -1.269951075366e-02
   227   -9.226431882453e-03
   228   -3.156977907156e-02
   229   -4.376994629187e-03
   230   -3.073095008970e-03
   231    7.037865388648e-02
   232    1.037188295032e-02
   233    5.893421610983e-03
   234    1.579136797904e-01
   235    2.738474582239e-02
   236    1.790687398923e-02
   237    1.099790670787e-01
   238    2.365485144075e-02
   239   -1.598691710065e-03
   240   -1.445334076974e-03
   241    1.689432133075e-03
   242   -4.251053891402e-03
   243    3.141226877613e-04
   244    1.815229285518e-03
   245   -3.302313619667e-04
   246    1.963569581456e-04
   247   -5.240493928111e-04
   248    3.567876320587e-04
   249    5.185473787949e-04
   250   -8.305297508557e-02
   251    2.461055780885e-02
   252   -1.795219091754e-02
   253   -2.007283319287e-03
   254    3.869833851436e-03
   255   -3.281333632613e-03
   256    8.621623118464e-03
   257   -3.611633154943e-03
   258   -3.741456206668e-03
Sym=X
Ene= -0.400747
Spin=Alpha
Occup=1
     1    9.571958442164e-04
     2    1.594287149739e-03
     3   -4.088935438557e-03
     4    2.160484889923e-03
     5   -8.327881091391e-03
     6   -5.688611622333e-03
     7   -4.576241869922e-03
     8    3.317103645015e-03
     9   -1.340039788948e-02
    10    4.215755060439e-02
    11    1.325736069444e-02
    12    8.091376103274e-03
    13   -1.203153037748e-02
    14    2.246168526165e-02
    15   -8.308627195019e-02
    16   -4.874346069531e-02
    17   -3.893474934966e-03
    18   -1.694373715400e-04
    19   -1.787556778973e-02
    20   -8.963552356099e-03
    21   -1.775408707563e-03
    22   -1.686411345772e-03
    23    1.389569834085e-03
    24    2.380717514373e-03
    25    2.004232054651e-03
    26   -5.285535631950e-03
    27   -1.085954202673e-01
    28   -7.962688829685e-03
    29   -1.397104293236e-03
    30   -6.826796989508e-03
    31   -1.777754193060e-01
    32   -5.061889918533e-02
    33    5.176291022577e-02
    34    2.257228551428e-03
    35   -1.466553569860e-01
    36   -3.748544391452e-01
    37   -1.347790802167e-01
    38    9.819695853436e-02
    39   -5.700836431470e-03
    40    8.001286863547e-04
    41   -5.514451587473e-03
    42    1.095396143947e-02
    43   -1.459919125551e-03
    44    2.369877117030e-03
    45    4.559920159187e-03
    46    7.651329327324e-03
    47   -4.162958168037e-02
    48   -9.210009128624e-03
    49   -1.173921438031e-01
    50   -2.363142865521e-02
    51   -6.895443960100e-02
    52   -1.570404947413e-02
    53   -1.928991188896e-01
    54   -9.730068233931e-02
    55   -1.102455046783e-01
    56    6.019298884397e-03
    57   -1.736449951677e-01
    58   -6.192335225253e-01
    59    6.932405905199e-02
    60    5.217347834981e-01
    61   -7.113927453057e-03
    62    1.098958294992e-03
    63    3.143267714225e-03
    64   -1.059983486946e-02
    65   -7.550534846614e-03
    66   -2.664828698588e-04
    67   -1.043629157812e-03
    68   -1.645175040557e-03
    69    8.440952407713e-03
    70   -1.057626150223e-02
    71    9.671867025673e-02
    72    4.403824556659e-03
    73    1.272368756342e-02
    74   -1.626383731343e-02
    75    1.579886827154e-01
    76    2.344056830110e-02
    77    1.595747688202e-02
    78   -1.660307565992e-02
    79    1.381927325897e-01
    80    1.582185895482e-01
    81    6.597911398467e-03
    82   -1.340871751393e-01
    83    1.287091172529e-02
    84   -1.934696862540e-04
    85    3.879723805749e-03
    86   -1.147406762365e-02
    87   -2.442449995993e-03
    88    1.224066877861e-04
    89    4.443900415331e-03
    90    4.999231790931e-03
    91    5.303062927555e-03
    92    1.687468308665e-04
    93   -1.795037420372e-03
    94   -3.297828715232e-03
    95   -7.297556050405e-03
    96   -1.175554019540e-02
    97   -3.735977332879e-03
    98    2.055788581347e-03
    99    3.384618826158e-03
   100    2.208663574794e-02
   101   -9.589587302218e-04
   102    9.264303917933e-03
   103   -1.109889559710e-02
   104    3.607737217607e-02
   105   -1.481784269839e-03
   106    1.400728747673e-02
   107   -3.666638145082e-03
   108   -4.028059651432e-02
   109   -3.139172406745e-03
   110    1.957722604607e-02
   111   -6.908834457814e-03
   112   -6.690103544813e-02
   113   -4.906486119651e-02
   114    4.100445590420e-02
   115   -4.269306599508e-03
   116    1.160084552302e-02
   117    6.577833251508e-03
   118   -2.171779939062e-02
   119   -1.028812001549e-02
   120   -2.605007046676e-03
   121   -4.300491883906e-03
   122   -3.627211323818e-02
   123   -3.511084800249e-02
   124    6.727554917562e-02
   125    1.524980837594e-02
   126   -5.202919008638e-02
   127   -5.241632726660e-02
   128    9.977523303162e-02
   129    2.507461112334e-02
   130   -4.983765588854e-02
   131   -4.223783538651e-02
   132    9.860579522101e-02
   133    5.390685716670e-02
   134   -5.752185014376e-03
   135    9.085941683947e-04
   136    4.900857632911e-04
   137    4.049069563905e-03
   138   -3.290510214848e-03
   139    2.782155146968e-03
   140    3.215636221642e-03
   141   -3.077833024876e-04
   142   -1.510573008545e-03
   143   -2.481792415734e-03
   144   -1.164202412902e-01
   145    2.085535329571e-02
   146    1.887298064771e-02
   147    9.088140427331e-03
   148   -1.724115364152e-01
   149    3.055136603870e-02
   150    2.812883955936e-02
   151    1.768064662629e-02
   152   -1.573165660299e-01
   153    2.872063313946e-02
   154    2.370182668511e-02
   155    3.460942569980e-02
   156   -1.064256333037e-02
   157   -8.300791092366e-03
   158   -1.583757112891e-02
   159   -1.977569738944e-03
   160    3.054196687069e-03
   161   -1.928413330304e-03
   162    3.552449158485e-03
   163    4.469394387782e-03
   164    5.995342483732e-03
   165    9.609585740891e-03
   166   -2.380357713589e-02
   167    9.164419566902e-03
   168    1.062085643052e-01
   169   -2.758034783018e-02
   170   -3.276662261317e-02