[Molden Format]
[Atoms] (Angs)
  C      1    6      0.78808821      1.24068913      0.02492945
  C      2    6      2.17658059      1.20482783      0.01961732
  C      3    6      2.84604848     -0.01987894     -0.00618268
  C      4    6      0.06874473      0.04470619      0.01965705
  H      5    1      0.27342680      2.19328085      0.03465240
  H      6    1      2.76334949      2.11354885      0.03637404
  H      7    1     -1.01469187      0.05821664      0.02642497
  N      8    7      4.30685693      0.04595834     -0.03962592
  O      9    8      4.93785288     -0.87773037     -0.59362170
  O     10    8      4.84651823      1.05363205      0.47829467
  C     11    6      0.74008238     -1.17504363      0.01238440
  H     12    1      0.18852059     -2.10639187      0.02395406
  C     13    6      2.13307197     -1.21959994     -0.00494717
 Br     14   35      2.92645518     -2.95940256      0.03206369
[GTO]
1    0
S    6    1.000000
   4.56324000E+03    1.96665000E-03 
   6.82024000E+02    1.52306000E-02 
   1.54973000E+02    7.61269000E-02 
   4.44553000E+01    2.60801000E-01 
   1.30290000E+01    6.16462000E-01 
   1.82773000E+00    2.21006000E-01 
SP   3    1.000000
   2.09642000E+01    1.14660000E-01   4.02487000E-02 
   4.80331000E+00    9.19999000E-01   2.37594000E-01 
   1.45933000E+00   -3.03068000E-03   8.15854000E-01 
SP   1    1.000000
   4.83456000E-01    1.00000000E+00   1.00000000E+00 
SP   1    1.000000
   1.45585000E-01    1.00000000E+00   1.00000000E+00 
SP   1    1.000000
   4.38000000E-02    1.00000000E+00   1.00000000E+00 
D    1    1.000000
   6.26000000E-01    1.00000000E+00 

2    0
S    6    1.000000
   4.56324000E+03    1.96665000E-03 
   6.82024000E+02    1.52306000E-02 
   1.54973000E+02    7.61269000E-02 
   4.44553000E+01    2.60801000E-01 
   1.30290000E+01    6.16462000E-01 
   1.82773000E+00    2.21006000E-01 
SP   3    1.000000
   2.09642000E+01    1.14660000E-01   4.02487000E-02 
   4.80331000E+00    9.19999000E-01   2.37594000E-01 
   1.45933000E+00   -3.03068000E-03   8.15854000E-01 
SP   1    1.000000
   4.83456000E-01    1.00000000E+00   1.00000000E+00 
SP   1    1.000000
   1.45585000E-01    1.00000000E+00   1.00000000E+00 
SP   1    1.000000
   4.38000000E-02    1.00000000E+00   1.00000000E+00 
D    1    1.000000
   6.26000000E-01    1.00000000E+00 

3    0
S    6    1.000000
   4.56324000E+03    1.96665000E-03 
   6.82024000E+02    1.52306000E-02 
   1.54973000E+02    7.61269000E-02 
   4.44553000E+01    2.60801000E-01 
   1.30290000E+01    6.16462000E-01 
   1.82773000E+00    2.21006000E-01 
SP   3    1.000000
   2.09642000E+01    1.14660000E-01   4.02487000E-02 
   4.80331000E+00    9.19999000E-01   2.37594000E-01 
   1.45933000E+00   -3.03068000E-03   8.15854000E-01 
SP   1    1.000000
   4.83456000E-01    1.00000000E+00   1.00000000E+00 
SP   1    1.000000
   1.45585000E-01    1.00000000E+00   1.00000000E+00 
SP   1    1.000000
   4.38000000E-02    1.00000000E+00   1.00000000E+00 
D    1    1.000000
   6.26000000E-01    1.00000000E+00 

4    0
S    6    1.000000
   4.56324000E+03    1.96665000E-03 
   6.82024000E+02    1.52306000E-02 
   1.54973000E+02    7.61269000E-02 
   4.44553000E+01    2.60801000E-01 
   1.30290000E+01    6.16462000E-01 
   1.82773000E+00    2.21006000E-01 
SP   3    1.000000
   2.09642000E+01    1.14660000E-01   4.02487000E-02 
   4.80331000E+00    9.19999000E-01   2.37594000E-01 
   1.45933000E+00   -3.03068000E-03   8.15854000E-01 
SP   1    1.000000
   4.83456000E-01    1.00000000E+00   1.00000000E+00 
SP   1    1.000000
   1.45585000E-01    1.00000000E+00   1.00000000E+00 
SP   1    1.000000
   4.38000000E-02    1.00000000E+00   1.00000000E+00 
D    1    1.000000
   6.26000000E-01    1.00000000E+00 

5    0
S    3    1.000000
   3.38650000E+01    2.54938000E-02 
   5.09479000E+00    1.90373000E-01 
   1.15879000E+00    8.52161000E-01 
S    1    1.000000
   3.25840000E-01    1.00000000E+00 
S    1    1.000000
   1.02741000E-01    1.00000000E+00 

6    0
S    3    1.000000
   3.38650000E+01    2.54938000E-02 
   5.09479000E+00    1.90373000E-01 
   1.15879000E+00    8.52161000E-01 
S    1    1.000000
   3.25840000E-01    1.00000000E+00 
S    1    1.000000
   1.02741000E-01    1.00000000E+00 

7    0
S    3    1.000000
   3.38650000E+01    2.54938000E-02 
   5.09479000E+00    1.90373000E-01 
   1.15879000E+00    8.52161000E-01 
S    1    1.000000
   3.25840000E-01    1.00000000E+00 
S    1    1.000000
   1.02741000E-01    1.00000000E+00 

8    0
S    6    1.000000
   6.29348000E+03    1.96979000E-03 
   9.49044000E+02    1.49613000E-02 
   2.18776000E+02    7.35006000E-02 
   6.36916000E+01    2.48937000E-01 
   1.88282000E+01    6.02460000E-01 
   2.72023000E+00    2.56202000E-01 
SP   3    1.000000
   3.06331000E+01    1.11906000E-01   3.83119000E-02 
   7.02614000E+00    9.21666000E-01   2.37403000E-01 
   2.11205000E+00   -2.56919000E-03   8.17592000E-01 
SP   1    1.000000
   6.84009000E-01    1.00000000E+00   1.00000000E+00 
SP   1    1.000000
   2.00878000E-01    1.00000000E+00   1.00000000E+00 
SP   1    1.000000
   6.39000000E-02    1.00000000E+00   1.00000000E+00 
D    1    1.000000
   9.13000000E-01    1.00000000E+00 

9    0
S    6    1.000000
   8.58850000E+03    1.89515000E-03 
   1.29723000E+03    1.43859000E-02 
   2.99296000E+02    7.07320000E-02 
   8.73771000E+01    2.40001000E-01 
   2.56789000E+01    5.94797000E-01 
   3.74004000E+00    2.80802000E-01 
SP   3    1.000000
   4.21175000E+01    1.13889000E-01   3.65114000E-02 
   9.62837000E+00    9.20811000E-01   2.37153000E-01 
   2.85332000E+00   -3.27447000E-03   8.19702000E-01 
SP   1    1.000000
   9.05661000E-01    1.00000000E+00   1.00000000E+00 
SP   1    1.000000
   2.55611000E-01    1.00000000E+00   1.00000000E+00 
SP   1    1.000000
   8.45000000E-02    1.00000000E+00   1.00000000E+00 
D    1    1.000000
   1.29200000E+00    1.00000000E+00 

10    0
S    6    1.000000
   8.58850000E+03    1.89515000E-03 
   1.29723000E+03    1.43859000E-02 
   2.99296000E+02    7.07320000E-02 
   8.73771000E+01    2.40001000E-01 
   2.56789000E+01    5.94797000E-01 
   3.74004000E+00    2.80802000E-01 
SP   3    1.000000
   4.21175000E+01    1.13889000E-01   3.65114000E-02 
   9.62837000E+00    9.20811000E-01   2.37153000E-01 
   2.85332000E+00   -3.27447000E-03   8.19702000E-01 
SP   1    1.000000
   9.05661000E-01    1.00000000E+00   1.00000000E+00 
SP   1    1.000000
   2.55611000E-01    1.00000000E+00   1.00000000E+00 
SP   1    1.000000
   8.45000000E-02    1.00000000E+00   1.00000000E+00 
D    1    1.000000
   1.29200000E+00    1.00000000E+00 

11    0
S    6    1.000000
   4.56324000E+03    1.96665000E-03 
   6.82024000E+02    1.52306000E-02 
   1.54973000E+02    7.61269000E-02 
   4.44553000E+01    2.60801000E-01 
   1.30290000E+01    6.16462000E-01 
   1.82773000E+00    2.21006000E-01 
SP   3    1.000000
   2.09642000E+01    1.14660000E-01   4.02487000E-02 
   4.80331000E+00    9.19999000E-01   2.37594000E-01 
   1.45933000E+00   -3.03068000E-03   8.15854000E-01 
SP   1    1.000000
   4.83456000E-01    1.00000000E+00   1.00000000E+00 
SP   1    1.000000
   1.45585000E-01    1.00000000E+00   1.00000000E+00 
SP   1    1.000000
   4.38000000E-02    1.00000000E+00   1.00000000E+00 
D    1    1.000000
   6.26000000E-01    1.00000000E+00 

12    0
S    3    1.000000
   3.38650000E+01    2.54938000E-02 
   5.09479000E+00    1.90373000E-01 
   1.15879000E+00    8.52161000E-01 
S    1    1.000000
   3.25840000E-01    1.00000000E+00 
S    1    1.000000
   1.02741000E-01    1.00000000E+00 

13    0
S    6    1.000000
   4.56324000E+03    1.96665000E-03 
   6.82024000E+02    1.52306000E-02 
   1.54973000E+02    7.61269000E-02 
   4.44553000E+01    2.60801000E-01 
   1.30290000E+01    6.16462000E-01 
   1.82773000E+00    2.21006000E-01 
SP   3    1.000000
   2.09642000E+01    1.14660000E-01   4.02487000E-02 
   4.80331000E+00    9.19999000E-01   2.37594000E-01 
   1.45933000E+00   -3.03068000E-03   8.15854000E-01 
SP   1    1.000000
   4.83456000E-01    1.00000000E+00   1.00000000E+00 
SP   1    1.000000
   1.45585000E-01    1.00000000E+00   1.00000000E+00 
SP   1    1.000000
   4.38000000E-02    1.00000000E+00   1.00000000E+00 
D    1    1.000000
   6.26000000E-01    1.00000000E+00 

14    0
S    6    1.000000
   4.39700000E+05    8.13000000E-04 
   6.60300000E+04    6.28500000E-03 
   1.51400000E+04    3.19200000E-02 
   4.31700000E+03    1.28800000E-01 
   1.41400000E+03    3.94600000E-01 
   5.23900000E+02    5.41300000E-01 
S    3    1.000000
   5.23900000E+02    1.83100000E-01 
   2.07700000E+02    6.17600000E-01 
   8.65400000E+01    2.53800000E-01 
S    1    1.000000
   3.05200000E+01    1.00000000E+00 
S    1    1.000000
   1.29800000E+01    1.00000000E+00 
S    1    1.000000
   4.41200000E+00    1.00000000E+00 
S    1    1.000000
   1.86200000E+00    1.00000000E+00 
S    1    1.000000
   3.93200000E-01    1.00000000E+00 
S    1    1.000000
   1.40000000E-01    1.00000000E+00 
P    3    1.000000
   2.95700000E+03    2.22600000E-02 
   7.00300000E+02    1.80200000E-01 
   2.24600000E+02    8.62400000E-01 
P    3    1.000000
   8.25900000E+01    3.44000000E-01 
   3.31900000E+01    5.07100000E-01 
   1.42000000E+01    2.59000000E-01 
P    3    1.000000
   1.42000000E+01    7.96500000E-02 
   7.43800000E+00    3.73400000E-01 
   3.52600000E+00    6.04900000E-01 
P    1    1.000000
   1.59500000E+00    1.00000000E+00 
P    1    1.000000
   8.46200000E-01    1.00000000E+00 
P    1    1.000000
   3.18600000E-01    1.00000000E+00 
P    1    1.000000
   1.09600000E-01    1.00000000E+00 
D    4    1.000000
   1.34800000E+02    1.83100000E-02 
   3.63900000E+01    1.35000000E-01 
   1.21600000E+01    4.26100000E-01 
   4.34100000E+00    6.04300000E-01 
D    1    1.000000
   1.53500000E+00    1.00000000E+00 
SP   1    1.000000
   3.90000000E-02    1.00000000E+00   1.00000000E+00 
D    1    1.000000
   4.15000000E-01    1.00000000E+00 

[MO]
Sym=X
Ene= -0.134570
Spin=Alpha
Occup=1
     1   -2.654801142972e-03
     2   -4.238825287906e-03
     3   -1.116654351776e-02
     4    1.723141763257e-03
     5    4.524895605463e-02
     6    1.109302564510e-02
     7   -1.702595407893e-02
     8    3.400019631496e-03
     9    7.406811939112e-02
    10    1.893751985035e-02
    11   -7.079100732166e-03
    12   -1.065568664767e-02
    13    6.176056954174e-02
    14   -1.534282025054e-01
    15    1.254820688087e-01
    16    1.012565315351e-01
    17   -1.327300758508e-02
    18   -2.715404796678e-04
    19    2.123423514298e-03
    20   -1.622753625193e-03
    21   -1.617264938770e-03
    22   -8.278308430683e-04
    23    3.413667432880e-03
    24    5.449236359665e-03
    25    7.445690100059e-03
    26   -3.527347082886e-03
    27    3.075721782432e-02
    28   -1.445356314982e-02
    29    9.875417869427e-03
    30   -5.233562557068e-03
    31    4.963743401520e-02
    32   -5.785656499704e-02
    33   -1.784830157239e-02
    34    6.391165219960e-03
    35    4.208767060110e-02
    36    1.832098827253e-01
    37    1.328514398750e-01
    38   -1.134941155243e-01
    39    2.135207936468e-02
    40    5.322478804564e-04
    41   -5.162259923881e-03
    42    2.396299068667e-03
    43    1.432436558390e-03
    44   -1.670721731070e-03
    45   -1.252426791847e-03
    46   -2.142186323726e-03
    47    9.787712010113e-03
    48    1.023875760453e-02
    49   -2.020895779360e-02
    50    5.918548195374e-03
    51    1.540871639331e-02
    52    1.029711549777e-02
    53   -3.679708587838e-02
    54    2.651472801679e-02
    55    4.704105511838e-02
    56    7.253234637326e-02
    57   -4.038029258531e-03
    58    4.031507352423e-01
    59    5.892946264567e-02
    60   -2.925318313098e-01
    61   -3.363788069890e-02
    62   -2.398494996450e-04
    63    3.167980184240e-03
    64    1.234244395830e-02
    65    9.965772385358e-04
    66    1.772380535836e-03
    67    3.023128149375e-03
    68    4.752807888167e-03
    69    4.148275525011e-03
    70    8.763572591571e-03
    71    2.028379977951e-02
    72   -1.216130967320e-02
    73    6.604675981332e-03
    74    1.231447525013e-02
    75    3.226270293737e-02
    76   -4.744221895672e-02
    77   -6.451502400068e-03
    78    1.472239894174e-02
    79    3.123630643556e-02
    80    5.066344361291e-02
    81    4.071652495115e-02
    82    1.908791179746e-01
    83    2.425470808773e-02
    84    4.320633001344e-04
    85    5.825062381339e-04
    86    7.660793986084e-03
    87   -2.196350250943e-03
    88   -2.004784479057e-04
    89    8.085540230900e-03
    90    1.169558126684e-02
    91    6.023137997646e-03
    92   -2.909755111403e-03
    93    1.173950498294e-04
    94    3.817546015525e-03
    95   -6.595693982924e-03
    96   -7.422150691125e-03
    97   -5.951453168482e-03
    98   -9.261399485945e-04
    99   -1.563087540168e-03
   100    1.387832379390e-03
   101   -8.884947367666e-03
   102   -2.724281184029e-03
   103    6.385279753894e-03
   104    1.310644731345e-03
   105   -1.504113301324e-02
   106   -4.548188220199e-03
   107   -8.009028002904e-03
   108    2.779677520706e-02
   109    1.321299692526e-02
   110    8.623517519550e-03
   111   -1.047109608297e-01
   112    1.886161732468e-03
   113   -4.079036701386e-02
   114    2.954607053377e-03
   115    7.963665159473e-03
   116   -6.604356716648e-03
   117    3.222779190888e-03
   118    1.310887303910e-02
   119   -1.480965264840e-02
   120    3.883175966221e-03
   121    6.453764516787e-03
   122    8.325980282492e-02
   123    8.919379235802e-02
   124   -2.324508527884e-03
   125   -2.034496445441e-02
   126    1.248024531505e-01
   127    1.317142339865e-01
   128   -3.679369507292e-03
   129   -1.687430389916e-02
   130    1.122869095871e-01
   131    1.189247379764e-01
   132   -8.462539721369e-03
   133   -2.042295048286e-02
   134    1.761040325480e-02
   135    2.125987986419e-02
   136   -4.766783642946e-03
   137   -1.281265244472e-03
   138    3.138635719386e-03
   139    2.205570938568e-03
   140   -7.518188114287e-03
   141    1.558230110684e-03
   142    1.788085503670e-03
   143    2.919747119515e-03
   144   -4.335838569211e-02
   145    1.916740489409e-02
   146    7.758677728888e-02
   147   -1.054889248060e-02
   148   -6.501829475657e-02
   149    2.795062658739e-02
   150    1.146879546231e-01
   151   -2.651157694187e-02
   152   -6.016485646895e-02
   153    2.776221613887e-02
   154    1.107219887147e-01
   155    4.223712523785e-02
   156   -8.726865387483e-03
   157   -5.292475115320e-04
   158    2.253978981090e-03
   159   -3.592096744825e-03
   160   -1.684395292577e-03
   161   -4.069333353515e-03
   162    2.178101708827e-03
   163    2.046136447398e-03
   164   -6.206925150242e-03
   165   -9.913878250807e-03
   166    6.183805058324e-03
   167   -1.113909942140e-02
   168   -3.498627414418e-02
   169    2.776326388209e-02
   170    8.281608531902e-03
   171   -2.012573483650e-02
   172   -5.724791758644e-02
   173    5.299240698946e-02
   174   -3.138687509067e-03
   175    7.767515167796e-03
   176   -3.063164366645e-02
   177   -6.257070898687e-01
   178   -3.225113411637e-01
   179    1.416462588620e-01
   180   -3.129048125020e-02
   181    1.903683489466e-04
   182   -1.038109352803e-02
   183    4.084776705269e-03
   184   -1.134526330425e-04
   185    2.332081600940e-03
   186    9.734061180552e-03
   187    1.257887744307e-02
   188    5.182636136420e-03
   189   -3.503704473879e-03
   190   -5.653824372458e-03
   191   -5.502830814743e-03
   192   -5.185446462436e-03
   193   -9.261714709909e-02
   194    1.623833661509e-02
   195   -7.117087129171e-03
   196   -8.274396088291e-03
   197   -1.507261489088e-01
   198    7.493107779706e-02
   199    1.797413255435e-02
   200    1.261243179134e-02
   201   -1.380452699509e-01
   202    2.092563993709e-01
   203   -5.075288200247e-01
   204   -2.296159684181e-01
   205    4.591679058215e-02
   206   -8.703085632043e-04
   207   -2.717764791652e-03
   208    1.087756727173e-02
   209    6.293219651231e-03
   210   -4.081236682593e-03
   211    2.009234048935e-05
   212    6.291725367219e-05
   213   -1.473052905195e-04
   214   -2.796664396650e-04
   215    6.081139777682e-04
   216   -5.586807107776e-04
   217    7.678512082382e-03
   218   -1.213699249350e-02
   219    4.623763552451e-03
   220    1.649969940620e-03
   221   -9.265433754993e-03
   222    3.816325116257e-02
   223    1.361629302052e-02
   224   -7.648150855453e-02
   225   -9.972190814697e-02
   226   -3.559422895728e-02
   227    1.995658468809e-01
   228   -3.818664135708e-02
   229   -1.400972421624e-02
   230    7.400931823631e-02
   231    8.498963063592e-02
   232    3.140519874519e-02
   233   -1.616716248731e-01
   234    1.923908497398e-01
   235    6.801156966788e-02
   236   -3.891527475377e-01
   237    1.318718027752e-01
   238    3.922222470520e-02
   239   -2.135387064232e-01
   240   -9.030667620566e-04
   241   -6.005551552341e-03
   242    9.509854234227e-03
   243    1.502933671045e-03
   244    2.466643605365e-03
   245   -3.527477572537e-04
   246   -1.233827964852e-03
   247    1.264538362909e-03
   248    1.174488402784e-04
   249    6.189423045753e-04
   250   -1.532313830138e-02
   251    2.242335324311e-02
   252    4.735322252050e-03
   253   -1.121730757162e-02
   254    2.778326013361e-03
   255    1.466505646285e-02
   256   -2.042129145920e-02
   257   -4.739549648106e-03
   258   -4.068170561729e-03
Sym=X
Ene= -0.301183
Spin=Alpha
Occup=1
     1    1.393981976244e-03
     2    2.206308178084e-03
     3    4.876821842182e-03
     4   -8.998082185571e-04
     5    6.776250056974e-02
     6   -5.537840209843e-03
     7    6.656753546953e-03
     8   -2.189442215169e-03
     9    1.089337497318e-01
    10   -1.766276347658e-02
    11    4.815437182179e-04
    12   -6.462994756122e-03
    13    9.739719314849e-02
    14    4.862490197819e-02
    15    4.226749960686e-02
    16    3.945451242387e-02
    17    1.899938609163e-02
    18    1.670746199912e-04
    19    1.989619777654e-03
    20   -4.566330533775e-03
    21    3.865068210092e-04
    22    1.948853687296e-03
    23   -1.965380690479e-03
    24   -3.247551243421e-03
    25    2.286111791055e-03
    26    1.174331538598e-02
    27    3.938914610035e-02
    28    9.664056949486e-03
    29    4.982912650265e-03
    30    1.871372403895e-02
    31    6.620361019030e-02
    32    3.308934463421e-02
    33   -1.225551959207e-02
    34    1.789649504070e-02
    35    4.209677140473e-02
    36    3.013029280505e-01
    37    1.307047844104e-01
    38   -9.180582401938e-02
    39   -2.118064050976e-02
    40   -8.613310556456e-04
    41   -1.060055550341e-02
    42    3.844608156976e-04
    43    2.646161568797e-04
    44   -2.388537386218e-03
    45   -1.171488562168e-02
    46   -1.937432271959e-02
    47    5.687103400328e-02
    48    7.767047436600e-03
    49   -1.225464839068e-02
    50    6.086312720312e-02
    51    9.944002625779e-02
    52    1.623582616657e-02
    53   -1.931284817909e-02
    54    1.617391392130e-01
    55    8.615455330275e-02
    56   -1.666923789056e-02
    57   -1.159356837240e-02
    58   -1.277454508111e-01
    59   -1.545670878010e-01
    60   -2.689944673082e-01
    61    1.008114085048e-02
    62   -2.751146590279e-03
    63   -2.193108369744e-03
    64    4.275769993637e-03
    65    8.137584335357e-03
    66   -1.488076470696e-03
    67   -2.132801783040e-03
    68   -3.384988120148e-03
    69    1.305036532341e-03
    70   -2.594603017498e-03
    71    4.801267406755e-02
    72    9.866760361988e-03
    73    1.850832058454e-03
    74   -3.091155916151e-03
    75    7.817197454391e-02
    76    1.414989981561e-02
    77   -4.312312037060e-03
    78   -8.196277023683e-03
    79    5.919171746451e-02
    80    8.584337211766e-02
    81   -1.004711607062e-02
    82   -1.469419310883e-05
    83   -5.599413961174e-04
    84    3.988274464596e-04
    85    3.944728811414e-03
    86    6.104591404644e-03
    87    2.422236752809e-03
    88   -1.162505589602e-03
    89   -4.858481005913e-03
    90   -6.306025295441e-03
    91   -3.368754422774e-04
    92    4.425040294859e-03
    93   -2.568404820795e-03
    94   -3.032276733722e-03
    95    2.686857950441e-03
    96    2.327653891939e-03
    97    1.574044375743e-03
    98   -1.821810365080e-03
    99   -2.921891473235e-03
   100   -3.771645930779e-02
   101    1.273784380853e-03
   102    1.151235626157e-02
   103    6.714879916250e-03
   104   -6.113463521784e-02
   105    4.567998099811e-03
   106    1.997793739877e-02
   107    3.927228949335e-02
   108    3.879260650780e-02
   109   -4.653756881968e-02
   110   -1.882935898716e-02
   111    1.986977683744e-01
   112    1.254958768829e-01
   113    6.864905560972e-02
   114   -1.211382231897e-02
   115   -2.026775484283e-02
   116    1.286276421118e-02
   117   -2.622877568306e-02
   118    1.872084945085e-02
   119    2.060955104931e-02
   120    1.208586028366e-03
   121    1.905060275009e-03
   122    3.861962355914e-02
   123   -9.487168532788e-02
   124    4.537993764922e-02
   125   -8.282214542895e-03
   126    5.432742067963e-02
   127   -1.394657220099e-01
   128    6.816996697657e-02
   129   -4.710172038554e-02
   130    5.825755810827e-02
   131   -1.417049299727e-01
   132    5.964054553285e-02
   133   -6.904159468350e-02
   134   -7.727562329703e-03
   135   -2.926004376156e-02
   136    5.565652678769e-03
   137    4.584300496720e-03
   138   -1.726931592350e-03
   139    7.158784880186e-04
   140    4.960698092193e-03
   141    4.932847689811e-03
   142   -1.025917213822e-03
   143   -1.649324925681e-03
   144    2.073673915493e-01
   145   -3.422067903583e-02
   146   -1.196632270034e-01
   147    4.402809336385e-03
   148    3.059437242350e-01
   149   -5.041151172136e-02
   150   -1.768474561653e-01
   151    1.950159854648e-02
   152    2.788172631197e-01
   153   -4.485527862008e-02
   154   -1.681561734517e-01
   155   -1.279978811344e-01
   156    2.304431322655e-02
   157    2.206964971958e-02
   158    5.982316066892e-03
   159    6.468713619786e-03
   160   -1.251700513880e-03
   161    6.564562434155e-03
   162   -7.373808136773e-03
   163   -9.154836993257e-03
   164   -1.912479134285e-03
   165   -2.998654734050e-03
   166    1.912656708657e-02
   167    1.003540102482e-02
   168    2.128737747632e-03
   169    8.369270462441e-03
   170    2.662772492047e-02
   171    1.721513792445e-02
   172    3.349429373437e-03
   173    7.705038838385e-04
   174    3.395448508895e-02
   175    1.064380463836e-02
   176    1.555044400265e-03
   177    3.971595616794e-01
   178    1.154234515067e-01
   179   -2.292322454192e-02
   180   -6.577584535486e-03
   181    2.520376007031e-04
   182   -6.044829183491e-03
   183    5.811122969830e-03
   184    8.612899492777e-04
   185   -3.925791208317e-03
   186   -1.558912901540e-02
   187   -2.149495566119e-02
   188   -6.536014537661e-03
   189    4.763857785077e-03
   190    7.649508157409e-03
   191   -2.407226747865e-02
   192   -1.393034967329e-02
   193   -3.561926526696e-02
   194   -2.148524570517e-02
   195   -3.708499355220e-02
   196   -1.889964252286e-02
   197   -5.965991833452e-02
   198   -6.123699094267e-02
   199   -3.518607653722e-02
   200   -1.942322115643e-02
   201   -5.413080650603e-02
   202   -6.957582863925e-01
   203    1.776524757341e-01
   204   -6.310302192375e-02
   205    3.565534040102e-04
   206   -3.354084066052e-04
   207   -3.378897994588e-03
   208    3.685155662166e-03
   209    3.171011457289e-03
   210    3.197469135163e-03
   211   -4.668703132348e-05
   212   -1.494621369665e-04
   213    3.867520455402e-04
   214    5.645613754364e-04
   215   -1.206702205707e-03
   216   -5.134372347233e-04
   217   -2.519316675762e-03
   218    1.025439044219e-02
   219   -1.667405064031e-03
   220   -1.291684412302e-03
   221   -3.044680711090e-03
   222   -1.376461572668e-02
   223   -1.066024009221e-02
   224   -2.513340902017e-02
   225    3.597357274480e-02
   226    2.781328906532e-02
   227    6.556513918206e-02
   228    1.349027940000e-02
   229    1.072952282261e-02
   230    2.408775793001e-02
   231   -2.995828972468e-02
   232   -2.369437807687e-02
   233   -5.237664497506e-02
   234   -7.040412493047e-02
   235   -5.315795114339e-02
   236   -1.282253208060e-01
   237   -4.429029104811e-02
   238   -2.305784970859e-02
   239   -6.797654386631e-02
   240   -3.340207975516e-06
   241   -1.668006476717e-03
   242    4.179868892498e-03
   243   -2.807031201910e-03
   244   -8.828980836673e-04
   245    2.874485835995e-04
   246   -3.035618937252e-04
   247    6.697014515326e-04
   248   -2.958392843087e-04
   249   -1.519320062452e-04
   250   -5.242154182031e-02
   251   -5.311623867095e-03
   252   -2.012618552460e-02
   253   -2.038961231040e-03
   254   -1.413652945257e-03
   255    4.197567021010e-03
   256   -9.411458383908e-03
   257    5.511712129002e-03
   258    1.564387377528e-03
Sym=X
Ene= -0.350529
Spin=Alpha
Occup=1
     1    1.422056305398e-03
     2    2.305174529459e-03
     3   -1.043614101140e-02
     4    1.449550224007e-03
     5    7.483223567117e-02
     6   -6.859179448095e-03
     7   -1.320439102146e-02
     8    2.889269101788e-03
     9    1.224552539986e-01
    10    1.415246421284e-02
    11   -2.537264415530e-03
    12    1.992440849879e-02
    13    9.874913228551e-02
    14    1.776477338865e-01
    15   -1.236845307130e-01
    16   -1.019431139713e-01
    17    4.560176457653e-03
    18   -1.852270946636e-04
    19    4.865413387303e-03
    20   -2.948483496255e-03
    21   -2.944538267547e-03
    22   -2.054785225152e-03
    23    2.017829779915e-03
    24    3.340495145606e-03
    25    8.200569011973e-03
    26   -3.707141202837e-03
    27    6.302570886123e-02
    28   -1.015841523309e-02
    29    9.362007632497e-03
    30   -4.683427146597e-03
    31    1.020029657230e-01
    32   -2.875500948355e-03
    33    5.579698052730e-02
    34   -4.764638711530e-03
    35    8.729635978656e-02
    36   -3.871329413447e-01
    37   -1.416061437909e-01
    38    1.448048881486e-01
    39    1.043982915942e-02
    40    7.303200708426e-05
    41   -7.119555992202e-03
    42    2.293466855441e-04
    43   -3.139850623438e-03
    44    3.558056980112e-03
    45    1.668404089769e-03
    46    3.212579917411e-03
    47   -4.922877824805e-02
    48   -2.276715227683e-02
    49    2.245454203694e-03
    50   -1.366156092119e-02
    51   -7.912913401928e-02
    52   -3.285179041839e-02
    53    3.505934746933e-03
    54   -1.166945171748e-02
    55   -1.234573783858e-01
    56   -8.427155368381e-02
    57    1.012207379205e-03
    58   -2.206198822304e-01
    59   -2.085873629525e-02
    60    3.866698616274e-01
    61    7.895235187975e-04
    62    2.064943644464e-03
    63   -1.572367060571e-04
    64    1.432802378074e-02
    65   -8.205868883069e-03
    66   -7.154044402863e-04
    67   -3.502428198138e-03
    68   -5.547494475353e-03
    69    1.451935139803e-02
    70   -1.389820085918e-02
    71    3.384672140390e-02
    72    1.444284226428e-02
    73    2.120987022233e-02
    74   -2.088641983723e-02
    75    5.513819871556e-02
    76    5.523522816917e-02
    77    4.139034475710e-02
    78   -2.162647424016e-02
    79    4.247526322914e-02
    80    2.352694857816e-02
    81   -2.526541694902e-02
    82   -2.006758543718e-01
    83    6.565416692827e-03
    84   -2.548330756370e-04
    85    3.022469578921e-03
    86    9.717975300155e-03
    87   -4.219630562952e-03
    88    5.839782385788e-04
    89    7.318786124396e-03
    90    8.148293608430e-03
    91    2.172477399381e-03
    92    6.189570594658e-03
    93    8.233714216741e-03
    94    1.445958543610e-03
    95   -1.188469541398e-02
    96   -1.711095135266e-02
    97   -2.775431030067e-03
    98    2.703943791899e-03
    99    4.355230718229e-03
   100    2.595522920598e-02
   101   -3.624635108642e-04
   102    7.261370477451e-03
   103   -1.166567717167e-02
   104    4.223082920740e-02
   105   -2.485640261631e-03
   106    1.158376492109e-02
   107   -3.314610667079e-02
   108   -4.364867990982e-02
   109    1.072531711292e-02
   110    1.492440573419e-02
   111   -8.877524924138e-02
   112   -5.896670278499e-02
   113   -1.147868707207e-02
   114   -1.059304858735e-02
   115    2.289284287828e-03
   116   -1.764863063906e-04
   117    1.347708038219e-02
   118   -2.304687951912e-02
   119   -2.771783588179e-03
   120   -5.318693662937e-03
   121   -8.772771188194e-03
   122   -8.420453406939e-02
   123   -2.320885017857e-02
   124   -4.825954577812e-04
   125    2.972944996396e-02
   126   -1.236742804577e-01
   127   -3.490523047647e-02
   128   -2.525739502974e-04
   129    5.162905603222e-02
   130   -1.194325187756e-01
   131   -2.104313956574e-02
   132    4.766900198709e-03
   133    7.289418639790e-02
   134   -1.699991174990e-02
   135   -4.435046515236e-03
   136    9.876556249665e-03
   137    1.437754620011e-04
   138   -1.974359367158e-03
   139   -7.887869166094e-06
   140    4.023871520742e-03
   141   -3.666274398269e-03
   142   -7.121319116763e-04
   143   -1.131278106213e-03
   144   -1.012087952521e-01
   145    1.078675710778e-02
   146    4.146280776092e-03
   147    4.254618342998e-03
   148   -1.481660259779e-01
   149    1.638699455385e-02
   150    6.257994862914e-03
   151    1.488680118145e-02
   152   -1.387967636399e-01
   153    9.806908103544e-03
   154    8.636667325376e-04
   155    7.221927348156e-02
   156   -1.024872178702e-02
   157   -1.571369636752e-02
   158   -4.368274291214e-03
   159   -1.647246122016e-03
   160    2.124532378288e-03
   161   -8.334044595648e-04
   162    3.134581208714e-03
   163    4.212245682381e-03
   164    9.759897585238e-03
   165    1.560473741641e-02
   166   -3.631125105982e-02
   167    1.625197408059e-02
   168   -2.380995977365e-02
   169   -4.469881367704e-02
   170   -4.988203466380e-02