[Molden Format]
[Atoms] (Angs)
  C      1    6      0.78808821      1.24068913      0.02492945
  C      2    6      2.17658059      1.20482783      0.01961732
  C      3    6      2.84604848     -0.01987894     -0.00618268
  C      4    6      0.06874473      0.04470619      0.01965705
  H      5    1      0.27342680      2.19328085      0.03465240
  H      6    1      2.76334949      2.11354885      0.03637404
  H      7    1     -1.01469187      0.05821664      0.02642497
  N      8    7      4.30685693      0.04595834     -0.03962592
  O      9    8      4.93785288     -0.87773037     -0.59362170
  O     10    8      4.84651823      1.05363205      0.47829467
  C     11    6      0.74008238     -1.17504363      0.01238440
  H     12    1      0.18852059     -2.10639187      0.02395406
  C     13    6      2.13307197     -1.21959994     -0.00494717
 Br     14   35      2.92645518     -2.95940256      0.03206369
[GTO]
1    0
S    6    1.000000
   4.56324000E+03    1.96665000E-03 
   6.82024000E+02    1.52306000E-02 
   1.54973000E+02    7.61269000E-02 
   4.44553000E+01    2.60801000E-01 
   1.30290000E+01    6.16462000E-01 
   1.82773000E+00    2.21006000E-01 
SP   3    1.000000
   2.09642000E+01    1.14660000E-01   4.02487000E-02 
   4.80331000E+00    9.19999000E-01   2.37594000E-01 
   1.45933000E+00   -3.03068000E-03   8.15854000E-01 
SP   1    1.000000
   4.83456000E-01    1.00000000E+00   1.00000000E+00 
SP   1    1.000000
   1.45585000E-01    1.00000000E+00   1.00000000E+00 
SP   1    1.000000
   4.38000000E-02    1.00000000E+00   1.00000000E+00 
D    1    1.000000
   6.26000000E-01    1.00000000E+00 

2    0
S    6    1.000000
   4.56324000E+03    1.96665000E-03 
   6.82024000E+02    1.52306000E-02 
   1.54973000E+02    7.61269000E-02 
   4.44553000E+01    2.60801000E-01 
   1.30290000E+01    6.16462000E-01 
   1.82773000E+00    2.21006000E-01 
SP   3    1.000000
   2.09642000E+01    1.14660000E-01   4.02487000E-02 
   4.80331000E+00    9.19999000E-01   2.37594000E-01 
   1.45933000E+00   -3.03068000E-03   8.15854000E-01 
SP   1    1.000000
   4.83456000E-01    1.00000000E+00   1.00000000E+00 
SP   1    1.000000
   1.45585000E-01    1.00000000E+00   1.00000000E+00 
SP   1    1.000000
   4.38000000E-02    1.00000000E+00   1.00000000E+00 
D    1    1.000000
   6.26000000E-01    1.00000000E+00 

3    0
S    6    1.000000
   4.56324000E+03    1.96665000E-03 
   6.82024000E+02    1.52306000E-02 
   1.54973000E+02    7.61269000E-02 
   4.44553000E+01    2.60801000E-01 
   1.30290000E+01    6.16462000E-01 
   1.82773000E+00    2.21006000E-01 
SP   3    1.000000
   2.09642000E+01    1.14660000E-01   4.02487000E-02 
   4.80331000E+00    9.19999000E-01   2.37594000E-01 
   1.45933000E+00   -3.03068000E-03   8.15854000E-01 
SP   1    1.000000
   4.83456000E-01    1.00000000E+00   1.00000000E+00 
SP   1    1.000000
   1.45585000E-01    1.00000000E+00   1.00000000E+00 
SP   1    1.000000
   4.38000000E-02    1.00000000E+00   1.00000000E+00 
D    1    1.000000
   6.26000000E-01    1.00000000E+00 

4    0
S    6    1.000000
   4.56324000E+03    1.96665000E-03 
   6.82024000E+02    1.52306000E-02 
   1.54973000E+02    7.61269000E-02 
   4.44553000E+01    2.60801000E-01 
   1.30290000E+01    6.16462000E-01 
   1.82773000E+00    2.21006000E-01 
SP   3    1.000000
   2.09642000E+01    1.14660000E-01   4.02487000E-02 
   4.80331000E+00    9.19999000E-01   2.37594000E-01 
   1.45933000E+00   -3.03068000E-03   8.15854000E-01 
SP   1    1.000000
   4.83456000E-01    1.00000000E+00   1.00000000E+00 
SP   1    1.000000
   1.45585000E-01    1.00000000E+00   1.00000000E+00 
SP   1    1.000000
   4.38000000E-02    1.00000000E+00   1.00000000E+00 
D    1    1.000000
   6.26000000E-01    1.00000000E+00 

5    0
S    3    1.000000
   3.38650000E+01    2.54938000E-02 
   5.09479000E+00    1.90373000E-01 
   1.15879000E+00    8.52161000E-01 
S    1    1.000000
   3.25840000E-01    1.00000000E+00 
S    1    1.000000
   1.02741000E-01    1.00000000E+00 

6    0
S    3    1.000000
   3.38650000E+01    2.54938000E-02 
   5.09479000E+00    1.90373000E-01 
   1.15879000E+00    8.52161000E-01 
S    1    1.000000
   3.25840000E-01    1.00000000E+00 
S    1    1.000000
   1.02741000E-01    1.00000000E+00 

7    0
S    3    1.000000
   3.38650000E+01    2.54938000E-02 
   5.09479000E+00    1.90373000E-01 
   1.15879000E+00    8.52161000E-01 
S    1    1.000000
   3.25840000E-01    1.00000000E+00 
S    1    1.000000
   1.02741000E-01    1.00000000E+00 

8    0
S    6    1.000000
   6.29348000E+03    1.96979000E-03 
   9.49044000E+02    1.49613000E-02 
   2.18776000E+02    7.35006000E-02 
   6.36916000E+01    2.48937000E-01 
   1.88282000E+01    6.02460000E-01 
   2.72023000E+00    2.56202000E-01 
SP   3    1.000000
   3.06331000E+01    1.11906000E-01   3.83119000E-02 
   7.02614000E+00    9.21666000E-01   2.37403000E-01 
   2.11205000E+00   -2.56919000E-03   8.17592000E-01 
SP   1    1.000000
   6.84009000E-01    1.00000000E+00   1.00000000E+00 
SP   1    1.000000
   2.00878000E-01    1.00000000E+00   1.00000000E+00 
SP   1    1.000000
   6.39000000E-02    1.00000000E+00   1.00000000E+00 
D    1    1.000000
   9.13000000E-01    1.00000000E+00 

9    0
S    6    1.000000
   8.58850000E+03    1.89515000E-03 
   1.29723000E+03    1.43859000E-02 
   2.99296000E+02    7.07320000E-02 
   8.73771000E+01    2.40001000E-01 
   2.56789000E+01    5.94797000E-01 
   3.74004000E+00    2.80802000E-01 
SP   3    1.000000
   4.21175000E+01    1.13889000E-01   3.65114000E-02 
   9.62837000E+00    9.20811000E-01   2.37153000E-01 
   2.85332000E+00   -3.27447000E-03   8.19702000E-01 
SP   1    1.000000
   9.05661000E-01    1.00000000E+00   1.00000000E+00 
SP   1    1.000000
   2.55611000E-01    1.00000000E+00   1.00000000E+00 
SP   1    1.000000
   8.45000000E-02    1.00000000E+00   1.00000000E+00 
D    1    1.000000
   1.29200000E+00    1.00000000E+00 

10    0
S    6    1.000000
   8.58850000E+03    1.89515000E-03 
   1.29723000E+03    1.43859000E-02 
   2.99296000E+02    7.07320000E-02 
   8.73771000E+01    2.40001000E-01 
   2.56789000E+01    5.94797000E-01 
   3.74004000E+00    2.80802000E-01 
SP   3    1.000000
   4.21175000E+01    1.13889000E-01   3.65114000E-02 
   9.62837000E+00    9.20811000E-01   2.37153000E-01 
   2.85332000E+00   -3.27447000E-03   8.19702000E-01 
SP   1    1.000000
   9.05661000E-01    1.00000000E+00   1.00000000E+00 
SP   1    1.000000
   2.55611000E-01    1.00000000E+00   1.00000000E+00 
SP   1    1.000000
   8.45000000E-02    1.00000000E+00   1.00000000E+00 
D    1    1.000000
   1.29200000E+00    1.00000000E+00 

11    0
S    6    1.000000
   4.56324000E+03    1.96665000E-03 
   6.82024000E+02    1.52306000E-02 
   1.54973000E+02    7.61269000E-02 
   4.44553000E+01    2.60801000E-01 
   1.30290000E+01    6.16462000E-01 
   1.82773000E+00    2.21006000E-01 
SP   3    1.000000
   2.09642000E+01    1.14660000E-01   4.02487000E-02 
   4.80331000E+00    9.19999000E-01   2.37594000E-01 
   1.45933000E+00   -3.03068000E-03   8.15854000E-01 
SP   1    1.000000
   4.83456000E-01    1.00000000E+00   1.00000000E+00 
SP   1    1.000000
   1.45585000E-01    1.00000000E+00   1.00000000E+00 
SP   1    1.000000
   4.38000000E-02    1.00000000E+00   1.00000000E+00 
D    1    1.000000
   6.26000000E-01    1.00000000E+00 

12    0
S    3    1.000000
   3.38650000E+01    2.54938000E-02 
   5.09479000E+00    1.90373000E-01 
   1.15879000E+00    8.52161000E-01 
S    1    1.000000
   3.25840000E-01    1.00000000E+00 
S    1    1.000000
   1.02741000E-01    1.00000000E+00 

13    0
S    6    1.000000
   4.56324000E+03    1.96665000E-03 
   6.82024000E+02    1.52306000E-02 
   1.54973000E+02    7.61269000E-02 
   4.44553000E+01    2.60801000E-01 
   1.30290000E+01    6.16462000E-01 
   1.82773000E+00    2.21006000E-01 
SP   3    1.000000
   2.09642000E+01    1.14660000E-01   4.02487000E-02 
   4.80331000E+00    9.19999000E-01   2.37594000E-01 
   1.45933000E+00   -3.03068000E-03   8.15854000E-01 
SP   1    1.000000
   4.83456000E-01    1.00000000E+00   1.00000000E+00 
SP   1    1.000000
   1.45585000E-01    1.00000000E+00   1.00000000E+00 
SP   1    1.000000
   4.38000000E-02    1.00000000E+00   1.00000000E+00 
D    1    1.000000
   6.26000000E-01    1.00000000E+00 

14    0
S    6    1.000000
   4.39700000E+05    8.13000000E-04 
   6.60300000E+04    6.28500000E-03 
   1.51400000E+04    3.19200000E-02 
   4.31700000E+03    1.28800000E-01 
   1.41400000E+03    3.94600000E-01 
   5.23900000E+02    5.41300000E-01 
S    3    1.000000
   5.23900000E+02    1.83100000E-01 
   2.07700000E+02    6.17600000E-01 
   8.65400000E+01    2.53800000E-01 
S    1    1.000000
   3.05200000E+01    1.00000000E+00 
S    1    1.000000
   1.29800000E+01    1.00000000E+00 
S    1    1.000000
   4.41200000E+00    1.00000000E+00 
S    1    1.000000
   1.86200000E+00    1.00000000E+00 
S    1    1.000000
   3.93200000E-01    1.00000000E+00 
S    1    1.000000
   1.40000000E-01    1.00000000E+00 
P    3    1.000000
   2.95700000E+03    2.22600000E-02 
   7.00300000E+02    1.80200000E-01 
   2.24600000E+02    8.62400000E-01 
P    3    1.000000
   8.25900000E+01    3.44000000E-01 
   3.31900000E+01    5.07100000E-01 
   1.42000000E+01    2.59000000E-01 
P    3    1.000000
   1.42000000E+01    7.96500000E-02 
   7.43800000E+00    3.73400000E-01 
   3.52600000E+00    6.04900000E-01 
P    1    1.000000
   1.59500000E+00    1.00000000E+00 
P    1    1.000000
   8.46200000E-01    1.00000000E+00 
P    1    1.000000
   3.18600000E-01    1.00000000E+00 
P    1    1.000000
   1.09600000E-01    1.00000000E+00 
D    4    1.000000
   1.34800000E+02    1.83100000E-02 
   3.63900000E+01    1.35000000E-01 
   1.21600000E+01    4.26100000E-01 
   4.34100000E+00    6.04300000E-01 
D    1    1.000000
   1.53500000E+00    1.00000000E+00 
SP   1    1.000000
   3.90000000E-02    1.00000000E+00   1.00000000E+00 
D    1    1.000000
   4.15000000E-01    1.00000000E+00 

[MO]
Sym=X
Ene= -0.118101
Spin=Alpha
Occup=1
     1    1.328378755426e-03
     2    2.058559540491e-03
     3    6.181934075174e-02
     4   -6.929611260907e-05
     5   -2.970805616899e-02
     6   -2.999808983330e-03
     7    8.883988089547e-02
     8   -2.121302035915e-03
     9   -4.820015344166e-02
    10   -8.859279956082e-02
    11    2.521784635490e-02
    12   -2.346565170239e-02
    13   -4.026566884766e-02
    14   -2.068881308175e-01
    15    5.175764937784e-02
    16    4.172366374157e-02
    17   -9.761067469684e-03
    18    7.918283608193e-04
    19   -1.331184964601e-04
    20    2.246110315129e-03
    21    1.544776564734e-02
    22    4.632114385364e-03
    23   -1.115963674447e-02
    24   -1.785951764481e-02
    25   -5.591717790820e-02
    26   -6.929274743903e-03
    27   -1.423928486775e-02
    28    5.297822243147e-02
    29   -7.521593964421e-02
    30   -1.340935703218e-02
    31   -2.393938647079e-02
    32    3.247897271886e-02
    33   -1.479101734136e-01
    34    3.706957967876e-03
    35   -1.579409658195e-02
    36    2.687308124927e-01
    37    2.456879852366e-02
    38   -4.759978605140e-02
    39    1.189762623084e-02
    40    1.021083454464e-03
    41    3.771047791107e-03
    42   -7.392626353005e-04
    43    5.774855221302e-03
    44   -4.675179208441e-03
    45    1.427624863396e-03
    46    2.106213030762e-03
    47    4.483048164506e-02
    48    2.238036243313e-02
    49    6.223532286938e-03
    50   -6.451806670362e-03
    51    7.096943609051e-02
    52    3.279972173543e-02
    53    1.011937010323e-02
    54    8.651417134311e-02
    55    1.366769607761e-01
    56    7.465929814290e-02
    57    1.330075591156e-02
    58    9.439123064144e-01
    59   -7.956143059892e-03
    60   -4.211613553490e-01
    61   -2.331524797666e-02
    62   -3.018846462676e-04
    63    9.372457914880e-05
    64   -2.628400727081e-03
    65    1.639419184254e-02
    66   -3.122371154027e-03
    67    6.026738255943e-03
    68    9.329414701431e-03
    69   -8.841064125719e-02
    70    2.386534193140e-02
    71   -2.529481936317e-02
    72   -2.797762954248e-02
    73   -1.338907903769e-01
    74    3.558018238255e-02
    75   -4.146218129739e-02
    76   -9.093055895204e-03
    77   -9.620169283279e-02
    78    2.326851544250e-02
    79   -3.226173335481e-02
    80   -1.691710057439e-01
    81    7.952761035593e-03
    82    1.638436188247e-01
    83    1.875107960855e-03
    84   -7.779804184379e-04
    85   -2.112218411319e-03
    86   -2.104442841043e-03
    87    1.938690329150e-02
    88    2.369449893950e-03
    89   -3.296231397345e-02
    90   -4.135787331361e-02
    91   -1.862269669381e-02
    92   -2.721514901535e-02
    93   -3.052468143462e-02
    94   -1.121050188906e-02
    95    7.626755976981e-02
    96    1.066222349538e-01
    97    3.578087977637e-02
    98   -3.569848056679e-03
    99   -5.917862083592e-03
   100   -3.753925292323e-02
   101   -2.179311088097e-02
   102   -8.086176943100e-03
   103    2.046844690389e-02
   104   -5.926824687922e-02
   105   -3.372831089434e-02
   106   -1.310033929204e-02
   107   -5.914493715745e-03
   108    2.802357258296e-02
   109   -2.583094890957e-02
   110   -1.026140633211e-02
   111   -8.042906343660e-02
   112    4.174274852292e-02
   113    5.420936853926e-02
   114    1.864008323761e-02
   115    2.090965837775e-02
   116   -2.392850594045e-03
   117    5.253837653289e-03
   118    2.967543030630e-02
   119    8.130202202139e-04
   120    5.159292650754e-03
   121    8.457861094459e-03
   122    5.597789178274e-02
   123    8.550381354891e-02
   124   -9.592072817414e-02
   125   -2.732654809566e-02
   126    8.243262900471e-02
   127    1.263209885137e-01
   128   -1.423918931102e-01
   129   -4.835620852477e-02
   130    8.217238474166e-02
   131    1.126502437330e-01
   132   -1.431699323326e-01
   133    9.346576693481e-04
   134    9.615354170092e-03
   135    1.571278516336e-02
   136   -1.291459408200e-02
   137   -6.032424237427e-03
   138    5.145260721690e-03
   139   -2.932299526151e-03
   140   -5.286231172758e-03
   141   -1.400085708325e-03
   142   -4.990770765974e-03
   143   -8.231409456932e-03
   144    8.491068906762e-02
   145   -3.985802950596e-02
   146    1.181478382626e-01
   147    2.366334760756e-02
   148    1.243556208797e-01
   149   -5.986411798952e-02
   150    1.746209601064e-01
   151    2.772248564854e-02
   152    1.097901172148e-01
   153   -6.647317497605e-02
   154    1.632759094072e-01
   155   -3.191169384826e-02
   156    4.656946979317e-03
   157    3.983064953853e-03
   158    1.745247463741e-02
   159   -4.121562603599e-03
   160   -6.850690357662e-03
   161   -5.721185464196e-03
   162   -4.548066988513e-03
   163   -1.706939249008e-03
   164    1.609089175580e-03
   165    2.353991776696e-03
   166    6.591103089820e-02
   167   -4.683738442614e-02
   168   -8.597246189546e-03
   169   -3.649340493436e-03
   170    9.218730875589e-02
   171   -7.066651627951e-02
   172   -1.380701033045e-02
   173   -5.851754779454e-03
   174    4.415750379027e-02
   175   -1.843174146546e-02
   176   -8.230912887263e-03
   177   -4.061498244009e-01
   178   -2.986936924061e-01
   179    1.828400012164e-01
   180    2.305475193748e-03
   181    7.234642225666e-04
   182    2.142809115107e-03
   183   -2.487599164941e-03
   184    1.216311182752e-02
   185   -2.379889568392e-03
   186   -3.571391389101e-03
   187   -6.829935982606e-03
   188   -6.224383566918e-03
   189   -4.177616544658e-03
   190   -6.755288590833e-03
   191   -6.268206059994e-02
   192   -2.206499962200e-02
   193    8.961809265062e-03
   194    2.060324520029e-02
   195   -8.821868903931e-02
   196   -2.905721284912e-02
   197    1.488825430119e-02
   198    8.236777403439e-02
   199   -6.654005520753e-02
   200    1.325167222784e-02
   201    1.509923330632e-02
   202   -2.673918121665e-01
   203   -4.685799685550e-01
   204   -3.574998295750e-01
   205    1.483065479776e-02
   206    5.495037800280e-04
   207    1.393121627369e-03
   208    1.281710482908e-03
   209    1.346504525156e-02
   210   -1.306582626621e-03
   211   -1.938207856458e-04
   212   -6.291884588938e-04
   213    1.718607777688e-03
   214    2.064801730939e-03
   215   -4.125420371715e-03
   216   -5.932477643679e-03
   217    1.570806216654e-02
   218    5.608628703940e-03
   219    6.062292289168e-03
   220    1.326510407804e-03
   221   -6.237573650687e-04
   222    5.004076262242e-02
   223    1.095698149390e-02
   224   -5.147129759964e-03
   225   -1.307846042125e-01
   226   -2.874694998554e-02
   227    1.345584528763e-02
   228   -4.989393423988e-02
   229   -1.041580875110e-02
   230    5.319716640707e-03
   231    1.111461696629e-01
   232    2.358445372467e-02
   233   -1.203204120643e-02
   234    2.536054267476e-01
   235    5.812861516779e-02
   236   -2.562796864463e-02
   237    1.754247373381e-01
   238    4.483138614718e-02
   239   -2.017314497068e-02
   240   -1.224436014563e-03
   241   -3.590028341429e-04
   242   -8.603347747471e-04
   243   -1.216017014369e-03
   244    3.205955973624e-03
   245   -2.604228808373e-04
   246   -1.498629508669e-04
   247   -2.597752999714e-05
   248    2.752607134081e-04
   249    7.323875178759e-04
   250   -7.741141051578e-02
   251    2.326608664832e-02
   252   -1.568176556854e-02
   253   -2.730826884173e-03
   254    3.678669230580e-03
   255    1.282847317560e-03
   256    2.531901378966e-03
   257   -1.976916904156e-03
   258   -5.277048175956e-03
Sym=X
Ene= -0.138197
Spin=Alpha
Occup=1
     1    5.217652687370e-03
     2    8.424415241731e-03
     3    8.211241806508e-02
     4   -4.548378568980e-03
     5    1.373069442790e-02
     6   -2.151783105891e-02
     7    1.204673333996e-01
     8   -1.070946244063e-02
     9    2.233548164570e-02
    10   -1.739959945254e-02
    11    9.008016655668e-02
    12   -4.299638340968e-03
    13    1.648776866979e-02
    14    4.562293013959e-01
    15   -3.397887008188e-02
    16   -9.210250733858e-02
    17    1.814798786333e-03
    18    8.219091950692e-04
    19    9.174008733236e-04
    20   -1.395271831092e-03
    21    2.085064768462e-02
    22    4.998465105616e-03
    23   -1.315251694629e-02
    24   -2.085948446056e-02
    25   -7.794979753153e-02
    26   -2.202159088077e-02
    27    1.402361935497e-02
    28    5.971957931472e-02
    29   -1.127309357953e-01
    30   -3.669299376961e-02
    31    2.281416661701e-02
    32    3.761789359661e-02
    33   -2.623127356183e-02
    34   -3.055535038870e-02
    35    1.678510016603e-02
    36   -3.849767828169e-01
    37    1.428821476370e-02
    38    7.062988244129e-02
    39   -2.426228542073e-03
    40    5.262422388596e-04
    41   -1.069440641356e-03
    42   -9.853635535741e-04
    43    4.134387770044e-03
    44   -1.902423376304e-03
    45    5.044782846735e-03
    46    8.434376046173e-03
    47   -1.425822831181e-02
    48   -4.106195203022e-03
    49    8.967391283894e-03
    50   -2.459322551764e-02
    51   -2.211793906123e-02
    52   -2.440888381925e-03
    53    1.563749845741e-02
    54   -2.470930086036e-02
    55   -8.244257360226e-02
    56   -8.149126590314e-02
    57    1.201735252237e-02
    58   -5.065464868121e-01
    59   -9.776056234595e-02
    60    2.709510927151e-01
    61    1.303611520523e-02
    62    7.907321656149e-04
    63   -1.791799739517e-03
    64    1.181550405192e-03
    65    1.145141523347e-02
    66   -5.953478460537e-03
    67    4.427296204775e-03
    68    6.663501005237e-03
    69   -1.249657108460e-01
    70    2.639390883058e-02
    71    1.216446914861e-02
    72   -2.249476464777e-02
    73   -1.901337480712e-01
    74    3.821903916266e-02
    75    1.981069531263e-02
    76    7.732898327775e-02
    77   -1.236171517827e-01
    78    1.196895447800e-02
    79    1.299849221842e-02
    80   -1.593384657240e-01
    81   -8.334661311877e-02
    82   -1.572235202839e-01
    83   -5.393812534454e-04
    84   -1.762648693461e-03
    85    1.196496018919e-03
    86    3.965027837913e-04
    87    2.646401206381e-02
    88    5.621480402551e-03
    89   -4.712945402690e-02
    90   -6.587672195332e-02
    91   -2.624505966162e-02
    92   -3.561760979845e-02
    93   -5.025471865248e-02
    94   -1.911905046193e-02
    95    1.097777456870e-01
    96    1.444510736861e-01
    97    5.179623753869e-02
    98   -2.057269002003e-03
    99   -3.338065820242e-03
   100   -1.835182552181e-02
   101   -2.686861394657e-02
   102   -5.044167699363e-03
   103    1.047684064630e-02
   104   -2.588431955604e-02
   105   -4.321825175573e-02
   106   -7.820526216794e-03
   107    2.395255387464e-02
   108   -6.678854771578e-02
   109   -3.092737922702e-02
   110   -7.335916044894e-03
   111    8.780726759754e-02
   112   -2.807683196032e-02
   113    7.287419371991e-03
   114   -1.258029319822e-02
   115   -7.799901503018e-03
   116    1.739091652728e-03
   117   -1.348153364609e-03
   118   -1.784970627814e-02
   119    1.800512612630e-03
   120   -1.537618822633e-03
   121   -2.607527674216e-03
   122   -7.478149504822e-02
   123   -5.628886932578e-02
   124    4.004367743658e-02
   125    9.819647015368e-03
   126   -1.109145219021e-01
   127   -8.399442073795e-02
   128    5.947114351464e-02
   129    5.035175180680e-03
   130   -9.252820936703e-02
   131   -7.741107815327e-02
   132    5.703311536144e-02
   133    1.146596029590e-02
   134   -6.311225267733e-03
   135   -1.427901419773e-02
   136    9.249369159567e-03
   137    2.039167659908e-03
   138   -4.697510920236e-03
   139    7.863003727885e-04
   140    6.898756636969e-03
   141   -2.977750373922e-03
   142   -9.561390448355e-03
   143   -1.554754617958e-02
   144   -7.618387528310e-03
   145    4.520609492946e-02
   146   -4.563531947123e-02
   147    4.673063652558e-02
   148   -1.074650669612e-02
   149    6.652409911521e-02
   150   -6.776520581675e-02
   151    7.933701544598e-02
   152   -1.836542079730e-02
   153    4.485138351767e-02
   154   -7.759072327416e-02
   155    2.062595576005e-02
   156    2.665949595090e-03
   157   -5.423244322981e-03
   158   -5.162136228229e-03
   159    3.277467275243e-03
   160    1.697432092492e-03
   161    2.160581975224e-04
   162    2.741221932292e-03
   163   -1.163378543566e-03
   164    2.003260714808e-02
   165    3.183547896779e-02
   166    5.589641662173e-02
   167   -5.686159348686e-02
   168    7.833987874756e-03
   169   -8.816898380700e-02
   170    7.909305469740e-02
   171   -7.677424831051e-02
   172    1.243987654323e-02
   173   -1.210049857758e-01
   174    4.897878848370e-02
   175   -5.636743812268e-02
   176    1.062957424253e-02
   177    8.582580636737e-01
   178    3.409852630948e-01
   179   -1.170249201896e-01
   180   -3.913710503835e-03
   181   -3.067991942413e-04
   182    3.405524178854e-05
   183    1.240088186497e-03
   184    1.507358302714e-02
   185   -3.548164383129e-03
   186   -6.296293166180e-03
   187   -8.757042472897e-03
   188   -7.018900040800e-03
   189   -5.709781076584e-03
   190   -9.096865599323e-03
   191   -5.174335534490e-02
   192   -5.197199923715e-05
   193    6.220568665038e-03
   194    2.851660623087e-02
   195   -7.145047542744e-02
   196    5.610322795113e-03
   197    9.939882374353e-03
   198   -6.533588471018e-02
   199   -1.001331445905e-01
   200   -3.696504642436e-02
   201    4.546339436915e-03
   202   -3.715904509624e-01
   203    5.483929641912e-01
   204    2.416914779424e-01
   205   -1.034230799240e-02
   206    3.492693595056e-04
   207   -1.556413399591e-03
   208    1.535687249063e-03
   209   -7.313662178682e-03
   210    1.306723887385e-02
   211    3.422848245650e-04
   212    1.110661786078e-03
   213   -3.027410823184e-03
   214   -3.557037333856e-03
   215    6.852706445847e-03
   216    1.034270256850e-02
   217   -2.462464666491e-02
   218    5.614033726279e-03
   219   -6.141475831643e-03
   220   -3.985969881618e-03
   221   -3.684738998081e-04
   222   -5.068233571274e-02
   223   -3.289540134028e-02
   224   -3.043849108108e-03
   225    1.322509597068e-01
   226    8.580834466230e-02
   227    7.955488061361e-03
   228    5.037750673170e-02
   229    3.295949671659e-02
   230    2.763845510308e-03
   231   -1.109937403844e-01
   232   -7.247019808237e-02
   233   -5.971026396607e-03
   234   -2.528589976192e-01
   235   -1.650345987979e-01
   236   -1.604506886603e-02
   237   -1.617916183499e-01
   238   -8.844829855171e-02
   239   -1.006578433875e-02
   240   -2.549221893104e-05
   241    6.466041280351e-04
   242    2.945462352300e-05
   243   -6.511801104676e-03
   244    2.618236305552e-04
   245    3.984948893176e-04
   246    1.948279450703e-04
   247    8.887887874710e-05
   248   -4.713513921438e-04
   249   -1.576414316428e-04
   250    4.360086556476e-02
   251   -2.916288601920e-02
   252    2.585040087122e-03
   253    1.209247372869e-03
   254   -4.974226632071e-04
   255   -1.775979551352e-03
   256   -1.190038906938e-03
   257    1.348562998345e-02
   258    3.624186274591e-04
Sym=X
Ene= -0.223132
Spin=Alpha
Occup=1
     1   -1.227932048905e-04
     2   -1.930949580858e-04
     3   -8.173850360983e-03
     4    3.229835361661e-03
     5   -2.585958466108e-02
     6    5.310948856021e-04
     7   -1.263249007422e-02
     8    4.839558849863e-03
     9   -4.218641493213e-02
    10   -2.923498724612e-04
    11   -7.410793838740e-03
    12    1.276337312562e-02
    13   -3.464662517172e-02
    14    1.814728634698e-01
    15    3.363069645072e-02
    16   -7.590585261505e-03
    17    1.870177696872e-03
    18   -6.725435062800e-05
    19    1.931316405142e-02
    20    1.262180839152e-02
    21   -1.236873227197e-03
    22   -1.917764327186e-03
    23   -7.453901262665e-04
    24   -1.238915575068e-03
    25    9.290889718425e-03
    26   -1.015867272381e-02
    27    1.019806605180e-01
    28    3.602664608270e-03
    29    1.476962868625e-02
    30   -1.549632585566e-02
    31    1.667891671115e-01
    32    4.946423518287e-02
    33    2.048980784686e-02
    34   -2.998533717528e-02
    35    1.416314681746e-01
    36    2.178745663577e-01
    37    1.019370491833e-01
    38   -5.360203933633e-02
    39    5.000466456479e-03
    40   -1.077582163678e-03
    41    1.096166807997e-02
    42   -1.249873241281e-02
    43   -5.716059390131e-04
    44   -1.714735722655e-03
    45    8.011241503150e-04
    46    1.257898292421e-03
    47   -1.839007815477e-03
    48    9.007483829560e-03
    49    1.369775577836e-01
    50   -3.254540785223e-03
    51   -3.408298438174e-03
    52    1.581925891661e-02
    53    2.257186811074e-01
    54   -1.677037237696e-02
    55   -9.165994951162e-03
    56   -5.282931005189e-02
    57    2.022161026461e-01
    58    1.668534445914e-02
    59   -2.730984395067e-02
    60   -2.695640324801e-01
    61    1.737585964505e-02
    62   -2.458738463755e-05
    63   -2.420181536338e-03
    64    9.737879563573e-03
    65   -8.892901647954e-04
    66   -1.631220349749e-03
    67    2.897633846310e-04
    68    4.620986601601e-04
    69    4.563937982336e-03
    70   -9.265960850255e-04
    71   -1.357086566422e-01
    72   -9.933292955647e-04
    73    6.907375678720e-03
    74   -3.870552472463e-04
    75   -2.215273050782e-01
    76   -7.180395761845e-03
    77    1.736527930888e-03
    78    4.073592982017e-03
    79   -1.901143315856e-01
    80   -1.670987522665e-01
    81   -3.305894114509e-02
    82    1.394489318148e-02
    83   -1.862060522579e-02
    84    1.143821185678e-04
    85   -6.494272650936e-03
    86    9.856658963794e-03
    87   -1.613344377090e-03
    88   -3.551080758886e-04
    89    6.799809476902e-03
    90    8.447642353323e-03
    91    1.535981836351e-04
    92   -1.564726052863e-03
    93   -2.101257878997e-03
    94    3.016905420925e-04
    95   -5.366268197886e-03
    96   -7.785182058297e-03
    97   -2.125387107459e-03
    98   -4.889660314876e-04
    99   -7.626161682479e-04
   100    4.786068335643e-03
   101   -8.782186530972e-04
   102   -7.909528571585e-03
   103    2.308841832916e-03
   104    7.652882804987e-03
   105   -1.895076287295e-03
   106   -1.198061328738e-02
   107    3.306948780284e-03
   108   -4.366800219276e-03
   109    5.893901671767e-03
   110   -1.308893000399e-02
   111    5.409552317002e-03
   112   -7.240953768627e-03
   113    2.774242427104e-02
   114   -4.946954624256e-02
   115   -3.354225592621e-03
   116   -1.297063165993e-02
   117   -2.107649313415e-03
   118   -5.633655546262e-03
   119    8.238951955890e-03
   120    8.083611242568e-04
   121    1.363302868080e-03
   122   -5.547782086754e-02
   123   -1.277056658291e-02
   124   -2.604844389293e-02
   125   -4.546787517610e-03
   126   -8.293342850690e-02
   127   -1.880512305813e-02
   128   -3.877967495616e-02
   129   -7.351147016774e-04
   130   -7.521148215936e-02
   131   -2.005126428370e-02
   132   -3.718969452302e-02
   133   -1.545682516753e-02
   134   -2.882834548001e-03
   135   -1.815364616322e-03
   136    9.614489081096e-03
   137   -2.148466665343e-03
   138   -1.175900593542e-03
   139   -1.791603964228e-03
   140    1.907915277425e-03
   141   -1.977862261425e-03
   142    9.019419094299e-04
   143    1.547416702839e-03
   144    3.439301086158e-02
   145    1.313874984567e-02
   146   -7.107982808949e-02
   147   -5.404396182992e-03
   148    5.247533675527e-02
   149    2.009482731024e-02
   150   -1.053397756320e-01
   151   -3.947916126096e-03
   152    4.596113710923e-02
   153    1.633260527907e-02
   154   -1.014544095062e-01
   155    1.614956356720e-02
   156    7.697592960154e-03
   157   -1.074316752576e-03
   158    3.790335324614e-03
   159    3.792510347226e-03
   160    8.729519212683e-04
   161    3.721028314350e-03
   162    3.501713926434e-04
   163   -2.286505767422e-03
   164   -2.036793698592e-03
   165   -3.243338080105e-03
   166   -7.251095728845e-04
   167    2.408602160714e-03
   168   -1.222461624282e-01
   169    8.667661421928e-03
   170   -1.026137822210e-03