[Molden Format]
[Atoms] (Angs)
  C      1    6      0.78808821      1.24068913      0.02492945
  C      2    6      2.17658059      1.20482783      0.01961732
  C      3    6      2.84604848     -0.01987894     -0.00618268
  C      4    6      0.06874473      0.04470619      0.01965705
  H      5    1      0.27342680      2.19328085      0.03465240
  H      6    1      2.76334949      2.11354885      0.03637404
  H      7    1     -1.01469187      0.05821664      0.02642497
  N      8    7      4.30685693      0.04595834     -0.03962592
  O      9    8      4.93785288     -0.87773037     -0.59362170
  O     10    8      4.84651823      1.05363205      0.47829467
  C     11    6      0.74008238     -1.17504363      0.01238440
  H     12    1      0.18852059     -2.10639187      0.02395406
  C     13    6      2.13307197     -1.21959994     -0.00494717
 Br     14   35      2.92645518     -2.95940256      0.03206369
[GTO]
1    0
S    6    1.000000
   4.56324000E+03    1.96665000E-03 
   6.82024000E+02    1.52306000E-02 
   1.54973000E+02    7.61269000E-02 
   4.44553000E+01    2.60801000E-01 
   1.30290000E+01    6.16462000E-01 
   1.82773000E+00    2.21006000E-01 
SP   3    1.000000
   2.09642000E+01    1.14660000E-01   4.02487000E-02 
   4.80331000E+00    9.19999000E-01   2.37594000E-01 
   1.45933000E+00   -3.03068000E-03   8.15854000E-01 
SP   1    1.000000
   4.83456000E-01    1.00000000E+00   1.00000000E+00 
SP   1    1.000000
   1.45585000E-01    1.00000000E+00   1.00000000E+00 
SP   1    1.000000
   4.38000000E-02    1.00000000E+00   1.00000000E+00 
D    1    1.000000
   6.26000000E-01    1.00000000E+00 

2    0
S    6    1.000000
   4.56324000E+03    1.96665000E-03 
   6.82024000E+02    1.52306000E-02 
   1.54973000E+02    7.61269000E-02 
   4.44553000E+01    2.60801000E-01 
   1.30290000E+01    6.16462000E-01 
   1.82773000E+00    2.21006000E-01 
SP   3    1.000000
   2.09642000E+01    1.14660000E-01   4.02487000E-02 
   4.80331000E+00    9.19999000E-01   2.37594000E-01 
   1.45933000E+00   -3.03068000E-03   8.15854000E-01 
SP   1    1.000000
   4.83456000E-01    1.00000000E+00   1.00000000E+00 
SP   1    1.000000
   1.45585000E-01    1.00000000E+00   1.00000000E+00 
SP   1    1.000000
   4.38000000E-02    1.00000000E+00   1.00000000E+00 
D    1    1.000000
   6.26000000E-01    1.00000000E+00 

3    0
S    6    1.000000
   4.56324000E+03    1.96665000E-03 
   6.82024000E+02    1.52306000E-02 
   1.54973000E+02    7.61269000E-02 
   4.44553000E+01    2.60801000E-01 
   1.30290000E+01    6.16462000E-01 
   1.82773000E+00    2.21006000E-01 
SP   3    1.000000
   2.09642000E+01    1.14660000E-01   4.02487000E-02 
   4.80331000E+00    9.19999000E-01   2.37594000E-01 
   1.45933000E+00   -3.03068000E-03   8.15854000E-01 
SP   1    1.000000
   4.83456000E-01    1.00000000E+00   1.00000000E+00 
SP   1    1.000000
   1.45585000E-01    1.00000000E+00   1.00000000E+00 
SP   1    1.000000
   4.38000000E-02    1.00000000E+00   1.00000000E+00 
D    1    1.000000
   6.26000000E-01    1.00000000E+00 

4    0
S    6    1.000000
   4.56324000E+03    1.96665000E-03 
   6.82024000E+02    1.52306000E-02 
   1.54973000E+02    7.61269000E-02 
   4.44553000E+01    2.60801000E-01 
   1.30290000E+01    6.16462000E-01 
   1.82773000E+00    2.21006000E-01 
SP   3    1.000000
   2.09642000E+01    1.14660000E-01   4.02487000E-02 
   4.80331000E+00    9.19999000E-01   2.37594000E-01 
   1.45933000E+00   -3.03068000E-03   8.15854000E-01 
SP   1    1.000000
   4.83456000E-01    1.00000000E+00   1.00000000E+00 
SP   1    1.000000
   1.45585000E-01    1.00000000E+00   1.00000000E+00 
SP   1    1.000000
   4.38000000E-02    1.00000000E+00   1.00000000E+00 
D    1    1.000000
   6.26000000E-01    1.00000000E+00 

5    0
S    3    1.000000
   3.38650000E+01    2.54938000E-02 
   5.09479000E+00    1.90373000E-01 
   1.15879000E+00    8.52161000E-01 
S    1    1.000000
   3.25840000E-01    1.00000000E+00 
S    1    1.000000
   1.02741000E-01    1.00000000E+00 

6    0
S    3    1.000000
   3.38650000E+01    2.54938000E-02 
   5.09479000E+00    1.90373000E-01 
   1.15879000E+00    8.52161000E-01 
S    1    1.000000
   3.25840000E-01    1.00000000E+00 
S    1    1.000000
   1.02741000E-01    1.00000000E+00 

7    0
S    3    1.000000
   3.38650000E+01    2.54938000E-02 
   5.09479000E+00    1.90373000E-01 
   1.15879000E+00    8.52161000E-01 
S    1    1.000000
   3.25840000E-01    1.00000000E+00 
S    1    1.000000
   1.02741000E-01    1.00000000E+00 

8    0
S    6    1.000000
   6.29348000E+03    1.96979000E-03 
   9.49044000E+02    1.49613000E-02 
   2.18776000E+02    7.35006000E-02 
   6.36916000E+01    2.48937000E-01 
   1.88282000E+01    6.02460000E-01 
   2.72023000E+00    2.56202000E-01 
SP   3    1.000000
   3.06331000E+01    1.11906000E-01   3.83119000E-02 
   7.02614000E+00    9.21666000E-01   2.37403000E-01 
   2.11205000E+00   -2.56919000E-03   8.17592000E-01 
SP   1    1.000000
   6.84009000E-01    1.00000000E+00   1.00000000E+00 
SP   1    1.000000
   2.00878000E-01    1.00000000E+00   1.00000000E+00 
SP   1    1.000000
   6.39000000E-02    1.00000000E+00   1.00000000E+00 
D    1    1.000000
   9.13000000E-01    1.00000000E+00 

9    0
S    6    1.000000
   8.58850000E+03    1.89515000E-03 
   1.29723000E+03    1.43859000E-02 
   2.99296000E+02    7.07320000E-02 
   8.73771000E+01    2.40001000E-01 
   2.56789000E+01    5.94797000E-01 
   3.74004000E+00    2.80802000E-01 
SP   3    1.000000
   4.21175000E+01    1.13889000E-01   3.65114000E-02 
   9.62837000E+00    9.20811000E-01   2.37153000E-01 
   2.85332000E+00   -3.27447000E-03   8.19702000E-01 
SP   1    1.000000
   9.05661000E-01    1.00000000E+00   1.00000000E+00 
SP   1    1.000000
   2.55611000E-01    1.00000000E+00   1.00000000E+00 
SP   1    1.000000
   8.45000000E-02    1.00000000E+00   1.00000000E+00 
D    1    1.000000
   1.29200000E+00    1.00000000E+00 

10    0
S    6    1.000000
   8.58850000E+03    1.89515000E-03 
   1.29723000E+03    1.43859000E-02 
   2.99296000E+02    7.07320000E-02 
   8.73771000E+01    2.40001000E-01 
   2.56789000E+01    5.94797000E-01 
   3.74004000E+00    2.80802000E-01 
SP   3    1.000000
   4.21175000E+01    1.13889000E-01   3.65114000E-02 
   9.62837000E+00    9.20811000E-01   2.37153000E-01 
   2.85332000E+00   -3.27447000E-03   8.19702000E-01 
SP   1    1.000000
   9.05661000E-01    1.00000000E+00   1.00000000E+00 
SP   1    1.000000
   2.55611000E-01    1.00000000E+00   1.00000000E+00 
SP   1    1.000000
   8.45000000E-02    1.00000000E+00   1.00000000E+00 
D    1    1.000000
   1.29200000E+00    1.00000000E+00 

11    0
S    6    1.000000
   4.56324000E+03    1.96665000E-03 
   6.82024000E+02    1.52306000E-02 
   1.54973000E+02    7.61269000E-02 
   4.44553000E+01    2.60801000E-01 
   1.30290000E+01    6.16462000E-01 
   1.82773000E+00    2.21006000E-01 
SP   3    1.000000
   2.09642000E+01    1.14660000E-01   4.02487000E-02 
   4.80331000E+00    9.19999000E-01   2.37594000E-01 
   1.45933000E+00   -3.03068000E-03   8.15854000E-01 
SP   1    1.000000
   4.83456000E-01    1.00000000E+00   1.00000000E+00 
SP   1    1.000000
   1.45585000E-01    1.00000000E+00   1.00000000E+00 
SP   1    1.000000
   4.38000000E-02    1.00000000E+00   1.00000000E+00 
D    1    1.000000
   6.26000000E-01    1.00000000E+00 

12    0
S    3    1.000000
   3.38650000E+01    2.54938000E-02 
   5.09479000E+00    1.90373000E-01 
   1.15879000E+00    8.52161000E-01 
S    1    1.000000
   3.25840000E-01    1.00000000E+00 
S    1    1.000000
   1.02741000E-01    1.00000000E+00 

13    0
S    6    1.000000
   4.56324000E+03    1.96665000E-03 
   6.82024000E+02    1.52306000E-02 
   1.54973000E+02    7.61269000E-02 
   4.44553000E+01    2.60801000E-01 
   1.30290000E+01    6.16462000E-01 
   1.82773000E+00    2.21006000E-01 
SP   3    1.000000
   2.09642000E+01    1.14660000E-01   4.02487000E-02 
   4.80331000E+00    9.19999000E-01   2.37594000E-01 
   1.45933000E+00   -3.03068000E-03   8.15854000E-01 
SP   1    1.000000
   4.83456000E-01    1.00000000E+00   1.00000000E+00 
SP   1    1.000000
   1.45585000E-01    1.00000000E+00   1.00000000E+00 
SP   1    1.000000
   4.38000000E-02    1.00000000E+00   1.00000000E+00 
D    1    1.000000
   6.26000000E-01    1.00000000E+00 

14    0
S    6    1.000000
   4.39700000E+05    8.13000000E-04 
   6.60300000E+04    6.28500000E-03 
   1.51400000E+04    3.19200000E-02 
   4.31700000E+03    1.28800000E-01 
   1.41400000E+03    3.94600000E-01 
   5.23900000E+02    5.41300000E-01 
S    3    1.000000
   5.23900000E+02    1.83100000E-01 
   2.07700000E+02    6.17600000E-01 
   8.65400000E+01    2.53800000E-01 
S    1    1.000000
   3.05200000E+01    1.00000000E+00 
S    1    1.000000
   1.29800000E+01    1.00000000E+00 
S    1    1.000000
   4.41200000E+00    1.00000000E+00 
S    1    1.000000
   1.86200000E+00    1.00000000E+00 
S    1    1.000000
   3.93200000E-01    1.00000000E+00 
S    1    1.000000
   1.40000000E-01    1.00000000E+00 
P    3    1.000000
   2.95700000E+03    2.22600000E-02 
   7.00300000E+02    1.80200000E-01 
   2.24600000E+02    8.62400000E-01 
P    3    1.000000
   8.25900000E+01    3.44000000E-01 
   3.31900000E+01    5.07100000E-01 
   1.42000000E+01    2.59000000E-01 
P    3    1.000000
   1.42000000E+01    7.96500000E-02 
   7.43800000E+00    3.73400000E-01 
   3.52600000E+00    6.04900000E-01 
P    1    1.000000
   1.59500000E+00    1.00000000E+00 
P    1    1.000000
   8.46200000E-01    1.00000000E+00 
P    1    1.000000
   3.18600000E-01    1.00000000E+00 
P    1    1.000000
   1.09600000E-01    1.00000000E+00 
D    4    1.000000
   1.34800000E+02    1.83100000E-02 
   3.63900000E+01    1.35000000E-01 
   1.21600000E+01    4.26100000E-01 
   4.34100000E+00    6.04300000E-01 
D    1    1.000000
   1.53500000E+00    1.00000000E+00 
SP   1    1.000000
   3.90000000E-02    1.00000000E+00   1.00000000E+00 
D    1    1.000000
   4.15000000E-01    1.00000000E+00 

[MO]
Sym=X
Ene= -0.198577
Spin=Alpha
Occup=1
     1    1.953402416039e-03
     2    3.127835851282e-03
     3   -1.535594690203e-02
     4    3.765901932358e-03
     5    1.087693969739e-01
     6   -9.994199838881e-03
     7   -2.188720778400e-02
     8    5.530354073010e-03
     9    1.771415669431e-01
    10    2.745701717854e-02
    11   -7.045973725550e-03
    12   -2.085281161403e-03
    13    1.427350059754e-01
    14   -6.600053754264e-02
    15    5.625972940270e-02
    16    4.951354855283e-02
    17    7.272650378340e-03
    18   -5.207109230155e-04
    19   -3.673101738111e-04
    20   -9.695417521553e-03
    21   -1.577991485667e-03
    22   -2.904551896234e-03
    23   -1.351104678122e-03
    24   -2.186773850018e-03
    25    1.696545800144e-02
    26   -1.751342719266e-02
    27    4.926293631617e-02
    28    7.012179903433e-03
    29    2.421432184506e-02
    30   -2.489914158877e-02
    31    7.992265419314e-02
    32   -2.589716621638e-02
    33    3.241490775523e-02
    34   -7.826862182453e-03
    35    5.979957254936e-02
    36    4.992899021041e-01
    37    1.029936889771e-01
    38   -1.242931780765e-01
    39    1.755944851670e-03
    40    3.050964152823e-04
    41   -1.414669040435e-02
    42    3.067241976495e-03
    43   -3.098974630457e-03
    44    4.162638606669e-04
    45    9.394065888795e-03
    46    1.532981933165e-02
    47   -4.008501675377e-02
    48    1.542276786516e-02
    49   -3.393341454319e-02
    50   -4.593869551257e-02
    51   -6.954381549482e-02
    52    2.281083386814e-02
    53   -5.646181849562e-02
    54   -1.353444483404e-01
    55   -8.859524844789e-02
    56    4.971064965421e-02
    57   -4.152584179985e-02
    58   -2.647297381483e-01
    59    1.462787951521e-01
    60   -3.098630940192e-01
    61   -2.570254634542e-02
    62    1.139200365203e-03
    63   -2.571869462881e-03
    64    1.245416784846e-02
    65   -6.779248405968e-03
    66   -7.260669019050e-05
    67    2.117078584132e-03
    68    3.378336737523e-03
    69    4.686975713168e-03
    70   -4.046722972546e-04
    71    1.031046797517e-01
    72   -8.717722547032e-03
    73    7.329460609734e-03
    74   -8.456886820058e-05
    75    1.678111043370e-01
    76   -3.923451169539e-02
    77   -1.172320782640e-02
    78    2.094336298089e-03
    79    1.338744854134e-01
    80    2.478251911138e-02
    81    1.733347057706e-02
    82    8.191457131205e-02
    83    1.581729645207e-02
    84    7.024233944391e-05
    85    7.615621513155e-03
    86    7.219634730900e-03
    87   -2.081681524946e-03
    88   -1.130181857979e-03
    89    1.002872866001e-02
    90    1.517094318094e-02
    91    8.620150487085e-03
    92   -6.858829241532e-04
    93   -1.699493500107e-03
    94   -8.716779127715e-03
    95   -6.192855709181e-03
    96   -9.761023090869e-03
    97   -7.640322570326e-03
    98    3.124157245363e-04
    99    5.232087873161e-04
   100    3.027932111315e-02
   101    7.364410129266e-03
   102   -4.973763740557e-03
   103   -8.444234968020e-04
   104    4.905089601828e-02
   105    1.436600837097e-02
   106   -6.502166773926e-03
   107   -5.604632244114e-03
   108   -2.686299151233e-02
   109   -2.966657643251e-02
   110   -2.296733031244e-02
   111   -1.082068967891e-01
   112   -9.611902885438e-02
   113    1.352768717649e-02
   114    1.257689480955e-02
   115   -1.165899006878e-03
   116    8.744402685825e-03
   117    8.993848421516e-03
   118   -2.195432451577e-02
   119    4.226598960596e-03
   120    4.307307752034e-03
   121    7.116401698851e-03
   122   -1.133169653442e-01
   123   -5.591145336366e-02
   124    1.196796686399e-02
   125   -2.241671040996e-02
   126   -1.656864851018e-01
   127   -8.255647536958e-02
   128    1.721372498827e-02
   129   -3.393438199856e-02
   130   -1.510270037773e-01
   131   -8.024654481949e-02
   132    1.884214852539e-02
   133    8.732740195171e-02
   134   -1.120235144273e-02
   135    1.917936404180e-02
   136    1.320767896346e-02
   137   -7.731883739099e-04
   138   -3.364666001896e-03
   139   -6.924943287833e-04
   140    6.043792882839e-03
   141   -2.287362578726e-03
   142    8.554822606599e-05
   143    2.025530556663e-04
   144   -4.498962451921e-02
   145   -1.915220717609e-02
   146   -2.078977291119e-02
   147    3.604480030642e-04
   148   -6.496604606371e-02
   149   -2.727881361106e-02
   150   -3.061088918925e-02
   151    2.588013236102e-02
   152   -6.482314099528e-02
   153   -3.335131294806e-02
   154   -3.051572035556e-02
   155    4.886417785031e-02
   156    6.920321118844e-03
   157   -1.173276838268e-02
   158   -7.056892166997e-03
   159    1.200379926383e-04
   160    1.987062362538e-03
   161    1.700626848058e-03
   162   -2.533747985675e-04
   163    1.923466419598e-03
   164   -4.047685575438e-03
   165   -6.419301252358e-03
   166   -1.607791333067e-05
   167   -8.687501010782e-04
   168    3.165771990084e-02
   169    1.692929904097e-02
   170    5.922391294702e-05
   171   -3.712982784879e-03
   172    5.071576604658e-02
   173    9.104844627036e-02
   174    2.273459190946e-02
   175    9.859407201446e-03
   176    4.848094957720e-02
   177   -4.382820990752e-01
   178   -1.700492923774e-01
   179    6.322475013205e-02
   180   -1.209221069458e-02
   181    6.316492039955e-05
   182   -1.104517376003e-02
   183    1.168979135705e-02
   184   -4.480190419974e-04
   185    2.099835433058e-03
   186    5.073659512023e-03
   187    5.269865969024e-03
   188    1.085341503580e-02
   189   -6.131925829388e-04
   190   -9.040737915446e-04
   191   -1.797314581028e-03
   192    3.560745822885e-03
   193   -5.939544100788e-02
   194    1.587109037388e-03
   195   -5.980510080217e-03
   196    4.749550917072e-03
   197   -9.635947001896e-02
   198   -4.923665910147e-03
   199    7.483206667529e-02
   200    8.821396041822e-03
   201   -1.013827127042e-01
   202    1.806064659678e-01
   203   -3.371624598997e-01
   204   -3.037053872122e-02
   205    2.040404110180e-02
   206   -4.013498801736e-04
   207   -1.103543837011e-02
   208    5.916696567575e-03
   209    3.479156530858e-03
   210   -6.310718887999e-03
   211    3.543626552795e-04
   212    1.147046359377e-03
   213   -3.098652022311e-03
   214   -3.824217732928e-03
   215    7.604717719330e-03
   216    9.511313725694e-03
   217   -1.819380077967e-02
   218   -1.521974672138e-02
   219    3.847922037961e-03
   220    1.805796571719e-03
   221   -5.931544021381e-03
   222    3.175955607829e-02
   223    1.490151505687e-02
   224   -4.895799207024e-02
   225   -8.285879453300e-02
   226   -3.884983179807e-02
   227    1.276761536576e-01
   228   -3.087636910658e-02
   229   -1.479626309963e-02
   230    4.739050103472e-02
   231    6.735905072659e-02
   232    3.236587896968e-02
   233   -1.031286560915e-01
   234    1.621592486885e-01
   235    7.342105202935e-02
   236   -2.482000079107e-01
   237    9.278403876887e-02
   238    3.860182851907e-02
   239   -1.351739892722e-01
   240    6.456091061969e-05
   241   -2.393114618623e-03
   242    7.939212183857e-03
   243    1.327163631696e-03
   244   -3.058490702101e-03
   245   -2.352334808925e-05
   246   -3.536596329104e-04
   247    1.235575038893e-03
   248   -2.319573786982e-05
   249   -4.202532008597e-04
   250    6.015572663336e-02
   251    3.582882000630e-03
   252    2.065678629501e-02
   253   -5.192185498313e-03
   254   -1.883188305904e-04
   255    6.237909324615e-03
   256   -1.702870122966e-02
   257   -1.657784836565e-03
   258    6.267052752856e-03
Sym=X
Ene= -0.263380
Spin=Alpha
Occup=1
     1    1.800489582405e-03
     2    2.898375502683e-03
     3   -1.751002793678e-02
     4    5.678992262076e-03
     5   -6.901791669153e-02
     6   -9.278488875084e-03
     7   -2.458112895988e-02
     8    8.943677922871e-03
     9   -1.115839642058e-01
    10    4.169278754589e-02
    11    6.116894845211e-04
    12    2.137003461382e-02
    13   -1.026652713379e-01
    14    1.638212539178e-01
    15   -5.335178366810e-02
    16   -6.417370262484e-02
    17   -1.259944708688e-02
    18   -3.145508573692e-04
    19    3.062525721316e-03
    20    5.876110149595e-03
    21   -1.423559085270e-03
    22   -4.328270810654e-03
    23    6.953219464544e-04
    24    1.249681946043e-03
    25    1.228592628287e-02
    26   -2.670318120019e-02
    27   -6.129845473453e-03
    28   -4.447669293247e-03
    29    1.566180213823e-02
    30   -4.022985118226e-02
    31   -1.150239530178e-02
    32   -2.749924078809e-03
    33    7.630373981901e-02
    34   -4.177909805073e-02
    35   -3.189541624456e-03
    36   -3.238619105450e-02
    37   -5.619928212738e-02
    38    3.682849237556e-02
    39    7.177206556971e-03
    40    1.282226788811e-04
    41    1.294980727032e-02
    42   -5.749081306299e-03
    43   -3.687301562800e-03
    44    1.835965841418e-03
    45    1.336770736414e-02
    46    2.220560795752e-02
    47   -8.513893587568e-02
    48   -1.685651597962e-03
    49    6.579148449848e-02
    50   -6.885690848177e-02
    51   -1.448043379881e-01
    52   -3.142557550701e-03
    53    1.084843436120e-01
    54   -2.268146261508e-01
    55   -1.837203368697e-01
    56   -4.475959627208e-02
    57    9.142463843259e-02
    58   -5.664947598793e-01
    59    1.702811625499e-01
    60    1.901905500641e-01
    61    1.156098081681e-02
    62    2.947516231689e-03
    63   -7.560328480250e-04
    64   -3.276368385822e-03
    65   -1.236628790686e-02
    66   -6.433187895548e-04
    67    2.540421965759e-03
    68    4.013892185818e-03
    69   -1.845292063721e-03
    70    7.154346853051e-04
    71   -6.635275449761e-02
    72   -1.147402813109e-02
    73   -2.780988338078e-03
    74    9.593261063061e-04
    75   -1.082042855088e-01
    76   -5.498730819114e-03
    77   -1.266636708095e-04
    78    3.553850488280e-03
    79   -9.141641460645e-02
    80   -1.013541379587e-01
    81   -2.352935179801e-02
    82   -8.617810589977e-02
    83   -8.469529752818e-03
    84   -5.097246214774e-04
    85   -3.574729618766e-03
    86   -6.021467298328e-03
    87   -3.344391168758e-03
    88    6.089756591038e-04
    89    1.243748181214e-02
    90    1.536174431116e-02
    91    3.799528265229e-03
    92   -4.850070498861e-03
    93   -3.177544584142e-03
    94   -4.198268845241e-03
    95   -3.417274859412e-03
    96   -6.459462535398e-03
    97   -3.224024837388e-03
    98    2.693920472951e-03
    99    4.410319676652e-03
   100    5.312700627943e-02
   101    2.252933734214e-03
   102   -7.121180798341e-03
   103   -1.247557480604e-02
   104    8.666892921937e-02
   105    2.372721628007e-03
   106   -1.156941315970e-02
   107   -2.461365449831e-02
   108   -7.242350689171e-02
   109    2.141713014160e-02
   110    5.170428878595e-03
   111   -1.390780119009e-01
   112   -1.710663030543e-01
   113   -3.987542374555e-02
   114   -1.840593850903e-02
   115    5.765318510694e-03
   116   -9.414981386697e-03
   117    2.202272454928e-02
   118   -4.239244532805e-02
   119   -6.741353634886e-03
   120   -1.546104532804e-03
   121   -2.490535484056e-03
   122   -1.624134974051e-01
   123   -1.381117482608e-02
   124   -1.181284140130e-02
   125    1.026234087331e-02
   126   -2.379606460110e-01
   127   -2.101467320961e-02
   128   -1.824725954049e-02
   129    4.199762118469e-02
   130   -2.240643103663e-01
   131   -9.570943170941e-03
   132   -9.929326559414e-03
   133    9.534754076083e-02
   134   -8.754481417276e-03
   135    1.979943332688e-02
   136    1.236349999842e-02
   137   -2.503699361313e-03
   138   -3.901603239164e-03
   139   -1.331171150305e-03
   140    4.577594534497e-03
   141   -6.461745132582e-03
   142    9.238472666479e-05
   143    1.819222648597e-04
   144   -1.824565251970e-01
   145    3.563782526460e-02
   146   -1.819497662822e-03
   147    1.128420380399e-03
   148   -2.671177372400e-01
   149    5.349298173348e-02
   150   -2.727601836547e-03
   151    9.509130549114e-03
   152   -2.470591013619e-01
   153    4.364855097057e-02
   154   -6.905548668907e-03
   155    1.353874671177e-01
   156   -9.175029031764e-03
   157   -2.614662858018e-02
   158   -1.255331394534e-02
   159   -1.149289284483e-03
   160    4.583932148105e-03
   161   -5.596185351627e-04
   162    6.677821732420e-03
   163    6.982738609345e-03
   164    3.802123239359e-03
   165    6.060880867052e-03
   166   -2.154120582523e-02
   167   -6.863999412231e-03
   168   -4.880066307119e-03
   169   -1.810993992299e-02
   170   -2.959205911460e-02
   171   -1.077124905159e-02
   172   -8.415381610431e-03
   173    1.691285400313e-02
   174   -1.431667173788e-02
   175   -9.097345444563e-03
   176   -5.750030781230e-03
   177    1.009812475657e-02
   178    7.521498650591e-02
   179   -5.017948092401e-02
   180    3.899602520602e-03
   181   -7.050037139727e-04
   182    1.015762004287e-02
   183   -6.992344801394e-03
   184   -1.017737880209e-03
   185    4.017764501161e-03
   186    1.380500354508e-02
   187    1.917965697173e-02
   188    1.155899622619e-02
   189   -1.650493920138e-03
   190   -2.569765771987e-03
   191    2.166794750733e-02
   192    2.048157023022e-02
   193    6.133597057019e-02
   194    7.000105495798e-03
   195    3.021297290433e-02
   196    2.945813698974e-02
   197    1.012560416266e-01
   198   -4.531058628210e-02
   199    4.945432197702e-02
   200   -4.451226208472e-03
   201    8.172860436625e-02
   202    4.074981569587e-01
   203    6.948510417437e-02
   204    2.264461980697e-01
   205   -3.787532108778e-03
   206    3.451553962630e-04
   207    4.677615812757e-03
   208    4.812636668041e-03
   209   -7.301244905066e-03
   210   -1.565408603589e-03
   211    1.984956790965e-04
   212    6.430294810350e-04
   213   -1.742655524642e-03
   214   -2.134468671371e-03
   215    4.252550770899e-03
   216    5.572647982423e-03
   217   -1.219020677392e-02
   218   -8.787918082875e-03
   219   -7.616909679028e-04
   220    1.630324577894e-04
   221    6.122049647315e-04
   222   -6.284510665040e-03
   223    1.343599353274e-03
   224    5.051511900110e-03
   225    1.645111270693e-02
   226   -3.451046217877e-03
   227   -1.310543906932e-02
   228    6.864282666431e-03
   229   -1.331986983023e-03
   230   -4.654095242476e-03
   231   -1.589516877089e-02
   232    2.631339743630e-03
   233    9.588505238299e-03
   234   -2.935498497022e-02
   235    5.301488858055e-03
   236    2.500799650105e-02
   237   -3.248718007375e-02
   238   -5.518529771691e-03
   239    1.892989878331e-03
   240    4.041121103650e-04
   241    2.740183119269e-03
   242   -4.360802987873e-03
   243    8.472317440843e-04
   244   -2.557140612924e-03
   245   -1.828873327864e-05
   246    4.848943496368e-04
   247   -4.822701967701e-04
   248   -7.480523622887e-05
   249   -4.522407868164e-04
   250    9.972174695730e-02
   251   -1.555688123753e-02
   252    2.630132385419e-02
   253   -1.832444598832e-03
   254   -7.441726234322e-04
   255   -6.290820168489e-03
   256    8.350512612205e-03
   257   -3.993124822834e-04
   258    5.421374064786e-03
Sym=X
Ene= -0.364320
Spin=Alpha
Occup=1
     1    1.278925440633e-03
     2    2.026784695646e-03
     3   -8.379415484028e-03
     4    3.212581757314e-03
     5   -5.649475491649e-02
     6   -5.429093517392e-03
     7   -1.200519891009e-02
     8    5.138777732859e-03
     9   -9.300560203084e-02
    10   -1.557316665841e-02
    11   -1.400713353459e-02
    12    1.024544503252e-02
    13   -8.606510360298e-02
    14    1.157298740729e-01
    15    1.267344317269e-02
    16    6.486075950274e-03
    17   -9.308070678302e-03
    18    3.508260884775e-05
    19    1.415907299576e-03
    20    1.501647043589e-03
    21   -2.354144610152e-03
    22   -5.295027998710e-05
    23   -9.748261338988e-04
    24   -1.621279090238e-03
    25    1.212112056173e-02
    26    9.102063030135e-03
    27   -6.451756020141e-03
    28    3.919260811145e-03
    29    1.916214297824e-02
    30    1.508291640826e-02
    31   -1.032105797326e-02
    32    5.285431236876e-02
    33    1.725185081627e-02
    34    5.951245562472e-03
    35   -2.369338076170e-02
    36    3.580137969181e-01
    37    1.015320925695e-01
    38   -7.726603257778e-02
    39   -1.727265383403e-02
    40   -1.093474614870e-03
    41    9.065305069205e-03
    42   -8.194207561450e-03
    43   -2.019148834501e-03
    44   -4.578908239396e-05
    45   -6.643965088405e-03
    46   -1.079739074576e-02
    47    1.582634444700e-02
    48   -4.642649267469e-03
    49    7.606307394779e-02
    50    3.195161877609e-02
    51    3.036625540829e-02
    52   -2.373043937338e-03
    53    1.249695269277e-01
    54    1.042701067906e-01
    55    7.467859483382e-03
    56   -7.390900280180e-02
    57    1.255078593086e-01
    58   -2.618640456652e-01
    59   -4.416674172145e-02
    60   -2.574118064479e-01
    61    3.204360798302e-02
    62   -1.045047959190e-03
    63   -2.880187668989e-03
    64   -8.770360700391e-03
    65    7.489672805377e-04
    66   -1.840135811495e-03
    67   -2.269659945490e-03
    68   -3.599312316099e-03
    69    1.535854978814e-02
    70   -9.111395344166e-03
    71   -2.708531673330e-02
    72    1.036032797768e-02
    73    2.302989039635e-02
    74   -1.266625149382e-02
    75   -4.471251857541e-02
    76    2.150532465194e-02
    77    2.376771775861e-02
    78   -1.232474904531e-02
    79   -4.546005947160e-02
    80    4.293241963399e-02
    81   -1.594652406383e-02
    82   -4.041137771648e-02
    83   -3.444874020648e-03
    84    1.812206918268e-04
    85   -1.268360205557e-04
    86   -1.000346880036e-02
    87   -2.371808002277e-03
    88   -1.141712911469e-03
    89    4.775142661009e-03
    90    6.023407291104e-03
    91    4.111463156436e-04
    92    1.023898818617e-02
    93    8.423997074419e-03
    94    9.923488484252e-04
    95   -1.183016712657e-02
    96   -1.625436448900e-02
    97   -3.398682985857e-03
    98   -3.932886411170e-05
    99   -7.214065291680e-05
   100   -9.621473848649e-03
   101   -2.180985514400e-04
   102    9.436227868243e-03
   103   -3.053609427024e-04
   104   -1.575199450874e-02
   105    1.486638277290e-04
   106    1.697603048233e-02
   107    1.206297891526e-02
   108    1.350726662137e-02
   109   -2.329018804820e-02
   110   -1.094829248131e-02
   111    6.256002321169e-02
   112    3.534977574867e-02
   113    4.743323224172e-02
   114   -5.442257960645e-02
   115   -7.796665090509e-03
   116    3.068572343286e-04
   117   -9.440362203330e-03
   118    3.438728095468e-03
   119    1.752164809847e-02
   120   -8.482737899786e-04
   121   -1.470544100079e-03
   122   -3.882043572498e-02
   123   -5.939915113240e-02
   124   -1.726345638136e-02
   125    4.260869189646e-03
   126   -5.939158130666e-02
   127   -8.711348541233e-02
   128   -2.474458709659e-02
   129   -1.314521046062e-02
   130   -5.097017494075e-02
   131   -8.660005024392e-02
   132   -2.686029831850e-02
   133   -2.828592352558e-02
   134   -1.081269075534e-02
   135   -1.722977868688e-02
   136    1.188465030901e-02
   137    1.898627027300e-04
   138   -1.193935714852e-03
   139   -1.328640283019e-03
   140    4.708172809006e-03
   141    1.293179009487e-04
   142   -5.956071970997e-04
   143   -9.505450434166e-04
   144    1.147206474415e-01
   145   -2.645686873812e-02
   146   -8.511704746854e-02
   147    3.092535946891e-03
   148    1.706077193163e-01
   149   -3.869129829773e-02
   150   -1.258187397528e-01
   151    1.311323880956e-02
   152    1.530071856332e-01
   153   -3.625081411580e-02
   154   -1.208516999302e-01
   155   -2.729426752542e-02
   156    1.704238849444e-02
   157    9.188913463400e-04
   158    7.374687103483e-03
   159    4.090903568465e-03
   160   -5.863478883031e-04
   161    4.629021879550e-03
   162   -4.658499649709e-03
   163   -4.902501706941e-03
   164    1.020006826788e-03
   165    1.687417670731e-03
   166   -5.104592034391e-03
   167    1.690486707738e-02
   168    4.228490507893e-02
   169   -5.069314262339e-03
   170   -6.340209226653e-03