[Molden Format]
[Atoms] (Angs)
  C      1    6      0.78808821      1.24068913      0.02492945
  C      2    6      2.17658059      1.20482783      0.01961732
  C      3    6      2.84604848     -0.01987894     -0.00618268
  C      4    6      0.06874473      0.04470619      0.01965705
  H      5    1      0.27342680      2.19328085      0.03465240
  H      6    1      2.76334949      2.11354885      0.03637404
  H      7    1     -1.01469187      0.05821664      0.02642497
  N      8    7      4.30685693      0.04595834     -0.03962592
  O      9    8      4.93785288     -0.87773037     -0.59362170
  O     10    8      4.84651823      1.05363205      0.47829467
  C     11    6      0.74008238     -1.17504363      0.01238440
  H     12    1      0.18852059     -2.10639187      0.02395406
  C     13    6      2.13307197     -1.21959994     -0.00494717
 Br     14   35      2.92645518     -2.95940256      0.03206369
[GTO]
1    0
S    6    1.000000
   4.56324000E+03    1.96665000E-03 
   6.82024000E+02    1.52306000E-02 
   1.54973000E+02    7.61269000E-02 
   4.44553000E+01    2.60801000E-01 
   1.30290000E+01    6.16462000E-01 
   1.82773000E+00    2.21006000E-01 
SP   3    1.000000
   2.09642000E+01    1.14660000E-01   4.02487000E-02 
   4.80331000E+00    9.19999000E-01   2.37594000E-01 
   1.45933000E+00   -3.03068000E-03   8.15854000E-01 
SP   1    1.000000
   4.83456000E-01    1.00000000E+00   1.00000000E+00 
SP   1    1.000000
   1.45585000E-01    1.00000000E+00   1.00000000E+00 
SP   1    1.000000
   4.38000000E-02    1.00000000E+00   1.00000000E+00 
D    1    1.000000
   6.26000000E-01    1.00000000E+00 

2    0
S    6    1.000000
   4.56324000E+03    1.96665000E-03 
   6.82024000E+02    1.52306000E-02 
   1.54973000E+02    7.61269000E-02 
   4.44553000E+01    2.60801000E-01 
   1.30290000E+01    6.16462000E-01 
   1.82773000E+00    2.21006000E-01 
SP   3    1.000000
   2.09642000E+01    1.14660000E-01   4.02487000E-02 
   4.80331000E+00    9.19999000E-01   2.37594000E-01 
   1.45933000E+00   -3.03068000E-03   8.15854000E-01 
SP   1    1.000000
   4.83456000E-01    1.00000000E+00   1.00000000E+00 
SP   1    1.000000
   1.45585000E-01    1.00000000E+00   1.00000000E+00 
SP   1    1.000000
   4.38000000E-02    1.00000000E+00   1.00000000E+00 
D    1    1.000000
   6.26000000E-01    1.00000000E+00 

3    0
S    6    1.000000
   4.56324000E+03    1.96665000E-03 
   6.82024000E+02    1.52306000E-02 
   1.54973000E+02    7.61269000E-02 
   4.44553000E+01    2.60801000E-01 
   1.30290000E+01    6.16462000E-01 
   1.82773000E+00    2.21006000E-01 
SP   3    1.000000
   2.09642000E+01    1.14660000E-01   4.02487000E-02 
   4.80331000E+00    9.19999000E-01   2.37594000E-01 
   1.45933000E+00   -3.03068000E-03   8.15854000E-01 
SP   1    1.000000
   4.83456000E-01    1.00000000E+00   1.00000000E+00 
SP   1    1.000000
   1.45585000E-01    1.00000000E+00   1.00000000E+00 
SP   1    1.000000
   4.38000000E-02    1.00000000E+00   1.00000000E+00 
D    1    1.000000
   6.26000000E-01    1.00000000E+00 

4    0
S    6    1.000000
   4.56324000E+03    1.96665000E-03 
   6.82024000E+02    1.52306000E-02 
   1.54973000E+02    7.61269000E-02 
   4.44553000E+01    2.60801000E-01 
   1.30290000E+01    6.16462000E-01 
   1.82773000E+00    2.21006000E-01 
SP   3    1.000000
   2.09642000E+01    1.14660000E-01   4.02487000E-02 
   4.80331000E+00    9.19999000E-01   2.37594000E-01 
   1.45933000E+00   -3.03068000E-03   8.15854000E-01 
SP   1    1.000000
   4.83456000E-01    1.00000000E+00   1.00000000E+00 
SP   1    1.000000
   1.45585000E-01    1.00000000E+00   1.00000000E+00 
SP   1    1.000000
   4.38000000E-02    1.00000000E+00   1.00000000E+00 
D    1    1.000000
   6.26000000E-01    1.00000000E+00 

5    0
S    3    1.000000
   3.38650000E+01    2.54938000E-02 
   5.09479000E+00    1.90373000E-01 
   1.15879000E+00    8.52161000E-01 
S    1    1.000000
   3.25840000E-01    1.00000000E+00 
S    1    1.000000
   1.02741000E-01    1.00000000E+00 

6    0
S    3    1.000000
   3.38650000E+01    2.54938000E-02 
   5.09479000E+00    1.90373000E-01 
   1.15879000E+00    8.52161000E-01 
S    1    1.000000
   3.25840000E-01    1.00000000E+00 
S    1    1.000000
   1.02741000E-01    1.00000000E+00 

7    0
S    3    1.000000
   3.38650000E+01    2.54938000E-02 
   5.09479000E+00    1.90373000E-01 
   1.15879000E+00    8.52161000E-01 
S    1    1.000000
   3.25840000E-01    1.00000000E+00 
S    1    1.000000
   1.02741000E-01    1.00000000E+00 

8    0
S    6    1.000000
   6.29348000E+03    1.96979000E-03 
   9.49044000E+02    1.49613000E-02 
   2.18776000E+02    7.35006000E-02 
   6.36916000E+01    2.48937000E-01 
   1.88282000E+01    6.02460000E-01 
   2.72023000E+00    2.56202000E-01 
SP   3    1.000000
   3.06331000E+01    1.11906000E-01   3.83119000E-02 
   7.02614000E+00    9.21666000E-01   2.37403000E-01 
   2.11205000E+00   -2.56919000E-03   8.17592000E-01 
SP   1    1.000000
   6.84009000E-01    1.00000000E+00   1.00000000E+00 
SP   1    1.000000
   2.00878000E-01    1.00000000E+00   1.00000000E+00 
SP   1    1.000000
   6.39000000E-02    1.00000000E+00   1.00000000E+00 
D    1    1.000000
   9.13000000E-01    1.00000000E+00 

9    0
S    6    1.000000
   8.58850000E+03    1.89515000E-03 
   1.29723000E+03    1.43859000E-02 
   2.99296000E+02    7.07320000E-02 
   8.73771000E+01    2.40001000E-01 
   2.56789000E+01    5.94797000E-01 
   3.74004000E+00    2.80802000E-01 
SP   3    1.000000
   4.21175000E+01    1.13889000E-01   3.65114000E-02 
   9.62837000E+00    9.20811000E-01   2.37153000E-01 
   2.85332000E+00   -3.27447000E-03   8.19702000E-01 
SP   1    1.000000
   9.05661000E-01    1.00000000E+00   1.00000000E+00 
SP   1    1.000000
   2.55611000E-01    1.00000000E+00   1.00000000E+00 
SP   1    1.000000
   8.45000000E-02    1.00000000E+00   1.00000000E+00 
D    1    1.000000
   1.29200000E+00    1.00000000E+00 

10    0
S    6    1.000000
   8.58850000E+03    1.89515000E-03 
   1.29723000E+03    1.43859000E-02 
   2.99296000E+02    7.07320000E-02 
   8.73771000E+01    2.40001000E-01 
   2.56789000E+01    5.94797000E-01 
   3.74004000E+00    2.80802000E-01 
SP   3    1.000000
   4.21175000E+01    1.13889000E-01   3.65114000E-02 
   9.62837000E+00    9.20811000E-01   2.37153000E-01 
   2.85332000E+00   -3.27447000E-03   8.19702000E-01 
SP   1    1.000000
   9.05661000E-01    1.00000000E+00   1.00000000E+00 
SP   1    1.000000
   2.55611000E-01    1.00000000E+00   1.00000000E+00 
SP   1    1.000000
   8.45000000E-02    1.00000000E+00   1.00000000E+00 
D    1    1.000000
   1.29200000E+00    1.00000000E+00 

11    0
S    6    1.000000
   4.56324000E+03    1.96665000E-03 
   6.82024000E+02    1.52306000E-02 
   1.54973000E+02    7.61269000E-02 
   4.44553000E+01    2.60801000E-01 
   1.30290000E+01    6.16462000E-01 
   1.82773000E+00    2.21006000E-01 
SP   3    1.000000
   2.09642000E+01    1.14660000E-01   4.02487000E-02 
   4.80331000E+00    9.19999000E-01   2.37594000E-01 
   1.45933000E+00   -3.03068000E-03   8.15854000E-01 
SP   1    1.000000
   4.83456000E-01    1.00000000E+00   1.00000000E+00 
SP   1    1.000000
   1.45585000E-01    1.00000000E+00   1.00000000E+00 
SP   1    1.000000
   4.38000000E-02    1.00000000E+00   1.00000000E+00 
D    1    1.000000
   6.26000000E-01    1.00000000E+00 

12    0
S    3    1.000000
   3.38650000E+01    2.54938000E-02 
   5.09479000E+00    1.90373000E-01 
   1.15879000E+00    8.52161000E-01 
S    1    1.000000
   3.25840000E-01    1.00000000E+00 
S    1    1.000000
   1.02741000E-01    1.00000000E+00 

13    0
S    6    1.000000
   4.56324000E+03    1.96665000E-03 
   6.82024000E+02    1.52306000E-02 
   1.54973000E+02    7.61269000E-02 
   4.44553000E+01    2.60801000E-01 
   1.30290000E+01    6.16462000E-01 
   1.82773000E+00    2.21006000E-01 
SP   3    1.000000
   2.09642000E+01    1.14660000E-01   4.02487000E-02 
   4.80331000E+00    9.19999000E-01   2.37594000E-01 
   1.45933000E+00   -3.03068000E-03   8.15854000E-01 
SP   1    1.000000
   4.83456000E-01    1.00000000E+00   1.00000000E+00 
SP   1    1.000000
   1.45585000E-01    1.00000000E+00   1.00000000E+00 
SP   1    1.000000
   4.38000000E-02    1.00000000E+00   1.00000000E+00 
D    1    1.000000
   6.26000000E-01    1.00000000E+00 

14    0
S    6    1.000000
   4.39700000E+05    8.13000000E-04 
   6.60300000E+04    6.28500000E-03 
   1.51400000E+04    3.19200000E-02 
   4.31700000E+03    1.28800000E-01 
   1.41400000E+03    3.94600000E-01 
   5.23900000E+02    5.41300000E-01 
S    3    1.000000
   5.23900000E+02    1.83100000E-01 
   2.07700000E+02    6.17600000E-01 
   8.65400000E+01    2.53800000E-01 
S    1    1.000000
   3.05200000E+01    1.00000000E+00 
S    1    1.000000
   1.29800000E+01    1.00000000E+00 
S    1    1.000000
   4.41200000E+00    1.00000000E+00 
S    1    1.000000
   1.86200000E+00    1.00000000E+00 
S    1    1.000000
   3.93200000E-01    1.00000000E+00 
S    1    1.000000
   1.40000000E-01    1.00000000E+00 
P    3    1.000000
   2.95700000E+03    2.22600000E-02 
   7.00300000E+02    1.80200000E-01 
   2.24600000E+02    8.62400000E-01 
P    3    1.000000
   8.25900000E+01    3.44000000E-01 
   3.31900000E+01    5.07100000E-01 
   1.42000000E+01    2.59000000E-01 
P    3    1.000000
   1.42000000E+01    7.96500000E-02 
   7.43800000E+00    3.73400000E-01 
   3.52600000E+00    6.04900000E-01 
P    1    1.000000
   1.59500000E+00    1.00000000E+00 
P    1    1.000000
   8.46200000E-01    1.00000000E+00 
P    1    1.000000
   3.18600000E-01    1.00000000E+00 
P    1    1.000000
   1.09600000E-01    1.00000000E+00 
D    4    1.000000
   1.34800000E+02    1.83100000E-02 
   3.63900000E+01    1.35000000E-01 
   1.21600000E+01    4.26100000E-01 
   4.34100000E+00    6.04300000E-01 
D    1    1.000000
   1.53500000E+00    1.00000000E+00 
SP   1    1.000000
   3.90000000E-02    1.00000000E+00   1.00000000E+00 
D    1    1.000000
   4.15000000E-01    1.00000000E+00 

[MO]
Sym=X
Ene= -0.268984
Spin=Alpha
Occup=1
     1   -3.478166300256e-04
     2   -4.926948092666e-04
     3    2.825119375139e-02
     4   -7.049693316069e-04
     5    4.078571065602e-02
     6    8.929707093048e-04
     7    4.149515989401e-02
     8   -2.058484704231e-03
     9    6.681346050018e-02
    10    2.774270807562e-02
    11    4.043802939726e-02
    12   -1.090457696707e-02
    13    5.840384264565e-02
    14   -1.154537263898e-02
    15    2.314181401241e-02
    16    1.509485495007e-02
    17   -5.083947344478e-03
    18    1.141471992682e-04
    19   -1.512930518322e-02
    20   -1.026533230105e-02
    21    2.384454145050e-03
    22    2.279927418952e-03
    23    1.980747648932e-03
    24    3.293886373388e-03
    25   -2.937464879522e-02
    26    1.661152515624e-02
    27   -7.415611613681e-02
    28   -9.922408620408e-03
    29   -4.608888638116e-02
    30    2.410707225575e-02
    31   -1.211034326609e-01
    32   -7.822638946307e-02
    33   -1.123188681010e-02
    34    2.746572985928e-02
    35   -1.008854213115e-01
    36   -5.558500585864e-01
    37   -3.708170452705e-02
    38    6.319478752636e-02
    39    5.921280399201e-03
    40    9.811086658036e-04
    41   -1.154866426590e-02
    42    1.266071792392e-02
    43    3.293572213257e-03
    44    2.081470438409e-03
    45    3.059000076264e-04
    46    4.234256772341e-04
    47    4.676973915083e-03
    48   -2.519345142775e-02
    49   -1.330332850770e-01
    50   -1.693170512149e-04
    51    8.659868611601e-03
    52   -4.207577494485e-02
    53   -2.206195142436e-01
    54    2.514454649385e-04
    55    5.032628412505e-03
    56    4.147097896658e-02
    57   -1.892198257712e-01
    58   -6.359002727045e-02
    59   -1.452885547292e-02
    60    4.074271300860e-01
    61   -2.148992687258e-02
    62   -1.851952957354e-04
    63    4.122683367003e-03
    64   -2.993977893674e-03
    65    1.821343414750e-03
    66    2.600094238336e-03
    67   -1.197855318588e-03
    68   -1.895270765362e-03
    69   -7.210669349523e-03
    70   -1.277824278795e-02
    71    1.138829420150e-01
    72    4.879197709715e-03
    73   -1.104195426887e-02
    74   -2.005903394869e-02
    75    1.858193150680e-01
    76    9.369239074798e-03
    77   -9.789025808178e-03
    78   -1.103641957269e-02
    79    1.635043576104e-01
    80    1.506174626331e-01
    81    2.319617607228e-02
    82    7.621441958770e-03
    83    2.418408282457e-02
    84   -1.530967007602e-04
    85    4.738770350285e-03
    86   -3.452340919517e-03
    87    3.248992317745e-03
    88    1.585935035217e-04
    89   -1.252206387009e-02
    90   -1.666491651042e-02
    91   -1.300404384955e-03
    92   -1.750998183044e-03
    93   -1.760396772455e-03
    94    3.615782772488e-03
    95    9.058542392021e-03
    96    1.192802900135e-02
    97    3.546414374362e-03
    98   -1.611682323008e-03
    99   -2.622411947095e-03
   100   -3.873986811375e-03
   101   -6.606276215463e-03
   102   -1.655750905766e-03
   103    8.093445187671e-03
   104   -6.177573055660e-03
   105   -1.183281827920e-02
   106   -3.958411892909e-03
   107    1.658797857955e-02
   108    2.815225510721e-03
   109    1.593929184562e-02
   110    1.696912000426e-02
   111    3.082447061373e-02
   112    1.576941328013e-02
   113   -8.021761549826e-02
   114    4.121040251923e-02
   115   -1.538551380639e-03
   116    4.709980547564e-03
   117   -1.935022106222e-03
   118    5.234369177087e-03
   119   -2.010674787669e-02
   120    6.825705411614e-04
   121    1.115108107336e-03
   122    1.115553862136e-01
   123    5.610008405315e-02
   124    7.238346352604e-02
   125   -2.233775337168e-03
   126    1.665459940202e-01
   127    8.238625126403e-02
   128    1.071432836682e-01
   129    3.227024980066e-03
   130    1.534488949411e-01
   131    7.569833971014e-02
   132    1.005180950788e-01
   133   -3.575071854669e-02
   134    1.770669072469e-02
   135    7.203891638097e-05
   136   -1.162855928381e-02
   137    3.809806298045e-03
   138    1.098651846058e-03
   139    5.010162670974e-03
   140   -6.094210961744e-03
   141    3.099226411319e-03
   142   -7.583360165360e-06
   143   -5.558829663609e-05
   144   -8.827369466842e-02
   145    4.401124968448e-02
   146    6.661815068246e-02
   147   -3.971821146918e-04
   148   -1.328118903403e-01
   149    6.407205067294e-02
   150    9.843634898074e-02
   151   -1.429797285789e-02
   152   -1.190536760931e-01
   153    6.534234204358e-02
   154    9.550224090171e-02
   155    9.592661268617e-03
   156   -1.823844444330e-02
   157    2.694394367407e-03
   158   -8.903468758639e-03
   159   -2.954751625503e-03
   160    9.477625062808e-04
   161   -4.307749329227e-03
   162    4.530018719421e-03
   163    3.197911942616e-03
   164    3.509344261155e-03
   165    5.584114134495e-03
   166   -8.746333495275e-03
   167    6.541012646228e-03
   168    7.270823826941e-02
   169   -1.516824777301e-02
   170   -1.219930049730e-02
   171    1.072818848386e-02
   172    1.188328595964e-01
   173   -3.493581386054e-02
   174   -1.536221454576e-02
   175   -3.674775292899e-03
   176    1.075084794711e-01
   177   -2.194236369248e-01
   178   -2.981148710303e-02
   179   -4.199735546255e-02
   180    1.925357363629e-03
   181    3.258042575033e-04
   182   -1.187341394225e-02
   183    1.057350043946e-02
   184    7.853905655880e-04
   185   -7.016893304088e-04
   186   -3.477959070174e-03
   187   -4.428764847818e-03
   188   -4.166800249131e-03
   189   -3.909724211705e-03
   190   -6.340329166403e-03
   191    1.535396888812e-02
   192    1.058577575759e-02
   193   -5.216440677198e-02
   194    1.837948796722e-02
   195    2.564854676006e-02
   196    1.579132658365e-02
   197   -8.534496601840e-02
   198    7.808892977655e-02
   199    7.404479747702e-03
   200    2.497889808370e-02
   201   -6.793013276474e-02
   202    6.667481355643e-01
   203    3.414045859927e-02
   204    9.740013044137e-02
   205   -7.872517425081e-04
   206   -2.660508608605e-04
   207   -1.658829174202e-02
   208   -1.200508876147e-02
   209   -2.943129959152e-03
   210    2.252900615513e-03
   211   -2.688409062742e-04
   212   -8.708983333168e-04
   213    2.360261699307e-03
   214    2.892539190752e-03
   215   -5.756926951936e-03
   216   -7.624038047511e-03
   217    1.735361519379e-02
   218    5.881983724860e-03
   219   -9.281235710024e-04
   220   -6.622279151661e-04
   221   -3.575687753491e-04
   222   -7.662314401539e-03
   223   -5.469403798598e-03
   224   -2.950996851370e-03
   225    1.998668875508e-02
   226    1.426784803348e-02
   227    7.656864276146e-03
   228    7.168525108195e-03
   229    4.881067941106e-03
   230    2.655728914971e-03
   231   -1.536575734968e-02
   232   -1.033511108255e-02
   233   -5.417733708291e-03
   234   -4.044209787103e-02
   235   -2.875966875511e-02
   236   -1.499992996365e-02
   237   -1.967735122577e-02
   238   -1.485697781220e-02
   239    2.228282706128e-03
   240   -4.868700240306e-04
   241   -1.631482006688e-03
   242    3.374035651121e-03
   243    3.866377001898e-04
   244    1.506447787533e-03
   245   -1.195481226001e-04
   246   -2.860689548290e-04
   247    2.841510904635e-04
   248   -3.609745146977e-05
   249    2.072483990199e-04
   250    2.209092789252e-02
   251    7.341941802703e-03
   252    1.024974631313e-02
   253    3.482098147840e-03
   254    1.339893006307e-03
   255    3.808497044680e-03
   256   -6.273298038214e-03
   257    2.703773262715e-04
   258   -3.906402711699e-03
Sym=X
Ene= -0.347000
Spin=Alpha
Occup=1
     1    3.246409910827e-03
     2    5.063622548798e-03
     3   -2.093919374423e-02
     4   -1.481213473476e-02
     5    2.695017452768e-02
     6   -1.180103469175e-02
     7   -2.804083489634e-02
     8   -2.023001178235e-02
     9    4.403327465130e-02
    10   -1.125945624008e-01
    11   -7.166022934001e-02
    12   -2.449922947314e-02
    13    3.668263584726e-02
    14   -5.170823443808e-01
    15   -1.713169564007e-01
    16   -4.925992725910e-02
    17    1.543851024909e-03
    18    5.373812436098e-04
    19   -3.658180164403e-03
    20   -3.636549431156e-03
    21   -7.767789529417e-04
    22    3.503511048887e-03
    23   -4.255996644739e-03
    24   -7.047219408467e-03
    25    2.587055977377e-02
    26    1.849626224341e-02
    27   -1.082826242674e-02
    28    2.142323420701e-02
    29    4.474099463497e-02
    30    2.991193436146e-02
    31   -1.948168970626e-02
    32    5.212209071420e-02
    33   -8.108378919058e-02
    34    5.530637023938e-02
    35   -7.603912677578e-03
    36    4.727590226913e-01
    37   -2.702498755691e-01
    38    9.302306869810e-02
    39    1.132022983788e-02
    40    7.708781872342e-04
    41   -5.527980160755e-03
    42    4.193734804958e-03
    43   -5.479488639953e-03
    44    5.981642464700e-03
    45   -3.761612752388e-04
    46   -4.267633326221e-04
    47   -7.293882720781e-03
    48   -5.457588695655e-03
    49   -4.747410635917e-02
    50   -5.344646864128e-03
    51   -1.329960442317e-02
    52   -4.420143979790e-03
    53   -7.626796791765e-02
    54    1.175405029167e-01
    55    4.965303976145e-02
    56    3.413969065706e-02
    57   -6.919138227580e-02
    58    1.100946606540e+00
    59    6.068732848519e-02
    60   -2.831981190567e-01
    61   -3.817536669006e-02
    62    1.686883916993e-03
    63    3.828205113215e-04
    64    4.288077544539e-03
    65   -2.479536471276e-03
    66    1.612773158231e-04
    67   -1.557631233916e-03
    68   -2.468899197443e-03
    69    1.459783101761e-02
    70    1.434346036512e-02
    71    4.042674132570e-02
    72    6.534183282511e-03
    73    2.160453713722e-02
    74    2.102686049628e-02
    75    6.588290944081e-02
    76    6.186440609162e-03
    77    4.101618518563e-02
    78    4.965895458706e-03
    79    5.537496806078e-02
    80   -1.615446482695e-02
    81    4.298365667707e-02
    82   -2.919404951388e-02
    83    3.851793215877e-03
    84    1.481051715036e-04
    85    2.076730951929e-03
    86    9.766895998952e-04
    87   -3.631390865273e-03
    88    8.607222344848e-04
    89   -6.630580658791e-03
    90   -3.875812755369e-03
    91   -4.421152195579e-03
    92    2.577518457783e-02
    93    3.904357880542e-02
    94    6.216150909483e-04
    95   -1.259075929563e-02
    96   -1.160956688088e-02
    97   -3.332004194185e-03
    98    1.162326482716e-03
    99    1.745554352314e-03
   100    1.053631837081e-02
   101    4.243886839581e-03
   102    1.130740311282e-02
   103   -1.347615891559e-03
   104    1.592885463576e-02
   105    9.004061322523e-03
   106    1.876180811520e-02
   107   -6.946978938436e-02
   108    3.387335104376e-02
   109   -4.212455381678e-02
   110   -7.270094347041e-03
   111   -2.558664034028e-01
   112   -7.470845053595e-03
   113    1.252619131169e-01
   114    4.380713979444e-02
   115    3.237729177099e-02
   116    1.387726505526e-02
   117    2.522423387606e-02
   118    1.492800904014e-02
   119    1.716245421919e-02
   120    9.038280620258e-04
   121    1.425300208520e-03
   122   -7.721431852584e-02
   123    2.324488427135e-02
   124   -1.710754866350e-01
   125   -4.811416461916e-03
   126   -1.142055824684e-01
   127    3.481149153172e-02
   128   -2.529749861656e-01
   129   -2.923180166923e-02
   130   -1.073963705734e-01
   131    3.619257568385e-02
   132   -2.441561052073e-01
   133    1.467981678799e-01
   134   -2.786515124524e-02
   135    1.637374594576e-02
   136   -6.378922630184e-03
   137   -9.058705807756e-03
   138    5.184093612764e-03
   139   -6.984545244904e-03
   140    1.489870162511e-03
   141   -5.495485692187e-03
   142   -7.764069525015e-04
   143   -1.257681026745e-03
   144    6.765036850038e-02
   145   -1.483104086035e-01
   146    1.428422514042e-01
   147    5.297027298181e-03
   148    1.010158737048e-01
   149   -2.189642442632e-01
   150    2.118512521320e-01
   151    2.551652734985e-02
   152    8.705681013155e-02
   153   -2.137098832729e-01
   154    2.023450888688e-01
   155   -2.550046589830e-02
   156    6.635652263987e-03
   157   -9.924529059505e-03
   158    2.124188927936e-02
   159   -8.469322378305e-03
   160   -7.805565434944e-03
   161   -4.711368075809e-03
   162   -1.114358526941e-02
   163    1.548825559152e-03
   164   -4.016181642462e-04
   165   -6.910039963028e-04
   166   -5.430710827071e-03
   167   -6.229121249790e-03
   168    1.742426877608e-02
   169    2.682375923667e-03
   170   -8.040678296170e-03
   171   -9.717308061671e-03
   172    2.739700295290e-02
   173   -4.868706647818e-02
   174   -2.897735812674e-02
   175   -1.337937949774e-02
   176    3.062998369189e-02
   177   -3.468712605609e-01
   178   -9.058228188289e-02
   179    3.815658124804e-02
   180    4.237254905755e-03
   181    4.275108212126e-04
   182   -5.052062483488e-03
   183    4.015564777780e-03
   184   -2.985591284774e-03
   185    3.032022325621e-03
   186    9.607435860463e-03
   187    1.530347482516e-02
   188   -1.362162117797e-03
   189    3.976211897875e-03
   190    6.302096264178e-03
   191    2.346108702793e-03
   192    9.415273953342e-03
   193   -2.955900493094e-02
   194   -1.760695818832e-02
   195    4.248065413650e-03
   196    1.673400632447e-02
   197   -4.636881574028e-02
   198    2.960212515205e-02
   199   -3.798451334401e-02
   200    1.169866894791e-02
   201   -4.244837573223e-02
   202   -4.592105843855e-01
   203   -2.569258623099e-01
   204   -2.580014923506e-01
   205    1.292886176503e-02
   206    6.118366267645e-04
   207   -6.714186757449e-03
   208   -2.857719253405e-03
   209   -1.580389091368e-04
   210    2.199697372177e-03
   211   -3.528239341911e-04
   212   -1.142231909118e-03
   213    3.087591562894e-03
   214    3.813031562360e-03
   215   -7.619872511420e-03
   216   -9.503933058271e-03
   217    1.797864395727e-02
   218    1.886560488140e-02
   219   -6.813216361968e-04
   220   -1.093973370706e-03
   221   -8.462214223353e-04
   222   -5.621383284372e-03
   223   -9.012577496375e-03
   224   -6.980403983109e-03
   225    1.468030432389e-02
   226    2.334662375246e-02
   227    1.812163667879e-02
   228    5.767463834264e-03
   229    9.990771031984e-03
   230    6.763971794457e-03
   231   -1.287042361116e-02
   232   -2.158851530631e-02
   233   -1.430566761095e-02
   234   -2.744261151609e-02
   235   -4.003654781638e-02
   236   -3.358184282205e-02
   237   -1.737718833848e-02
   238   -2.165882129814e-02
   239   -1.633014046675e-02
   240   -1.467999723839e-03
   241   -1.834331783471e-04
   242    3.210897971390e-03
   243   -1.202672164430e-03
   244   -1.334734521580e-03
   245   -2.209079943636e-04
   246    1.765541086036e-04
   247    6.034744947559e-04
   248    2.115762173088e-04
   249   -2.005001987313e-04
   250   -9.711431768810e-02
   251    1.412678415844e-02
   252   -2.696557517845e-02
   253   -1.063359774960e-03
   254    2.954045604805e-03
   255   -5.687073728874e-04
   256   -7.146229032332e-03
   257    6.839389590997e-04
   258    2.528430319560e-03
Sym=X
Ene= -0.377028
Spin=Alpha
Occup=1
     1   -2.584888880220e-03
     2   -4.160174773519e-03
     3   -1.438995231802e-02
     4    8.188934538921e-03
     5    1.754486497372e-02
     6    1.111284939527e-02
     7   -2.187456872905e-02
     8    1.330355681192e-02
     9    2.902194674069e-02
    10    6.760008905247e-03
    11   -1.505324070006e-02
    12    1.236095012536e-02
    13    6.064705270069e-03
    14   -2.406087198568e-02
    15   -6.388178629118e-03
    16   -4.720332868430e-03
    17    5.646889283062e-03
    18   -5.821089528734e-04
    19   -3.156300335147e-03
    20   -7.648573176848e-03
    21   -1.282936173975e-03
    22   -2.773475425900e-03
    23    2.073407541981e-03
    24    3.315472768841e-03
    25    8.078567686896e-03
    26   -1.312996264189e-02
    27    4.627719680715e-03
    28   -9.489920193281e-03
    29    1.206143647627e-02
    30   -2.058993748667e-02
    31    7.535263113347e-03
    32    5.338503241918e-03
    33    1.362941318090e-03
    34   -2.087167926952e-02
    35   -1.094053006640e-02
    36   -9.838450361925e-02
    37   -4.046308422204e-02
    38    2.266741372518e-02
    39   -1.709195966769e-02
    40   -1.223837765083e-04
    41    1.317678599408e-04
    42   -5.900067556511e-03
    43   -1.056331883879e-03
    44   -2.719506273065e-03
    45   -1.270555108069e-03
    46   -1.976688044574e-03
    47   -1.236781021329e-02
    48    8.448639397797e-03
    49    5.346503894220e-02
    50    5.606591687104e-03
    51   -2.072844697412e-02
    52    1.243496394613e-02
    53    8.867010213977e-02
    54   -3.414332544457e-02
    55   -3.429443505190e-04
    56    4.446379297868e-03
    57    4.283886335746e-02
    58   -1.143688887077e-01
    59    3.876514577790e-02
    60    1.165768888556e-01
    61    3.801941212268e-02
    62    7.315894451968e-04
    63   -9.680374963515e-03
    64   -1.319637537942e-02
    65   -7.846773309913e-05
    66    7.247804762649e-04
    67    4.895267854674e-03
    68    7.750190144659e-03
    69   -2.510328095403e-03
    70    9.337489929132e-03
    71    7.142361732735e-02
    72   -2.135702121292e-02
    73   -2.908028086395e-03
    74    1.353285743758e-02
    75    1.172147478744e-01
    76   -2.278475841289e-02
    77   -2.920772003271e-03
    78    1.134850065773e-02
    79    8.246103617045e-02
    80   -2.641557745462e-02
    81    2.089680808153e-03
    82    7.227256910617e-03
    83   -1.080825174488e-02
    84   -5.529575894837e-05
    85    7.906586074900e-03
    86   -1.034586585044e-02
    87   -2.118590912871e-03
    88   -2.499944792972e-04
    89    1.466916011152e-02
    90    1.812695546969e-02
    91    2.297110582328e-03
    92   -7.452710282248e-03
    93   -7.400237189943e-03
    94    2.706937988251e-03
    95   -2.641812431760e-03
    96   -2.502312073191e-03
    97   -5.690098601923e-04
    98    2.140943778209e-04
    99    3.782216620918e-04
   100    9.192522212119e-03
   101   -3.751918957844e-03
   102   -3.344306743737e-02
   103   -1.251251741801e-03
   104    1.478313680590e-02
   105   -6.582908044544e-03
   106   -5.302243581783e-02
   107   -9.011958003681e-04
   108    3.839168541039e-03
   109    6.285065159110e-03
   110   -3.559326172093e-02
   111    2.233324062191e-02
   112   -1.440774515446e-02
   113   -2.748926292427e-02
   114   -2.357689558192e-02
   115    4.675415827816e-03
   116   -7.104063047660e-03
   117    3.216517433131e-03
   118   -9.629907241016e-04
   119   -9.900215819173e-04
   120    3.704654055763e-03
   121    6.043720893772e-03
   122   -2.412702337203e-02
   123    3.447377645563e-02
   124   -2.627076271303e-02
   125   -1.732732525344e-02
   126   -3.591148584864e-02
   127    5.074619200990e-02
   128   -3.998433468854e-02
   129   -2.501076904131e-02
   130   -2.582135119022e-02
   131    3.770414394006e-02
   132   -3.792190894421e-02
   133   -3.886208489160e-02
   134    4.009083553769e-03
   135   -4.824207251782e-03
   136   -4.011452733358e-03
   137   -3.503245887565e-03
   138    6.056994735201e-04
   139   -1.209972157586e-03
   140   -1.885308283258e-03
   141   -3.157451636875e-03
   142   -2.055481849525e-03
   143   -3.372158687485e-03
   144   -1.093978161227e-03
   145    1.242265728601e-02
   146    7.999951723223e-03
   147    1.025175020278e-02
   148   -1.338649292651e-03
   149    1.819129050518e-02
   150    1.119744090494e-02
   151    1.317244351698e-02
   152   -4.915702345145e-03
   153    1.035313304769e-02
   154    1.341887947347e-02
   155    2.501295683634e-02
   156   -1.299755206927e-03
   157   -6.258690911555e-03
   158    3.551223725712e-03
   159    1.396058200263e-03
   160   -1.886268132891e-05
   161    6.583801199272e-05
   162    9.311333977189e-04
   163   -1.063259026667e-03
   164   -3.960160069047e-03
   165   -6.350964893692e-03
   166    6.941593547577e-03
   167   -1.438690895787e-02
   168    1.214681777052e-01
   169    1.780727331140e-02
   170    9.609035602496e-03