[Molden Format]
[Atoms] (Angs)
  C      1    6      0.78808821      1.24068913      0.02492945
  C      2    6      2.17658059      1.20482783      0.01961732
  C      3    6      2.84604848     -0.01987894     -0.00618268
  C      4    6      0.06874473      0.04470619      0.01965705
  H      5    1      0.27342680      2.19328085      0.03465240
  H      6    1      2.76334949      2.11354885      0.03637404
  H      7    1     -1.01469187      0.05821664      0.02642497
  N      8    7      4.30685693      0.04595834     -0.03962592
  O      9    8      4.93785288     -0.87773037     -0.59362170
  O     10    8      4.84651823      1.05363205      0.47829467
  C     11    6      0.74008238     -1.17504363      0.01238440
  H     12    1      0.18852059     -2.10639187      0.02395406
  C     13    6      2.13307197     -1.21959994     -0.00494717
 Br     14   35      2.92645518     -2.95940256      0.03206369
[GTO]
1    0
S    6    1.000000
   4.56324000E+03    1.96665000E-03 
   6.82024000E+02    1.52306000E-02 
   1.54973000E+02    7.61269000E-02 
   4.44553000E+01    2.60801000E-01 
   1.30290000E+01    6.16462000E-01 
   1.82773000E+00    2.21006000E-01 
SP   3    1.000000
   2.09642000E+01    1.14660000E-01   4.02487000E-02 
   4.80331000E+00    9.19999000E-01   2.37594000E-01 
   1.45933000E+00   -3.03068000E-03   8.15854000E-01 
SP   1    1.000000
   4.83456000E-01    1.00000000E+00   1.00000000E+00 
SP   1    1.000000
   1.45585000E-01    1.00000000E+00   1.00000000E+00 
SP   1    1.000000
   4.38000000E-02    1.00000000E+00   1.00000000E+00 
D    1    1.000000
   6.26000000E-01    1.00000000E+00 

2    0
S    6    1.000000
   4.56324000E+03    1.96665000E-03 
   6.82024000E+02    1.52306000E-02 
   1.54973000E+02    7.61269000E-02 
   4.44553000E+01    2.60801000E-01 
   1.30290000E+01    6.16462000E-01 
   1.82773000E+00    2.21006000E-01 
SP   3    1.000000
   2.09642000E+01    1.14660000E-01   4.02487000E-02 
   4.80331000E+00    9.19999000E-01   2.37594000E-01 
   1.45933000E+00   -3.03068000E-03   8.15854000E-01 
SP   1    1.000000
   4.83456000E-01    1.00000000E+00   1.00000000E+00 
SP   1    1.000000
   1.45585000E-01    1.00000000E+00   1.00000000E+00 
SP   1    1.000000
   4.38000000E-02    1.00000000E+00   1.00000000E+00 
D    1    1.000000
   6.26000000E-01    1.00000000E+00 

3    0
S    6    1.000000
   4.56324000E+03    1.96665000E-03 
   6.82024000E+02    1.52306000E-02 
   1.54973000E+02    7.61269000E-02 
   4.44553000E+01    2.60801000E-01 
   1.30290000E+01    6.16462000E-01 
   1.82773000E+00    2.21006000E-01 
SP   3    1.000000
   2.09642000E+01    1.14660000E-01   4.02487000E-02 
   4.80331000E+00    9.19999000E-01   2.37594000E-01 
   1.45933000E+00   -3.03068000E-03   8.15854000E-01 
SP   1    1.000000
   4.83456000E-01    1.00000000E+00   1.00000000E+00 
SP   1    1.000000
   1.45585000E-01    1.00000000E+00   1.00000000E+00 
SP   1    1.000000
   4.38000000E-02    1.00000000E+00   1.00000000E+00 
D    1    1.000000
   6.26000000E-01    1.00000000E+00 

4    0
S    6    1.000000
   4.56324000E+03    1.96665000E-03 
   6.82024000E+02    1.52306000E-02 
   1.54973000E+02    7.61269000E-02 
   4.44553000E+01    2.60801000E-01 
   1.30290000E+01    6.16462000E-01 
   1.82773000E+00    2.21006000E-01 
SP   3    1.000000
   2.09642000E+01    1.14660000E-01   4.02487000E-02 
   4.80331000E+00    9.19999000E-01   2.37594000E-01 
   1.45933000E+00   -3.03068000E-03   8.15854000E-01 
SP   1    1.000000
   4.83456000E-01    1.00000000E+00   1.00000000E+00 
SP   1    1.000000
   1.45585000E-01    1.00000000E+00   1.00000000E+00 
SP   1    1.000000
   4.38000000E-02    1.00000000E+00   1.00000000E+00 
D    1    1.000000
   6.26000000E-01    1.00000000E+00 

5    0
S    3    1.000000
   3.38650000E+01    2.54938000E-02 
   5.09479000E+00    1.90373000E-01 
   1.15879000E+00    8.52161000E-01 
S    1    1.000000
   3.25840000E-01    1.00000000E+00 
S    1    1.000000
   1.02741000E-01    1.00000000E+00 

6    0
S    3    1.000000
   3.38650000E+01    2.54938000E-02 
   5.09479000E+00    1.90373000E-01 
   1.15879000E+00    8.52161000E-01 
S    1    1.000000
   3.25840000E-01    1.00000000E+00 
S    1    1.000000
   1.02741000E-01    1.00000000E+00 

7    0
S    3    1.000000
   3.38650000E+01    2.54938000E-02 
   5.09479000E+00    1.90373000E-01 
   1.15879000E+00    8.52161000E-01 
S    1    1.000000
   3.25840000E-01    1.00000000E+00 
S    1    1.000000
   1.02741000E-01    1.00000000E+00 

8    0
S    6    1.000000
   6.29348000E+03    1.96979000E-03 
   9.49044000E+02    1.49613000E-02 
   2.18776000E+02    7.35006000E-02 
   6.36916000E+01    2.48937000E-01 
   1.88282000E+01    6.02460000E-01 
   2.72023000E+00    2.56202000E-01 
SP   3    1.000000
   3.06331000E+01    1.11906000E-01   3.83119000E-02 
   7.02614000E+00    9.21666000E-01   2.37403000E-01 
   2.11205000E+00   -2.56919000E-03   8.17592000E-01 
SP   1    1.000000
   6.84009000E-01    1.00000000E+00   1.00000000E+00 
SP   1    1.000000
   2.00878000E-01    1.00000000E+00   1.00000000E+00 
SP   1    1.000000
   6.39000000E-02    1.00000000E+00   1.00000000E+00 
D    1    1.000000
   9.13000000E-01    1.00000000E+00 

9    0
S    6    1.000000
   8.58850000E+03    1.89515000E-03 
   1.29723000E+03    1.43859000E-02 
   2.99296000E+02    7.07320000E-02 
   8.73771000E+01    2.40001000E-01 
   2.56789000E+01    5.94797000E-01 
   3.74004000E+00    2.80802000E-01 
SP   3    1.000000
   4.21175000E+01    1.13889000E-01   3.65114000E-02 
   9.62837000E+00    9.20811000E-01   2.37153000E-01 
   2.85332000E+00   -3.27447000E-03   8.19702000E-01 
SP   1    1.000000
   9.05661000E-01    1.00000000E+00   1.00000000E+00 
SP   1    1.000000
   2.55611000E-01    1.00000000E+00   1.00000000E+00 
SP   1    1.000000
   8.45000000E-02    1.00000000E+00   1.00000000E+00 
D    1    1.000000
   1.29200000E+00    1.00000000E+00 

10    0
S    6    1.000000
   8.58850000E+03    1.89515000E-03 
   1.29723000E+03    1.43859000E-02 
   2.99296000E+02    7.07320000E-02 
   8.73771000E+01    2.40001000E-01 
   2.56789000E+01    5.94797000E-01 
   3.74004000E+00    2.80802000E-01 
SP   3    1.000000
   4.21175000E+01    1.13889000E-01   3.65114000E-02 
   9.62837000E+00    9.20811000E-01   2.37153000E-01 
   2.85332000E+00   -3.27447000E-03   8.19702000E-01 
SP   1    1.000000
   9.05661000E-01    1.00000000E+00   1.00000000E+00 
SP   1    1.000000
   2.55611000E-01    1.00000000E+00   1.00000000E+00 
SP   1    1.000000
   8.45000000E-02    1.00000000E+00   1.00000000E+00 
D    1    1.000000
   1.29200000E+00    1.00000000E+00 

11    0
S    6    1.000000
   4.56324000E+03    1.96665000E-03 
   6.82024000E+02    1.52306000E-02 
   1.54973000E+02    7.61269000E-02 
   4.44553000E+01    2.60801000E-01 
   1.30290000E+01    6.16462000E-01 
   1.82773000E+00    2.21006000E-01 
SP   3    1.000000
   2.09642000E+01    1.14660000E-01   4.02487000E-02 
   4.80331000E+00    9.19999000E-01   2.37594000E-01 
   1.45933000E+00   -3.03068000E-03   8.15854000E-01 
SP   1    1.000000
   4.83456000E-01    1.00000000E+00   1.00000000E+00 
SP   1    1.000000
   1.45585000E-01    1.00000000E+00   1.00000000E+00 
SP   1    1.000000
   4.38000000E-02    1.00000000E+00   1.00000000E+00 
D    1    1.000000
   6.26000000E-01    1.00000000E+00 

12    0
S    3    1.000000
   3.38650000E+01    2.54938000E-02 
   5.09479000E+00    1.90373000E-01 
   1.15879000E+00    8.52161000E-01 
S    1    1.000000
   3.25840000E-01    1.00000000E+00 
S    1    1.000000
   1.02741000E-01    1.00000000E+00 

13    0
S    6    1.000000
   4.56324000E+03    1.96665000E-03 
   6.82024000E+02    1.52306000E-02 
   1.54973000E+02    7.61269000E-02 
   4.44553000E+01    2.60801000E-01 
   1.30290000E+01    6.16462000E-01 
   1.82773000E+00    2.21006000E-01 
SP   3    1.000000
   2.09642000E+01    1.14660000E-01   4.02487000E-02 
   4.80331000E+00    9.19999000E-01   2.37594000E-01 
   1.45933000E+00   -3.03068000E-03   8.15854000E-01 
SP   1    1.000000
   4.83456000E-01    1.00000000E+00   1.00000000E+00 
SP   1    1.000000
   1.45585000E-01    1.00000000E+00   1.00000000E+00 
SP   1    1.000000
   4.38000000E-02    1.00000000E+00   1.00000000E+00 
D    1    1.000000
   6.26000000E-01    1.00000000E+00 

14    0
S    6    1.000000
   4.39700000E+05    8.13000000E-04 
   6.60300000E+04    6.28500000E-03 
   1.51400000E+04    3.19200000E-02 
   4.31700000E+03    1.28800000E-01 
   1.41400000E+03    3.94600000E-01 
   5.23900000E+02    5.41300000E-01 
S    3    1.000000
   5.23900000E+02    1.83100000E-01 
   2.07700000E+02    6.17600000E-01 
   8.65400000E+01    2.53800000E-01 
S    1    1.000000
   3.05200000E+01    1.00000000E+00 
S    1    1.000000
   1.29800000E+01    1.00000000E+00 
S    1    1.000000
   4.41200000E+00    1.00000000E+00 
S    1    1.000000
   1.86200000E+00    1.00000000E+00 
S    1    1.000000
   3.93200000E-01    1.00000000E+00 
S    1    1.000000
   1.40000000E-01    1.00000000E+00 
P    3    1.000000
   2.95700000E+03    2.22600000E-02 
   7.00300000E+02    1.80200000E-01 
   2.24600000E+02    8.62400000E-01 
P    3    1.000000
   8.25900000E+01    3.44000000E-01 
   3.31900000E+01    5.07100000E-01 
   1.42000000E+01    2.59000000E-01 
P    3    1.000000
   1.42000000E+01    7.96500000E-02 
   7.43800000E+00    3.73400000E-01 
   3.52600000E+00    6.04900000E-01 
P    1    1.000000
   1.59500000E+00    1.00000000E+00 
P    1    1.000000
   8.46200000E-01    1.00000000E+00 
P    1    1.000000
   3.18600000E-01    1.00000000E+00 
P    1    1.000000
   1.09600000E-01    1.00000000E+00 
D    4    1.000000
   1.34800000E+02    1.83100000E-02 
   3.63900000E+01    1.35000000E-01 
   1.21600000E+01    4.26100000E-01 
   4.34100000E+00    6.04300000E-01 
D    1    1.000000
   1.53500000E+00    1.00000000E+00 
SP   1    1.000000
   3.90000000E-02    1.00000000E+00   1.00000000E+00 
D    1    1.000000
   4.15000000E-01    1.00000000E+00 

[MO]
Sym=X
Ene= -0.144184
Spin=Alpha
Occup=1
     1    7.259507700725e-04
     2    1.110550287623e-03
     3    1.315921632911e-02
     4    3.652651820522e-03
     5    4.055905526492e-02
     6   -1.185199738531e-03
     7    1.968914641622e-02
     8    5.998280991889e-03
     9    6.635813135024e-02
    10   -8.200774915059e-02
    11   -2.344687375161e-02
    12    6.031259405220e-03
    13    5.857522815191e-02
    14   -1.570616357879e-01
    15   -1.054125195869e-01
    16   -5.423596936808e-02
    17    8.254614442290e-04
    18    5.951301318871e-04
    19    6.994058740183e-03
    20    1.974861505524e-03
    21   -1.304193835059e-03
    22    1.270750544596e-03
    23    1.679435146619e-03
    24    2.592166880801e-03
    25   -9.730736775816e-03
    26    2.237963466563e-02
    27    5.555411906037e-02
    28   -6.216112624669e-03
    29   -1.137184926959e-02
    30    3.338929524138e-02
    31    9.018729031874e-02
    32    2.697911866700e-02
    33   -7.969589728692e-02
    34    3.320512118193e-02
    35    8.064242921214e-02
    36   -2.847332038701e-01
    37   -1.794650545653e-01
    38    1.513224631530e-01
    39    1.702388326292e-02
    40    2.989036451528e-04
    41   -3.274071581571e-03
    42   -9.628590902806e-04
    43    1.146240958961e-03
    44    1.813534016407e-04
    45   -1.192075125685e-02
    46   -1.928351741320e-02
    47    3.999797658400e-02
    48   -2.126331772694e-02
    49    1.258216843451e-02
    50    5.320339887386e-02
    51    7.061575093958e-02
    52   -3.088519009754e-02
    53    2.040706031509e-02
    54    2.554300005129e-01
    55    1.163097468546e-01
    56   -3.472533010516e-02
    57    1.926736361545e-02
    58    1.049933738968e+00
    59   -1.541012109268e-01
    60    5.947201155986e-02
    61   -1.009433285856e-02
    62   -1.957468494039e-04
    63    1.094174355722e-03
    64    1.132498985345e-02
    65    6.169065445004e-03
    66   -1.997520218728e-04
    67   -5.489951499445e-03
    68   -8.689870283871e-03
    69    1.502050597309e-02
    70   -2.539413351626e-02
    71   -1.732350053395e-02
    72    2.307983563605e-02
    73    2.185602673550e-02
    74   -3.706043420445e-02
    75   -2.833821918514e-02
    76    5.073539090082e-02
    77    4.975091532214e-02
    78   -2.812275046707e-02
    79   -2.333605292225e-02
    80    3.479936490044e-03
    81    1.041936782266e-02
    82   -6.717145714007e-02
    83    2.825032684226e-03
    84    7.439501614868e-05
    85   -8.553482347331e-04
    86    1.029654845990e-02
    87   -1.390138753546e-03
    88   -1.156479473173e-03
    89   -3.305155464866e-03
    90   -2.358205334345e-03
    91   -3.785441686883e-03
    92    5.747839802381e-03
    93    1.169155035754e-02
    94    8.240501907152e-03
    95   -8.708671156378e-03
    96   -7.139689351407e-03
    97    2.591400664141e-03
    98   -1.160793722086e-03
    99   -2.038029879647e-03
   100   -2.636694051182e-02
   101   -7.242042793921e-03
   102    6.761989158596e-03
   103    9.256280024572e-03
   104   -4.340007299750e-02
   105   -1.352289245568e-02
   106    1.039486464544e-02
   107   -3.250866158631e-02
   108    4.992947956346e-02
   109    8.705125216857e-03
   110    1.234159835137e-02
   111   -7.900913823399e-02
   112    1.067823744456e-01
   113    4.906171700688e-02
   114   -2.824768758847e-03
   115    1.814799057995e-02
   116   -3.463561640147e-03
   117    4.581292007088e-03
   118    3.274360261353e-02
   119    2.558881974867e-03
   120   -1.518187279473e-03
   121   -2.610700328075e-03
   122    8.799811938998e-02
   123    8.520727913583e-02
   124   -9.816747693765e-02
   125    8.906284269372e-03
   126    1.286981139770e-01
   127    1.258347112971e-01
   128   -1.445743281568e-01
   129    6.812279399223e-03
   130    1.158263465455e-01
   131    1.201832036002e-01
   132   -1.430183619703e-01
   133   -8.634605398923e-03
   134   -4.129881507220e-03
   135   -1.059993368169e-02
   136   -1.133932232827e-02
   137   -4.331117360530e-03
   138    6.778493367691e-03
   139   -2.052751411099e-03
   140   -6.347381448884e-03
   141   -6.278469818851e-04
   142    7.471845747007e-04
   143    1.183140792622e-03
   144    7.699306370772e-02
   145   -5.166870908086e-02
   146    9.868609154208e-02
   147   -4.630298683338e-03
   148    1.129029813388e-01
   149   -7.699668519486e-02
   150    1.460055233501e-01
   151   -1.736305212566e-02
   152    1.033345617692e-01
   153   -7.157193120969e-02
   154    1.406746057049e-01
   155   -3.931431780748e-02
   156   -5.884416456322e-03
   157    4.338007419177e-03
   158    2.108183940259e-02
   159   -4.705320393270e-03
   160   -6.286297196291e-03
   161   -4.240053163562e-03
   162   -4.893982931354e-03
   163   -1.025328061951e-03
   164    2.462868001898e-03
   165    3.930285796209e-03
   166   -1.968564460775e-02
   167    2.782870235763e-02
   168   -6.263846550955e-02
   169   -9.918665686303e-03
   170   -2.711833957634e-02
   171    4.414539379752e-02
   172   -1.022777267318e-01
   173   -1.474331409623e-01
   174   -5.842197440319e-02
   175    1.165310046596e-02
   176   -8.590232457668e-02
   177    2.897006244381e-01
   178    1.150293249617e-01
   179   -3.364659225734e-02
   180   -1.780291891778e-02
   181    1.086281047663e-04
   182   -4.864946257420e-03
   183   -8.081549037789e-04
   184   -1.988656437749e-03
   185   -4.779528388927e-03
   186   -1.466286636946e-02
   187   -1.505260313065e-02
   188   -2.214383914727e-02
   189    2.462887630610e-03
   190    3.805790308844e-03
   191    1.443979637023e-02
   192   -4.018641519677e-03
   193   -5.585945508011e-02
   194   -9.731622007276e-03
   195    2.731617442062e-02
   196   -4.685048734891e-03
   197   -9.029516373605e-02
   198    2.783381781523e-02
   199   -1.090100436370e-01
   200   -2.938549545761e-02
   201   -7.788337397025e-02
   202   -6.747196795591e-01
   203    1.668436805033e-01
   204   -1.786786521619e-01
   205    1.143172344427e-02
   206   -1.633953042650e-04
   207    7.657406797067e-03
   208    2.429398278862e-03
   209   -8.571509653418e-03
   210    6.394888386015e-03
   211   -4.346528179007e-04
   212   -1.408465614536e-03
   213    3.820046597920e-03
   214    4.626624670343e-03
   215   -9.112254408458e-03
   216   -1.224272879593e-02
   217    2.506264476630e-02
   218    1.443304163656e-02
   219   -6.908786781209e-03
   220   -2.929308376198e-03
   221   -7.005239074006e-04
   222   -5.702192683849e-02
   223   -2.416974876383e-02
   224   -5.779567427843e-03
   225    1.487962224544e-01
   226    6.299200766630e-02
   227    1.496546464509e-02
   228    5.590765026398e-02
   229    2.413943113311e-02
   230    5.295843067514e-03
   231   -1.224740430682e-01
   232   -5.284472992048e-02
   233   -1.084315773356e-02
   234   -2.895616352891e-01
   235   -1.177578999088e-01
   236   -2.790432973653e-02
   237   -1.669220196874e-01
   238   -7.145772512327e-02
   239   -4.896391271796e-03
   240   -6.463107578371e-04
   241   -2.902369380033e-03
   242    4.513446953097e-03
   243   -1.190966253635e-03
   244    3.419765770734e-03
   245   -1.750828321657e-04
   246   -3.787695226285e-04
   247    6.188943286874e-04
   248    2.127860830306e-04
   249    1.686385194060e-04
   250   -1.337236709213e-01
   251    5.635812114964e-03
   252   -3.997532772584e-02
   253    1.203912890767e-03
   254    1.559939858391e-03
   255    5.457700032883e-03
   256   -8.636145419449e-03
   257    1.982155187858e-03
   258   -7.761032653511e-03
Sym=X
Ene= -0.158257
Spin=Alpha
Occup=1
     1    1.747555209486e-03
     2    2.811127923222e-03
     3    3.781981815419e-02
     4   -3.679751022128e-03
     5   -5.844088535112e-03
     6   -6.918056915318e-03
     7    5.621294287522e-02
     8   -6.782204094314e-03
     9   -9.540151462294e-03
    10   -1.124775802065e-02
    11    3.721565633313e-02
    12   -7.222240209060e-03
    13   -1.097493610377e-02
    14    2.533175876695e-02
    15   -6.645204940224e-02
    16   -4.373888586101e-02
    17   -7.043026796888e-03
    18    4.790969416303e-04
    19   -1.774214926706e-02
    20   -1.017382011858e-02
    21    7.974487440055e-03
    22    2.749894345590e-03
    23   -3.633731176195e-03
    24   -5.651321611721e-03
    25   -3.782376667439e-02
    26   -2.039977839902e-03
    27   -1.039832182494e-01
    28    1.594182263194e-02
    29   -5.632429124360e-02
    30   -4.143215180979e-03
    31   -1.701936478673e-01
    32   -2.342193432470e-02
    33   -2.843395951175e-02
    34    1.064833736533e-02
    35   -1.457649713297e-01
    36   -3.976858512213e-01
    37   -1.149896821990e-01
    38    9.892647482001e-02
    39   -6.207046030763e-03
    40    1.174829535110e-03
    41   -5.638155094666e-03
    42    9.275683882130e-03
    43    2.160868554787e-03
    44    7.459108067650e-05
    45   -1.813836532440e-03
    46   -2.756158808393e-03
    47   -1.688640157523e-03
    48   -1.058038413516e-02
    49   -1.042775785905e-01
    50    7.143366177101e-03
    51   -4.240378239795e-04
    52   -1.628935634795e-02
    53   -1.716778552837e-01
    54    4.510299854608e-02
    55   -1.899641388542e-02
    56   -3.715328193888e-03
    57   -1.518378019555e-01
    58   -2.177829265942e-01
    59   -2.679754755319e-02
    60    4.035867566983e-01
    61   -3.194849290600e-03
    62    2.303765810592e-04
    63    1.686166459516e-03
    64   -1.253459231055e-02
    65    5.018561513693e-03
    66   -2.014841152930e-03
    67    4.340923817986e-04
    68    5.694449758226e-04
    69   -4.480652898855e-02
    70    4.880292118516e-03
    71    1.063174685162e-01
    72   -3.477155885472e-03
    73   -6.831733877590e-02
    74    6.243592342796e-03
    75    1.734795418019e-01
    76    4.834392193247e-02
    77   -3.363874928284e-02
    78   -6.261091336567e-03
    79    1.483726175940e-01
    80    1.085747009044e-01
    81   -4.597323955875e-03
    82   -1.085014781473e-01
    83    1.540914426047e-02
    84   -7.752579429554e-04
    85    4.951742864446e-03
    86   -1.291773147904e-02
    87    9.894003859515e-03
    88    2.542756103373e-03
    89   -2.210481428667e-02
    90   -3.015267842573e-02
    91   -9.782704976799e-03
    92   -1.511516708001e-02
    93   -2.092301027253e-02
    94   -6.703968243095e-03
    95    4.080993294608e-02
    96    5.453977036081e-02
    97    2.042647689913e-02
    98   -6.882411931101e-04
    99   -1.149573140306e-03
   100   -1.229891300081e-02
   101   -1.290782056313e-02
   102    6.088211868547e-03
   103    3.805044965297e-03
   104   -1.855449979275e-02
   105   -2.083761981536e-02
   106    9.233858986294e-03
   107    6.364506385144e-03
   108   -1.551488620895e-02
   109   -1.479018629154e-02
   110    1.183851825116e-02
   111    3.114328069531e-02
   112    7.152938612213e-03
   113   -2.029179701212e-02
   114    3.015727821916e-02
   115    9.740534282778e-04
   116    1.037067289288e-02
   117    1.152213770667e-03
   118    9.907561037437e-04
   119   -6.370822252519e-03
   120   -1.207378297145e-03
   121   -2.080853146242e-03
   122    2.635020490330e-02
   123   -3.126105179571e-04
   124    2.981147339431e-02
   125    8.085954076900e-03
   126    3.928979325886e-02
   127   -8.857977646430e-04
   128    4.455680668543e-02
   129    2.753934363488e-03
   130    3.927715453302e-02
   131    8.674405282534e-04
   132    4.115417268012e-02
   133    8.878775831917e-03
   134   -6.754096419073e-04
   135   -7.932523359499e-03
   136   -5.354610548178e-03
   137    2.343699233608e-03
   138   -2.993178351140e-04
   139    1.984387238858e-03
   140    3.395594509087e-04
   141    2.678823461867e-04
   142   -4.632524201586e-03
   143   -7.603828633650e-03
   144   -2.358636672786e-02
   145    4.795627065003e-03
   146    4.841086204684e-02
   147    2.350329130614e-02
   148   -3.615539670241e-02
   149    6.213409916619e-03
   150    7.162461552465e-02
   151    3.173813361396e-02
   152   -3.463945196607e-02
   153    2.369427664598e-03
   154    6.440433055657e-02
   155   -7.875201453488e-03
   156   -6.235401428876e-03
   157   -1.389541121094e-03
   158   -3.271980387491e-03
   159   -2.171905944830e-03
   160   -6.326436700200e-04
   161   -3.399857142515e-03
   162    3.045171255129e-04
   163    1.214299293303e-03
   164    1.095371426670e-02
   165    1.737374401213e-02
   166    1.108491797823e-02
   167   -1.844152540220e-02
   168    1.214428344504e-01
   169   -4.778919672781e-02
   170    1.591556375546e-02
   171   -2.301366988119e-02
   172    1.977112641434e-01
   173   -1.042649186348e-01
   174   -3.047240908468e-03
   175   -3.187051695565e-02
   176    1.761106873530e-01
   177    2.022471336526e-01
   178    1.729038593589e-01
   179   -1.194626087096e-01
   180    1.510264882891e-02
   181   -1.363666805465e-04
   182   -3.965947017093e-03
   183    9.369204055357e-03
   184    4.854860438429e-03
   185   -1.942208826345e-03
   186   -1.905537239866e-03
   187   -2.567746869282e-03
   188   -7.548469733827e-03
   189   -2.000491511827e-03
   190   -3.275076715656e-03
   191   -7.777316785926e-03
   192    1.179027136336e-03
   193    1.715549337010e-02
   194    1.035611306965e-02
   195   -6.656766486659e-03
   196    4.433633496510e-03
   197    2.760746415029e-02
   198    1.982429395550e-02
   199   -5.527887386718e-02
   200   -9.698556612767e-03
   201    2.572951880077e-02
   202    2.465996114018e-01
   203    3.048025485546e-01
   204    1.913301692134e-01
   205   -1.399685391355e-02
   206    2.188305356938e-04
   207   -2.164632599534e-02
   208   -8.365760973137e-03
   209   -8.235233693399e-03
   210    8.299918118810e-03
   211   -4.953859058849e-05
   212   -1.596493483589e-04
   213    4.240382906016e-04
   214    5.645611925503e-04
   215   -1.165909747642e-03
   216   -1.002049253574e-03
   217    3.537696873431e-04
   218    8.230350334883e-03
   219   -5.337142008699e-03
   220   -2.674158711622e-03
   221   -1.297853878188e-03
   222   -4.404756229034e-02
   223   -2.206969148045e-02
   224   -1.071704240496e-02
   225    1.149345988167e-01
   226    5.758082317511e-02
   227    2.803741484168e-02
   228    4.346721775418e-02
   229    2.193507359210e-02
   230    1.038088266964e-02
   231   -9.545730600837e-02
   232   -4.819040915762e-02
   233   -2.314256439490e-02
   234   -2.219328653170e-01
   235   -1.105524589683e-01
   236   -5.568974573169e-02
   237   -1.348109155279e-01
   238   -6.458686848127e-02
   239   -3.770110229470e-02
   240    1.992381139696e-04
   241    1.584073022394e-03
   242   -1.078281314293e-03
   243   -2.891820112095e-03
   244    1.699436082395e-03
   245    1.538012200158e-04
   246    2.650784590362e-04
   247   -6.594018367060e-05
   248   -2.638722195566e-04
   249    1.118790811902e-05
   250    1.850723508156e-02
   251   -9.859678910124e-03
   252    1.174144199160e-03
   253    1.374281182129e-03
   254   -4.928648710065e-04
   255   -3.231405603025e-03
   256    8.300882023507e-04
   257    6.721634602515e-03
   258   -3.397788029336e-03
Sym=X
Ene= -0.206161
Spin=Alpha
Occup=1
     1    2.659267233712e-03
     2    4.299015233263e-03
     3   -1.058404987028e-02
     4   -6.026139008207e-03
     5    1.673182223236e-02
     6   -1.228101350856e-02
     7   -1.350580892647e-02
     8   -9.104978328946e-03
     9    2.696476738913e-02
    10    2.841985597008e-02
    11    8.968316498109e-03
    12    1.395999539977e-02
    13    2.581707849297e-02
    14    3.434024936074e-01
    15   -1.230636856823e-01
    16   -1.175376778879e-01
    17    1.297604900599e-02
    18   -2.092338040428e-05
    19    5.451465865811e-03
    20    2.298135272419e-03
    21   -1.092353915637e-03
    22   -1.373216356096e-04
    23    1.356223802787e-04
    24    2.842469179736e-04
    25    9.681118091727e-03
    26   -2.102149369957e-03
    27    3.738065439972e-02
    28   -2.112748866470e-03
    29    1.201982998473e-02
    30   -2.353727018976e-03
    31    6.137981915550e-02
    32    3.055768926212e-02
    33    8.838919930541e-02
    34   -1.167926163914e-02
    35    5.359768919168e-02
    36   -2.857998896881e-01
    37   -8.556187423440e-02
    38    1.125728967130e-01
    39   -7.891504319811e-03
    40   -6.661620762953e-04
    41   -7.654393941633e-04
    42   -1.706738868618e-03
    43   -3.958570127436e-03
    44    3.961053282395e-03
    45    1.121375041906e-03
    46    2.184300880047e-03
    47   -4.283795310898e-02
    48   -2.110939262773e-02
    49    2.003574248361e-02
    50   -7.590802354652e-03
    51   -6.766531951562e-02
    52   -2.642739821933e-02
    53    3.494439664793e-02
    54   -4.994904384888e-02
    55   -1.433431821655e-01
    56   -1.207024194260e-01
    57    2.450981469681e-02
    58   -7.553140799290e-01
    59   -6.713779553543e-02
    60    3.911750554657e-01
    61    2.087679934148e-02
    62    9.028656693671e-04
    63   -6.722189967425e-04
    64    6.007309593754e-03
    65   -6.915342035400e-03
    66   -1.244807319480e-03
    67   -3.141179963427e-03
    68   -5.008454618408e-03
    69    5.809778189282e-03
    70   -5.041652448559e-04
    71   -2.286815436061e-02
    72    1.322397421350e-02
    73    8.157527979602e-03
    74   -1.204094052947e-03
    75   -3.708531618728e-02
    76    5.698725734092e-02
    77    2.022517377008e-02
    78   -1.058177604150e-02
    79   -3.387408256475e-02
    80   -1.086394372435e-02
    81   -5.675208874335e-02
    82   -2.572477041313e-01
    83   -1.117065137795e-02
    84   -3.343555574569e-04
    85   -8.543666052007e-04
    86    5.559447788439e-03
    87   -1.859297716786e-03
    88    1.386287505787e-03
    89   -8.140189653326e-04
    90   -4.067669079071e-03
    91   -1.787851245351e-03
    92    9.342930609302e-03
    93    6.708938423539e-03
    94   -2.310445664101e-03
    95   -3.847758059588e-03
    96   -9.113246361574e-03
    97   -3.932924898326e-04
    98    1.537369163355e-03
    99    2.588925214798e-03
   100    2.017194730639e-02
   101    5.024714504047e-03
   102    8.246631437526e-03
   103   -9.063438985224e-03
   104    3.348467644108e-02
   105    7.680063203970e-03
   106    1.362532733622e-02
   107    5.415386766748e-03
   108   -5.364818164293e-02
   109   -9.323184065462e-03
   110    1.009441895709e-03
   111    7.467336434639e-02
   112   -4.215307977929e-02
   113    1.440897512568e-02
   114   -1.756506289149e-02
   115   -1.566823702649e-02
   116    5.139234960001e-03
   117   -9.361738106237e-04
   118   -3.147696964216e-02
   119    1.004872149067e-02
   120   -4.962547636346e-03
   121   -8.192116682426e-03
   122   -1.262670103370e-01
   123   -1.144132915436e-01
   124    5.116163743173e-02
   125    2.688396124193e-02
   126   -1.872605764361e-01
   127   -1.693531427024e-01
   128    7.630133008762e-02
   129    3.474074194452e-02
   130   -1.722150494889e-01
   131   -1.519820091522e-01
   132    7.837602404451e-02
   133    4.305490815873e-02
   134   -2.230268060719e-02
   135   -2.077330969661e-02
   136    1.614181798400e-02
   137    3.682972853030e-03
   138   -6.168758016833e-03
   139    2.551589020972e-04
   140    1.018597672921e-02
   141   -2.223040088154e-03
   142   -1.192633070649e-03
   143   -1.880839249635e-03
   144   -2.877395990285e-02
   145    1.587839437572e-02
   146   -1.165883261927e-01
   147    7.105577206573e-03
   148   -4.060948553045e-02
   149    2.436253813653e-02
   150   -1.723182970615e-01
   151    2.906494147966e-02
   152   -3.966534496861e-02
   153    1.957848147330e-02
   154   -1.692835638878e-01
   155    1.405493715309e-02
   156    3.425905784817e-03
   157   -6.044531926221e-03
   158   -1.079299059475e-02
   159    4.514318243540e-03
   160    4.716627031247e-03
   161    5.241213245156e-03
   162    1.582480987310e-03
   163   -9.506011120301e-05
   164    8.874351122267e-03
   165    1.426546534718e-02
   166   -2.148766289085e-02
   167    5.182446561841e-03
   168   -3.820566222779e-02
   169   -4.188649638635e-02
   170   -2.979230634351e-02