[Molden Format]
[Atoms] (Angs)
  C      1    6      0.78808821      1.24068913      0.02492945
  C      2    6      2.17658059      1.20482783      0.01961732
  C      3    6      2.84604848     -0.01987894     -0.00618268
  C      4    6      0.06874473      0.04470619      0.01965705
  H      5    1      0.27342680      2.19328085      0.03465240
  H      6    1      2.76334949      2.11354885      0.03637404
  H      7    1     -1.01469187      0.05821664      0.02642497
  N      8    7      4.30685693      0.04595834     -0.03962592
  O      9    8      4.93785288     -0.87773037     -0.59362170
  O     10    8      4.84651823      1.05363205      0.47829467
  C     11    6      0.74008238     -1.17504363      0.01238440
  H     12    1      0.18852059     -2.10639187      0.02395406
  C     13    6      2.13307197     -1.21959994     -0.00494717
 Br     14   35      2.92645518     -2.95940256      0.03206369
[GTO]
1    0
S    6    1.000000
   4.56324000E+03    1.96665000E-03 
   6.82024000E+02    1.52306000E-02 
   1.54973000E+02    7.61269000E-02 
   4.44553000E+01    2.60801000E-01 
   1.30290000E+01    6.16462000E-01 
   1.82773000E+00    2.21006000E-01 
SP   3    1.000000
   2.09642000E+01    1.14660000E-01   4.02487000E-02 
   4.80331000E+00    9.19999000E-01   2.37594000E-01 
   1.45933000E+00   -3.03068000E-03   8.15854000E-01 
SP   1    1.000000
   4.83456000E-01    1.00000000E+00   1.00000000E+00 
SP   1    1.000000
   1.45585000E-01    1.00000000E+00   1.00000000E+00 
SP   1    1.000000
   4.38000000E-02    1.00000000E+00   1.00000000E+00 
D    1    1.000000
   6.26000000E-01    1.00000000E+00 

2    0
S    6    1.000000
   4.56324000E+03    1.96665000E-03 
   6.82024000E+02    1.52306000E-02 
   1.54973000E+02    7.61269000E-02 
   4.44553000E+01    2.60801000E-01 
   1.30290000E+01    6.16462000E-01 
   1.82773000E+00    2.21006000E-01 
SP   3    1.000000
   2.09642000E+01    1.14660000E-01   4.02487000E-02 
   4.80331000E+00    9.19999000E-01   2.37594000E-01 
   1.45933000E+00   -3.03068000E-03   8.15854000E-01 
SP   1    1.000000
   4.83456000E-01    1.00000000E+00   1.00000000E+00 
SP   1    1.000000
   1.45585000E-01    1.00000000E+00   1.00000000E+00 
SP   1    1.000000
   4.38000000E-02    1.00000000E+00   1.00000000E+00 
D    1    1.000000
   6.26000000E-01    1.00000000E+00 

3    0
S    6    1.000000
   4.56324000E+03    1.96665000E-03 
   6.82024000E+02    1.52306000E-02 
   1.54973000E+02    7.61269000E-02 
   4.44553000E+01    2.60801000E-01 
   1.30290000E+01    6.16462000E-01 
   1.82773000E+00    2.21006000E-01 
SP   3    1.000000
   2.09642000E+01    1.14660000E-01   4.02487000E-02 
   4.80331000E+00    9.19999000E-01   2.37594000E-01 
   1.45933000E+00   -3.03068000E-03   8.15854000E-01 
SP   1    1.000000
   4.83456000E-01    1.00000000E+00   1.00000000E+00 
SP   1    1.000000
   1.45585000E-01    1.00000000E+00   1.00000000E+00 
SP   1    1.000000
   4.38000000E-02    1.00000000E+00   1.00000000E+00 
D    1    1.000000
   6.26000000E-01    1.00000000E+00 

4    0
S    6    1.000000
   4.56324000E+03    1.96665000E-03 
   6.82024000E+02    1.52306000E-02 
   1.54973000E+02    7.61269000E-02 
   4.44553000E+01    2.60801000E-01 
   1.30290000E+01    6.16462000E-01 
   1.82773000E+00    2.21006000E-01 
SP   3    1.000000
   2.09642000E+01    1.14660000E-01   4.02487000E-02 
   4.80331000E+00    9.19999000E-01   2.37594000E-01 
   1.45933000E+00   -3.03068000E-03   8.15854000E-01 
SP   1    1.000000
   4.83456000E-01    1.00000000E+00   1.00000000E+00 
SP   1    1.000000
   1.45585000E-01    1.00000000E+00   1.00000000E+00 
SP   1    1.000000
   4.38000000E-02    1.00000000E+00   1.00000000E+00 
D    1    1.000000
   6.26000000E-01    1.00000000E+00 

5    0
S    3    1.000000
   3.38650000E+01    2.54938000E-02 
   5.09479000E+00    1.90373000E-01 
   1.15879000E+00    8.52161000E-01 
S    1    1.000000
   3.25840000E-01    1.00000000E+00 
S    1    1.000000
   1.02741000E-01    1.00000000E+00 

6    0
S    3    1.000000
   3.38650000E+01    2.54938000E-02 
   5.09479000E+00    1.90373000E-01 
   1.15879000E+00    8.52161000E-01 
S    1    1.000000
   3.25840000E-01    1.00000000E+00 
S    1    1.000000
   1.02741000E-01    1.00000000E+00 

7    0
S    3    1.000000
   3.38650000E+01    2.54938000E-02 
   5.09479000E+00    1.90373000E-01 
   1.15879000E+00    8.52161000E-01 
S    1    1.000000
   3.25840000E-01    1.00000000E+00 
S    1    1.000000
   1.02741000E-01    1.00000000E+00 

8    0
S    6    1.000000
   6.29348000E+03    1.96979000E-03 
   9.49044000E+02    1.49613000E-02 
   2.18776000E+02    7.35006000E-02 
   6.36916000E+01    2.48937000E-01 
   1.88282000E+01    6.02460000E-01 
   2.72023000E+00    2.56202000E-01 
SP   3    1.000000
   3.06331000E+01    1.11906000E-01   3.83119000E-02 
   7.02614000E+00    9.21666000E-01   2.37403000E-01 
   2.11205000E+00   -2.56919000E-03   8.17592000E-01 
SP   1    1.000000
   6.84009000E-01    1.00000000E+00   1.00000000E+00 
SP   1    1.000000
   2.00878000E-01    1.00000000E+00   1.00000000E+00 
SP   1    1.000000
   6.39000000E-02    1.00000000E+00   1.00000000E+00 
D    1    1.000000
   9.13000000E-01    1.00000000E+00 

9    0
S    6    1.000000
   8.58850000E+03    1.89515000E-03 
   1.29723000E+03    1.43859000E-02 
   2.99296000E+02    7.07320000E-02 
   8.73771000E+01    2.40001000E-01 
   2.56789000E+01    5.94797000E-01 
   3.74004000E+00    2.80802000E-01 
SP   3    1.000000
   4.21175000E+01    1.13889000E-01   3.65114000E-02 
   9.62837000E+00    9.20811000E-01   2.37153000E-01 
   2.85332000E+00   -3.27447000E-03   8.19702000E-01 
SP   1    1.000000
   9.05661000E-01    1.00000000E+00   1.00000000E+00 
SP   1    1.000000
   2.55611000E-01    1.00000000E+00   1.00000000E+00 
SP   1    1.000000
   8.45000000E-02    1.00000000E+00   1.00000000E+00 
D    1    1.000000
   1.29200000E+00    1.00000000E+00 

10    0
S    6    1.000000
   8.58850000E+03    1.89515000E-03 
   1.29723000E+03    1.43859000E-02 
   2.99296000E+02    7.07320000E-02 
   8.73771000E+01    2.40001000E-01 
   2.56789000E+01    5.94797000E-01 
   3.74004000E+00    2.80802000E-01 
SP   3    1.000000
   4.21175000E+01    1.13889000E-01   3.65114000E-02 
   9.62837000E+00    9.20811000E-01   2.37153000E-01 
   2.85332000E+00   -3.27447000E-03   8.19702000E-01 
SP   1    1.000000
   9.05661000E-01    1.00000000E+00   1.00000000E+00 
SP   1    1.000000
   2.55611000E-01    1.00000000E+00   1.00000000E+00 
SP   1    1.000000
   8.45000000E-02    1.00000000E+00   1.00000000E+00 
D    1    1.000000
   1.29200000E+00    1.00000000E+00 

11    0
S    6    1.000000
   4.56324000E+03    1.96665000E-03 
   6.82024000E+02    1.52306000E-02 
   1.54973000E+02    7.61269000E-02 
   4.44553000E+01    2.60801000E-01 
   1.30290000E+01    6.16462000E-01 
   1.82773000E+00    2.21006000E-01 
SP   3    1.000000
   2.09642000E+01    1.14660000E-01   4.02487000E-02 
   4.80331000E+00    9.19999000E-01   2.37594000E-01 
   1.45933000E+00   -3.03068000E-03   8.15854000E-01 
SP   1    1.000000
   4.83456000E-01    1.00000000E+00   1.00000000E+00 
SP   1    1.000000
   1.45585000E-01    1.00000000E+00   1.00000000E+00 
SP   1    1.000000
   4.38000000E-02    1.00000000E+00   1.00000000E+00 
D    1    1.000000
   6.26000000E-01    1.00000000E+00 

12    0
S    3    1.000000
   3.38650000E+01    2.54938000E-02 
   5.09479000E+00    1.90373000E-01 
   1.15879000E+00    8.52161000E-01 
S    1    1.000000
   3.25840000E-01    1.00000000E+00 
S    1    1.000000
   1.02741000E-01    1.00000000E+00 

13    0
S    6    1.000000
   4.56324000E+03    1.96665000E-03 
   6.82024000E+02    1.52306000E-02 
   1.54973000E+02    7.61269000E-02 
   4.44553000E+01    2.60801000E-01 
   1.30290000E+01    6.16462000E-01 
   1.82773000E+00    2.21006000E-01 
SP   3    1.000000
   2.09642000E+01    1.14660000E-01   4.02487000E-02 
   4.80331000E+00    9.19999000E-01   2.37594000E-01 
   1.45933000E+00   -3.03068000E-03   8.15854000E-01 
SP   1    1.000000
   4.83456000E-01    1.00000000E+00   1.00000000E+00 
SP   1    1.000000
   1.45585000E-01    1.00000000E+00   1.00000000E+00 
SP   1    1.000000
   4.38000000E-02    1.00000000E+00   1.00000000E+00 
D    1    1.000000
   6.26000000E-01    1.00000000E+00 

14    0
S    6    1.000000
   4.39700000E+05    8.13000000E-04 
   6.60300000E+04    6.28500000E-03 
   1.51400000E+04    3.19200000E-02 
   4.31700000E+03    1.28800000E-01 
   1.41400000E+03    3.94600000E-01 
   5.23900000E+02    5.41300000E-01 
S    3    1.000000
   5.23900000E+02    1.83100000E-01 
   2.07700000E+02    6.17600000E-01 
   8.65400000E+01    2.53800000E-01 
S    1    1.000000
   3.05200000E+01    1.00000000E+00 
S    1    1.000000
   1.29800000E+01    1.00000000E+00 
S    1    1.000000
   4.41200000E+00    1.00000000E+00 
S    1    1.000000
   1.86200000E+00    1.00000000E+00 
S    1    1.000000
   3.93200000E-01    1.00000000E+00 
S    1    1.000000
   1.40000000E-01    1.00000000E+00 
P    3    1.000000
   2.95700000E+03    2.22600000E-02 
   7.00300000E+02    1.80200000E-01 
   2.24600000E+02    8.62400000E-01 
P    3    1.000000
   8.25900000E+01    3.44000000E-01 
   3.31900000E+01    5.07100000E-01 
   1.42000000E+01    2.59000000E-01 
P    3    1.000000
   1.42000000E+01    7.96500000E-02 
   7.43800000E+00    3.73400000E-01 
   3.52600000E+00    6.04900000E-01 
P    1    1.000000
   1.59500000E+00    1.00000000E+00 
P    1    1.000000
   8.46200000E-01    1.00000000E+00 
P    1    1.000000
   3.18600000E-01    1.00000000E+00 
P    1    1.000000
   1.09600000E-01    1.00000000E+00 
D    4    1.000000
   1.34800000E+02    1.83100000E-02 
   3.63900000E+01    1.35000000E-01 
   1.21600000E+01    4.26100000E-01 
   4.34100000E+00    6.04300000E-01 
D    1    1.000000
   1.53500000E+00    1.00000000E+00 
SP   1    1.000000
   3.90000000E-02    1.00000000E+00   1.00000000E+00 
D    1    1.000000
   4.15000000E-01    1.00000000E+00 

[MO]
Sym=X
Ene= -0.216633
Spin=Alpha
Occup=1
     1   -1.437300239304e-03
     2   -2.321337144710e-03
     3    1.669584830612e-02
     4   -1.292005907243e-03
     5   -5.802709796711e-02
     6    7.718334887132e-03
     7    2.389332761350e-02
     8   -1.798815713849e-03
     9   -9.423230462826e-02
    10   -5.098666510648e-02
    11   -4.942385511902e-03
    12   -1.901965400923e-04
    13   -7.711830959180e-02
    14   -1.572775611818e-01
    15   -7.240844668955e-02
    16   -3.385964734545e-02
    17   -6.810683894751e-03
    18    5.205985690997e-04
    19   -8.721710491272e-03
    20    2.277970620567e-04
    21   -3.719200825498e-04
    22    1.984821506080e-03
    23    2.191975685884e-03
    24    3.517352557032e-03
    25   -1.600765474575e-02
    26    1.687690471961e-02
    27   -7.819466943484e-02
    28   -1.012261414130e-02
    29   -2.288760578451e-02
    30    2.448952860628e-02
    31   -1.276378081864e-01
    32   -1.490932261346e-03
    33   -6.999644888327e-02
    34    2.058437554941e-02
    35   -1.030058158462e-01
    36   -5.451465720301e-01
    37   -1.868733254769e-01
    38    1.547967109745e-01
    39    5.753536014635e-04
    40    4.908404586363e-04
    41    4.392961580226e-03
    42    3.181598282409e-03
    43    3.472421365047e-03
    44   -1.026907084168e-03
    45   -9.296205527727e-03
    46   -1.520797180018e-02
    47    4.521932227774e-02
    48   -8.560074344988e-03
    49   -3.556471749031e-02
    50    4.448900245595e-02
    51    7.744439710896e-02
    52   -1.523485988483e-02
    53   -5.841072354419e-02
    54    1.676148139501e-01
    55    1.293998743974e-01
    56    1.310552529421e-02
    57   -6.511595262770e-02
    58    6.196904949136e-01
    59   -1.051263335656e-01
    60    3.496026286043e-01
    61    8.039850627425e-03
    62   -8.175198809160e-04
    63    1.804631313781e-03
    64   -1.412793597350e-02
    65    6.324795097605e-03
    66    4.736262698678e-04
    67   -4.981622303636e-03
    68   -7.871107795566e-03
    69    8.953951438955e-03
    70   -1.514207442315e-02
    71   -2.015164115105e-03
    72    2.110889593524e-02
    73    1.306753424879e-02
    74   -2.236756881434e-02
    75   -2.806296229827e-03
    76    3.820468971523e-02
    77    2.997186166128e-02
    78   -1.657770835503e-02
    79    3.360008828040e-03
    80    3.748303091639e-02
    81    1.520753890563e-02
    82   -3.770554105809e-02
    83   -2.651087075195e-03
    84   -1.028870313859e-04
    85   -1.513121332808e-03
    86   -9.761365340948e-03
    87    8.340424809141e-04
    88   -5.516471064373e-04
    89   -7.600656312058e-03
    90   -9.055268662701e-03
    91   -4.488439794500e-03
    92   -2.346083269018e-03
    93    3.499207914176e-04
    94    9.622676814025e-03
    95   -2.522039268644e-03
    96   -4.243911960884e-05
    97    4.164509549972e-03
    98   -4.561829643999e-04
    99   -8.193137256582e-04
   100   -2.847923487746e-02
   101   -4.125536817960e-03
   102   -4.893776569821e-04
   103    3.003292472069e-03
   104   -4.699118132205e-02
   105   -8.663581764018e-03
   106   -2.344435171478e-03
   107   -1.000470260931e-02
   108    5.011197392428e-02
   109    2.921844949545e-02
   110    1.834098996766e-02
   111    3.478690709774e-02
   112    1.055993775893e-01
   113   -1.756562648020e-02
   114    1.764364801239e-02
   115    1.161626707028e-02
   116   -3.083124262272e-03
   117   -2.735993397050e-03
   118    3.308996967307e-02
   119   -8.705460336866e-03
   120   -2.773424925846e-03
   121   -4.606661904633e-03
   122    1.515685310145e-01
   123    9.998559248053e-02
   124   -4.007105757425e-02
   125    1.475947284997e-02
   126    2.228847681436e-01
   127    1.477222785085e-01
   128   -5.901925574289e-02
   129    1.878406807033e-02
   130    2.029468660213e-01
   131    1.390556752100e-01
   132   -5.960207798439e-02
   133   -6.818809784203e-02
   134    1.258602370584e-02
   135   -1.215983119376e-02
   136   -2.182231962984e-02
   137   -1.171831065177e-03
   138    6.360036999447e-03
   139    4.187439455846e-04
   140   -9.628447110976e-03
   141    2.191009667162e-03
   142   -1.339780433553e-04
   143   -3.055833332168e-04
   144    3.909015899634e-02
   145   -1.124739601696e-02
   146    9.989893038688e-02
   147    1.395879792467e-04
   148    5.531344981057e-02
   149   -1.805248654069e-02
   150    1.475447523867e-01
   151   -2.970644750071e-02
   152    5.653476374144e-02
   153   -8.525424337951e-03
   154    1.460278187380e-01
   155   -5.526183660687e-02
   156   -1.130023492284e-02
   157    1.039882338437e-02
   158    1.120558208530e-02
   159   -3.869999578700e-03
   160   -4.307807837506e-03
   161   -4.840790445955e-03
   162   -1.625633725334e-03
   163   -5.001148985546e-04
   164    3.187719203559e-03
   165    5.050135623023e-03
   166   -6.455720790418e-03
   167    2.119779468891e-02
   168    4.256656911826e-02
   169   -1.220966916631e-02
   170   -8.335638576208e-03
   171    3.320662918285e-02
   172    7.018554871992e-02
   173   -1.101315911589e-01
   174   -3.827565784023e-02
   175    7.698475959732e-03
   176    5.319254042698e-02
   177    7.392041961858e-02
   178    4.528586956308e-02
   179   -3.365212683156e-02
   180    2.114233644058e-02
   181    4.381204391866e-04
   182    4.720892902479e-03
   183   -2.017344593164e-03
   184   -4.197515329137e-04
   185   -4.973511423335e-03
   186   -1.639602551528e-02
   187   -1.963692988874e-02
   188   -1.868490326241e-02
   189    1.045299557336e-04
   190    3.977362778248e-05
   191    9.931641141169e-03
   192   -1.342762006017e-02
   193    4.977790512611e-02
   194    2.944890243436e-05
   195    2.041722648001e-02
   196   -2.063875718927e-02
   197    8.087270626512e-02
   198    7.929362638329e-02
   199   -6.925389135829e-02
   200   -2.986492169796e-03
   201    8.378742968464e-02
   202    9.902246759542e-02
   203    1.496355715294e-01
   204   -4.222711842320e-02
   205   -2.348607679430e-02
   206    4.301019032255e-04
   207   -2.216450034380e-03
   208   -1.193680703014e-02
   209   -3.830875264441e-03
   210    1.846052924256e-03
   211   -2.290593690925e-04
   212   -7.432361257674e-04
   213    2.025519830888e-03
   214    2.388255584697e-03
   215   -4.615648933386e-03
   216   -6.877756411745e-03
   217    1.591209794749e-02
   218    3.997576076996e-03
   219   -3.219939198166e-03
   220   -6.579390521672e-04
   221    5.774735602962e-03
   222   -2.657494325483e-02
   223   -5.429406321255e-03
   224    4.766628333619e-02
   225    6.926959191910e-02
   226    1.417730033639e-02
   227   -1.243382411717e-01
   228    2.566689058164e-02
   229    5.300401011904e-03
   230   -4.600599268978e-02
   231   -5.545168419468e-02
   232   -1.161356279033e-02
   233    1.001591175545e-01
   234   -1.363786878672e-01
   235   -2.560400323416e-02
   236    2.424024636096e-01
   237   -6.750825222221e-02
   238   -1.825688765506e-02
   239    1.330494184347e-01
   240    8.756645603938e-05
   241    2.605230270353e-03
   242   -6.715035974989e-03
   243    9.851967440478e-04
   244    4.797685320044e-03
   245   -2.500334135212e-04
   246    4.631578630320e-04
   247   -1.033474843654e-03
   248    2.965464505885e-04
   249    4.465993139706e-04
   250   -8.035457507298e-02
   251    8.479030532918e-03
   252   -2.222028993821e-02
   253    8.034069149054e-03
   254    1.265378931625e-04
   255   -6.142680999387e-03
   256    1.507980889013e-02
   257   -2.385315028929e-03
   258   -1.048199438123e-02
Sym=X
Ene= -0.277069
Spin=Alpha
Occup=1
     1    7.337008437797e-04
     2    1.160973315453e-03
     3   -1.761966957433e-02
     4    1.200832357120e-02
     5   -7.652859934307e-02
     6   -4.420654569139e-03
     7   -2.603571607486e-02
     8    1.833375372637e-02
     9   -1.248296127679e-01
    10    3.485335953471e-02
    11   -5.103293215139e-03
    12    1.645026804179e-02
    13   -1.011486287144e-01
    14    4.229080133252e-02
    15   -5.630720594191e-02
    16   -3.847038586470e-02
    17    6.056946917790e-03
    18   -5.005132004756e-04
    19   -4.232726858785e-03
    20    4.202040521133e-03
    21   -9.220611325513e-04
    22   -2.843241640382e-03
    23   -8.865515898253e-04
    24   -1.415915527812e-03
    25    1.535597968977e-02
    26   -1.170392480691e-02
    27   -6.075729644962e-02
    28    3.323023207868e-03
    29    2.186345142151e-02
    30   -1.712119350316e-02
    31   -9.895335657390e-02
    32    1.203938428486e-02
    33    5.354622575887e-02
    34   -2.086595176985e-02
    35   -7.554095223003e-02
    36    8.215675271158e-02
    37   -5.689145101940e-02
    38    1.538926537436e-02
    39   -1.406268082643e-02
    40   -1.759633337618e-04
    41    8.087555710082e-03
    42    3.537977074572e-04
    43   -3.055394431282e-03
    44   -1.320513288383e-04
    45    8.268094220862e-03
    46    1.353548163820e-02
    47   -4.025597075982e-02
    48    8.910710157222e-03
    49   -3.611413408348e-03
    50   -3.904644582842e-02
    51   -7.009950288662e-02
    52    1.492991029093e-02
    53   -3.084497749453e-03
    54   -1.812770099840e-01
    55   -9.868224355170e-02
    56   -1.186079945582e-03
    57   -1.998742067375e-02
    58   -6.220639696145e-01
    59    8.737383328404e-02
    60    1.558713498808e-01
    61    1.196610570702e-02
    62    8.657446245519e-04
    63   -2.360563520544e-04
    64   -1.244006938729e-02
    65   -6.567167429752e-03
    66    1.450820485822e-04
    67    3.561095480410e-03
    68    5.633234814184e-03
    69   -6.790069827740e-03
    70    4.623701254521e-03
    71   -4.468473314150e-02
    72   -1.525497761842e-02
    73   -9.704392126048e-03
    74    7.182568858342e-03
    75   -7.227254928936e-02
    76   -1.849213209779e-02
    77   -1.762173382596e-02
    78    5.096266781840e-03
    79   -5.770209998471e-02
    80   -3.706736185521e-02
    81   -1.539220108538e-02
    82   -7.500774037981e-02
    83   -1.986328301673e-02
    84   -1.713427680423e-04
    85   -3.572245660549e-03
    86   -8.853962244598e-03
    87   -1.510314773667e-03
    88   -8.014322981720e-04
    89    1.578949205757e-02
    90    1.917222710276e-02
    91    5.605090560390e-03
    92    1.569106936564e-03
    93   -6.980694313858e-04
    94   -7.480012289008e-03
    95    1.240894310304e-03
    96   -1.023447097197e-03
    97   -2.492636971433e-03
    98    1.697806003701e-03
    99    2.866913667098e-03
   100    2.433757689921e-02
   101    9.691825456141e-03
   102   -1.532260538090e-03
   103   -1.074935110838e-02
   104    3.999881383999e-02
   105    1.727029953048e-02
   106   -2.620995457858e-03
   107    8.179312938178e-03
   108   -4.268985592471e-02
   109   -1.196823315414e-02
   110   -7.535061382287e-03
   111    4.331996579476e-02
   112   -8.112729327635e-02
   113    4.646838640270e-03
   114    1.832851815107e-02
   115   -7.912216950173e-03
   116    5.964272422863e-03
   117    2.747470682108e-03
   118   -2.744541626240e-02
   119    6.091330715085e-03
   120   -1.550962232153e-04
   121   -2.418636855745e-04
   122   -1.170111890614e-01
   123   -8.314120335575e-02
   124    3.066138634829e-02
   125    8.081194823870e-04
   126   -1.726687351336e-01
   127   -1.228904420079e-01
   128    4.488428419092e-02
   129    3.016230836855e-03
   130   -1.577467226201e-01
   131   -1.119912324041e-01
   132    4.844305857284e-02
   133    5.113919094135e-02
   134   -1.087583283312e-02
   135    2.538475160899e-03
   136    5.504584031584e-03
   137    1.425120595555e-03
   138   -4.973131810116e-03
   139   -1.089873884185e-03
   140    7.401614549025e-03
   141   -1.917692814727e-03
   142   -2.390739604289e-04
   143   -3.771809925168e-04
   144   -4.193832666731e-02
   145    2.062080951674e-03
   146   -6.544840373530e-02
   147    3.132644767062e-03
   148   -6.069540748981e-02
   149    3.694312857225e-03
   150   -9.666859261551e-02
   151    1.931938483799e-02
   152   -5.485642357699e-02
   153    1.971199034143e-03
   154   -9.355620220023e-02
   155    4.880703430085e-03
   156    5.399342941202e-03
   157   -4.071657964235e-03
   158   -1.312705841183e-02
   159    2.614608092418e-03
   160    3.721350613331e-03
   161    3.280856733917e-03
   162    1.053133460588e-03
   163    9.914898086726e-04
   164   -2.144692081519e-03
   165   -3.397948212005e-03
   166    2.757946067536e-03
   167   -8.296821946735e-03
   168    1.659716576577e-02
   169    8.764742604979e-03
   170    3.653184054142e-03
   171   -1.371131044127e-02
   172    2.736411939246e-02
   173    7.792587061408e-02
   174    2.794522326543e-02
   175   -8.643003798380e-03
   176    1.372882054083e-02
   177    2.356452061173e-02
   178    7.155067270836e-02
   179   -4.901487924430e-02
   180    2.861293034458e-02
   181   -2.227314026066e-04
   182    9.172463083530e-03
   183   -6.548152941018e-03
   184    6.688872177787e-04
   185    3.003129928641e-03
   186    7.910987267005e-03
   187    7.161094387347e-03
   188    1.101100716655e-02
   189   -1.305650787834e-04
   190   -5.522472838240e-05
   191   -3.271764911364e-03
   192    1.123270255828e-02
   193    7.063271882165e-02
   194   -1.059841399107e-03
   195   -9.706175641570e-03
   196    1.620582021700e-02
   197    1.152283301521e-01
   198   -4.166749710183e-02
   199    6.537918378867e-02
   200    2.383241087399e-02
   201    1.125961854895e-01
   202    3.754685253106e-01
   203    1.136128895368e-01
   204    2.003552425261e-01
   205   -2.870950156369e-02
   206    6.420793853329e-04
   207    3.035679783884e-03
   208   -1.212615677506e-02
   209    2.978865361736e-03
   210   -3.172764120809e-03
   211    1.902178294612e-04
   212    6.178338556843e-04
   213   -1.690630408866e-03
   214   -1.972229866339e-03
   215    3.818937416115e-03
   216    5.994613627189e-03
   217   -1.556317416706e-02
   218    9.416933488084e-04
   219    2.850793287676e-03
   220    1.324929787717e-03
   221    8.351116998714e-03
   222    2.352818705751e-02
   223    1.093609704337e-02
   224    6.893552257734e-02
   225   -6.131066224875e-02
   226   -2.852164885082e-02
   227   -1.798869663099e-01
   228   -2.266998828995e-02
   229   -1.051344475283e-02
   230   -6.666808861271e-02
   231    4.895693864029e-02
   232    2.285575160710e-02
   233    1.457319969176e-01
   234    1.198904901413e-01
   235    5.405386088635e-02
   236    3.508703378226e-01
   237    5.844281239331e-02
   238    3.539006734337e-02
   239    1.946314181788e-01
   240    4.627921937075e-04
   241    4.987680198725e-03
   242   -7.915981685019e-03
   243    4.459827728343e-04
   244   -3.905375110264e-03
   245    2.205678518032e-04
   246    9.749645063267e-04
   247   -1.104041049100e-03
   248   -5.857530381571e-05
   249   -4.055788396330e-04
   250    7.897173105291e-02
   251   -1.055493946863e-02
   252    2.038973490994e-02
   253    7.071466699583e-03
   254   -1.370841058054e-03
   255   -1.212603151773e-02
   256    1.785207575046e-02
   257   -4.785615930000e-05
   258    8.088781847727e-03
Sym=X
Ene= -0.304650
Spin=Alpha
Occup=1
     1    1.040905449680e-03
     2    1.648815647831e-03
     3    5.300400171116e-03
     4   -1.855272916641e-02
     5    2.904620031472e-02
     6   -4.721616649565e-03
     7    8.412427474235e-03
     8   -2.859387630129e-02
     9    4.740711953872e-02
    10    2.806221290813e-02
    11    2.234327462631e-02
    12   -3.506583210164e-02
    13    3.609377830813e-02
    14   -9.190261025569e-02
    15    8.455462452270e-02
    16    6.686275085564e-02
    17   -4.344242151297e-03
    18    1.264748142643e-04
    19   -1.625310406274e-02
    20   -1.199090676413e-02
    21    3.639035903605e-03
    22    4.280970366510e-03
    23   -7.639469366745e-04
    24   -1.182210420778e-03
    25   -6.268560861746e-03
    26    5.610628606884e-03
    27   -8.021560885161e-02
    28    3.035774264355e-03
    29   -1.017761639686e-02
    30    8.282023278615e-03
    31   -1.311614478682e-01
    32   -5.955816668840e-02
    33    5.895141850665e-03
    34    2.137821357088e-02
    35   -1.156145007511e-01
    36    7.917833350906e-02
    37    7.786665308974e-02
    38   -8.285755894007e-02
    39   -5.301978439644e-03
    40    7.462478520593e-04
    41   -9.601230327829e-03
    42    9.913242644913e-03
    43    5.555041591012e-04
    44    3.587795689675e-03
    45    7.316811191188e-03
    46    1.178744167684e-02
    47   -9.861272917435e-03
    48   -3.951550112176e-04
    49   -1.088701575971e-01
    50   -3.327897133972e-02
    51   -1.940376263033e-02
    52   -3.623022317672e-03
    53   -1.803087381468e-01
    54   -1.116553498033e-01
    55   -2.610387662728e-02
    56    7.843621813245e-02
    57   -1.555209776214e-01
    58   -2.843594750245e-01
    59    1.130845010764e-01
    60   -5.304329141208e-03
    61   -1.891367765116e-02
    62   -3.694660458252e-05
    63    1.228513034665e-03
    64   -7.766034465744e-03
    65   -9.829990399517e-05
    66    2.873860299103e-03
    67    2.509574572427e-03
    68    3.941787931427e-03
    69   -1.469964947247e-02
    70    2.648989767363e-02
    71    1.269698293466e-01
    72   -1.050576555279e-02
    73   -2.184952886970e-02
    74    3.731105686691e-02
    75    2.070409134111e-01
    76   -3.411784500362e-02
    77   -3.738585284026e-02
    78    2.635848133134e-02
    79    1.758980459549e-01
    80    8.639255172786e-02
    81    2.852570246648e-02
    82    1.105891439357e-01
    83    2.014590381786e-02
    84   -8.420507102618e-05
    85    6.593694146116e-03
    86   -8.889673817879e-03
    87    4.331192044881e-03
    88    1.700945459762e-03
    89   -1.893686364912e-02
    90   -2.422093078349e-02
    91   -3.699896397134e-03
    92    4.064850512284e-03
    93    5.173585810921e-03
    94   -1.189180551822e-03
    95    1.327831435877e-02
    96    1.699475540860e-02
    97    1.996342287478e-03
    98   -1.096998731945e-03
    99   -1.747257101615e-03
   100    6.202645214215e-03
   101    9.430808237460e-04
   102   -1.018269152763e-03
   103    4.763636230638e-03
   104    1.067208505624e-02
   105    2.576117039139e-03
   106   -1.858235931087e-03
   107    1.842838343661e-02
   108   -1.370089959944e-02
   109   -7.241472698253e-03
   110    1.317101102989e-03
   111   -9.792564114738e-03
   112   -4.858328656520e-02
   113   -5.086855281239e-02
   114    3.698737834904e-02
   115   -1.869086115766e-03
   116    8.685752111142e-03
   117    1.202085160958e-03
   118   -6.222636037109e-03
   119   -1.095182743082e-02
   120    2.954232667996e-03
   121    4.900569765023e-03
   122    2.360950907041e-02
   123    2.888301860640e-03
   124    5.619107713348e-02
   125   -1.551285106315e-02
   126    3.687157604030e-02
   127    4.200423711458e-03
   128    8.275349554900e-02
   129   -1.927196752830e-02
   130    3.523270113970e-02
   131    1.796713239726e-03
   132    7.947346771451e-02
   133    1.001055036942e-02
   134    1.133384162391e-02
   135    1.500248244667e-02
   136   -3.038462817777e-03
   137    2.452470961633e-03
   138   -1.083125397579e-03
   139    2.584456473565e-03
   140   -9.918434087016e-04
   141    1.843769847978e-03
   142    1.950396625099e-04
   143    3.058200105320e-04
   144   -7.272169683460e-02
   145    1.694092277408e-02
   146    3.588624627452e-02
   147   -6.622807192494e-04
   148   -1.084806007314e-01
   149    2.482880143143e-02
   150    5.323194790136e-02
   151    8.428273737947e-04
   152   -9.847757085229e-02
   153    2.426097022365e-02
   154    5.136057028662e-02
   155    2.321563702914e-02
   156   -4.802894800363e-03
   157   -2.837369109349e-03
   158   -1.052539195318e-02
   159   -1.907759208920e-03
   160    1.559170478518e-03
   161   -2.185882508392e-03
   162    2.562312879181e-03
   163    2.857196133023e-03
   164   -1.548415572367e-03
   165   -2.488820271706e-03
   166    2.404830481623e-02
   167   -2.524372018660e-02
   168    1.147850063145e-01
   169    6.850354946534e-03
   170    3.334948379796e-02