 Entering Gaussian System, Link 0=g16
 Initial command:
 /software/gaussian/g16-c01/sse4/g16/l1.exe "/local_scratch/24657586/Gau-11372.inp" -scrdir="/local_scratch/24657586/"
 Entering Link 1 = /software/gaussian/g16-c01/sse4/g16/l1.exe PID=     11393.
  
 Copyright (c) 1988-2019, Gaussian, Inc.  All Rights Reserved.
  
 This is part of the Gaussian(R) 16 program.  It is based on
 the Gaussian(R) 09 system (copyright 2009, Gaussian, Inc.),
 the Gaussian(R) 03 system (copyright 2003, Gaussian, Inc.),
 the Gaussian(R) 98 system (copyright 1998, Gaussian, Inc.),
 the Gaussian(R) 94 system (copyright 1995, Gaussian, Inc.),
 the Gaussian 92(TM) system (copyright 1992, Gaussian, Inc.),
 the Gaussian 90(TM) system (copyright 1990, Gaussian, Inc.),
 the Gaussian 88(TM) system (copyright 1988, Gaussian, Inc.),
 the Gaussian 86(TM) system (copyright 1986, Carnegie Mellon
 University), and the Gaussian 82(TM) system (copyright 1983,
 Carnegie Mellon University). Gaussian is a federally registered
 trademark of Gaussian, Inc.
  
 This software contains proprietary and confidential information,
 including trade secrets, belonging to Gaussian, Inc.
  
 This software is provided under written license and may be
 used, copied, transmitted, or stored only in accord with that
 written license.
  
 The following legend is applicable only to US Government
 contracts under FAR:
  
                    RESTRICTED RIGHTS LEGEND
  
 Use, reproduction and disclosure by the US Government is
 subject to restrictions as set forth in subparagraphs (a)
 and (c) of the Commercial Computer Software - Restricted
 Rights clause in FAR 52.227-19.
  
 Gaussian, Inc.
 340 Quinnipiac St., Bldg. 40, Wallingford CT 06492
  
  
 ---------------------------------------------------------------
 Warning -- This program may not be used in any manner that
 competes with the business of Gaussian, Inc. or will provide
 assistance to any competitor of Gaussian, Inc.  The licensee
 of this program is prohibited from giving any competitor of
 Gaussian, Inc. access to this program.  By using this program,
 the user acknowledges that Gaussian, Inc. is engaged in the
 business of creating and licensing software in the field of
 computational chemistry and represents and warrants to the
 licensee that it is not a competitor of Gaussian, Inc. and that
 it will not use this program in any manner prohibited above.
 ---------------------------------------------------------------
  

 Cite this work as:
 Gaussian 16, Revision C.01,
 M. J. Frisch, G. W. Trucks, H. B. Schlegel, G. E. Scuseria, 
 M. A. Robb, J. R. Cheeseman, G. Scalmani, V. Barone, 
 G. A. Petersson, H. Nakatsuji, X. Li, M. Caricato, A. V. Marenich, 
 J. Bloino, B. G. Janesko, R. Gomperts, B. Mennucci, H. P. Hratchian, 
 J. V. Ortiz, A. F. Izmaylov, J. L. Sonnenberg, D. Williams-Young, 
 F. Ding, F. Lipparini, F. Egidi, J. Goings, B. Peng, A. Petrone, 
 T. Henderson, D. Ranasinghe, V. G. Zakrzewski, J. Gao, N. Rega, 
 G. Zheng, W. Liang, M. Hada, M. Ehara, K. Toyota, R. Fukuda, 
 J. Hasegawa, M. Ishida, T. Nakajima, Y. Honda, O. Kitao, H. Nakai, 
 T. Vreven, K. Throssell, J. A. Montgomery, Jr., J. E. Peralta, 
 F. Ogliaro, M. J. Bearpark, J. J. Heyd, E. N. Brothers, K. N. Kudin, 
 V. N. Staroverov, T. A. Keith, R. Kobayashi, J. Normand, 
 K. Raghavachari, A. P. Rendell, J. C. Burant, S. S. Iyengar, 
 J. Tomasi, M. Cossi, J. M. Millam, M. Klene, C. Adamo, R. Cammi, 
 J. W. Ochterski, R. L. Martin, K. Morokuma, O. Farkas, 
 J. B. Foresman, and D. J. Fox, Gaussian, Inc., Wallingford CT, 2019.
 
 ******************************************
 Gaussian 16:  ES64L-G16RevC.01  3-Jul-2019
                 1-May-2024 
 ******************************************
 %chk=geometry.chk
 %mem=9GB
 %nprocshared=12
 Will use up to   12 processors via shared memory.
 ----------------------------------------
 #P wB97XD/6-311+G* NoSymm #P Field=Z+243
 ----------------------------------------
 1/38=1,172=1/1;
 2/12=2,15=1,17=6,18=5,40=1/2;
 3/5=4,6=6,7=11,11=2,14=3,15=243,25=1,30=1,74=-58/1,2,3;
 4//1;
 5/5=2,38=5/2;
 6/7=2,8=2,9=2,10=2,28=1/1;
 99/5=1,9=1/99;
 Leave Link    1 at Wed May  1 15:11:07 2024, MaxMem=  1207959552 cpu:               2.4 elap:               2.4
 (Enter /software/gaussian/g16-c01/sse4/g16/l101.exe)
 -------
 TitleMe
 -------
 Symbolic Z-matrix:
 Charge =  1 Multiplicity = 1
 C                     0.0295    1.3397    0.0682 
 C                     1.4348    1.2867    0.0064 
 C                     2.1118    0.0511   -0.0054 
 C                     1.4451   -1.1372    0.0312 
 C                    -0.6879    0.1682    0.11 
 H                    -0.4713    2.2984    0.0781 
 H                     2.0273    2.1965   -0.0322 
 H                     1.9897   -2.0764    0.0232 
 H                    -1.7716    0.1804    0.1582 
 N                     3.5864    0.051    -0.0675 
 O                     4.1471   -1.0597   -0.0881 
 O                     4.145     1.1639   -0.0901 
 C                    -0.0236   -1.1458    0.0835 
 H                    -0.4367   -1.8725    0.7889 
 Br                   -0.5359   -1.8697   -1.7408 
 
 ITRead=  0  0  0  0  0  0  0  0  0  0  0  0  0  0  0
 MicOpt= -1 -1 -1 -1 -1 -1 -1 -1 -1 -1 -1 -1 -1 -1 -1
 NAtoms=     15 NQM=       15 NQMF=       0 NMMI=      0 NMMIF=      0
                NMic=       0 NMicF=      0.
                    Isotopes and Nuclear Properties:
 (Nuclear quadrupole moments (NQMom) in fm**2, nuclear magnetic moments (NMagM)
  in nuclear magnetons)

  Atom         1           2           3           4           5           6           7           8           9          10
 IAtWgt=          12          12          12          12          12           1           1           1           1          14
 AtmWgt=  12.0000000  12.0000000  12.0000000  12.0000000  12.0000000   1.0078250   1.0078250   1.0078250   1.0078250  14.0030740
 NucSpn=           0           0           0           0           0           1           1           1           1           2
 AtZEff=  -0.0000000  -0.0000000  -0.0000000  -0.0000000  -0.0000000  -0.0000000  -0.0000000  -0.0000000  -0.0000000  -0.0000000
 NQMom=    0.0000000   0.0000000   0.0000000   0.0000000   0.0000000   0.0000000   0.0000000   0.0000000   0.0000000   2.0440000
 NMagM=    0.0000000   0.0000000   0.0000000   0.0000000   0.0000000   2.7928460   2.7928460   2.7928460   2.7928460   0.4037610
 AtZNuc=   6.0000000   6.0000000   6.0000000   6.0000000   6.0000000   1.0000000   1.0000000   1.0000000   1.0000000   7.0000000

  Atom        11          12          13          14          15
 IAtWgt=          16          16          12           1          79
 AtmWgt=  15.9949146  15.9949146  12.0000000   1.0078250  78.9183361
 NucSpn=           0           0           0           1           3
 AtZEff=  -0.0000000  -0.0000000  -0.0000000  -0.0000000  -0.0000000
 NQMom=    0.0000000   0.0000000   0.0000000   0.0000000  31.3000000
 NMagM=    0.0000000   0.0000000   0.0000000   2.7928460   2.1063990
 AtZNuc=   8.0000000   8.0000000   6.0000000   1.0000000  35.0000000
 Leave Link  101 at Wed May  1 15:11:09 2024, MaxMem=  1207959552 cpu:               1.4 elap:               1.4
 (Enter /software/gaussian/g16-c01/sse4/g16/l202.exe)
                          Input orientation:                          
 ---------------------------------------------------------------------
 Center     Atomic      Atomic             Coordinates (Angstroms)
 Number     Number       Type             X           Y           Z
 ---------------------------------------------------------------------
      1          6           0        0.029500    1.339700    0.068200
      2          6           0        1.434800    1.286700    0.006400
      3          6           0        2.111800    0.051100   -0.005400
      4          6           0        1.445100   -1.137200    0.031200
      5          6           0       -0.687900    0.168200    0.110000
      6          1           0       -0.471300    2.298400    0.078100
      7          1           0        2.027300    2.196500   -0.032200
      8          1           0        1.989700   -2.076400    0.023200
      9          1           0       -1.771600    0.180400    0.158200
     10          7           0        3.586400    0.051000   -0.067500
     11          8           0        4.147100   -1.059700   -0.088100
     12          8           0        4.145000    1.163900   -0.090100
     13          6           0       -0.023600   -1.145800    0.083500
     14          1           0       -0.436700   -1.872500    0.788900
     15         35           0       -0.535900   -1.869700   -1.740800
 ---------------------------------------------------------------------
                    Distance matrix (angstroms):
                    1          2          3          4          5
     1  C    0.000000
     2  C    1.407656   0.000000
     3  C    2.449874   1.408963   0.000000
     4  C    2.853126   2.424049   1.363043   0.000000
     5  C    1.374344   2.401589   2.804523   2.501993   0.000000
     6  H    1.081667   2.159142   3.424870   3.934226   2.141421
     7  H    2.176095   1.086408   2.147231   3.384750   3.392128
     8  H    3.938800   3.408612   2.131193   1.085702   3.495040
     9  H    2.143837   3.395283   3.888995   3.478413   1.084840
    10  N    3.785591   2.482297   1.475907   2.450862   4.279589
    11  O    4.768247   3.587631   2.320164   2.705743   4.992415
    12  O    4.122294   2.714696   2.319353   3.549540   4.938459
    13  C    2.486114   2.837240   2.449573   1.469656   1.472614
    14  H    3.324903   3.754379   3.290289   2.157764   2.165286
    15  Br   3.727252   4.110867   3.702891   2.756973   2.757100
                    6          7          8          9         10
     6  H    0.000000
     7  H    2.503108   0.000000
     8  H    5.019802   4.273425   0.000000
     9  H    2.486588   4.304945   4.388479   0.000000
    10  N    4.640790   2.652397   2.661486   5.364313   0.000000
    11  O    5.712624   3.885809   2.387560   6.052233   1.244373
    12  O    4.756638   2.356750   3.893289   6.002923   1.245428
    13  C    3.473180   3.923079   2.218790   2.195425   3.806210
    14  H    4.231175   4.827242   2.552506   2.528663   4.540772
    15  Br   4.548146   5.101303   3.087568   3.055498   4.845862
                   11         12         13         14         15
    11  O    0.000000
    12  O    2.223602   0.000000
    13  C    4.175117   4.768865   0.000000
    14  H    4.737193   5.566358   1.093770   0.000000
    15  Br   5.031700   5.817075   2.028436   2.531646   0.000000
 Symmetry turned off by external request.
 Stoichiometry    C6H5BrNO2(1+)
 Framework group  C1[X(C6H5BrNO2)]
 Deg. of freedom    39
 Full point group                 C1      NOp   1
 Rotational constants (GHZ):           1.8252210           0.5518633           0.4576002
 Leave Link  202 at Wed May  1 15:11:10 2024, MaxMem=  1207959552 cpu:               1.2 elap:               1.2
 (Enter /software/gaussian/g16-c01/sse4/g16/l301.exe)
 Standard basis: 6-311+G(d) (5D, 7F)
 Ernie: Thresh=  0.10000D-02 Tol=  0.10000D-05 Strict=F.
 The following finite field(s) will be applied:
 An electric field of              0.0000  0.0000  0.0243
   261 basis functions,   443 primitive gaussians,   273 cartesian basis functions
    49 alpha electrons       49 beta electrons
       nuclear repulsion energy       739.2122215416 Hartrees.
 IExCor= 4639 DFT=T Ex+Corr=wB97XD ExCW=0 ScaHFX=  1.000000
 ScaDFX=  1.000000  1.000000  1.000000  1.000000 ScalE2=  1.000000  1.000000
 IRadAn=      5 IRanWt=     -1 IRanGd=            0 ICorTp=0 IEmpDi=121
 HFx  wShort=  0.000000 wLong=  0.200000 cFull=  0.222036 cShort=  0.000000 cLong=  0.777964
 DFx  wShort=  0.000000 wLong=  0.200000 cFull=  0.000000 cShort=  0.000000 cLong=  1.000000
 NAtoms=   15 NActive=   15 NUniq=   15 SFac= 1.00D+00 NAtFMM=   60 NAOKFM=F Big=F
 Integral buffers will be    131072 words long.
 Raffenetti 2 integral format.
 Two-electron integral symmetry is turned off.
 R6Disp:  Grimme-D2 Dispersion energy=       -0.0077368520 Hartrees.
 Nuclear repulsion after empirical dispersion term =      739.2044846896 Hartrees.
 Leave Link  301 at Wed May  1 15:11:11 2024, MaxMem=  1207959552 cpu:               1.0 elap:               1.0
 (Enter /software/gaussian/g16-c01/sse4/g16/l302.exe)
 NPDir=0 NMtPBC=     1 NCelOv=     1 NCel=       1 NClECP=     1 NCelD=      1
         NCelK=      1 NCelE2=     1 NClLst=     1 CellRange=     0.0.
 One-electron integrals computed using PRISM.
 NBasis=   261 RedAO= T EigKep=  2.35D-06  NBF=   261
 NBsUse=   261 1.00D-06 EigRej= -1.00D+00 NBFU=   261
 Precomputing XC quadrature grid using
 IXCGrd= 4 IRadAn=           5 IRanWt=          -1 IRanGd=           0 AccXCQ= 0.00D+00.
 Generated NRdTot=       0 NPtTot=           0 NUsed=           0 NTot=          32
 NSgBfM=   273   273   273   273   273 MxSgAt=    15 MxSgA2=    15.
 Leave Link  302 at Wed May  1 15:11:33 2024, MaxMem=  1207959552 cpu:              21.7 elap:              21.6
 (Enter /software/gaussian/g16-c01/sse4/g16/l303.exe)
 DipDrv:  MaxL=1.
 The nuclear repulsion energy is now       736.4471287039 hartrees.
 Leave Link  303 at Wed May  1 15:11:36 2024, MaxMem=  1207959552 cpu:               3.2 elap:               3.2
 (Enter /software/gaussian/g16-c01/sse4/g16/l401.exe)
 ExpMin= 3.50D-02 ExpMax= 4.40D+05 ExpMxC= 1.51D+04 IAcc=3 IRadAn=         5 AccDes= 0.00D+00
 Harris functional with IExCor= 4639 and IRadAn=       5 diagonalized for initial guess.
 HarFok:  IExCor= 4639 AccDes= 0.00D+00 IRadAn=         5 IDoV= 1 UseB2=F ITyADJ=14
 ICtDFT=  3500011 ScaDFX=  1.000000  1.000000  1.000000  1.000000
 FoFCou: FMM=F IPFlag=           0 FMFlag=      100000 FMFlg1=           0
         NFxFlg=           0 DoJE=T BraDBF=F KetDBF=T FulRan=T
         wScrn=  0.000000 ICntrl=       500 IOpCl=  0 I1Cent=   200000004 NGrid=           0
         NMat0=    1 NMatS0=      1 NMatT0=    0 NMatD0=    1 NMtDS0=    0 NMtDT0=    0
 Symmetry not used in FoFCou.
 Harris En= -2970.63914607350    
 JPrj=0 DoOrth=F DoCkMO=F.
 Leave Link  401 at Wed May  1 15:12:07 2024, MaxMem=  1207959552 cpu:              30.9 elap:              30.9
 (Enter /software/gaussian/g16-c01/sse4/g16/l502.exe)
 Two-electron integral symmetry not used.
 Closed shell SCF:
 Using DIIS extrapolation, IDIIS=  1040.
 NGot=  1207959552 LenX=  1207804877 LenY=  1207729907
 Requested convergence on RMS density matrix=1.00D-08 within 128 cycles.
 Requested convergence on MAX density matrix=1.00D-06.
 Requested convergence on             energy=1.00D-06.
 No special actions if energy rises.
 Fock matrices will be formed incrementally for  20 cycles.

 Cycle   1  Pass 1  IDiag  1:
 FoFJK:  IHMeth= 1 ICntrl=       0 DoSepK=T KAlg= 0 I1Cent=           0 FoldK=F
 IRaf=         1 NMat=       1 IRICut=       1 DoRegI=T DoRafI=F ISym2E= 0 IDoP0=0 IntGTp=1.
 FoFCou: FMM=F IPFlag=           0 FMFlag=      100000 FMFlg1=           0
         NFxFlg=           0 DoJE=T BraDBF=F KetDBF=F FulRan=T
         wScrn=  0.000000 ICntrl=       500 IOpCl=  0 I1Cent=           0 NGrid=           0
         NMat0=    1 NMatS0=      1 NMatT0=    0 NMatD0=    1 NMtDS0=    0 NMtDT0=    0
 Symmetry not used in FoFCou.
 E= -3009.64738838158    
 DIIS: error= 3.21D-01 at cycle   1 NSaved=   1.
 NSaved= 1 IEnMin= 1 EnMin= -3009.64738838158     IErMin= 1 ErrMin= 3.21D-01
 ErrMax= 3.21D-01  0.00D+00 EMaxC= 1.00D-01 BMatC= 1.21D+01 BMatP= 1.21D+01
 IDIUse=3 WtCom= 0.00D+00 WtEn= 1.00D+00
 Coeff-Com:  0.100D+01
 Coeff-En:   0.100D+01
 Coeff:      0.100D+01
 Gap=     0.342 Goal=   None    Shift=    0.000
 GapD=    0.342 DampG=1.000 DampE=0.250 DampFc=0.2500 IDamp=-1.
 Damping current iteration by 2.50D-01
 RMSDP=1.94D-01 MaxDP=2.70D+01              OVMax= 2.54D-01

 Cycle   2  Pass 1  IDiag  1:
 RMSU=  7.65D-03    CP:  8.06D-01
 E= -3009.96812069596     Delta-E=       -0.320732314387 Rises=F Damp=T
 DIIS: error= 2.25D-01 at cycle   2 NSaved=   2.
 NSaved= 2 IEnMin= 2 EnMin= -3009.96812069596     IErMin= 2 ErrMin= 2.25D-01
 ErrMax= 2.25D-01  0.00D+00 EMaxC= 1.00D-01 BMatC= 5.47D+00 BMatP= 1.21D+01
 IDIUse=3 WtCom= 0.00D+00 WtEn= 1.00D+00
 Coeff-Com: -0.178D+01 0.278D+01
 Coeff-En:   0.000D+00 0.100D+01
 Coeff:      0.000D+00 0.100D+01
 Gap=     0.283 Goal=   None    Shift=    0.000
 RMSDP=1.45D-01 MaxDP=2.02D+01 DE=-3.21D-01 OVMax= 6.39D-02

 Cycle   3  Pass 1  IDiag  1:
 RMSU=  6.46D-03    CP:  2.24D-01  3.00D+00
 E= -3010.37367398456     Delta-E=       -0.405553288602 Rises=F Damp=F
 DIIS: error= 6.72D-02 at cycle   3 NSaved=   3.
 NSaved= 3 IEnMin= 3 EnMin= -3010.37367398456     IErMin= 3 ErrMin= 6.72D-02
 ErrMax= 6.72D-02  0.00D+00 EMaxC= 1.00D-01 BMatC= 7.98D-01 BMatP= 5.47D+00
 IDIUse=3 WtCom= 3.28D-01 WtEn= 6.72D-01
 Coeff-Com:  0.261D+01-0.342D+01 0.182D+01
 Coeff-En:   0.631D-01 0.000D+00 0.937D+00
 Coeff:      0.899D+00-0.112D+01 0.123D+01
 Gap=     0.294 Goal=   None    Shift=    0.000
 RMSDP=9.57D-03 MaxDP=7.86D-01 DE=-4.06D-01 OVMax= 1.21D-01

 Cycle   4  Pass 1  IDiag  1:
 RMSU=  7.41D-03    CP:  2.47D-01  3.00D+00  1.33D+00
 E= -3010.50500973275     Delta-E=       -0.131335748190 Rises=F Damp=F
 DIIS: error= 3.67D-02 at cycle   4 NSaved=   4.
 NSaved= 4 IEnMin= 4 EnMin= -3010.50500973275     IErMin= 4 ErrMin= 3.67D-02
 ErrMax= 3.67D-02  0.00D+00 EMaxC= 1.00D-01 BMatC= 2.21D-01 BMatP= 7.98D-01
 IDIUse=3 WtCom= 6.33D-01 WtEn= 3.67D-01
 Coeff-Com: -0.326D+00 0.448D+00 0.177D+00 0.701D+00
 Coeff-En:   0.000D+00 0.000D+00 0.177D+00 0.823D+00
 Coeff:     -0.207D+00 0.284D+00 0.177D+00 0.746D+00
 Gap=     0.250 Goal=   None    Shift=    0.000
 RMSDP=7.82D-03 MaxDP=1.09D+00 DE=-1.31D-01 OVMax= 5.36D-02

 Cycle   5  Pass 1  IDiag  1:
 RMSU=  2.21D-03    CP:  2.18D-01  3.00D+00  1.25D+00  6.99D-01
 E= -3010.55346566037     Delta-E=       -0.048455927620 Rises=F Damp=F
 DIIS: error= 7.04D-03 at cycle   5 NSaved=   5.
 NSaved= 5 IEnMin= 5 EnMin= -3010.55346566037     IErMin= 5 ErrMin= 7.04D-03
 ErrMax= 7.04D-03  0.00D+00 EMaxC= 1.00D-01 BMatC= 8.33D-03 BMatP= 2.21D-01
 IDIUse=3 WtCom= 9.30D-01 WtEn= 7.04D-02
 Coeff-Com: -0.194D+00 0.263D+00 0.140D-01 0.358D+00 0.559D+00
 Coeff-En:   0.000D+00 0.000D+00 0.000D+00 0.000D+00 0.100D+01
 Coeff:     -0.181D+00 0.244D+00 0.130D-01 0.333D+00 0.590D+00
 Gap=     0.234 Goal=   None    Shift=    0.000
 RMSDP=7.60D-04 MaxDP=4.96D-02 DE=-4.85D-02 OVMax= 1.49D-02

 Cycle   6  Pass 1  IDiag  1:
 RMSU=  5.10D-04    CP:  2.17D-01  3.00D+00  1.28D+00  7.48D-01  8.97D-01
 E= -3010.55555141729     Delta-E=       -0.002085756912 Rises=F Damp=F
 DIIS: error= 1.12D-03 at cycle   6 NSaved=   6.
 NSaved= 6 IEnMin= 6 EnMin= -3010.55555141729     IErMin= 6 ErrMin= 1.12D-03
 ErrMax= 1.12D-03  0.00D+00 EMaxC= 1.00D-01 BMatC= 1.46D-04 BMatP= 8.33D-03
 IDIUse=3 WtCom= 9.89D-01 WtEn= 1.12D-02
 Coeff-Com: -0.103D+00 0.139D+00-0.149D-01 0.149D+00 0.313D+00 0.517D+00
 Coeff-En:   0.000D+00 0.000D+00 0.000D+00 0.000D+00 0.000D+00 0.100D+01
 Coeff:     -0.102D+00 0.137D+00-0.147D-01 0.148D+00 0.309D+00 0.522D+00
 Gap=     0.235 Goal=   None    Shift=    0.000
 RMSDP=3.30D-04 MaxDP=4.42D-02 DE=-2.09D-03 OVMax= 5.99D-03

 Cycle   7  Pass 1  IDiag  1:
 RMSU=  1.76D-04    CP:  2.16D-01  3.00D+00  1.28D+00  7.42D-01  9.71D-01
                    CP:  9.93D-01
 E= -3010.55570352769     Delta-E=       -0.000152110400 Rises=F Damp=F
 DIIS: error= 5.30D-04 at cycle   7 NSaved=   7.
 NSaved= 7 IEnMin= 7 EnMin= -3010.55570352769     IErMin= 7 ErrMin= 5.30D-04
 ErrMax= 5.30D-04  0.00D+00 EMaxC= 1.00D-01 BMatC= 3.60D-05 BMatP= 1.46D-04
 IDIUse=3 WtCom= 9.95D-01 WtEn= 5.30D-03
 Coeff-Com: -0.302D-01 0.400D-01-0.163D-01 0.183D-01 0.582D-01 0.313D+00
 Coeff-Com:  0.617D+00
 Coeff-En:   0.000D+00 0.000D+00 0.000D+00 0.000D+00 0.000D+00 0.000D+00
 Coeff-En:   0.100D+01
 Coeff:     -0.300D-01 0.398D-01-0.162D-01 0.182D-01 0.579D-01 0.311D+00
 Coeff:      0.619D+00
 Gap=     0.236 Goal=   None    Shift=    0.000
 RMSDP=1.88D-04 MaxDP=2.40D-02 DE=-1.52D-04 OVMax= 5.59D-03

 Cycle   8  Pass 1  IDiag  1:
 RMSU=  7.86D-05    CP:  2.15D-01  3.00D+00  1.28D+00  7.45D-01  1.02D+00
                    CP:  1.16D+00  1.21D+00
 E= -3010.55576687666     Delta-E=       -0.000063348971 Rises=F Damp=F
 DIIS: error= 1.87D-04 at cycle   8 NSaved=   8.
 NSaved= 8 IEnMin= 8 EnMin= -3010.55576687666     IErMin= 8 ErrMin= 1.87D-04
 ErrMax= 1.87D-04  0.00D+00 EMaxC= 1.00D-01 BMatC= 6.93D-06 BMatP= 3.60D-05
 IDIUse=3 WtCom= 9.98D-01 WtEn= 1.87D-03
 Coeff-Com:  0.130D-01-0.178D-01-0.400D-02-0.312D-01-0.667D-01-0.372D-01
 Coeff-Com:  0.266D+00 0.878D+00
 Coeff-En:   0.000D+00 0.000D+00 0.000D+00 0.000D+00 0.000D+00 0.000D+00
 Coeff-En:   0.000D+00 0.100D+01
 Coeff:      0.130D-01-0.178D-01-0.399D-02-0.312D-01-0.665D-01-0.371D-01
 Coeff:      0.265D+00 0.878D+00
 Gap=     0.235 Goal=   None    Shift=    0.000
 RMSDP=1.47D-04 MaxDP=1.40D-02 DE=-6.33D-05 OVMax= 5.65D-03

 Cycle   9  Pass 1  IDiag  1:
 RMSU=  4.03D-05    CP:  2.15D-01  3.00D+00  1.29D+00  7.45D-01  1.04D+00
                    CP:  1.33D+00  1.67D+00  1.38D+00
 E= -3010.55579996174     Delta-E=       -0.000033085082 Rises=F Damp=F
 DIIS: error= 6.08D-05 at cycle   9 NSaved=   9.
 NSaved= 9 IEnMin= 9 EnMin= -3010.55579996174     IErMin= 9 ErrMin= 6.08D-05
 ErrMax= 6.08D-05  0.00D+00 EMaxC= 1.00D-01 BMatC= 1.29D-06 BMatP= 6.93D-06
 IDIUse=1 WtCom= 1.00D+00 WtEn= 0.00D+00
 Coeff-Com:  0.799D-02-0.106D-01 0.269D-02-0.103D-01-0.281D-01-0.889D-01
 Coeff-Com: -0.126D+00 0.204D+00 0.105D+01
 Coeff:      0.799D-02-0.106D-01 0.269D-02-0.103D-01-0.281D-01-0.889D-01
 Coeff:     -0.126D+00 0.204D+00 0.105D+01
 Gap=     0.235 Goal=   None    Shift=    0.000
 RMSDP=6.88D-05 MaxDP=4.63D-03 DE=-3.31D-05 OVMax= 4.71D-03

 Cycle  10  Pass 1  IDiag  1:
 RMSU=  3.00D-05    CP:  2.15D-01  3.00D+00  1.29D+00  7.44D-01  1.05D+00
                    CP:  1.40D+00  1.79D+00  1.62D+00  1.65D+00
 E= -3010.55581142817     Delta-E=       -0.000011466426 Rises=F Damp=F
 DIIS: error= 2.34D-05 at cycle  10 NSaved=  10.
 NSaved=10 IEnMin=10 EnMin= -3010.55581142817     IErMin=10 ErrMin= 2.34D-05
 ErrMax= 2.34D-05  0.00D+00 EMaxC= 1.00D-01 BMatC= 3.01D-07 BMatP= 1.29D-06
 IDIUse=1 WtCom= 1.00D+00 WtEn= 0.00D+00
 Coeff-Com: -0.211D-02 0.291D-02 0.862D-03 0.442D-02 0.896D-02-0.357D-02
 Coeff-Com: -0.720D-01-0.120D+00 0.220D+00 0.961D+00
 Coeff:     -0.211D-02 0.291D-02 0.862D-03 0.442D-02 0.896D-02-0.357D-02
 Coeff:     -0.720D-01-0.120D+00 0.220D+00 0.961D+00
 Gap=     0.235 Goal=   None    Shift=    0.000
 RMSDP=5.59D-05 MaxDP=7.44D-03 DE=-1.15D-05 OVMax= 1.97D-03

 Cycle  11  Pass 1  IDiag  1:
 RMSU=  1.00D-05    CP:  2.15D-01  3.00D+00  1.29D+00  7.43D-01  1.05D+00
                    CP:  1.41D+00  1.77D+00  1.66D+00  2.10D+00  1.47D+00
 E= -3010.55581360223     Delta-E=       -0.000002174061 Rises=F Damp=F
 DIIS: error= 1.51D-05 at cycle  11 NSaved=  11.
 NSaved=11 IEnMin=11 EnMin= -3010.55581360223     IErMin=11 ErrMin= 1.51D-05
 ErrMax= 1.51D-05  0.00D+00 EMaxC= 1.00D-01 BMatC= 8.21D-08 BMatP= 3.01D-07
 IDIUse=1 WtCom= 1.00D+00 WtEn= 0.00D+00
 Coeff-Com: -0.162D-02 0.216D-02-0.263D-03 0.340D-02 0.101D-01 0.274D-01
 Coeff-Com:  0.276D-01-0.102D+00-0.307D+00 0.249D+00 0.109D+01
 Coeff:     -0.162D-02 0.216D-02-0.263D-03 0.340D-02 0.101D-01 0.274D-01
 Coeff:      0.276D-01-0.102D+00-0.307D+00 0.249D+00 0.109D+01
 Gap=     0.235 Goal=   None    Shift=    0.000
 RMSDP=3.07D-05 MaxDP=3.68D-03 DE=-2.17D-06 OVMax= 1.48D-03

 Cycle  12  Pass 1  IDiag  1:
 RMSU=  4.77D-06    CP:  2.15D-01  3.00D+00  1.29D+00  7.43D-01  1.05D+00
                    CP:  1.41D+00  1.75D+00  1.66D+00  2.41D+00  1.92D+00
                    CP:  1.33D+00
 E= -3010.55581428164     Delta-E=       -0.000000679416 Rises=F Damp=F
 DIIS: error= 4.59D-06 at cycle  12 NSaved=  12.
 NSaved=12 IEnMin=12 EnMin= -3010.55581428164     IErMin=12 ErrMin= 4.59D-06
 ErrMax= 4.59D-06  0.00D+00 EMaxC= 1.00D-01 BMatC= 1.61D-08 BMatP= 8.21D-08
 IDIUse=1 WtCom= 1.00D+00 WtEn= 0.00D+00
 Coeff-Com: -0.401D-03 0.523D-03-0.174D-03 0.811D-03 0.211D-02 0.963D-02
 Coeff-Com:  0.175D-01-0.268D-01-0.138D+00-0.115D-01 0.447D+00 0.700D+00
 Coeff:     -0.401D-03 0.523D-03-0.174D-03 0.811D-03 0.211D-02 0.963D-02
 Coeff:      0.175D-01-0.268D-01-0.138D+00-0.115D-01 0.447D+00 0.700D+00
 Gap=     0.235 Goal=   None    Shift=    0.000
 RMSDP=4.80D-06 MaxDP=4.51D-04 DE=-6.79D-07 OVMax= 2.83D-04

 Cycle  13  Pass 1  IDiag  1:
 RMSU=  2.77D-06    CP:  2.15D-01  3.00D+00  1.29D+00  7.43D-01  1.05D+00
                    CP:  1.41D+00  1.75D+00  1.66D+00  2.43D+00  1.98D+00
                    CP:  1.55D+00  1.15D+00
 E= -3010.55581432597     Delta-E=       -0.000000044324 Rises=F Damp=F
 DIIS: error= 2.91D-06 at cycle  13 NSaved=  13.
 NSaved=13 IEnMin=13 EnMin= -3010.55581432597     IErMin=13 ErrMin= 2.91D-06
 ErrMax= 2.91D-06  0.00D+00 EMaxC= 1.00D-01 BMatC= 1.82D-09 BMatP= 1.61D-08
 IDIUse=1 WtCom= 1.00D+00 WtEn= 0.00D+00
 Coeff-Com:  0.124D-03-0.165D-03-0.189D-04-0.522D-03-0.209D-02-0.467D-02
 Coeff-Com: -0.291D-02 0.169D-01 0.468D-01-0.698D-01-0.156D+00 0.151D+00
 Coeff-Com:  0.102D+01
 Coeff:      0.124D-03-0.165D-03-0.189D-04-0.522D-03-0.209D-02-0.467D-02
 Coeff:     -0.291D-02 0.169D-01 0.468D-01-0.698D-01-0.156D+00 0.151D+00
 Coeff:      0.102D+01
 Gap=     0.235 Goal=   None    Shift=    0.000
 RMSDP=2.67D-06 MaxDP=1.50D-04 DE=-4.43D-08 OVMax= 1.31D-04

 Cycle  14  Pass 1  IDiag  1:
 RMSU=  6.92D-07    CP:  2.15D-01  3.00D+00  1.29D+00  7.44D-01  1.05D+00
                    CP:  1.41D+00  1.75D+00  1.66D+00  2.43D+00  2.00D+00
                    CP:  1.64D+00  1.44D+00  1.32D+00
 E= -3010.55581433497     Delta-E=       -0.000000009001 Rises=F Damp=F
 DIIS: error= 1.08D-06 at cycle  14 NSaved=  14.
 NSaved=14 IEnMin=14 EnMin= -3010.55581433497     IErMin=14 ErrMin= 1.08D-06
 ErrMax= 1.08D-06  0.00D+00 EMaxC= 1.00D-01 BMatC= 2.54D-10 BMatP= 1.82D-09
 IDIUse=1 WtCom= 1.00D+00 WtEn= 0.00D+00
 Coeff-Com:  0.954D-04-0.127D-03 0.145D-04-0.200D-03-0.464D-03-0.155D-02
 Coeff-Com: -0.205D-02 0.575D-02 0.231D-01-0.143D-01-0.772D-01-0.456D-01
 Coeff-Com:  0.247D+00 0.865D+00
 Coeff:      0.954D-04-0.127D-03 0.145D-04-0.200D-03-0.464D-03-0.155D-02
 Coeff:     -0.205D-02 0.575D-02 0.231D-01-0.143D-01-0.772D-01-0.456D-01
 Coeff:      0.247D+00 0.865D+00
 Gap=     0.235 Goal=   None    Shift=    0.000
 RMSDP=9.22D-07 MaxDP=8.71D-05 DE=-9.00D-09 OVMax= 2.26D-05

 Cycle  15  Pass 1  IDiag  1:
 RMSU=  3.09D-07    CP:  2.15D-01  3.00D+00  1.29D+00  7.44D-01  1.05D+00
                    CP:  1.41D+00  1.75D+00  1.66D+00  2.42D+00  2.00D+00
                    CP:  1.66D+00  1.52D+00  1.51D+00  1.28D+00
 E= -3010.55581433577     Delta-E=       -0.000000000799 Rises=F Damp=F
 DIIS: error= 4.68D-07 at cycle  15 NSaved=  15.
 NSaved=15 IEnMin=15 EnMin= -3010.55581433577     IErMin=15 ErrMin= 4.68D-07
 ErrMax= 4.68D-07  0.00D+00 EMaxC= 1.00D-01 BMatC= 4.50D-11 BMatP= 2.54D-10
 IDIUse=1 WtCom= 1.00D+00 WtEn= 0.00D+00
 Coeff-Com:  0.293D-04-0.391D-04 0.869D-05-0.150D-04 0.120D-03 0.111D-03
 Coeff-Com: -0.338D-03-0.258D-03 0.256D-02 0.417D-02-0.989D-02-0.397D-01
 Coeff-Com: -0.371D-01 0.331D+00 0.749D+00
 Coeff:      0.293D-04-0.391D-04 0.869D-05-0.150D-04 0.120D-03 0.111D-03
 Coeff:     -0.338D-03-0.258D-03 0.256D-02 0.417D-02-0.989D-02-0.397D-01
 Coeff:     -0.371D-01 0.331D+00 0.749D+00
 Gap=     0.235 Goal=   None    Shift=    0.000
 RMSDP=2.63D-07 MaxDP=1.78D-05 DE=-7.99D-10 OVMax= 7.45D-06

 Cycle  16  Pass 1  IDiag  1:
 RMSU=  9.96D-08    CP:  2.15D-01  3.00D+00  1.29D+00  7.44D-01  1.05D+00
                    CP:  1.41D+00  1.75D+00  1.66D+00  2.42D+00  2.00D+00
                    CP:  1.66D+00  1.53D+00  1.55D+00  1.45D+00  1.07D+00
 E= -3010.55581433587     Delta-E=       -0.000000000103 Rises=F Damp=F
 DIIS: error= 1.54D-07 at cycle  16 NSaved=  16.
 NSaved=16 IEnMin=16 EnMin= -3010.55581433587     IErMin=16 ErrMin= 1.54D-07
 ErrMax= 1.54D-07  0.00D+00 EMaxC= 1.00D-01 BMatC= 4.94D-12 BMatP= 4.50D-11
 IDIUse=1 WtCom= 1.00D+00 WtEn= 0.00D+00
 Coeff-Com: -0.330D-05 0.437D-05 0.923D-06 0.220D-04 0.988D-04 0.286D-03
 Coeff-Com:  0.213D-03-0.106D-02-0.279D-02 0.432D-02 0.854D-02-0.634D-02
 Coeff-Com: -0.530D-01-0.447D-01 0.202D+00 0.892D+00
 Coeff:     -0.330D-05 0.437D-05 0.923D-06 0.220D-04 0.988D-04 0.286D-03
 Coeff:      0.213D-03-0.106D-02-0.279D-02 0.432D-02 0.854D-02-0.634D-02
 Coeff:     -0.530D-01-0.447D-01 0.202D+00 0.892D+00
 Gap=     0.235 Goal=   None    Shift=    0.000
 RMSDP=1.32D-07 MaxDP=8.66D-06 DE=-1.03D-10 OVMax= 3.63D-06

 Cycle  17  Pass 1  IDiag  1:
 RMSU=  3.23D-08    CP:  2.15D-01  3.00D+00  1.29D+00  7.44D-01  1.05D+00
                    CP:  1.41D+00  1.75D+00  1.66D+00  2.42D+00  2.00D+00
                    CP:  1.66D+00  1.54D+00  1.58D+00  1.52D+00  1.27D+00
                    CP:  1.08D+00
 E= -3010.55581433589     Delta-E=       -0.000000000020 Rises=F Damp=F
 DIIS: error= 5.73D-08 at cycle  17 NSaved=  17.
 NSaved=17 IEnMin=17 EnMin= -3010.55581433589     IErMin=17 ErrMin= 5.73D-08
 ErrMax= 5.73D-08  0.00D+00 EMaxC= 1.00D-01 BMatC= 5.11D-13 BMatP= 4.94D-12
 IDIUse=1 WtCom= 1.00D+00 WtEn= 0.00D+00
 Coeff-Com: -0.226D-05 0.300D-05-0.448D-06 0.315D-05 0.111D-06 0.351D-04
 Coeff-Com:  0.796D-04-0.103D-03-0.631D-03 0.262D-03 0.200D-02 0.305D-02
 Coeff-Com: -0.318D-02-0.341D-01-0.622D-01 0.152D+00 0.943D+00
 Coeff:     -0.226D-05 0.300D-05-0.448D-06 0.315D-05 0.111D-06 0.351D-04
 Coeff:      0.796D-04-0.103D-03-0.631D-03 0.262D-03 0.200D-02 0.305D-02
 Coeff:     -0.318D-02-0.341D-01-0.622D-01 0.152D+00 0.943D+00
 Gap=     0.235 Goal=   None    Shift=    0.000
 RMSDP=4.68D-08 MaxDP=3.76D-06 DE=-2.05D-11 OVMax= 9.39D-07

 Cycle  18  Pass 1  IDiag  1:
 RMSU=  1.47D-08    CP:  2.15D-01  3.00D+00  1.29D+00  7.44D-01  1.05D+00
                    CP:  1.41D+00  1.75D+00  1.66D+00  2.42D+00  2.00D+00
                    CP:  1.66D+00  1.55D+00  1.58D+00  1.53D+00  1.32D+00
                    CP:  1.22D+00  1.36D+00
 E= -3010.55581433586     Delta-E=        0.000000000029 Rises=F Damp=F
 DIIS: error= 1.47D-08 at cycle  18 NSaved=  18.
 NSaved=18 IEnMin=17 EnMin= -3010.55581433589     IErMin=18 ErrMin= 1.47D-08
 ErrMax= 1.47D-08  0.00D+00 EMaxC= 1.00D-01 BMatC= 1.12D-13 BMatP= 5.11D-13
 IDIUse=1 WtCom= 1.00D+00 WtEn= 0.00D+00
 Coeff-Com:  0.309D-06-0.420D-06-0.110D-06-0.257D-05-0.154D-04-0.292D-04
 Coeff-Com:  0.121D-05 0.102D-03 0.138D-03-0.497D-03-0.390D-03 0.213D-02
 Coeff-Com:  0.585D-02-0.637D-02-0.557D-01-0.668D-01 0.343D+00 0.779D+00
 Coeff:      0.309D-06-0.420D-06-0.110D-06-0.257D-05-0.154D-04-0.292D-04
 Coeff:      0.121D-05 0.102D-03 0.138D-03-0.497D-03-0.390D-03 0.213D-02
 Coeff:      0.585D-02-0.637D-02-0.557D-01-0.668D-01 0.343D+00 0.779D+00
 Gap=     0.235 Goal=   None    Shift=    0.000
 RMSDP=1.01D-08 MaxDP=3.80D-07 DE= 2.91D-11 OVMax= 2.37D-07

 Cycle  19  Pass 1  IDiag  1:
 RMSU=  3.55D-09    CP:  2.15D-01  3.00D+00  1.29D+00  7.44D-01  1.05D+00
                    CP:  1.41D+00  1.75D+00  1.66D+00  2.42D+00  2.00D+00
                    CP:  1.66D+00  1.55D+00  1.58D+00  1.53D+00  1.33D+00
                    CP:  1.24D+00  1.51D+00  1.10D+00
 E= -3010.55581433590     Delta-E=       -0.000000000041 Rises=F Damp=F
 DIIS: error= 5.22D-09 at cycle  19 NSaved=  19.
 NSaved=19 IEnMin=19 EnMin= -3010.55581433590     IErMin=19 ErrMin= 5.22D-09
 ErrMax= 5.22D-09  0.00D+00 EMaxC= 1.00D-01 BMatC= 6.54D-15 BMatP= 1.12D-13
 IDIUse=1 WtCom= 1.00D+00 WtEn= 0.00D+00
 Coeff-Com:  0.119D-06-0.155D-06-0.343D-08-0.787D-06-0.379D-05-0.115D-04
 Coeff-Com: -0.102D-04 0.329D-04 0.114D-03-0.141D-03-0.338D-03 0.190D-03
 Coeff-Com:  0.156D-02 0.255D-02-0.716D-02-0.304D-01-0.704D-02 0.155D+00
 Coeff-Com:  0.886D+00
 Coeff:      0.119D-06-0.155D-06-0.343D-08-0.787D-06-0.379D-05-0.115D-04
 Coeff:     -0.102D-04 0.329D-04 0.114D-03-0.141D-03-0.338D-03 0.190D-03
 Coeff:      0.156D-02 0.255D-02-0.716D-02-0.304D-01-0.704D-02 0.155D+00
 Coeff:      0.886D+00
 Gap=     0.235 Goal=   None    Shift=    0.000
 RMSDP=5.16D-09 MaxDP=5.45D-07 DE=-4.14D-11 OVMax= 6.95D-08

 SCF Done:  E(RwB97XD) =  -3010.55581434     A.U. after   19 cycles
            NFock= 19  Conv=0.52D-08     -V/T= 2.0016
 KE= 3.005807731824D+03 PE=-8.628473080814D+03 EE= 1.875662405950D+03
 Leave Link  502 at Wed May  1 15:30:34 2024, MaxMem=  1207959552 cpu:            1107.1 elap:            1107.1
 (Enter /software/gaussian/g16-c01/sse4/g16/l601.exe)
 Copying SCF densities to generalized density rwf, IOpCl= 0 IROHF=0.

 **********************************************************************

            Population analysis using the SCF Density.

 **********************************************************************

 Alpha  occ. eigenvalues -- -483.27746 -62.82704 -56.62464 -56.61799 -56.61799
 Alpha  occ. eigenvalues --  -19.44829 -19.44776 -14.84319 -10.56482 -10.56062
 Alpha  occ. eigenvalues --  -10.55961 -10.55716 -10.55561 -10.51884  -8.98462
 Alpha  occ. eigenvalues --   -6.81314  -6.79160  -6.79153  -2.91176  -2.90606
 Alpha  occ. eigenvalues --   -2.90598  -2.88878  -2.88877  -1.48582  -1.31564
 Alpha  occ. eigenvalues --   -1.21252  -1.12389  -1.10376  -1.01372  -0.99872
 Alpha  occ. eigenvalues --   -0.93972  -0.89715  -0.84198  -0.79707  -0.79397
 Alpha  occ. eigenvalues --   -0.78858  -0.77249  -0.74996  -0.74735  -0.70447
 Alpha  occ. eigenvalues --   -0.68060  -0.66344  -0.61540  -0.58364  -0.55992
 Alpha  occ. eigenvalues --   -0.55103  -0.54553  -0.52052  -0.51470
 Alpha virt. eigenvalues --   -0.27931  -0.20325  -0.15279  -0.13636  -0.11348
 Alpha virt. eigenvalues --   -0.10445  -0.10128  -0.06773  -0.06148  -0.05332
 Alpha virt. eigenvalues --   -0.03049  -0.01589  -0.00612   0.00342   0.00631
 Alpha virt. eigenvalues --    0.02427   0.02633   0.03760   0.03913   0.04787
 Alpha virt. eigenvalues --    0.05562   0.06277   0.07256   0.07499   0.07810
 Alpha virt. eigenvalues --    0.08682   0.08976   0.09616   0.11333   0.11488
 Alpha virt. eigenvalues --    0.11896   0.12541   0.12999   0.13802   0.14298
 Alpha virt. eigenvalues --    0.15908   0.16265   0.16689   0.17367   0.17842
 Alpha virt. eigenvalues --    0.18192   0.18628   0.18791   0.19762   0.20981
 Alpha virt. eigenvalues --    0.21092   0.22674   0.23021   0.23779   0.26325
 Alpha virt. eigenvalues --    0.26774   0.28956   0.29917   0.32206   0.34468
 Alpha virt. eigenvalues --    0.35095   0.35310   0.36196   0.38507   0.38617
 Alpha virt. eigenvalues --    0.39299   0.40244   0.41450   0.42392   0.43639
 Alpha virt. eigenvalues --    0.44805   0.45170   0.45945   0.47145   0.48620
 Alpha virt. eigenvalues --    0.49418   0.51672   0.52690   0.53916   0.54404
 Alpha virt. eigenvalues --    0.55594   0.56933   0.57357   0.58702   0.60567
 Alpha virt. eigenvalues --    0.62562   0.63633   0.65837   0.68609   0.70138
 Alpha virt. eigenvalues --    0.71271   0.73319   0.73836   0.74650   0.75319
 Alpha virt. eigenvalues --    0.76341   0.80325   0.81127   0.86007   0.86462
 Alpha virt. eigenvalues --    0.88244   0.89275   0.92827   0.94698   0.99890
 Alpha virt. eigenvalues --    1.00813   1.02288   1.05912   1.06437   1.07783
 Alpha virt. eigenvalues --    1.10796   1.11761   1.13234   1.13670   1.15284
 Alpha virt. eigenvalues --    1.23039   1.25476   1.27719   1.34095   1.37571
 Alpha virt. eigenvalues --    1.37920   1.39305   1.46692   1.55486   1.58199
 Alpha virt. eigenvalues --    1.59601   1.59910   1.61694   1.63470   1.67553
 Alpha virt. eigenvalues --    1.70214   1.71057   1.74640   1.76307   1.80159
 Alpha virt. eigenvalues --    1.82173   1.86474   1.88620   1.96709   1.99043
 Alpha virt. eigenvalues --    2.00522   2.04030   2.05127   2.08673   2.09728
 Alpha virt. eigenvalues --    2.11557   2.16006   2.21388   2.23652   2.30227
 Alpha virt. eigenvalues --    2.38458   2.42174   2.43262   2.44484   2.53564
 Alpha virt. eigenvalues --    2.57597   2.64088   2.67176   2.69258   2.72756
 Alpha virt. eigenvalues --    2.74429   2.77548   2.78389   2.82104   2.83063
 Alpha virt. eigenvalues --    2.94882   2.97528   3.01674   3.06783   3.10113
 Alpha virt. eigenvalues --    3.13986   3.16031   3.20060   3.24739   3.25304
 Alpha virt. eigenvalues --    3.28378   3.40164   3.48661   3.52311   3.55575
 Alpha virt. eigenvalues --    3.57927   3.70969   3.75169   3.83320   3.88381
 Alpha virt. eigenvalues --    4.12881   4.13083   4.20229   4.25513   4.45370
 Alpha virt. eigenvalues --    4.46238   4.58695   4.60968   4.94222   4.96880
 Alpha virt. eigenvalues --    5.05533   5.09700   5.63862   6.16786   6.68405
 Alpha virt. eigenvalues --    7.51622   7.53165   7.62723  23.22537  23.62415
 Alpha virt. eigenvalues --   23.71224  23.80762  23.97121  24.02541  35.33640
 Alpha virt. eigenvalues --   47.94775  49.86586  49.95396 289.84039 289.85707
 Alpha virt. eigenvalues --  289.980951020.95101
          Condensed to atoms (all electrons):
               1          2          3          4          5          6
     1  C    8.960005  -1.780850  -0.532218  -1.130042  -0.755004   0.306750
     2  C   -1.780850  13.510225  -1.284730  -4.654822   0.735643  -0.023175
     3  C   -0.532218  -1.284730  14.159456  -4.322066  -0.789233   0.036844
     4  C   -1.130042  -4.654822  -4.322066  19.108533   0.645734   0.001144
     5  C   -0.755004   0.735643  -0.789233   0.645734   8.034055   0.009107
     6  H    0.306750  -0.023175   0.036844   0.001144   0.009107   0.340172
     7  H    0.062065   0.224382   0.082242  -0.028923  -0.025286  -0.001553
     8  H    0.007776  -0.008331   0.083395   0.199791  -0.024315   0.000002
     9  H    0.038440  -0.030402   0.003529  -0.005062   0.288857  -0.002280
    10  N   -0.106959   0.371235  -1.084871   0.333921  -0.011501  -0.000788
    11  O    0.025932   0.013684  -0.213656  -0.158695  -0.058560  -0.000028
    12  O    0.291520  -0.196834  -0.234856   0.066796  -0.049215   0.000116
    13  C    1.152138  -1.314816   0.738767  -4.283620  -1.911762   0.002811
    14  H   -0.037866   0.012149  -0.005968   0.031814   0.038688  -0.000007
    15  Br   0.036947   0.006261   0.048778  -0.054867  -0.046605   0.000087
               7          8          9         10         11         12
     1  C    0.062065   0.007776   0.038440  -0.106959   0.025932   0.291520
     2  C    0.224382  -0.008331  -0.030402   0.371235   0.013684  -0.196834
     3  C    0.082242   0.083395   0.003529  -1.084871  -0.213656  -0.234856
     4  C   -0.028923   0.199791  -0.005062   0.333921  -0.158695   0.066796
     5  C   -0.025286  -0.024315   0.288857  -0.011501  -0.058560  -0.049215
     6  H   -0.001553   0.000002  -0.002280  -0.000788  -0.000028   0.000116
     7  H    0.301176   0.000031   0.000083  -0.027255  -0.001483   0.021585
     8  H    0.000031   0.305373   0.000201  -0.025843   0.024067  -0.000873
     9  H    0.000083   0.000201   0.342865   0.000598  -0.000029   0.000019
    10  N   -0.027255  -0.025843   0.000598   7.465549   0.172539   0.120836
    11  O   -0.001483   0.024067  -0.000029   0.172539   7.854473  -0.009064
    12  O    0.021585  -0.000873   0.000019   0.120836  -0.009064   7.906997
    13  C    0.023845   0.069977   0.021690  -0.093914   0.313686   0.046303
    14  H   -0.000074  -0.009360  -0.010547  -0.001419  -0.000008   0.000024
    15  Br   0.000491   0.007451   0.006495   0.003176   0.001963   0.003682
              13         14         15
     1  C    1.152138  -0.037866   0.036947
     2  C   -1.314816   0.012149   0.006261
     3  C    0.738767  -0.005968   0.048778
     4  C   -4.283620   0.031814  -0.054867
     5  C   -1.911762   0.038688  -0.046605
     6  H    0.002811  -0.000007   0.000087
     7  H    0.023845  -0.000074   0.000491
     8  H    0.069977  -0.009360   0.007451
     9  H    0.021690  -0.010547   0.006495
    10  N   -0.093914  -0.001419   0.003176
    11  O    0.313686  -0.000008   0.001963
    12  O    0.046303   0.000024   0.003682
    13  C   11.237815   0.231051   0.217760
    14  H    0.231051   0.491928  -0.058319
    15  Br   0.217760  -0.058319  34.427495
 Mulliken charges:
               1
     1  C   -0.538634
     2  C    0.420380
     3  C   -0.685412
     4  C    0.250364
     5  C   -0.080602
     6  H    0.330796
     7  H    0.368674
     8  H    0.370658
     9  H    0.345542
    10  N   -0.115304
    11  O    0.035180
    12  O    0.032965
    13  C   -0.451730
    14  H    0.317915
    15  Br   0.399208
 Sum of Mulliken charges =   1.00000
 Mulliken charges with hydrogens summed into heavy atoms:
               1
     1  C   -0.207838
     2  C    0.789053
     3  C   -0.685412
     4  C    0.621022
     5  C    0.264940
    10  N   -0.115304
    11  O    0.035180
    12  O    0.032965
    13  C   -0.133815
    15  Br   0.399208
 Electronic spatial extent (au):  <R**2>=           2795.1122
 Charge=              1.0000 electrons
 Dipole moment (field-independent basis, Debye):
    X=             -1.4292    Y=             -1.5444    Z=             -4.2923  Tot=              4.7803
 Quadrupole moment (field-independent basis, Debye-Ang):
   XX=            -72.1338   YY=            -50.7614   ZZ=            -58.5730
   XY=              2.0104   XZ=             -0.8649   YZ=              5.2610
 Traceless Quadrupole moment (field-independent basis, Debye-Ang):
   XX=            -11.6444   YY=              9.7280   ZZ=              1.9164
   XY=              2.0104   XZ=             -0.8649   YZ=              5.2610
 Octapole moment (field-independent basis, Debye-Ang**2):
  XXX=           -304.0375  YYY=             81.0371  ZZZ=             58.4456  XYY=            -78.6190
  XXY=             28.9380  XXZ=             17.9598  XZZ=            -81.1713  YZZ=              6.7945
  YYZ=             12.3457  XYZ=             -5.8627
 Hexadecapole moment (field-independent basis, Debye-Ang**3):
 XXXX=          -2295.6066 YYYY=           -664.0661 ZZZZ=           -310.6767 XXXY=            -65.6460
 XXXZ=            -61.0080 YYYX=            -55.1589 YYYZ=           -133.5534 ZZZX=            -15.6621
 ZZZY=           -108.9232 XXYY=           -456.6935 XXZZ=           -366.5425 YYZZ=           -143.4483
 XXYZ=            -51.3108 YYXZ=             -1.7812 ZZXY=             -3.0384
 N-N= 7.364471287039D+02 E-N=-8.628473079594D+03  KE= 3.005807731824D+03
 No NMR shielding tensors so no spin-rotation constants.
 Leave Link  601 at Wed May  1 15:30:42 2024, MaxMem=  1207959552 cpu:               7.5 elap:               7.5
 (Enter /software/gaussian/g16-c01/sse4/g16/l9999.exe)
 Unable to Open any file for archive entry.
 1\1\GINC-BHX0030\SP\RwB97XD\6-311+G(d)\C6H5Br1N1O2(1+)\BWEIGHT\01-May-
 2024\0\\#P wB97XD/6-311+G* NoSymm #P Field=Z+243\\TitleMe\\1,1\C,0,0.0
 295,1.3397,0.0682\C,0,1.4348,1.2867,0.0064\C,0,2.1118,0.0511,-0.0054\C
 ,0,1.4451,-1.1372,0.0312\C,0,-0.6879,0.1682,0.11\H,0,-0.4713,2.2984,0.
 0781\H,0,2.0273,2.1965,-0.0322\H,0,1.9897,-2.0764,0.0232\H,0,-1.7716,0
 .1804,0.1582\N,0,3.5864,0.051,-0.0675\O,0,4.1471,-1.0597,-0.0881\O,0,4
 .145,1.1639,-0.0901\C,0,-0.0236,-1.1458,0.0835\H,0,-0.4367,-1.8725,0.7
 889\Br,0,-0.5359,-1.8697,-1.7408\\Version=ES64L-G16RevC.01\HF=-3010.55
 58143\RMSD=5.156e-09\Dipole=-2.4688274,0.5404762,-0.5425465\Quadrupole
 =-8.657347,7.2325516,1.4247954,1.4946768,-0.6430375,3.9114437\PG=C01 [
 X(C6H5Br1N1O2)]\\@
 The archive entry for this job was punched.


 ERWIN WITH HIS PSI CAN DO
 CALCULATIONS QUITE A FEW.
 BUT ONE THING HAS NOT BEEN SEEN
 JUST WHAT DOES PSI REALLY MEAN.
 -- WALTER HUCKEL, TRANS. BY FELIX BLOCH
 Job cpu time:       0 days  0 hours 19 minutes 37.2 seconds.
 Elapsed time:       0 days  0 hours 19 minutes 37.5 seconds.
 File lengths (MBytes):  RWF=     40 Int=      0 D2E=      0 Chk=     32 Scr=      1
 Normal termination of Gaussian 16 at Wed May  1 15:30:43 2024.
