 Entering Gaussian System, Link 0=g16
 Initial command:
 /software/gaussian/g16-a03/l1.exe "/local_scratch/6485024/Gau-30934.inp" -scrdir="/local_scratch/6485024/"
 Entering Link 1 = /software/gaussian/g16-a03/l1.exe PID=     30954.
  
 Copyright (c) 1988,1990,1992,1993,1995,1998,2003,2009,2016,
            Gaussian, Inc.  All Rights Reserved.
  
 This is part of the Gaussian(R) 16 program.  It is based on
 the Gaussian(R) 09 system (copyright 2009, Gaussian, Inc.),
 the Gaussian(R) 03 system (copyright 2003, Gaussian, Inc.),
 the Gaussian(R) 98 system (copyright 1998, Gaussian, Inc.),
 the Gaussian(R) 94 system (copyright 1995, Gaussian, Inc.),
 the Gaussian 92(TM) system (copyright 1992, Gaussian, Inc.),
 the Gaussian 90(TM) system (copyright 1990, Gaussian, Inc.),
 the Gaussian 88(TM) system (copyright 1988, Gaussian, Inc.),
 the Gaussian 86(TM) system (copyright 1986, Carnegie Mellon
 University), and the Gaussian 82(TM) system (copyright 1983,
 Carnegie Mellon University). Gaussian is a federally registered
 trademark of Gaussian, Inc.
  
 This software contains proprietary and confidential information,
 including trade secrets, belonging to Gaussian, Inc.
  
 This software is provided under written license and may be
 used, copied, transmitted, or stored only in accord with that
 written license.
  
 The following legend is applicable only to US Government
 contracts under FAR:
  
                    RESTRICTED RIGHTS LEGEND
  
 Use, reproduction and disclosure by the US Government is
 subject to restrictions as set forth in subparagraphs (a)
 and (c) of the Commercial Computer Software - Restricted
 Rights clause in FAR 52.227-19.
  
 Gaussian, Inc.
 340 Quinnipiac St., Bldg. 40, Wallingford CT 06492
  
  
 ---------------------------------------------------------------
 Warning -- This program may not be used in any manner that
 competes with the business of Gaussian, Inc. or will provide
 assistance to any competitor of Gaussian, Inc.  The licensee
 of this program is prohibited from giving any competitor of
 Gaussian, Inc. access to this program.  By using this program,
 the user acknowledges that Gaussian, Inc. is engaged in the
 business of creating and licensing software in the field of
 computational chemistry and represents and warrants to the
 licensee that it is not a competitor of Gaussian, Inc. and that
 it will not use this program in any manner prohibited above.
 ---------------------------------------------------------------
  

 Cite this work as:
 Gaussian 16, Revision A.03,
 M. J. Frisch, G. W. Trucks, H. B. Schlegel, G. E. Scuseria, 
 M. A. Robb, J. R. Cheeseman, G. Scalmani, V. Barone, 
 G. A. Petersson, H. Nakatsuji, X. Li, M. Caricato, A. V. Marenich, 
 J. Bloino, B. G. Janesko, R. Gomperts, B. Mennucci, H. P. Hratchian, 
 J. V. Ortiz, A. F. Izmaylov, J. L. Sonnenberg, D. Williams-Young, 
 F. Ding, F. Lipparini, F. Egidi, J. Goings, B. Peng, A. Petrone, 
 T. Henderson, D. Ranasinghe, V. G. Zakrzewski, J. Gao, N. Rega, 
 G. Zheng, W. Liang, M. Hada, M. Ehara, K. Toyota, R. Fukuda, 
 J. Hasegawa, M. Ishida, T. Nakajima, Y. Honda, O. Kitao, H. Nakai, 
 T. Vreven, K. Throssell, J. A. Montgomery, Jr., J. E. Peralta, 
 F. Ogliaro, M. J. Bearpark, J. J. Heyd, E. N. Brothers, K. N. Kudin, 
 V. N. Staroverov, T. A. Keith, R. Kobayashi, J. Normand, 
 K. Raghavachari, A. P. Rendell, J. C. Burant, S. S. Iyengar, 
 J. Tomasi, M. Cossi, J. M. Millam, M. Klene, C. Adamo, R. Cammi, 
 J. W. Ochterski, R. L. Martin, K. Morokuma, O. Farkas, 
 J. B. Foresman, and D. J. Fox, Gaussian, Inc., Wallingford CT, 2016.
 
 ******************************************
 Gaussian 16:  ES64L-G16RevA.03 25-Dec-2016
                17-Sep-2021 
 ******************************************
 %chk=geometry.chk
 %mem=2GB
 %nprocshared=1
 Will use up to    1 processors via shared memory.
 --------------------------------------------------------------------
 #p B3LYP/6-311+G** #p TD=(singlets,nstates=30)IOp(6/8=3) IOp(9/40=4)
 --------------------------------------------------------------------
 1/38=1,172=1/1;
 2/12=2,17=6,18=5,40=1/2;
 3/5=4,6=6,7=111,11=9,25=1,30=1,74=-5/1,2,3,8;
 4//1;
 5/5=2,38=5/2;
 8/6=1,10=2,108=30/1;
 9/40=4,41=30,42=1,48=1,70=2/14;
 6/7=2,8=3,9=2,10=2/1;
 99/5=1,9=1/99;
 Leave Link    1 at Fri Sep 17 10:52:50 2021, MaxMem=   268435456 cpu:               0.0 elap:               0.2
 (Enter /software/gaussian/g16-a03/l101.exe)
 --------------------------------
 Scan Step 293, Bond Length 1.965
 --------------------------------
 Symbolic Z-matrix:
 Charge =  0 Multiplicity = 1
 C                     0.        0.       -0.52736 
 H                     0.        0.93726  -1.11871 
 H                     0.       -0.93726  -1.11871 
 O                     0.        0.        1.43764 
 
 ITRead=  0  0  0  0
 MicOpt= -1 -1 -1 -1
 NAtoms=      4 NQM=        4 NQMF=       0 NMMI=      0 NMMIF=      0
                NMic=       0 NMicF=      0.
                    Isotopes and Nuclear Properties:
 (Nuclear quadrupole moments (NQMom) in fm**2, nuclear magnetic moments (NMagM)
  in nuclear magnetons)

  Atom         1           2           3           4
 IAtWgt=          12           1           1          16
 AtmWgt=  12.0000000   1.0078250   1.0078250  15.9949146
 NucSpn=           0           1           1           0
 AtZEff=  -0.0000000  -0.0000000  -0.0000000  -0.0000000
 NQMom=    0.0000000   0.0000000   0.0000000   0.0000000
 NMagM=    0.0000000   2.7928460   2.7928460   0.0000000
 AtZNuc=   6.0000000   1.0000000   1.0000000   8.0000000
 Leave Link  101 at Fri Sep 17 10:52:51 2021, MaxMem=   268435456 cpu:               0.1 elap:               0.1
 (Enter /software/gaussian/g16-a03/l202.exe)
                          Input orientation:                          
 ---------------------------------------------------------------------
 Center     Atomic      Atomic             Coordinates (Angstroms)
 Number     Number       Type             X           Y           Z
 ---------------------------------------------------------------------
      1          6           0        0.000000    0.000000   -0.527360
      2          1           0        0.000000    0.937260   -1.118710
      3          1           0        0.000000   -0.937260   -1.118710
      4          8           0        0.000000    0.000000    1.437640
 ---------------------------------------------------------------------
                    Distance matrix (angstroms):
                    1          2          3          4
     1  C    0.000000
     2  H    1.108220   0.000000
     3  H    1.108220   1.874520   0.000000
     4  O    1.965000   2.722753   2.722753   0.000000
 Stoichiometry    CH2O
 Framework group  C2V[C2(CO),SGV(H2)]
 Deg. of freedom     3
 Full point group                 C2V     NOp   4
 Largest Abelian subgroup         C2V     NOp   4
 Largest concise Abelian subgroup C2      NOp   2
                         Standard orientation:                         
 ---------------------------------------------------------------------
 Center     Atomic      Atomic             Coordinates (Angstroms)
 Number     Number       Type             X           Y           Z
 ---------------------------------------------------------------------
      1          6           0        0.000000    0.000000   -0.908581
      2          1           0        0.000000    0.937260   -1.499931
      3          1           0       -0.000000   -0.937260   -1.499931
      4          8           0        0.000000   -0.000000    1.056419
 ---------------------------------------------------------------------
 Rotational constants (GHZ):         285.4183527          15.7942975          14.9661124
 Leave Link  202 at Fri Sep 17 10:52:51 2021, MaxMem=   268435456 cpu:               0.0 elap:               0.0
 (Enter /software/gaussian/g16-a03/l301.exe)
 Standard basis: 6-311+G(d,p) (5D, 7F)
 Ernie: Thresh=  0.10000D-02 Tol=  0.10000D-05 Strict=F.
 There are    29 symmetry adapted cartesian basis functions of A1  symmetry.
 There are     3 symmetry adapted cartesian basis functions of A2  symmetry.
 There are    11 symmetry adapted cartesian basis functions of B1  symmetry.
 There are    15 symmetry adapted cartesian basis functions of B2  symmetry.
 There are    27 symmetry adapted basis functions of A1  symmetry.
 There are     3 symmetry adapted basis functions of A2  symmetry.
 There are    11 symmetry adapted basis functions of B1  symmetry.
 There are    15 symmetry adapted basis functions of B2  symmetry.
    56 basis functions,    88 primitive gaussians,    58 cartesian basis functions
     8 alpha electrons        8 beta electrons
       nuclear repulsion energy        22.0484509686 Hartrees.
 IExCor=  402 DFT=T Ex+Corr=B3LYP ExCW=0 ScaHFX=  0.200000
 ScaDFX=  0.800000  0.720000  1.000000  0.810000 ScalE2=  1.000000  1.000000
 IRadAn=      5 IRanWt=     -1 IRanGd=            0 ICorTp=0 IEmpDi=  4
 NAtoms=    4 NActive=    4 NUniq=    3 SFac= 1.78D+00 NAtFMM=   60 NAOKFM=F Big=F
 Integral buffers will be    131072 words long.
 Regular integral format.
 Two-electron integral symmetry is turned on.
 Leave Link  301 at Fri Sep 17 10:52:51 2021, MaxMem=   268435456 cpu:               0.1 elap:               0.1
 (Enter /software/gaussian/g16-a03/l302.exe)
 NPDir=0 NMtPBC=     1 NCelOv=     1 NCel=       1 NClECP=     1 NCelD=      1
         NCelK=      1 NCelE2=     1 NClLst=     1 CellRange=     0.0.
 One-electron integrals computed using PRISM.
 One-electron integral symmetry used in STVInt
 NBasis=    56 RedAO= T EigKep=  1.49D-02  NBF=    27     3    11    15
 NBsUse=    56 1.00D-06 EigRej= -1.00D+00 NBFU=    27     3    11    15
 Precomputing XC quadrature grid using
 IXCGrd= 4 IRadAn=           5 IRanWt=          -1 IRanGd=           0 AccXCQ= 0.00D+00.
 Generated NRdTot=       0 NPtTot=           0 NUsed=           0 NTot=          32
 NSgBfM=    58    58    58    58    58 MxSgAt=     4 MxSgA2=     4.
 Leave Link  302 at Fri Sep 17 10:52:51 2021, MaxMem=   268435456 cpu:               0.3 elap:               0.3
 (Enter /software/gaussian/g16-a03/l303.exe)
 DipDrv:  MaxL=1.
 Leave Link  303 at Fri Sep 17 10:52:51 2021, MaxMem=   268435456 cpu:               0.1 elap:               0.1
 (Enter /software/gaussian/g16-a03/l308.exe)
 Leave Link  308 at Fri Sep 17 10:52:51 2021, MaxMem=   268435456 cpu:               0.1 elap:               0.1
 (Enter /software/gaussian/g16-a03/l401.exe)
 ExpMin= 4.38D-02 ExpMax= 8.59D+03 ExpMxC= 1.30D+03 IAcc=3 IRadAn=         5 AccDes= 0.00D+00
 Harris functional with IExCor=  402 and IRadAn=       5 diagonalized for initial guess.
 HarFok:  IExCor=  402 AccDes= 0.00D+00 IRadAn=         5 IDoV= 1 UseB2=F ITyADJ=14
 ICtDFT=  3500011 ScaDFX=  1.000000  1.000000  1.000000  1.000000
 FoFCou: FMM=F IPFlag=           0 FMFlag=      100000 FMFlg1=           0
         NFxFlg=           0 DoJE=T BraDBF=F KetDBF=T FulRan=T
         wScrn=  0.000000 ICntrl=       500 IOpCl=  0 I1Cent=   200000004 NGrid=           0
         NMat0=    1 NMatS0=      1 NMatT0=    0 NMatD0=    1 NMtDS0=    0 NMtDT0=    0
 Petite list used in FoFCou.
 Harris En= -114.352292620333    
 JPrj=0 DoOrth=F DoCkMO=F.
 Initial guess orbital symmetries:
       Occupied  (A1) (A1) (A1) (A1) (B2) (A1) (B1) (B2)
       Virtual   (B1) (A1) (A1) (B2) (A1) (B1) (A1) (B2) (A1) (B1)
                 (B2) (A1) (B2) (A1) (B1) (A1) (B2) (A1) (B1) (A2)
                 (A1) (B2) (A1) (B1) (B2) (A1) (A1) (B2) (B1) (A2)
                 (A1) (B2) (A1) (B2) (A1) (B1) (A1) (A2) (A1) (B1)
                 (B2) (A1) (B2) (B1) (B2) (A1) (A1) (A1)
 The electronic state of the initial guess is 1-A1.
 Leave Link  401 at Fri Sep 17 10:52:52 2021, MaxMem=   268435456 cpu:               0.5 elap:               0.5
 (Enter /software/gaussian/g16-a03/l502.exe)
 Keep R1 ints in memory in symmetry-blocked form, NReq=2159901.
 FoFCou: FMM=F IPFlag=           0 FMFlag=           0 FMFlg1=           0
         NFxFlg=           0 DoJE=F BraDBF=F KetDBF=F FulRan=T
         wScrn=  0.000000 ICntrl=       600 IOpCl=  0 I1Cent=           0 NGrid=           0
         NMat0=    1 NMatS0=   1596 NMatT0=    0 NMatD0=    1 NMtDS0=    0 NMtDT0=    0
 Petite list used in FoFCou.
 Closed shell SCF:
 Using DIIS extrapolation, IDIIS=  1040.
 NGot=   268435456 LenX=   268074392 LenY=   268070587
 Requested convergence on RMS density matrix=1.00D-08 within 128 cycles.
 Requested convergence on MAX density matrix=1.00D-06.
 Requested convergence on             energy=1.00D-06.
 No special actions if energy rises.

 Cycle   1  Pass 1  IDiag  1:
 E= -114.097762547593    
 DIIS: error= 7.57D-02 at cycle   1 NSaved=   1.
 NSaved= 1 IEnMin= 1 EnMin= -114.097762547593     IErMin= 1 ErrMin= 7.57D-02
 ErrMax= 7.57D-02  0.00D+00 EMaxC= 1.00D-01 BMatC= 2.00D-01 BMatP= 2.00D-01
 IDIUse=3 WtCom= 2.43D-01 WtEn= 7.57D-01
 Coeff-Com:  0.100D+01
 Coeff-En:   0.100D+01
 Coeff:      0.100D+01
 Gap=     0.058 Goal=   None    Shift=    0.000
 GapD=    0.058 DampG=0.500 DampE=0.500 DampFc=0.2500 IDamp=-1.
 Damping current iteration by 2.50D-01
 RMSDP=4.05D-02 MaxDP=7.59D-01              OVMax= 9.82D-01

 Cycle   2  Pass 1  IDiag  1:
 E= -113.990265330803     Delta-E=        0.107497216790 Rises=F Damp=T
 DIIS: error= 3.45D-02 at cycle   2 NSaved=   2.
 NSaved= 2 IEnMin= 1 EnMin= -114.097762547593     IErMin= 2 ErrMin= 3.45D-02
 ErrMax= 3.45D-02  0.00D+00 EMaxC= 1.00D-01 BMatC= 4.78D-02 BMatP= 2.00D-01
 IDIUse=3 WtCom= 6.55D-01 WtEn= 3.45D-01
 Coeff-Com:  0.309D+00 0.691D+00
 Coeff-En:   0.615D+00 0.385D+00
 Coeff:      0.414D+00 0.586D+00
 Gap=     0.028 Goal=   None    Shift=    0.000
 RMSDP=9.75D-03 MaxDP=1.61D-01 DE= 1.07D-01 OVMax= 5.25D-01

 Cycle   3  Pass 1  IDiag  1:
 E= -114.292924857439     Delta-E=       -0.302659526636 Rises=F Damp=F
 DIIS: error= 2.21D-02 at cycle   3 NSaved=   3.
 NSaved= 3 IEnMin= 3 EnMin= -114.292924857439     IErMin= 3 ErrMin= 2.21D-02
 ErrMax= 2.21D-02  0.00D+00 EMaxC= 1.00D-01 BMatC= 1.77D-02 BMatP= 4.78D-02
 IDIUse=3 WtCom= 7.79D-01 WtEn= 2.21D-01
 Coeff-Com:  0.228D+00 0.959D-01 0.676D+00
 Coeff-En:   0.125D+00 0.000D+00 0.875D+00
 Coeff:      0.205D+00 0.747D-01 0.720D+00
 Gap=     0.097 Goal=   None    Shift=    0.000
 RMSDP=1.25D-03 MaxDP=1.52D-02 DE=-3.03D-01 OVMax= 3.87D-02

 Cycle   4  Pass 1  IDiag  1:
 E= -114.305629715322     Delta-E=       -0.012704857882 Rises=F Damp=F
 DIIS: error= 3.15D-03 at cycle   4 NSaved=   4.
 NSaved= 4 IEnMin= 4 EnMin= -114.305629715322     IErMin= 4 ErrMin= 3.15D-03
 ErrMax= 3.15D-03  0.00D+00 EMaxC= 1.00D-01 BMatC= 4.54D-04 BMatP= 1.77D-02
 IDIUse=3 WtCom= 9.68D-01 WtEn= 3.15D-02
 Coeff-Com:  0.263D-01 0.914D-02 0.179D+00 0.786D+00
 Coeff-En:   0.000D+00 0.000D+00 0.000D+00 0.100D+01
 Coeff:      0.255D-01 0.885D-02 0.173D+00 0.793D+00
 Gap=     0.099 Goal=   None    Shift=    0.000
 RMSDP=3.59D-04 MaxDP=6.71D-03 DE=-1.27D-02 OVMax= 2.01D-02

 Cycle   5  Pass 1  IDiag  1:
 E= -114.305594323752     Delta-E=        0.000035391570 Rises=F Damp=F
 DIIS: error= 4.77D-03 at cycle   5 NSaved=   5.
 NSaved= 5 IEnMin= 4 EnMin= -114.305629715322     IErMin= 4 ErrMin= 3.15D-03
 ErrMax= 4.77D-03  0.00D+00 EMaxC= 1.00D-01 BMatC= 4.53D-04 BMatP= 4.54D-04
 IDIUse=3 WtCom= 9.52D-01 WtEn= 4.77D-02
 Coeff-Com:  0.119D-01-0.221D-01 0.361D-01 0.397D+00 0.578D+00
 Coeff-En:   0.000D+00 0.000D+00 0.000D+00 0.515D+00 0.485D+00
 Coeff:      0.113D-01-0.211D-01 0.343D-01 0.402D+00 0.573D+00
 Gap=     0.102 Goal=   None    Shift=    0.000
 RMSDP=1.10D-04 MaxDP=2.60D-03 DE= 3.54D-05 OVMax= 3.85D-03

 Cycle   6  Pass 1  IDiag  1:
 E= -114.305847640249     Delta-E=       -0.000253316497 Rises=F Damp=F
 DIIS: error= 3.41D-03 at cycle   6 NSaved=   6.
 NSaved= 6 IEnMin= 6 EnMin= -114.305847640249     IErMin= 4 ErrMin= 3.15D-03
 ErrMax= 3.41D-03  0.00D+00 EMaxC= 1.00D-01 BMatC= 2.04D-04 BMatP= 4.53D-04
 IDIUse=3 WtCom= 9.66D-01 WtEn= 3.41D-02
 Coeff-Com:  0.193D-01-0.190D-01 0.765D-02 0.102D+00 0.671D-01 0.823D+00
 Coeff-En:   0.000D+00 0.000D+00 0.000D+00 0.354D+00 0.000D+00 0.646D+00
 Coeff:      0.187D-01-0.184D-01 0.739D-02 0.111D+00 0.648D-01 0.817D+00
 Gap=     0.102 Goal=   None    Shift=    0.000
 RMSDP=2.29D-05 MaxDP=2.70D-04 DE=-2.53D-04 OVMax= 8.84D-04

 Cycle   7  Pass 1  IDiag  1:
 E= -114.305865267266     Delta-E=       -0.000017627017 Rises=F Damp=F
 DIIS: error= 3.28D-03 at cycle   7 NSaved=   7.
 NSaved= 7 IEnMin= 7 EnMin= -114.305865267266     IErMin= 4 ErrMin= 3.15D-03
 ErrMax= 3.28D-03  0.00D+00 EMaxC= 1.00D-01 BMatC= 1.83D-04 BMatP= 2.04D-04
 IDIUse=3 WtCom= 9.67D-01 WtEn= 3.28D-02
 Coeff-Com:  0.256D-02-0.509D-02 0.184D-01 0.186D+00-0.574D+00-0.532D+01
 Coeff-Com:  0.669D+01
 Coeff-En:   0.000D+00 0.000D+00 0.000D+00 0.338D+00 0.000D+00 0.000D+00
 Coeff-En:   0.662D+00
 Coeff:      0.247D-02-0.492D-02 0.178D-01 0.191D+00-0.555D+00-0.514D+01
 Coeff:      0.649D+01
 Gap=     0.103 Goal=   None    Shift=    0.000
 RMSDP=1.32D-04 MaxDP=1.36D-03 DE=-1.76D-05 OVMax= 6.75D-03

 Cycle   8  Pass 1  IDiag  1:
 E= -114.306036577664     Delta-E=       -0.000171310397 Rises=F Damp=F
 DIIS: error= 3.53D-04 at cycle   8 NSaved=   8.
 NSaved= 8 IEnMin= 8 EnMin= -114.306036577664     IErMin= 8 ErrMin= 3.53D-04
 ErrMax= 3.53D-04  0.00D+00 EMaxC= 1.00D-01 BMatC= 3.80D-06 BMatP= 1.83D-04
 IDIUse=3 WtCom= 9.96D-01 WtEn= 3.53D-03
 Coeff-Com: -0.153D-02 0.370D-03 0.148D-02 0.393D-01 0.733D-01-0.230D-01
 Coeff-Com:  0.177D-01 0.892D+00
 Coeff-En:   0.000D+00 0.000D+00 0.000D+00 0.000D+00 0.000D+00 0.000D+00
 Coeff-En:   0.609D-01 0.939D+00
 Coeff:     -0.153D-02 0.369D-03 0.147D-02 0.391D-01 0.730D-01-0.229D-01
 Coeff:      0.179D-01 0.893D+00
 Gap=     0.103 Goal=   None    Shift=    0.000
 RMSDP=3.02D-05 MaxDP=3.16D-04 DE=-1.71D-04 OVMax= 1.57D-03

 Cycle   9  Pass 1  IDiag  1:
 E= -114.306038270915     Delta-E=       -0.000001693251 Rises=F Damp=F
 DIIS: error= 4.08D-04 at cycle   9 NSaved=   9.
 NSaved= 9 IEnMin= 9 EnMin= -114.306038270915     IErMin= 8 ErrMin= 3.53D-04
 ErrMax= 4.08D-04  0.00D+00 EMaxC= 1.00D-01 BMatC= 3.37D-06 BMatP= 3.80D-06
 IDIUse=3 WtCom= 9.96D-01 WtEn= 3.53D-03
 Coeff-Com: -0.306D-03 0.225D-03-0.377D-04 0.302D-02 0.435D-01 0.298D+00
 Coeff-Com: -0.264D+00 0.619D-02 0.913D+00
 Coeff-En:   0.000D+00 0.000D+00 0.000D+00 0.000D+00 0.000D+00 0.000D+00
 Coeff-En:   0.609D-01 0.000D+00 0.939D+00
 Coeff:     -0.305D-03 0.225D-03-0.376D-04 0.301D-02 0.434D-01 0.297D+00
 Coeff:     -0.263D+00 0.617D-02 0.914D+00
 Gap=     0.102 Goal=   None    Shift=    0.000
 RMSDP=1.44D-05 MaxDP=1.80D-04 DE=-1.69D-06 OVMax= 8.17D-04

 Cycle  10  Pass 1  IDiag  1:
 E= -114.306041309183     Delta-E=       -0.000003038268 Rises=F Damp=F
 DIIS: error= 8.96D-05 at cycle  10 NSaved=  10.
 NSaved=10 IEnMin=10 EnMin= -114.306041309183     IErMin=10 ErrMin= 8.96D-05
 ErrMax= 8.96D-05  0.00D+00 EMaxC= 1.00D-01 BMatC= 1.49D-07 BMatP= 3.37D-06
 IDIUse=1 WtCom= 1.00D+00 WtEn= 0.00D+00
 Coeff-Com: -0.492D-04 0.122D-05 0.625D-04 0.259D-03-0.273D-02 0.918D-02
 Coeff-Com:  0.225D-01-0.377D-01 0.606D-01 0.948D+00
 Coeff:     -0.492D-04 0.122D-05 0.625D-04 0.259D-03-0.273D-02 0.918D-02
 Coeff:      0.225D-01-0.377D-01 0.606D-01 0.948D+00
 Gap=     0.102 Goal=   None    Shift=    0.000
 RMSDP=3.34D-06 MaxDP=3.41D-05 DE=-3.04D-06 OVMax= 1.53D-04

 Cycle  11  Pass 1  IDiag  1:
 E= -114.306041451083     Delta-E=       -0.000000141900 Rises=F Damp=F
 DIIS: error= 2.93D-06 at cycle  11 NSaved=  11.
 NSaved=11 IEnMin=11 EnMin= -114.306041451083     IErMin=11 ErrMin= 2.93D-06
 ErrMax= 2.93D-06  0.00D+00 EMaxC= 1.00D-01 BMatC= 2.07D-10 BMatP= 1.49D-07
 IDIUse=1 WtCom= 1.00D+00 WtEn= 0.00D+00
 Coeff-Com: -0.583D-06 0.545D-05-0.314D-04-0.140D-03-0.543D-03-0.265D-02
 Coeff-Com:  0.309D-02-0.258D-02-0.165D-01 0.361D-01 0.983D+00
 Coeff:     -0.583D-06 0.545D-05-0.314D-04-0.140D-03-0.543D-03-0.265D-02
 Coeff:      0.309D-02-0.258D-02-0.165D-01 0.361D-01 0.983D+00
 Gap=     0.102 Goal=   None    Shift=    0.000
 RMSDP=1.75D-07 MaxDP=2.17D-06 DE=-1.42D-07 OVMax= 9.96D-06

 Cycle  12  Pass 1  IDiag  1:
 E= -114.306041451256     Delta-E=       -0.000000000173 Rises=F Damp=F
 DIIS: error= 1.60D-06 at cycle  12 NSaved=  12.
 NSaved=12 IEnMin=12 EnMin= -114.306041451256     IErMin=12 ErrMin= 1.60D-06
 ErrMax= 1.60D-06  0.00D+00 EMaxC= 1.00D-01 BMatC= 4.45D-11 BMatP= 2.07D-10
 IDIUse=1 WtCom= 1.00D+00 WtEn= 0.00D+00
 Coeff-Com:  0.285D-06 0.269D-06-0.235D-06 0.758D-05-0.636D-04-0.516D-03
 Coeff-Com:  0.658D-03 0.327D-03-0.294D-02-0.614D-02 0.580D-01 0.951D+00
 Coeff:      0.285D-06 0.269D-06-0.235D-06 0.758D-05-0.636D-04-0.516D-03
 Coeff:      0.658D-03 0.327D-03-0.294D-02-0.614D-02 0.580D-01 0.951D+00
 Gap=     0.102 Goal=   None    Shift=    0.000
 RMSDP=5.63D-08 MaxDP=7.35D-07 DE=-1.73D-10 OVMax= 3.50D-06

 Cycle  13  Pass 1  IDiag  1:
 E= -114.306041451299     Delta-E=       -0.000000000043 Rises=F Damp=F
 DIIS: error= 7.25D-09 at cycle  13 NSaved=  13.
 NSaved=13 IEnMin=13 EnMin= -114.306041451299     IErMin=13 ErrMin= 7.25D-09
 ErrMax= 7.25D-09  0.00D+00 EMaxC= 1.00D-01 BMatC= 1.62D-15 BMatP= 4.45D-11
 IDIUse=1 WtCom= 1.00D+00 WtEn= 0.00D+00
 Coeff-Com: -0.135D-07-0.646D-08 0.832D-07 0.872D-06-0.153D-05 0.207D-04
 Coeff-Com: -0.159D-04 0.311D-04 0.103D-03-0.206D-03-0.700D-02-0.155D-02
 Coeff-Com:  0.101D+01
 Coeff:     -0.135D-07-0.646D-08 0.832D-07 0.872D-06-0.153D-05 0.207D-04
 Coeff:     -0.159D-04 0.311D-04 0.103D-03-0.206D-03-0.700D-02-0.155D-02
 Coeff:      0.101D+01
 Gap=     0.102 Goal=   None    Shift=    0.000
 RMSDP=7.79D-10 MaxDP=1.34D-08 DE=-4.27D-11 OVMax= 2.88D-08

 SCF Done:  E(RB3LYP) =  -114.306041451     A.U. after   13 cycles
            NFock= 13  Conv=0.78D-09     -V/T= 2.0088
 KE= 1.133115201985D+02 PE=-3.124822505437D+02 EE= 6.281623792526D+01
 Leave Link  502 at Fri Sep 17 10:52:55 2021, MaxMem=   268435456 cpu:               2.7 elap:               2.9
 (Enter /software/gaussian/g16-a03/l801.exe)
 DoSCS=F DFT=T ScalE2(SS,OS)=  1.000000  1.000000
 ExpMin= 4.38D-02 ExpMax= 8.59D+03 ExpMxC= 1.30D+03 IAcc=3 IRadAn=         5 AccDes= 0.00D+00
 HarFok:  IExCor=  205 AccDes= 0.00D+00 IRadAn=         5 IDoV=-2 UseB2=F ITyADJ=14
 ICtDFT= 12500011 ScaDFX=  1.000000  1.000000  1.000000  1.000000
 Largest valence mixing into a core orbital is  5.42D-05
 Largest core mixing into a valence orbital is  1.27D-05
 Range of M.O.s used for correlation:     3    56
 NBasis=    56 NAE=     8 NBE=     8 NFC=     2 NFV=     0
 NROrb=     54 NOA=     6 NOB=     6 NVA=    48 NVB=    48
 Leave Link  801 at Fri Sep 17 10:52:55 2021, MaxMem=   268435456 cpu:               0.4 elap:               0.4
 (Enter /software/gaussian/g16-a03/l914.exe)
 RHF ground state
 Keep R1, R2, and R3 ints in memory in symmetry-blocked form, NReq=6042840.
 FoFCou: FMM=F IPFlag=           0 FMFlag=           0 FMFlg1=           0
         NFxFlg=           0 DoJE=F BraDBF=F KetDBF=F FulRan=T
         wScrn=  0.000000 ICntrl=       600 IOpCl=  0 I1Cent=           0 NGrid=           0
         NMat0=    1 NMatS0=   1596 NMatT0=    0 NMatD0=    1 NMtDS0=    0 NMtDT0=    0
 Petite list used in FoFCou.
 MDV=   268435456 DFT=T DoStab=F Mixed=T DoRPA=T DoScal=F NonHer=T
 Making orbital integer symmetry assigments:
 Orbital symmetries:
       Occupied  (A1) (A1) (A1) (A1) (B2) (A1) (B1) (B2)
       Virtual   (B1) (A1) (A1) (B2) (A1) (B1) (A1) (B2) (A1) (B1)
                 (B2) (A1) (A1) (B2) (B1) (A1) (B2) (A1) (A2) (B1)
                 (A1) (B2) (B1) (A1) (B2) (A1) (B2) (A1) (B1) (A2)
                 (A1) (B2) (A1) (B2) (A1) (B1) (A1) (B1) (A2) (A1)
                 (B2) (A1) (B2) (B1) (B2) (A1) (A1) (A1)
   120 initial guesses have been made.
 Convergence on wavefunction:    0.001000000000000
 Davidson Disk Diagonalization:  ConvIn= 1.00D-03 SkipCon=T Conv= 1.00D-03.
 Max sub-space:  1728 roots to seek:   120 dimension of matrix:          576
 Iteration     1 Dimension   120 NMult     0 NNew    120
 CISAX will form   120 AO SS matrices at one time.
 NMat=   120 NSing=   120 JSym2X=-1.
 New state      2 was old state      3
 New state      3 was old state      2
 New state      6 was old state      9
 New state      9 was old state     10
 New state     10 was old state     11
 New state     11 was old state     12
 New state     12 was old state      6
 New state     16 was old state     17
 New state     17 was old state     16
 New state     20 was old state     21
 New state     21 was old state     22
 New state     22 was old state     20
 New state     23 was old state     24
 New state     24 was old state     25
 New state     25 was old state     23
 New state     27 was old state     29
 New state     29 was old state     27
 Excitation Energies [eV] at current iteration:
 Root      1 :     1.037604180449466
 Root      2 :     2.663881479998404
 Root      3 :     2.697946647445375
 Root      4 :     2.936297267726087
 Root      5 :     3.526260103712100
 Root      6 :     6.697989572739950
 Root      7 :     6.803549373024221
 Root      8 :     7.057541030449706
 Root      9 :     7.949700364921284
 Root     10 :     8.217997393265000
 Root     11 :     8.388080058850358
 Root     12 :     8.515729564465875
 Root     13 :     8.532840844932851
 Root     14 :     8.716258123161580
 Root     15 :     8.841563086047254
 Root     16 :     9.127232007876863
 Root     17 :     9.290932863562974
 Root     18 :     9.919449590383476
 Root     19 :    10.146831234424930
 Root     20 :    10.272769782851940
 Root     21 :    10.330113265583900
 Root     22 :    10.567264253323040
 Root     23 :    10.827707574006290
 Root     24 :    11.381709452649410
 Root     25 :    11.382292736744800
 Root     26 :    11.836479169855390
 Root     27 :    11.907533549111160
 Root     28 :    12.202448560159110
 Root     29 :    12.218061015249910
 Root     30 :    12.601427790014210
 Root     31 :    12.652071223523880
 Root     32 :    13.298598105208030
 Root     33 :    13.593690763677750
 Root     34 :    13.983838280936550
 Root     35 :    13.987597258424230
 Root     36 :    14.108876007867630
 Root     37 :    14.301255010626910
 Root     38 :    14.621867467392140
 Root     39 :    14.726254625695440
 Root     40 :    15.158921611693010
 Root     41 :    15.273535281141470
 Root     42 :    15.430506473324380
 Root     43 :    15.438640461270020
 Root     44 :    15.956433578061980
 Root     45 :    16.803301769143480
 Root     46 :    17.148700314984730
 Root     47 :    17.300170328049950
 Root     48 :    17.403299043049270
 Root     49 :    17.506269478175490
 Root     50 :    17.622120333764440
 Root     51 :    17.677319597677960
 Root     52 :    18.193538087065870
 Root     53 :    18.528156523863630
 Root     54 :    18.755044153915010
 Root     55 :    19.159082096397670
 Root     56 :    19.623637320876690
 Root     57 :    19.628349023417510
 Root     58 :    19.870044050160030
 Root     59 :    20.248347951194070
 Root     60 :    20.290026830599760
 Root     61 :    20.292772765945400
 Root     62 :    20.719100843865940
 Root     63 :    20.771277582062690
 Root     64 :    21.147381995957420
 Root     65 :    21.230154469359380
 Root     66 :    21.300046724332070
 Root     67 :    21.959570385699080
 Root     68 :    22.035895746647910
 Root     69 :    22.122756772923150
 Root     70 :    22.124330841783320
 Root     71 :    22.247485531973600
 Root     72 :    23.049603850829350
 Root     73 :    23.234460080362790
 Root     74 :    23.695686980146710
 Root     75 :    23.839362210370720
 Root     76 :    23.928987931315420
 Root     77 :    24.157811652723200
 Root     78 :    24.176759648851420
 Root     79 :    24.348822173322270
 Root     80 :    24.695367406650110
 Root     81 :    24.734565142596100
 Root     82 :    25.084393342517810
 Root     83 :    25.216341673731690
 Root     84 :    25.228310787405340
 Root     85 :    25.300252745566940
 Root     86 :    26.100617013016720
 Root     87 :    26.442786478903340
 Root     88 :    26.597206393798630
 Root     89 :    26.841854270978700
 Root     90 :    27.336321273870340
 Root     91 :    27.850135491348560
 Root     92 :    28.483624117407700
 Root     93 :    28.923078363649750
 Root     94 :    29.256683739017890
 Root     95 :    29.337647992251500
 Root     96 :    29.453924890783580
 Root     97 :    30.512738738797050
 Root     98 :    31.036451004620750
 Root     99 :    31.637391094240690
 Root    100 :    32.911032606742270
 Root    101 :    33.049221756579560
 Root    102 :    33.309797478074600
 Root    103 :    33.392951087802890
 Root    104 :    33.464784207557590
 Root    105 :    33.587032274036480
 Root    106 :    33.678378301186920
 Root    107 :    33.803365189058520
 Root    108 :    33.910438908134880
 Root    109 :    34.395930552690810
 Root    110 :    34.835827072549630
 Root    111 :    34.904939649827260
 Root    112 :    35.843735241568490
 Root    113 :    36.127444946831670
 Root    114 :    36.398330444139740
 Root    115 :    37.225933774331930
 Root    116 :    37.312266331843740
 Root    117 :    38.172746201667780
 Root    118 :    38.197200509344350
 Root    119 :    39.711959327939510
 Root    120 :    42.206063448327370
 Iteration     2 Dimension   180 NMult   120 NNew     60
 CISAX will form    60 AO SS matrices at one time.
 NMat=    60 NSing=    60 JSym2X=-1.
 Root      1 not converged, maximum delta is    0.006561753558452
 Root      2 not converged, maximum delta is    0.008265638807584
 Root      3 not converged, maximum delta is    0.009391604894801
 Root      4 not converged, maximum delta is    0.006280834869398
 Root      5 not converged, maximum delta is    0.009002276309996
 Root      6 not converged, maximum delta is    0.011751205653281
 Root      7 not converged, maximum delta is    0.002287703034184
 Root      8 not converged, maximum delta is    0.002325599145181
 Root      9 not converged, maximum delta is    0.003238369113733
 Root     10 not converged, maximum delta is    0.001292294159977
 Root     11 not converged, maximum delta is    0.003202337472234
 Root     12 not converged, maximum delta is    0.008151247820431
 Root     13 not converged, maximum delta is    0.001889604396350
 Root     14 not converged, maximum delta is    0.002820577706795
 Root     15 not converged, maximum delta is    0.002737182527130
 Root     16 not converged, maximum delta is    0.009271848794631
 Root     17 not converged, maximum delta is    0.006861394475266
 Root     18 not converged, maximum delta is    0.001673507282196
 Root     19 not converged, maximum delta is    0.005537549637268
 Root     20 not converged, maximum delta is    0.003858527556156
 Root     21 not converged, maximum delta is    0.003634652023647
 Root     22 not converged, maximum delta is    0.010125888072567
 Root     23 not converged, maximum delta is    0.001765747306301
 New state     24 was old state     25
 Root     24 not converged, maximum delta is    0.009730887145946
 New state     25 was old state     24
 Root     25 not converged, maximum delta is    0.004525271458831
 Root     26 not converged, maximum delta is    0.003721795699605
 Root     27 not converged, maximum delta is    0.007253016400148
 Root     28 not converged, maximum delta is    0.010478021112464
 Root     29 not converged, maximum delta is    0.007015043744022
 Root     30 not converged, maximum delta is    0.010072377603107
 Excitation Energies [eV] at current iteration:
 Root      1 :     1.030927355748047   Change is   -0.006676824701419
 Root      2 :     2.643792509103474   Change is   -0.020088970894930
 Root      3 :     2.679814974695913   Change is   -0.018131672749462
 Root      4 :     2.923467363581863   Change is   -0.012829904144224
 Root      5 :     3.506354736807577   Change is   -0.019905366904522
 Root      6 :     6.681415908928798   Change is   -0.016573663811152
 Root      7 :     6.802038615636423   Change is   -0.001510757387797
 Root      8 :     7.056694972121594   Change is   -0.000846058328113
 Root      9 :     7.948323489478109   Change is   -0.001376875443176
 Root     10 :     8.217555369613466   Change is   -0.000442023651534
 Root     11 :     8.386226868328256   Change is   -0.001853190522101
 Root     12 :     8.492181953018500   Change is   -0.023547611447376
 Root     13 :     8.532467030885435   Change is   -0.000373814047416
 Root     14 :     8.715022741282617   Change is   -0.001235381878964
 Root     15 :     8.839430293639293   Change is   -0.002132792407961
 Root     16 :     9.105768378330502   Change is   -0.021463629546361
 Root     17 :     9.282698928330968   Change is   -0.008233935232006
 Root     18 :     9.918571096811963   Change is   -0.000878493571513
 Root     19 :    10.144013264865610   Change is   -0.002817969559315
 Root     20 :    10.269728455084160   Change is   -0.003041327767778
 Root     21 :    10.328040521760080   Change is   -0.002072743823819
 Root     22 :    10.553345764008660   Change is   -0.013918489314379
 Root     23 :    10.826938661062010   Change is   -0.000768912944282
 Root     24 :    11.360082267863990   Change is   -0.022210468880806
 Root     25 :    11.372998287733810   Change is   -0.008711164915604
 Root     26 :    11.831972410975550   Change is   -0.004506758879838
 Root     27 :    11.903288882288790   Change is   -0.004244666822369
 Root     28 :    12.196020720828750   Change is   -0.006427839330367
 Root     29 :    12.209884646172000   Change is   -0.008176369077909
 Root     30 :    12.584296188249570   Change is   -0.017131601764635
 Iteration     3 Dimension   240 NMult   180 NNew     60
 CISAX will form    60 AO SS matrices at one time.
 NMat=    60 NSing=    60 JSym2X=-1.
 Root      1 has converged.
 Root      2 has converged.
 Root      3 has converged.
 Root      4 has converged.
 Root      5 has converged.
 Root      6 has converged.
 Root      7 has converged.
 Root      8 has converged.
 Root      9 has converged.
 Root     10 has converged.
 Root     11 has converged.
 Root     12 has converged.
 Root     13 has converged.
 Root     14 has converged.
 Root     15 has converged.
 Root     16 has converged.
 Root     17 has converged.
 Root     18 has converged.
 Root     19 has converged.
 Root     20 has converged.
 Root     21 has converged.
 Root     22 has converged.
 Root     23 has converged.
 Root     24 has converged.
 Root     25 has converged.
 Root     26 has converged.
 Root     27 has converged.
 Root     28 has converged.
 Root     29 has converged.
 Root     30 has converged.
 Excitation Energies [eV] at current iteration:
 Root      1 :     1.030926458097699   Change is   -0.000000897650348
 Root      2 :     2.643789650563503   Change is   -0.000002858539970
 Root      3 :     2.679796405190007   Change is   -0.000018569505906
 Root      4 :     2.923465728218837   Change is   -0.000001635363026
 Root      5 :     3.506349912879349   Change is   -0.000004823928228
 Root      6 :     6.681411798709139   Change is   -0.000004110219660
 Root      7 :     6.802038268876832   Change is   -0.000000346759591
 Root      8 :     7.056694760597169   Change is   -0.000000211524424
 Root      9 :     7.948321152703759   Change is   -0.000002336774350
 Root     10 :     8.217555193006689   Change is   -0.000000176606776
 Root     11 :     8.386226207017428   Change is   -0.000000661310828
 Root     12 :     8.492142326721599   Change is   -0.000039626296903
 Root     13 :     8.532466949802902   Change is   -0.000000081082532
 Root     14 :     8.715022345814626   Change is   -0.000000395467990
 Root     15 :     8.839424639239985   Change is   -0.000005654399308
 Root     16 :     9.105746586872135   Change is   -0.000021791458368
 Root     17 :     9.282685820420943   Change is   -0.000013107910025
 Root     18 :     9.918570455763962   Change is   -0.000000641048002
 Root     19 :    10.144010318302390   Change is   -0.000002946563224
 Root     20 :    10.269725389107500   Change is   -0.000003065976664
 Root     21 :    10.328038141261200   Change is   -0.000002380498876
 Root     22 :    10.553298750177870   Change is   -0.000047013830787
 Root     23 :    10.826938340255360   Change is   -0.000000320806649
 Root     24 :    11.360034977849690   Change is   -0.000047290014302
 Root     25 :    11.372994921644500   Change is   -0.000003366089305
 Root     26 :    11.831968913995980   Change is   -0.000003496979577
 Root     27 :    11.903287102948130   Change is   -0.000001779340666
 Root     28 :    12.196010886912440   Change is   -0.000009833916304
 Root     29 :    12.209861534694390   Change is   -0.000023111477608
 Root     30 :    12.584276032819050   Change is   -0.000020155430524
 Convergence achieved on expansion vectors.
 ***********************************************************************
 Excited states from <AA,BB:AA,BB> singles matrix:
 ***********************************************************************
 
 1PDM for each excited state written to RWF  633
 Ground to excited state transition densities written to RWF  633
 Ground to excited state transition electric dipole moments (Au):
       state          X           Y           Z        Dip. S.      Osc.
         1         0.0000     -0.0000      0.0000      0.0000      0.0000
         2         0.0000     -0.1317      0.0000      0.0173      0.0011
         3        -0.0000      0.0000      0.5291      0.2800      0.0184
         4        -0.0535      0.0000     -0.0000      0.0029      0.0002
         5         0.2421     -0.0000      0.0000      0.0586      0.0050
         6        -0.0000     -0.0000      0.0000      0.0000      0.0000
         7         0.0000     -0.1258     -0.0000      0.0158      0.0026
         8        -0.5873      0.0000     -0.0000      0.3450      0.0596
         9         0.0000     -0.0000     -0.5384      0.2899      0.0565
        10         0.0000      0.0000      0.0000      0.0000      0.0000
        11        -0.0000     -0.4443     -0.0000      0.1974      0.0406
        12         0.0000      0.0000     -1.6516      2.7277      0.5675
        13        -0.0000     -0.0000     -0.0000      0.0000      0.0000
        14        -0.4821     -0.0000     -0.0000      0.2324      0.0496
        15        -0.0000     -0.0000     -0.2473      0.0612      0.0132
        16         0.0000      0.0694     -0.0000      0.0048      0.0011
        17        -0.0000     -0.0000     -0.5002      0.2502      0.0569
        18        -0.0000     -0.2199     -0.0000      0.0483      0.0117
        19        -0.4543      0.0000     -0.0000      0.2064      0.0513
        20        -0.0000     -0.2228      0.0000      0.0496      0.0125
        21         0.0000     -0.0000      0.0000      0.0000      0.0000
        22        -0.0000      0.0000     -0.7494      0.5615      0.1452
        23        -0.0471     -0.0000      0.0000      0.0022      0.0006
        24         0.0000      0.0000      1.0375      1.0765      0.2996
        25         0.0000     -0.1425      0.0000      0.0203      0.0057
        26         0.0395      0.0000      0.0000      0.0016      0.0005
        27        -0.0000      0.0000     -0.0000      0.0000      0.0000
        28         0.0000     -0.6110      0.0000      0.3734      0.1116
        29        -0.0000      0.0000      0.4009      0.1607      0.0481
        30        -0.0000     -0.5458      0.0000      0.2979      0.0919
 Ground to excited state transition velocity dipole moments (Au):
       state          X           Y           Z        Dip. S.      Osc.
         1         0.0000     -0.0000      0.0000      0.0000      0.0000
         2        -0.0000      0.0101      0.0000      0.0001      0.0007
         3        -0.0000     -0.0000     -0.0438      0.0019      0.0130
         4        -0.0147      0.0000      0.0000      0.0002      0.0013
         5        -0.0401     -0.0000      0.0000      0.0016      0.0083
         6         0.0000      0.0000     -0.0000      0.0000      0.0000
         7        -0.0000      0.0265      0.0000      0.0007      0.0019
         8         0.1550     -0.0000     -0.0000      0.0240      0.0617
         9        -0.0000      0.0000      0.1541      0.0237      0.0542
        10         0.0000      0.0000     -0.0000      0.0000      0.0000
        11         0.0000      0.1379      0.0000      0.0190      0.0412
        12        -0.0000      0.0000      0.5145      0.2647      0.5655
        13         0.0000     -0.0000      0.0000      0.0000      0.0000
        14         0.1600     -0.0000      0.0000      0.0256      0.0533
        15         0.0000      0.0000      0.0821      0.0067      0.0138
        16        -0.0000     -0.0286      0.0000      0.0008      0.0016
        17         0.0000      0.0000      0.1761      0.0310      0.0606
        18         0.0000      0.0857     -0.0000      0.0073      0.0134
        19         0.1524     -0.0000      0.0000      0.0232      0.0416
        20         0.0000      0.0834      0.0000      0.0069      0.0123
        21        -0.0000     -0.0000     -0.0000      0.0000      0.0000
        22        -0.0000      0.0000      0.2917      0.0851      0.1462
        23         0.0116      0.0000     -0.0000      0.0001      0.0002
        24         0.0000     -0.0000     -0.4116      0.1694      0.2705
        25        -0.0000      0.0553     -0.0000      0.0031      0.0049
        26        -0.0066     -0.0000     -0.0000      0.0000      0.0001
        27        -0.0000     -0.0000     -0.0000      0.0000      0.0000
        28        -0.0000      0.2710     -0.0000      0.0734      0.1092
        29         0.0000     -0.0000     -0.1688      0.0285      0.0423
        30        -0.0000      0.2540     -0.0000      0.0645      0.0930
 Ground to excited state transition magnetic dipole moments (Au):
       state          X           Y           Z
         1        -0.0000     -0.0000      0.9081
         2         0.7201     -0.0000     -0.0000
         3        -0.0000     -0.0000     -0.0000
         4        -0.0000     -1.9384      0.0000
         5        -0.0000     -0.7030     -0.0000
         6         0.0000      0.0000     -1.1247
         7        -0.2696     -0.0000      0.0000
         8        -0.0000     -0.1330      0.0000
         9         0.0000      0.0000      0.0000
        10         0.0000      0.0000      0.0234
        11        -0.5142      0.0000      0.0000
        12        -0.0000     -0.0000     -0.0000
        13        -0.0000      0.0000     -0.0020
        14        -0.0000      0.2349      0.0000
        15        -0.0000     -0.0000     -0.0000
        16         0.7915     -0.0000     -0.0000
        17        -0.0000     -0.0000     -0.0000
        18         0.1604      0.0000     -0.0000
        19        -0.0000      0.1600      0.0000
        20         0.0845      0.0000      0.0000
        21        -0.0000     -0.0000     -0.0801
        22         0.0000      0.0000      0.0000
        23        -0.0000      0.0555      0.0000
        24         0.0000     -0.0000      0.0000
        25        -0.0442     -0.0000     -0.0000
        26        -0.0000      0.1451      0.0000
        27        -0.0000     -0.0000     -0.0239
        28         0.7659      0.0000     -0.0000
        29        -0.0000      0.0000     -0.0000
        30         0.0027      0.0000     -0.0000
 Ground to excited state transition velocity quadrupole moments (Au):
       state          XX          YY          ZZ          XY          XZ          YZ
         1        -0.0000     -0.0000     -0.0000     -0.0210     -0.0000      0.0000
         2         0.0000      0.0000      0.0000      0.0000     -0.0000      0.0270
         3         0.0336     -0.0073     -0.0241     -0.0000     -0.0000     -0.0000
         4         0.0000      0.0000     -0.0000     -0.0000      0.0257     -0.0000
         5         0.0000     -0.0000     -0.0000      0.0000     -0.0996      0.0000
         6        -0.0000      0.0000      0.0000      0.1717      0.0000     -0.0000
         7         0.0000     -0.0000      0.0000     -0.0000      0.0000      0.1924
         8         0.0000      0.0000     -0.0000     -0.0000     -0.1978      0.0000
         9         0.0195      0.1345     -0.1933     -0.0000      0.0000     -0.0000
        10         0.0000      0.0000     -0.0000      0.2764      0.0000     -0.0000
        11        -0.0000      0.0000     -0.0000     -0.0000      0.0000      0.2659
        12        -0.2137     -0.0659     -0.0868      0.0000     -0.0000     -0.0000
        13        -0.0000     -0.0000     -0.0000      0.0853      0.0000      0.0000
        14        -0.0000     -0.0000     -0.0000     -0.0000      0.3374      0.0000
        15         0.7227      0.0524     -0.3748      0.0000      0.0000     -0.0000
        16         0.0000      0.0000      0.0000      0.0000     -0.0000      0.3431
        17         0.3443      0.1707      0.6809      0.0000     -0.0000     -0.0000
        18         0.0000      0.0000     -0.0000     -0.0000      0.0000      0.0192
        19         0.0000     -0.0000     -0.0000     -0.0000     -0.0670      0.0000
        20        -0.0000     -0.0000      0.0000      0.0000      0.0000     -0.3666
        21        -0.0000     -0.0000     -0.0000     -0.2761     -0.0000     -0.0000
        22        -0.1343     -0.4190     -0.0522     -0.0000      0.0000     -0.0000
        23        -0.0000     -0.0000     -0.0000     -0.0000     -0.1710      0.0000
        24        -0.2692      0.3686     -0.3178     -0.0000     -0.0000     -0.0000
        25        -0.0000      0.0000     -0.0000     -0.0000     -0.0000      0.4913
        26        -0.0000     -0.0000     -0.0000     -0.0000      0.4364      0.0000
        27        -0.0000     -0.0000     -0.0000      0.3688     -0.0000      0.0000
        28        -0.0000     -0.0000      0.0000      0.0000      0.0000     -0.8335
        29        -0.1945     -0.0222      0.1277      0.0000      0.0000      0.0000
        30         0.0000     -0.0000     -0.0000      0.0000     -0.0000     -0.6694
 <0|del|b> * <b|rxdel|0> + <0|del|b> * <b|delr+rdel|0>
 Rotatory Strengths (R) in cgs (10**-40 erg-esu-cm/Gauss)
       state          XX          YY          ZZ    R(velocity)    E-M Angle
         1         0.0000      0.0000      0.0000      0.0000       90.00
         2        -0.0000     -0.0000     -0.0000     -0.0000       90.00
         3         0.0000     -0.0000      0.0000      0.0000       90.00
         4        -0.0000      0.0000     -0.0000     -0.0000       90.00
         5         0.0000      0.0000      0.0000      0.0000       90.00
         6         0.0000      0.0000      0.0000      0.0000       90.00
         7        -0.0000      0.0000      0.0000      0.0000       90.00
         8        -0.0000      0.0000     -0.0000      0.0000       90.00
         9        -0.0000      0.0000      0.0000      0.0000       90.00
        10        -0.0000      0.0000      0.0000     -0.0000       90.00
        11        -0.0000     -0.0000      0.0000      0.0000       90.00
        12         0.0000     -0.0000     -0.0000     -0.0000       90.00
        13         0.0000     -0.0000     -0.0000     -0.0000       90.00
        14         0.0000     -0.0000     -0.0000     -0.0000       90.00
        15        -0.0000     -0.0000     -0.0000     -0.0000       90.00
        16         0.0000     -0.0000     -0.0000     -0.0000       90.00
        17         0.0000     -0.0000     -0.0000     -0.0000       90.00
        18        -0.0000      0.0000      0.0000      0.0000       90.00
        19        -0.0000      0.0000     -0.0000     -0.0000       90.00
        20        -0.0000     -0.0000      0.0000      0.0000       90.00
        21         0.0000     -0.0000     -0.0000      0.0000       90.00
        22         0.0000      0.0000     -0.0000      0.0000       90.00
        23         0.0000     -0.0000     -0.0000     -0.0000       90.00
        24         0.0000     -0.0000      0.0000     -0.0000       90.00
        25         0.0000     -0.0000      0.0000     -0.0000       90.00
        26         0.0000     -0.0000     -0.0000     -0.0000       90.00
        27        -0.0000      0.0000      0.0000      0.0000       90.00
        28        -0.0000      0.0000      0.0000      0.0000       90.00
        29        -0.0000      0.0000     -0.0000      0.0000       90.00
        30         0.0000      0.0000     -0.0000     -0.0000       90.00
 1/2[<0|r|b>*<b|rxdel|0> + (<0|rxdel|b>*<b|r|0>)*]
 Rotatory Strengths (R) in cgs (10**-40 erg-esu-cm/Gauss)
       state          XX          YY          ZZ     R(length)
         1         0.0000     -0.0000     -0.0000     -0.0000
         2        -0.0000     -0.0000      0.0000     -0.0000
         3        -0.0000      0.0000      0.0000      0.0000
         4        -0.0000      0.0000      0.0000      0.0000
         5         0.0000     -0.0000      0.0000      0.0000
         6         0.0000      0.0000      0.0000      0.0000
         7         0.0000     -0.0000      0.0000     -0.0000
         8        -0.0000      0.0000      0.0000     -0.0000
         9        -0.0000      0.0000      0.0000      0.0000
        10        -0.0000     -0.0000     -0.0000     -0.0000
        11        -0.0000      0.0000      0.0000      0.0000
        12         0.0000      0.0000     -0.0000     -0.0000
        13        -0.0000      0.0000     -0.0000     -0.0000
        14        -0.0000      0.0000      0.0000     -0.0000
        15        -0.0000     -0.0000     -0.0000     -0.0000
        16        -0.0000      0.0000     -0.0000     -0.0000
        17        -0.0000     -0.0000     -0.0000     -0.0000
        18         0.0000      0.0000     -0.0000      0.0000
        19        -0.0000     -0.0000      0.0000     -0.0000
        20         0.0000      0.0000     -0.0000      0.0000
        21         0.0000     -0.0000      0.0000      0.0000
        22         0.0000     -0.0000      0.0000      0.0000
        23        -0.0000      0.0000     -0.0000     -0.0000
        24        -0.0000      0.0000     -0.0000     -0.0000
        25         0.0000     -0.0000      0.0000     -0.0000
        26         0.0000     -0.0000     -0.0000     -0.0000
        27        -0.0000      0.0000     -0.0000     -0.0000
        28        -0.0000      0.0000      0.0000     -0.0000
        29        -0.0000     -0.0000      0.0000      0.0000
        30         0.0000      0.0000      0.0000      0.0000
  1/2[<0|del|b>*<b|r|0> + (<0|r|b>*<b|del|0>)*] (Au)
       state          X           Y           Z        Dip. S.   Osc.(frdel)
         1         0.0000      0.0000      0.0000     -0.0000     -0.0000
         2        -0.0000     -0.0013      0.0000      0.0013      0.0009
         3         0.0000     -0.0000     -0.0232      0.0232      0.0154
         4         0.0008      0.0000     -0.0000     -0.0008     -0.0005
         5        -0.0097      0.0000      0.0000      0.0097      0.0065
         6        -0.0000     -0.0000     -0.0000      0.0000      0.0000
         7        -0.0000     -0.0033     -0.0000      0.0033      0.0022
         8        -0.0910     -0.0000      0.0000      0.0910      0.0607
         9        -0.0000     -0.0000     -0.0830      0.0830      0.0553
        10         0.0000      0.0000     -0.0000      0.0000      0.0000
        11        -0.0000     -0.0613     -0.0000      0.0613      0.0409
        12        -0.0000      0.0000     -0.8497      0.8497      0.5665
        13        -0.0000      0.0000     -0.0000      0.0000      0.0000
        14        -0.0772      0.0000     -0.0000      0.0772      0.0514
        15        -0.0000     -0.0000     -0.0203      0.0203      0.0135
        16        -0.0000     -0.0020     -0.0000      0.0020      0.0013
        17        -0.0000     -0.0000     -0.0881      0.0881      0.0587
        18        -0.0000     -0.0188      0.0000      0.0188      0.0126
        19        -0.0693     -0.0000     -0.0000      0.0693      0.0462
        20        -0.0000     -0.0186      0.0000      0.0186      0.0124
        21        -0.0000      0.0000     -0.0000      0.0000      0.0000
        22         0.0000      0.0000     -0.2186      0.2186      0.1457
        23        -0.0005     -0.0000     -0.0000      0.0005      0.0004
        24         0.0000     -0.0000     -0.4270      0.4270      0.2847
        25        -0.0000     -0.0079     -0.0000      0.0079      0.0052
        26        -0.0003     -0.0000     -0.0000      0.0003      0.0002
        27         0.0000     -0.0000      0.0000      0.0000      0.0000
        28        -0.0000     -0.1656     -0.0000      0.1656      0.1104
        29        -0.0000     -0.0000     -0.0677      0.0677      0.0451
        30         0.0000     -0.1386     -0.0000      0.1386      0.0924

 Excitation energies and oscillator strengths:
 
 Excited State   1:      Singlet-A2     1.0309 eV 1202.65 nm  f=0.0000  <S**2>=0.000
       3 -> 27         0.00055
       3 -> 38         0.00031
       3 -> 47         0.00326
       4 -> 27         0.00027
       4 -> 47        -0.00076
       5 ->  9        -0.00014
       5 -> 14         0.00102
       5 -> 18         0.00125
       5 -> 23         0.00115
       5 -> 28         0.00088
       5 -> 37         0.00054
       5 -> 44         0.00015
       5 -> 52         0.00012
       6 -> 27        -0.00051
       6 -> 38        -0.00046
       6 -> 47         0.00076
       7 -> 12        -0.00147
       7 -> 16         0.00540
       7 -> 19        -0.00500
       7 -> 22        -0.00113
       7 -> 25        -0.00041
       7 -> 30        -0.00207
       7 -> 33         0.00024
       7 -> 49         0.00012
       7 -> 53         0.00034
       8 ->  9         0.71227
       8 -> 14        -0.00470
       8 -> 18         0.02013
       8 -> 23        -0.00023
       8 -> 28         0.00963
       8 -> 31         0.00155
       8 -> 37         0.00045
       8 -> 46        -0.00026
       8 -> 52         0.00177
       3 <- 38         0.00011
       3 <- 47         0.00327
       4 <- 27         0.00053
       4 <- 38         0.00015
       4 <- 47        -0.00057
       5 <-  9         0.00066
       5 <- 14        -0.00025
       5 <- 18        -0.00026
       5 <- 23         0.00012
       5 <- 28        -0.00021
       5 <- 31         0.00018
       5 <- 37         0.00031
       6 <- 38        -0.00033
       6 <- 47         0.00053
       7 <- 12         0.00234
       7 <- 16        -0.01040
       7 <- 19         0.00637
       7 <- 22         0.00491
       7 <- 25        -0.00063
       7 <- 30         0.00566
       7 <- 33        -0.00033
       7 <- 49        -0.00046
       7 <- 53         0.00142
       8 <-  9        -0.08740
       8 <- 14        -0.00080
       8 <- 18        -0.00808
       8 <- 23        -0.00049
       8 <- 28        -0.00281
       8 <- 31        -0.00086
       8 <- 37        -0.00013
       8 <- 46         0.00013
       8 <- 52         0.00039
 This state for optimization and/or second-order correction.
 Total Energy, E(TD-HF/TD-DFT) =  -114.268155601    
 Copying the excited state density for this state as the 1-particle RhoCI density.
 
 Excited State   2:      Singlet-B2     2.6438 eV  468.96 nm  f=0.0011  <S**2>=0.000
       3 -> 12        -0.00098
       3 -> 16         0.00078
       3 -> 19        -0.00324
       3 -> 22         0.00113
       3 -> 25        -0.00087
       3 -> 30        -0.00209
       3 -> 33         0.00036
       3 -> 35         0.00095
       3 -> 40        -0.00101
       3 -> 42        -0.00024
       3 -> 49        -0.00409
       3 -> 51         0.00013
       3 -> 53         0.00022
       4 -> 12         0.00029
       4 -> 16        -0.00106
       4 -> 19         0.00024
       4 -> 22         0.00135
       4 -> 25         0.00037
       4 -> 30         0.00060
       4 -> 33        -0.00025
       4 -> 35         0.00037
       4 -> 40         0.00018
       4 -> 49         0.00071
       5 -> 10         0.00843
       5 -> 11         0.00077
       5 -> 13        -0.00188
       5 -> 15         0.00228
       5 -> 17        -0.00052
       5 -> 20         0.00174
       5 -> 21         0.00211
       5 -> 24         0.00119
       5 -> 26        -0.00015
       5 -> 29        -0.00197
       5 -> 32        -0.00051
       5 -> 39         0.00047
       5 -> 41         0.00031
       5 -> 48        -0.00024
       5 -> 50         0.00017
       5 -> 54        -0.00015
       6 -> 12         0.00233
       6 -> 16        -0.00293
       6 -> 19         0.00440
       6 -> 22        -0.00071
       6 -> 25         0.00115
       6 -> 30         0.00054
       6 -> 33        -0.00024
       6 -> 35        -0.00092
       6 -> 40         0.00054
       6 -> 42         0.00049
       6 -> 49         0.00088
       6 -> 53        -0.00044
       7 -> 27        -0.00041
       7 -> 38         0.00022
       7 -> 47         0.00251
       8 -> 10         0.70736
       8 -> 11         0.03903
       8 -> 13        -0.03686
       8 -> 15        -0.01634
       8 -> 17        -0.01645
       8 -> 20         0.00749
       8 -> 21         0.00427
       8 -> 24        -0.00465
       8 -> 26        -0.00334
       8 -> 29        -0.01374
       8 -> 32         0.00216
       8 -> 34        -0.00084
       8 -> 36         0.00192
       8 -> 39         0.00018
       8 -> 41        -0.00017
       8 -> 45        -0.00072
       8 -> 48        -0.00306
       8 -> 50         0.00098
       8 -> 54        -0.00252
       3 <- 12        -0.00033
       3 <- 16         0.00030
       3 <- 19        -0.00165
       3 <- 22         0.00085
       3 <- 25        -0.00078
       3 <- 30        -0.00086
       3 <- 33         0.00034
       3 <- 35         0.00056
       3 <- 40        -0.00087
       3 <- 49        -0.00413
       3 <- 51         0.00013
       3 <- 53         0.00061
       4 <- 12         0.00012
       4 <- 16        -0.00143
       4 <- 19         0.00019
       4 <- 22         0.00176
       4 <- 25         0.00015
       4 <- 30         0.00091
       4 <- 33        -0.00025
       4 <- 35         0.00052
       4 <- 49         0.00049
       5 <- 10        -0.00097
       5 <- 11        -0.00038
       5 <- 13        -0.00032
       5 <- 15         0.00190
       5 <- 17         0.00019
       5 <- 20         0.00074
       5 <- 21         0.00132
       5 <- 24         0.00127
       5 <- 29        -0.00044
       5 <- 32        -0.00019
       5 <- 39         0.00025
       5 <- 41         0.00033
       5 <- 45        -0.00016
       5 <- 48        -0.00027
       6 <- 12        -0.00124
       6 <- 16         0.00850
       6 <- 19        -0.00507
       6 <- 22        -0.00520
       6 <- 25         0.00142
       6 <- 30        -0.00633
       6 <- 33         0.00012
       6 <- 35        -0.00069
       6 <- 40         0.00052
       6 <- 42         0.00044
       6 <- 49         0.00143
       6 <- 53        -0.00146
       7 <- 27        -0.00043
       7 <- 38         0.00018
       7 <- 47         0.00221
       8 <- 10        -0.06262
       8 <- 11        -0.00688
       8 <- 13         0.00647
       8 <- 15         0.00225
       8 <- 17         0.00305
       8 <- 20        -0.00380
       8 <- 21        -0.00084
       8 <- 24         0.00130
       8 <- 26         0.00076
       8 <- 29         0.00321
       8 <- 32         0.00174
       8 <- 34         0.00072
       8 <- 36        -0.00097
       8 <- 39        -0.00069
       8 <- 41         0.00012
       8 <- 43         0.00024
       8 <- 45        -0.00134
       8 <- 48        -0.00260
       8 <- 50         0.00102
       8 <- 54        -0.00064
 
 Excited State   3:      Singlet-A1     2.6798 eV  462.66 nm  f=0.0184  <S**2>=0.000
       3 -> 10        -0.01089
       3 -> 11        -0.00175
       3 -> 13        -0.00020
       3 -> 17        -0.00277
       3 -> 20        -0.00300
       3 -> 21         0.00075
       3 -> 26         0.00049
       3 -> 29         0.00025
       3 -> 32         0.00246
       3 -> 34         0.00088
       3 -> 36        -0.00085
       3 -> 39        -0.00023
       3 -> 43         0.00039
       3 -> 45        -0.00137
       3 -> 48         0.00231
       3 -> 50         0.00169
       3 -> 54        -0.00015
       4 -> 10         0.00049
       4 -> 11         0.00843
       4 -> 13         0.00107
       4 -> 15        -0.00657
       4 -> 17         0.00178
       4 -> 20         0.00120
       4 -> 21         0.00015
       4 -> 24        -0.00344
       4 -> 26         0.00239
       4 -> 32        -0.00092
       4 -> 34        -0.00057
       4 -> 39        -0.00030
       4 -> 43        -0.00038
       4 -> 45         0.00072
       4 -> 48        -0.00061
       4 -> 50        -0.00020
       4 -> 54         0.00012
       5 -> 12         0.00701
       5 -> 16         0.00062
       5 -> 19         0.00087
       5 -> 22         0.00587
       5 -> 25        -0.00317
       5 -> 30         0.00030
       5 -> 33        -0.00214
       5 -> 35         0.00267
       5 -> 40        -0.00083
       5 -> 42        -0.00096
       5 -> 51        -0.00092
       6 -> 10         0.26856
       6 -> 11         0.02508
       6 -> 13        -0.02603
       6 -> 15        -0.01638
       6 -> 17        -0.01367
       6 -> 20         0.00036
       6 -> 21         0.00303
       6 -> 24        -0.00583
       6 -> 26        -0.00193
       6 -> 29        -0.00135
       6 -> 32         0.00484
       6 -> 34         0.00135
       6 -> 36         0.00085
       6 -> 39        -0.00161
       6 -> 43         0.00074
       6 -> 45        -0.00101
       6 -> 48         0.00063
       6 -> 50         0.00039
       6 -> 54        -0.00099
       7 ->  9         0.67187
       7 -> 14        -0.00847
       7 -> 18        -0.00750
       7 -> 23        -0.00323
       7 -> 28         0.00189
       7 -> 31        -0.00330
       7 -> 37         0.00136
       7 -> 44        -0.00095
       7 -> 52         0.00104
       8 -> 12        -0.00666
       8 -> 16         0.02646
       8 -> 19        -0.01573
       8 -> 22        -0.00823
       8 -> 30        -0.00642
       8 -> 33         0.00069
       8 -> 35        -0.00032
       8 -> 42         0.00012
       8 -> 49        -0.00013
       8 -> 51         0.00011
       8 -> 53        -0.00046
       3 <- 10        -0.00923
       3 <- 11        -0.00181
       3 <- 13        -0.00024
       3 <- 15        -0.00044
       3 <- 17        -0.00168
       3 <- 20        -0.00280
       3 <- 21         0.00035
       3 <- 24        -0.00045
       3 <- 26        -0.00024
       3 <- 29         0.00049
       3 <- 32         0.00206
       3 <- 34         0.00045
       3 <- 36        -0.00094
       3 <- 39        -0.00015
       3 <- 43         0.00041
       3 <- 45        -0.00144
       3 <- 48         0.00230
       3 <- 50         0.00171
       4 <- 10         0.00149
       4 <- 11         0.00667
       4 <- 13         0.00108
       4 <- 15        -0.00483
       4 <- 17         0.00116
       4 <- 20         0.00186
       4 <- 24        -0.00277
       4 <- 26         0.00224
       4 <- 29        -0.00042
       4 <- 32        -0.00085
       4 <- 34        -0.00049
       4 <- 36         0.00017
       4 <- 39        -0.00035
       4 <- 43        -0.00034
       4 <- 45         0.00062
       4 <- 48        -0.00035
       4 <- 54         0.00010
       5 <- 12         0.00474
       5 <- 16         0.00051
       5 <- 19         0.00076
       5 <- 22         0.00451
       5 <- 25        -0.00262
       5 <- 30         0.00030
       5 <- 33        -0.00185
       5 <- 35         0.00237
       5 <- 40        -0.00077
       5 <- 42        -0.00088
       5 <- 51        -0.00088
       6 <- 10         0.09620
       6 <- 11         0.01185
       6 <- 13        -0.01405
       6 <- 15        -0.00972
       6 <- 17        -0.00905
       6 <- 20        -0.00108
       6 <- 21         0.00239
       6 <- 24        -0.00401
       6 <- 26        -0.00074
       6 <- 29        -0.00037
       6 <- 32         0.00448
       6 <- 34         0.00149
       6 <- 36         0.00040
       6 <- 39        -0.00144
       6 <- 43         0.00063
       6 <- 45        -0.00074
       6 <- 48         0.00035
       6 <- 50         0.00025
       6 <- 54        -0.00093
       7 <-  9        -0.12820
       7 <- 14         0.00166
       7 <- 18        -0.00992
       7 <- 23        -0.00023
       7 <- 28        -0.00092
       7 <- 31        -0.00155
       7 <- 37         0.00066
       7 <- 44        -0.00088
       7 <- 46        -0.00047
       7 <- 52         0.00098
       8 <- 12        -0.00337
       8 <- 16         0.01529
       8 <- 19        -0.01023
       8 <- 22        -0.00593
       8 <- 25         0.00012
       8 <- 30        -0.00539
       8 <- 33         0.00056
       8 <- 35        -0.00024
       8 <- 49        -0.00023
       8 <- 53        -0.00043
 
 Excited State   4:      Singlet-B1     2.9235 eV  424.10 nm  f=0.0002  <S**2>=0.000
       3 ->  9        -0.01639
       3 -> 14         0.00043
       3 -> 18        -0.00322
       3 -> 23         0.00100
       3 -> 28        -0.00146
       3 -> 31        -0.00113
       3 -> 37         0.00016
       3 -> 44         0.00012
       3 -> 46        -0.00165
       3 -> 52         0.00042
       4 ->  9        -0.00549
       4 -> 14         0.00087
       4 -> 18         0.00025
       4 -> 23         0.00069
       4 -> 28         0.00063
       4 -> 31        -0.00069
       4 -> 46         0.00017
       4 -> 52        -0.00011
       5 -> 27        -0.00220
       5 -> 38        -0.00021
       5 -> 47         0.00027
       6 ->  9         0.42103
       6 -> 14        -0.01141
       6 -> 18         0.01094
       6 -> 23        -0.00708
       6 -> 28         0.00376
       6 -> 31         0.00012
       6 -> 44        -0.00075
       6 -> 46         0.00196
       6 -> 52         0.00025
       7 -> 10         0.57412
       7 -> 11         0.03233
       7 -> 13        -0.03188
       7 -> 15        -0.01604
       7 -> 17        -0.01311
       7 -> 20         0.00481
       7 -> 21         0.00245
       7 -> 24        -0.00611
       7 -> 26        -0.00437
       7 -> 29        -0.00862
       7 -> 32         0.00196
       7 -> 34        -0.00090
       7 -> 36         0.00093
       7 -> 41        -0.00013
       7 -> 43         0.00044
       7 -> 45        -0.00111
       7 -> 48         0.00273
       7 -> 50         0.00081
       7 -> 54        -0.00126
       8 -> 27         0.00012
       8 -> 47         0.00330
       3 <-  9        -0.00546
       3 <- 14        -0.00041
       3 <- 18        -0.00205
       3 <- 28        -0.00094
       3 <- 31        -0.00062
       3 <- 44        -0.00019
       3 <- 46        -0.00160
       3 <- 52         0.00059
       4 <-  9        -0.00248
       4 <- 14         0.00087
       4 <- 18         0.00100
       4 <- 23         0.00068
       4 <- 28         0.00131
       4 <- 31        -0.00053
       4 <- 44        -0.00037
       5 <- 27        -0.00209
       5 <- 38        -0.00014
       5 <- 47         0.00026
       6 <-  9        -0.06636
       6 <- 14         0.00232
       6 <- 18        -0.00701
       6 <- 23         0.00094
       6 <- 28        -0.00416
       6 <- 31        -0.00250
       6 <- 37         0.00026
       6 <- 44         0.00047
       6 <- 46         0.00198
       6 <- 52        -0.00084
       7 <- 10        -0.07353
       7 <- 11        -0.00817
       7 <- 13         0.01036
       7 <- 15         0.00474
       7 <- 17         0.00391
       7 <- 20        -0.00090
       7 <- 21        -0.00258
       7 <- 24         0.00239
       7 <- 26         0.00154
       7 <- 29         0.00246
       7 <- 36        -0.00039
       7 <- 39        -0.00031
       7 <- 41         0.00024
       7 <- 43         0.00023
       7 <- 45        -0.00080
       7 <- 48         0.00250
       7 <- 50         0.00110
       7 <- 54         0.00015
       8 <- 27         0.00039
       8 <- 47         0.00300
 
 Excited State   5:      Singlet-B1     3.5063 eV  353.60 nm  f=0.0050  <S**2>=0.000
       3 ->  9        -0.00756
       3 -> 14         0.00033
       3 -> 23         0.00026
       3 -> 28         0.00147
       3 -> 31         0.00070
       3 -> 44         0.00042
       3 -> 46         0.00311
       3 -> 52         0.00046
       4 ->  9         0.02788
       4 -> 14        -0.00568
       4 -> 18        -0.00050
       4 -> 23        -0.00454
       4 -> 28        -0.00022
       4 -> 31        -0.00091
       4 -> 37        -0.00035
       4 -> 44         0.00037
       4 -> 46        -0.00089
       4 -> 52        -0.00021
       5 -> 27         0.00531
       5 -> 38         0.00378
       6 ->  9         0.57122
       6 -> 14        -0.01093
       6 -> 18         0.00538
       6 -> 23        -0.00713
       6 -> 28        -0.00101
       6 -> 31         0.00449
       6 -> 37        -0.00288
       6 -> 44        -0.00145
       6 -> 46         0.00200
       6 -> 52         0.00109
       7 -> 10        -0.41506
       7 -> 11        -0.01728
       7 -> 13         0.01830
       7 -> 15         0.01594
       7 -> 17         0.00311
       7 -> 20         0.00240
       7 -> 21        -0.00086
       7 -> 24         0.00534
       7 -> 26         0.00245
       7 -> 29         0.00478
       7 -> 34         0.00298
       7 -> 36         0.00150
       7 -> 39        -0.00058
       7 -> 43        -0.00020
       7 -> 45         0.00037
       7 -> 48         0.00109
       7 -> 50         0.00055
       7 -> 54         0.00136
       8 -> 27        -0.00038
       8 -> 38        -0.00016
       8 -> 47         0.00126
       3 <-  9        -0.00249
       3 <- 14        -0.00098
       3 <- 18        -0.00048
       3 <- 23        -0.00066
       3 <- 28         0.00117
       3 <- 31        -0.00031
       3 <- 37         0.00034
       3 <- 44         0.00041
       3 <- 46         0.00319
       3 <- 52         0.00013
       4 <-  9         0.01541
       4 <- 14        -0.00299
       4 <- 18         0.00039
       4 <- 23        -0.00304
       4 <- 31        -0.00069
       4 <- 37        -0.00030
       4 <- 44         0.00041
       4 <- 46        -0.00056
       4 <- 52        -0.00015
       5 <- 27         0.00391
       5 <- 38         0.00327
       6 <-  9         0.00428
       6 <- 14         0.00173
       6 <- 18         0.00035
       6 <- 23        -0.00027
       6 <- 28        -0.00194
       6 <- 31         0.00450
       6 <- 37        -0.00272
       6 <- 44        -0.00087
       6 <- 46         0.00126
       6 <- 52         0.00107
       7 <- 10        -0.01463
       7 <- 11        -0.00246
       7 <- 13         0.00475
       7 <- 15         0.00809
       7 <- 17         0.00116
       7 <- 20         0.00487
       7 <- 21        -0.00040
       7 <- 24         0.00407
       7 <- 26         0.00119
       7 <- 29         0.00104
       7 <- 32        -0.00118
       7 <- 34         0.00212
       7 <- 36         0.00229
       7 <- 39        -0.00030
       7 <- 43        -0.00031
       7 <- 45         0.00051
       7 <- 48         0.00115
       7 <- 50         0.00085
       7 <- 54         0.00114
       8 <- 47         0.00142
 
 Excited State   6:      Singlet-A2     6.6814 eV  185.57 nm  f=0.0000  <S**2>=0.000
       3 -> 27        -0.00091
       3 -> 38        -0.00024
       4 -> 27        -0.00605
       4 -> 38         0.00044
       4 -> 47        -0.00016
       5 ->  9         0.70639
       5 -> 14        -0.02541
       5 -> 18         0.00309
       5 -> 23        -0.01587
       5 -> 28         0.00150
       5 -> 31        -0.00244
       5 -> 37        -0.00565
       5 -> 44        -0.00211
       5 -> 46         0.00053
       6 -> 27        -0.00057
       6 -> 38         0.00253
       6 -> 47         0.00012
       7 -> 12         0.01291
       7 -> 16         0.01235
       7 -> 19         0.00099
       7 -> 22        -0.00381
       7 -> 25        -0.00027
       7 -> 30        -0.00039
       7 -> 33        -0.00049
       7 -> 40        -0.00020
       7 -> 42         0.00024
       7 -> 51        -0.00076
       8 -> 14         0.00548
       8 -> 18         0.00127
       8 -> 23         0.00117
       8 -> 28         0.00015
       8 -> 31         0.00051
       8 -> 37         0.00082
       8 -> 44         0.00014
       8 -> 52         0.00013
       3 <- 27        -0.00100
       3 <- 38        -0.00033
       3 <- 47         0.00012
       4 <- 27        -0.00567
       5 <-  9        -0.01533
       5 <- 14         0.00213
       5 <- 18         0.00034
       5 <- 23         0.00016
       5 <- 28         0.00213
       5 <- 31        -0.00338
       5 <- 37        -0.00360
       5 <- 44        -0.00050
       6 <- 27        -0.00132
       6 <- 38         0.00189
       7 <- 12        -0.00367
       7 <- 16        -0.00032
       7 <- 19        -0.00097
       7 <- 22        -0.00408
       7 <- 25         0.00344
       7 <- 33         0.00030
       7 <- 35        -0.00066
       7 <- 42         0.00088
       7 <- 51        -0.00087
       8 <-  9         0.00048
       8 <- 14        -0.00042
       8 <- 18        -0.00098
       8 <- 23        -0.00036
       8 <- 28        -0.00091
       8 <- 31         0.00058
       8 <- 37         0.00046
 
 Excited State   7:      Singlet-B2     6.8020 eV  182.28 nm  f=0.0026  <S**2>=0.000
       3 -> 12         0.00145
       3 -> 16         0.00061
       3 -> 19        -0.00036
       3 -> 22        -0.00010
       3 -> 25        -0.00046
       3 -> 30        -0.00144
       3 -> 33         0.00018
       3 -> 40        -0.00012
       3 -> 49        -0.00018
       4 -> 12        -0.00036
       4 -> 16         0.00082
       4 -> 19         0.00054
       4 -> 22        -0.00099
       4 -> 25        -0.00059
       4 -> 30         0.00043
       5 -> 10        -0.00407
       5 -> 11        -0.00613
       5 -> 13         0.00244
       5 -> 15         0.00267
       5 -> 20         0.00033
       5 -> 21        -0.00033
       5 -> 24        -0.00026
       5 -> 26        -0.00018
       5 -> 29        -0.00053
       5 -> 32        -0.00052
       5 -> 34         0.00056
       5 -> 39         0.00015
       5 -> 41        -0.00021
       5 -> 43        -0.00020
       6 -> 12        -0.00427
       6 -> 16        -0.00200
       6 -> 19        -0.00063
       6 -> 22         0.00041
       6 -> 30        -0.00012
       6 -> 35         0.00049
       6 -> 42        -0.00011
       6 -> 49         0.00053
       7 -> 27        -0.00042
       7 -> 38        -0.00029
       7 -> 47         0.00071
       8 -> 10        -0.03603
       8 -> 11         0.70342
       8 -> 13         0.05814
       8 -> 15        -0.01764
       8 -> 17        -0.00222
       8 -> 20         0.01058
       8 -> 21         0.00190
       8 -> 24        -0.00180
       8 -> 26         0.00265
       8 -> 29        -0.00147
       8 -> 32         0.00016
       8 -> 34        -0.00016
       8 -> 36        -0.00037
       8 -> 41        -0.00024
       8 -> 43         0.00017
       8 -> 45        -0.00051
       8 -> 48        -0.00090
       8 -> 50         0.00034
       8 -> 54        -0.00020
       3 <- 16         0.00042
       3 <- 19        -0.00037
       3 <- 22        -0.00028
       3 <- 25        -0.00013
       3 <- 30        -0.00084
       3 <- 49        -0.00018
       4 <- 12         0.00035
       4 <- 16         0.00063
       4 <- 19         0.00053
       4 <- 22        -0.00065
       4 <- 25        -0.00038
       4 <- 30         0.00030
       4 <- 42         0.00011
       5 <- 10        -0.00126
       5 <- 13         0.00041
       5 <- 20         0.00017
       5 <- 21         0.00016
       5 <- 24        -0.00060
       5 <- 26         0.00013
       5 <- 29        -0.00019
       5 <- 32        -0.00021
       5 <- 34         0.00048
       5 <- 41        -0.00015
       5 <- 43        -0.00014
       5 <- 48        -0.00011
       6 <- 12        -0.00056
       6 <- 16        -0.00012
       6 <- 19        -0.00043
       6 <- 22         0.00012
       6 <- 30        -0.00039
       6 <- 35         0.00035
       6 <- 49         0.00049
       7 <- 27        -0.00028
       7 <- 38        -0.00021
       7 <- 47         0.00062
       8 <- 10        -0.00320
       8 <- 11        -0.00076
       8 <- 13        -0.00024
       8 <- 17        -0.00108
       8 <- 20        -0.00187
       8 <- 21         0.00037
       8 <- 29         0.00029
       8 <- 32         0.00113
       8 <- 34         0.00036
       8 <- 36        -0.00089
       8 <- 45        -0.00029
       8 <- 48        -0.00073
       8 <- 50         0.00040
 
 Excited State   8:      Singlet-B1     7.0567 eV  175.70 nm  f=0.0596  <S**2>=0.000
       3 ->  9        -0.00045
       3 -> 14         0.00141
       3 -> 18        -0.00068
       3 -> 23        -0.00024
       3 -> 28        -0.00139
       3 -> 31        -0.00074
       3 -> 44        -0.00016
       3 -> 52        -0.00015
       4 ->  9         0.00223
       4 -> 14         0.00141
       4 -> 18        -0.00014
       4 -> 23        -0.00153
       4 -> 31         0.00049
       4 -> 37        -0.00035
       4 -> 44        -0.00041
       5 -> 38         0.00044
       6 ->  9        -0.00448
       6 -> 14        -0.00172
       6 -> 18         0.00018
       6 -> 23         0.00075
       6 -> 28         0.00033
       6 -> 31        -0.00018
       6 -> 37        -0.00014
       6 -> 44         0.00039
       7 -> 10        -0.03514
       7 -> 11         0.70494
       7 -> 13         0.02915
       7 -> 15        -0.03024
       7 -> 17        -0.00347
       7 -> 20         0.00355
       7 -> 21         0.00341
       7 -> 24        -0.00539
       7 -> 26         0.00203
       7 -> 29        -0.00057
       7 -> 32         0.00013
       7 -> 34        -0.00018
       7 -> 36        -0.00064
       7 -> 41        -0.00031
       7 -> 43         0.00022
       7 -> 45        -0.00040
       7 -> 48         0.00020
       7 -> 54        -0.00018
       8 -> 38        -0.00015
       8 -> 47         0.00030
       3 <-  9         0.00042
       3 <- 18        -0.00046
       3 <- 23        -0.00039
       3 <- 28        -0.00092
       3 <- 31        -0.00037
       4 <-  9        -0.00332
       4 <- 14         0.00065
       4 <- 23        -0.00053
       4 <- 31         0.00049
       4 <- 37        -0.00029
       5 <- 38         0.00036
       6 <-  9        -0.00363
       6 <- 14         0.00096
       6 <- 18        -0.00020
       6 <- 23         0.00144
       6 <- 31        -0.00030
       6 <- 44         0.00044
       6 <- 46         0.00012
       6 <- 52        -0.00011
       7 <- 10        -0.00212
       7 <- 11        -0.00123
       7 <- 13        -0.00146
       7 <- 15         0.00044
       7 <- 17        -0.00066
       7 <- 20        -0.00328
       7 <- 26        -0.00128
       7 <- 29         0.00055
       7 <- 32         0.00073
       7 <- 34         0.00028
       7 <- 36        -0.00074
       7 <- 45        -0.00017
       7 <- 48         0.00018
       8 <- 47         0.00022
 
 Excited State   9:      Singlet-A1     7.9483 eV  155.99 nm  f=0.0565  <S**2>=0.000
       3 -> 10        -0.00086
       3 -> 11         0.00193
       3 -> 13         0.00207
       3 -> 17         0.00098
       3 -> 20         0.00122
       3 -> 24        -0.00010
       3 -> 26        -0.00079
       3 -> 29        -0.00067
       3 -> 32        -0.00034
       3 -> 36         0.00028
       3 -> 41        -0.00018
       3 -> 45        -0.00011
       3 -> 48        -0.00038
       3 -> 50         0.00015
       3 -> 54        -0.00029
       4 -> 10         0.00398
       4 -> 11        -0.00565
[...]
  48        5S         -0.00157  -0.00000   0.00858   0.01361   0.00905
  49        5PX        -0.00000  -0.00000   0.00000   0.00000   0.00000
  50        5PY         0.00000   0.00000  -0.00549  -0.01184  -0.01334
  51        5PZ        -0.00009  -0.00000   0.00167   0.00206  -0.00018
  52        6D 0        0.00013   0.00000  -0.00046  -0.00087  -0.00093
  53        6D+1       -0.00000   0.00000   0.00000   0.00000  -0.00000
  54        6D-1       -0.00000   0.00000  -0.00049  -0.00053   0.00034
  55        6D+2        0.00001   0.00000  -0.00000   0.00001   0.00001
  56        6D-2        0.00000   0.00000   0.00000   0.00000   0.00000
                          26        27        28        29        30
  26        4PX         0.00025
  27        4PY        -0.00000   0.00108
  28        4PZ         0.00000  -0.00041   0.00063
  29 3   H  1S          0.00000  -0.00194  -0.00309   0.07692
  30        2S          0.00000  -0.00175  -0.00509   0.10863   0.15565
  31        3S         -0.00000   0.00096  -0.00275   0.02949   0.04672
  32        4PX         0.00025   0.00000   0.00000  -0.00000  -0.00000
  33        4PY         0.00000  -0.00064  -0.00012   0.00828   0.01123
  34        4PZ        -0.00000   0.00012  -0.00001   0.00455   0.00631
  35 4   O  1S         -0.00000   0.00005   0.00010   0.00046  -0.00005
  36        2S         -0.00000   0.00013   0.00017   0.00070  -0.00021
  37        2PX         0.00581   0.00000  -0.00000  -0.00000  -0.00000
  38        2PY         0.00000  -0.00009   0.00021   0.00772   0.02404
  39        2PZ         0.00000  -0.00257  -0.00406   0.01729   0.02713
  40        3S          0.00000  -0.00054  -0.00075  -0.00194   0.00132
  41        3PX         0.00834   0.00000  -0.00000  -0.00000  -0.00000
  42        3PY         0.00000  -0.00014   0.00030   0.01091   0.03409
  43        3PZ         0.00000  -0.00379  -0.00601   0.02552   0.04005
  44        4S          0.00000  -0.00071  -0.00082   0.00023   0.00362
  45        4PX         0.00752   0.00000  -0.00000  -0.00000  -0.00000
  46        4PY         0.00000  -0.00007   0.00020   0.01066   0.03191
  47        4PZ         0.00000  -0.00305  -0.00491   0.02062   0.03240
  48        5S          0.00000  -0.00122  -0.00226   0.00858   0.01361
  49        5PX         0.00156   0.00000   0.00000  -0.00000  -0.00000
  50        5PY         0.00000   0.00020  -0.00021   0.00549   0.01184
  51        5PZ         0.00000  -0.00032   0.00019   0.00167   0.00206
  52        6D 0       -0.00000   0.00005   0.00026  -0.00046  -0.00087
  53        6D+1       -0.00016  -0.00000   0.00000  -0.00000  -0.00000
  54        6D-1       -0.00000   0.00004  -0.00005   0.00049   0.00053
  55        6D+2        0.00000  -0.00000  -0.00000  -0.00000   0.00001
  56        6D-2        0.00000  -0.00000   0.00000   0.00000   0.00000
                          31        32        33        34        35
  31        3S          0.02390
  32        4PX        -0.00000   0.00025
  33        4PY         0.00226  -0.00000   0.00108
  34        4PZ         0.00110  -0.00000   0.00041   0.00063
  35 4   O  1S         -0.00043   0.00000  -0.00005   0.00010   0.64206
  36        2S         -0.00080   0.00000  -0.00013   0.00017   0.57299
  37        2PX        -0.00000   0.00581   0.00000   0.00000   0.00000
  38        2PY         0.04020   0.00000  -0.00009  -0.00021   0.00000
  39        2PZ         0.01679  -0.00000   0.00257  -0.00406  -0.00690
  40        3S          0.00347  -0.00000   0.00054  -0.00075  -0.15054
  41        3PX        -0.00000   0.00834   0.00000   0.00000   0.00000
  42        3PY         0.05712   0.00000  -0.00014  -0.00030   0.00000
  43        3PZ         0.02482  -0.00000   0.00379  -0.00601  -0.00869
  44        4S          0.00387  -0.00000   0.00071  -0.00082  -0.13936
  45        4PX        -0.00000   0.00752   0.00000   0.00000   0.00000
  46        4PY         0.05178   0.00000  -0.00007  -0.00020   0.00000
  47        4PZ         0.02020  -0.00000   0.00305  -0.00491  -0.00511
  48        5S          0.00905  -0.00000   0.00122  -0.00226   0.00891
  49        5PX        -0.00000   0.00156   0.00000  -0.00000   0.00000
  50        5PY         0.01334   0.00000   0.00020   0.00021   0.00000
  51        5PZ        -0.00018  -0.00000   0.00032   0.00019  -0.00598
  52        6D 0       -0.00093   0.00000  -0.00005   0.00026  -0.00109
  53        6D+1        0.00000  -0.00016  -0.00000  -0.00000   0.00000
  54        6D-1       -0.00034  -0.00000   0.00004   0.00005   0.00000
  55        6D+2        0.00001  -0.00000   0.00000  -0.00000  -0.00074
  56        6D-2        0.00000  -0.00000   0.00000   0.00000  -0.00000
                          36        37        38        39        40
  36        2S          0.52973
  37        2PX         0.00000   0.13264
  38        2PY         0.00000  -0.00000   0.19632
  39        2PZ        -0.01085  -0.00000   0.00000   0.07973
  40        3S         -0.25216   0.00000   0.00000   0.03508   0.79079
  41        3PX         0.00000   0.19054  -0.00000   0.00000   0.00000
  42        3PY         0.00000  -0.00000   0.27912  -0.00000  -0.00000
  43        3PZ        -0.01441  -0.00000   0.00000   0.11785   0.04968
  44        4S         -0.21807   0.00000   0.00000   0.03321   0.63370
  45        4PX         0.00000   0.17179  -0.00000   0.00000   0.00000
  46        4PY         0.00000  -0.00000   0.25089  -0.00000  -0.00000
  47        4PZ        -0.00904  -0.00000   0.00000   0.09581   0.03396
  48        5S          0.00972   0.00000   0.00000   0.04233  -0.01159
  49        5PX         0.00000   0.03570  -0.00000   0.00000   0.00000
  50        5PY         0.00000  -0.00000   0.05702   0.00000  -0.00000
  51        5PZ        -0.00860  -0.00000   0.00000  -0.00055   0.02222
  52        6D 0       -0.00169   0.00000  -0.00000  -0.00431   0.00468
  53        6D+1       -0.00000  -0.00354  -0.00000  -0.00000   0.00000
  54        6D-1        0.00000  -0.00000  -0.00319   0.00000  -0.00000
  55        6D+2       -0.00119  -0.00000  -0.00000   0.00012   0.00356
  56        6D-2       -0.00000   0.00000   0.00000   0.00000   0.00000
                          41        42        43        44        45
  41        3PX         0.27371
  42        3PY         0.00000   0.39685
  43        3PZ        -0.00000   0.00000   0.17418
  44        4S          0.00000   0.00000   0.04731   0.50874
  45        4PX         0.24677   0.00000   0.00000   0.00000   0.22249
  46        4PY         0.00000   0.35671  -0.00000  -0.00000   0.00000
  47        4PZ        -0.00000   0.00000   0.14163   0.03330  -0.00000
  48        5S          0.00000   0.00000   0.06266  -0.00673   0.00000
  49        5PX         0.05129  -0.00000   0.00000   0.00000   0.04624
  50        5PY        -0.00000   0.08107   0.00000  -0.00000  -0.00000
  51        5PZ        -0.00000   0.00000  -0.00089   0.01781  -0.00000
  52        6D 0        0.00000  -0.00000  -0.00640   0.00347   0.00000
  53        6D+1       -0.00509   0.00000  -0.00000   0.00000  -0.00459
  54        6D-1        0.00000  -0.00453   0.00000  -0.00000  -0.00000
  55        6D+2       -0.00000  -0.00000   0.00016   0.00285  -0.00000
  56        6D-2        0.00000   0.00000   0.00000   0.00000   0.00000
                          46        47        48        49        50
  46        4PY         0.32065
  47        4PZ         0.00000   0.11522
  48        5S          0.00000   0.05121   0.02376
  49        5PX        -0.00000   0.00000   0.00000   0.00961
  50        5PY         0.07293   0.00000   0.00000  -0.00000   0.01679
  51        5PZ         0.00000  -0.00092  -0.00126  -0.00000   0.00000
  52        6D 0       -0.00000  -0.00526  -0.00257   0.00000  -0.00000
  53        6D+1       -0.00000  -0.00000  -0.00000  -0.00095  -0.00000
  54        6D-1       -0.00406   0.00000   0.00000  -0.00000  -0.00088
  55        6D+2       -0.00000   0.00010  -0.00008  -0.00000  -0.00000
  56        6D-2        0.00000   0.00000  -0.00000   0.00000   0.00000
                          51        52        53        54        55
  51        5PZ         0.00082
  52        6D 0        0.00026   0.00030
  53        6D+1        0.00000  -0.00000   0.00009
  54        6D-1       -0.00000   0.00000   0.00000   0.00006
  55        6D+2        0.00010   0.00002   0.00000   0.00000   0.00002
  56        6D-2        0.00000   0.00000  -0.00000  -0.00000   0.00000
                          56
  56        6D-2        0.00000
          Condensed to atoms (all electrons):
               1          2          3          4
     1  C    5.183341   0.349793   0.349793   0.229148
     2  H    0.349793   0.507661  -0.041928  -0.010743
     3  H    0.349793  -0.041928   0.507661  -0.010743
     4  O    0.229148  -0.010743  -0.010743   8.070697
 Mulliken charges:
               1
     1  C   -0.112075
     2  H    0.195217
     3  H    0.195217
     4  O   -0.278358
 Sum of Mulliken charges =  -0.00000
 Mulliken charges with hydrogens summed into heavy atoms:
               1
     1  C    0.278358
     4  O   -0.278358
 Electronic spatial extent (au):  <R**2>=             98.3053
 Charge=             -0.0000 electrons
 Dipole moment (field-independent basis, Debye):
    X=             -0.0000    Y=              0.0000    Z=             -4.3939  Tot=              4.3939
 Quadrupole moment (field-independent basis, Debye-Ang):
   XX=            -13.1332   YY=            -12.1217   ZZ=            -10.2432
   XY=              0.0000   XZ=              0.0000   YZ=             -0.0000
 Traceless Quadrupole moment (field-independent basis, Debye-Ang):
   XX=             -1.3006   YY=             -0.2890   ZZ=              1.5895
   XY=              0.0000   XZ=              0.0000   YZ=             -0.0000
 Octapole moment (field-independent basis, Debye-Ang**2):
  XXX=              0.0000  YYY=              0.0000  ZZZ=             -3.2675  XYY=             -0.0000
  XXY=             -0.0000  XXZ=              0.3337  XZZ=             -0.0000  YZZ=             -0.0000
  YYZ=             -2.8651  XYZ=             -0.0000
 Hexadecapole moment (field-independent basis, Debye-Ang**3):
 XXXX=            -14.4749 YYYY=            -18.7336 ZZZZ=            -86.1362 XXXY=             -0.0000
 XXXZ=             -0.0000 YYYX=             -0.0000 YYYZ=              0.0000 ZZZX=              0.0000
 ZZZY=              0.0000 XXYY=             -5.9926 XXZZ=            -18.2698 YYZZ=            -15.8939
 XXYZ=              0.0000 YYXZ=              0.0000 ZZXY=              0.0000
 N-N= 2.204845096858D+01 E-N=-3.124822502777D+02  KE= 1.133115201985D+02
 Symmetry A1   KE= 1.025586876578D+02
 Symmetry A2   KE= 1.120523540060D-35
 Symmetry B1   KE= 3.843552230564D+00
 Symmetry B2   KE= 6.909280310143D+00
 Leave Link  601 at Fri Sep 17 10:53:18 2021, MaxMem=   268435456 cpu:               0.1 elap:               0.1
 (Enter /software/gaussian/g16-a03/l9999.exe)
 Electronic transition elements 
                 1             2             3             4             5 
      1  -0.114268D+03 -0.114209D+03 -0.114208D+03 -0.114199D+03 -0.114177D+03
      2   0.000000D+00  0.000000D+00  0.000000D+00 -0.534986D-01  0.242114D+00
      3   0.000000D+00 -0.131684D+00  0.000000D+00  0.000000D+00  0.000000D+00
      4   0.000000D+00  0.000000D+00  0.529139D+00  0.000000D+00  0.000000D+00
      5   0.000000D+00  0.000000D+00  0.000000D+00 -0.146747D-01 -0.400820D-01
      6   0.000000D+00  0.101091D-01  0.000000D+00  0.000000D+00  0.000000D+00
      7   0.000000D+00  0.000000D+00 -0.437522D-01  0.000000D+00  0.000000D+00
      8   0.000000D+00  0.720073D+00  0.000000D+00  0.000000D+00  0.000000D+00
      9   0.000000D+00  0.000000D+00  0.000000D+00 -0.193838D+01 -0.703037D+00
     10   0.908134D+00  0.000000D+00  0.000000D+00  0.000000D+00  0.000000D+00
     11   0.000000D+00  0.000000D+00  0.335682D-01  0.000000D+00  0.000000D+00
     12   0.000000D+00  0.000000D+00 -0.730081D-02  0.000000D+00  0.000000D+00
     13   0.000000D+00  0.000000D+00 -0.241377D-01  0.000000D+00  0.000000D+00
     14  -0.210378D-01  0.000000D+00  0.000000D+00  0.000000D+00  0.000000D+00
     15   0.000000D+00  0.000000D+00  0.000000D+00  0.257210D-01 -0.995658D-01
     16   0.000000D+00  0.269540D-01  0.000000D+00  0.000000D+00  0.000000D+00
                 6             7             8             9            10 
      1  -0.114061D+03 -0.114056D+03 -0.114047D+03 -0.114014D+03 -0.114004D+03
      2   0.000000D+00  0.000000D+00 -0.587325D+00  0.000000D+00  0.000000D+00
      3   0.000000D+00 -0.125780D+00  0.000000D+00  0.000000D+00  0.000000D+00
      4   0.000000D+00  0.000000D+00  0.000000D+00 -0.538433D+00  0.000000D+00
      5   0.000000D+00  0.000000D+00  0.154966D+00  0.000000D+00  0.000000D+00
      6   0.000000D+00  0.264898D-01  0.000000D+00  0.000000D+00  0.000000D+00
      7   0.000000D+00  0.000000D+00  0.000000D+00  0.154071D+00  0.000000D+00
      8   0.000000D+00 -0.269559D+00  0.000000D+00  0.000000D+00  0.000000D+00
      9   0.000000D+00  0.000000D+00 -0.132967D+00  0.000000D+00  0.000000D+00
     10  -0.112475D+01  0.000000D+00  0.000000D+00  0.000000D+00  0.234063D-01
     11   0.000000D+00  0.000000D+00  0.000000D+00  0.195270D-01  0.000000D+00
     12   0.000000D+00  0.000000D+00  0.000000D+00  0.134499D+00  0.000000D+00
     13   0.000000D+00  0.000000D+00  0.000000D+00 -0.193301D+00  0.000000D+00
     14   0.171728D+00  0.000000D+00  0.000000D+00  0.000000D+00  0.276401D+00
     15   0.000000D+00  0.000000D+00 -0.197822D+00  0.000000D+00  0.000000D+00
     16   0.000000D+00  0.192413D+00  0.000000D+00  0.000000D+00  0.000000D+00
                11            12            13            14            15 
      1  -0.113998D+03 -0.113994D+03 -0.113992D+03 -0.113986D+03 -0.113981D+03
      2   0.000000D+00  0.000000D+00  0.000000D+00 -0.482083D+00  0.000000D+00
      3  -0.444268D+00  0.000000D+00  0.000000D+00  0.000000D+00  0.000000D+00
      4   0.000000D+00 -0.165156D+01  0.000000D+00  0.000000D+00 -0.247293D+00
      5   0.000000D+00  0.000000D+00  0.000000D+00  0.160042D+00  0.000000D+00
      6   0.137929D+00  0.000000D+00  0.000000D+00  0.000000D+00  0.000000D+00
      7   0.000000D+00  0.514506D+00  0.000000D+00  0.000000D+00  0.820720D-01
      8  -0.514244D+00  0.000000D+00  0.000000D+00  0.000000D+00  0.000000D+00
      9   0.000000D+00  0.000000D+00  0.000000D+00  0.234914D+00  0.000000D+00
     10   0.000000D+00  0.000000D+00 -0.197347D-02  0.000000D+00  0.000000D+00
     11   0.000000D+00 -0.213667D+00  0.000000D+00  0.000000D+00  0.722721D+00
     12   0.000000D+00 -0.659453D-01  0.000000D+00  0.000000D+00  0.523806D-01
     13   0.000000D+00 -0.868266D-01  0.000000D+00  0.000000D+00 -0.374787D+00
     14   0.000000D+00  0.000000D+00  0.852652D-01  0.000000D+00  0.000000D+00
     15   0.000000D+00  0.000000D+00  0.000000D+00  0.337376D+00  0.000000D+00
     16   0.265905D+00  0.000000D+00  0.000000D+00  0.000000D+00  0.000000D+00
                16            17            18            19            20 
      1  -0.113971D+03 -0.113965D+03 -0.113942D+03 -0.113933D+03 -0.113929D+03
      2   0.000000D+00  0.000000D+00  0.000000D+00 -0.454292D+00  0.000000D+00
      3   0.693829D-01  0.000000D+00 -0.219875D+00  0.000000D+00 -0.222760D+00
      4   0.000000D+00 -0.500209D+00  0.000000D+00  0.000000D+00  0.000000D+00
      5   0.000000D+00  0.000000D+00  0.000000D+00  0.152439D+00  0.000000D+00
      6  -0.285590D-01  0.000000D+00  0.856684D-01  0.000000D+00  0.833525D-01
      7   0.000000D+00  0.176053D+00  0.000000D+00  0.000000D+00  0.000000D+00
      8   0.791510D+00  0.000000D+00  0.160380D+00  0.000000D+00  0.844880D-01
      9   0.000000D+00  0.000000D+00  0.000000D+00  0.159980D+00  0.000000D+00
     10   0.000000D+00  0.000000D+00  0.000000D+00  0.000000D+00  0.000000D+00
     11   0.000000D+00  0.344297D+00  0.000000D+00  0.000000D+00  0.000000D+00
     12   0.000000D+00  0.170693D+00  0.000000D+00  0.000000D+00  0.000000D+00
     13   0.000000D+00  0.680914D+00  0.000000D+00  0.000000D+00  0.000000D+00
     14   0.000000D+00  0.000000D+00  0.000000D+00  0.000000D+00  0.000000D+00
     15   0.000000D+00  0.000000D+00  0.000000D+00 -0.670499D-01  0.000000D+00
     16   0.343064D+00  0.000000D+00  0.192132D-01  0.000000D+00 -0.366628D+00
                21            22            23            24            25 
      1  -0.113926D+03 -0.113918D+03 -0.113908D+03 -0.113889D+03 -0.113888D+03
      2   0.000000D+00  0.000000D+00 -0.470943D-01  0.000000D+00  0.000000D+00
      3   0.000000D+00  0.000000D+00  0.000000D+00  0.000000D+00 -0.142524D+00
      4   0.000000D+00 -0.749358D+00  0.000000D+00  0.103753D+01  0.000000D+00
      5   0.000000D+00  0.000000D+00  0.116069D-01  0.000000D+00  0.000000D+00
      6   0.000000D+00  0.000000D+00  0.000000D+00  0.000000D+00  0.552518D-01
      7   0.000000D+00  0.291669D+00  0.000000D+00 -0.411560D+00  0.000000D+00
      8   0.000000D+00  0.000000D+00  0.000000D+00  0.000000D+00 -0.442267D-01
      9   0.000000D+00  0.000000D+00  0.554573D-01  0.000000D+00  0.000000D+00
     10  -0.800781D-01  0.000000D+00  0.000000D+00  0.000000D+00  0.000000D+00
     11   0.000000D+00 -0.134252D+00  0.000000D+00 -0.269182D+00  0.000000D+00
     12   0.000000D+00 -0.419022D+00  0.000000D+00  0.368588D+00  0.000000D+00
     13   0.000000D+00 -0.521897D-01  0.000000D+00 -0.317809D+00  0.000000D+00
     14  -0.276061D+00  0.000000D+00  0.000000D+00  0.000000D+00  0.000000D+00
     15   0.000000D+00  0.000000D+00 -0.170979D+00  0.000000D+00  0.000000D+00
     16   0.000000D+00  0.000000D+00  0.000000D+00  0.000000D+00  0.491337D+00
                26            27            28            29            30 
      1  -0.113871D+03 -0.113869D+03 -0.113858D+03 -0.113857D+03 -0.113844D+03
      2   0.395345D-01  0.000000D+00  0.000000D+00  0.000000D+00  0.000000D+00
      3   0.000000D+00  0.000000D+00 -0.611045D+00  0.000000D+00 -0.545828D+00
      4   0.000000D+00  0.000000D+00  0.000000D+00  0.400875D+00  0.000000D+00
      5  -0.664761D-02  0.000000D+00  0.000000D+00  0.000000D+00  0.000000D+00
      6   0.000000D+00  0.000000D+00  0.270986D+00  0.000000D+00  0.253980D+00
      7   0.000000D+00  0.000000D+00  0.000000D+00 -0.168788D+00  0.000000D+00
      8   0.000000D+00  0.000000D+00  0.765883D+00  0.000000D+00  0.270223D-02
      9   0.145057D+00  0.000000D+00  0.000000D+00  0.000000D+00  0.000000D+00
     10   0.000000D+00 -0.239340D-01  0.000000D+00  0.000000D+00  0.000000D+00
     11   0.000000D+00  0.000000D+00  0.000000D+00 -0.194453D+00  0.000000D+00
     12   0.000000D+00  0.000000D+00  0.000000D+00 -0.221718D-01  0.000000D+00
     13   0.000000D+00  0.000000D+00  0.000000D+00  0.127675D+00  0.000000D+00
     14   0.000000D+00  0.368832D+00  0.000000D+00  0.000000D+00  0.000000D+00
     15   0.436367D+00  0.000000D+00  0.000000D+00  0.000000D+00  0.000000D+00
     16   0.000000D+00  0.000000D+00 -0.833459D+00  0.000000D+00 -0.669394D+00

 Test job not archived.
 1\1\GINC-BHD0001\SP\RB3LYP TD-FC\6-311+G(d,p)\C1H2O1\BWEIGHT\17-Sep-20
 21\0\\#p B3LYP/6-311+G** #p TD=(singlets,nstates=30)IOp(6/8=3) IOp(9/4
 0=4)\\Scan Step 293, Bond Length 1.965\\0,1\C,0,0.,0.,-0.52736\H,0,0.,
 0.93726,-1.11871\H,0,0.,-0.93726,-1.11871\O,0,0.,0.,1.43764\\Version=E
 S64L-G16RevA.03\State=1-A1\HF=-114.3060415\RMSD=7.792e-10\PG=C02V [C2(
 C1O1),SGV(H2)]\\@


 THE MOST SERIOUS THREAT TO THE SURVIVAL OF MANKIND IS NOT NOW
 IGNORANCE IN THE TRADITIONAL SENSE,
 BUT A MORALLY NEUTRAL, AN INSENSITIVE OR INHIBITED HUMAN INTELLIGENCE.

                     -- MARGO JEFFERSON IN NEWSWEEK, SEPTEMBER 2, 1974
 Job cpu time:       0 days  0 hours  0 minutes 27.5 seconds.
 Elapsed time:       0 days  0 hours  0 minutes 27.9 seconds.
 File lengths (MBytes):  RWF=     79 Int=      0 D2E=      0 Chk=     32 Scr=      1
 Normal termination of Gaussian 16 at Fri Sep 17 10:53:18 2021.
