 Entering Gaussian System, Link 0=g16
 Initial command:
 /software/gaussian/g16-c01/sse4/g16/l1.exe "/local_scratch/24657468/Gau-5450.inp" -scrdir="/local_scratch/24657468/"
 Entering Link 1 = /software/gaussian/g16-c01/sse4/g16/l1.exe PID=      5532.
  
 Copyright (c) 1988-2019, Gaussian, Inc.  All Rights Reserved.
  
 This is part of the Gaussian(R) 16 program.  It is based on
 the Gaussian(R) 09 system (copyright 2009, Gaussian, Inc.),
 the Gaussian(R) 03 system (copyright 2003, Gaussian, Inc.),
 the Gaussian(R) 98 system (copyright 1998, Gaussian, Inc.),
 the Gaussian(R) 94 system (copyright 1995, Gaussian, Inc.),
 the Gaussian 92(TM) system (copyright 1992, Gaussian, Inc.),
 the Gaussian 90(TM) system (copyright 1990, Gaussian, Inc.),
 the Gaussian 88(TM) system (copyright 1988, Gaussian, Inc.),
 the Gaussian 86(TM) system (copyright 1986, Carnegie Mellon
 University), and the Gaussian 82(TM) system (copyright 1983,
 Carnegie Mellon University). Gaussian is a federally registered
 trademark of Gaussian, Inc.
  
 This software contains proprietary and confidential information,
 including trade secrets, belonging to Gaussian, Inc.
  
 This software is provided under written license and may be
 used, copied, transmitted, or stored only in accord with that
 written license.
  
 The following legend is applicable only to US Government
 contracts under FAR:
  
                    RESTRICTED RIGHTS LEGEND
  
 Use, reproduction and disclosure by the US Government is
 subject to restrictions as set forth in subparagraphs (a)
 and (c) of the Commercial Computer Software - Restricted
 Rights clause in FAR 52.227-19.
  
 Gaussian, Inc.
 340 Quinnipiac St., Bldg. 40, Wallingford CT 06492
  
  
 ---------------------------------------------------------------
 Warning -- This program may not be used in any manner that
 competes with the business of Gaussian, Inc. or will provide
 assistance to any competitor of Gaussian, Inc.  The licensee
 of this program is prohibited from giving any competitor of
 Gaussian, Inc. access to this program.  By using this program,
 the user acknowledges that Gaussian, Inc. is engaged in the
 business of creating and licensing software in the field of
 computational chemistry and represents and warrants to the
 licensee that it is not a competitor of Gaussian, Inc. and that
 it will not use this program in any manner prohibited above.
 ---------------------------------------------------------------
  

 Cite this work as:
 Gaussian 16, Revision C.01,
 M. J. Frisch, G. W. Trucks, H. B. Schlegel, G. E. Scuseria, 
 M. A. Robb, J. R. Cheeseman, G. Scalmani, V. Barone, 
 G. A. Petersson, H. Nakatsuji, X. Li, M. Caricato, A. V. Marenich, 
 J. Bloino, B. G. Janesko, R. Gomperts, B. Mennucci, H. P. Hratchian, 
 J. V. Ortiz, A. F. Izmaylov, J. L. Sonnenberg, D. Williams-Young, 
 F. Ding, F. Lipparini, F. Egidi, J. Goings, B. Peng, A. Petrone, 
 T. Henderson, D. Ranasinghe, V. G. Zakrzewski, J. Gao, N. Rega, 
 G. Zheng, W. Liang, M. Hada, M. Ehara, K. Toyota, R. Fukuda, 
 J. Hasegawa, M. Ishida, T. Nakajima, Y. Honda, O. Kitao, H. Nakai, 
 T. Vreven, K. Throssell, J. A. Montgomery, Jr., J. E. Peralta, 
 F. Ogliaro, M. J. Bearpark, J. J. Heyd, E. N. Brothers, K. N. Kudin, 
 V. N. Staroverov, T. A. Keith, R. Kobayashi, J. Normand, 
 K. Raghavachari, A. P. Rendell, J. C. Burant, S. S. Iyengar, 
 J. Tomasi, M. Cossi, J. M. Millam, M. Klene, C. Adamo, R. Cammi, 
 J. W. Ochterski, R. L. Martin, K. Morokuma, O. Farkas, 
 J. B. Foresman, and D. J. Fox, Gaussian, Inc., Wallingford CT, 2019.
 
 ******************************************
 Gaussian 16:  ES64L-G16RevC.01  3-Jul-2019
                 1-May-2024 
 ******************************************
 %chk=geometry.chk
 %mem=9GB
 %nprocshared=12
 Will use up to   12 processors via shared memory.
 ----------------------------------------
 #P wB97XD/6-311+G* NoSymm #P Field=X+262
 ----------------------------------------
 1/38=1,172=1/1;
 2/12=2,15=1,17=6,18=5,40=1/2;
 3/5=4,6=6,7=11,11=2,14=1,15=262,25=1,30=1,74=-58/1,2,3;
 4//1;
 5/5=2,38=5/2;
 6/7=2,8=2,9=2,10=2,28=1/1;
 99/5=1,9=1/99;
 Leave Link    1 at Wed May  1 14:27:52 2024, MaxMem=  1207959552 cpu:               5.1 elap:               6.7
 (Enter /software/gaussian/g16-c01/sse4/g16/l101.exe)
 -------
 TitleMe
 -------
 Symbolic Z-matrix:
 Charge =  1 Multiplicity = 1
 C                     0.0295    1.3397    0.0682 
 C                     1.4348    1.2867    0.0064 
 C                     2.1118    0.0511   -0.0054 
 C                     1.4451   -1.1372    0.0312 
 C                    -0.6879    0.1682    0.11 
 H                    -0.4713    2.2984    0.0781 
 H                     2.0273    2.1965   -0.0322 
 H                     1.9897   -2.0764    0.0232 
 H                    -1.7716    0.1804    0.1582 
 N                     3.5864    0.051    -0.0675 
 O                     4.1471   -1.0597   -0.0881 
 O                     4.145     1.1639   -0.0901 
 C                    -0.0236   -1.1458    0.0835 
 H                    -0.4367   -1.8725    0.7889 
 Br                   -0.5359   -1.8697   -1.7408 
 
 ITRead=  0  0  0  0  0  0  0  0  0  0  0  0  0  0  0
 MicOpt= -1 -1 -1 -1 -1 -1 -1 -1 -1 -1 -1 -1 -1 -1 -1
 NAtoms=     15 NQM=       15 NQMF=       0 NMMI=      0 NMMIF=      0
                NMic=       0 NMicF=      0.
                    Isotopes and Nuclear Properties:
 (Nuclear quadrupole moments (NQMom) in fm**2, nuclear magnetic moments (NMagM)
  in nuclear magnetons)

  Atom         1           2           3           4           5           6           7           8           9          10
 IAtWgt=          12          12          12          12          12           1           1           1           1          14
 AtmWgt=  12.0000000  12.0000000  12.0000000  12.0000000  12.0000000   1.0078250   1.0078250   1.0078250   1.0078250  14.0030740
 NucSpn=           0           0           0           0           0           1           1           1           1           2
 AtZEff=  -0.0000000  -0.0000000  -0.0000000  -0.0000000  -0.0000000  -0.0000000  -0.0000000  -0.0000000  -0.0000000  -0.0000000
 NQMom=    0.0000000   0.0000000   0.0000000   0.0000000   0.0000000   0.0000000   0.0000000   0.0000000   0.0000000   2.0440000
 NMagM=    0.0000000   0.0000000   0.0000000   0.0000000   0.0000000   2.7928460   2.7928460   2.7928460   2.7928460   0.4037610
 AtZNuc=   6.0000000   6.0000000   6.0000000   6.0000000   6.0000000   1.0000000   1.0000000   1.0000000   1.0000000   7.0000000

  Atom        11          12          13          14          15
 IAtWgt=          16          16          12           1          79
 AtmWgt=  15.9949146  15.9949146  12.0000000   1.0078250  78.9183361
 NucSpn=           0           0           0           1           3
 AtZEff=  -0.0000000  -0.0000000  -0.0000000  -0.0000000  -0.0000000
 NQMom=    0.0000000   0.0000000   0.0000000   0.0000000  31.3000000
 NMagM=    0.0000000   0.0000000   0.0000000   2.7928460   2.1063990
 AtZNuc=   8.0000000   8.0000000   6.0000000   1.0000000  35.0000000
 Leave Link  101 at Wed May  1 14:27:54 2024, MaxMem=  1207959552 cpu:               1.5 elap:               1.9
 (Enter /software/gaussian/g16-c01/sse4/g16/l202.exe)
                          Input orientation:                          
 ---------------------------------------------------------------------
 Center     Atomic      Atomic             Coordinates (Angstroms)
 Number     Number       Type             X           Y           Z
 ---------------------------------------------------------------------
      1          6           0        0.029500    1.339700    0.068200
      2          6           0        1.434800    1.286700    0.006400
      3          6           0        2.111800    0.051100   -0.005400
      4          6           0        1.445100   -1.137200    0.031200
      5          6           0       -0.687900    0.168200    0.110000
      6          1           0       -0.471300    2.298400    0.078100
      7          1           0        2.027300    2.196500   -0.032200
      8          1           0        1.989700   -2.076400    0.023200
      9          1           0       -1.771600    0.180400    0.158200
     10          7           0        3.586400    0.051000   -0.067500
     11          8           0        4.147100   -1.059700   -0.088100
     12          8           0        4.145000    1.163900   -0.090100
     13          6           0       -0.023600   -1.145800    0.083500
     14          1           0       -0.436700   -1.872500    0.788900
     15         35           0       -0.535900   -1.869700   -1.740800
 ---------------------------------------------------------------------
                    Distance matrix (angstroms):
                    1          2          3          4          5
     1  C    0.000000
     2  C    1.407656   0.000000
     3  C    2.449874   1.408963   0.000000
     4  C    2.853126   2.424049   1.363043   0.000000
     5  C    1.374344   2.401589   2.804523   2.501993   0.000000
     6  H    1.081667   2.159142   3.424870   3.934226   2.141421
     7  H    2.176095   1.086408   2.147231   3.384750   3.392128
     8  H    3.938800   3.408612   2.131193   1.085702   3.495040
     9  H    2.143837   3.395283   3.888995   3.478413   1.084840
    10  N    3.785591   2.482297   1.475907   2.450862   4.279589
    11  O    4.768247   3.587631   2.320164   2.705743   4.992415
    12  O    4.122294   2.714696   2.319353   3.549540   4.938459
    13  C    2.486114   2.837240   2.449573   1.469656   1.472614
    14  H    3.324903   3.754379   3.290289   2.157764   2.165286
    15  Br   3.727252   4.110867   3.702891   2.756973   2.757100
                    6          7          8          9         10
     6  H    0.000000
     7  H    2.503108   0.000000
     8  H    5.019802   4.273425   0.000000
     9  H    2.486588   4.304945   4.388479   0.000000
    10  N    4.640790   2.652397   2.661486   5.364313   0.000000
    11  O    5.712624   3.885809   2.387560   6.052233   1.244373
    12  O    4.756638   2.356750   3.893289   6.002923   1.245428
    13  C    3.473180   3.923079   2.218790   2.195425   3.806210
    14  H    4.231175   4.827242   2.552506   2.528663   4.540772
    15  Br   4.548146   5.101303   3.087568   3.055498   4.845862
                   11         12         13         14         15
    11  O    0.000000
    12  O    2.223602   0.000000
    13  C    4.175117   4.768865   0.000000
    14  H    4.737193   5.566358   1.093770   0.000000
    15  Br   5.031700   5.817075   2.028436   2.531646   0.000000
 Symmetry turned off by external request.
 Stoichiometry    C6H5BrNO2(1+)
 Framework group  C1[X(C6H5BrNO2)]
 Deg. of freedom    39
 Full point group                 C1      NOp   1
 Rotational constants (GHZ):           1.8252210           0.5518633           0.4576002
 Leave Link  202 at Wed May  1 14:27:57 2024, MaxMem=  1207959552 cpu:               1.2 elap:               1.6
 (Enter /software/gaussian/g16-c01/sse4/g16/l301.exe)
 Standard basis: 6-311+G(d) (5D, 7F)
 Ernie: Thresh=  0.10000D-02 Tol=  0.10000D-05 Strict=F.
 The following finite field(s) will be applied:
 An electric field of              0.0262  0.0000  0.0000
   261 basis functions,   443 primitive gaussians,   273 cartesian basis functions
    49 alpha electrons       49 beta electrons
       nuclear repulsion energy       739.2122215416 Hartrees.
 IExCor= 4639 DFT=T Ex+Corr=wB97XD ExCW=0 ScaHFX=  1.000000
 ScaDFX=  1.000000  1.000000  1.000000  1.000000 ScalE2=  1.000000  1.000000
 IRadAn=      5 IRanWt=     -1 IRanGd=            0 ICorTp=0 IEmpDi=121
 HFx  wShort=  0.000000 wLong=  0.200000 cFull=  0.222036 cShort=  0.000000 cLong=  0.777964
 DFx  wShort=  0.000000 wLong=  0.200000 cFull=  0.000000 cShort=  0.000000 cLong=  1.000000
 NAtoms=   15 NActive=   15 NUniq=   15 SFac= 1.00D+00 NAtFMM=   60 NAOKFM=F Big=F
 Integral buffers will be    131072 words long.
 Raffenetti 2 integral format.
 Two-electron integral symmetry is turned off.
 R6Disp:  Grimme-D2 Dispersion energy=       -0.0077368520 Hartrees.
 Nuclear repulsion after empirical dispersion term =      739.2044846896 Hartrees.
 Leave Link  301 at Wed May  1 14:27:58 2024, MaxMem=  1207959552 cpu:               1.0 elap:               1.2
 (Enter /software/gaussian/g16-c01/sse4/g16/l302.exe)
 NPDir=0 NMtPBC=     1 NCelOv=     1 NCel=       1 NClECP=     1 NCelD=      1
         NCelK=      1 NCelE2=     1 NClLst=     1 CellRange=     0.0.
 One-electron integrals computed using PRISM.
 NBasis=   261 RedAO= T EigKep=  2.35D-06  NBF=   261
 NBsUse=   261 1.00D-06 EigRej= -1.00D+00 NBFU=   261
 Precomputing XC quadrature grid using
 IXCGrd= 4 IRadAn=           5 IRanWt=          -1 IRanGd=           0 AccXCQ= 0.00D+00.
 Generated NRdTot=       0 NPtTot=           0 NUsed=           0 NTot=          32
 NSgBfM=   273   273   273   273   273 MxSgAt=    15 MxSgA2=    15.
 Leave Link  302 at Wed May  1 14:28:20 2024, MaxMem=  1207959552 cpu:              21.8 elap:              21.8
 (Enter /software/gaussian/g16-c01/sse4/g16/l303.exe)
 DipDrv:  MaxL=1.
 The nuclear repulsion energy is now       744.1496604946 hartrees.
 Leave Link  303 at Wed May  1 14:28:23 2024, MaxMem=  1207959552 cpu:               3.3 elap:               3.3
 (Enter /software/gaussian/g16-c01/sse4/g16/l401.exe)
 ExpMin= 3.50D-02 ExpMax= 4.40D+05 ExpMxC= 1.51D+04 IAcc=3 IRadAn=         5 AccDes= 0.00D+00
 Harris functional with IExCor= 4639 and IRadAn=       5 diagonalized for initial guess.
 HarFok:  IExCor= 4639 AccDes= 0.00D+00 IRadAn=         5 IDoV= 1 UseB2=F ITyADJ=14
 ICtDFT=  3500011 ScaDFX=  1.000000  1.000000  1.000000  1.000000
 FoFCou: FMM=F IPFlag=           0 FMFlag=      100000 FMFlg1=           0
         NFxFlg=           0 DoJE=T BraDBF=F KetDBF=T FulRan=T
         wScrn=  0.000000 ICntrl=       500 IOpCl=  0 I1Cent=   200000004 NGrid=           0
         NMat0=    1 NMatS0=      1 NMatT0=    0 NMatD0=    1 NMtDS0=    0 NMtDT0=    0
 Symmetry not used in FoFCou.
 Harris En= -2970.70060859964    
 JPrj=0 DoOrth=F DoCkMO=F.
 Leave Link  401 at Wed May  1 14:28:54 2024, MaxMem=  1207959552 cpu:              30.7 elap:              30.7
 (Enter /software/gaussian/g16-c01/sse4/g16/l502.exe)
 Two-electron integral symmetry not used.
 Closed shell SCF:
 Using DIIS extrapolation, IDIIS=  1040.
 NGot=  1207959552 LenX=  1207804877 LenY=  1207729907
 Requested convergence on RMS density matrix=1.00D-08 within 128 cycles.
 Requested convergence on MAX density matrix=1.00D-06.
 Requested convergence on             energy=1.00D-06.
 No special actions if energy rises.
 Fock matrices will be formed incrementally for  20 cycles.

 Cycle   1  Pass 1  IDiag  1:
 FoFJK:  IHMeth= 1 ICntrl=       0 DoSepK=T KAlg= 0 I1Cent=           0 FoldK=F
 IRaf=         1 NMat=       1 IRICut=       1 DoRegI=T DoRafI=F ISym2E= 0 IDoP0=0 IntGTp=1.
 FoFCou: FMM=F IPFlag=           0 FMFlag=      100000 FMFlg1=           0
         NFxFlg=           0 DoJE=T BraDBF=F KetDBF=F FulRan=T
         wScrn=  0.000000 ICntrl=       500 IOpCl=  0 I1Cent=           0 NGrid=           0
         NMat0=    1 NMatS0=      1 NMatT0=    0 NMatD0=    1 NMtDS0=    0 NMtDT0=    0
 Symmetry not used in FoFCou.
 E= -3009.62563315293    
 DIIS: error= 3.21D-01 at cycle   1 NSaved=   1.
 NSaved= 1 IEnMin= 1 EnMin= -3009.62563315293     IErMin= 1 ErrMin= 3.21D-01
 ErrMax= 3.21D-01  0.00D+00 EMaxC= 1.00D-01 BMatC= 1.21D+01 BMatP= 1.21D+01
 IDIUse=3 WtCom= 0.00D+00 WtEn= 1.00D+00
 Coeff-Com:  0.100D+01
 Coeff-En:   0.100D+01
 Coeff:      0.100D+01
 Gap=     0.645 Goal=   None    Shift=    0.000
 GapD=    0.645 DampG=2.000 DampE=0.250 DampFc=0.5000 IDamp=-1.
 Damping current iteration by 5.00D-01
 RMSDP=1.11D-01 MaxDP=1.26D+01              OVMax= 2.90D-01

 Cycle   2  Pass 1  IDiag  1:
 RMSU=  1.32D-02    CP:  6.63D-01
 E= -3010.10459458099     Delta-E=       -0.478961428057 Rises=F Damp=T
 DIIS: error= 1.43D-01 at cycle   2 NSaved=   2.
 NSaved= 2 IEnMin= 2 EnMin= -3010.10459458099     IErMin= 2 ErrMin= 1.43D-01
 ErrMax= 1.43D-01  0.00D+00 EMaxC= 1.00D-01 BMatC= 1.75D+00 BMatP= 1.21D+01
 IDIUse=3 WtCom= 0.00D+00 WtEn= 1.00D+00
 Coeff-Com: -0.394D+00 0.139D+01
 Coeff-En:   0.000D+00 0.100D+01
 Coeff:      0.000D+00 0.100D+01
 Gap=     0.360 Goal=   None    Shift=    0.000
 RMSDP=5.14D-02 MaxDP=5.15D+00 DE=-4.79D-01 OVMax= 1.79D-01

 Cycle   3  Pass 1  IDiag  1:
 RMSU=  1.08D-02    CP:  3.51D-01  1.32D+00
 E= -3010.56905575507     Delta-E=       -0.464461174085 Rises=F Damp=F
 DIIS: error= 7.73D-03 at cycle   3 NSaved=   3.
 NSaved= 3 IEnMin= 3 EnMin= -3010.56905575507     IErMin= 3 ErrMin= 7.73D-03
 ErrMax= 7.73D-03  0.00D+00 EMaxC= 1.00D-01 BMatC= 2.82D-02 BMatP= 1.75D+00
 IDIUse=3 WtCom= 9.23D-01 WtEn= 7.73D-02
 Coeff-Com:  0.191D-01 0.212D-01 0.960D+00
 Coeff-En:   0.000D+00 0.000D+00 0.100D+01
 Coeff:      0.176D-01 0.196D-01 0.963D+00
 Gap=     0.253 Goal=   None    Shift=    0.000
 RMSDP=5.33D-03 MaxDP=3.63D-01 DE=-4.64D-01 OVMax= 5.22D-02

 Cycle   4  Pass 1  IDiag  1:
 RMSU=  5.05D-03    CP:  3.46D-01  1.36D+00  1.13D+00
 E= -3010.56804154248     Delta-E=        0.001014212588 Rises=F Damp=F
 DIIS: error= 1.22D-02 at cycle   4 NSaved=   4.
 NSaved= 4 IEnMin= 3 EnMin= -3010.56905575507     IErMin= 3 ErrMin= 7.73D-03
 ErrMax= 1.22D-02  0.00D+00 EMaxC= 1.00D-01 BMatC= 2.37D-02 BMatP= 2.82D-02
 IDIUse=3 WtCom= 8.78D-01 WtEn= 1.22D-01
 Coeff-Com:  0.192D-01-0.218D-01 0.519D+00 0.484D+00
 Coeff-En:   0.000D+00 0.000D+00 0.517D+00 0.483D+00
 Coeff:      0.169D-01-0.192D-01 0.519D+00 0.484D+00
 Gap=     0.244 Goal=   None    Shift=    0.000
 RMSDP=2.35D-03 MaxDP=2.58D-01 DE= 1.01D-03 OVMax= 3.34D-02

 Cycle   5  Pass 1  IDiag  1:
 RMSU=  1.25D-03    CP:  3.39D-01  1.29D+00  1.23D+00  8.33D-01
 E= -3010.58440510880     Delta-E=       -0.016363566315 Rises=F Damp=F
 DIIS: error= 1.72D-03 at cycle   5 NSaved=   5.
 NSaved= 5 IEnMin= 5 EnMin= -3010.58440510880     IErMin= 5 ErrMin= 1.72D-03
 ErrMax= 1.72D-03  0.00D+00 EMaxC= 1.00D-01 BMatC= 4.89D-04 BMatP= 2.37D-02
 IDIUse=3 WtCom= 9.83D-01 WtEn= 1.72D-02
 Coeff-Com:  0.588D-02-0.769D-02 0.159D+00 0.192D+00 0.651D+00
 Coeff-En:   0.000D+00 0.000D+00 0.000D+00 0.000D+00 0.100D+01
 Coeff:      0.578D-02-0.756D-02 0.156D+00 0.189D+00 0.657D+00
 Gap=     0.241 Goal=   None    Shift=    0.000
 RMSDP=5.62D-04 MaxDP=4.44D-02 DE=-1.64D-02 OVMax= 9.00D-03

 Cycle   6  Pass 1  IDiag  1:
 RMSU=  3.65D-04    CP:  3.38D-01  1.28D+00  1.25D+00  8.24D-01  1.18D+00
 E= -3010.58484671815     Delta-E=       -0.000441609355 Rises=F Damp=F
 DIIS: error= 1.24D-03 at cycle   6 NSaved=   6.
 NSaved= 6 IEnMin= 6 EnMin= -3010.58484671815     IErMin= 6 ErrMin= 1.24D-03
 ErrMax= 1.24D-03  0.00D+00 EMaxC= 1.00D-01 BMatC= 1.69D-04 BMatP= 4.89D-04
 IDIUse=3 WtCom= 9.88D-01 WtEn= 1.24D-02
 Coeff-Com: -0.107D-02 0.793D-03-0.272D-01-0.155D-02 0.381D+00 0.648D+00
 Coeff-En:   0.000D+00 0.000D+00 0.000D+00 0.000D+00 0.000D+00 0.100D+01
 Coeff:     -0.106D-02 0.783D-03-0.269D-01-0.153D-02 0.376D+00 0.653D+00
 Gap=     0.243 Goal=   None    Shift=    0.000
 RMSDP=5.48D-04 MaxDP=3.26D-02 DE=-4.42D-04 OVMax= 8.69D-03

 Cycle   7  Pass 1  IDiag  1:
 RMSU=  1.91D-04    CP:  3.35D-01  1.28D+00  1.26D+00  8.82D-01  1.29D+00
                    CP:  9.32D-01
 E= -3010.58506285572     Delta-E=       -0.000216137566 Rises=F Damp=F
 DIIS: error= 4.52D-04 at cycle   7 NSaved=   7.
 NSaved= 7 IEnMin= 7 EnMin= -3010.58506285572     IErMin= 7 ErrMin= 4.52D-04
 ErrMax= 4.52D-04  0.00D+00 EMaxC= 1.00D-01 BMatC= 2.93D-05 BMatP= 1.69D-04
 IDIUse=3 WtCom= 9.95D-01 WtEn= 4.52D-03
 Coeff-Com: -0.159D-02 0.174D-02-0.428D-01-0.361D-01 0.874D-01 0.352D+00
 Coeff-Com:  0.639D+00
 Coeff-En:   0.000D+00 0.000D+00 0.000D+00 0.000D+00 0.000D+00 0.000D+00
 Coeff-En:   0.100D+01
 Coeff:     -0.158D-02 0.174D-02-0.426D-01-0.359D-01 0.870D-01 0.351D+00
 Coeff:      0.641D+00
 Gap=     0.244 Goal=   None    Shift=    0.000
 RMSDP=2.26D-04 MaxDP=1.13D-02 DE=-2.16D-04 OVMax= 5.30D-03

 Cycle   8  Pass 1  IDiag  1:
 RMSU=  7.79D-05    CP:  3.35D-01  1.28D+00  1.27D+00  9.11D-01  1.34D+00
                    CP:  1.03D+00  1.35D+00
 E= -3010.58511468670     Delta-E=       -0.000051830978 Rises=F Damp=F
 DIIS: error= 2.40D-04 at cycle   8 NSaved=   8.
 NSaved= 8 IEnMin= 8 EnMin= -3010.58511468670     IErMin= 8 ErrMin= 2.40D-04
 ErrMax= 2.40D-04  0.00D+00 EMaxC= 1.00D-01 BMatC= 5.39D-06 BMatP= 2.93D-05
 IDIUse=3 WtCom= 9.98D-01 WtEn= 2.40D-03
 Coeff-Com: -0.413D-03 0.472D-03-0.140D-01-0.182D-01-0.717D-01-0.256D-01
 Coeff-Com:  0.310D+00 0.819D+00
 Coeff-En:   0.000D+00 0.000D+00 0.000D+00 0.000D+00 0.000D+00 0.000D+00
 Coeff-En:   0.000D+00 0.100D+01
 Coeff:     -0.412D-03 0.471D-03-0.139D-01-0.182D-01-0.715D-01-0.255D-01
 Coeff:      0.310D+00 0.819D+00
 Gap=     0.243 Goal=   None    Shift=    0.000
 RMSDP=1.45D-04 MaxDP=1.11D-02 DE=-5.18D-05 OVMax= 3.92D-03

 Cycle   9  Pass 1  IDiag  1:
 RMSU=  5.74D-05    CP:  3.35D-01  1.28D+00  1.28D+00  9.15D-01  1.38D+00
                    CP:  1.15D+00  1.74D+00  1.21D+00
 E= -3010.58513276957     Delta-E=       -0.000018082875 Rises=F Damp=F
 DIIS: error= 4.49D-05 at cycle   9 NSaved=   9.
 NSaved= 9 IEnMin= 9 EnMin= -3010.58513276957     IErMin= 9 ErrMin= 4.49D-05
 ErrMax= 4.49D-05  0.00D+00 EMaxC= 1.00D-01 BMatC= 1.01D-06 BMatP= 5.39D-06
 IDIUse=1 WtCom= 1.00D+00 WtEn= 0.00D+00
 Coeff-Com:  0.976D-04-0.543D-04 0.248D-02-0.102D-02-0.479D-01-0.785D-01
 Coeff-Com:  0.236D-01 0.374D+00 0.727D+00
 Coeff:      0.976D-04-0.543D-04 0.248D-02-0.102D-02-0.479D-01-0.785D-01
 Coeff:      0.236D-01 0.374D+00 0.727D+00
 Gap=     0.243 Goal=   None    Shift=    0.000
 RMSDP=6.14D-05 MaxDP=3.54D-03 DE=-1.81D-05 OVMax= 1.53D-03

 Cycle  10  Pass 1  IDiag  1:
 RMSU=  2.00D-05    CP:  3.35D-01  1.28D+00  1.28D+00  9.20D-01  1.38D+00
                    CP:  1.16D+00  1.96D+00  1.45D+00  1.30D+00
 E= -3010.58513616039     Delta-E=       -0.000003390816 Rises=F Damp=F
 DIIS: error= 2.00D-05 at cycle  10 NSaved=  10.
 NSaved=10 IEnMin=10 EnMin= -3010.58513616039     IErMin=10 ErrMin= 2.00D-05
 ErrMax= 2.00D-05  0.00D+00 EMaxC= 1.00D-01 BMatC= 1.16D-07 BMatP= 1.01D-06
 IDIUse=1 WtCom= 1.00D+00 WtEn= 0.00D+00
 Coeff-Com:  0.634D-04-0.198D-04 0.340D-02 0.350D-02 0.528D-02-0.131D-01
 Coeff-Com: -0.583D-01-0.877D-01 0.676D-01 0.108D+01
 Coeff:      0.634D-04-0.198D-04 0.340D-02 0.350D-02 0.528D-02-0.131D-01
 Coeff:     -0.583D-01-0.877D-01 0.676D-01 0.108D+01
 Gap=     0.243 Goal=   None    Shift=    0.000
 RMSDP=4.00D-05 MaxDP=2.25D-03 DE=-3.39D-06 OVMax= 1.08D-03

 Cycle  11  Pass 1  IDiag  1:
 RMSU=  7.45D-06    CP:  3.35D-01  1.28D+00  1.28D+00  9.20D-01  1.38D+00
                    CP:  1.16D+00  2.11D+00  1.62D+00  1.57D+00  1.61D+00
 E= -3010.58513716584     Delta-E=       -0.000001005451 Rises=F Damp=F
 DIIS: error= 1.06D-05 at cycle  11 NSaved=  11.
 NSaved=11 IEnMin=11 EnMin= -3010.58513716584     IErMin=11 ErrMin= 1.06D-05
 ErrMax= 1.06D-05  0.00D+00 EMaxC= 1.00D-01 BMatC= 4.20D-08 BMatP= 1.16D-07
 IDIUse=1 WtCom= 1.00D+00 WtEn= 0.00D+00
 Coeff-Com:  0.133D-04-0.333D-04 0.260D-03 0.110D-02 0.110D-01 0.119D-01
 Coeff-Com: -0.146D-01-0.902D-01-0.159D+00 0.371D+00 0.869D+00
 Coeff:      0.133D-04-0.333D-04 0.260D-03 0.110D-02 0.110D-01 0.119D-01
 Coeff:     -0.146D-01-0.902D-01-0.159D+00 0.371D+00 0.869D+00
 Gap=     0.243 Goal=   None    Shift=    0.000
 RMSDP=1.81D-05 MaxDP=1.23D-03 DE=-1.01D-06 OVMax= 4.40D-04

 Cycle  12  Pass 1  IDiag  1:
 RMSU=  3.42D-06    CP:  3.35D-01  1.28D+00  1.28D+00  9.20D-01  1.37D+00
                    CP:  1.16D+00  2.17D+00  1.67D+00  1.68D+00  2.01D+00
                    CP:  1.28D+00
 E= -3010.58513738513     Delta-E=       -0.000000219289 Rises=F Damp=F
 DIIS: error= 4.64D-06 at cycle  12 NSaved=  12.
 NSaved=12 IEnMin=12 EnMin= -3010.58513738513     IErMin=12 ErrMin= 4.64D-06
 ErrMax= 4.64D-06  0.00D+00 EMaxC= 1.00D-01 BMatC= 7.70D-09 BMatP= 4.20D-08
 IDIUse=1 WtCom= 1.00D+00 WtEn= 0.00D+00
 Coeff-Com: -0.294D-05-0.164D-04-0.530D-03-0.262D-03 0.178D-02 0.510D-02
 Coeff-Com:  0.792D-02-0.108D-01-0.747D-01-0.949D-01 0.229D+00 0.938D+00
 Coeff:     -0.294D-05-0.164D-04-0.530D-03-0.262D-03 0.178D-02 0.510D-02
 Coeff:      0.792D-02-0.108D-01-0.747D-01-0.949D-01 0.229D+00 0.938D+00
 Gap=     0.243 Goal=   None    Shift=    0.000
 RMSDP=8.02D-06 MaxDP=5.60D-04 DE=-2.19D-07 OVMax= 2.90D-04

 Cycle  13  Pass 1  IDiag  1:
 RMSU=  1.74D-06    CP:  3.35D-01  1.28D+00  1.28D+00  9.21D-01  1.38D+00
                    CP:  1.16D+00  2.19D+00  1.69D+00  1.73D+00  2.19D+00
                    CP:  1.52D+00  1.39D+00
 E= -3010.58513744901     Delta-E=       -0.000000063884 Rises=F Damp=F
 DIIS: error= 2.36D-06 at cycle  13 NSaved=  13.
 NSaved=13 IEnMin=13 EnMin= -3010.58513744901     IErMin=13 ErrMin= 2.36D-06
 ErrMax= 2.36D-06  0.00D+00 EMaxC= 1.00D-01 BMatC= 2.25D-09 BMatP= 7.70D-09
 IDIUse=1 WtCom= 1.00D+00 WtEn= 0.00D+00
 Coeff-Com: -0.115D-04 0.211D-04-0.199D-03-0.349D-03-0.277D-02-0.256D-02
 Coeff-Com:  0.625D-02 0.253D-01 0.312D-01-0.110D+00-0.248D+00 0.240D+00
 Coeff-Com:  0.106D+01
 Coeff:     -0.115D-04 0.211D-04-0.199D-03-0.349D-03-0.277D-02-0.256D-02
 Coeff:      0.625D-02 0.253D-01 0.312D-01-0.110D+00-0.248D+00 0.240D+00
 Coeff:      0.106D+01
 Gap=     0.243 Goal=   None    Shift=    0.000
 RMSDP=5.60D-06 MaxDP=3.40D-04 DE=-6.39D-08 OVMax= 1.75D-04

 Cycle  14  Pass 1  IDiag  1:
 RMSU=  1.44D-06    CP:  3.35D-01  1.28D+00  1.28D+00  9.21D-01  1.37D+00
                    CP:  1.16D+00  2.21D+00  1.69D+00  1.72D+00  2.26D+00
                    CP:  1.62D+00  1.84D+00  1.31D+00
 E= -3010.58513746622     Delta-E=       -0.000000017209 Rises=F Damp=F
 DIIS: error= 1.35D-06 at cycle  14 NSaved=  14.
 NSaved=14 IEnMin=14 EnMin= -3010.58513746622     IErMin=14 ErrMin= 1.35D-06
 ErrMax= 1.35D-06  0.00D+00 EMaxC= 1.00D-01 BMatC= 3.63D-10 BMatP= 2.25D-09
 IDIUse=1 WtCom= 1.00D+00 WtEn= 0.00D+00
 Coeff-Com: -0.585D-05 0.145D-04 0.210D-05-0.789D-04-0.116D-02-0.159D-02
 Coeff-Com:  0.102D-02 0.103D-01 0.217D-01-0.217D-01-0.137D+00-0.636D-01
 Coeff-Com:  0.327D+00 0.865D+00
 Coeff:     -0.585D-05 0.145D-04 0.210D-05-0.789D-04-0.116D-02-0.159D-02
 Coeff:      0.102D-02 0.103D-01 0.217D-01-0.217D-01-0.137D+00-0.636D-01
 Coeff:      0.327D+00 0.865D+00
 Gap=     0.243 Goal=   None    Shift=    0.000
 RMSDP=2.13D-06 MaxDP=1.10D-04 DE=-1.72D-08 OVMax= 6.68D-05

 Cycle  15  Pass 1  IDiag  1:
 RMSU=  3.32D-07    CP:  3.35D-01  1.28D+00  1.28D+00  9.21D-01  1.37D+00
                    CP:  1.16D+00  2.21D+00  1.70D+00  1.72D+00  2.28D+00
                    CP:  1.65D+00  2.01D+00  1.52D+00  1.38D+00
 E= -3010.58513746859     Delta-E=       -0.000000002373 Rises=F Damp=F
 DIIS: error= 7.19D-07 at cycle  15 NSaved=  15.
 NSaved=15 IEnMin=15 EnMin= -3010.58513746859     IErMin=15 ErrMin= 7.19D-07
 ErrMax= 7.19D-07  0.00D+00 EMaxC= 1.00D-01 BMatC= 6.78D-11 BMatP= 3.63D-10
 IDIUse=1 WtCom= 1.00D+00 WtEn= 0.00D+00
 Coeff-Com:  0.232D-05-0.399D-05 0.426D-04 0.656D-04 0.334D-03 0.192D-03
 Coeff-Com: -0.121D-02-0.379D-02-0.428D-02 0.228D-01 0.340D-01-0.532D-01
 Coeff-Com: -0.206D+00 0.211D+00 0.100D+01
 Coeff:      0.232D-05-0.399D-05 0.426D-04 0.656D-04 0.334D-03 0.192D-03
 Coeff:     -0.121D-02-0.379D-02-0.428D-02 0.228D-01 0.340D-01-0.532D-01
 Coeff:     -0.206D+00 0.211D+00 0.100D+01
 Gap=     0.243 Goal=   None    Shift=    0.000
 RMSDP=5.79D-07 MaxDP=4.53D-05 DE=-2.37D-09 OVMax= 2.43D-05

 Cycle  16  Pass 1  IDiag  1:
 RMSU=  1.57D-07    CP:  3.35D-01  1.28D+00  1.28D+00  9.21D-01  1.37D+00
                    CP:  1.16D+00  2.21D+00  1.70D+00  1.72D+00  2.28D+00
                    CP:  1.64D+00  2.05D+00  1.59D+00  1.62D+00  1.27D+00
 E= -3010.58513746886     Delta-E=       -0.000000000270 Rises=F Damp=F
 DIIS: error= 1.43D-07 at cycle  16 NSaved=  16.
 NSaved=16 IEnMin=16 EnMin= -3010.58513746886     IErMin=16 ErrMin= 1.43D-07
 ErrMax= 1.43D-07  0.00D+00 EMaxC= 1.00D-01 BMatC= 5.82D-12 BMatP= 6.78D-11
 IDIUse=1 WtCom= 1.00D+00 WtEn= 0.00D+00
 Coeff-Com:  0.114D-05-0.252D-05 0.728D-05 0.222D-04 0.221D-03 0.236D-03
 Coeff-Com: -0.347D-03-0.200D-02-0.371D-02 0.726D-02 0.238D-01-0.455D-02
 Coeff-Com: -0.865D-01-0.557D-01 0.181D+00 0.941D+00
 Coeff:      0.114D-05-0.252D-05 0.728D-05 0.222D-04 0.221D-03 0.236D-03
 Coeff:     -0.347D-03-0.200D-02-0.371D-02 0.726D-02 0.238D-01-0.455D-02
 Coeff:     -0.865D-01-0.557D-01 0.181D+00 0.941D+00
 Gap=     0.243 Goal=   None    Shift=    0.000
 RMSDP=2.98D-07 MaxDP=2.07D-05 DE=-2.70D-10 OVMax= 7.53D-06

 Cycle  17  Pass 1  IDiag  1:
 RMSU=  5.19D-08    CP:  3.35D-01  1.28D+00  1.28D+00  9.21D-01  1.37D+00
                    CP:  1.16D+00  2.21D+00  1.70D+00  1.72D+00  2.29D+00
                    CP:  1.64D+00  2.06D+00  1.59D+00  1.70D+00  1.46D+00
                    CP:  1.24D+00
 E= -3010.58513746894     Delta-E=       -0.000000000073 Rises=F Damp=F
 DIIS: error= 6.15D-08 at cycle  17 NSaved=  17.
 NSaved=17 IEnMin=17 EnMin= -3010.58513746894     IErMin=17 ErrMin= 6.15D-08
 ErrMax= 6.15D-08  0.00D+00 EMaxC= 1.00D-01 BMatC= 1.05D-12 BMatP= 5.82D-12
 IDIUse=1 WtCom= 1.00D+00 WtEn= 0.00D+00
 Coeff-Com: -0.134D-06 0.178D-06-0.310D-05-0.271D-05 0.953D-05 0.211D-04
 Coeff-Com:  0.736D-04 0.807D-04-0.265D-03-0.110D-02 0.565D-03 0.518D-02
 Coeff-Com:  0.766D-02-0.324D-01-0.703D-01 0.213D+00 0.878D+00
 Coeff:     -0.134D-06 0.178D-06-0.310D-05-0.271D-05 0.953D-05 0.211D-04
 Coeff:      0.736D-04 0.807D-04-0.265D-03-0.110D-02 0.565D-03 0.518D-02
 Coeff:      0.766D-02-0.324D-01-0.703D-01 0.213D+00 0.878D+00
 Gap=     0.243 Goal=   None    Shift=    0.000
 RMSDP=5.62D-08 MaxDP=2.65D-06 DE=-7.28D-11 OVMax= 1.79D-06

 Cycle  18  Pass 1  IDiag  1:
 RMSU=  1.98D-08    CP:  3.35D-01  1.28D+00  1.28D+00  9.21D-01  1.37D+00
                    CP:  1.16D+00  2.21D+00  1.70D+00  1.72D+00  2.29D+00
                    CP:  1.64D+00  2.06D+00  1.58D+00  1.70D+00  1.48D+00
                    CP:  1.38D+00  1.35D+00
 E= -3010.58513746898     Delta-E=       -0.000000000045 Rises=F Damp=F
 DIIS: error= 2.37D-08 at cycle  18 NSaved=  18.
 NSaved=18 IEnMin=18 EnMin= -3010.58513746898     IErMin=18 ErrMin= 2.37D-08
 ErrMax= 2.37D-08  0.00D+00 EMaxC= 1.00D-01 BMatC= 3.06D-13 BMatP= 1.05D-12
 IDIUse=1 WtCom= 1.00D+00 WtEn= 0.00D+00
 Coeff-Com: -0.243D-06 0.522D-06-0.180D-05-0.456D-05-0.433D-04-0.496D-04
 Coeff-Com:  0.881D-04 0.444D-03 0.674D-03-0.173D-02-0.493D-02 0.253D-02
 Coeff-Com:  0.208D-01-0.908D-03-0.589D-01-0.167D+00 0.218D+00 0.991D+00
 Coeff:     -0.243D-06 0.522D-06-0.180D-05-0.456D-05-0.433D-04-0.496D-04
 Coeff:      0.881D-04 0.444D-03 0.674D-03-0.173D-02-0.493D-02 0.253D-02
 Coeff:      0.208D-01-0.908D-03-0.589D-01-0.167D+00 0.218D+00 0.991D+00
 Gap=     0.243 Goal=   None    Shift=    0.000
 RMSDP=4.19D-08 MaxDP=2.72D-06 DE=-4.55D-11 OVMax= 1.41D-06

 Cycle  19  Pass 1  IDiag  1:
 RMSU=  8.79D-09    CP:  3.35D-01  1.28D+00  1.28D+00  9.21D-01  1.37D+00
                    CP:  1.16D+00  2.21D+00  1.70D+00  1.72D+00  2.29D+00
                    CP:  1.64D+00  2.07D+00  1.58D+00  1.71D+00  1.51D+00
                    CP:  1.46D+00  1.68D+00  1.67D+00
 E= -3010.58513746898     Delta-E=        0.000000000000 Rises=F Damp=F
 DIIS: error= 1.18D-08 at cycle  19 NSaved=  19.
 NSaved=19 IEnMin=18 EnMin= -3010.58513746898     IErMin=19 ErrMin= 1.18D-08
 ErrMax= 1.18D-08  0.00D+00 EMaxC= 1.00D-01 BMatC= 5.27D-14 BMatP= 3.06D-13
 IDIUse=1 WtCom= 1.00D+00 WtEn= 0.00D+00
 Coeff-Com:  0.214D-08 0.758D-08 0.312D-06 0.439D-06-0.158D-05-0.558D-05
 Coeff-Com: -0.165D-04-0.730D-05 0.379D-04 0.334D-03-0.306D-03-0.127D-02
 Coeff-Com: -0.745D-03 0.487D-02 0.161D-01-0.442D-01-0.176D+00 0.179D-01
 Coeff-Com:  0.118D+01
 Coeff:      0.214D-08 0.758D-08 0.312D-06 0.439D-06-0.158D-05-0.558D-05
 Coeff:     -0.165D-04-0.730D-05 0.379D-04 0.334D-03-0.306D-03-0.127D-02
 Coeff:     -0.745D-03 0.487D-02 0.161D-01-0.442D-01-0.176D+00 0.179D-01
 Coeff:      0.118D+01
 Gap=     0.243 Goal=   None    Shift=    0.000
 RMSDP=3.69D-08 MaxDP=2.07D-06 DE= 0.00D+00 OVMax= 8.89D-07

 Cycle  20  Pass 1  IDiag  1:
 RMSU=  4.72D-09    CP:  3.35D-01  1.28D+00  1.28D+00  9.21D-01  1.37D+00
                    CP:  1.16D+00  2.21D+00  1.70D+00  1.72D+00  2.29D+00
                    CP:  1.64D+00  2.07D+00  1.58D+00  1.72D+00  1.52D+00
                    CP:  1.49D+00  1.86D+00  2.11D+00  1.44D+00
 E= -3010.58513746897     Delta-E=        0.000000000014 Rises=F Damp=F
 DIIS: error= 5.82D-09 at cycle  20 NSaved=  20.
 NSaved=20 IEnMin=18 EnMin= -3010.58513746898     IErMin=20 ErrMin= 5.82D-09
 ErrMax= 5.82D-09  0.00D+00 EMaxC= 1.00D-01 BMatC= 1.36D-14 BMatP= 5.27D-14
 IDIUse=1 WtCom= 1.00D+00 WtEn= 0.00D+00
 Coeff-Com:  0.476D-07-0.101D-06 0.454D-06 0.122D-05 0.102D-04 0.108D-04
 Coeff-Com: -0.239D-04-0.108D-03-0.164D-03 0.483D-03 0.105D-02-0.936D-03
 Coeff-Com: -0.473D-02 0.108D-02 0.192D-01 0.331D-01-0.104D+00-0.238D+00
 Coeff-Com:  0.291D+00 0.100D+01
 Coeff:      0.476D-07-0.101D-06 0.454D-06 0.122D-05 0.102D-04 0.108D-04
 Coeff:     -0.239D-04-0.108D-03-0.164D-03 0.483D-03 0.105D-02-0.936D-03
 Coeff:     -0.473D-02 0.108D-02 0.192D-01 0.331D-01-0.104D+00-0.238D+00
 Coeff:      0.291D+00 0.100D+01
 Gap=     0.243 Goal=   None    Shift=    0.000
 RMSDP=1.88D-08 MaxDP=1.02D-06 DE= 1.36D-11 OVMax= 4.15D-07

 Cycle  21  Pass 1  IDiag  1:
 Restarting incremental Fock formation.
 E= -3010.58513746898     Delta-E=       -0.000000000015 Rises=F Damp=F
 DIIS: error= 2.08D-09 at cycle  21 NSaved=  20.
 NSaved=20 IEnMin=20 EnMin= -3010.58513746898     IErMin=20 ErrMin= 2.08D-09
 ErrMax= 2.08D-09  0.00D+00 EMaxC= 1.00D-01 BMatC= 1.13D-15 BMatP= 1.36D-14
 IDIUse=1 WtCom= 1.00D+00 WtEn= 0.00D+00
 Large coefficients: NSaved= 20 BigCof=    0.00 CofMax=   10.00 Det=-4.63D-15
 Inversion failed.  Reducing to 19 matrices.
 Large coefficients: NSaved= 19 BigCof=    0.00 CofMax=   10.00 Det=-5.25D-15
 Inversion failed.  Reducing to 18 matrices.
 Large coefficients: NSaved= 18 BigCof=    0.00 CofMax=   10.00 Det=-5.46D-15
 Inversion failed.  Reducing to 17 matrices.
 Large coefficients: NSaved= 17 BigCof=    0.00 CofMax=   10.00 Det=-5.69D-15
 Inversion failed.  Reducing to 16 matrices.
 Large coefficients: NSaved= 16 BigCof=    0.00 CofMax=   10.00 Det=-5.69D-15
 Inversion failed.  Reducing to 15 matrices.
 Coeff-Com:  0.194D-05 0.114D-05-0.523D-05-0.169D-04 0.425D-04 0.125D-03
 Coeff-Com:  0.616D-04-0.783D-03-0.162D-02 0.670D-02 0.132D-01-0.812D-02
 Coeff-Com: -0.143D+00 0.552D-01 0.108D+01
 Coeff:      0.194D-05 0.114D-05-0.523D-05-0.169D-04 0.425D-04 0.125D-03
 Coeff:      0.616D-04-0.783D-03-0.162D-02 0.670D-02 0.132D-01-0.812D-02
 Coeff:     -0.143D+00 0.552D-01 0.108D+01
 Gap=     0.243 Goal=   None    Shift=    0.000
 RMSDP=6.25D-09 MaxDP=3.84D-07 DE=-1.46D-11 OVMax= 1.46D-07

 SCF Done:  E(RwB97XD) =  -3010.58513747     A.U. after   21 cycles
            NFock= 21  Conv=0.63D-08     -V/T= 2.0016
 KE= 3.005822365791D+03 PE=-8.636519957636D+03 EE= 1.875962793882D+03
 Leave Link  502 at Wed May  1 14:49:27 2024, MaxMem=  1207959552 cpu:            1232.1 elap:            1232.1
 (Enter /software/gaussian/g16-c01/sse4/g16/l601.exe)
 Copying SCF densities to generalized density rwf, IOpCl= 0 IROHF=0.

 **********************************************************************

            Population analysis using the SCF Density.

 **********************************************************************

 Alpha  occ. eigenvalues -- -483.33481 -62.88453 -56.68183 -56.67571 -56.67552
 Alpha  occ. eigenvalues --  -19.59031 -19.58937 -14.98066 -10.63646 -10.62522
 Alpha  occ. eigenvalues --  -10.61666 -10.60666 -10.59622 -10.55777  -9.04220
 Alpha  occ. eigenvalues --   -6.86989  -6.84993  -6.84927  -2.96870  -2.96355
 Alpha  occ. eigenvalues --   -2.96302  -2.94706  -2.94706  -1.62732  -1.45851
 Alpha  occ. eigenvalues --   -1.27632  -1.19408  -1.15642  -1.08963  -1.06691
 Alpha  occ. eigenvalues --   -0.99346  -0.97475  -0.94149  -0.92496  -0.91106
 Alpha  occ. eigenvalues --   -0.86524  -0.83642  -0.81460  -0.79900  -0.76181
 Alpha  occ. eigenvalues --   -0.72429  -0.71203  -0.70441  -0.69888  -0.69119
 Alpha  occ. eigenvalues --   -0.67652  -0.63405  -0.57792  -0.57367
 Alpha virt. eigenvalues --   -0.33048  -0.32355  -0.20357  -0.19740  -0.17369
 Alpha virt. eigenvalues --   -0.16285  -0.14657  -0.13391  -0.12320  -0.10529
 Alpha virt. eigenvalues --   -0.08461  -0.07929  -0.06677  -0.06291  -0.05570
 Alpha virt. eigenvalues --   -0.05433  -0.04679  -0.03383  -0.02339  -0.01796
 Alpha virt. eigenvalues --   -0.00565  -0.00164   0.00329   0.00831   0.01421
 Alpha virt. eigenvalues --    0.01940   0.02089   0.02783   0.03641   0.04366
 Alpha virt. eigenvalues --    0.05493   0.06094   0.06713   0.07496   0.07853
 Alpha virt. eigenvalues --    0.08727   0.08904   0.09008   0.10430   0.10516
 Alpha virt. eigenvalues --    0.10883   0.11387   0.12057   0.13173   0.13844
 Alpha virt. eigenvalues --    0.15476   0.16215   0.16944   0.17604   0.18350
 Alpha virt. eigenvalues --    0.19231   0.21141   0.21515   0.22491   0.24228
 Alpha virt. eigenvalues --    0.26490   0.28275   0.29488   0.30928   0.31390
 Alpha virt. eigenvalues --    0.32975   0.33499   0.35176   0.36189   0.38152
 Alpha virt. eigenvalues --    0.39277   0.39729   0.40502   0.40851   0.42565
 Alpha virt. eigenvalues --    0.43619   0.44416   0.47715   0.47823   0.48883
 Alpha virt. eigenvalues --    0.49691   0.51491   0.52727   0.53673   0.54724
 Alpha virt. eigenvalues --    0.58309   0.60907   0.61188   0.62186   0.63473
 Alpha virt. eigenvalues --    0.65431   0.67041   0.69224   0.70142   0.70751
 Alpha virt. eigenvalues --    0.71423   0.72845   0.74325   0.74879   0.79908
 Alpha virt. eigenvalues --    0.81792   0.82338   0.84879   0.85174   0.87632
 Alpha virt. eigenvalues --    0.88369   0.93710   0.96182   0.97277   0.98822
 Alpha virt. eigenvalues --    0.99496   1.00951   1.02982   1.03185   1.06431
 Alpha virt. eigenvalues --    1.09393   1.16540   1.19712   1.28878   1.31781
 Alpha virt. eigenvalues --    1.32824   1.33480   1.41224   1.46437   1.48116
 Alpha virt. eigenvalues --    1.48386   1.51141   1.56284   1.57261   1.62004
 Alpha virt. eigenvalues --    1.63041   1.63955   1.65781   1.69822   1.74403
 Alpha virt. eigenvalues --    1.77843   1.80245   1.82146   1.88442   1.92438
 Alpha virt. eigenvalues --    1.93863   1.94272   1.97508   2.03264   2.04007
 Alpha virt. eigenvalues --    2.06013   2.10566   2.13527   2.16862   2.25387
 Alpha virt. eigenvalues --    2.29482   2.33108   2.37533   2.40244   2.47477
 Alpha virt. eigenvalues --    2.52954   2.56748   2.57636   2.61062   2.62299
 Alpha virt. eigenvalues --    2.63566   2.65199   2.68409   2.71396   2.78002
 Alpha virt. eigenvalues --    2.87181   2.90708   2.92012   3.00964   3.02924
 Alpha virt. eigenvalues --    3.05753   3.09673   3.13199   3.13823   3.15548
 Alpha virt. eigenvalues --    3.19550   3.29930   3.41984   3.43490   3.45272
 Alpha virt. eigenvalues --    3.50121   3.58109   3.61195   3.77760   3.82626
 Alpha virt. eigenvalues --    4.07027   4.07226   4.14435   4.19824   4.30743
 Alpha virt. eigenvalues --    4.40520   4.48076   4.53665   4.79388   4.81927
 Alpha virt. eigenvalues --    4.90616   4.94778   5.49746   6.02104   6.62705
 Alpha virt. eigenvalues --    7.45764   7.47285   7.56951  23.17136  23.56864
 Alpha virt. eigenvalues --   23.66806  23.75273  23.91492  23.96856  35.19924
 Alpha virt. eigenvalues --   47.89026  49.72336  49.81144 289.78296 289.79954
 Alpha virt. eigenvalues --  289.923691020.89363
          Condensed to atoms (all electrons):
               1          2          3          4          5          6
     1  C    8.702731  -3.335916   1.592617  -1.658503  -1.404344   0.281468
     2  C   -3.335916  15.762387  -4.376560  -2.112852   2.118290  -0.002462
     3  C    1.592617  -4.376560  13.761443  -2.691877  -1.812970   0.006360
     4  C   -1.658503  -2.112852  -2.691877  13.415515   1.305638   0.012378
     5  C   -1.404344   2.118290  -1.812970   1.305638   8.093652   0.041755
     6  H    0.281468  -0.002462   0.006360   0.012378   0.041755   0.288935
     7  H    0.062371   0.257719   0.088520  -0.040968  -0.023067  -0.001823
     8  H    0.000120  -0.027858   0.050009   0.272434   0.014089   0.000002
     9  H    0.014920   0.003567  -0.003198  -0.004779   0.316018  -0.001207
    10  N   -0.079780   0.334044  -0.966432   0.195224   0.094924  -0.000212
    11  O    0.031382   0.034719  -0.238729  -0.079292  -0.055062  -0.000007
    12  O    0.182540  -0.064311  -0.246894   0.003997  -0.048312  -0.000096
    13  C    2.136311  -3.144492   1.517730  -2.911347  -2.697652  -0.012819
    14  H    0.015652  -0.034315   0.019470  -0.031008  -0.120363  -0.000061
    15  Br   0.090766   0.005500   0.046893   0.210499   0.077051  -0.000305
               7          8          9         10         11         12
     1  C    0.062371   0.000120   0.014920  -0.079780   0.031382   0.182540
     2  C    0.257719  -0.027858   0.003567   0.334044   0.034719  -0.064311
     3  C    0.088520   0.050009  -0.003198  -0.966432  -0.238729  -0.246894
     4  C   -0.040968   0.272434  -0.004779   0.195224  -0.079292   0.003997
     5  C   -0.023067   0.014089   0.316018   0.094924  -0.055062  -0.048312
     6  H   -0.001823   0.000002  -0.001207  -0.000212  -0.000007  -0.000096
     7  H    0.352009   0.000077   0.000037  -0.033635  -0.002005   0.010454
     8  H    0.000077   0.348600   0.000170  -0.023455   0.010044  -0.001073
     9  H    0.000037   0.000170   0.237626   0.000487   0.000001   0.000008
    10  N   -0.033635  -0.023455   0.000487   7.094473   0.306158   0.284809
    11  O   -0.002005   0.010044   0.000001   0.306158   7.934688  -0.045118
    12  O    0.010454  -0.001073   0.000008   0.284809  -0.045118   7.959337
    13  C    0.012788   0.031179  -0.020209  -0.090757   0.188759   0.053446
    14  H   -0.000006  -0.006222  -0.003409  -0.002689  -0.000034  -0.000083
    15  Br  -0.000438  -0.005233   0.001613  -0.002481   0.002232   0.001900
              13         14         15
     1  C    2.136311   0.015652   0.090766
     2  C   -3.144492  -0.034315   0.005500
     3  C    1.517730   0.019470   0.046893
     4  C   -2.911347  -0.031008   0.210499
     5  C   -2.697652  -0.120363   0.077051
     6  H   -0.012819  -0.000061  -0.000305
     7  H    0.012788  -0.000006  -0.000438
     8  H    0.031179  -0.006222  -0.005233
     9  H   -0.020209  -0.003409   0.001613
    10  N   -0.090757  -0.002689  -0.002481
    11  O    0.188759  -0.000034   0.002232
    12  O    0.053446  -0.000083   0.001900
    13  C   11.137123   0.441382  -0.228581
    14  H    0.441382   0.306795  -0.033461
    15  Br  -0.228581  -0.033461  34.501171
 Mulliken charges:
               1
     1  C   -0.632334
     2  C    0.582539
     3  C   -0.746382
     4  C    0.114942
     5  C    0.100355
     6  H    0.388094
     7  H    0.317967
     8  H    0.337118
     9  H    0.458355
    10  N   -0.110679
    11  O   -0.087735
    12  O   -0.090604
    13  C   -0.412861
    14  H    0.448351
    15  Br   0.332874
 Sum of Mulliken charges =   1.00000
 Mulliken charges with hydrogens summed into heavy atoms:
               1
     1  C   -0.244240
     2  C    0.900506
     3  C   -0.746382
     4  C    0.452060
     5  C    0.558711
    10  N   -0.110679
    11  O   -0.087735
    12  O   -0.090604
    13  C    0.035490
    15  Br   0.332874
 Electronic spatial extent (au):  <R**2>=           2811.6549
 Charge=              1.0000 electrons
 Dipole moment (field-independent basis, Debye):
    X=             -9.0086    Y=             -1.5623    Z=             -0.7207  Tot=              9.1714
 Quadrupole moment (field-independent basis, Debye-Ang):
   XX=            -91.8001   YY=            -51.1858   ZZ=            -60.7329
   XY=              2.4589   XZ=              3.2093   YZ=              3.6133
 Traceless Quadrupole moment (field-independent basis, Debye-Ang):
   XX=            -23.8938   YY=             16.7204   ZZ=              7.1734
   XY=              2.4589   XZ=              3.2093   YZ=              3.6133
 Octapole moment (field-independent basis, Debye-Ang**2):
  XXX=           -416.6054  YYY=             80.9896  ZZZ=             72.2568  XYY=            -95.4309
  XXY=             26.3797  XXZ=             31.8508  XZZ=            -87.3699  YZZ=             11.4048
  YYZ=             21.0777  XYZ=             -7.1722
 Hexadecapole moment (field-independent basis, Debye-Ang**3):
 XXXX=          -2796.1731 YYYY=           -663.2447 ZZZZ=           -333.2182 XXXY=            -68.0337
 XXXZ=             -7.6812 YYYX=            -51.4973 YYYZ=           -142.9601 ZZZX=             -7.5316
 ZZZY=           -123.9241 XXYY=           -495.8956 XXZZ=           -379.7248 YYZZ=           -152.9044
 XXYZ=            -49.9114 YYXZ=              7.0588 ZZXY=             -0.8832
 N-N= 7.441496604946D+02 E-N=-8.636519957541D+03  KE= 3.005822365791D+03
 No NMR shielding tensors so no spin-rotation constants.
 Leave Link  601 at Wed May  1 14:49:34 2024, MaxMem=  1207959552 cpu:               7.3 elap:               7.3
 (Enter /software/gaussian/g16-c01/sse4/g16/l9999.exe)
 Unable to Open any file for archive entry.
 1\1\GINC-BHX0030\SP\RwB97XD\6-311+G(d)\C6H5Br1N1O2(1+)\BWEIGHT\01-May-
 2024\0\\#P wB97XD/6-311+G* NoSymm #P Field=X+262\\TitleMe\\1,1\C,0,0.0
 295,1.3397,0.0682\C,0,1.4348,1.2867,0.0064\C,0,2.1118,0.0511,-0.0054\C
 ,0,1.4451,-1.1372,0.0312\C,0,-0.6879,0.1682,0.11\H,0,-0.4713,2.2984,0.
 0781\H,0,2.0273,2.1965,-0.0322\H,0,1.9897,-2.0764,0.0232\H,0,-1.7716,0
 .1804,0.1582\N,0,3.5864,0.051,-0.0675\O,0,4.1471,-1.0597,-0.0881\O,0,4
 .145,1.1639,-0.0901\C,0,-0.0236,-1.1458,0.0835\H,0,-0.4367,-1.8725,0.7
 889\Br,0,-0.5359,-1.8697,-1.7408\\Version=ES64L-G16RevC.01\HF=-3010.58
 51375\RMSD=6.251e-09\Dipole=-5.4507989,0.5334443,0.8626498\Quadrupole=
 -17.764458,12.4312428,5.3332151,1.8281057,2.3860623,2.6863749\PG=C01 [
 X(C6H5Br1N1O2)]\\@
 The archive entry for this job was punched.


 KNOWLEDGE IS OF TWO KINDS:  WE KNOW A SUBJECT OURSELVES OR WE KNOW 
 WHERE WE CAN FIND INFORMATION UPON IT.

                                    -- SAMUEL JOHNSON
 Job cpu time:       0 days  0 hours 21 minutes 44.9 seconds.
 Elapsed time:       0 days  0 hours 21 minutes 47.6 seconds.
 File lengths (MBytes):  RWF=     40 Int=      0 D2E=      0 Chk=     32 Scr=      1
 Normal termination of Gaussian 16 at Wed May  1 14:49:35 2024.
