 Entering Gaussian System, Link 0=g16
 Initial command:
 /software/gaussian/g16-c01/sse4/g16/l1.exe "/local_scratch/24665259/Gau-22239.inp" -scrdir="/local_scratch/24665259/"
 Entering Link 1 = /software/gaussian/g16-c01/sse4/g16/l1.exe PID=     22288.
  
 Copyright (c) 1988-2019, Gaussian, Inc.  All Rights Reserved.
  
 This is part of the Gaussian(R) 16 program.  It is based on
 the Gaussian(R) 09 system (copyright 2009, Gaussian, Inc.),
 the Gaussian(R) 03 system (copyright 2003, Gaussian, Inc.),
 the Gaussian(R) 98 system (copyright 1998, Gaussian, Inc.),
 the Gaussian(R) 94 system (copyright 1995, Gaussian, Inc.),
 the Gaussian 92(TM) system (copyright 1992, Gaussian, Inc.),
 the Gaussian 90(TM) system (copyright 1990, Gaussian, Inc.),
 the Gaussian 88(TM) system (copyright 1988, Gaussian, Inc.),
 the Gaussian 86(TM) system (copyright 1986, Carnegie Mellon
 University), and the Gaussian 82(TM) system (copyright 1983,
 Carnegie Mellon University). Gaussian is a federally registered
 trademark of Gaussian, Inc.
  
 This software contains proprietary and confidential information,
 including trade secrets, belonging to Gaussian, Inc.
  
 This software is provided under written license and may be
 used, copied, transmitted, or stored only in accord with that
 written license.
  
 The following legend is applicable only to US Government
 contracts under FAR:
  
                    RESTRICTED RIGHTS LEGEND
  
 Use, reproduction and disclosure by the US Government is
 subject to restrictions as set forth in subparagraphs (a)
 and (c) of the Commercial Computer Software - Restricted
 Rights clause in FAR 52.227-19.
  
 Gaussian, Inc.
 340 Quinnipiac St., Bldg. 40, Wallingford CT 06492
  
  
 ---------------------------------------------------------------
 Warning -- This program may not be used in any manner that
 competes with the business of Gaussian, Inc. or will provide
 assistance to any competitor of Gaussian, Inc.  The licensee
 of this program is prohibited from giving any competitor of
 Gaussian, Inc. access to this program.  By using this program,
 the user acknowledges that Gaussian, Inc. is engaged in the
 business of creating and licensing software in the field of
 computational chemistry and represents and warrants to the
 licensee that it is not a competitor of Gaussian, Inc. and that
 it will not use this program in any manner prohibited above.
 ---------------------------------------------------------------
  

 Cite this work as:
 Gaussian 16, Revision C.01,
 M. J. Frisch, G. W. Trucks, H. B. Schlegel, G. E. Scuseria, 
 M. A. Robb, J. R. Cheeseman, G. Scalmani, V. Barone, 
 G. A. Petersson, H. Nakatsuji, X. Li, M. Caricato, A. V. Marenich, 
 J. Bloino, B. G. Janesko, R. Gomperts, B. Mennucci, H. P. Hratchian, 
 J. V. Ortiz, A. F. Izmaylov, J. L. Sonnenberg, D. Williams-Young, 
 F. Ding, F. Lipparini, F. Egidi, J. Goings, B. Peng, A. Petrone, 
 T. Henderson, D. Ranasinghe, V. G. Zakrzewski, J. Gao, N. Rega, 
 G. Zheng, W. Liang, M. Hada, M. Ehara, K. Toyota, R. Fukuda, 
 J. Hasegawa, M. Ishida, T. Nakajima, Y. Honda, O. Kitao, H. Nakai, 
 T. Vreven, K. Throssell, J. A. Montgomery, Jr., J. E. Peralta, 
 F. Ogliaro, M. J. Bearpark, J. J. Heyd, E. N. Brothers, K. N. Kudin, 
 V. N. Staroverov, T. A. Keith, R. Kobayashi, J. Normand, 
 K. Raghavachari, A. P. Rendell, J. C. Burant, S. S. Iyengar, 
 J. Tomasi, M. Cossi, J. M. Millam, M. Klene, C. Adamo, R. Cammi, 
 J. W. Ochterski, R. L. Martin, K. Morokuma, O. Farkas, 
 J. B. Foresman, and D. J. Fox, Gaussian, Inc., Wallingford CT, 2019.
 
 ******************************************
 Gaussian 16:  ES64L-G16RevC.01  3-Jul-2019
                 2-May-2024 
 ******************************************
 %chk=geometry.chk
 %mem=1GB
 %nprocshared=12
 Will use up to   12 processors via shared memory.
 ---------------------------------------
 #P wB97XD/6-311+G* NoSymm #P Field=X-38
 ---------------------------------------
 1/38=1,172=1/1;
 2/12=2,15=1,17=6,18=5,40=1/2;
 3/5=4,6=6,7=11,11=2,14=1,15=-38,25=1,30=1,74=-58/1,2,3;
 4//1;
 5/5=2,38=5/2;
 6/7=2,8=2,9=2,10=2,28=1/1;
 99/5=1,9=1/99;
 Leave Link    1 at Thu May  2 13:57:33 2024, MaxMem=   134217728 cpu:               1.6 elap:               1.7
 (Enter /software/gaussian/g16-c01/sse4/g16/l101.exe)
 -------
 TitleMe
 -------
 Symbolic Z-matrix:
 Charge =  1 Multiplicity = 1
 C                     0.5193    1.233    -0.0319 
 C                     1.9445    1.2692   -0.0367 
 C                     2.6204    0.0928   -0.025 
 C                    -0.196     0.0301    0.001 
 H                    -0.0207    2.1742   -0.0434 
 H                     2.4828    2.2089   -0.0361 
 H                    -1.2777    0.0399    0.0117 
 N                     4.0921    0.0959    0.0366 
 O                     4.6393   -1.0217    0.1446 
 O                     4.6649    1.1984   -0.0233 
 C                     0.4943   -1.1671    0.021 
 H                    -0.0325   -2.1149    0.0545 
 C                     1.9629   -1.2165   -0.0211 
 H                     2.4436   -1.9631    0.6151 
 Br                    2.173    -1.9491   -1.9062 
 
 ITRead=  0  0  0  0  0  0  0  0  0  0  0  0  0  0  0
 MicOpt= -1 -1 -1 -1 -1 -1 -1 -1 -1 -1 -1 -1 -1 -1 -1
 NAtoms=     15 NQM=       15 NQMF=       0 NMMI=      0 NMMIF=      0
                NMic=       0 NMicF=      0.
                    Isotopes and Nuclear Properties:
 (Nuclear quadrupole moments (NQMom) in fm**2, nuclear magnetic moments (NMagM)
  in nuclear magnetons)

  Atom         1           2           3           4           5           6           7           8           9          10
 IAtWgt=          12          12          12          12           1           1           1          14          16          16
 AtmWgt=  12.0000000  12.0000000  12.0000000  12.0000000   1.0078250   1.0078250   1.0078250  14.0030740  15.9949146  15.9949146
 NucSpn=           0           0           0           0           1           1           1           2           0           0
 AtZEff=  -0.0000000  -0.0000000  -0.0000000  -0.0000000  -0.0000000  -0.0000000  -0.0000000  -0.0000000  -0.0000000  -0.0000000
 NQMom=    0.0000000   0.0000000   0.0000000   0.0000000   0.0000000   0.0000000   0.0000000   2.0440000   0.0000000   0.0000000
 NMagM=    0.0000000   0.0000000   0.0000000   0.0000000   2.7928460   2.7928460   2.7928460   0.4037610   0.0000000   0.0000000
 AtZNuc=   6.0000000   6.0000000   6.0000000   6.0000000   1.0000000   1.0000000   1.0000000   7.0000000   8.0000000   8.0000000

  Atom        11          12          13          14          15
 IAtWgt=          12           1          12           1          79
 AtmWgt=  12.0000000   1.0078250  12.0000000   1.0078250  78.9183361
 NucSpn=           0           1           0           1           3
 AtZEff=  -0.0000000  -0.0000000  -0.0000000  -0.0000000  -0.0000000
 NQMom=    0.0000000   0.0000000   0.0000000   0.0000000  31.3000000
 NMagM=    0.0000000   2.7928460   0.0000000   2.7928460   2.1063990
 AtZNuc=   6.0000000   1.0000000   6.0000000   1.0000000  35.0000000
 Leave Link  101 at Thu May  2 13:57:37 2024, MaxMem=   134217728 cpu:               2.1 elap:               2.1
 (Enter /software/gaussian/g16-c01/sse4/g16/l202.exe)
                          Input orientation:                          
 ---------------------------------------------------------------------
 Center     Atomic      Atomic             Coordinates (Angstroms)
 Number     Number       Type             X           Y           Z
 ---------------------------------------------------------------------
      1          6           0        0.519300    1.233000   -0.031900
      2          6           0        1.944500    1.269200   -0.036700
      3          6           0        2.620400    0.092800   -0.025000
      4          6           0       -0.196000    0.030100    0.001000
      5          1           0       -0.020700    2.174200   -0.043400
      6          1           0        2.482800    2.208900   -0.036100
      7          1           0       -1.277700    0.039900    0.011700
      8          7           0        4.092100    0.095900    0.036600
      9          8           0        4.639300   -1.021700    0.144600
     10          8           0        4.664900    1.198400   -0.023300
     11          6           0        0.494300   -1.167100    0.021000
     12          1           0       -0.032500   -2.114900    0.054500
     13          6           0        1.962900   -1.216500   -0.021100
     14          1           0        2.443600   -1.963100    0.615100
     15         35           0        2.173000   -1.949100   -1.906200
 ---------------------------------------------------------------------
                    Distance matrix (angstroms):
                    1          2          3          4          5
     1  C    0.000000
     2  C    1.425668   0.000000
     3  C    2.390549   1.356796   0.000000
     4  C    1.399895   2.473566   2.817218   0.000000
     5  H    1.085168   2.163581   3.362733   2.151712   0.000000
     6  H    2.192654   1.082960   2.120598   3.453189   2.503751
     7  H    2.157452   3.449071   3.898632   1.081797   2.477564
     8  N    3.750012   2.448304   1.472992   4.288753   4.608780
     9  O    4.699917   3.541615   2.312322   4.950458   5.653735
    10  O    4.145753   2.721354   2.324292   4.999386   4.786171
    11  C    2.400813   2.835836   2.471794   1.382101   3.381369
    12  H    3.394169   3.920329   3.452266   2.151887   4.290233
    13  C    2.843264   2.485817   1.465124   2.493060   3.928360
    14  H    3.786370   3.334922   2.160489   3.364142   4.860416
    15  Br   4.046416   3.728900   2.812194   3.628609   5.028314
                    6          7          8          9         10
     6  H    0.000000
     7  H    4.341452   0.000000
     8  N    2.657047   5.370150   0.000000
     9  O    3.888434   6.012948   1.249048   0.000000
    10  O    2.404752   6.054572   1.243863   2.226587   0.000000
    11  C    3.918516   2.144043   3.813080   4.149391   4.794941
    12  H    5.003018   2.489080   4.679774   4.798846   5.748876
    13  C    3.464662   3.475788   2.501842   2.688591   3.623886
    14  H    4.222698   4.268978   2.700314   2.434893   3.916224
    15  Br   4.569706   4.420610   3.411663   3.338935   4.434144
                   11         12         13         14         15
    11  C    0.000000
    12  H    1.084880   0.000000
    13  C    1.470034   2.189625   0.000000
    14  H    2.187771   2.543302   1.092353   0.000000
    15  Br   2.672762   2.955683   2.033334   2.535818   0.000000
 Symmetry turned off by external request.
 Stoichiometry    C6H5BrNO2(1+)
 Framework group  C1[X(C6H5BrNO2)]
 Deg. of freedom    39
 Full point group                 C1      NOp   1
 Rotational constants (GHZ):           1.1632986           0.9594224           0.5957624
 Leave Link  202 at Thu May  2 13:57:39 2024, MaxMem=   134217728 cpu:               1.3 elap:               1.4
 (Enter /software/gaussian/g16-c01/sse4/g16/l301.exe)
 Standard basis: 6-311+G(d) (5D, 7F)
 Ernie: Thresh=  0.10000D-02 Tol=  0.10000D-05 Strict=F.
 The following finite field(s) will be applied:
 An electric field of             -0.0038  0.0000  0.0000
   261 basis functions,   443 primitive gaussians,   273 cartesian basis functions
    49 alpha electrons       49 beta electrons
       nuclear repulsion energy       772.8945969580 Hartrees.
 IExCor= 4639 DFT=T Ex+Corr=wB97XD ExCW=0 ScaHFX=  1.000000
 ScaDFX=  1.000000  1.000000  1.000000  1.000000 ScalE2=  1.000000  1.000000
 IRadAn=      5 IRanWt=     -1 IRanGd=            0 ICorTp=0 IEmpDi=121
 HFx  wShort=  0.000000 wLong=  0.200000 cFull=  0.222036 cShort=  0.000000 cLong=  0.777964
 DFx  wShort=  0.000000 wLong=  0.200000 cFull=  0.000000 cShort=  0.000000 cLong=  1.000000
 NAtoms=   15 NActive=   15 NUniq=   15 SFac= 1.00D+00 NAtFMM=   60 NAOKFM=F Big=F
 Integral buffers will be    131072 words long.
 Raffenetti 2 integral format.
 Two-electron integral symmetry is turned off.
 R6Disp:  Grimme-D2 Dispersion energy=       -0.0080346408 Hartrees.
 Nuclear repulsion after empirical dispersion term =      772.8865623173 Hartrees.
 Leave Link  301 at Thu May  2 13:57:40 2024, MaxMem=   134217728 cpu:               1.2 elap:               1.2
 (Enter /software/gaussian/g16-c01/sse4/g16/l302.exe)
 NPDir=0 NMtPBC=     1 NCelOv=     1 NCel=       1 NClECP=     1 NCelD=      1
         NCelK=      1 NCelE2=     1 NClLst=     1 CellRange=     0.0.
 One-electron integrals computed using PRISM.
 NBasis=   261 RedAO= T EigKep=  2.52D-06  NBF=   261
 NBsUse=   261 1.00D-06 EigRej= -1.00D+00 NBFU=   261
 Precomputing XC quadrature grid using
 IXCGrd= 4 IRadAn=           5 IRanWt=          -1 IRanGd=           0 AccXCQ= 0.00D+00.
 Generated NRdTot=       0 NPtTot=           0 NUsed=           0 NTot=          32
 NSgBfM=   273   273   273   273   273 MxSgAt=    15 MxSgA2=    15.
 Leave Link  302 at Thu May  2 13:58:02 2024, MaxMem=   134217728 cpu:              21.8 elap:              21.8
 (Enter /software/gaussian/g16-c01/sse4/g16/l303.exe)
 DipDrv:  MaxL=1.
 The nuclear repulsion energy is now       771.2579121369 hartrees.
 Leave Link  303 at Thu May  2 13:58:05 2024, MaxMem=   134217728 cpu:               3.2 elap:               3.2
 (Enter /software/gaussian/g16-c01/sse4/g16/l401.exe)
 ExpMin= 3.50D-02 ExpMax= 4.40D+05 ExpMxC= 1.51D+04 IAcc=3 IRadAn=         5 AccDes= 0.00D+00
 Harris functional with IExCor= 4639 and IRadAn=       5 diagonalized for initial guess.
 HarFok:  IExCor= 4639 AccDes= 0.00D+00 IRadAn=         5 IDoV= 1 UseB2=F ITyADJ=14
 ICtDFT=  3500011 ScaDFX=  1.000000  1.000000  1.000000  1.000000
 FoFCou: FMM=F IPFlag=           0 FMFlag=      100000 FMFlg1=           0
         NFxFlg=           0 DoJE=T BraDBF=F KetDBF=T FulRan=T
         wScrn=  0.000000 ICntrl=       500 IOpCl=  0 I1Cent=   200000004 NGrid=           0
         NMat0=    1 NMatS0=      1 NMatT0=    0 NMatD0=    1 NMtDS0=    0 NMtDT0=    0
 Symmetry not used in FoFCou.
 Harris En= -2970.60839189595    
 JPrj=0 DoOrth=F DoCkMO=F.
 Leave Link  401 at Thu May  2 13:58:37 2024, MaxMem=   134217728 cpu:              31.5 elap:              31.5
 (Enter /software/gaussian/g16-c01/sse4/g16/l502.exe)
 Two-electron integral symmetry not used.
 Closed shell SCF:
 Using DIIS extrapolation, IDIIS=  1040.
 NGot=   134217728 LenX=   134063053 LenY=   133988083
 Requested convergence on RMS density matrix=1.00D-08 within 128 cycles.
 Requested convergence on MAX density matrix=1.00D-06.
 Requested convergence on             energy=1.00D-06.
 No special actions if energy rises.
 Fock matrices will be formed incrementally for  20 cycles.

 Cycle   1  Pass 1  IDiag  1:
 FoFJK:  IHMeth= 1 ICntrl=       0 DoSepK=T KAlg= 0 I1Cent=           0 FoldK=F
 IRaf=         1 NMat=       1 IRICut=       1 DoRegI=T DoRafI=F ISym2E= 0 IDoP0=0 IntGTp=1.
 FoFCou: FMM=F IPFlag=           0 FMFlag=      100000 FMFlg1=           0
         NFxFlg=           0 DoJE=T BraDBF=F KetDBF=F FulRan=T
         wScrn=  0.000000 ICntrl=       500 IOpCl=  0 I1Cent=           0 NGrid=           0
         NMat0=    1 NMatS0=      1 NMatT0=    0 NMatD0=    1 NMtDS0=    0 NMtDT0=    0
 Symmetry not used in FoFCou.
 E= -3009.67616465567    
 DIIS: error= 2.90D-01 at cycle   1 NSaved=   1.
 NSaved= 1 IEnMin= 1 EnMin= -3009.67616465567     IErMin= 1 ErrMin= 2.90D-01
 ErrMax= 2.90D-01  0.00D+00 EMaxC= 1.00D-01 BMatC= 1.20D+01 BMatP= 1.20D+01
 IDIUse=3 WtCom= 0.00D+00 WtEn= 1.00D+00
 Coeff-Com:  0.100D+01
 Coeff-En:   0.100D+01
 Coeff:      0.100D+01
 Gap=     0.330 Goal=   None    Shift=    0.000
 GapD=    0.330 DampG=1.000 DampE=0.250 DampFc=0.2500 IDamp=-1.
 Damping current iteration by 2.50D-01
 RMSDP=4.68D-02 MaxDP=4.50D+00              OVMax= 2.57D-01

 Cycle   2  Pass 1  IDiag  1:
 RMSU=  5.09D-03    CP:  9.11D-01
 E= -3009.97714899381     Delta-E=       -0.300984338137 Rises=F Damp=T
 DIIS: error= 2.19D-01 at cycle   2 NSaved=   2.
 NSaved= 2 IEnMin= 2 EnMin= -3009.97714899381     IErMin= 2 ErrMin= 2.19D-01
 ErrMax= 2.19D-01  0.00D+00 EMaxC= 1.00D-01 BMatC= 5.46D+00 BMatP= 1.20D+01
 IDIUse=3 WtCom= 0.00D+00 WtEn= 1.00D+00
 Coeff-Com: -0.182D+01 0.282D+01
 Coeff-En:   0.000D+00 0.100D+01
 Coeff:      0.000D+00 0.100D+01
 Gap=     0.270 Goal=   None    Shift=    0.000
 RMSDP=3.75D-02 MaxDP=3.95D+00 DE=-3.01D-01 OVMax= 7.89D-02

 Cycle   3  Pass 1  IDiag  1:
 RMSU=  5.21D-03    CP:  6.10D-01  3.00D+00
 E= -3010.37356572603     Delta-E=       -0.396416732222 Rises=F Damp=F
 DIIS: error= 6.59D-02 at cycle   3 NSaved=   3.
 NSaved= 3 IEnMin= 3 EnMin= -3010.37356572603     IErMin= 3 ErrMin= 6.59D-02
 ErrMax= 6.59D-02  0.00D+00 EMaxC= 1.00D-01 BMatC= 7.43D-01 BMatP= 5.46D+00
 IDIUse=3 WtCom= 3.41D-01 WtEn= 6.59D-01
 Coeff-Com:  0.259D+01-0.339D+01 0.180D+01
 Coeff-En:   0.408D-01 0.000D+00 0.959D+00
 Coeff:      0.909D+00-0.116D+01 0.125D+01
 Gap=     0.276 Goal=   None    Shift=    0.000
 RMSDP=1.19D-02 MaxDP=1.03D+00 DE=-3.96D-01 OVMax= 9.22D-02

 Cycle   4  Pass 1  IDiag  1:
 RMSU=  5.30D-03    CP:  6.64D-01  1.81D+00  1.99D+00
 E= -3010.48958782617     Delta-E=       -0.116022100139 Rises=F Damp=F
 DIIS: error= 3.72D-02 at cycle   4 NSaved=   4.
 NSaved= 4 IEnMin= 4 EnMin= -3010.48958782617     IErMin= 4 ErrMin= 3.72D-02
 ErrMax= 3.72D-02  0.00D+00 EMaxC= 1.00D-01 BMatC= 2.19D-01 BMatP= 7.43D-01
 IDIUse=3 WtCom= 6.28D-01 WtEn= 3.72D-01
 Coeff-Com: -0.231D-01 0.444D-01 0.348D+00 0.631D+00
 Coeff-En:   0.000D+00 0.000D+00 0.181D+00 0.819D+00
 Coeff:     -0.145D-01 0.279D-01 0.286D+00 0.701D+00
 Gap=     0.254 Goal=   None    Shift=    0.000
 RMSDP=7.13D-03 MaxDP=9.52D-01 DE=-1.16D-01 OVMax= 4.04D-02

 Cycle   5  Pass 1  IDiag  1:
 RMSU=  1.96D-03    CP:  6.12D-01  2.16D+00  1.81D+00  5.59D-01
 E= -3010.53316661315     Delta-E=       -0.043578786975 Rises=F Damp=F
 DIIS: error= 6.76D-03 at cycle   5 NSaved=   5.
 NSaved= 5 IEnMin= 5 EnMin= -3010.53316661315     IErMin= 5 ErrMin= 6.76D-03
 ErrMax= 6.76D-03  0.00D+00 EMaxC= 1.00D-01 BMatC= 9.92D-03 BMatP= 2.19D-01
 IDIUse=3 WtCom= 9.32D-01 WtEn= 6.76D-02
 Coeff-Com: -0.114D+00 0.158D+00 0.107D+00 0.398D+00 0.451D+00
 Coeff-En:   0.000D+00 0.000D+00 0.000D+00 0.000D+00 0.100D+01
 Coeff:     -0.107D+00 0.147D+00 0.100D+00 0.371D+00 0.488D+00
 Gap=     0.246 Goal=   None    Shift=    0.000
 RMSDP=1.68D-03 MaxDP=2.12D-01 DE=-4.36D-02 OVMax= 1.92D-02

 Cycle   6  Pass 1  IDiag  1:
 RMSU=  5.91D-04    CP:  6.20D-01  2.12D+00  1.88D+00  7.32D-01  6.34D-01
 E= -3010.53622794422     Delta-E=       -0.003061331074 Rises=F Damp=F
 DIIS: error= 3.07D-03 at cycle   6 NSaved=   6.
 NSaved= 6 IEnMin= 6 EnMin= -3010.53622794422     IErMin= 6 ErrMin= 3.07D-03
 ErrMax= 3.07D-03  0.00D+00 EMaxC= 1.00D-01 BMatC= 7.34D-04 BMatP= 9.92D-03
 IDIUse=3 WtCom= 9.69D-01 WtEn= 3.07D-02
 Coeff-Com: -0.101D+00 0.137D+00-0.350D-03 0.170D+00 0.334D+00 0.461D+00
 Coeff-En:   0.000D+00 0.000D+00 0.000D+00 0.000D+00 0.902D-01 0.910D+00
 Coeff:     -0.982D-01 0.132D+00-0.339D-03 0.165D+00 0.326D+00 0.475D+00
 Gap=     0.240 Goal=   None    Shift=    0.000
 RMSDP=5.69D-04 MaxDP=6.25D-02 DE=-3.06D-03 OVMax= 8.43D-03

 Cycle   7  Pass 1  IDiag  1:
 RMSU=  2.57D-04    CP:  6.18D-01  2.13D+00  1.88D+00  6.91D-01  7.85D-01
                    CP:  6.86D-01
 E= -3010.53678855234     Delta-E=       -0.000560608120 Rises=F Damp=F
 DIIS: error= 3.62D-04 at cycle   7 NSaved=   7.
 NSaved= 7 IEnMin= 7 EnMin= -3010.53678855234     IErMin= 7 ErrMin= 3.62D-04
 ErrMax= 3.62D-04  0.00D+00 EMaxC= 1.00D-01 BMatC= 2.33D-05 BMatP= 7.34D-04
 IDIUse=3 WtCom= 9.96D-01 WtEn= 3.62D-03
 Coeff-Com: -0.335D-01 0.446D-01-0.152D-01 0.236D-01 0.624D-01 0.175D+00
 Coeff-Com:  0.743D+00
 Coeff-En:   0.000D+00 0.000D+00 0.000D+00 0.000D+00 0.000D+00 0.000D+00
 Coeff-En:   0.100D+01
 Coeff:     -0.334D-01 0.444D-01-0.152D-01 0.235D-01 0.621D-01 0.175D+00
 Coeff:      0.744D+00
 Gap=     0.241 Goal=   None    Shift=    0.000
 RMSDP=2.25D-04 MaxDP=1.96D-02 DE=-5.61D-04 OVMax= 5.08D-03

 Cycle   8  Pass 1  IDiag  1:
 RMSU=  8.41D-05    CP:  6.16D-01  2.11D+00  1.88D+00  6.96D-01  8.51D-01
                    CP:  7.92D-01  9.93D-01
 E= -3010.53684117091     Delta-E=       -0.000052618573 Rises=F Damp=F
 DIIS: error= 1.42D-04 at cycle   8 NSaved=   8.
 NSaved= 8 IEnMin= 8 EnMin= -3010.53684117091     IErMin= 8 ErrMin= 1.42D-04
 ErrMax= 1.42D-04  0.00D+00 EMaxC= 1.00D-01 BMatC= 4.17D-06 BMatP= 2.33D-05
 IDIUse=3 WtCom= 9.99D-01 WtEn= 1.42D-03
 Coeff-Com:  0.115D-01-0.157D-01-0.383D-02-0.264D-01-0.549D-01-0.621D-01
 Coeff-Com:  0.166D+00 0.985D+00
 Coeff-En:   0.000D+00 0.000D+00 0.000D+00 0.000D+00 0.000D+00 0.000D+00
 Coeff-En:   0.000D+00 0.100D+01
 Coeff:      0.115D-01-0.157D-01-0.382D-02-0.264D-01-0.549D-01-0.620D-01
 Coeff:      0.166D+00 0.985D+00
 Gap=     0.240 Goal=   None    Shift=    0.000
 RMSDP=1.27D-04 MaxDP=7.21D-03 DE=-5.26D-05 OVMax= 5.16D-03

 Cycle   9  Pass 1  IDiag  1:
 RMSU=  4.64D-05    CP:  6.16D-01  2.11D+00  1.89D+00  6.94D-01  8.87D-01
                    CP:  8.23D-01  1.25D+00  1.45D+00
 E= -3010.53686454914     Delta-E=       -0.000023378226 Rises=F Damp=F
 DIIS: error= 6.44D-05 at cycle   9 NSaved=   9.
 NSaved= 9 IEnMin= 9 EnMin= -3010.53686454914     IErMin= 9 ErrMin= 6.44D-05
 ErrMax= 6.44D-05  0.00D+00 EMaxC= 1.00D-01 BMatC= 7.96D-07 BMatP= 4.17D-06
 IDIUse=1 WtCom= 1.00D+00 WtEn= 0.00D+00
 Coeff-Com:  0.915D-02-0.122D-01 0.213D-02-0.111D-01-0.233D-01-0.415D-01
 Coeff-Com: -0.124D+00 0.220D+00 0.981D+00
 Coeff:      0.915D-02-0.122D-01 0.213D-02-0.111D-01-0.233D-01-0.415D-01
 Coeff:     -0.124D+00 0.220D+00 0.981D+00
 Gap=     0.241 Goal=   None    Shift=    0.000
 RMSDP=1.07D-04 MaxDP=1.40D-02 DE=-2.34D-05 OVMax= 3.07D-03

 Cycle  10  Pass 1  IDiag  1:
 RMSU=  2.15D-05    CP:  6.16D-01  2.10D+00  1.89D+00  6.88D-01  9.09D-01
                    CP:  8.34D-01  1.35D+00  1.79D+00  1.32D+00
 E= -3010.53687079196     Delta-E=       -0.000006242821 Rises=F Damp=F
 DIIS: error= 4.08D-05 at cycle  10 NSaved=  10.
 NSaved=10 IEnMin=10 EnMin= -3010.53687079196     IErMin=10 ErrMin= 4.08D-05
 ErrMax= 4.08D-05  0.00D+00 EMaxC= 1.00D-01 BMatC= 2.22D-07 BMatP= 7.96D-07
 IDIUse=1 WtCom= 1.00D+00 WtEn= 0.00D+00
 Coeff-Com: -0.784D-03 0.112D-02 0.932D-03 0.254D-02 0.698D-02 0.970D-02
 Coeff-Com: -0.635D-01-0.156D+00 0.216D+00 0.983D+00
 Coeff:     -0.784D-03 0.112D-02 0.932D-03 0.254D-02 0.698D-02 0.970D-02
 Coeff:     -0.635D-01-0.156D+00 0.216D+00 0.983D+00
 Gap=     0.241 Goal=   None    Shift=    0.000
 RMSDP=3.12D-05 MaxDP=2.49D-03 DE=-6.24D-06 OVMax= 1.44D-03

 Cycle  11  Pass 1  IDiag  1:
 RMSU=  1.30D-05    CP:  6.15D-01  2.10D+00  1.89D+00  6.86D-01  9.16D-01
                    CP:  8.42D-01  1.36D+00  1.94D+00  1.54D+00  1.42D+00
 E= -3010.53687219563     Delta-E=       -0.000001403671 Rises=F Damp=F
 DIIS: error= 1.95D-05 at cycle  11 NSaved=  11.
 NSaved=11 IEnMin=11 EnMin= -3010.53687219563     IErMin=11 ErrMin= 1.95D-05
 ErrMax= 1.95D-05  0.00D+00 EMaxC= 1.00D-01 BMatC= 2.99D-08 BMatP= 2.22D-07
 IDIUse=1 WtCom= 1.00D+00 WtEn= 0.00D+00
 Coeff-Com: -0.857D-03 0.114D-02-0.114D-03 0.164D-02 0.298D-02 0.598D-02
 Coeff-Com:  0.364D-01-0.229D-01-0.262D+00-0.987D-01 0.134D+01
 Coeff:     -0.857D-03 0.114D-02-0.114D-03 0.164D-02 0.298D-02 0.598D-02
 Coeff:      0.364D-01-0.229D-01-0.262D+00-0.987D-01 0.134D+01
 Gap=     0.241 Goal=   None    Shift=    0.000
 RMSDP=2.49D-05 MaxDP=2.98D-03 DE=-1.40D-06 OVMax= 8.42D-04

 Cycle  12  Pass 1  IDiag  1:
 RMSU=  3.43D-06    CP:  6.15D-01  2.10D+00  1.89D+00  6.84D-01  9.18D-01
                    CP:  8.40D-01  1.37D+00  2.01D+00  1.64D+00  1.82D+00
                    CP:  1.51D+00
 E= -3010.53687251889     Delta-E=       -0.000000323259 Rises=F Damp=F
 DIIS: error= 7.19D-06 at cycle  12 NSaved=  12.
 NSaved=12 IEnMin=12 EnMin= -3010.53687251889     IErMin=12 ErrMin= 7.19D-06
 ErrMax= 7.19D-06  0.00D+00 EMaxC= 1.00D-01 BMatC= 5.39D-09 BMatP= 2.99D-08
 IDIUse=1 WtCom= 1.00D+00 WtEn= 0.00D+00
 Coeff-Com: -0.209D-03 0.272D-03-0.124D-03 0.243D-03-0.100D-03-0.234D-03
 Coeff-Com:  0.154D-01 0.737D-02-0.846D-01-0.120D+00 0.348D+00 0.834D+00
 Coeff:     -0.209D-03 0.272D-03-0.124D-03 0.243D-03-0.100D-03-0.234D-03
 Coeff:      0.154D-01 0.737D-02-0.846D-01-0.120D+00 0.348D+00 0.834D+00
 Gap=     0.241 Goal=   None    Shift=    0.000
 RMSDP=3.77D-06 MaxDP=3.34D-04 DE=-3.23D-07 OVMax= 1.55D-04

 Cycle  13  Pass 1  IDiag  1:
 RMSU=  1.77D-06    CP:  6.15D-01  2.10D+00  1.89D+00  6.84D-01  9.19D-01
                    CP:  8.39D-01  1.37D+00  2.01D+00  1.66D+00  1.86D+00
                    CP:  1.52D+00  1.33D+00
 E= -3010.53687254079     Delta-E=       -0.000000021902 Rises=F Damp=F
 DIIS: error= 3.27D-06 at cycle  13 NSaved=  13.
 NSaved=13 IEnMin=13 EnMin= -3010.53687254079     IErMin=13 ErrMin= 3.27D-06
 ErrMax= 3.27D-06  0.00D+00 EMaxC= 1.00D-01 BMatC= 1.32D-09 BMatP= 5.39D-09
 IDIUse=1 WtCom= 1.00D+00 WtEn= 0.00D+00
 Coeff-Com:  0.278D-04-0.359D-04-0.451D-04-0.288D-03-0.718D-03-0.180D-02
 Coeff-Com: -0.685D-02 0.652D-02 0.613D-01 0.531D-02-0.330D+00 0.230D+00
 Coeff-Com:  0.104D+01
 Coeff:      0.278D-04-0.359D-04-0.451D-04-0.288D-03-0.718D-03-0.180D-02
 Coeff:     -0.685D-02 0.652D-02 0.613D-01 0.531D-02-0.330D+00 0.230D+00
 Coeff:      0.104D+01
 Gap=     0.241 Goal=   None    Shift=    0.000
 RMSDP=2.03D-06 MaxDP=1.31D-04 DE=-2.19D-08 OVMax= 8.28D-05

 Cycle  14  Pass 1  IDiag  1:
 RMSU=  5.76D-07    CP:  6.15D-01  2.10D+00  1.89D+00  6.84D-01  9.18D-01
                    CP:  8.39D-01  1.37D+00  2.00D+00  1.67D+00  1.88D+00
                    CP:  1.50D+00  1.66D+00  1.52D+00
 E= -3010.53687254686     Delta-E=       -0.000000006071 Rises=F Damp=F
 DIIS: error= 1.16D-06 at cycle  14 NSaved=  14.
 NSaved=14 IEnMin=14 EnMin= -3010.53687254686     IErMin=14 ErrMin= 1.16D-06
 ErrMax= 1.16D-06  0.00D+00 EMaxC= 1.00D-01 BMatC= 1.20D-10 BMatP= 1.32D-09
 IDIUse=1 WtCom= 1.00D+00 WtEn= 0.00D+00
 Coeff-Com:  0.891D-05-0.112D-04-0.279D-05-0.518D-04-0.260D-05-0.155D-03
 Coeff-Com: -0.233D-02 0.598D-04 0.164D-01 0.145D-01-0.912D-01-0.411D-01
 Coeff-Com:  0.186D+00 0.917D+00
 Coeff:      0.891D-05-0.112D-04-0.279D-05-0.518D-04-0.260D-05-0.155D-03
 Coeff:     -0.233D-02 0.598D-04 0.164D-01 0.145D-01-0.912D-01-0.411D-01
 Coeff:      0.186D+00 0.917D+00
 Gap=     0.241 Goal=   None    Shift=    0.000
 RMSDP=5.00D-07 MaxDP=1.99D-05 DE=-6.07D-09 OVMax= 2.05D-05

 Cycle  15  Pass 1  IDiag  1:
 RMSU=  2.19D-07    CP:  6.15D-01  2.10D+00  1.89D+00  6.84D-01  9.18D-01
                    CP:  8.39D-01  1.37D+00  2.00D+00  1.67D+00  1.88D+00
                    CP:  1.49D+00  1.73D+00  1.62D+00  1.37D+00
 E= -3010.53687254740     Delta-E=       -0.000000000537 Rises=F Damp=F
 DIIS: error= 4.54D-07 at cycle  15 NSaved=  15.
 NSaved=15 IEnMin=15 EnMin= -3010.53687254740     IErMin=15 ErrMin= 4.54D-07
 ErrMax= 4.54D-07  0.00D+00 EMaxC= 1.00D-01 BMatC= 4.32D-11 BMatP= 1.20D-10
 IDIUse=1 WtCom= 1.00D+00 WtEn= 0.00D+00
 Coeff-Com:  0.280D-05-0.363D-05 0.714D-05 0.257D-04 0.138D-03 0.227D-03
 Coeff-Com:  0.886D-04-0.104D-02-0.285D-02 0.706D-02 0.117D-01-0.587D-01
 Coeff-Com: -0.945D-01 0.416D+00 0.722D+00
 Coeff:      0.280D-05-0.363D-05 0.714D-05 0.257D-04 0.138D-03 0.227D-03
 Coeff:      0.886D-04-0.104D-02-0.285D-02 0.706D-02 0.117D-01-0.587D-01
 Coeff:     -0.945D-01 0.416D+00 0.722D+00
 Gap=     0.241 Goal=   None    Shift=    0.000
 RMSDP=3.51D-07 MaxDP=4.09D-05 DE=-5.37D-10 OVMax= 7.35D-06

 Cycle  16  Pass 1  IDiag  1:
 RMSU=  8.55D-08    CP:  6.15D-01  2.10D+00  1.89D+00  6.84D-01  9.18D-01
                    CP:  8.38D-01  1.38D+00  2.00D+00  1.67D+00  1.88D+00
                    CP:  1.48D+00  1.75D+00  1.63D+00  1.56D+00  1.29D+00
 E= -3010.53687254749     Delta-E=       -0.000000000087 Rises=F Damp=F
 DIIS: error= 1.48D-07 at cycle  16 NSaved=  16.
 NSaved=16 IEnMin=16 EnMin= -3010.53687254749     IErMin=16 ErrMin= 1.48D-07
 ErrMax= 1.48D-07  0.00D+00 EMaxC= 1.00D-01 BMatC= 4.59D-12 BMatP= 4.32D-11
 IDIUse=1 WtCom= 1.00D+00 WtEn= 0.00D+00
 Coeff-Com: -0.418D-05 0.553D-05 0.148D-05 0.194D-04 0.453D-04 0.742D-04
 Coeff-Com:  0.365D-03-0.371D-03-0.337D-02 0.366D-03 0.168D-01-0.772D-02
 Coeff-Com: -0.546D-01-0.548D-01 0.185D+00 0.919D+00
 Coeff:     -0.418D-05 0.553D-05 0.148D-05 0.194D-04 0.453D-04 0.742D-04
 Coeff:      0.365D-03-0.371D-03-0.337D-02 0.366D-03 0.168D-01-0.772D-02
 Coeff:     -0.546D-01-0.548D-01 0.185D+00 0.919D+00
 Gap=     0.241 Goal=   None    Shift=    0.000
 RMSDP=9.31D-08 MaxDP=4.62D-06 DE=-8.73D-11 OVMax= 2.62D-06

 Cycle  17  Pass 1  IDiag  1:
 RMSU=  3.69D-08    CP:  6.15D-01  2.10D+00  1.89D+00  6.84D-01  9.18D-01
                    CP:  8.38D-01  1.38D+00  2.00D+00  1.67D+00  1.88D+00
                    CP:  1.48D+00  1.76D+00  1.63D+00  1.64D+00  1.55D+00
                    CP:  1.16D+00
 E= -3010.53687254750     Delta-E=       -0.000000000011 Rises=F Damp=F
 DIIS: error= 5.23D-08 at cycle  17 NSaved=  17.
 NSaved=17 IEnMin=17 EnMin= -3010.53687254750     IErMin=17 ErrMin= 5.23D-08
 ErrMax= 5.23D-08  0.00D+00 EMaxC= 1.00D-01 BMatC= 5.27D-13 BMatP= 4.59D-12
 IDIUse=1 WtCom= 1.00D+00 WtEn= 0.00D+00
 Coeff-Com: -0.234D-05 0.313D-05-0.906D-06 0.974D-06-0.736D-05-0.211D-04
 Coeff-Com:  0.361D-04 0.100D-03-0.207D-03-0.695D-03 0.789D-03 0.623D-02
 Coeff-Com:  0.322D-02-0.572D-01-0.575D-01 0.136D+00 0.969D+00
 Coeff:     -0.234D-05 0.313D-05-0.906D-06 0.974D-06-0.736D-05-0.211D-04
 Coeff:      0.361D-04 0.100D-03-0.207D-03-0.695D-03 0.789D-03 0.623D-02
 Coeff:      0.322D-02-0.572D-01-0.575D-01 0.136D+00 0.969D+00
 Gap=     0.241 Goal=   None    Shift=    0.000
 RMSDP=8.90D-08 MaxDP=9.52D-06 DE=-1.14D-11 OVMax= 1.45D-06

 Cycle  18  Pass 1  IDiag  1:
 RMSU=  1.50D-08    CP:  6.15D-01  2.10D+00  1.89D+00  6.84D-01  9.18D-01
                    CP:  8.38D-01  1.38D+00  2.00D+00  1.67D+00  1.88D+00
                    CP:  1.48D+00  1.76D+00  1.62D+00  1.65D+00  1.63D+00
                    CP:  1.37D+00  1.38D+00
 E= -3010.53687254750     Delta-E=        0.000000000003 Rises=F Damp=F
 DIIS: error= 2.99D-08 at cycle  18 NSaved=  18.
 NSaved=18 IEnMin=17 EnMin= -3010.53687254750     IErMin=18 ErrMin= 2.99D-08
 ErrMax= 2.99D-08  0.00D+00 EMaxC= 1.00D-01 BMatC= 1.96D-13 BMatP= 5.27D-13
 IDIUse=1 WtCom= 1.00D+00 WtEn= 0.00D+00
 Coeff-Com: -0.162D-06 0.217D-06-0.647D-06-0.304D-05-0.117D-04-0.232D-04
 Coeff-Com: -0.326D-04 0.127D-03 0.401D-03-0.398D-03-0.234D-02 0.404D-02
 Coeff-Com:  0.105D-01-0.121D-01-0.608D-01-0.133D+00 0.393D+00 0.801D+00
 Coeff:     -0.162D-06 0.217D-06-0.647D-06-0.304D-05-0.117D-04-0.232D-04
 Coeff:     -0.326D-04 0.127D-03 0.401D-03-0.398D-03-0.234D-02 0.404D-02
 Coeff:      0.105D-01-0.121D-01-0.608D-01-0.133D+00 0.393D+00 0.801D+00
 Gap=     0.241 Goal=   None    Shift=    0.000
 RMSDP=2.69D-08 MaxDP=2.64D-06 DE= 2.73D-12 OVMax= 7.53D-07

 Cycle  19  Pass 1  IDiag  1:
 RMSU=  7.68D-09    CP:  6.15D-01  2.10D+00  1.89D+00  6.84D-01  9.18D-01
                    CP:  8.38D-01  1.38D+00  2.00D+00  1.67D+00  1.88D+00
                    CP:  1.48D+00  1.76D+00  1.62D+00  1.66D+00  1.66D+00
                    CP:  1.42D+00  1.68D+00  1.37D+00
 E= -3010.53687254752     Delta-E=       -0.000000000020 Rises=F Damp=F
 DIIS: error= 1.64D-08 at cycle  19 NSaved=  19.
 NSaved=19 IEnMin=19 EnMin= -3010.53687254752     IErMin=19 ErrMin= 1.64D-08
 ErrMax= 1.64D-08  0.00D+00 EMaxC= 1.00D-01 BMatC= 2.74D-14 BMatP= 1.96D-13
 IDIUse=1 WtCom= 1.00D+00 WtEn= 0.00D+00
 Coeff-Com: -0.541D-07 0.774D-07 0.131D-06 0.512D-06 0.300D-05 0.653D-05
 Coeff-Com: -0.530D-05-0.461D-04 0.176D-04 0.266D-03-0.160D-03-0.179D-02
 Coeff-Com: -0.145D-02 0.183D-01 0.129D-01-0.417D-01-0.219D+00-0.341D-01
 Coeff-Com:  0.127D+01
 Coeff:     -0.541D-07 0.774D-07 0.131D-06 0.512D-06 0.300D-05 0.653D-05
 Coeff:     -0.530D-05-0.461D-04 0.176D-04 0.266D-03-0.160D-03-0.179D-02
 Coeff:     -0.145D-02 0.183D-01 0.129D-01-0.417D-01-0.219D+00-0.341D-01
 Coeff:      0.127D+01
 Gap=     0.241 Goal=   None    Shift=    0.000
 RMSDP=2.54D-08 MaxDP=2.09D-06 DE=-2.05D-11 OVMax= 6.26D-07

 Cycle  20  Pass 1  IDiag  1:
 RMSU=  5.09D-09    CP:  6.15D-01  2.10D+00  1.89D+00  6.84D-01  9.18D-01
                    CP:  8.38D-01  1.38D+00  2.00D+00  1.67D+00  1.88D+00
                    CP:  1.48D+00  1.77D+00  1.63D+00  1.66D+00  1.66D+00
                    CP:  1.43D+00  1.87D+00  1.86D+00  1.83D+00
 E= -3010.53687254749     Delta-E=        0.000000000025 Rises=F Damp=F
 DIIS: error= 5.16D-09 at cycle  20 NSaved=  20.
 NSaved=20 IEnMin=19 EnMin= -3010.53687254752     IErMin=20 ErrMin= 5.16D-09
 ErrMax= 5.16D-09  0.00D+00 EMaxC= 1.00D-01 BMatC= 7.50D-15 BMatP= 2.74D-14
 IDIUse=1 WtCom= 1.00D+00 WtEn= 0.00D+00
 Coeff-Com: -0.185D-06 0.249D-06 0.110D-06 0.899D-06 0.333D-05 0.684D-05
 Coeff-Com:  0.661D-05-0.381D-04-0.706D-04 0.152D-03 0.398D-03-0.138D-02
 Coeff-Com: -0.280D-02 0.986D-02 0.148D-01 0.714D-02-0.153D+00-0.155D+00
 Coeff-Com:  0.449D+00 0.831D+00
 Coeff:     -0.185D-06 0.249D-06 0.110D-06 0.899D-06 0.333D-05 0.684D-05
 Coeff:      0.661D-05-0.381D-04-0.706D-04 0.152D-03 0.398D-03-0.138D-02
 Coeff:     -0.280D-02 0.986D-02 0.148D-01 0.714D-02-0.153D+00-0.155D+00
 Coeff:      0.449D+00 0.831D+00
 Gap=     0.241 Goal=   None    Shift=    0.000
 RMSDP=1.15D-08 MaxDP=1.18D-06 DE= 2.46D-11 OVMax= 1.99D-07

 Cycle  21  Pass 1  IDiag  1:
 Restarting incremental Fock formation.
 E= -3010.53687254750     Delta-E=       -0.000000000012 Rises=F Damp=F
 DIIS: error= 1.83D-09 at cycle  21 NSaved=  20.
 NSaved=20 IEnMin=18 EnMin= -3010.53687254752     IErMin=20 ErrMin= 1.83D-09
 ErrMax= 1.83D-09  0.00D+00 EMaxC= 1.00D-01 BMatC= 9.60D-16 BMatP= 7.50D-15
 IDIUse=1 WtCom= 1.00D+00 WtEn= 0.00D+00
 Large coefficients: NSaved= 20 BigCof=    0.00 CofMax=   10.00 Det=-4.50D-15
 Inversion failed.  Reducing to 19 matrices.
 Large coefficients: NSaved= 19 BigCof=    0.00 CofMax=   10.00 Det=-4.63D-15
 Inversion failed.  Reducing to 18 matrices.
 Large coefficients: NSaved= 18 BigCof=    0.00 CofMax=   10.00 Det=-4.78D-15
 Inversion failed.  Reducing to 17 matrices.
 Large coefficients: NSaved= 17 BigCof=    0.00 CofMax=   10.00 Det=-5.23D-15
 Inversion failed.  Reducing to 16 matrices.
 Large coefficients: NSaved= 16 BigCof=    0.00 CofMax=   10.00 Det=-5.60D-15
 Inversion failed.  Reducing to 15 matrices.
 Coeff-Com: -0.350D-06-0.972D-06-0.122D-05-0.458D-05 0.486D-04-0.138D-04
 Coeff-Com: -0.416D-03 0.284D-03 0.112D-02 0.805D-02-0.484D-02-0.304D-01
 Coeff-Com: -0.913D-01 0.231D+00 0.886D+00
 Coeff:     -0.350D-06-0.972D-06-0.122D-05-0.458D-05 0.486D-04-0.138D-04
 Coeff:     -0.416D-03 0.284D-03 0.112D-02 0.805D-02-0.484D-02-0.304D-01
 Coeff:     -0.913D-01 0.231D+00 0.886D+00
 Gap=     0.241 Goal=   None    Shift=    0.000
 RMSDP=3.55D-09 MaxDP=3.31D-07 DE=-1.23D-11 OVMax= 6.72D-08

 SCF Done:  E(RwB97XD) =  -3010.53687255     A.U. after   21 cycles
            NFock= 21  Conv=0.35D-08     -V/T= 2.0016
 KE= 3.005846224673D+03 PE=-8.697735805906D+03 EE= 1.910094796548D+03
 Leave Link  502 at Thu May  2 14:20:07 2024, MaxMem=   134217728 cpu:            1288.7 elap:            1290.8
 (Enter /software/gaussian/g16-c01/sse4/g16/l601.exe)
 Copying SCF densities to generalized density rwf, IOpCl= 0 IROHF=0.

 **********************************************************************

            Population analysis using the SCF Density.

 **********************************************************************

 Alpha  occ. eigenvalues -- -483.29730 -62.84747 -56.64445 -56.63870 -56.63858
 Alpha  occ. eigenvalues --  -19.43806 -19.43797 -14.83286 -10.57775 -10.56570
 Alpha  occ. eigenvalues --  -10.56149 -10.55846 -10.51835 -10.51817  -9.00548
 Alpha  occ. eigenvalues --   -6.83241  -6.81355  -6.81317  -2.93141  -2.92647
 Alpha  occ. eigenvalues --   -2.92616  -2.91108  -2.91107  -1.47509  -1.30442
 Alpha  occ. eigenvalues --   -1.21063  -1.11547  -1.10978  -1.03335  -0.98714
 Alpha  occ. eigenvalues --   -0.94064  -0.89183  -0.83244  -0.79127  -0.78544
 Alpha  occ. eigenvalues --   -0.78062  -0.76567  -0.74291  -0.73826  -0.70638
 Alpha  occ. eigenvalues --   -0.67434  -0.66287  -0.62107  -0.58394  -0.55052
 Alpha  occ. eigenvalues --   -0.54787  -0.54314  -0.53465  -0.52778
 Alpha virt. eigenvalues --   -0.28726  -0.18592  -0.14163  -0.11473  -0.08337
 Alpha virt. eigenvalues --   -0.05742  -0.05031  -0.03740  -0.03434  -0.02355
 Alpha virt. eigenvalues --   -0.01329  -0.00456  -0.00026   0.00753   0.01930
 Alpha virt. eigenvalues --    0.02354   0.02767   0.03333   0.03869   0.04731
 Alpha virt. eigenvalues --    0.05650   0.06242   0.06867   0.07222   0.07702
 Alpha virt. eigenvalues --    0.08646   0.08952   0.09534   0.10439   0.10998
 Alpha virt. eigenvalues --    0.11431   0.11801   0.13009   0.13501   0.13977
 Alpha virt. eigenvalues --    0.14221   0.15129   0.15660   0.16287   0.17183
 Alpha virt. eigenvalues --    0.17825   0.18522   0.19265   0.19767   0.20577
 Alpha virt. eigenvalues --    0.21644   0.22670   0.23316   0.25051   0.26129
 Alpha virt. eigenvalues --    0.27092   0.29155   0.30104   0.31381   0.33689
 Alpha virt. eigenvalues --    0.34071   0.35000   0.36074   0.36799   0.38694
 Alpha virt. eigenvalues --    0.38871   0.39262   0.40810   0.42039   0.43196
 Alpha virt. eigenvalues --    0.44400   0.45720   0.46817   0.48057   0.48860
 Alpha virt. eigenvalues --    0.50222   0.52017   0.52885   0.53790   0.55349
 Alpha virt. eigenvalues --    0.56530   0.57468   0.59182   0.59797   0.61177
 Alpha virt. eigenvalues --    0.62462   0.63754   0.66133   0.69021   0.69212
 Alpha virt. eigenvalues --    0.72183   0.72962   0.73461   0.75642   0.76106
 Alpha virt. eigenvalues --    0.76746   0.78802   0.81529   0.84866   0.87008
 Alpha virt. eigenvalues --    0.88695   0.89803   0.93372   0.95599   1.00796
 Alpha virt. eigenvalues --    1.02554   1.04534   1.05427   1.07106   1.08611
 Alpha virt. eigenvalues --    1.11013   1.14934   1.15508   1.16360   1.20131
 Alpha virt. eigenvalues --    1.23253   1.25280   1.29652   1.34916   1.37695
 Alpha virt. eigenvalues --    1.38285   1.40529   1.44629   1.56536   1.58130
 Alpha virt. eigenvalues --    1.59283   1.61659   1.63025   1.65547   1.67208
 Alpha virt. eigenvalues --    1.69977   1.72927   1.75892   1.76852   1.80950
 Alpha virt. eigenvalues --    1.84901   1.86958   1.88991   1.96546   1.97839
 Alpha virt. eigenvalues --    1.99746   2.04276   2.04557   2.08917   2.10431
 Alpha virt. eigenvalues --    2.14355   2.16075   2.23690   2.25555   2.28453
 Alpha virt. eigenvalues --    2.34878   2.41603   2.43455   2.46002   2.54588
 Alpha virt. eigenvalues --    2.59456   2.64694   2.67322   2.70152   2.74164
 Alpha virt. eigenvalues --    2.75639   2.78702   2.79287   2.82728   2.83870
 Alpha virt. eigenvalues --    2.94712   2.99960   3.03537   3.07458   3.10477
 Alpha virt. eigenvalues --    3.16143   3.17665   3.18948   3.24761   3.28719
 Alpha virt. eigenvalues --    3.29667   3.39868   3.47756   3.51829   3.56995
 Alpha virt. eigenvalues --    3.59407   3.71294   3.76609   3.85072   3.88828
 Alpha virt. eigenvalues --    4.11551   4.12408   4.20964   4.25088   4.44880
 Alpha virt. eigenvalues --    4.47625   4.56168   4.61973   4.96081   4.98922
 Alpha virt. eigenvalues --    5.07787   5.12255   5.64433   6.17654   6.69563
 Alpha virt. eigenvalues --    7.50428   7.52748   7.62837  23.23526  23.62710
 Alpha virt. eigenvalues --   23.73421  23.79300  23.96873  24.03670  35.33874
 Alpha virt. eigenvalues --   47.95612  49.87668  49.96330 289.83246 289.85584
 Alpha virt. eigenvalues --  289.982021020.96783
          Condensed to atoms (all electrons):
               1          2          3          4          5          6
     1  C    8.118368  -2.709768   0.904448  -0.112336   0.297785   0.059671
     2  C   -2.709768  17.726378  -4.328314   0.401157  -0.009624   0.180230
     3  C    0.904448  -4.328314  19.566972  -1.440547   0.024887   0.120618
     4  C   -0.112336   0.401157  -1.440547   6.515124   0.016960  -0.014337
     5  H    0.297785  -0.009624   0.024887   0.016960   0.340911  -0.001677
     6  H    0.059671   0.180230   0.120618  -0.014337  -0.001677   0.307548
     7  H    0.030204  -0.030568   0.024599   0.304130  -0.003051  -0.000006
     8  N   -0.121312   0.016658  -1.754869   0.026976  -0.000434  -0.029840
     9  O   -0.019418   0.259775  -0.078261  -0.020005  -0.000036  -0.002556
    10  O    0.294164  -0.198164  -0.241660  -0.022887   0.000023   0.022908
    11  C    0.856375  -0.577427   2.626934  -0.386491  -0.026055   0.008486
    12  H   -0.011360   0.015571   0.013310   0.013061   0.000012  -0.000017
    13  C   -1.480350  -4.727566  -9.184738   1.044271   0.024825  -0.005585
    14  H   -0.004201   0.005473  -0.000285   0.004352  -0.000031   0.000035
    15  Br   0.003477  -0.203421  -0.199661   0.002655  -0.000041  -0.000488
               7          8          9         10         11         12
     1  C    0.030204  -0.121312  -0.019418   0.294164   0.856375  -0.011360
     2  C   -0.030568   0.016658   0.259775  -0.198164  -0.577427   0.015571
     3  C    0.024599  -1.754869  -0.078261  -0.241660   2.626934   0.013310
     4  C    0.304130   0.026976  -0.020005  -0.022887  -0.386491   0.013061
     5  H   -0.003051  -0.000434  -0.000036   0.000023  -0.026055   0.000012
     6  H   -0.000006  -0.029840  -0.002556   0.022908   0.008486  -0.000017
     7  H    0.356193  -0.000026   0.000006   0.000000   0.034199  -0.002534
     8  N   -0.000026   7.728060   0.017530   0.168911  -0.385889   0.000676
     9  O    0.000006   0.017530   7.893266   0.010211   0.298600   0.000095
    10  O    0.000000   0.168911   0.010211   7.813336   0.002657  -0.000023
    11  C    0.034199  -0.385889   0.298600   0.002657   8.337553   0.308311
    12  H   -0.002534   0.000676   0.000095  -0.000023   0.308311   0.332995
    13  C   -0.024851   1.438534  -0.418315   0.060601  -4.973320  -0.010335
    14  H   -0.000035  -0.027859   0.012950  -0.001766   0.033347  -0.004918
    15  Br  -0.000387   0.164021  -0.056927   0.003631   0.062477  -0.002018
              13         14         15
     1  C   -1.480350  -0.004201   0.003477
     2  C   -4.727566   0.005473  -0.203421
     3  C   -9.184738  -0.000285  -0.199661
     4  C    1.044271   0.004352   0.002655
     5  H    0.024825  -0.000031  -0.000041
     6  H   -0.005585   0.000035  -0.000488
     7  H   -0.024851  -0.000035  -0.000387
     8  N    1.438534  -0.027859   0.164021
     9  O   -0.418315   0.012950  -0.056927
    10  O    0.060601  -0.001766   0.003631
    11  C   -4.973320   0.033347   0.062477
    12  H   -0.010335  -0.004918  -0.002018
    13  C   23.962995   0.288461   0.381598
    14  H    0.288461   0.316978  -0.038479
    15  Br   0.381598  -0.038479  34.691772
 Mulliken charges:
               1
     1  C   -0.105746
     2  C    0.179610
     3  C   -0.053432
     4  C   -0.332082
     5  H    0.335547
     6  H    0.355009
     7  H    0.312128
     8  N   -0.241137
     9  O    0.103084
    10  O    0.088057
    11  C   -0.219757
    12  H    0.347174
    13  C   -0.376224
    14  H    0.415979
    15  Br   0.191791
 Sum of Mulliken charges =   1.00000
 Mulliken charges with hydrogens summed into heavy atoms:
               1
     1  C    0.229801
     2  C    0.534619
     3  C   -0.053432
     4  C   -0.019955
     8  N   -0.241137
     9  O    0.103084
    10  O    0.088057
    11  C    0.127417
    13  C    0.039755
    15  Br   0.191791
 Electronic spatial extent (au):  <R**2>=           3942.8663
 Charge=              1.0000 electrons
 Dipole moment (field-independent basis, Debye):
    X=              3.8641    Y=             -0.9621    Z=             -0.8058  Tot=              4.0628
 Quadrupole moment (field-independent basis, Debye-Ang):
   XX=            -63.6509   YY=            -51.0732   ZZ=            -62.0497
   XY=             -3.2345   XZ=             -2.8634   YZ=              2.5891
 Traceless Quadrupole moment (field-independent basis, Debye-Ang):
   XX=             -4.7263   YY=              7.8514   ZZ=             -3.1251
   XY=             -3.2345   XZ=             -2.8634   YZ=              2.5891
 Octapole moment (field-independent basis, Debye-Ang**2):
  XXX=           -491.7167  YYY=             91.6322  ZZZ=             82.4832  XYY=           -133.9809
  XXY=             23.6676  XXZ=             24.4022  XZZ=           -131.0760  YZZ=             16.7376
  YYZ=             25.3258  XYZ=              8.6381
 Hexadecapole moment (field-independent basis, Debye-Ang**3):
 XXXX=          -3343.7332 YYYY=           -701.5472 ZZZZ=           -394.1829 XXXY=            177.7409
 XXXZ=            180.1962 YYYX=            183.2091 YYYZ=           -171.0107 ZZZX=            165.3342
 ZZZY=           -143.3852 XXYY=           -613.8970 XXZZ=           -520.8447 YYZZ=           -170.5626
 XXYZ=            -38.8870 YYXZ=             47.7240 ZZXY=             27.0834
 N-N= 7.712579121369D+02 E-N=-8.697735806041D+03  KE= 3.005846224673D+03
 No NMR shielding tensors so no spin-rotation constants.
 Leave Link  601 at Thu May  2 14:20:15 2024, MaxMem=   134217728 cpu:               7.3 elap:               7.3
 (Enter /software/gaussian/g16-c01/sse4/g16/l9999.exe)
 Unable to Open any file for archive entry.
 1\1\GINC-BHX0006\SP\RwB97XD\6-311+G(d)\C6H5Br1N1O2(1+)\BWEIGHT\02-May-
 2024\0\\#P wB97XD/6-311+G* NoSymm #P Field=X-38\\TitleMe\\1,1\C,0,0.51
 93,1.233,-0.0319\C,0,1.9445,1.2692,-0.0367\C,0,2.6204,0.0928,-0.025\C,
 0,-0.196,0.0301,0.001\H,0,-0.0207,2.1742,-0.0434\H,0,2.4828,2.2089,-0.
 0361\H,0,-1.2777,0.0399,0.0117\N,0,4.0921,0.0959,0.0366\O,0,4.6393,-1.
 0217,0.1446\O,0,4.6649,1.1984,-0.0233\C,0,0.4943,-1.1671,0.021\H,0,-0.
 0325,-2.1149,0.0545\C,0,1.9629,-1.2165,-0.0211\H,0,2.4436,-1.9631,0.61
 51\Br,0,2.173,-1.9491,-1.9062\\Version=ES64L-G16RevC.01\HF=-3010.53687
 25\RMSD=3.548e-09\Dipole=-2.8089497,0.8496091,0.9321756\Quadrupole=-3.
 5138561,5.837293,-2.3234369,-2.4047422,-2.1289024,1.9249178\PG=C01 [X(
 C6H5Br1N1O2)]\\@
 The archive entry for this job was punched.


 There ain't no surer way to find out whether you
 like people or hate them than to travel with them.
                                     -- Mark Twain
 Job cpu time:       0 days  0 hours 22 minutes 39.8 seconds.
 Elapsed time:       0 days  0 hours 22 minutes 41.9 seconds.
 File lengths (MBytes):  RWF=     40 Int=      0 D2E=      0 Chk=     32 Scr=      1
 Normal termination of Gaussian 16 at Thu May  2 14:20:16 2024.
