 Entering Gaussian System, Link 0=g16
 Initial command:
 /software/gaussian/g16-c01/sse4/g16/l1.exe "/local_scratch/24657575/Gau-28395.inp" -scrdir="/local_scratch/24657575/"
 Entering Link 1 = /software/gaussian/g16-c01/sse4/g16/l1.exe PID=     28397.
  
 Copyright (c) 1988-2019, Gaussian, Inc.  All Rights Reserved.
  
 This is part of the Gaussian(R) 16 program.  It is based on
 the Gaussian(R) 09 system (copyright 2009, Gaussian, Inc.),
 the Gaussian(R) 03 system (copyright 2003, Gaussian, Inc.),
 the Gaussian(R) 98 system (copyright 1998, Gaussian, Inc.),
 the Gaussian(R) 94 system (copyright 1995, Gaussian, Inc.),
 the Gaussian 92(TM) system (copyright 1992, Gaussian, Inc.),
 the Gaussian 90(TM) system (copyright 1990, Gaussian, Inc.),
 the Gaussian 88(TM) system (copyright 1988, Gaussian, Inc.),
 the Gaussian 86(TM) system (copyright 1986, Carnegie Mellon
 University), and the Gaussian 82(TM) system (copyright 1983,
 Carnegie Mellon University). Gaussian is a federally registered
 trademark of Gaussian, Inc.
  
 This software contains proprietary and confidential information,
 including trade secrets, belonging to Gaussian, Inc.
  
 This software is provided under written license and may be
 used, copied, transmitted, or stored only in accord with that
 written license.
  
 The following legend is applicable only to US Government
 contracts under FAR:
  
                    RESTRICTED RIGHTS LEGEND
  
 Use, reproduction and disclosure by the US Government is
 subject to restrictions as set forth in subparagraphs (a)
 and (c) of the Commercial Computer Software - Restricted
 Rights clause in FAR 52.227-19.
  
 Gaussian, Inc.
 340 Quinnipiac St., Bldg. 40, Wallingford CT 06492
  
  
 ---------------------------------------------------------------
 Warning -- This program may not be used in any manner that
 competes with the business of Gaussian, Inc. or will provide
 assistance to any competitor of Gaussian, Inc.  The licensee
 of this program is prohibited from giving any competitor of
 Gaussian, Inc. access to this program.  By using this program,
 the user acknowledges that Gaussian, Inc. is engaged in the
 business of creating and licensing software in the field of
 computational chemistry and represents and warrants to the
 licensee that it is not a competitor of Gaussian, Inc. and that
 it will not use this program in any manner prohibited above.
 ---------------------------------------------------------------
  

 Cite this work as:
 Gaussian 16, Revision C.01,
 M. J. Frisch, G. W. Trucks, H. B. Schlegel, G. E. Scuseria, 
 M. A. Robb, J. R. Cheeseman, G. Scalmani, V. Barone, 
 G. A. Petersson, H. Nakatsuji, X. Li, M. Caricato, A. V. Marenich, 
 J. Bloino, B. G. Janesko, R. Gomperts, B. Mennucci, H. P. Hratchian, 
 J. V. Ortiz, A. F. Izmaylov, J. L. Sonnenberg, D. Williams-Young, 
 F. Ding, F. Lipparini, F. Egidi, J. Goings, B. Peng, A. Petrone, 
 T. Henderson, D. Ranasinghe, V. G. Zakrzewski, J. Gao, N. Rega, 
 G. Zheng, W. Liang, M. Hada, M. Ehara, K. Toyota, R. Fukuda, 
 J. Hasegawa, M. Ishida, T. Nakajima, Y. Honda, O. Kitao, H. Nakai, 
 T. Vreven, K. Throssell, J. A. Montgomery, Jr., J. E. Peralta, 
 F. Ogliaro, M. J. Bearpark, J. J. Heyd, E. N. Brothers, K. N. Kudin, 
 V. N. Staroverov, T. A. Keith, R. Kobayashi, J. Normand, 
 K. Raghavachari, A. P. Rendell, J. C. Burant, S. S. Iyengar, 
 J. Tomasi, M. Cossi, J. M. Millam, M. Klene, C. Adamo, R. Cammi, 
 J. W. Ochterski, R. L. Martin, K. Morokuma, O. Farkas, 
 J. B. Foresman, and D. J. Fox, Gaussian, Inc., Wallingford CT, 2019.
 
 ******************************************
 Gaussian 16:  ES64L-G16RevC.01  3-Jul-2019
                 1-May-2024 
 ******************************************
 %chk=geometry.chk
 %mem=9GB
 %nprocshared=12
 Will use up to   12 processors via shared memory.
 ----------------------------------------
 #P wB97XD/6-311+G* NoSymm #P Field=Z+136
 ----------------------------------------
 1/38=1,172=1/1;
 2/12=2,15=1,17=6,18=5,40=1/2;
 3/5=4,6=6,7=11,11=2,14=3,15=136,25=1,30=1,74=-58/1,2,3;
 4//1;
 5/5=2,38=5/2;
 6/7=2,8=2,9=2,10=2,28=1/1;
 99/5=1,9=1/99;
 Leave Link    1 at Wed May  1 15:08:03 2024, MaxMem=  1207959552 cpu:               1.4 elap:               1.4
 (Enter /software/gaussian/g16-c01/sse4/g16/l101.exe)
 -------
 TitleMe
 -------
 Symbolic Z-matrix:
 Charge =  1 Multiplicity = 1
 C                     0.0295    1.3397    0.0682 
 C                     1.4348    1.2867    0.0064 
 C                     2.1118    0.0511   -0.0054 
 C                     1.4451   -1.1372    0.0312 
 C                    -0.6879    0.1682    0.11 
 H                    -0.4713    2.2984    0.0781 
 H                     2.0273    2.1965   -0.0322 
 H                     1.9897   -2.0764    0.0232 
 H                    -1.7716    0.1804    0.1582 
 N                     3.5864    0.051    -0.0675 
 O                     4.1471   -1.0597   -0.0881 
 O                     4.145     1.1639   -0.0901 
 C                    -0.0236   -1.1458    0.0835 
 H                    -0.4367   -1.8725    0.7889 
 Br                   -0.5359   -1.8697   -1.7408 
 
 ITRead=  0  0  0  0  0  0  0  0  0  0  0  0  0  0  0
 MicOpt= -1 -1 -1 -1 -1 -1 -1 -1 -1 -1 -1 -1 -1 -1 -1
 NAtoms=     15 NQM=       15 NQMF=       0 NMMI=      0 NMMIF=      0
                NMic=       0 NMicF=      0.
                    Isotopes and Nuclear Properties:
 (Nuclear quadrupole moments (NQMom) in fm**2, nuclear magnetic moments (NMagM)
  in nuclear magnetons)

  Atom         1           2           3           4           5           6           7           8           9          10
 IAtWgt=          12          12          12          12          12           1           1           1           1          14
 AtmWgt=  12.0000000  12.0000000  12.0000000  12.0000000  12.0000000   1.0078250   1.0078250   1.0078250   1.0078250  14.0030740
 NucSpn=           0           0           0           0           0           1           1           1           1           2
 AtZEff=  -0.0000000  -0.0000000  -0.0000000  -0.0000000  -0.0000000  -0.0000000  -0.0000000  -0.0000000  -0.0000000  -0.0000000
 NQMom=    0.0000000   0.0000000   0.0000000   0.0000000   0.0000000   0.0000000   0.0000000   0.0000000   0.0000000   2.0440000
 NMagM=    0.0000000   0.0000000   0.0000000   0.0000000   0.0000000   2.7928460   2.7928460   2.7928460   2.7928460   0.4037610
 AtZNuc=   6.0000000   6.0000000   6.0000000   6.0000000   6.0000000   1.0000000   1.0000000   1.0000000   1.0000000   7.0000000

  Atom        11          12          13          14          15
 IAtWgt=          16          16          12           1          79
 AtmWgt=  15.9949146  15.9949146  12.0000000   1.0078250  78.9183361
 NucSpn=           0           0           0           1           3
 AtZEff=  -0.0000000  -0.0000000  -0.0000000  -0.0000000  -0.0000000
 NQMom=    0.0000000   0.0000000   0.0000000   0.0000000  31.3000000
 NMagM=    0.0000000   0.0000000   0.0000000   2.7928460   2.1063990
 AtZNuc=   8.0000000   8.0000000   6.0000000   1.0000000  35.0000000
 Leave Link  101 at Wed May  1 15:08:04 2024, MaxMem=  1207959552 cpu:               1.4 elap:               1.4
 (Enter /software/gaussian/g16-c01/sse4/g16/l202.exe)
                          Input orientation:                          
 ---------------------------------------------------------------------
 Center     Atomic      Atomic             Coordinates (Angstroms)
 Number     Number       Type             X           Y           Z
 ---------------------------------------------------------------------
      1          6           0        0.029500    1.339700    0.068200
      2          6           0        1.434800    1.286700    0.006400
      3          6           0        2.111800    0.051100   -0.005400
      4          6           0        1.445100   -1.137200    0.031200
      5          6           0       -0.687900    0.168200    0.110000
      6          1           0       -0.471300    2.298400    0.078100
      7          1           0        2.027300    2.196500   -0.032200
      8          1           0        1.989700   -2.076400    0.023200
      9          1           0       -1.771600    0.180400    0.158200
     10          7           0        3.586400    0.051000   -0.067500
     11          8           0        4.147100   -1.059700   -0.088100
     12          8           0        4.145000    1.163900   -0.090100
     13          6           0       -0.023600   -1.145800    0.083500
     14          1           0       -0.436700   -1.872500    0.788900
     15         35           0       -0.535900   -1.869700   -1.740800
 ---------------------------------------------------------------------
                    Distance matrix (angstroms):
                    1          2          3          4          5
     1  C    0.000000
     2  C    1.407656   0.000000
     3  C    2.449874   1.408963   0.000000
     4  C    2.853126   2.424049   1.363043   0.000000
     5  C    1.374344   2.401589   2.804523   2.501993   0.000000
     6  H    1.081667   2.159142   3.424870   3.934226   2.141421
     7  H    2.176095   1.086408   2.147231   3.384750   3.392128
     8  H    3.938800   3.408612   2.131193   1.085702   3.495040
     9  H    2.143837   3.395283   3.888995   3.478413   1.084840
    10  N    3.785591   2.482297   1.475907   2.450862   4.279589
    11  O    4.768247   3.587631   2.320164   2.705743   4.992415
    12  O    4.122294   2.714696   2.319353   3.549540   4.938459
    13  C    2.486114   2.837240   2.449573   1.469656   1.472614
    14  H    3.324903   3.754379   3.290289   2.157764   2.165286
    15  Br   3.727252   4.110867   3.702891   2.756973   2.757100
                    6          7          8          9         10
     6  H    0.000000
     7  H    2.503108   0.000000
     8  H    5.019802   4.273425   0.000000
     9  H    2.486588   4.304945   4.388479   0.000000
    10  N    4.640790   2.652397   2.661486   5.364313   0.000000
    11  O    5.712624   3.885809   2.387560   6.052233   1.244373
    12  O    4.756638   2.356750   3.893289   6.002923   1.245428
    13  C    3.473180   3.923079   2.218790   2.195425   3.806210
    14  H    4.231175   4.827242   2.552506   2.528663   4.540772
    15  Br   4.548146   5.101303   3.087568   3.055498   4.845862
                   11         12         13         14         15
    11  O    0.000000
    12  O    2.223602   0.000000
    13  C    4.175117   4.768865   0.000000
    14  H    4.737193   5.566358   1.093770   0.000000
    15  Br   5.031700   5.817075   2.028436   2.531646   0.000000
 Symmetry turned off by external request.
 Stoichiometry    C6H5BrNO2(1+)
 Framework group  C1[X(C6H5BrNO2)]
 Deg. of freedom    39
 Full point group                 C1      NOp   1
 Rotational constants (GHZ):           1.8252210           0.5518633           0.4576002
 Leave Link  202 at Wed May  1 15:08:05 2024, MaxMem=  1207959552 cpu:               1.1 elap:               1.1
 (Enter /software/gaussian/g16-c01/sse4/g16/l301.exe)
 Standard basis: 6-311+G(d) (5D, 7F)
 Ernie: Thresh=  0.10000D-02 Tol=  0.10000D-05 Strict=F.
 The following finite field(s) will be applied:
 An electric field of              0.0000  0.0000  0.0136
   261 basis functions,   443 primitive gaussians,   273 cartesian basis functions
    49 alpha electrons       49 beta electrons
       nuclear repulsion energy       739.2122215416 Hartrees.
 IExCor= 4639 DFT=T Ex+Corr=wB97XD ExCW=0 ScaHFX=  1.000000
 ScaDFX=  1.000000  1.000000  1.000000  1.000000 ScalE2=  1.000000  1.000000
 IRadAn=      5 IRanWt=     -1 IRanGd=            0 ICorTp=0 IEmpDi=121
 HFx  wShort=  0.000000 wLong=  0.200000 cFull=  0.222036 cShort=  0.000000 cLong=  0.777964
 DFx  wShort=  0.000000 wLong=  0.200000 cFull=  0.000000 cShort=  0.000000 cLong=  1.000000
 NAtoms=   15 NActive=   15 NUniq=   15 SFac= 1.00D+00 NAtFMM=   60 NAOKFM=F Big=F
 Integral buffers will be    131072 words long.
 Raffenetti 2 integral format.
 Two-electron integral symmetry is turned off.
 R6Disp:  Grimme-D2 Dispersion energy=       -0.0077368520 Hartrees.
 Nuclear repulsion after empirical dispersion term =      739.2044846896 Hartrees.
 Leave Link  301 at Wed May  1 15:08:06 2024, MaxMem=  1207959552 cpu:               1.0 elap:               1.0
 (Enter /software/gaussian/g16-c01/sse4/g16/l302.exe)
 NPDir=0 NMtPBC=     1 NCelOv=     1 NCel=       1 NClECP=     1 NCelD=      1
         NCelK=      1 NCelE2=     1 NClLst=     1 CellRange=     0.0.
 One-electron integrals computed using PRISM.
 NBasis=   261 RedAO= T EigKep=  2.35D-06  NBF=   261
 NBsUse=   261 1.00D-06 EigRej= -1.00D+00 NBFU=   261
 Precomputing XC quadrature grid using
 IXCGrd= 4 IRadAn=           5 IRanWt=          -1 IRanGd=           0 AccXCQ= 0.00D+00.
 Generated NRdTot=       0 NPtTot=           0 NUsed=           0 NTot=          32
 NSgBfM=   273   273   273   273   273 MxSgAt=    15 MxSgA2=    15.
 Leave Link  302 at Wed May  1 15:08:28 2024, MaxMem=  1207959552 cpu:              21.2 elap:              21.2
 (Enter /software/gaussian/g16-c01/sse4/g16/l303.exe)
 DipDrv:  MaxL=1.
 The nuclear repulsion energy is now       737.6612731091 hartrees.
 Leave Link  303 at Wed May  1 15:08:31 2024, MaxMem=  1207959552 cpu:               3.2 elap:               3.2
 (Enter /software/gaussian/g16-c01/sse4/g16/l401.exe)
 ExpMin= 3.50D-02 ExpMax= 4.40D+05 ExpMxC= 1.51D+04 IAcc=3 IRadAn=         5 AccDes= 0.00D+00
 Harris functional with IExCor= 4639 and IRadAn=       5 diagonalized for initial guess.
 HarFok:  IExCor= 4639 AccDes= 0.00D+00 IRadAn=         5 IDoV= 1 UseB2=F ITyADJ=14
 ICtDFT=  3500011 ScaDFX=  1.000000  1.000000  1.000000  1.000000
 FoFCou: FMM=F IPFlag=           0 FMFlag=      100000 FMFlg1=           0
         NFxFlg=           0 DoJE=T BraDBF=F KetDBF=T FulRan=T
         wScrn=  0.000000 ICntrl=       500 IOpCl=  0 I1Cent=   200000004 NGrid=           0
         NMat0=    1 NMatS0=      1 NMatT0=    0 NMatD0=    1 NMtDS0=    0 NMtDT0=    0
 Symmetry not used in FoFCou.
 Harris En= -2970.60622037206    
 JPrj=0 DoOrth=F DoCkMO=F.
 Leave Link  401 at Wed May  1 15:09:01 2024, MaxMem=  1207959552 cpu:              29.7 elap:              29.7
 (Enter /software/gaussian/g16-c01/sse4/g16/l502.exe)
 Two-electron integral symmetry not used.
 Closed shell SCF:
 Using DIIS extrapolation, IDIIS=  1040.
 NGot=  1207959552 LenX=  1207804877 LenY=  1207729907
 Requested convergence on RMS density matrix=1.00D-08 within 128 cycles.
 Requested convergence on MAX density matrix=1.00D-06.
 Requested convergence on             energy=1.00D-06.
 No special actions if energy rises.
 Fock matrices will be formed incrementally for  20 cycles.

 Cycle   1  Pass 1  IDiag  1:
 FoFJK:  IHMeth= 1 ICntrl=       0 DoSepK=T KAlg= 0 I1Cent=           0 FoldK=F
 IRaf=         1 NMat=       1 IRICut=       1 DoRegI=T DoRafI=F ISym2E= 0 IDoP0=0 IntGTp=1.
 FoFCou: FMM=F IPFlag=           0 FMFlag=      100000 FMFlg1=           0
         NFxFlg=           0 DoJE=T BraDBF=F KetDBF=F FulRan=T
         wScrn=  0.000000 ICntrl=       500 IOpCl=  0 I1Cent=           0 NGrid=           0
         NMat0=    1 NMatS0=      1 NMatT0=    0 NMatD0=    1 NMtDS0=    0 NMtDT0=    0
 Symmetry not used in FoFCou.
 E= -3009.70687548840    
 DIIS: error= 3.21D-01 at cycle   1 NSaved=   1.
 NSaved= 1 IEnMin= 1 EnMin= -3009.70687548840     IErMin= 1 ErrMin= 3.21D-01
 ErrMax= 3.21D-01  0.00D+00 EMaxC= 1.00D-01 BMatC= 1.20D+01 BMatP= 1.20D+01
 IDIUse=3 WtCom= 0.00D+00 WtEn= 1.00D+00
 Coeff-Com:  0.100D+01
 Coeff-En:   0.100D+01
 Coeff:      0.100D+01
 Gap=     0.329 Goal=   None    Shift=    0.000
 GapD=    0.329 DampG=1.000 DampE=0.250 DampFc=0.2500 IDamp=-1.
 Damping current iteration by 2.50D-01
 RMSDP=7.98D-02 MaxDP=1.08D+01              OVMax= 2.54D-01

 Cycle   2  Pass 1  IDiag  1:
 RMSU=  5.60D-03    CP:  8.52D-01
 E= -3009.99986071636     Delta-E=       -0.292985227954 Rises=F Damp=T
 DIIS: error= 2.25D-01 at cycle   2 NSaved=   2.
 NSaved= 2 IEnMin= 2 EnMin= -3009.99986071636     IErMin= 2 ErrMin= 2.25D-01
 ErrMax= 2.25D-01  0.00D+00 EMaxC= 1.00D-01 BMatC= 5.46D+00 BMatP= 1.20D+01
 IDIUse=3 WtCom= 0.00D+00 WtEn= 1.00D+00
 Coeff-Com: -0.182D+01 0.282D+01
 Coeff-En:   0.000D+00 0.100D+01
 Coeff:      0.000D+00 0.100D+01
 Gap=     0.293 Goal=   None    Shift=    0.000
 RMSDP=6.04D-02 MaxDP=8.17D+00 DE=-2.93D-01 OVMax= 6.70D-02

 Cycle   3  Pass 1  IDiag  1:
 RMSU=  4.75D-03    CP:  3.97D-01  3.00D+00
 E= -3010.38268347494     Delta-E=       -0.382822758580 Rises=F Damp=F
 DIIS: error= 6.63D-02 at cycle   3 NSaved=   3.
 NSaved= 3 IEnMin= 3 EnMin= -3010.38268347494     IErMin= 3 ErrMin= 6.63D-02
 ErrMax= 6.63D-02  0.00D+00 EMaxC= 1.00D-01 BMatC= 7.56D-01 BMatP= 5.46D+00
 IDIUse=3 WtCom= 3.37D-01 WtEn= 6.63D-01
 Coeff-Com:  0.272D+01-0.358D+01 0.186D+01
 Coeff-En:   0.417D-01 0.000D+00 0.958D+00
 Coeff:      0.944D+00-0.121D+01 0.126D+01
 Gap=     0.269 Goal=   None    Shift=    0.000
 RMSDP=8.44D-03 MaxDP=5.32D-01 DE=-3.83D-01 OVMax= 8.31D-02

 Cycle   4  Pass 1  IDiag  1:
 RMSU=  5.87D-03    CP:  4.25D-01  2.62D+00  1.57D+00
 E= -3010.49510286563     Delta-E=       -0.112419390688 Rises=F Damp=F
 DIIS: error= 3.75D-02 at cycle   4 NSaved=   4.
 NSaved= 4 IEnMin= 4 EnMin= -3010.49510286563     IErMin= 4 ErrMin= 3.75D-02
 ErrMax= 3.75D-02  0.00D+00 EMaxC= 1.00D-01 BMatC= 2.24D-01 BMatP= 7.56D-01
 IDIUse=3 WtCom= 6.25D-01 WtEn= 3.75D-01
 Coeff-Com: -0.244D+00 0.338D+00 0.231D+00 0.675D+00
 Coeff-En:   0.000D+00 0.000D+00 0.186D+00 0.814D+00
 Coeff:     -0.152D+00 0.211D+00 0.214D+00 0.727D+00
 Gap=     0.257 Goal=   None    Shift=    0.000
 RMSDP=4.70D-03 MaxDP=5.69D-01 DE=-1.12D-01 OVMax= 3.47D-02

 Cycle   5  Pass 1  IDiag  1:
 RMSU=  1.59D-03    CP:  3.93D-01  2.85D+00  1.45D+00  8.55D-01
 E= -3010.54009066378     Delta-E=       -0.044987798150 Rises=F Damp=F
 DIIS: error= 6.91D-03 at cycle   5 NSaved=   5.
 NSaved= 5 IEnMin= 5 EnMin= -3010.54009066378     IErMin= 5 ErrMin= 6.91D-03
 ErrMax= 6.91D-03  0.00D+00 EMaxC= 1.00D-01 BMatC= 7.48D-03 BMatP= 2.24D-01
 IDIUse=3 WtCom= 9.31D-01 WtEn= 6.91D-02
 Coeff-Com: -0.154D+00 0.208D+00 0.217D-01 0.318D+00 0.606D+00
 Coeff-En:   0.000D+00 0.000D+00 0.000D+00 0.000D+00 0.100D+01
 Coeff:     -0.143D+00 0.193D+00 0.202D-01 0.296D+00 0.633D+00
 Gap=     0.244 Goal=   None    Shift=    0.000
 RMSDP=5.39D-04 MaxDP=3.44D-02 DE=-4.50D-02 OVMax= 1.19D-02

 Cycle   6  Pass 1  IDiag  1:
 RMSU=  3.94D-04    CP:  3.92D-01  2.85D+00  1.47D+00  8.74D-01  8.32D-01
 E= -3010.54169110522     Delta-E=       -0.001600441440 Rises=F Damp=F
 DIIS: error= 3.21D-04 at cycle   6 NSaved=   6.
 NSaved= 6 IEnMin= 6 EnMin= -3010.54169110522     IErMin= 6 ErrMin= 3.21D-04
 ErrMax= 3.21D-04  0.00D+00 EMaxC= 1.00D-01 BMatC= 5.42D-05 BMatP= 7.48D-03
 IDIUse=3 WtCom= 9.97D-01 WtEn= 3.21D-03
 Coeff-Com: -0.698D-01 0.935D-01-0.163D-01 0.889D-01 0.244D+00 0.659D+00
 Coeff-En:   0.000D+00 0.000D+00 0.000D+00 0.000D+00 0.000D+00 0.100D+01
 Coeff:     -0.696D-01 0.932D-01-0.163D-01 0.886D-01 0.244D+00 0.660D+00
 Gap=     0.246 Goal=   None    Shift=    0.000
 RMSDP=1.70D-04 MaxDP=1.12D-02 DE=-1.60D-03 OVMax= 3.13D-03

 Cycle   7  Pass 1  IDiag  1:
 RMSU=  8.79D-05    CP:  3.91D-01  2.84D+00  1.48D+00  8.79D-01  9.05D-01
                    CP:  9.80D-01
 E= -3010.54175289196     Delta-E=       -0.000061786741 Rises=F Damp=F
 DIIS: error= 1.89D-04 at cycle   7 NSaved=   7.
 NSaved= 7 IEnMin= 7 EnMin= -3010.54175289196     IErMin= 7 ErrMin= 1.89D-04
 ErrMax= 1.89D-04  0.00D+00 EMaxC= 1.00D-01 BMatC= 6.69D-06 BMatP= 5.42D-05
 IDIUse=3 WtCom= 9.98D-01 WtEn= 1.89D-03
 Coeff-Com: -0.702D-02 0.909D-02-0.823D-02-0.461D-02-0.270D-02 0.160D+00
 Coeff-Com:  0.853D+00
 Coeff-En:   0.000D+00 0.000D+00 0.000D+00 0.000D+00 0.000D+00 0.000D+00
 Coeff-En:   0.100D+01
 Coeff:     -0.701D-02 0.907D-02-0.821D-02-0.460D-02-0.270D-02 0.160D+00
 Coeff:      0.854D+00
 Gap=     0.246 Goal=   None    Shift=    0.000
 RMSDP=9.58D-05 MaxDP=8.17D-03 DE=-6.18D-05 OVMax= 2.24D-03

 Cycle   8  Pass 1  IDiag  1:
 RMSU=  4.64D-05    CP:  3.91D-01  2.84D+00  1.48D+00  8.83D-01  9.14D-01
                    CP:  1.14D+00  1.52D+00
 E= -3010.54176491263     Delta-E=       -0.000012020677 Rises=F Damp=F
 DIIS: error= 1.14D-04 at cycle   8 NSaved=   8.
 NSaved= 8 IEnMin= 8 EnMin= -3010.54176491263     IErMin= 8 ErrMin= 1.14D-04
 ErrMax= 1.14D-04  0.00D+00 EMaxC= 1.00D-01 BMatC= 1.71D-06 BMatP= 6.69D-06
 IDIUse=3 WtCom= 9.99D-01 WtEn= 1.14D-03
 Coeff-Com:  0.870D-02-0.118D-01-0.158D-02-0.183D-01-0.455D-01-0.363D-01
 Coeff-Com:  0.447D+00 0.657D+00
 Coeff-En:   0.000D+00 0.000D+00 0.000D+00 0.000D+00 0.000D+00 0.000D+00
 Coeff-En:   0.000D+00 0.100D+01
 Coeff:      0.869D-02-0.118D-01-0.157D-02-0.183D-01-0.454D-01-0.363D-01
 Coeff:      0.447D+00 0.658D+00
 Gap=     0.246 Goal=   None    Shift=    0.000
 RMSDP=4.11D-05 MaxDP=2.56D-03 DE=-1.20D-05 OVMax= 1.35D-03

 Cycle   9  Pass 1  IDiag  1:
 RMSU=  1.81D-05    CP:  3.91D-01  2.84D+00  1.48D+00  8.83D-01  9.21D-01
                    CP:  1.21D+00  1.75D+00  1.10D+00
 E= -3010.54176827876     Delta-E=       -0.000003366125 Rises=F Damp=F
 DIIS: error= 9.76D-05 at cycle   9 NSaved=   9.
 NSaved= 9 IEnMin= 9 EnMin= -3010.54176827876     IErMin= 9 ErrMin= 9.76D-05
 ErrMax= 9.76D-05  0.00D+00 EMaxC= 1.00D-01 BMatC= 7.60D-07 BMatP= 1.71D-06
 IDIUse=1 WtCom= 1.00D+00 WtEn= 0.00D+00
 Coeff-Com:  0.702D-02-0.942D-02 0.107D-02-0.102D-01-0.263D-01-0.665D-01
 Coeff-Com:  0.351D-01 0.446D+00 0.624D+00
 Coeff:      0.702D-02-0.942D-02 0.107D-02-0.102D-01-0.263D-01-0.665D-01
 Coeff:      0.351D-01 0.446D+00 0.624D+00
 Gap=     0.246 Goal=   None    Shift=    0.000
 RMSDP=2.11D-05 MaxDP=2.07D-03 DE=-3.37D-06 OVMax= 7.99D-04

 Cycle  10  Pass 1  IDiag  1:
 RMSU=  9.36D-06    CP:  3.91D-01  2.84D+00  1.48D+00  8.83D-01  9.24D-01
                    CP:  1.24D+00  1.84D+00  1.29D+00  9.77D-01
 E= -3010.54176963761     Delta-E=       -0.000001358851 Rises=F Damp=F
 DIIS: error= 1.50D-05 at cycle  10 NSaved=  10.
 NSaved=10 IEnMin=10 EnMin= -3010.54176963761     IErMin=10 ErrMin= 1.50D-05
 ErrMax= 1.50D-05  0.00D+00 EMaxC= 1.00D-01 BMatC= 9.96D-08 BMatP= 7.60D-07
 IDIUse=1 WtCom= 1.00D+00 WtEn= 0.00D+00
 Coeff-Com: -0.854D-05 0.460D-04 0.434D-03 0.558D-03 0.268D-02-0.106D-01
 Coeff-Com: -0.872D-01 0.137D-01 0.240D+00 0.840D+00
 Coeff:     -0.854D-05 0.460D-04 0.434D-03 0.558D-03 0.268D-02-0.106D-01
 Coeff:     -0.872D-01 0.137D-01 0.240D+00 0.840D+00
 Gap=     0.246 Goal=   None    Shift=    0.000
 RMSDP=1.39D-05 MaxDP=1.26D-03 DE=-1.36D-06 OVMax= 5.62D-04

 Cycle  11  Pass 1  IDiag  1:
 RMSU=  5.22D-06    CP:  3.91D-01  2.84D+00  1.48D+00  8.83D-01  9.24D-01
                    CP:  1.25D+00  1.85D+00  1.36D+00  1.17D+00  1.33D+00
 E= -3010.54176997965     Delta-E=       -0.000000342037 Rises=F Damp=F
 DIIS: error= 5.91D-06 at cycle  11 NSaved=  11.
 NSaved=11 IEnMin=11 EnMin= -3010.54176997965     IErMin=11 ErrMin= 5.91D-06
 ErrMax= 5.91D-06  0.00D+00 EMaxC= 1.00D-01 BMatC= 1.14D-08 BMatP= 9.96D-08
 IDIUse=1 WtCom= 1.00D+00 WtEn= 0.00D+00
 Coeff-Com: -0.812D-03 0.109D-02-0.720D-04 0.164D-02 0.494D-02 0.157D-01
 Coeff-Com:  0.149D-02-0.104D+00-0.161D+00-0.340D-01 0.128D+01
 Coeff:     -0.812D-03 0.109D-02-0.720D-04 0.164D-02 0.494D-02 0.157D-01
 Coeff:      0.149D-02-0.104D+00-0.161D+00-0.340D-01 0.128D+01
 Gap=     0.246 Goal=   None    Shift=    0.000
 RMSDP=8.10D-06 MaxDP=6.20D-04 DE=-3.42D-07 OVMax= 4.84D-04

 Cycle  12  Pass 1  IDiag  1:
 RMSU=  2.20D-06    CP:  3.91D-01  2.84D+00  1.48D+00  8.82D-01  9.24D-01
                    CP:  1.26D+00  1.84D+00  1.40D+00  1.29D+00  1.72D+00
                    CP:  1.43D+00
 E= -3010.54177009100     Delta-E=       -0.000000111350 Rises=F Damp=F
 DIIS: error= 2.94D-06 at cycle  12 NSaved=  12.
 NSaved=12 IEnMin=12 EnMin= -3010.54177009100     IErMin=12 ErrMin= 2.94D-06
 ErrMax= 2.94D-06  0.00D+00 EMaxC= 1.00D-01 BMatC= 3.92D-09 BMatP= 1.14D-08
 IDIUse=1 WtCom= 1.00D+00 WtEn= 0.00D+00
 Coeff-Com: -0.348D-03 0.460D-03-0.804D-04 0.605D-03 0.127D-02 0.742D-02
 Coeff-Com:  0.132D-01-0.459D-01-0.102D+00-0.137D+00 0.575D+00 0.687D+00
 Coeff:     -0.348D-03 0.460D-03-0.804D-04 0.605D-03 0.127D-02 0.742D-02
 Coeff:      0.132D-01-0.459D-01-0.102D+00-0.137D+00 0.575D+00 0.687D+00
 Gap=     0.246 Goal=   None    Shift=    0.000
 RMSDP=1.66D-06 MaxDP=1.48D-04 DE=-1.11D-07 OVMax= 1.34D-04

 Cycle  13  Pass 1  IDiag  1:
 RMSU=  1.05D-06    CP:  3.91D-01  2.84D+00  1.48D+00  8.82D-01  9.24D-01
                    CP:  1.26D+00  1.84D+00  1.40D+00  1.31D+00  1.77D+00
                    CP:  1.57D+00  1.03D+00
 E= -3010.54177010406     Delta-E=       -0.000000013059 Rises=F Damp=F
 DIIS: error= 1.17D-06 at cycle  13 NSaved=  13.
 NSaved=13 IEnMin=13 EnMin= -3010.54177010406     IErMin=13 ErrMin= 1.17D-06
 ErrMax= 1.17D-06  0.00D+00 EMaxC= 1.00D-01 BMatC= 5.42D-10 BMatP= 3.92D-09
 IDIUse=1 WtCom= 1.00D+00 WtEn= 0.00D+00
 Coeff-Com:  0.247D-04-0.326D-04-0.169D-04-0.237D-03-0.121D-02-0.330D-02
 Coeff-Com:  0.181D-03 0.212D-01 0.275D-01-0.112D-01-0.253D+00 0.708D-01
 Coeff-Com:  0.115D+01
 Coeff:      0.247D-04-0.326D-04-0.169D-04-0.237D-03-0.121D-02-0.330D-02
 Coeff:      0.181D-03 0.212D-01 0.275D-01-0.112D-01-0.253D+00 0.708D-01
 Coeff:      0.115D+01
 Gap=     0.246 Goal=   None    Shift=    0.000
 RMSDP=1.00D-06 MaxDP=3.61D-05 DE=-1.31D-08 OVMax= 9.48D-05

 Cycle  14  Pass 1  IDiag  1:
 RMSU=  3.39D-07    CP:  3.91D-01  2.84D+00  1.48D+00  8.82D-01  9.24D-01
                    CP:  1.26D+00  1.84D+00  1.40D+00  1.31D+00  1.79D+00
                    CP:  1.62D+00  1.32D+00  1.37D+00
 E= -3010.54177010790     Delta-E=       -0.000000003847 Rises=F Damp=F
 DIIS: error= 6.67D-07 at cycle  14 NSaved=  14.
 NSaved=14 IEnMin=14 EnMin= -3010.54177010790     IErMin=14 ErrMin= 6.67D-07
 ErrMax= 6.67D-07  0.00D+00 EMaxC= 1.00D-01 BMatC= 7.85D-11 BMatP= 5.42D-10
 IDIUse=1 WtCom= 1.00D+00 WtEn= 0.00D+00
 Coeff-Com:  0.513D-04-0.681D-04 0.206D-05-0.133D-03-0.375D-03-0.154D-02
 Coeff-Com: -0.155D-02 0.112D-01 0.199D-01 0.157D-01-0.141D+00-0.845D-01
 Coeff-Com:  0.310D+00 0.872D+00
 Coeff:      0.513D-04-0.681D-04 0.206D-05-0.133D-03-0.375D-03-0.154D-02
 Coeff:     -0.155D-02 0.112D-01 0.199D-01 0.157D-01-0.141D+00-0.845D-01
 Coeff:      0.310D+00 0.872D+00
 Gap=     0.246 Goal=   None    Shift=    0.000
 RMSDP=3.85D-07 MaxDP=2.44D-05 DE=-3.85D-09 OVMax= 2.38D-05

 Cycle  15  Pass 1  IDiag  1:
 RMSU=  1.61D-07    CP:  3.91D-01  2.84D+00  1.48D+00  8.82D-01  9.24D-01
                    CP:  1.26D+00  1.84D+00  1.40D+00  1.31D+00  1.79D+00
                    CP:  1.61D+00  1.39D+00  1.58D+00  1.28D+00
 E= -3010.54177010831     Delta-E=       -0.000000000402 Rises=F Damp=F
 DIIS: error= 2.78D-07 at cycle  15 NSaved=  15.
 NSaved=15 IEnMin=15 EnMin= -3010.54177010831     IErMin=15 ErrMin= 2.78D-07
 ErrMax= 2.78D-07  0.00D+00 EMaxC= 1.00D-01 BMatC= 2.10D-11 BMatP= 7.85D-11
 IDIUse=1 WtCom= 1.00D+00 WtEn= 0.00D+00
 Coeff-Com:  0.168D-04-0.225D-04 0.313D-05-0.103D-05 0.143D-03 0.235D-03
 Coeff-Com: -0.602D-03-0.525D-03 0.113D-02 0.822D-02-0.168D-02-0.469D-01
 Coeff-Com: -0.989D-01 0.365D+00 0.774D+00
 Coeff:      0.168D-04-0.225D-04 0.313D-05-0.103D-05 0.143D-03 0.235D-03
 Coeff:     -0.602D-03-0.525D-03 0.113D-02 0.822D-02-0.168D-02-0.469D-01
 Coeff:     -0.989D-01 0.365D+00 0.774D+00
 Gap=     0.246 Goal=   None    Shift=    0.000
 RMSDP=1.24D-07 MaxDP=5.51D-06 DE=-4.02D-10 OVMax= 6.98D-06

 Cycle  16  Pass 1  IDiag  1:
 RMSU=  5.97D-08    CP:  3.91D-01  2.84D+00  1.48D+00  8.82D-01  9.24D-01
                    CP:  1.26D+00  1.84D+00  1.40D+00  1.31D+00  1.79D+00
                    CP:  1.60D+00  1.40D+00  1.62D+00  1.50D+00  1.09D+00
 E= -3010.54177010841     Delta-E=       -0.000000000105 Rises=F Damp=F
 DIIS: error= 1.01D-07 at cycle  16 NSaved=  16.
 NSaved=16 IEnMin=16 EnMin= -3010.54177010841     IErMin=16 ErrMin= 1.01D-07
 ErrMax= 1.01D-07  0.00D+00 EMaxC= 1.00D-01 BMatC= 1.71D-12 BMatP= 2.10D-11
 IDIUse=1 WtCom= 1.00D+00 WtEn= 0.00D+00
 Coeff-Com:  0.667D-06-0.946D-06 0.121D-05 0.131D-04 0.794D-04 0.251D-03
 Coeff-Com: -0.309D-04-0.160D-02-0.210D-02 0.124D-02 0.166D-01-0.379D-02
 Coeff-Com: -0.700D-01-0.183D-01 0.168D+00 0.910D+00
 Coeff:      0.667D-06-0.946D-06 0.121D-05 0.131D-04 0.794D-04 0.251D-03
 Coeff:     -0.309D-04-0.160D-02-0.210D-02 0.124D-02 0.166D-01-0.379D-02
 Coeff:     -0.700D-01-0.183D-01 0.168D+00 0.910D+00
 Gap=     0.246 Goal=   None    Shift=    0.000
 RMSDP=6.55D-08 MaxDP=4.28D-06 DE=-1.05D-10 OVMax= 2.64D-06

 Cycle  17  Pass 1  IDiag  1:
 RMSU=  1.81D-08    CP:  3.91D-01  2.84D+00  1.48D+00  8.82D-01  9.24D-01
                    CP:  1.26D+00  1.84D+00  1.40D+00  1.31D+00  1.79D+00
                    CP:  1.60D+00  1.41D+00  1.64D+00  1.58D+00  1.29D+00
                    CP:  1.14D+00
 E= -3010.54177010840     Delta-E=        0.000000000007 Rises=F Damp=F
 DIIS: error= 4.68D-08 at cycle  17 NSaved=  17.
 NSaved=17 IEnMin=16 EnMin= -3010.54177010841     IErMin=17 ErrMin= 4.68D-08
 ErrMax= 4.68D-08  0.00D+00 EMaxC= 1.00D-01 BMatC= 2.85D-13 BMatP= 1.71D-12
 IDIUse=1 WtCom= 1.00D+00 WtEn= 0.00D+00
 Coeff-Com: -0.182D-05 0.243D-05-0.909D-07 0.282D-05 0.611D-06 0.337D-04
 Coeff-Com:  0.815D-04-0.290D-03-0.599D-03-0.530D-03 0.367D-02 0.478D-02
 Coeff-Com: -0.411D-02-0.453D-01-0.696D-01 0.256D+00 0.856D+00
 Coeff:     -0.182D-05 0.243D-05-0.909D-07 0.282D-05 0.611D-06 0.337D-04
 Coeff:      0.815D-04-0.290D-03-0.599D-03-0.530D-03 0.367D-02 0.478D-02
 Coeff:     -0.411D-02-0.453D-01-0.696D-01 0.256D+00 0.856D+00
 Gap=     0.246 Goal=   None    Shift=    0.000
 RMSDP=2.02D-08 MaxDP=1.52D-06 DE= 6.82D-12 OVMax= 8.67D-07

 Cycle  18  Pass 1  IDiag  1:
 RMSU=  5.87D-09    CP:  3.91D-01  2.84D+00  1.48D+00  8.82D-01  9.24D-01
                    CP:  1.26D+00  1.84D+00  1.40D+00  1.31D+00  1.79D+00
                    CP:  1.60D+00  1.41D+00  1.64D+00  1.59D+00  1.34D+00
                    CP:  1.28D+00  1.28D+00
 E= -3010.54177010837     Delta-E=        0.000000000032 Rises=F Damp=F
 DIIS: error= 1.04D-08 at cycle  18 NSaved=  18.
 NSaved=18 IEnMin=16 EnMin= -3010.54177010841     IErMin=18 ErrMin= 1.04D-08
 ErrMax= 1.04D-08  0.00D+00 EMaxC= 1.00D-01 BMatC= 5.40D-14 BMatP= 2.85D-13
 IDIUse=1 WtCom= 1.00D+00 WtEn= 0.00D+00
 Coeff-Com: -0.498D-07 0.683D-07-0.107D-06-0.189D-05-0.138D-04-0.298D-04
 Coeff-Com:  0.380D-04 0.160D-03 0.107D-03-0.399D-03-0.146D-02 0.256D-02
 Coeff-Com:  0.101D-01-0.101D-01-0.556D-01-0.699D-01 0.294D+00 0.830D+00
 Coeff:     -0.498D-07 0.683D-07-0.107D-06-0.189D-05-0.138D-04-0.298D-04
 Coeff:      0.380D-04 0.160D-03 0.107D-03-0.399D-03-0.146D-02 0.256D-02
 Coeff:      0.101D-01-0.101D-01-0.556D-01-0.699D-01 0.294D+00 0.830D+00
 Gap=     0.246 Goal=   None    Shift=    0.000
 RMSDP=8.42D-09 MaxDP=4.28D-07 DE= 3.18D-11 OVMax= 2.36D-07

 SCF Done:  E(RwB97XD) =  -3010.54177011     A.U. after   18 cycles
            NFock= 18  Conv=0.84D-08     -V/T= 2.0016
 KE= 3.005833972998D+03 PE=-8.630139559769D+03 EE= 1.876102543553D+03
 Leave Link  502 at Wed May  1 15:25:43 2024, MaxMem=  1207959552 cpu:            1002.5 elap:            1002.8
 (Enter /software/gaussian/g16-c01/sse4/g16/l601.exe)
 Copying SCF densities to generalized density rwf, IOpCl= 0 IROHF=0.

 **********************************************************************

            Population analysis using the SCF Density.

 **********************************************************************

 Alpha  occ. eigenvalues -- -483.29107 -62.84098 -56.63827 -56.63205 -56.63203
 Alpha  occ. eigenvalues --  -19.45158 -19.45097 -14.84659 -10.57118 -10.56569
 Alpha  occ. eigenvalues --  -10.56363 -10.56146 -10.55944 -10.52210  -8.99880
 Alpha  occ. eigenvalues --   -6.82654  -6.80627  -6.80614  -2.92535  -2.91998
 Alpha  occ. eigenvalues --   -2.91987  -2.90366  -2.90366  -1.48923  -1.31902
 Alpha  occ. eigenvalues --   -1.21719  -1.12953  -1.10847  -1.02561  -1.00253
 Alpha  occ. eigenvalues --   -0.94497  -0.90121  -0.84542  -0.80030  -0.79813
 Alpha  occ. eigenvalues --   -0.79230  -0.77570  -0.75349  -0.75116  -0.71085
 Alpha  occ. eigenvalues --   -0.68489  -0.66730  -0.62355  -0.58920  -0.56357
 Alpha  occ. eigenvalues --   -0.55444  -0.54910  -0.53819  -0.53069
 Alpha virt. eigenvalues --   -0.28517  -0.20601  -0.14477  -0.12614  -0.10499
 Alpha virt. eigenvalues --   -0.07863  -0.07442  -0.05651  -0.03996  -0.03584
 Alpha virt. eigenvalues --   -0.02343  -0.00986  -0.00465   0.00597   0.01226
 Alpha virt. eigenvalues --    0.01693   0.02850   0.03880   0.04005   0.04434
 Alpha virt. eigenvalues --    0.05376   0.05634   0.06242   0.07052   0.07459
 Alpha virt. eigenvalues --    0.07785   0.08432   0.08858   0.09781   0.10771
 Alpha virt. eigenvalues --    0.11371   0.11811   0.11957   0.12330   0.13117
 Alpha virt. eigenvalues --    0.13710   0.14673   0.15147   0.15669   0.16474
 Alpha virt. eigenvalues --    0.17234   0.17946   0.18439   0.18869   0.19319
 Alpha virt. eigenvalues --    0.20260   0.21857   0.22169   0.22701   0.25486
 Alpha virt. eigenvalues --    0.25850   0.28395   0.29146   0.31194   0.33999
 Alpha virt. eigenvalues --    0.34495   0.34814   0.35442   0.36784   0.37123
 Alpha virt. eigenvalues --    0.38412   0.38797   0.40279   0.41159   0.43297
 Alpha virt. eigenvalues --    0.43489   0.44631   0.44835   0.46725   0.48158
 Alpha virt. eigenvalues --    0.48551   0.51227   0.52038   0.53174   0.54101
 Alpha virt. eigenvalues --    0.55068   0.56131   0.57094   0.57944   0.60148
 Alpha virt. eigenvalues --    0.62056   0.63100   0.65130   0.67950   0.69508
 Alpha virt. eigenvalues --    0.70845   0.72970   0.73217   0.74063   0.74900
 Alpha virt. eigenvalues --    0.75583   0.79934   0.80677   0.84785   0.85973
 Alpha virt. eigenvalues --    0.87497   0.88750   0.92448   0.94050   0.99394
 Alpha virt. eigenvalues --    1.00334   1.01829   1.05477   1.06019   1.07325
 Alpha virt. eigenvalues --    1.10140   1.11487   1.12784   1.13208   1.14900
 Alpha virt. eigenvalues --    1.22686   1.25133   1.27369   1.33697   1.37193
 Alpha virt. eigenvalues --    1.37552   1.38826   1.46102   1.55091   1.57811
 Alpha virt. eigenvalues --    1.59203   1.59502   1.61306   1.63086   1.67105
 Alpha virt. eigenvalues --    1.69831   1.70565   1.74255   1.75951   1.79759
 Alpha virt. eigenvalues --    1.81808   1.86120   1.88174   1.95545   1.97627
 Alpha virt. eigenvalues --    1.99253   2.03632   2.04642   2.08064   2.09081
 Alpha virt. eigenvalues --    2.10676   2.15539   2.21043   2.23311   2.29930
 Alpha virt. eigenvalues --    2.38172   2.41824   2.43032   2.44138   2.53178
 Alpha virt. eigenvalues --    2.57282   2.63717   2.66789   2.68885   2.72402
 Alpha virt. eigenvalues --    2.74070   2.77191   2.78029   2.81740   2.82586
 Alpha virt. eigenvalues --    2.94376   2.97104   3.01330   3.06354   3.09690
 Alpha virt. eigenvalues --    3.13645   3.15643   3.19714   3.24373   3.24953
 Alpha virt. eigenvalues --    3.28034   3.39805   3.48302   3.51933   3.55195
 Alpha virt. eigenvalues --    3.57554   3.70622   3.74805   3.82909   3.87945
 Alpha virt. eigenvalues --    4.11280   4.11497   4.18792   4.24045   4.44804
 Alpha virt. eigenvalues --    4.45036   4.58241   4.60598   4.93879   4.96541
 Alpha virt. eigenvalues --    5.05193   5.09361   5.63517   6.16448   6.66884
 Alpha virt. eigenvalues --    7.49990   7.51546   7.61198  23.22100  23.62022
 Alpha virt. eigenvalues --   23.70627  23.80289  23.96749  24.02141  35.33299
 Alpha virt. eigenvalues --   47.93359  49.86260  49.95070 289.82656 289.84323
 Alpha virt. eigenvalues --  289.967351020.93732
          Condensed to atoms (all electrons):
               1          2          3          4          5          6
     1  C    8.832119  -1.971730  -0.163584  -1.333741  -0.647937   0.305427
     2  C   -1.971730  12.728381  -1.397042  -3.451760   0.615854  -0.015850
     3  C   -0.163584  -1.397042  13.399121  -3.615319  -0.992761   0.028394
     4  C   -1.333741  -3.451760  -3.615319  16.409361   0.979608   0.004865
     5  C   -0.647937   0.615854  -0.992761   0.979608   7.557061   0.014646
     6  H    0.305427  -0.015850   0.028394   0.004865   0.014646   0.339040
     7  H    0.066251   0.230372   0.077655  -0.032282  -0.022399  -0.001739
     8  H    0.005349  -0.009416   0.076269   0.226893  -0.021722   0.000003
     9  H    0.036619  -0.020397   0.002806  -0.006153   0.297838  -0.002377
    10  N   -0.121899   0.347866  -0.955385   0.293922  -0.000755  -0.000685
    11  O    0.018998  -0.049364  -0.250866  -0.057007  -0.058751  -0.000021
    12  O    0.309811  -0.094049  -0.270561  -0.023756  -0.044609   0.000055
    13  C    1.203021  -1.400121   0.714094  -3.626778  -1.647029  -0.002510
    14  H   -0.022188   0.001037   0.001325  -0.020650   0.006842  -0.000044
    15  Br   0.036908   0.020117   0.044732  -0.013239   0.006077  -0.000161
               7          8          9         10         11         12
     1  C    0.066251   0.005349   0.036619  -0.121899   0.018998   0.309811
     2  C    0.230372  -0.009416  -0.020397   0.347866  -0.049364  -0.094049
     3  C    0.077655   0.076269   0.002806  -0.955385  -0.250866  -0.270561
     4  C   -0.032282   0.226893  -0.006153   0.293922  -0.057007  -0.023756
     5  C   -0.022399  -0.021722   0.297838  -0.000755  -0.058751  -0.044609
     6  H   -0.001739   0.000003  -0.002377  -0.000685  -0.000021   0.000055
     7  H    0.301686   0.000015   0.000043  -0.025861  -0.001490   0.021898
     8  H    0.000015   0.300798   0.000155  -0.024053   0.023528  -0.000943
     9  H    0.000043   0.000155   0.335941   0.000509  -0.000011   0.000011
    10  N   -0.025861  -0.024053   0.000509   7.378262   0.191609   0.144886
    11  O   -0.001490   0.023528  -0.000011   0.191609   7.838625  -0.002735
    12  O    0.021898  -0.000943   0.000011   0.144886  -0.002735   7.885188
    13  C    0.019065   0.053000   0.011828  -0.120381   0.313952   0.042442
    14  H   -0.000042  -0.006701  -0.008007  -0.000971  -0.000127  -0.000015
    15  Br   0.000202   0.005706   0.004362   0.003837   0.001391   0.002725
              13         14         15
     1  C    1.203021  -0.022188   0.036908
     2  C   -1.400121   0.001037   0.020117
     3  C    0.714094   0.001325   0.044732
     4  C   -3.626778  -0.020650  -0.013239
     5  C   -1.647029   0.006842   0.006077
     6  H   -0.002510  -0.000044  -0.000161
     7  H    0.019065  -0.000042   0.000202
     8  H    0.053000  -0.006701   0.005706
     9  H    0.011828  -0.008007   0.004362
    10  N   -0.120381  -0.000971   0.003837
    11  O    0.313952  -0.000127   0.001391
    12  O    0.042442  -0.000015   0.002725
    13  C   10.472218   0.326444   0.101674
    14  H    0.326444   0.419645  -0.052595
    15  Br   0.101674  -0.052595  34.537818
 Mulliken charges:
               1
     1  C   -0.553424
     2  C    0.466102
     3  C   -0.698879
     4  C    0.266034
     5  C   -0.041963
     6  H    0.330958
     7  H    0.366627
     8  H    0.371119
     9  H    0.346830
    10  N   -0.110900
    11  O    0.032269
    12  O    0.029653
    13  C   -0.460919
    14  H    0.356047
    15  Br   0.300446
 Sum of Mulliken charges =   1.00000
 Mulliken charges with hydrogens summed into heavy atoms:
               1
     1  C   -0.222465
     2  C    0.832729
     3  C   -0.698879
     4  C    0.637153
     5  C    0.304867
    10  N   -0.110900
    11  O    0.032269
    12  O    0.029653
    13  C   -0.104872
    15  Br   0.300446
 Electronic spatial extent (au):  <R**2>=           2796.4478
 Charge=              1.0000 electrons
 Dipole moment (field-independent basis, Debye):
    X=             -1.1622    Y=             -1.1111    Z=             -2.3885  Tot=              2.8792
 Quadrupole moment (field-independent basis, Debye-Ang):
   XX=            -71.7305   YY=            -51.2970   ZZ=            -60.2372
   XY=              1.6864   XZ=              0.0168   YZ=              3.6715
 Traceless Quadrupole moment (field-independent basis, Debye-Ang):
   XX=            -10.6423   YY=              9.7912   ZZ=              0.8510
   XY=              1.6864   XZ=              0.0168   YZ=              3.6715
 Octapole moment (field-independent basis, Debye-Ang**2):
  XXX=           -302.0665  YYY=             83.9487  ZZZ=             66.6958  XYY=            -77.4827
  XXY=             29.4089  XXZ=             24.2994  XZZ=            -79.7752  YZZ=             10.9042
  YYZ=             18.1361  XYZ=             -4.7634
 Hexadecapole moment (field-independent basis, Debye-Ang**3):
 XXXX=          -2288.2270 YYYY=           -669.3125 ZZZZ=           -325.6187 XXXY=            -66.8791
 XXXZ=            -43.4207 YYYX=            -57.1568 YYYZ=           -143.0639 ZZZX=            -16.6337
 ZZZY=           -120.2445 XXYY=           -456.3234 XXZZ=           -367.7428 YYZZ=           -151.7291
 XXYZ=            -52.7028 YYXZ=             -1.8608 ZZXY=             -5.4137
 N-N= 7.376612731091D+02 E-N=-8.630139561935D+03  KE= 3.005833972998D+03
 No NMR shielding tensors so no spin-rotation constants.
 Leave Link  601 at Wed May  1 15:25:50 2024, MaxMem=  1207959552 cpu:               7.1 elap:               7.1
 (Enter /software/gaussian/g16-c01/sse4/g16/l9999.exe)
 Unable to Open any file for archive entry.
 1\1\GINC-BHX0011\SP\RwB97XD\6-311+G(d)\C6H5Br1N1O2(1+)\BWEIGHT\01-May-
 2024\0\\#P wB97XD/6-311+G* NoSymm #P Field=Z+136\\TitleMe\\1,1\C,0,0.0
 295,1.3397,0.0682\C,0,1.4348,1.2867,0.0064\C,0,2.1118,0.0511,-0.0054\C
 ,0,1.4451,-1.1372,0.0312\C,0,-0.6879,0.1682,0.11\H,0,-0.4713,2.2984,0.
 0781\H,0,2.0273,2.1965,-0.0322\H,0,1.9897,-2.0764,0.0232\H,0,-1.7716,0
 .1804,0.1582\N,0,3.5864,0.051,-0.0675\O,0,4.1471,-1.0597,-0.0881\O,0,4
 .145,1.1639,-0.0901\C,0,-0.0236,-1.1458,0.0835\H,0,-0.4367,-1.8725,0.7
 889\Br,0,-0.5359,-1.8697,-1.7408\\Version=ES64L-G16RevC.01\HF=-3010.54
 17701\RMSD=8.415e-09\Dipole=-2.3637637,0.7109495,0.2064807\Quadrupole=
 -7.912278,7.2795456,0.6327324,1.2537785,0.0124774,2.7296885\PG=C01 [X(
 C6H5Br1N1O2)]\\@
 The archive entry for this job was punched.


 LEARN FROM YESTERDAY,
 LIVE FOR TODAY,
 LOOK TO TOMORROW,
 REST THIS AFTERNOON.

           -- SNOOPY
 Job cpu time:       0 days  0 hours 17 minutes 49.5 seconds.
 Elapsed time:       0 days  0 hours 17 minutes 49.8 seconds.
 File lengths (MBytes):  RWF=     40 Int=      0 D2E=      0 Chk=     32 Scr=      1
 Normal termination of Gaussian 16 at Wed May  1 15:25:51 2024.
