 Entering Gaussian System, Link 0=g16
 Initial command:
 /software/gaussian/g16-c01/sse4/g16/l1.exe "/local_scratch/24657587/Gau-11425.inp" -scrdir="/local_scratch/24657587/"
 Entering Link 1 = /software/gaussian/g16-c01/sse4/g16/l1.exe PID=     11445.
  
 Copyright (c) 1988-2019, Gaussian, Inc.  All Rights Reserved.
  
 This is part of the Gaussian(R) 16 program.  It is based on
 the Gaussian(R) 09 system (copyright 2009, Gaussian, Inc.),
 the Gaussian(R) 03 system (copyright 2003, Gaussian, Inc.),
 the Gaussian(R) 98 system (copyright 1998, Gaussian, Inc.),
 the Gaussian(R) 94 system (copyright 1995, Gaussian, Inc.),
 the Gaussian 92(TM) system (copyright 1992, Gaussian, Inc.),
 the Gaussian 90(TM) system (copyright 1990, Gaussian, Inc.),
 the Gaussian 88(TM) system (copyright 1988, Gaussian, Inc.),
 the Gaussian 86(TM) system (copyright 1986, Carnegie Mellon
 University), and the Gaussian 82(TM) system (copyright 1983,
 Carnegie Mellon University). Gaussian is a federally registered
 trademark of Gaussian, Inc.
  
 This software contains proprietary and confidential information,
 including trade secrets, belonging to Gaussian, Inc.
  
 This software is provided under written license and may be
 used, copied, transmitted, or stored only in accord with that
 written license.
  
 The following legend is applicable only to US Government
 contracts under FAR:
  
                    RESTRICTED RIGHTS LEGEND
  
 Use, reproduction and disclosure by the US Government is
 subject to restrictions as set forth in subparagraphs (a)
 and (c) of the Commercial Computer Software - Restricted
 Rights clause in FAR 52.227-19.
  
 Gaussian, Inc.
 340 Quinnipiac St., Bldg. 40, Wallingford CT 06492
  
  
 ---------------------------------------------------------------
 Warning -- This program may not be used in any manner that
 competes with the business of Gaussian, Inc. or will provide
 assistance to any competitor of Gaussian, Inc.  The licensee
 of this program is prohibited from giving any competitor of
 Gaussian, Inc. access to this program.  By using this program,
 the user acknowledges that Gaussian, Inc. is engaged in the
 business of creating and licensing software in the field of
 computational chemistry and represents and warrants to the
 licensee that it is not a competitor of Gaussian, Inc. and that
 it will not use this program in any manner prohibited above.
 ---------------------------------------------------------------
  

 Cite this work as:
 Gaussian 16, Revision C.01,
 M. J. Frisch, G. W. Trucks, H. B. Schlegel, G. E. Scuseria, 
 M. A. Robb, J. R. Cheeseman, G. Scalmani, V. Barone, 
 G. A. Petersson, H. Nakatsuji, X. Li, M. Caricato, A. V. Marenich, 
 J. Bloino, B. G. Janesko, R. Gomperts, B. Mennucci, H. P. Hratchian, 
 J. V. Ortiz, A. F. Izmaylov, J. L. Sonnenberg, D. Williams-Young, 
 F. Ding, F. Lipparini, F. Egidi, J. Goings, B. Peng, A. Petrone, 
 T. Henderson, D. Ranasinghe, V. G. Zakrzewski, J. Gao, N. Rega, 
 G. Zheng, W. Liang, M. Hada, M. Ehara, K. Toyota, R. Fukuda, 
 J. Hasegawa, M. Ishida, T. Nakajima, Y. Honda, O. Kitao, H. Nakai, 
 T. Vreven, K. Throssell, J. A. Montgomery, Jr., J. E. Peralta, 
 F. Ogliaro, M. J. Bearpark, J. J. Heyd, E. N. Brothers, K. N. Kudin, 
 V. N. Staroverov, T. A. Keith, R. Kobayashi, J. Normand, 
 K. Raghavachari, A. P. Rendell, J. C. Burant, S. S. Iyengar, 
 J. Tomasi, M. Cossi, J. M. Millam, M. Klene, C. Adamo, R. Cammi, 
 J. W. Ochterski, R. L. Martin, K. Morokuma, O. Farkas, 
 J. B. Foresman, and D. J. Fox, Gaussian, Inc., Wallingford CT, 2019.
 
 ******************************************
 Gaussian 16:  ES64L-G16RevC.01  3-Jul-2019
                 1-May-2024 
 ******************************************
 %chk=geometry.chk
 %mem=9GB
 %nprocshared=12
 Will use up to   12 processors via shared memory.
 ----------------------------------------
 #P wB97XD/6-311+G* NoSymm #P Field=Z+252
 ----------------------------------------
 1/38=1,172=1/1;
 2/12=2,15=1,17=6,18=5,40=1/2;
 3/5=4,6=6,7=11,11=2,14=3,15=252,25=1,30=1,74=-58/1,2,3;
 4//1;
 5/5=2,38=5/2;
 6/7=2,8=2,9=2,10=2,28=1/1;
 99/5=1,9=1/99;
 Leave Link    1 at Wed May  1 15:11:07 2024, MaxMem=  1207959552 cpu:               2.2 elap:               2.2
 (Enter /software/gaussian/g16-c01/sse4/g16/l101.exe)
 -------
 TitleMe
 -------
 Symbolic Z-matrix:
 Charge =  1 Multiplicity = 1
 C                     0.0295    1.3397    0.0682 
 C                     1.4348    1.2867    0.0064 
 C                     2.1118    0.0511   -0.0054 
 C                     1.4451   -1.1372    0.0312 
 C                    -0.6879    0.1682    0.11 
 H                    -0.4713    2.2984    0.0781 
 H                     2.0273    2.1965   -0.0322 
 H                     1.9897   -2.0764    0.0232 
 H                    -1.7716    0.1804    0.1582 
 N                     3.5864    0.051    -0.0675 
 O                     4.1471   -1.0597   -0.0881 
 O                     4.145     1.1639   -0.0901 
 C                    -0.0236   -1.1458    0.0835 
 H                    -0.4367   -1.8725    0.7889 
 Br                   -0.5359   -1.8697   -1.7408 
 
 ITRead=  0  0  0  0  0  0  0  0  0  0  0  0  0  0  0
 MicOpt= -1 -1 -1 -1 -1 -1 -1 -1 -1 -1 -1 -1 -1 -1 -1
 NAtoms=     15 NQM=       15 NQMF=       0 NMMI=      0 NMMIF=      0
                NMic=       0 NMicF=      0.
                    Isotopes and Nuclear Properties:
 (Nuclear quadrupole moments (NQMom) in fm**2, nuclear magnetic moments (NMagM)
  in nuclear magnetons)

  Atom         1           2           3           4           5           6           7           8           9          10
 IAtWgt=          12          12          12          12          12           1           1           1           1          14
 AtmWgt=  12.0000000  12.0000000  12.0000000  12.0000000  12.0000000   1.0078250   1.0078250   1.0078250   1.0078250  14.0030740
 NucSpn=           0           0           0           0           0           1           1           1           1           2
 AtZEff=  -0.0000000  -0.0000000  -0.0000000  -0.0000000  -0.0000000  -0.0000000  -0.0000000  -0.0000000  -0.0000000  -0.0000000
 NQMom=    0.0000000   0.0000000   0.0000000   0.0000000   0.0000000   0.0000000   0.0000000   0.0000000   0.0000000   2.0440000
 NMagM=    0.0000000   0.0000000   0.0000000   0.0000000   0.0000000   2.7928460   2.7928460   2.7928460   2.7928460   0.4037610
 AtZNuc=   6.0000000   6.0000000   6.0000000   6.0000000   6.0000000   1.0000000   1.0000000   1.0000000   1.0000000   7.0000000

  Atom        11          12          13          14          15
 IAtWgt=          16          16          12           1          79
 AtmWgt=  15.9949146  15.9949146  12.0000000   1.0078250  78.9183361
 NucSpn=           0           0           0           1           3
 AtZEff=  -0.0000000  -0.0000000  -0.0000000  -0.0000000  -0.0000000
 NQMom=    0.0000000   0.0000000   0.0000000   0.0000000  31.3000000
 NMagM=    0.0000000   0.0000000   0.0000000   2.7928460   2.1063990
 AtZNuc=   8.0000000   8.0000000   6.0000000   1.0000000  35.0000000
 Leave Link  101 at Wed May  1 15:11:09 2024, MaxMem=  1207959552 cpu:               1.7 elap:               1.7
 (Enter /software/gaussian/g16-c01/sse4/g16/l202.exe)
                          Input orientation:                          
 ---------------------------------------------------------------------
 Center     Atomic      Atomic             Coordinates (Angstroms)
 Number     Number       Type             X           Y           Z
 ---------------------------------------------------------------------
      1          6           0        0.029500    1.339700    0.068200
      2          6           0        1.434800    1.286700    0.006400
      3          6           0        2.111800    0.051100   -0.005400
      4          6           0        1.445100   -1.137200    0.031200
      5          6           0       -0.687900    0.168200    0.110000
      6          1           0       -0.471300    2.298400    0.078100
      7          1           0        2.027300    2.196500   -0.032200
      8          1           0        1.989700   -2.076400    0.023200
      9          1           0       -1.771600    0.180400    0.158200
     10          7           0        3.586400    0.051000   -0.067500
     11          8           0        4.147100   -1.059700   -0.088100
     12          8           0        4.145000    1.163900   -0.090100
     13          6           0       -0.023600   -1.145800    0.083500
     14          1           0       -0.436700   -1.872500    0.788900
     15         35           0       -0.535900   -1.869700   -1.740800
 ---------------------------------------------------------------------
                    Distance matrix (angstroms):
                    1          2          3          4          5
     1  C    0.000000
     2  C    1.407656   0.000000
     3  C    2.449874   1.408963   0.000000
     4  C    2.853126   2.424049   1.363043   0.000000
     5  C    1.374344   2.401589   2.804523   2.501993   0.000000
     6  H    1.081667   2.159142   3.424870   3.934226   2.141421
     7  H    2.176095   1.086408   2.147231   3.384750   3.392128
     8  H    3.938800   3.408612   2.131193   1.085702   3.495040
     9  H    2.143837   3.395283   3.888995   3.478413   1.084840
    10  N    3.785591   2.482297   1.475907   2.450862   4.279589
    11  O    4.768247   3.587631   2.320164   2.705743   4.992415
    12  O    4.122294   2.714696   2.319353   3.549540   4.938459
    13  C    2.486114   2.837240   2.449573   1.469656   1.472614
    14  H    3.324903   3.754379   3.290289   2.157764   2.165286
    15  Br   3.727252   4.110867   3.702891   2.756973   2.757100
                    6          7          8          9         10
     6  H    0.000000
     7  H    2.503108   0.000000
     8  H    5.019802   4.273425   0.000000
     9  H    2.486588   4.304945   4.388479   0.000000
    10  N    4.640790   2.652397   2.661486   5.364313   0.000000
    11  O    5.712624   3.885809   2.387560   6.052233   1.244373
    12  O    4.756638   2.356750   3.893289   6.002923   1.245428
    13  C    3.473180   3.923079   2.218790   2.195425   3.806210
    14  H    4.231175   4.827242   2.552506   2.528663   4.540772
    15  Br   4.548146   5.101303   3.087568   3.055498   4.845862
                   11         12         13         14         15
    11  O    0.000000
    12  O    2.223602   0.000000
    13  C    4.175117   4.768865   0.000000
    14  H    4.737193   5.566358   1.093770   0.000000
    15  Br   5.031700   5.817075   2.028436   2.531646   0.000000
 Symmetry turned off by external request.
 Stoichiometry    C6H5BrNO2(1+)
 Framework group  C1[X(C6H5BrNO2)]
 Deg. of freedom    39
 Full point group                 C1      NOp   1
 Rotational constants (GHZ):           1.8252210           0.5518633           0.4576002
 Leave Link  202 at Wed May  1 15:11:10 2024, MaxMem=  1207959552 cpu:               1.2 elap:               1.2
 (Enter /software/gaussian/g16-c01/sse4/g16/l301.exe)
 Standard basis: 6-311+G(d) (5D, 7F)
 Ernie: Thresh=  0.10000D-02 Tol=  0.10000D-05 Strict=F.
 The following finite field(s) will be applied:
 An electric field of              0.0000  0.0000  0.0252
   261 basis functions,   443 primitive gaussians,   273 cartesian basis functions
    49 alpha electrons       49 beta electrons
       nuclear repulsion energy       739.2122215416 Hartrees.
 IExCor= 4639 DFT=T Ex+Corr=wB97XD ExCW=0 ScaHFX=  1.000000
 ScaDFX=  1.000000  1.000000  1.000000  1.000000 ScalE2=  1.000000  1.000000
 IRadAn=      5 IRanWt=     -1 IRanGd=            0 ICorTp=0 IEmpDi=121
 HFx  wShort=  0.000000 wLong=  0.200000 cFull=  0.222036 cShort=  0.000000 cLong=  0.777964
 DFx  wShort=  0.000000 wLong=  0.200000 cFull=  0.000000 cShort=  0.000000 cLong=  1.000000
 NAtoms=   15 NActive=   15 NUniq=   15 SFac= 1.00D+00 NAtFMM=   60 NAOKFM=F Big=F
 Integral buffers will be    131072 words long.
 Raffenetti 2 integral format.
 Two-electron integral symmetry is turned off.
 R6Disp:  Grimme-D2 Dispersion energy=       -0.0077368520 Hartrees.
 Nuclear repulsion after empirical dispersion term =      739.2044846896 Hartrees.
 Leave Link  301 at Wed May  1 15:11:11 2024, MaxMem=  1207959552 cpu:               0.9 elap:               0.9
 (Enter /software/gaussian/g16-c01/sse4/g16/l302.exe)
 NPDir=0 NMtPBC=     1 NCelOv=     1 NCel=       1 NClECP=     1 NCelD=      1
         NCelK=      1 NCelE2=     1 NClLst=     1 CellRange=     0.0.
 One-electron integrals computed using PRISM.
 NBasis=   261 RedAO= T EigKep=  2.35D-06  NBF=   261
 NBsUse=   261 1.00D-06 EigRej= -1.00D+00 NBFU=   261
 Precomputing XC quadrature grid using
 IXCGrd= 4 IRadAn=           5 IRanWt=          -1 IRanGd=           0 AccXCQ= 0.00D+00.
 Generated NRdTot=       0 NPtTot=           0 NUsed=           0 NTot=          32
 NSgBfM=   273   273   273   273   273 MxSgAt=    15 MxSgA2=    15.
 Leave Link  302 at Wed May  1 15:11:33 2024, MaxMem=  1207959552 cpu:              21.8 elap:              21.8
 (Enter /software/gaussian/g16-c01/sse4/g16/l303.exe)
 DipDrv:  MaxL=1.
 The nuclear repulsion energy is now       736.3450044081 hartrees.
 Leave Link  303 at Wed May  1 15:11:36 2024, MaxMem=  1207959552 cpu:               3.3 elap:               3.3
 (Enter /software/gaussian/g16-c01/sse4/g16/l401.exe)
 ExpMin= 3.50D-02 ExpMax= 4.40D+05 ExpMxC= 1.51D+04 IAcc=3 IRadAn=         5 AccDes= 0.00D+00
 Harris functional with IExCor= 4639 and IRadAn=       5 diagonalized for initial guess.
 HarFok:  IExCor= 4639 AccDes= 0.00D+00 IRadAn=         5 IDoV= 1 UseB2=F ITyADJ=14
 ICtDFT=  3500011 ScaDFX=  1.000000  1.000000  1.000000  1.000000
 FoFCou: FMM=F IPFlag=           0 FMFlag=      100000 FMFlg1=           0
         NFxFlg=           0 DoJE=T BraDBF=F KetDBF=T FulRan=T
         wScrn=  0.000000 ICntrl=       500 IOpCl=  0 I1Cent=   200000004 NGrid=           0
         NMat0=    1 NMatS0=      1 NMatT0=    0 NMatD0=    1 NMtDS0=    0 NMtDT0=    0
 Symmetry not used in FoFCou.
 Harris En= -2970.64314243893    
 JPrj=0 DoOrth=F DoCkMO=F.
 Leave Link  401 at Wed May  1 15:12:07 2024, MaxMem=  1207959552 cpu:              30.7 elap:              30.7
 (Enter /software/gaussian/g16-c01/sse4/g16/l502.exe)
 Two-electron integral symmetry not used.
 Closed shell SCF:
 Using DIIS extrapolation, IDIIS=  1040.
 NGot=  1207959552 LenX=  1207804877 LenY=  1207729907
 Requested convergence on RMS density matrix=1.00D-08 within 128 cycles.
 Requested convergence on MAX density matrix=1.00D-06.
 Requested convergence on             energy=1.00D-06.
 No special actions if energy rises.
 Fock matrices will be formed incrementally for  20 cycles.

 Cycle   1  Pass 1  IDiag  1:
 FoFJK:  IHMeth= 1 ICntrl=       0 DoSepK=T KAlg= 0 I1Cent=           0 FoldK=F
 IRaf=         1 NMat=       1 IRICut=       1 DoRegI=T DoRafI=F ISym2E= 0 IDoP0=0 IntGTp=1.
 FoFCou: FMM=F IPFlag=           0 FMFlag=      100000 FMFlg1=           0
         NFxFlg=           0 DoJE=T BraDBF=F KetDBF=F FulRan=T
         wScrn=  0.000000 ICntrl=       500 IOpCl=  0 I1Cent=           0 NGrid=           0
         NMat0=    1 NMatS0=      1 NMatT0=    0 NMatD0=    1 NMtDS0=    0 NMtDT0=    0
 Symmetry not used in FoFCou.
 E= -3009.63771926074    
 DIIS: error= 3.21D-01 at cycle   1 NSaved=   1.
 NSaved= 1 IEnMin= 1 EnMin= -3009.63771926074     IErMin= 1 ErrMin= 3.21D-01
 ErrMax= 3.21D-01  0.00D+00 EMaxC= 1.00D-01 BMatC= 1.21D+01 BMatP= 1.21D+01
 IDIUse=3 WtCom= 0.00D+00 WtEn= 1.00D+00
 Coeff-Com:  0.100D+01
 Coeff-En:   0.100D+01
 Coeff:      0.100D+01
 Gap=     0.348 Goal=   None    Shift=    0.000
 GapD=    0.348 DampG=1.000 DampE=0.250 DampFc=0.2500 IDamp=-1.
 Damping current iteration by 2.50D-01
 RMSDP=2.10D-01 MaxDP=2.93D+01              OVMax= 2.54D-01

 Cycle   2  Pass 1  IDiag  1:
 RMSU=  7.81D-03    CP:  8.03D-01
 E= -3009.96266709886     Delta-E=       -0.324947838115 Rises=F Damp=T
 DIIS: error= 2.25D-01 at cycle   2 NSaved=   2.
 NSaved= 2 IEnMin= 2 EnMin= -3009.96266709886     IErMin= 2 ErrMin= 2.25D-01
 ErrMax= 2.25D-01  0.00D+00 EMaxC= 1.00D-01 BMatC= 5.47D+00 BMatP= 1.21D+01
 IDIUse=3 WtCom= 0.00D+00 WtEn= 1.00D+00
 Coeff-Com: -0.178D+01 0.278D+01
 Coeff-En:   0.000D+00 0.100D+01
 Coeff:      0.000D+00 0.100D+01
 Gap=     0.280 Goal=   None    Shift=    0.000
 RMSDP=1.58D-01 MaxDP=2.19D+01 DE=-3.25D-01 OVMax= 6.51D-02

 Cycle   3  Pass 1  IDiag  1:
 RMSU=  6.66D-03    CP:  2.12D-01  3.00D+00
 E= -3010.37158559072     Delta-E=       -0.408918491861 Rises=F Damp=F
 DIIS: error= 6.73D-02 at cycle   3 NSaved=   3.
 NSaved= 3 IEnMin= 3 EnMin= -3010.37158559072     IErMin= 3 ErrMin= 6.73D-02
 ErrMax= 6.73D-02  0.00D+00 EMaxC= 1.00D-01 BMatC= 8.04D-01 BMatP= 5.47D+00
 IDIUse=3 WtCom= 3.27D-01 WtEn= 6.73D-01
 Coeff-Com:  0.259D+01-0.340D+01 0.181D+01
 Coeff-En:   0.661D-01 0.000D+00 0.934D+00
 Coeff:      0.892D+00-0.111D+01 0.122D+01
 Gap=     0.297 Goal=   None    Shift=    0.000
 RMSDP=9.77D-03 MaxDP=8.04D-01 DE=-4.09D-01 OVMax= 1.26D-01

 Cycle   4  Pass 1  IDiag  1:
 RMSU=  7.54D-03    CP:  2.33D-01  3.00D+00  1.36D+00
 E= -3010.50587101247     Delta-E=       -0.134285421746 Rises=F Damp=F
 DIIS: error= 3.66D-02 at cycle   4 NSaved=   4.
 NSaved= 4 IEnMin= 4 EnMin= -3010.50587101247     IErMin= 4 ErrMin= 3.66D-02
 ErrMax= 3.66D-02  0.00D+00 EMaxC= 1.00D-01 BMatC= 2.20D-01 BMatP= 8.04D-01
 IDIUse=3 WtCom= 6.34D-01 WtEn= 3.66D-01
 Coeff-Com: -0.335D+00 0.460D+00 0.171D+00 0.704D+00
 Coeff-En:   0.000D+00 0.000D+00 0.175D+00 0.825D+00
 Coeff:     -0.213D+00 0.292D+00 0.172D+00 0.748D+00
 Gap=     0.249 Goal=   None    Shift=    0.000
 RMSDP=8.23D-03 MaxDP=1.16D+00 DE=-1.34D-01 OVMax= 5.66D-02

 Cycle   5  Pass 1  IDiag  1:
 RMSU=  2.31D-03    CP:  2.05D-01  3.00D+00  1.27D+00  6.92D-01
 E= -3010.55487561461     Delta-E=       -0.049004602147 Rises=F Damp=F
 DIIS: error= 7.04D-03 at cycle   5 NSaved=   5.
 NSaved= 5 IEnMin= 5 EnMin= -3010.55487561461     IErMin= 5 ErrMin= 7.04D-03
 ErrMax= 7.04D-03  0.00D+00 EMaxC= 1.00D-01 BMatC= 8.47D-03 BMatP= 2.20D-01
 IDIUse=3 WtCom= 9.30D-01 WtEn= 7.04D-02
 Coeff-Com: -0.200D+00 0.270D+00 0.134D-01 0.364D+00 0.552D+00
 Coeff-En:   0.000D+00 0.000D+00 0.000D+00 0.000D+00 0.100D+01
 Coeff:     -0.186D+00 0.251D+00 0.125D-01 0.339D+00 0.583D+00
 Gap=     0.233 Goal=   None    Shift=    0.000
 RMSDP=7.99D-04 MaxDP=5.17D-02 DE=-4.90D-02 OVMax= 1.54D-02

 Cycle   6  Pass 1  IDiag  1:
 RMSU=  5.30D-04    CP:  2.03D-01  3.00D+00  1.30D+00  7.45D-01  9.03D-01
 E= -3010.55705788885     Delta-E=       -0.002182274236 Rises=F Damp=F
 DIIS: error= 1.22D-03 at cycle   6 NSaved=   6.
 NSaved= 6 IEnMin= 6 EnMin= -3010.55705788885     IErMin= 6 ErrMin= 1.22D-03
 ErrMax= 1.22D-03  0.00D+00 EMaxC= 1.00D-01 BMatC= 1.64D-04 BMatP= 8.47D-03
 IDIUse=3 WtCom= 9.88D-01 WtEn= 1.22D-02
 Coeff-Com: -0.107D+00 0.144D+00-0.151D-01 0.155D+00 0.317D+00 0.506D+00
 Coeff-En:   0.000D+00 0.000D+00 0.000D+00 0.000D+00 0.000D+00 0.100D+01
 Coeff:     -0.106D+00 0.142D+00-0.149D-01 0.154D+00 0.313D+00 0.512D+00
 Gap=     0.234 Goal=   None    Shift=    0.000
 RMSDP=3.61D-04 MaxDP=4.85D-02 DE=-2.18D-03 OVMax= 6.41D-03

 Cycle   7  Pass 1  IDiag  1:
 RMSU=  1.87D-04    CP:  2.03D-01  3.00D+00  1.30D+00  7.38D-01  9.78D-01
                    CP:  9.94D-01
 E= -3010.55723175220     Delta-E=       -0.000173863350 Rises=F Damp=F
 DIIS: error= 5.35D-04 at cycle   7 NSaved=   7.
 NSaved= 7 IEnMin= 7 EnMin= -3010.55723175220     IErMin= 7 ErrMin= 5.35D-04
 ErrMax= 5.35D-04  0.00D+00 EMaxC= 1.00D-01 BMatC= 3.84D-05 BMatP= 1.64D-04
 IDIUse=3 WtCom= 9.95D-01 WtEn= 5.35D-03
 Coeff-Com: -0.295D-01 0.390D-01-0.168D-01 0.161D-01 0.531D-01 0.302D+00
 Coeff-Com:  0.636D+00
 Coeff-En:   0.000D+00 0.000D+00 0.000D+00 0.000D+00 0.000D+00 0.000D+00
 Coeff-En:   0.100D+01
 Coeff:     -0.293D-01 0.388D-01-0.167D-01 0.160D-01 0.528D-01 0.301D+00
 Coeff:      0.638D+00
 Gap=     0.235 Goal=   None    Shift=    0.000
 RMSDP=2.15D-04 MaxDP=2.80D-02 DE=-1.74D-04 OVMax= 6.39D-03

 Cycle   8  Pass 1  IDiag  1:
 RMSU=  8.37D-05    CP:  2.02D-01  3.00D+00  1.30D+00  7.40D-01  1.03D+00
                    CP:  1.17D+00  1.23D+00
 E= -3010.55730656127     Delta-E=       -0.000074809074 Rises=F Damp=F
 DIIS: error= 1.84D-04 at cycle   8 NSaved=   8.
 NSaved= 8 IEnMin= 8 EnMin= -3010.55730656127     IErMin= 8 ErrMin= 1.84D-04
 ErrMax= 1.84D-04  0.00D+00 EMaxC= 1.00D-01 BMatC= 7.54D-06 BMatP= 3.84D-05
 IDIUse=3 WtCom= 9.98D-01 WtEn= 1.84D-03
 Coeff-Com:  0.135D-01-0.184D-01-0.417D-02-0.326D-01-0.689D-01-0.423D-01
 Coeff-Com:  0.261D+00 0.892D+00
 Coeff-En:   0.000D+00 0.000D+00 0.000D+00 0.000D+00 0.000D+00 0.000D+00
 Coeff-En:   0.000D+00 0.100D+01
 Coeff:      0.135D-01-0.184D-01-0.416D-02-0.325D-01-0.688D-01-0.422D-01
 Coeff:      0.261D+00 0.892D+00
 Gap=     0.235 Goal=   None    Shift=    0.000
 RMSDP=1.58D-04 MaxDP=1.48D-02 DE=-7.48D-05 OVMax= 6.33D-03

 Cycle   9  Pass 1  IDiag  1:
 RMSU=  4.35D-05    CP:  2.02D-01  3.00D+00  1.31D+00  7.41D-01  1.05D+00
                    CP:  1.34D+00  1.70D+00  1.40D+00
 E= -3010.55734577161     Delta-E=       -0.000039210333 Rises=F Damp=F
 DIIS: error= 6.71D-05 at cycle   9 NSaved=   9.
 NSaved= 9 IEnMin= 9 EnMin= -3010.55734577161     IErMin= 9 ErrMin= 6.71D-05
 ErrMax= 6.71D-05  0.00D+00 EMaxC= 1.00D-01 BMatC= 1.51D-06 BMatP= 7.54D-06
 IDIUse=1 WtCom= 1.00D+00 WtEn= 0.00D+00
 Coeff-Com:  0.773D-02-0.103D-01 0.293D-02-0.980D-02-0.280D-01-0.918D-01
 Coeff-Com: -0.142D+00 0.212D+00 0.106D+01
 Coeff:      0.773D-02-0.103D-01 0.293D-02-0.980D-02-0.280D-01-0.918D-01
 Coeff:     -0.142D+00 0.212D+00 0.106D+01
 Gap=     0.235 Goal=   None    Shift=    0.000
 RMSDP=7.65D-05 MaxDP=4.92D-03 DE=-3.92D-05 OVMax= 5.32D-03

 Cycle  10  Pass 1  IDiag  1:
 RMSU=  3.32D-05    CP:  2.02D-01  3.00D+00  1.31D+00  7.40D-01  1.06D+00
                    CP:  1.42D+00  1.82D+00  1.65D+00  1.71D+00
 E= -3010.55735965403     Delta-E=       -0.000013882428 Rises=F Damp=F
 DIIS: error= 2.45D-05 at cycle  10 NSaved=  10.
 NSaved=10 IEnMin=10 EnMin= -3010.55735965403     IErMin=10 ErrMin= 2.45D-05
 ErrMax= 2.45D-05  0.00D+00 EMaxC= 1.00D-01 BMatC= 3.34D-07 BMatP= 1.51D-06
 IDIUse=1 WtCom= 1.00D+00 WtEn= 0.00D+00
 Coeff-Com: -0.235D-02 0.324D-02 0.900D-03 0.489D-02 0.956D-02-0.215D-02
 Coeff-Com: -0.716D-01-0.120D+00 0.206D+00 0.971D+00
 Coeff:     -0.235D-02 0.324D-02 0.900D-03 0.489D-02 0.956D-02-0.215D-02
 Coeff:     -0.716D-01-0.120D+00 0.206D+00 0.971D+00
 Gap=     0.235 Goal=   None    Shift=    0.000
 RMSDP=6.42D-05 MaxDP=8.70D-03 DE=-1.39D-05 OVMax= 2.14D-03

 Cycle  11  Pass 1  IDiag  1:
 RMSU=  1.09D-05    CP:  2.02D-01  3.00D+00  1.31D+00  7.39D-01  1.06D+00
                    CP:  1.42D+00  1.80D+00  1.70D+00  2.18D+00  1.46D+00
 E= -3010.55736215035     Delta-E=       -0.000002496320 Rises=F Damp=F
 DIIS: error= 1.61D-05 at cycle  11 NSaved=  11.
 NSaved=11 IEnMin=11 EnMin= -3010.55736215035     IErMin=11 ErrMin= 1.61D-05
 ErrMax= 1.61D-05  0.00D+00 EMaxC= 1.00D-01 BMatC= 9.87D-08 BMatP= 3.34D-07
 IDIUse=1 WtCom= 1.00D+00 WtEn= 0.00D+00
 Coeff-Com: -0.165D-02 0.220D-02-0.287D-03 0.353D-02 0.107D-01 0.286D-01
 Coeff-Com:  0.302D-01-0.111D+00-0.306D+00 0.290D+00 0.105D+01
 Coeff:     -0.165D-02 0.220D-02-0.287D-03 0.353D-02 0.107D-01 0.286D-01
 Coeff:      0.302D-01-0.111D+00-0.306D+00 0.290D+00 0.105D+01
 Gap=     0.235 Goal=   None    Shift=    0.000
 RMSDP=3.44D-05 MaxDP=4.17D-03 DE=-2.50D-06 OVMax= 1.57D-03

 Cycle  12  Pass 1  IDiag  1:
 RMSU=  5.20D-06    CP:  2.02D-01  3.00D+00  1.31D+00  7.39D-01  1.06D+00
                    CP:  1.42D+00  1.77D+00  1.70D+00  2.50D+00  1.90D+00
                    CP:  1.31D+00
 E= -3010.55736292048     Delta-E=       -0.000000770127 Rises=F Damp=F
 DIIS: error= 4.84D-06 at cycle  12 NSaved=  12.
 NSaved=12 IEnMin=12 EnMin= -3010.55736292048     IErMin=12 ErrMin= 4.84D-06
 ErrMax= 4.84D-06  0.00D+00 EMaxC= 1.00D-01 BMatC= 1.76D-08 BMatP= 9.87D-08
 IDIUse=1 WtCom= 1.00D+00 WtEn= 0.00D+00
 Coeff-Com: -0.355D-03 0.461D-03-0.181D-03 0.750D-03 0.206D-02 0.942D-02
 Coeff-Com:  0.178D-01-0.292D-01-0.131D+00-0.242D-03 0.415D+00 0.715D+00
 Coeff:     -0.355D-03 0.461D-03-0.181D-03 0.750D-03 0.206D-02 0.942D-02
 Coeff:      0.178D-01-0.292D-01-0.131D+00-0.242D-03 0.415D+00 0.715D+00
 Gap=     0.235 Goal=   None    Shift=    0.000
 RMSDP=5.33D-06 MaxDP=4.87D-04 DE=-7.70D-07 OVMax= 3.05D-04

 Cycle  13  Pass 1  IDiag  1:
 RMSU=  2.92D-06    CP:  2.02D-01  3.00D+00  1.31D+00  7.39D-01  1.06D+00
                    CP:  1.42D+00  1.77D+00  1.70D+00  2.52D+00  1.97D+00
                    CP:  1.56D+00  1.17D+00
 E= -3010.55736297007     Delta-E=       -0.000000049590 Rises=F Damp=F
 DIIS: error= 3.11D-06 at cycle  13 NSaved=  13.
 NSaved=13 IEnMin=13 EnMin= -3010.55736297007     IErMin=13 ErrMin= 3.11D-06
 ErrMax= 3.11D-06  0.00D+00 EMaxC= 1.00D-01 BMatC= 2.05D-09 BMatP= 1.76D-08
 IDIUse=1 WtCom= 1.00D+00 WtEn= 0.00D+00
 Coeff-Com:  0.138D-03-0.184D-03-0.190D-04-0.560D-03-0.218D-02-0.475D-02
 Coeff-Com: -0.305D-02 0.180D-01 0.460D-01-0.767D-01-0.147D+00 0.169D+00
 Coeff-Com:  0.100D+01
 Coeff:      0.138D-03-0.184D-03-0.190D-04-0.560D-03-0.218D-02-0.475D-02
 Coeff:     -0.305D-02 0.180D-01 0.460D-01-0.767D-01-0.147D+00 0.169D+00
 Coeff:      0.100D+01
 Gap=     0.235 Goal=   None    Shift=    0.000
 RMSDP=2.90D-06 MaxDP=1.64D-04 DE=-4.96D-08 OVMax= 1.33D-04

 Cycle  14  Pass 1  IDiag  1:
 RMSU=  7.49D-07    CP:  2.02D-01  3.00D+00  1.31D+00  7.39D-01  1.06D+00
                    CP:  1.42D+00  1.77D+00  1.70D+00  2.52D+00  1.99D+00
                    CP:  1.65D+00  1.46D+00  1.29D+00
 E= -3010.55736297977     Delta-E=       -0.000000009700 Rises=F Damp=F
 DIIS: error= 1.10D-06 at cycle  14 NSaved=  14.
 NSaved=14 IEnMin=14 EnMin= -3010.55736297977     IErMin=14 ErrMin= 1.10D-06
 ErrMax= 1.10D-06  0.00D+00 EMaxC= 1.00D-01 BMatC= 2.95D-10 BMatP= 2.05D-09
 IDIUse=1 WtCom= 1.00D+00 WtEn= 0.00D+00
 Coeff-Com:  0.101D-03-0.135D-03 0.168D-04-0.208D-03-0.476D-03-0.156D-02
 Coeff-Com: -0.212D-02 0.625D-02 0.224D-01-0.171D-01-0.726D-01-0.430D-01
 Coeff-Com:  0.245D+00 0.863D+00
 Coeff:      0.101D-03-0.135D-03 0.168D-04-0.208D-03-0.476D-03-0.156D-02
 Coeff:     -0.212D-02 0.625D-02 0.224D-01-0.171D-01-0.726D-01-0.430D-01
 Coeff:      0.245D+00 0.863D+00
 Gap=     0.235 Goal=   None    Shift=    0.000
 RMSDP=1.03D-06 MaxDP=9.83D-05 DE=-9.70D-09 OVMax= 2.29D-05

 Cycle  15  Pass 1  IDiag  1:
 RMSU=  3.30D-07    CP:  2.02D-01  3.00D+00  1.31D+00  7.39D-01  1.06D+00
                    CP:  1.42D+00  1.77D+00  1.70D+00  2.52D+00  1.99D+00
                    CP:  1.67D+00  1.54D+00  1.49D+00  1.28D+00
 E= -3010.55736298063     Delta-E=       -0.000000000857 Rises=F Damp=F
 DIIS: error= 5.02D-07 at cycle  15 NSaved=  15.
 NSaved=15 IEnMin=15 EnMin= -3010.55736298063     IErMin=15 ErrMin= 5.02D-07
 ErrMax= 5.02D-07  0.00D+00 EMaxC= 1.00D-01 BMatC= 4.81D-11 BMatP= 2.95D-10
 IDIUse=1 WtCom= 1.00D+00 WtEn= 0.00D+00
 Coeff-Com:  0.303D-04-0.404D-04 0.959D-05-0.158D-04 0.114D-03 0.958D-04
 Coeff-Com: -0.359D-03-0.143D-03 0.254D-02 0.374D-02-0.971D-02-0.400D-01
 Coeff-Com: -0.339D-01 0.320D+00 0.758D+00
 Coeff:      0.303D-04-0.404D-04 0.959D-05-0.158D-04 0.114D-03 0.958D-04
 Coeff:     -0.359D-03-0.143D-03 0.254D-02 0.374D-02-0.971D-02-0.400D-01
 Coeff:     -0.339D-01 0.320D+00 0.758D+00
 Gap=     0.235 Goal=   None    Shift=    0.000
 RMSDP=2.86D-07 MaxDP=1.95D-05 DE=-8.57D-10 OVMax= 7.51D-06

 Cycle  16  Pass 1  IDiag  1:
 RMSU=  1.07D-07    CP:  2.02D-01  3.00D+00  1.31D+00  7.39D-01  1.06D+00
                    CP:  1.42D+00  1.77D+00  1.70D+00  2.51D+00  1.99D+00
                    CP:  1.68D+00  1.55D+00  1.53D+00  1.45D+00  1.08D+00
 E= -3010.55736298076     Delta-E=       -0.000000000131 Rises=F Damp=F
 DIIS: error= 1.70D-07 at cycle  16 NSaved=  16.
 NSaved=16 IEnMin=16 EnMin= -3010.55736298076     IErMin=16 ErrMin= 1.70D-07
 ErrMax= 1.70D-07  0.00D+00 EMaxC= 1.00D-01 BMatC= 5.82D-12 BMatP= 4.81D-11
 IDIUse=1 WtCom= 1.00D+00 WtEn= 0.00D+00
 Coeff-Com: -0.375D-05 0.497D-05 0.886D-06 0.230D-04 0.101D-03 0.288D-03
 Coeff-Com:  0.221D-03-0.111D-02-0.269D-02 0.469D-02 0.789D-02-0.726D-02
 Coeff-Com: -0.522D-01-0.457D-01 0.218D+00 0.878D+00
 Coeff:     -0.375D-05 0.497D-05 0.886D-06 0.230D-04 0.101D-03 0.288D-03
 Coeff:      0.221D-03-0.111D-02-0.269D-02 0.469D-02 0.789D-02-0.726D-02
 Coeff:     -0.522D-01-0.457D-01 0.218D+00 0.878D+00
 Gap=     0.235 Goal=   None    Shift=    0.000
 RMSDP=1.43D-07 MaxDP=9.71D-06 DE=-1.31D-10 OVMax= 3.60D-06

 Cycle  17  Pass 1  IDiag  1:
 RMSU=  3.56D-08    CP:  2.02D-01  3.00D+00  1.31D+00  7.39D-01  1.06D+00
                    CP:  1.42D+00  1.77D+00  1.70D+00  2.51D+00  1.99D+00
                    CP:  1.68D+00  1.56D+00  1.56D+00  1.51D+00  1.28D+00
                    CP:  1.06D+00
 E= -3010.55736298074     Delta-E=        0.000000000021 Rises=F Damp=F
 DIIS: error= 5.91D-08 at cycle  17 NSaved=  17.
 NSaved=17 IEnMin=16 EnMin= -3010.55736298076     IErMin=17 ErrMin= 5.91D-08
 ErrMax= 5.91D-08  0.00D+00 EMaxC= 1.00D-01 BMatC= 5.90D-13 BMatP= 5.82D-12
 IDIUse=1 WtCom= 1.00D+00 WtEn= 0.00D+00
 Coeff-Com: -0.218D-05 0.288D-05-0.486D-06 0.318D-05 0.847D-06 0.381D-04
 Coeff-Com:  0.854D-04-0.126D-03-0.632D-03 0.363D-03 0.195D-02 0.301D-02
 Coeff-Com: -0.335D-02-0.337D-01-0.628D-01 0.151D+00 0.944D+00
 Coeff:     -0.218D-05 0.288D-05-0.486D-06 0.318D-05 0.847D-06 0.381D-04
 Coeff:      0.854D-04-0.126D-03-0.632D-03 0.363D-03 0.195D-02 0.301D-02
 Coeff:     -0.335D-02-0.337D-01-0.628D-01 0.151D+00 0.944D+00
 Gap=     0.235 Goal=   None    Shift=    0.000
 RMSDP=5.13D-08 MaxDP=3.94D-06 DE= 2.09D-11 OVMax= 9.50D-07

 Cycle  18  Pass 1  IDiag  1:
 RMSU=  1.70D-08    CP:  2.02D-01  3.00D+00  1.31D+00  7.39D-01  1.06D+00
                    CP:  1.42D+00  1.77D+00  1.70D+00  2.51D+00  1.99D+00
                    CP:  1.68D+00  1.56D+00  1.56D+00  1.52D+00  1.33D+00
                    CP:  1.18D+00  1.35D+00
 E= -3010.55736298079     Delta-E=       -0.000000000056 Rises=F Damp=F
 DIIS: error= 1.48D-08 at cycle  18 NSaved=  18.
 NSaved=18 IEnMin=18 EnMin= -3010.55736298079     IErMin=18 ErrMin= 1.48D-08
 ErrMax= 1.48D-08  0.00D+00 EMaxC= 1.00D-01 BMatC= 1.16D-13 BMatP= 5.90D-13
 IDIUse=1 WtCom= 1.00D+00 WtEn= 0.00D+00
 Coeff-Com:  0.401D-06-0.544D-06-0.102D-06-0.266D-05-0.152D-04-0.285D-04
 Coeff-Com:  0.531D-06 0.100D-03 0.132D-03-0.501D-03-0.338D-03 0.213D-02
 Coeff-Com:  0.552D-02-0.566D-02-0.559D-01-0.632D-01 0.322D+00 0.796D+00
 Coeff:      0.401D-06-0.544D-06-0.102D-06-0.266D-05-0.152D-04-0.285D-04
 Coeff:      0.531D-06 0.100D-03 0.132D-03-0.501D-03-0.338D-03 0.213D-02
 Coeff:      0.552D-02-0.566D-02-0.559D-01-0.632D-01 0.322D+00 0.796D+00
 Gap=     0.235 Goal=   None    Shift=    0.000
 RMSDP=1.10D-08 MaxDP=5.62D-07 DE=-5.64D-11 OVMax= 2.56D-07

 Cycle  19  Pass 1  IDiag  1:
 RMSU=  3.82D-09    CP:  2.02D-01  3.00D+00  1.31D+00  7.39D-01  1.06D+00
                    CP:  1.42D+00  1.77D+00  1.70D+00  2.51D+00  1.99D+00
                    CP:  1.68D+00  1.56D+00  1.56D+00  1.52D+00  1.34D+00
                    CP:  1.21D+00  1.50D+00  1.10D+00
 E= -3010.55736298076     Delta-E=        0.000000000035 Rises=F Damp=F
 DIIS: error= 5.49D-09 at cycle  19 NSaved=  19.
 NSaved=19 IEnMin=18 EnMin= -3010.55736298079     IErMin=19 ErrMin= 5.49D-09
 ErrMax= 5.49D-09  0.00D+00 EMaxC= 1.00D-01 BMatC= 7.60D-15 BMatP= 1.16D-13
 IDIUse=1 WtCom= 1.00D+00 WtEn= 0.00D+00
 Coeff-Com:  0.129D-06-0.169D-06-0.163D-08-0.863D-06-0.418D-05-0.123D-04
 Coeff-Com: -0.110D-04 0.382D-04 0.115D-03-0.168D-03-0.324D-03 0.236D-03
 Coeff-Com:  0.164D-02 0.256D-02-0.821D-02-0.300D-01-0.759D-02 0.181D+00
 Coeff-Com:  0.861D+00
 Coeff:      0.129D-06-0.169D-06-0.163D-08-0.863D-06-0.418D-05-0.123D-04
 Coeff:     -0.110D-04 0.382D-04 0.115D-03-0.168D-03-0.324D-03 0.236D-03
 Coeff:      0.164D-02 0.256D-02-0.821D-02-0.300D-01-0.759D-02 0.181D+00
 Coeff:      0.861D+00
 Gap=     0.235 Goal=   None    Shift=    0.000
 RMSDP=5.82D-09 MaxDP=6.24D-07 DE= 3.46D-11 OVMax= 6.91D-08

 SCF Done:  E(RwB97XD) =  -3010.55736298     A.U. after   19 cycles
            NFock= 19  Conv=0.58D-08     -V/T= 2.0016
 KE= 3.005805079756D+03 PE=-8.628328828837D+03 EE= 1.875621381692D+03
 Leave Link  502 at Wed May  1 15:30:33 2024, MaxMem=  1207959552 cpu:            1106.3 elap:            1106.3
 (Enter /software/gaussian/g16-c01/sse4/g16/l601.exe)
 Copying SCF densities to generalized density rwf, IOpCl= 0 IROHF=0.

 **********************************************************************

            Population analysis using the SCF Density.

 **********************************************************************

 Alpha  occ. eigenvalues -- -483.27640 -62.82595 -56.62357 -56.61689 -56.61689
 Alpha  occ. eigenvalues --  -19.44804 -19.44751 -14.84293 -10.56434 -10.56023
 Alpha  occ. eigenvalues --  -10.55930 -10.55683 -10.55532 -10.51860  -8.98351
 Alpha  occ. eigenvalues --   -6.81209  -6.79045  -6.79038  -2.91069  -2.90496
 Alpha  occ. eigenvalues --   -2.90489  -2.88760  -2.88760  -1.48555  -1.31538
 Alpha  occ. eigenvalues --   -1.21216  -1.12346  -1.10339  -1.01278  -0.99843
 Alpha  occ. eigenvalues --   -0.93930  -0.89684  -0.84171  -0.79683  -0.79365
 Alpha  occ. eigenvalues --   -0.78829  -0.77225  -0.74969  -0.74706  -0.70399
 Alpha  occ. eigenvalues --   -0.68026  -0.66314  -0.61474  -0.58324  -0.55964
 Alpha  occ. eigenvalues --   -0.55077  -0.54526  -0.51909  -0.51337
 Alpha virt. eigenvalues --   -0.27886  -0.20308  -0.15520  -0.13660  -0.11514
 Alpha virt. eigenvalues --   -0.10630  -0.10290  -0.06897  -0.06361  -0.05486
 Alpha virt. eigenvalues --   -0.03169  -0.01630  -0.00641   0.00254   0.00557
 Alpha virt. eigenvalues --    0.02391   0.02680   0.03728   0.03956   0.04755
 Alpha virt. eigenvalues --    0.05546   0.06258   0.07269   0.07531   0.07922
 Alpha virt. eigenvalues --    0.08709   0.09076   0.09648   0.11327   0.11617
 Alpha virt. eigenvalues --    0.11922   0.12586   0.13102   0.13872   0.14462
 Alpha virt. eigenvalues --    0.16015   0.16371   0.16819   0.17455   0.18070
 Alpha virt. eigenvalues --    0.18366   0.18692   0.18937   0.19908   0.21117
 Alpha virt. eigenvalues --    0.21201   0.22754   0.23144   0.23889   0.26382
 Alpha virt. eigenvalues --    0.26879   0.29011   0.29992   0.32276   0.34493
 Alpha virt. eigenvalues --    0.35142   0.35357   0.36253   0.38601   0.38733
 Alpha virt. eigenvalues --    0.39332   0.40380   0.41575   0.42591   0.43676
 Alpha virt. eigenvalues --    0.44891   0.45239   0.46055   0.47206   0.48665
 Alpha virt. eigenvalues --    0.49500   0.51699   0.52740   0.53979   0.54429
 Alpha virt. eigenvalues --    0.55633   0.57007   0.57384   0.58766   0.60602
 Alpha virt. eigenvalues --    0.62603   0.63677   0.65898   0.68661   0.70188
 Alpha virt. eigenvalues --    0.71308   0.73348   0.73889   0.74703   0.75357
 Alpha virt. eigenvalues --    0.76404   0.80358   0.81166   0.86107   0.86501
 Alpha virt. eigenvalues --    0.88303   0.89322   0.92859   0.94751   0.99930
 Alpha virt. eigenvalues --    1.00854   1.02325   1.05945   1.06473   1.07820
 Alpha virt. eigenvalues --    1.10850   1.11783   1.13270   1.13709   1.15315
 Alpha virt. eigenvalues --    1.23067   1.25503   1.27747   1.34126   1.37601
 Alpha virt. eigenvalues --    1.37949   1.39343   1.46740   1.55517   1.58229
 Alpha virt. eigenvalues --    1.59632   1.59943   1.61725   1.63500   1.67589
 Alpha virt. eigenvalues --    1.70244   1.71096   1.74670   1.76335   1.80190
 Alpha virt. eigenvalues --    1.82201   1.86501   1.88655   1.96788   1.99161
 Alpha virt. eigenvalues --    2.00633   2.04062   2.05167   2.08717   2.09777
 Alpha virt. eigenvalues --    2.11636   2.16043   2.21414   2.23678   2.30250
 Alpha virt. eigenvalues --    2.38480   2.42201   2.43279   2.44512   2.53594
 Alpha virt. eigenvalues --    2.57621   2.64117   2.67206   2.69287   2.72784
 Alpha virt. eigenvalues --    2.74457   2.77576   2.78417   2.82132   2.83100
 Alpha virt. eigenvalues --    2.94922   2.97560   3.01701   3.06816   3.10146
 Alpha virt. eigenvalues --    3.14012   3.16061   3.20087   3.24767   3.25331
 Alpha virt. eigenvalues --    3.28405   3.40192   3.48689   3.52340   3.55604
 Alpha virt. eigenvalues --    3.57956   3.70995   3.75198   3.83352   3.88415
 Alpha virt. eigenvalues --    4.13008   4.13209   4.20343   4.25630   4.45397
 Alpha virt. eigenvalues --    4.46351   4.58730   4.60997   4.94249   4.96906
 Alpha virt. eigenvalues --    5.05559   5.09727   5.63889   6.16813   6.68526
 Alpha virt. eigenvalues --    7.51752   7.53295   7.62844  23.22570  23.62445
 Alpha virt. eigenvalues --   23.71269  23.80799  23.97149  24.02572  35.33666
 Alpha virt. eigenvalues --   47.94887  49.86611  49.95421 289.84147 289.85815
 Alpha virt. eigenvalues --  289.982021020.95208
          Condensed to atoms (all electrons):
               1          2          3          4          5          6
     1  C    8.977266  -1.767515  -0.566971  -1.110888  -0.766282   0.306951
     2  C   -1.767515  13.610051  -1.280875  -4.781345   0.753004  -0.024007
     3  C   -0.566971  -1.280875  14.246277  -4.399861  -0.771207   0.037767
     4  C   -1.110888  -4.781345  -4.399861  19.398770   0.609419   0.000848
     5  C   -0.766282   0.753004  -0.771207   0.609419   8.084841   0.008415
     6  H    0.306951  -0.024007   0.037767   0.000848   0.008415   0.340220
     7  H    0.061587   0.223682   0.082798  -0.028537  -0.025544  -0.001531
     8  H    0.008016  -0.008195   0.084181   0.197135  -0.024467   0.000002
     9  H    0.038414  -0.031405   0.003646  -0.004873   0.288273  -0.002264
    10  N   -0.105891   0.373724  -1.099406   0.340081  -0.012307  -0.000798
    11  O    0.026627   0.021083  -0.209411  -0.170206  -0.058426  -0.000030
    12  O    0.289723  -0.207844  -0.231020   0.076300  -0.049716   0.000123
    13  C    1.149161  -1.314884   0.746283  -4.354923  -1.942531   0.003314
    14  H   -0.039431   0.013486  -0.006794   0.036677   0.041471  -0.000002
    15  Br   0.036870   0.004648   0.049145  -0.057856  -0.051039   0.000112
               7          8          9         10         11         12
     1  C    0.061587   0.008016   0.038414  -0.105891   0.026627   0.289723
     2  C    0.223682  -0.008195  -0.031405   0.373724   0.021083  -0.207844
     3  C    0.082798   0.084181   0.003646  -1.099406  -0.209411  -0.231020
     4  C   -0.028537   0.197135  -0.004873   0.340081  -0.170206   0.076300
     5  C   -0.025544  -0.024467   0.288273  -0.012307  -0.058426  -0.049716
     6  H   -0.001531   0.000002  -0.002264  -0.000798  -0.000030   0.000123
     7  H    0.301103   0.000033   0.000088  -0.027425  -0.001482   0.021559
     8  H    0.000033   0.305741   0.000205  -0.026061   0.024110  -0.000863
     9  H    0.000088   0.000205   0.343410   0.000605  -0.000030   0.000020
    10  N   -0.027425  -0.026061   0.000605   7.475083   0.170212   0.118308
    11  O   -0.001482   0.024110  -0.000030   0.170212   7.856377  -0.009770
    12  O    0.021559  -0.000863   0.000020   0.118308  -0.009770   7.909302
    13  C    0.024309   0.071532   0.022546  -0.092129   0.313443   0.046766
    14  H   -0.000077  -0.009605  -0.010780  -0.001445   0.000003   0.000027
    15  Br   0.000515   0.007550   0.006628   0.003119   0.002003   0.003768
              13         14         15
     1  C    1.149161  -0.039431   0.036870
     2  C   -1.314884   0.013486   0.004648
     3  C    0.746283  -0.006794   0.049145
     4  C   -4.354923   0.036677  -0.057856
     5  C   -1.942531   0.041471  -0.051039
     6  H    0.003314  -0.000002   0.000112
     7  H    0.024309  -0.000077   0.000515
     8  H    0.071532  -0.009605   0.007550
     9  H    0.022546  -0.010780   0.006628
    10  N   -0.092129  -0.001445   0.003119
    11  O    0.313443   0.000003   0.002003
    12  O    0.046766   0.000027   0.003768
    13  C   11.328922   0.221933   0.227216
    14  H    0.221933   0.498437  -0.058599
    15  Br   0.227216  -0.058599  34.418374
 Mulliken charges:
               1
     1  C   -0.537639
     2  C    0.416393
     3  C   -0.684552
     4  C    0.249261
     5  C   -0.083904
     6  H    0.330878
     7  H    0.368922
     8  H    0.370688
     9  H    0.345517
    10  N   -0.115668
    11  O    0.035498
    12  O    0.033319
    13  C   -0.450958
    14  H    0.314700
    15  Br   0.407545
 Sum of Mulliken charges =   1.00000
 Mulliken charges with hydrogens summed into heavy atoms:
               1
     1  C   -0.206760
     2  C    0.785314
     3  C   -0.684552
     4  C    0.619949
     5  C    0.261613
    10  N   -0.115668
    11  O    0.035498
    12  O    0.033319
    13  C   -0.136258
    15  Br   0.407545
 Electronic spatial extent (au):  <R**2>=           2795.0074
 Charge=              1.0000 electrons
 Dipole moment (field-independent basis, Debye):
    X=             -1.4519    Y=             -1.5819    Z=             -4.4550  Tot=              4.9455
 Quadrupole moment (field-independent basis, Debye-Ang):
   XX=            -72.1687   YY=            -50.7165   ZZ=            -58.4420
   XY=              2.0386   XZ=             -0.9403   YZ=              5.3953
 Traceless Quadrupole moment (field-independent basis, Debye-Ang):
   XX=            -11.7263   YY=              9.7259   ZZ=              2.0005
   XY=              2.0386   XZ=             -0.9403   YZ=              5.3953
 Octapole moment (field-independent basis, Debye-Ang**2):
  XXX=           -304.2017  YYY=             80.7877  ZZZ=             57.7475  XYY=            -78.7178
  XXY=             28.8989  XXZ=             17.4192  XZZ=            -81.2944  YZZ=              6.4494
  YYZ=             11.8505  XYZ=             -5.9560
 Hexadecapole moment (field-independent basis, Debye-Ang**3):
 XXXX=          -2296.2378 YYYY=           -663.6376 ZZZZ=           -309.5080 XXXY=            -65.5389
 XXXZ=            -62.5087 YYYX=            -54.9862 YYYZ=           -132.7528 ZZZX=            -15.5916
 ZZZY=           -107.9892 XXYY=           -456.7331 XXZZ=           -366.4760 YYZZ=           -142.7778
 XXYZ=            -51.1948 YYXZ=             -1.7772 ZZXY=             -2.8397
 N-N= 7.363450044081D+02 E-N=-8.628328827671D+03  KE= 3.005805079756D+03
 No NMR shielding tensors so no spin-rotation constants.
 Leave Link  601 at Wed May  1 15:30:40 2024, MaxMem=  1207959552 cpu:               7.4 elap:               7.4
 (Enter /software/gaussian/g16-c01/sse4/g16/l9999.exe)
 Unable to Open any file for archive entry.
 1\1\GINC-BHX0030\SP\RwB97XD\6-311+G(d)\C6H5Br1N1O2(1+)\BWEIGHT\01-May-
 2024\0\\#P wB97XD/6-311+G* NoSymm #P Field=Z+252\\TitleMe\\1,1\C,0,0.0
 295,1.3397,0.0682\C,0,1.4348,1.2867,0.0064\C,0,2.1118,0.0511,-0.0054\C
 ,0,1.4451,-1.1372,0.0312\C,0,-0.6879,0.1682,0.11\H,0,-0.4713,2.2984,0.
 0781\H,0,2.0273,2.1965,-0.0322\H,0,1.9897,-2.0764,0.0232\H,0,-1.7716,0
 .1804,0.1582\N,0,3.5864,0.051,-0.0675\O,0,4.1471,-1.0597,-0.0881\O,0,4
 .145,1.1639,-0.0901\C,0,-0.0236,-1.1458,0.0835\H,0,-0.4367,-1.8725,0.7
 889\Br,0,-0.5359,-1.8697,-1.7408\\Version=ES64L-G16RevC.01\HF=-3010.55
 7363\RMSD=5.825e-09\Dipole=-2.4777567,0.5257187,-0.6065671\Quadrupole=
 -8.7182415,7.2309559,1.4872857,1.5156769,-0.6990613,4.0112564\PG=C01 [
 X(C6H5Br1N1O2)]\\@
 The archive entry for this job was punched.


 PENOTUS DIED A HUNDRED YEARS OLD WANTING BUT TWO...
 AND HE USED TO SAY BEFORE HE DIED, HAVING SPENT HIS
 WHOLE LIFE IN VAINLY SEARCHING AFTER THE PHILOSOPHER'S
 STONE, THAT IF HE HAD A MORTAL ENEMY HE DID NOT DARE
 TO ENCOUNTER OPENLY, HE WOULD ADVISE HIM ABOVE ALL
 THINGS TO GIVE HIMSELF UP TO THE STUDY AND PRACTICE
 OF ALCHEMY.  --  NICOLAS LEMERY, M.D.
 "A COURSE OF CHYMISTRY", WALTER KETTILBY, LONDON, 1686
 Job cpu time:       0 days  0 hours 19 minutes 36.3 seconds.
 Elapsed time:       0 days  0 hours 19 minutes 36.3 seconds.
 File lengths (MBytes):  RWF=     40 Int=      0 D2E=      0 Chk=     32 Scr=      1
 Normal termination of Gaussian 16 at Wed May  1 15:30:41 2024.
