 Entering Gaussian System, Link 0=g16
 Initial command:
 /software/gaussian/g16-a03/l1.exe "/local_scratch/6484844/Gau-13794.inp" -scrdir="/local_scratch/6484844/"
 Entering Link 1 = /software/gaussian/g16-a03/l1.exe PID=     13901.
  
 Copyright (c) 1988,1990,1992,1993,1995,1998,2003,2009,2016,
            Gaussian, Inc.  All Rights Reserved.
  
 This is part of the Gaussian(R) 16 program.  It is based on
 the Gaussian(R) 09 system (copyright 2009, Gaussian, Inc.),
 the Gaussian(R) 03 system (copyright 2003, Gaussian, Inc.),
 the Gaussian(R) 98 system (copyright 1998, Gaussian, Inc.),
 the Gaussian(R) 94 system (copyright 1995, Gaussian, Inc.),
 the Gaussian 92(TM) system (copyright 1992, Gaussian, Inc.),
 the Gaussian 90(TM) system (copyright 1990, Gaussian, Inc.),
 the Gaussian 88(TM) system (copyright 1988, Gaussian, Inc.),
 the Gaussian 86(TM) system (copyright 1986, Carnegie Mellon
 University), and the Gaussian 82(TM) system (copyright 1983,
 Carnegie Mellon University). Gaussian is a federally registered
 trademark of Gaussian, Inc.
  
 This software contains proprietary and confidential information,
 including trade secrets, belonging to Gaussian, Inc.
  
 This software is provided under written license and may be
 used, copied, transmitted, or stored only in accord with that
 written license.
  
 The following legend is applicable only to US Government
 contracts under FAR:
  
                    RESTRICTED RIGHTS LEGEND
  
 Use, reproduction and disclosure by the US Government is
 subject to restrictions as set forth in subparagraphs (a)
 and (c) of the Commercial Computer Software - Restricted
 Rights clause in FAR 52.227-19.
  
 Gaussian, Inc.
 340 Quinnipiac St., Bldg. 40, Wallingford CT 06492
  
  
 ---------------------------------------------------------------
 Warning -- This program may not be used in any manner that
 competes with the business of Gaussian, Inc. or will provide
 assistance to any competitor of Gaussian, Inc.  The licensee
 of this program is prohibited from giving any competitor of
 Gaussian, Inc. access to this program.  By using this program,
 the user acknowledges that Gaussian, Inc. is engaged in the
 business of creating and licensing software in the field of
 computational chemistry and represents and warrants to the
 licensee that it is not a competitor of Gaussian, Inc. and that
 it will not use this program in any manner prohibited above.
 ---------------------------------------------------------------
  

 Cite this work as:
 Gaussian 16, Revision A.03,
 M. J. Frisch, G. W. Trucks, H. B. Schlegel, G. E. Scuseria, 
 M. A. Robb, J. R. Cheeseman, G. Scalmani, V. Barone, 
 G. A. Petersson, H. Nakatsuji, X. Li, M. Caricato, A. V. Marenich, 
 J. Bloino, B. G. Janesko, R. Gomperts, B. Mennucci, H. P. Hratchian, 
 J. V. Ortiz, A. F. Izmaylov, J. L. Sonnenberg, D. Williams-Young, 
 F. Ding, F. Lipparini, F. Egidi, J. Goings, B. Peng, A. Petrone, 
 T. Henderson, D. Ranasinghe, V. G. Zakrzewski, J. Gao, N. Rega, 
 G. Zheng, W. Liang, M. Hada, M. Ehara, K. Toyota, R. Fukuda, 
 J. Hasegawa, M. Ishida, T. Nakajima, Y. Honda, O. Kitao, H. Nakai, 
 T. Vreven, K. Throssell, J. A. Montgomery, Jr., J. E. Peralta, 
 F. Ogliaro, M. J. Bearpark, J. J. Heyd, E. N. Brothers, K. N. Kudin, 
 V. N. Staroverov, T. A. Keith, R. Kobayashi, J. Normand, 
 K. Raghavachari, A. P. Rendell, J. C. Burant, S. S. Iyengar, 
 J. Tomasi, M. Cossi, J. M. Millam, M. Klene, C. Adamo, R. Cammi, 
 J. W. Ochterski, R. L. Martin, K. Morokuma, O. Farkas, 
 J. B. Foresman, and D. J. Fox, Gaussian, Inc., Wallingford CT, 2016.
 
 ******************************************
 Gaussian 16:  ES64L-G16RevA.03 25-Dec-2016
                17-Sep-2021 
 ******************************************
 %chk=geometry.chk
 %mem=2GB
 %nprocshared=1
 Will use up to    1 processors via shared memory.
 --------------------------------------------------------------------
 #p B3LYP/6-311+G** #p TD=(singlets,nstates=30)IOp(6/8=3) IOp(9/40=4)
 --------------------------------------------------------------------
 1/38=1,172=1/1;
 2/12=2,17=6,18=5,40=1/2;
 3/5=4,6=6,7=111,11=9,25=1,30=1,74=-5/1,2,3,8;
 4//1;
 5/5=2,38=5/2;
 8/6=1,10=2,108=30/1;
 9/40=4,41=30,42=1,48=1,70=2/14;
 6/7=2,8=3,9=2,10=2/1;
 99/5=1,9=1/99;
 Leave Link    1 at Fri Sep 17 10:52:09 2021, MaxMem=   268435456 cpu:               0.0 elap:               0.4
 (Enter /software/gaussian/g16-a03/l101.exe)
 --------------------------------
 Scan Step 113, Bond Length 1.065
 --------------------------------
 Symbolic Z-matrix:
 Charge =  0 Multiplicity = 1
 C                     0.        0.       -0.52736 
 H                     0.        0.93726  -1.11871 
 H                     0.       -0.93726  -1.11871 
 O                     0.        0.        0.53764 
 
 ITRead=  0  0  0  0
 MicOpt= -1 -1 -1 -1
 NAtoms=      4 NQM=        4 NQMF=       0 NMMI=      0 NMMIF=      0
                NMic=       0 NMicF=      0.
                    Isotopes and Nuclear Properties:
 (Nuclear quadrupole moments (NQMom) in fm**2, nuclear magnetic moments (NMagM)
  in nuclear magnetons)

  Atom         1           2           3           4
 IAtWgt=          12           1           1          16
 AtmWgt=  12.0000000   1.0078250   1.0078250  15.9949146
 NucSpn=           0           1           1           0
 AtZEff=  -0.0000000  -0.0000000  -0.0000000  -0.0000000
 NQMom=    0.0000000   0.0000000   0.0000000   0.0000000
 NMagM=    0.0000000   2.7928460   2.7928460   0.0000000
 AtZNuc=   6.0000000   1.0000000   1.0000000   8.0000000
 Leave Link  101 at Fri Sep 17 10:52:11 2021, MaxMem=   268435456 cpu:               0.1 elap:               0.1
 (Enter /software/gaussian/g16-a03/l202.exe)
                          Input orientation:                          
 ---------------------------------------------------------------------
 Center     Atomic      Atomic             Coordinates (Angstroms)
 Number     Number       Type             X           Y           Z
 ---------------------------------------------------------------------
      1          6           0        0.000000    0.000000   -0.527360
      2          1           0        0.000000    0.937260   -1.118710
      3          1           0        0.000000   -0.937260   -1.118710
      4          8           0        0.000000    0.000000    0.537640
 ---------------------------------------------------------------------
                    Distance matrix (angstroms):
                    1          2          3          4
     1  C    0.000000
     2  H    1.108220   0.000000
     3  H    1.108220   1.874520   0.000000
     4  O    1.065000   1.903143   1.903143   0.000000
 Stoichiometry    CH2O
 Framework group  C2V[C2(CO),SGV(H2)]
 Deg. of freedom     3
 Full point group                 C2V     NOp   4
 Largest Abelian subgroup         C2V     NOp   4
 Largest concise Abelian subgroup C2      NOp   2
                         Standard orientation:                         
 ---------------------------------------------------------------------
 Center     Atomic      Atomic             Coordinates (Angstroms)
 Number     Number       Type             X           Y           Z
 ---------------------------------------------------------------------
      1          6           0        0.000000    0.000000   -0.458581
      2          1           0        0.000000    0.937260   -1.049931
      3          1           0       -0.000000   -0.937260   -1.049931
      4          8           0        0.000000   -0.000000    0.606419
 ---------------------------------------------------------------------
 Rotational constants (GHZ):         285.4183527          48.2078112          41.2419515
 Leave Link  202 at Fri Sep 17 10:52:11 2021, MaxMem=   268435456 cpu:               0.0 elap:               0.0
 (Enter /software/gaussian/g16-a03/l301.exe)
 Standard basis: 6-311+G(d,p) (5D, 7F)
 Ernie: Thresh=  0.10000D-02 Tol=  0.10000D-05 Strict=F.
 There are    29 symmetry adapted cartesian basis functions of A1  symmetry.
 There are     3 symmetry adapted cartesian basis functions of A2  symmetry.
 There are    11 symmetry adapted cartesian basis functions of B1  symmetry.
 There are    15 symmetry adapted cartesian basis functions of B2  symmetry.
 There are    27 symmetry adapted basis functions of A1  symmetry.
 There are     3 symmetry adapted basis functions of A2  symmetry.
 There are    11 symmetry adapted basis functions of B1  symmetry.
 There are    15 symmetry adapted basis functions of B2  symmetry.
    56 basis functions,    88 primitive gaussians,    58 cartesian basis functions
     8 alpha electrons        8 beta electrons
       nuclear repulsion energy        34.3114358178 Hartrees.
 IExCor=  402 DFT=T Ex+Corr=B3LYP ExCW=0 ScaHFX=  0.200000
 ScaDFX=  0.800000  0.720000  1.000000  0.810000 ScalE2=  1.000000  1.000000
 IRadAn=      5 IRanWt=     -1 IRanGd=            0 ICorTp=0 IEmpDi=  4
 NAtoms=    4 NActive=    4 NUniq=    3 SFac= 1.78D+00 NAtFMM=   60 NAOKFM=F Big=F
 Integral buffers will be    131072 words long.
 Regular integral format.
 Two-electron integral symmetry is turned on.
 Leave Link  301 at Fri Sep 17 10:52:11 2021, MaxMem=   268435456 cpu:               0.0 elap:               0.1
 (Enter /software/gaussian/g16-a03/l302.exe)
 NPDir=0 NMtPBC=     1 NCelOv=     1 NCel=       1 NClECP=     1 NCelD=      1
         NCelK=      1 NCelE2=     1 NClLst=     1 CellRange=     0.0.
 One-electron integrals computed using PRISM.
 One-electron integral symmetry used in STVInt
 NBasis=    56 RedAO= T EigKep=  2.53D-03  NBF=    27     3    11    15
 NBsUse=    56 1.00D-06 EigRej= -1.00D+00 NBFU=    27     3    11    15
 Precomputing XC quadrature grid using
 IXCGrd= 4 IRadAn=           5 IRanWt=          -1 IRanGd=           0 AccXCQ= 0.00D+00.
 Generated NRdTot=       0 NPtTot=           0 NUsed=           0 NTot=          32
 NSgBfM=    58    58    58    58    58 MxSgAt=     4 MxSgA2=     4.
 Leave Link  302 at Fri Sep 17 10:52:11 2021, MaxMem=   268435456 cpu:               0.1 elap:               0.1
 (Enter /software/gaussian/g16-a03/l303.exe)
 DipDrv:  MaxL=1.
 Leave Link  303 at Fri Sep 17 10:52:11 2021, MaxMem=   268435456 cpu:               0.0 elap:               0.0
 (Enter /software/gaussian/g16-a03/l308.exe)
 Leave Link  308 at Fri Sep 17 10:52:11 2021, MaxMem=   268435456 cpu:               0.0 elap:               0.0
 (Enter /software/gaussian/g16-a03/l401.exe)
 ExpMin= 4.38D-02 ExpMax= 8.59D+03 ExpMxC= 1.30D+03 IAcc=3 IRadAn=         5 AccDes= 0.00D+00
 Harris functional with IExCor=  402 and IRadAn=       5 diagonalized for initial guess.
 HarFok:  IExCor=  402 AccDes= 0.00D+00 IRadAn=         5 IDoV= 1 UseB2=F ITyADJ=14
 ICtDFT=  3500011 ScaDFX=  1.000000  1.000000  1.000000  1.000000
 FoFCou: FMM=F IPFlag=           0 FMFlag=      100000 FMFlg1=           0
         NFxFlg=           0 DoJE=T BraDBF=F KetDBF=T FulRan=T
         wScrn=  0.000000 ICntrl=       500 IOpCl=  0 I1Cent=   200000004 NGrid=           0
         NMat0=    1 NMatS0=      1 NMatT0=    0 NMatD0=    1 NMtDS0=    0 NMtDT0=    0
 Petite list used in FoFCou.
 Harris En= -114.527989586854    
 JPrj=0 DoOrth=F DoCkMO=F.
 Initial guess orbital symmetries:
       Occupied  (A1) (A1) (A1) (A1) (B2) (A1) (B1) (B2)
       Virtual   (B1) (A1) (A1) (B2) (B1) (A1) (B2) (A1) (B1) (B2)
                 (A1) (A1) (A1) (B2) (B1) (B2) (A1) (A1) (A2) (A1)
                 (B1) (B2) (B1) (A1) (A1) (B2) (B2) (B1) (A1) (A2)
                 (A1) (B2) (A1) (B2) (B1) (A1) (A2) (A1) (B1) (B2)
                 (A1) (A1) (B2) (B1) (B2) (A1) (A1) (A1)
 The electronic state of the initial guess is 1-A1.
 Leave Link  401 at Fri Sep 17 10:52:12 2021, MaxMem=   268435456 cpu:               0.3 elap:               0.3
 (Enter /software/gaussian/g16-a03/l502.exe)
 Keep R1 ints in memory in symmetry-blocked form, NReq=2159909.
 FoFCou: FMM=F IPFlag=           0 FMFlag=           0 FMFlg1=           0
         NFxFlg=           0 DoJE=F BraDBF=F KetDBF=F FulRan=T
         wScrn=  0.000000 ICntrl=       600 IOpCl=  0 I1Cent=           0 NGrid=           0
         NMat0=    1 NMatS0=   1596 NMatT0=    0 NMatD0=    1 NMtDS0=    0 NMtDT0=    0
 Petite list used in FoFCou.
 Closed shell SCF:
 Using DIIS extrapolation, IDIIS=  1040.
 NGot=   268435456 LenX=   268074384 LenY=   268070579
 Requested convergence on RMS density matrix=1.00D-08 within 128 cycles.
 Requested convergence on MAX density matrix=1.00D-06.
 Requested convergence on             energy=1.00D-06.
 No special actions if energy rises.

 Cycle   1  Pass 1  IDiag  1:
 E= -114.428484769330    
 DIIS: error= 4.75D-02 at cycle   1 NSaved=   1.
 NSaved= 1 IEnMin= 1 EnMin= -114.428484769330     IErMin= 1 ErrMin= 4.75D-02
 ErrMax= 4.75D-02  0.00D+00 EMaxC= 1.00D-01 BMatC= 1.09D-01 BMatP= 1.09D-01
 IDIUse=3 WtCom= 5.25D-01 WtEn= 4.75D-01
 Coeff-Com:  0.100D+01
 Coeff-En:   0.100D+01
 Coeff:      0.100D+01
 Gap=     0.181 Goal=   None    Shift=    0.000
 GapD=    0.181 DampG=1.000 DampE=0.500 DampFc=0.5000 IDamp=-1.
 Damping current iteration by 5.00D-01
 RMSDP=1.04D-02 MaxDP=1.16D-01              OVMax= 2.22D-01

 Cycle   2  Pass 1  IDiag  1:
 E= -114.444748088663     Delta-E=       -0.016263319334 Rises=F Damp=T
 DIIS: error= 2.16D-02 at cycle   2 NSaved=   2.
 NSaved= 2 IEnMin= 2 EnMin= -114.444748088663     IErMin= 2 ErrMin= 2.16D-02
 ErrMax= 2.16D-02  0.00D+00 EMaxC= 1.00D-01 BMatC= 1.40D-02 BMatP= 1.09D-01
 IDIUse=3 WtCom= 7.84D-01 WtEn= 2.16D-01
 Coeff-Com:  0.215D+00 0.785D+00
 Coeff-En:   0.386D+00 0.614D+00
 Coeff:      0.252D+00 0.748D+00
 Gap=     0.264 Goal=   None    Shift=    0.000
 RMSDP=2.37D-03 MaxDP=2.50D-02 DE=-1.63D-02 OVMax= 1.65D-01

 Cycle   3  Pass 1  IDiag  1:
 E= -114.498032030905     Delta-E=       -0.053283942241 Rises=F Damp=F
 DIIS: error= 9.50D-03 at cycle   3 NSaved=   3.
 NSaved= 3 IEnMin= 3 EnMin= -114.498032030905     IErMin= 3 ErrMin= 9.50D-03
 ErrMax= 9.50D-03  0.00D+00 EMaxC= 1.00D-01 BMatC= 4.42D-03 BMatP= 1.40D-02
 IDIUse=3 WtCom= 9.05D-01 WtEn= 9.50D-02
 Coeff-Com:  0.491D-01 0.370D+00 0.581D+00
 Coeff-En:   0.000D+00 0.000D+00 0.100D+01
 Coeff:      0.445D-01 0.335D+00 0.621D+00
 Gap=     0.241 Goal=   None    Shift=    0.000
 RMSDP=8.82D-04 MaxDP=1.92D-02 DE=-5.33D-02 OVMax= 3.12D-02

 Cycle   4  Pass 1  IDiag  1:
 E= -114.501325414211     Delta-E=       -0.003293383306 Rises=F Damp=F
 DIIS: error= 3.77D-03 at cycle   4 NSaved=   4.
 NSaved= 4 IEnMin= 4 EnMin= -114.501325414211     IErMin= 4 ErrMin= 3.77D-03
 ErrMax= 3.77D-03  0.00D+00 EMaxC= 1.00D-01 BMatC= 4.26D-04 BMatP= 4.42D-03
 IDIUse=3 WtCom= 9.62D-01 WtEn= 3.77D-02
 Coeff-Com: -0.775D-02 0.415D-01 0.266D+00 0.700D+00
 Coeff-En:   0.000D+00 0.000D+00 0.258D-01 0.974D+00
 Coeff:     -0.746D-02 0.400D-01 0.257D+00 0.710D+00
 Gap=     0.242 Goal=   None    Shift=    0.000
 RMSDP=2.48D-04 MaxDP=5.66D-03 DE=-3.29D-03 OVMax= 5.70D-03

 Cycle   5  Pass 1  IDiag  1:
 E= -114.501688364624     Delta-E=       -0.000362950414 Rises=F Damp=F
 DIIS: error= 2.15D-04 at cycle   5 NSaved=   5.
 NSaved= 5 IEnMin= 5 EnMin= -114.501688364624     IErMin= 5 ErrMin= 2.15D-04
 ErrMax= 2.15D-04  0.00D+00 EMaxC= 1.00D-01 BMatC= 1.96D-06 BMatP= 4.26D-04
 IDIUse=3 WtCom= 9.98D-01 WtEn= 2.15D-03
 Coeff-Com: -0.173D-03-0.260D-02 0.315D-01 0.121D+00 0.850D+00
 Coeff-En:   0.000D+00 0.000D+00 0.000D+00 0.000D+00 0.100D+01
 Coeff:     -0.173D-03-0.259D-02 0.314D-01 0.121D+00 0.850D+00
 Gap=     0.242 Goal=   None    Shift=    0.000
 RMSDP=3.07D-05 MaxDP=2.86D-04 DE=-3.63D-04 OVMax= 5.92D-04

 Cycle   6  Pass 1  IDiag  1:
 E= -114.501690353284     Delta-E=       -0.000001988660 Rises=F Damp=F
 DIIS: error= 1.29D-05 at cycle   6 NSaved=   6.
 NSaved= 6 IEnMin= 6 EnMin= -114.501690353284     IErMin= 6 ErrMin= 1.29D-05
 ErrMax= 1.29D-05  0.00D+00 EMaxC= 1.00D-01 BMatC= 8.01D-09 BMatP= 1.96D-06
 IDIUse=1 WtCom= 1.00D+00 WtEn= 0.00D+00
 Coeff-Com:  0.220D-03-0.634D-03-0.182D-02-0.262D-02 0.125D-01 0.992D+00
 Coeff:      0.220D-03-0.634D-03-0.182D-02-0.262D-02 0.125D-01 0.992D+00
 Gap=     0.242 Goal=   None    Shift=    0.000
 RMSDP=2.13D-06 MaxDP=2.12D-05 DE=-1.99D-06 OVMax= 3.89D-05

 Cycle   7  Pass 1  IDiag  1:
 E= -114.501690361829     Delta-E=       -0.000000008545 Rises=F Damp=F
 DIIS: error= 2.12D-06 at cycle   7 NSaved=   7.
 NSaved= 7 IEnMin= 7 EnMin= -114.501690361829     IErMin= 7 ErrMin= 2.12D-06
 ErrMax= 2.12D-06  0.00D+00 EMaxC= 1.00D-01 BMatC= 1.61D-10 BMatP= 8.01D-09
 IDIUse=1 WtCom= 1.00D+00 WtEn= 0.00D+00
 Coeff-Com:  0.611D-05-0.645D-05-0.252D-03-0.128D-02-0.902D-02 0.702D-01
 Coeff-Com:  0.940D+00
 Coeff:      0.611D-05-0.645D-05-0.252D-03-0.128D-02-0.902D-02 0.702D-01
 Coeff:      0.940D+00
 Gap=     0.242 Goal=   None    Shift=    0.000
 RMSDP=1.65D-07 MaxDP=2.72D-06 DE=-8.54D-09 OVMax= 4.02D-06

 Cycle   8  Pass 1  IDiag  1:
 E= -114.501690361971     Delta-E=       -0.000000000143 Rises=F Damp=F
 DIIS: error= 5.29D-07 at cycle   8 NSaved=   8.
 NSaved= 8 IEnMin= 8 EnMin= -114.501690361971     IErMin= 8 ErrMin= 5.29D-07
 ErrMax= 5.29D-07  0.00D+00 EMaxC= 1.00D-01 BMatC= 5.45D-12 BMatP= 1.61D-10
 IDIUse=1 WtCom= 1.00D+00 WtEn= 0.00D+00
 Coeff-Com: -0.202D-05 0.455D-05 0.114D-04-0.131D-03-0.137D-02-0.547D-02
 Coeff-Com:  0.132D+00 0.874D+00
 Coeff:     -0.202D-05 0.455D-05 0.114D-04-0.131D-03-0.137D-02-0.547D-02
 Coeff:      0.132D+00 0.874D+00
 Gap=     0.242 Goal=   None    Shift=    0.000
 RMSDP=5.88D-08 MaxDP=5.76D-07 DE=-1.43D-10 OVMax= 8.08D-07

 Cycle   9  Pass 1  IDiag  1:
 E= -114.501690361976     Delta-E=       -0.000000000004 Rises=F Damp=F
 DIIS: error= 2.75D-08 at cycle   9 NSaved=   9.
 NSaved= 9 IEnMin= 9 EnMin= -114.501690361976     IErMin= 9 ErrMin= 2.75D-08
 ErrMax= 2.75D-08  0.00D+00 EMaxC= 1.00D-01 BMatC= 4.22D-14 BMatP= 5.45D-12
 IDIUse=1 WtCom= 1.00D+00 WtEn= 0.00D+00
 Coeff-Com: -0.115D-06 0.387D-06 0.267D-05-0.296D-05-0.685D-05-0.150D-02
 Coeff-Com: -0.465D-02 0.428D-01 0.963D+00
 Coeff:     -0.115D-06 0.387D-06 0.267D-05-0.296D-05-0.685D-05-0.150D-02
 Coeff:     -0.465D-02 0.428D-01 0.963D+00
 Gap=     0.242 Goal=   None    Shift=    0.000
 RMSDP=2.95D-09 MaxDP=5.74D-08 DE=-4.26D-12 OVMax= 5.89D-08

 SCF Done:  E(RB3LYP) =  -114.501690362     A.U. after    9 cycles
            NFock=  9  Conv=0.30D-08     -V/T= 1.9970
 KE= 1.148518605159D+02 PE=-3.379686004258D+02 EE= 7.430361373013D+01
 Leave Link  502 at Fri Sep 17 10:52:13 2021, MaxMem=   268435456 cpu:               1.6 elap:               1.8
 (Enter /software/gaussian/g16-a03/l801.exe)
 DoSCS=F DFT=T ScalE2(SS,OS)=  1.000000  1.000000
 ExpMin= 4.38D-02 ExpMax= 8.59D+03 ExpMxC= 1.30D+03 IAcc=3 IRadAn=         5 AccDes= 0.00D+00
 HarFok:  IExCor=  205 AccDes= 0.00D+00 IRadAn=         5 IDoV=-2 UseB2=F ITyADJ=14
 ICtDFT= 12500011 ScaDFX=  1.000000  1.000000  1.000000  1.000000
 Largest valence mixing into a core orbital is  4.18D-05
 Largest core mixing into a valence orbital is  8.47D-06
 Range of M.O.s used for correlation:     3    56
 NBasis=    56 NAE=     8 NBE=     8 NFC=     2 NFV=     0
 NROrb=     54 NOA=     6 NOB=     6 NVA=    48 NVB=    48
 Leave Link  801 at Fri Sep 17 10:52:14 2021, MaxMem=   268435456 cpu:               0.2 elap:               0.2
 (Enter /software/gaussian/g16-a03/l914.exe)
 RHF ground state
 Keep R1, R2, and R3 ints in memory in symmetry-blocked form, NReq=6042848.
 FoFCou: FMM=F IPFlag=           0 FMFlag=           0 FMFlg1=           0
         NFxFlg=           0 DoJE=F BraDBF=F KetDBF=F FulRan=T
         wScrn=  0.000000 ICntrl=       600 IOpCl=  0 I1Cent=           0 NGrid=           0
         NMat0=    1 NMatS0=   1596 NMatT0=    0 NMatD0=    1 NMtDS0=    0 NMtDT0=    0
 Petite list used in FoFCou.
 MDV=   268435456 DFT=T DoStab=F Mixed=T DoRPA=T DoScal=F NonHer=T
 Making orbital integer symmetry assigments:
 Orbital symmetries:
       Occupied  (A1) (A1) (A1) (A1) (B2) (A1) (B1) (B2)
       Virtual   (B1) (A1) (A1) (B2) (B1) (A1) (A1) (B2) (B1) (B2)
                 (A1) (A1) (A1) (B2) (B1) (B2) (A1) (A1) (A2) (B1)
                 (B2) (A1) (B1) (A1) (A1) (B2) (B2) (B1) (A1) (A2)
                 (A1) (B2) (A1) (B2) (A1) (B1) (A2) (A1) (B1) (B2)
                 (A1) (A1) (B2) (B1) (B2) (A1) (A1) (A1)
   120 initial guesses have been made.
 Convergence on wavefunction:    0.001000000000000
 Davidson Disk Diagonalization:  ConvIn= 1.00D-03 SkipCon=T Conv= 1.00D-03.
 Max sub-space:  1728 roots to seek:   120 dimension of matrix:          576
 Iteration     1 Dimension   120 NMult     0 NNew    120
 CISAX will form   120 AO SS matrices at one time.
 NMat=   120 NSing=   120 JSym2X=-1.
 New state      7 was old state      9
 New state      9 was old state     10
 New state     10 was old state     17
 New state     17 was old state      7
 New state     20 was old state     21
 New state     21 was old state     20
 New state     25 was old state     27
 New state     26 was old state     25
 New state     27 was old state     28
 New state     28 was old state     29
 New state     29 was old state     30
 New state     30 was old state     26
 Excitation Energies [eV] at current iteration:
 Root      1 :     4.771528471135102
 Root      2 :     6.570316013526666
 Root      3 :     7.367362483264647
 Root      4 :     7.512709239719090
 Root      5 :     8.020833911829596
 Root      6 :    10.282725004792520
 Root      7 :    10.904993451832700
 Root      8 :    10.979177159656790
 Root      9 :    11.216821083276540
 Root     10 :    11.870281528214210
 Root     11 :    11.908309621306920
 Root     12 :    12.065090625396050
 Root     13 :    12.379521391865360
 Root     14 :    12.469815770476070
 Root     15 :    12.784590117526850
 Root     16 :    12.803614659774570
 Root     17 :    13.058982884544750
 Root     18 :    13.387605833285000
 Root     19 :    13.423703492585040
 Root     20 :    13.469670683076730
 Root     21 :    13.734512208987280
 Root     22 :    13.852069873400870
 Root     23 :    14.010423660590090
 Root     24 :    14.736871487830480
 Root     25 :    14.964237413714830
 Root     26 :    15.042367265927650
 Root     27 :    15.299890787048490
 Root     28 :    15.504424620071650
 Root     29 :    15.795924156849680
 Root     30 :    15.797807949524720
 Root     31 :    16.475409912046540
 Root     32 :    16.542321835034660
 Root     33 :    16.575645022530730
 Root     34 :    16.867992526505480
 Root     35 :    17.097153177033150
 Root     36 :    17.142345517922810
 Root     37 :    17.182675209705120
 Root     38 :    17.351381480318110
 Root     39 :    17.541184180939420
 Root     40 :    17.775292586567090
 Root     41 :    17.821830616212340
 Root     42 :    17.975274963704000
 Root     43 :    18.190502683577670
 Root     44 :    18.452122274259930
 Root     45 :    18.840235537246890
 Root     46 :    18.977365439117210
 Root     47 :    19.349567297584540
 Root     48 :    19.556694969826940
 Root     49 :    19.565277747513370
 Root     50 :    19.619330485272930
 Root     51 :    19.789514209325590
 Root     52 :    20.351727946131250
 Root     53 :    20.491052435203820
 Root     54 :    20.827095243630040
 Root     55 :    20.849999899802030
 Root     56 :    20.963620814175780
 Root     57 :    21.131613185044100
 Root     58 :    21.866635493885310
 Root     59 :    21.990662219217910
 Root     60 :    22.051861083349930
 Root     61 :    23.047639208727620
 Root     62 :    23.138682090069770
 Root     63 :    23.768527290008380
 Root     64 :    23.989453190296570
 Root     65 :    24.446315874799670
 Root     66 :    24.639589734572000
 Root     67 :    25.179337739977500
 Root     68 :    25.437964728744840
 Root     69 :    25.534624413392130
 Root     70 :    25.579411903019910
 Root     71 :    25.892709519712060
 Root     72 :    26.633808123288200
 Root     73 :    26.711750592906600
 Root     74 :    27.041797621835490
 Root     75 :    28.054871122446220
 Root     76 :    28.852364996273450
 Root     77 :    28.876552055272830
 Root     78 :    29.216832094614130
 Root     79 :    29.270354840639150
 Root     80 :    29.345458200781520
 Root     81 :    29.375168281812670
 Root     82 :    30.041487101475630
 Root     83 :    30.051722770803650
 Root     84 :    30.733891353849190
 Root     85 :    30.956446417004760
 Root     86 :    31.564578647280140
 Root     87 :    31.679752872154240
 Root     88 :    31.834403216919990
 Root     89 :    32.256060889094770
 Root     90 :    32.660465388996730
 Root     91 :    33.262773618579730
 Root     92 :    33.638144030532680
 Root     93 :    33.911402270246780
 Root     94 :    34.268201593353950
 Root     95 :    34.893561949726940
 Root     96 :    34.983804263955020
 Root     97 :    35.138392201947910
 Root     98 :    35.266837109426600
 Root     99 :    35.576786530814990
 Root    100 :    36.413679112893820
 Root    101 :    36.504149991511400
 Root    102 :    37.192293201984260
 Root    103 :    37.355294275249600
 Root    104 :    37.634733181291250
 Root    105 :    38.701584021569010
 Root    106 :    38.740858078123420
 Root    107 :    39.181218009654150
 Root    108 :    39.210073659115860
 Root    109 :    39.300389890652900
 Root    110 :    39.458120814223730
 Root    111 :    39.848515557009390
 Root    112 :    39.915581655209990
 Root    113 :    40.422322076416310
 Root    114 :    40.989933154981110
 Root    115 :    41.112058434037880
 Root    116 :    41.300789049693690
 Root    117 :    41.484088521609920
 Root    118 :    42.136856424506040
 Root    119 :    42.811196831327810
 Root    120 :    47.429871270179180
 Iteration     2 Dimension   180 NMult   120 NNew     60
 CISAX will form    60 AO SS matrices at one time.
 NMat=    60 NSing=    60 JSym2X=-1.
 Root      1 not converged, maximum delta is    0.005745467867973
 Root      2 not converged, maximum delta is    0.003755906579128
 Root      3 not converged, maximum delta is    0.002646238363855
 Root      4 not converged, maximum delta is    0.003391215896776
 Root      5 not converged, maximum delta is    0.001838714514444
 Root      6 not converged, maximum delta is    0.006357332356089
 Root      7 not converged, maximum delta is    0.011664148204848
 Root      8 not converged, maximum delta is    0.002221447570952
 Root      9 not converged, maximum delta is    0.016460606851344
 Root     10 not converged, maximum delta is    0.008401517894122
 Root     11 not converged, maximum delta is    0.001559099501751
 Root     12 not converged, maximum delta is    0.008184234909460
 Root     13 not converged, maximum delta is    0.065808000060409
 Root     14 not converged, maximum delta is    0.100941604538569
 Root     15 not converged, maximum delta is    0.005273570133492
 Root     16 has converged.
 Root     17 not converged, maximum delta is    0.052594451946232
 Root     18 not converged, maximum delta is    0.050479155842892
 Root     19 not converged, maximum delta is    0.011150101432542
 Root     20 not converged, maximum delta is    0.011035129023456
 Root     21 not converged, maximum delta is    0.029663866519040
 Root     22 not converged, maximum delta is    0.003473878619902
 Root     23 not converged, maximum delta is    0.008716371651684
 Root     24 not converged, maximum delta is    0.004955269548505
 Root     25 not converged, maximum delta is    0.030201417818661
 Root     26 not converged, maximum delta is    0.010366107359065
 Root     27 not converged, maximum delta is    0.002021185197776
 Root     28 not converged, maximum delta is    0.009586652007449
 New state     29 was old state     30
 Root     29 not converged, maximum delta is    0.066156215670914
 New state     30 was old state     29
 Root     30 not converged, maximum delta is    0.005122561890029
 Excitation Energies [eV] at current iteration:
 Root      1 :     4.759101865039780   Change is   -0.012426606095322
 Root      2 :     6.567752830404347   Change is   -0.002563183122320
 Root      3 :     7.361528836576713   Change is   -0.005833646687935
 Root      4 :     7.509775246678966   Change is   -0.002933993040123
 Root      5 :     8.019804335453280   Change is   -0.001029576376317
 Root      6 :    10.269496078073000   Change is   -0.013228926719520
 Root      7 :    10.833237376893990   Change is   -0.071756074938715
 Root      8 :    10.977174403199240   Change is   -0.002002756457551
 Root      9 :    11.181175008181280   Change is   -0.035646075095264
 Root     10 :    11.864904036063750   Change is   -0.005377492150462
 Root     11 :    11.907455415338790   Change is   -0.000854205968130
 Root     12 :    12.062212632572380   Change is   -0.002877992823669
 Root     13 :    12.338967143688200   Change is   -0.040554248177158
 Root     14 :    12.456834221732840   Change is   -0.012981548743236
 Root     15 :    12.779099239605700   Change is   -0.005490877921149
 Root     16 :    12.803226420538840   Change is   -0.000388239235724
 Root     17 :    13.014456649357350   Change is   -0.044526235187402
 Root     18 :    13.370558585566750   Change is   -0.017047247718249
 Root     19 :    13.421637029588430   Change is   -0.002066462996609
 Root     20 :    13.454028370794800   Change is   -0.015642312281925
 Root     21 :    13.685836754055540   Change is   -0.048675454931735
 Root     22 :    13.848183226591060   Change is   -0.003886646809813
 Root     23 :    14.002465011334850   Change is   -0.007958649255240
 Root     24 :    14.731581140532620   Change is   -0.005290347297866
 Root     25 :    14.946745218726380   Change is   -0.017492194988448
 Root     26 :    15.019448190226130   Change is   -0.022919075701512
 Root     27 :    15.299100030812120   Change is   -0.000790756236373
 Root     28 :    15.486763620432820   Change is   -0.017660999638826
 Root     29 :    15.696277265021740   Change is   -0.101530684502980
 Root     30 :    15.790798693940550   Change is   -0.005125462909129
 Iteration     3 Dimension   238 NMult   180 NNew     58
 CISAX will form    58 AO SS matrices at one time.
 NMat=    58 NSing=    58 JSym2X=-1.
 Root      1 has converged.
 Root      2 has converged.
 Root      3 has converged.
 Root      4 has converged.
 Root      5 has converged.
 Root      6 has converged.
 Root      7 has converged.
 Root      8 has converged.
 Root      9 has converged.
 Root     10 has converged.
 Root     11 has converged.
 Root     12 has converged.
 Root     13 has converged.
 Root     14 has converged.
 Root     15 has converged.
 Root     16 has converged.
 Root     17 has converged.
 Root     18 has converged.
 Root     19 has converged.
 Root     20 has converged.
 Root     21 has converged.
 Root     22 has converged.
 Root     23 has converged.
 Root     24 has converged.
 Root     25 has converged.
 Root     26 has converged.
 Root     27 has converged.
 Root     28 has converged.
 Root     29 has converged.
 Root     30 has converged.
 Excitation Energies [eV] at current iteration:
 Root      1 :     4.759099510237569   Change is   -0.000002354802210
 Root      2 :     6.567750696958573   Change is   -0.000002133445774
 Root      3 :     7.361526119405927   Change is   -0.000002717170785
 Root      4 :     7.509773218816956   Change is   -0.000002027862011
 Root      5 :     8.019804175903159   Change is   -0.000000159550120
 Root      6 :    10.269490112963670   Change is   -0.000005965109335
 Root      7 :    10.833098114872110   Change is   -0.000139262021876
 Root      8 :    10.977170737967670   Change is   -0.000003665231575
 Root      9 :    11.181135117292110   Change is   -0.000039890889164
 Root     10 :    11.864901882546630   Change is   -0.000002153517120
 Root     11 :    11.907454046673460   Change is   -0.000001368665324
 Root     12 :    12.062211696750110   Change is   -0.000000935822273
 Root     13 :    12.338881725542870   Change is   -0.000085418145329
 Root     14 :    12.456817051960390   Change is   -0.000017169772451
 Root     15 :    12.779085874692570   Change is   -0.000013364913131
 Root     16 :    12.803226253072820   Change is   -0.000000167466020
 Root     17 :    13.014377792035660   Change is   -0.000078857321694
 Root     18 :    13.370505712451030   Change is   -0.000052873115720
 Root     19 :    13.421634506220710   Change is   -0.000002523367716
 Root     20 :    13.454004390930750   Change is   -0.000023979864054
 Root     21 :    13.685758301671010   Change is   -0.000078452384528
 Root     22 :    13.848175430915860   Change is   -0.000007795675198
 Root     23 :    14.002443487284120   Change is   -0.000021524050732
 Root     24 :    14.731569392979530   Change is   -0.000011747553089
 Root     25 :    14.946707569953180   Change is   -0.000037648773197
 Root     26 :    15.019402741913310   Change is   -0.000045448312822
 Root     27 :    15.299099694953330   Change is   -0.000000335858789
 Root     28 :    15.486733623193470   Change is   -0.000029997239354
 Root     29 :    15.696165764338450   Change is   -0.000111500683292
 Root     30 :    15.790785992965850   Change is   -0.000012700974693
 Convergence achieved on expansion vectors.
 ***********************************************************************
 Excited states from <AA,BB:AA,BB> singles matrix:
 ***********************************************************************
 
 1PDM for each excited state written to RWF  633
 Ground to excited state transition densities written to RWF  633
 Ground to excited state transition electric dipole moments (Au):
       state          X           Y           Z        Dip. S.      Osc.
         1        -0.0000      0.0000     -0.0000      0.0000      0.0000
         2        -0.0000      0.5800     -0.0000      0.3364      0.0541
         3         0.0000      0.3429      0.0000      0.1176      0.0212
         4        -0.0000      0.0000     -0.5415      0.2932      0.0540
         5         0.0000      0.0000      0.0000      0.0000      0.0000
         6        -0.0000      0.8880      0.0000      0.7885      0.1984
         7         0.0204     -0.0000      0.0000      0.0004      0.0001
         8        -0.0000     -0.0723      0.0000      0.0052      0.0014
         9        -0.0000     -0.0000      0.1825      0.0333      0.0091
        10         0.0000      0.0000      0.0000      0.0000      0.0000
        11        -0.3744      0.0000     -0.0000      0.1401      0.0409
        12        -0.0000      0.0000     -0.0000      0.0000      0.0000
        13         0.0000      0.0000      0.0306      0.0009      0.0003
        14         0.0000      0.0000     -0.6954      0.4836      0.1476
        15         0.2866     -0.0000      0.0000      0.0821      0.0257
        16         0.0000      0.0000      0.0000      0.0000      0.0000
        17         0.0000     -0.0000      1.0645      1.1332      0.3613
        18        -0.0000      0.0000      0.3804      0.1447      0.0474
        19        -0.0000     -0.4843      0.0000      0.2346      0.0771
        20        -0.0000     -0.1097     -0.0000      0.0120      0.0040
        21        -0.0000     -0.0000     -0.5744      0.3300      0.1106
        22        -0.0000     -0.5413      0.0000      0.2931      0.0994
        23        -0.2703      0.0000      0.0000      0.0731      0.0251
        24        -0.0000      0.2268     -0.0000      0.0514      0.0186
        25        -0.1213     -0.0000      0.0000      0.0147      0.0054
        26         0.0000     -0.0000     -0.2054      0.0422      0.0155
        27        -0.0000      0.0000      0.0000      0.0000      0.0000
        28         0.0000     -0.2448      0.0000      0.0599      0.0227
        29        -0.6865     -0.0000      0.0000      0.4713      0.1812
        30        -0.0000      0.0000      0.0902      0.0081      0.0031
 Ground to excited state transition velocity dipole moments (Au):
       state          X           Y           Z        Dip. S.      Osc.
         1         0.0000     -0.0000      0.0000      0.0000      0.0000
         2         0.0000     -0.1388      0.0000      0.0193      0.0532
         3        -0.0000     -0.0969     -0.0000      0.0094      0.0232
         4         0.0000      0.0000      0.1442      0.0208      0.0502
         5        -0.0000     -0.0000     -0.0000      0.0000      0.0000
         6         0.0000     -0.3344      0.0000      0.1118      0.1975
         7        -0.0184     -0.0000     -0.0000      0.0003      0.0006
         8         0.0000     -0.0012      0.0000      0.0000      0.0000
         9         0.0000     -0.0000     -0.0664      0.0044      0.0072
        10        -0.0000      0.0000     -0.0000      0.0000      0.0000
        11         0.1672     -0.0000      0.0000      0.0279      0.0426
        12         0.0000     -0.0000      0.0000      0.0000      0.0000
        13         0.0000     -0.0000     -0.0171      0.0003      0.0004
        14         0.0000     -0.0000      0.3146      0.0989      0.1441
        15        -0.1436     -0.0000     -0.0000      0.0206      0.0293
        16        -0.0000     -0.0000     -0.0000      0.0000      0.0000
        17        -0.0000     -0.0000     -0.5062      0.2563      0.3572
        18         0.0000     -0.0000     -0.1928      0.0372      0.0504
        19         0.0000      0.2430     -0.0000      0.0590      0.0798
        20         0.0000      0.0645     -0.0000      0.0042      0.0056
        21         0.0000      0.0000      0.2926      0.0856      0.1135
        22         0.0000      0.2735     -0.0000      0.0748      0.0980
        23         0.1328      0.0000     -0.0000      0.0176      0.0229
        24         0.0000     -0.1269      0.0000      0.0161      0.0198
        25         0.0858      0.0000     -0.0000      0.0074      0.0089
        26        -0.0000      0.0000      0.1201      0.0144      0.0174
        27         0.0000     -0.0000     -0.0000      0.0000      0.0000
        28        -0.0000      0.1387     -0.0000      0.0192      0.0225
        29         0.3950      0.0000     -0.0000      0.1560      0.1803
        30         0.0000      0.0000     -0.0541      0.0029      0.0034
 Ground to excited state transition magnetic dipole moments (Au):
       state          X           Y           Z
         1        -0.0000      0.0000      1.2817
         2        -0.4386      0.0000     -0.0000
         3         0.7741      0.0000      0.0000
         4        -0.0000      0.0000     -0.0000
         5         0.0000     -0.0000     -0.1298
         6        -0.9141      0.0000      0.0000
         7         0.0000     -1.4159      0.0000
         8         0.7169      0.0000     -0.0000
         9         0.0000      0.0000      0.0000
        10         0.0000      0.0000     -0.3830
        11         0.0000     -0.0375     -0.0000
        12        -0.0000     -0.0000      0.3313
        13         0.0000     -0.0000     -0.0000
        14         0.0000     -0.0000     -0.0000
        15        -0.0000     -0.0082     -0.0000
        16         0.0000     -0.0000      0.0470
        17         0.0000     -0.0000     -0.0000
        18         0.0000      0.0000      0.0000
        19        -0.5269     -0.0000      0.0000
        20        -0.3980      0.0000     -0.0000
        21        -0.0000      0.0000      0.0000
        22         0.2701      0.0000      0.0000
        23        -0.0000      0.5455      0.0000
        24        -0.2248      0.0000      0.0000
        25         0.0000     -0.3770     -0.0000
        26         0.0000     -0.0000      0.0000
        27        -0.0000     -0.0000      0.0705
        28         0.9540      0.0000      0.0000
        29         0.0000     -0.3599     -0.0000
        30        -0.0000      0.0000      0.0000
 Ground to excited state transition velocity quadrupole moments (Au):
       state          XX          YY          ZZ          XY          XZ          YZ
         1         0.0000      0.0000      0.0000     -0.1470      0.0000      0.0000
         2         0.0000      0.0000      0.0000     -0.0000      0.0000      0.5346
         3        -0.0000     -0.0000     -0.0000      0.0000      0.0000      0.1299
         4        -0.1179     -0.5017     -0.2393      0.0000      0.0000      0.0000
         5        -0.0000      0.0000      0.0000     -0.1266      0.0000      0.0000
         6        -0.0000     -0.0000      0.0000     -0.0000      0.0000      0.7580
         7        -0.0000     -0.0000      0.0000      0.0000     -0.4376      0.0000
         8         0.0000     -0.0000     -0.0000      0.0000      0.0000      0.3043
         9         0.2459     -0.4350     -0.6369     -0.0000      0.0000     -0.0000
        10        -0.0000     -0.0000     -0.0000      0.3699      0.0000     -0.0000
        11         0.0000      0.0000      0.0000      0.0000     -0.0552      0.0000
        12         0.0000      0.0000      0.0000      0.0895      0.0000      0.0000
        13         0.2412      0.4649      0.2178      0.0000      0.0000     -0.0000
        14         0.0321     -0.0279      0.0920     -0.0000     -0.0000     -0.0000
        15         0.0000      0.0000      0.0000     -0.0000     -0.2732     -0.0000
        16         0.0000      0.0000      0.0000      0.2570     -0.0000     -0.0000
        17         0.4349      0.8041      0.7569     -0.0000     -0.0000     -0.0000
        18        -0.3743     -0.3528     -0.0953      0.0000      0.0000     -0.0000
        19        -0.0000     -0.0000     -0.0000      0.0000      0.0000      0.0540
        20        -0.0000     -0.0000     -0.0000     -0.0000      0.0000      0.1677
        21         0.4816     -0.3462     -0.0578     -0.0000      0.0000      0.0000
        22        -0.0000      0.0000      0.0000     -0.0000     -0.0000     -0.4212
        23         0.0000      0.0000      0.0000     -0.0000      0.1783      0.0000
        24         0.0000      0.0000      0.0000     -0.0000      0.0000     -0.3483
        25        -0.0000     -0.0000     -0.0000     -0.0000     -0.1670      0.0000
        26         0.2989      0.7398      0.0554     -0.0000     -0.0000     -0.0000
        27        -0.0000     -0.0000      0.0000      0.2887     -0.0000     -0.0000
        28        -0.0000     -0.0000      0.0000      0.0000      0.0000     -0.0319
        29        -0.0000     -0.0000      0.0000     -0.0000     -0.4463     -0.0000
        30        -0.2448      0.3869     -0.1454     -0.0000      0.0000      0.0000
 <0|del|b> * <b|rxdel|0> + <0|del|b> * <b|delr+rdel|0>
 Rotatory Strengths (R) in cgs (10**-40 erg-esu-cm/Gauss)
       state          XX          YY          ZZ    R(velocity)    E-M Angle
         1         0.0000      0.0000     -0.0000      0.0000       90.00
         2         0.0000      0.0000     -0.0000     -0.0000       90.00
         3         0.0000     -0.0000     -0.0000     -0.0000       90.00
         4         0.0000     -0.0000      0.0000     -0.0000       90.00
         5         0.0000      0.0000     -0.0000      0.0000       90.00
         6        -0.0000     -0.0000     -0.0000     -0.0000       90.00
         7         0.0000     -0.0000      0.0000      0.0000       90.00
         8        -0.0000      0.0000      0.0000      0.0000       90.00
         9         0.0000     -0.0000     -0.0000     -0.0000       90.00
        10         0.0000      0.0000     -0.0000      0.0000       90.00
        11        -0.0000      0.0000      0.0000      0.0000       90.00
        12         0.0000      0.0000     -0.0000      0.0000       90.00
        13         0.0000      0.0000      0.0000      0.0000       90.00
        14        -0.0000      0.0000      0.0000     -0.0000       90.00
        15        -0.0000      0.0000      0.0000      0.0000       90.00
        16        -0.0000      0.0000      0.0000     -0.0000       90.00
        17         0.0000      0.0000      0.0000      0.0000       90.00
        18        -0.0000      0.0000      0.0000     -0.0000       90.00
        19        -0.0000     -0.0000     -0.0000     -0.0000       90.00
        20         0.0000     -0.0000     -0.0000     -0.0000       90.00
        21        -0.0000      0.0000      0.0000      0.0000       90.00
        22         0.0000     -0.0000      0.0000      0.0000       90.00
        23         0.0000      0.0000      0.0000      0.0000       90.00
        24        -0.0000     -0.0000     -0.0000     -0.0000       90.00
        25        -0.0000      0.0000     -0.0000      0.0000       90.00
        26        -0.0000      0.0000     -0.0000      0.0000       90.00
        27        -0.0000      0.0000     -0.0000     -0.0000       90.00
        28         0.0000     -0.0000     -0.0000     -0.0000       90.00
        29         0.0000      0.0000      0.0000      0.0000       90.00
        30         0.0000     -0.0000     -0.0000     -0.0000       90.00
 1/2[<0|r|b>*<b|rxdel|0> + (<0|rxdel|b>*<b|r|0>)*]
 Rotatory Strengths (R) in cgs (10**-40 erg-esu-cm/Gauss)
       state          XX          YY          ZZ     R(length)
         1        -0.0000     -0.0000      0.0000      0.0000
         2        -0.0000     -0.0000     -0.0000     -0.0000
         3        -0.0000     -0.0000     -0.0000     -0.0000
         4        -0.0000     -0.0000     -0.0000     -0.0000
         5        -0.0000      0.0000      0.0000      0.0000
         6        -0.0000     -0.0000     -0.0000     -0.0000
         7        -0.0000     -0.0000     -0.0000     -0.0000
         8         0.0000      0.0000      0.0000      0.0000
         9         0.0000      0.0000     -0.0000     -0.0000
        10        -0.0000     -0.0000      0.0000      0.0000
        11         0.0000      0.0000     -0.0000      0.0000
        12        -0.0000      0.0000      0.0000      0.0000
        13        -0.0000      0.0000      0.0000      0.0000
        14        -0.0000      0.0000     -0.0000     -0.0000
        15         0.0000     -0.0000      0.0000      0.0000
        16        -0.0000      0.0000     -0.0000     -0.0000
        17        -0.0000     -0.0000      0.0000      0.0000
        18         0.0000     -0.0000     -0.0000     -0.0000
        19        -0.0000     -0.0000     -0.0000     -0.0000
        20        -0.0000      0.0000     -0.0000     -0.0000
        21        -0.0000      0.0000      0.0000      0.0000
        22         0.0000      0.0000     -0.0000      0.0000
        23        -0.0000     -0.0000     -0.0000     -0.0000
        24        -0.0000     -0.0000      0.0000     -0.0000
        25         0.0000     -0.0000      0.0000      0.0000
        26        -0.0000     -0.0000      0.0000      0.0000
        27        -0.0000      0.0000     -0.0000     -0.0000
        28        -0.0000      0.0000     -0.0000     -0.0000
        29         0.0000     -0.0000      0.0000      0.0000
        30        -0.0000     -0.0000     -0.0000     -0.0000
  1/2[<0|del|b>*<b|r|0> + (<0|r|b>*<b|del|0>)*] (Au)
       state          X           Y           Z        Dip. S.   Osc.(frdel)
         1        -0.0000     -0.0000     -0.0000      0.0000      0.0000
         2        -0.0000     -0.0805     -0.0000      0.0805      0.0537
         3        -0.0000     -0.0332     -0.0000      0.0332      0.0222
         4        -0.0000      0.0000     -0.0781      0.0781      0.0521
         5        -0.0000     -0.0000     -0.0000      0.0000      0.0000
         6        -0.0000     -0.2969      0.0000      0.2969      0.1979
         7        -0.0004      0.0000     -0.0000      0.0004      0.0003
         8        -0.0000      0.0001      0.0000     -0.0001     -0.0001
         9        -0.0000      0.0000     -0.0121      0.0121      0.0081
        10        -0.0000      0.0000     -0.0000      0.0000      0.0000
        11        -0.0626     -0.0000     -0.0000      0.0626      0.0417
        12        -0.0000     -0.0000     -0.0000      0.0000      0.0000
        13         0.0000     -0.0000     -0.0005      0.0005      0.0003
        14         0.0000     -0.0000     -0.2188      0.2188      0.1458
        15        -0.0411      0.0000     -0.0000      0.0411      0.0274
        16        -0.0000     -0.0000     -0.0000      0.0000      0.0000
        17        -0.0000      0.0000     -0.5389      0.5389      0.3593
        18        -0.0000     -0.0000     -0.0733      0.0733      0.0489
        19        -0.0000     -0.1177     -0.0000      0.1177      0.0784
        20        -0.0000     -0.0071      0.0000      0.0071      0.0047
        21        -0.0000     -0.0000     -0.1681      0.1681      0.1121
        22        -0.0000     -0.1480     -0.0000      0.1480      0.0987
        23        -0.0359      0.0000     -0.0000      0.0359      0.0239
        24        -0.0000     -0.0288     -0.0000      0.0288      0.0192
        25        -0.0104     -0.0000     -0.0000      0.0104      0.0069
        26        -0.0000     -0.0000     -0.0247      0.0247      0.0164
        27        -0.0000     -0.0000     -0.0000      0.0000      0.0000
        28        -0.0000     -0.0340     -0.0000      0.0340      0.0226
        29        -0.2712     -0.0000     -0.0000      0.2712      0.1808
        30        -0.0000      0.0000     -0.0049      0.0049      0.0033

 Excitation energies and oscillator strengths:
 
 Excited State   1:      Singlet-A2     4.7591 eV  260.52 nm  f=0.0000  <S**2>=0.000
       3 -> 27         0.00290
       3 -> 38         0.00243
       3 -> 45         0.00196
       4 -> 27         0.00266
       4 -> 38        -0.00072
       4 -> 45        -0.00106
       5 ->  9         0.01935
       5 -> 13        -0.00705
       5 -> 17         0.00616
       5 -> 23        -0.00204
       5 -> 28         0.00389
       5 -> 31         0.00291
       5 -> 36         0.00398
       5 -> 44         0.00068
       5 -> 47         0.00012
       5 -> 52         0.00086
       6 -> 27         0.00041
       6 -> 38        -0.00065
       6 -> 45         0.00166
       7 -> 12        -0.00062
       7 -> 16         0.00195
       7 -> 18        -0.00193
       7 -> 22         0.00142
       7 -> 24         0.00123
       7 -> 29        -0.00074
       7 -> 34         0.00037
       7 -> 35         0.00047
       7 -> 40        -0.00039
       7 -> 42        -0.00012
       7 -> 48         0.00058
       7 -> 51        -0.00021
       7 -> 53         0.00041
       8 ->  9         0.70227
       8 -> 13        -0.07690
       8 -> 17         0.02512
       8 -> 23        -0.01184
       8 -> 28         0.00723
       8 -> 31         0.00344
       8 -> 36        -0.00119
       8 -> 44        -0.00023
       8 -> 47        -0.00018
       8 -> 52         0.00139
       3 <- 27         0.00200
       3 <- 38         0.00206
       3 <- 45         0.00204
       4 <- 27         0.00344
       4 <- 38        -0.00017
       4 <- 45        -0.00096
       5 <- 13        -0.00094
       5 <- 17        -0.00069
       5 <- 23         0.00052
       5 <- 28        -0.00045
       5 <- 31        -0.00109
       5 <- 36         0.00180
       5 <- 44         0.00037
       5 <- 47         0.00017
       5 <- 52         0.00022
       6 <- 27         0.00083
       6 <- 38        -0.00062
       6 <- 45         0.00129
       7 <- 12        -0.00096
       7 <- 16        -0.00540
       7 <- 18        -0.00128
       7 <- 22         0.00658
       7 <- 24        -0.00076
       7 <- 29         0.00245
       7 <- 34        -0.00129
       7 <- 35         0.00252
       7 <- 40        -0.00091
       7 <- 42        -0.00055
       7 <- 48         0.00041
       7 <- 53         0.00109
       8 <-  9        -0.01750
       8 <- 13         0.00518
       8 <- 17        -0.00386
       8 <- 23         0.00073
       8 <- 28        -0.00055
       8 <- 31         0.00169
       8 <- 36        -0.00199
       8 <- 52         0.00041
 This state for optimization and/or second-order correction.
 Total Energy, E(TD-HF/TD-DFT) =  -114.326796673    
 Copying the excited state density for this state as the 1-particle RhoCI density.
 
 Excited State   2:      Singlet-B2     6.5678 eV  188.78 nm  f=0.0541  <S**2>=0.000
       3 -> 12         0.00120
       3 -> 16         0.00058
       3 -> 18         0.00111
       3 -> 22        -0.00023
       3 -> 24         0.00129
       3 -> 29        -0.00012
       3 -> 35        -0.00025
       4 -> 12        -0.00448
       4 -> 16         0.00098
       4 -> 18         0.00236
       4 -> 22        -0.00329
       4 -> 24         0.00381
       4 -> 34        -0.00079
       4 -> 35         0.00082
       4 -> 40        -0.00049
       4 -> 42        -0.00013
       5 -> 10        -0.00270
       5 -> 11        -0.00916
       5 -> 14         0.00669
       5 -> 15        -0.00127
       5 -> 19         0.00288
       5 -> 20         0.00013
       5 -> 21         0.00457
       5 -> 25         0.00028
       5 -> 26         0.00232
       5 -> 30         0.00224
       5 -> 32        -0.00025
       5 -> 33        -0.00075
       5 -> 37        -0.00041
       5 -> 39        -0.00029
       5 -> 43        -0.00055
       5 -> 46        -0.00053
       5 -> 49         0.00019
       6 -> 12         0.00126
       6 -> 16         0.00091
       6 -> 18         0.00367
       6 -> 22        -0.00271
       6 -> 24         0.00171
       6 -> 29        -0.00030
       6 -> 34        -0.00013
       6 -> 40         0.00016
       6 -> 42         0.00032
       6 -> 48         0.00037
       6 -> 51         0.00050
       7 -> 27         0.00049
       7 -> 38        -0.00026
       7 -> 45         0.00070
       8 -> 10         0.70497
       8 -> 11        -0.04886
       8 -> 14         0.00082
       8 -> 15        -0.00953
       8 -> 19         0.01740
       8 -> 20         0.01058
       8 -> 21        -0.00507
       8 -> 25         0.00077
       8 -> 26         0.00133
       8 -> 30         0.00054
       8 -> 32         0.00103
       8 -> 33         0.00217
       8 -> 37         0.00054
       8 -> 39         0.00053
       8 -> 41        -0.00016
       8 -> 43         0.00069
       8 -> 46        -0.00087
       8 -> 54         0.00017
       3 <- 12         0.00034
       3 <- 16         0.00049
       3 <- 18         0.00048
       3 <- 22        -0.00032
       3 <- 24         0.00085
       3 <- 29        -0.00011
       3 <- 35        -0.00024
       4 <- 12         0.00053
       4 <- 16         0.00142
       4 <- 18         0.00250
       4 <- 22        -0.00200
       4 <- 24         0.00272
       4 <- 34        -0.00054
       4 <- 35         0.00055
       4 <- 40        -0.00026
       4 <- 42         0.00011
       4 <- 48        -0.00010
       5 <- 10         0.00244
       5 <- 11        -0.00018
       5 <- 14         0.00491
       5 <- 15        -0.00119
       5 <- 19         0.00069
       5 <- 20         0.00031
       5 <- 21         0.00226
       5 <- 25         0.00168
       5 <- 26         0.00150
       5 <- 30         0.00066
       5 <- 32        -0.00046
       5 <- 33        -0.00072
       5 <- 37        -0.00039
       5 <- 39        -0.00017
       5 <- 41         0.00010
       5 <- 43        -0.00038
       5 <- 46        -0.00046
       5 <- 49         0.00018
       6 <- 12         0.00037
       6 <- 16        -0.00027
       6 <- 18         0.00169
       6 <- 22        -0.00096
       6 <- 24         0.00066
       6 <- 29         0.00040
       6 <- 34        -0.00020
       6 <- 35         0.00026
       6 <- 40         0.00014
       6 <- 42         0.00030
       6 <- 48         0.00032
       6 <- 51         0.00051
       6 <- 53         0.00011
       7 <- 27         0.00038
       7 <- 38        -0.00020
       7 <- 45         0.00060
       8 <- 10        -0.00275
       8 <- 11        -0.00081
       8 <- 14        -0.00843
       8 <- 15         0.00022
       8 <- 19        -0.00050
       8 <- 20        -0.00039
       8 <- 21        -0.00308
       8 <- 25        -0.00283
       8 <- 30        -0.00069
       8 <- 33         0.00157
       8 <- 37         0.00055
       8 <- 39         0.00043
       8 <- 43         0.00053
       8 <- 46        -0.00059
       8 <- 50        -0.00014
 
 Excited State   3:      Singlet-B2     7.3615 eV  168.42 nm  f=0.0212  <S**2>=0.000
       3 -> 12        -0.00021
       3 -> 16        -0.00066
       3 -> 18         0.00054
       3 -> 22         0.00025
       3 -> 24         0.00031
       3 -> 29         0.00152
       3 -> 34         0.00014
       3 -> 35        -0.00034
       3 -> 40         0.00027
       3 -> 42         0.00022
       3 -> 48         0.00026
       3 -> 51         0.00027
       4 -> 12         0.00311
       4 -> 16        -0.00106
       4 -> 18         0.00328
       4 -> 22        -0.00155
       4 -> 24         0.00332
       4 -> 29        -0.00107
       4 -> 34         0.00054
       4 -> 35        -0.00040
       4 -> 42         0.00018
       4 -> 48         0.00019
       4 -> 51         0.00015
       5 -> 10        -0.00743
       5 -> 11         0.00032
       5 -> 14         0.00574
       5 -> 15        -0.00652
       5 -> 19        -0.00380
       5 -> 20        -0.00281
       5 -> 21         0.00101
       5 -> 25         0.00140
       5 -> 26        -0.00065
       5 -> 30         0.00136
       5 -> 32        -0.00120
       5 -> 33        -0.00125
       5 -> 39         0.00047
       5 -> 41        -0.00085
       5 -> 46         0.00077
       5 -> 49        -0.00030
       5 -> 50         0.00036
       6 -> 12        -0.00324
       6 -> 16        -0.00182
       6 -> 18        -0.00154
       6 -> 22         0.00147
       6 -> 29         0.00053
       6 -> 34        -0.00043
       6 -> 35         0.00144
       6 -> 40        -0.00083
       6 -> 42        -0.00038
       6 -> 48        -0.00079
       6 -> 51        -0.00068
       6 -> 53         0.00012
       7 -> 27        -0.00047
       7 -> 38        -0.00116
       7 -> 45        -0.00143
       8 -> 10         0.04949
       8 -> 11         0.70443
       8 -> 14        -0.01188
       8 -> 15         0.01693
       8 -> 19        -0.02402
       8 -> 20         0.01219
       8 -> 21        -0.00208
       8 -> 25         0.00048
       8 -> 26        -0.00142
       8 -> 30        -0.00084
       8 -> 32        -0.00030
       8 -> 33         0.00027
       8 -> 41        -0.00140
       8 -> 43         0.00011
       8 -> 46         0.00123
       8 -> 49        -0.00062
       8 -> 50         0.00059
       8 -> 54        -0.00017
       3 <- 12         0.00032
       3 <- 16        -0.00029
       3 <- 18         0.00075
       3 <- 24         0.00041
       3 <- 29         0.00093
       3 <- 34         0.00021
       3 <- 35        -0.00040
       3 <- 40         0.00024
       3 <- 42         0.00019
       3 <- 48         0.00021
       3 <- 51         0.00017
       3 <- 53        -0.00023
       4 <- 12         0.00035
       4 <- 16         0.00045
       4 <- 18         0.00096
       4 <- 22        -0.00120
       4 <- 24         0.00138
       4 <- 29        -0.00045
       4 <- 34         0.00050
       4 <- 42         0.00021
       4 <- 48         0.00012
       4 <- 51         0.00021
       5 <- 10         0.00131
       5 <- 11        -0.00079
       5 <- 14         0.00221
       5 <- 15        -0.00045
       5 <- 19         0.00076
       5 <- 20        -0.00013
       5 <- 21         0.00089
       5 <- 25         0.00112
       5 <- 26        -0.00059
       5 <- 30         0.00077
       5 <- 32         0.00029
       5 <- 33        -0.00121
       5 <- 37         0.00017
       5 <- 39         0.00023
       5 <- 41        -0.00088
       5 <- 46         0.00072
       5 <- 49        -0.00017
       5 <- 50         0.00033
       6 <- 12        -0.00035
       6 <- 16        -0.00022
       6 <- 18        -0.00021
       6 <- 22         0.00046
       6 <- 29         0.00017
       6 <- 34        -0.00023
       6 <- 35         0.00107
       6 <- 40        -0.00061
       6 <- 42        -0.00026
       6 <- 48        -0.00066
       6 <- 51        -0.00057
       7 <- 38        -0.00093
       7 <- 45        -0.00121
       8 <- 10        -0.00086
       8 <- 11         0.00036
       8 <- 14        -0.00445
       8 <- 15         0.00065
       8 <- 19         0.00291
       8 <- 20        -0.00142
       8 <- 21        -0.00215
       8 <- 26        -0.00152
       8 <- 30        -0.00050
       8 <- 32         0.00130
       8 <- 33         0.00015
       8 <- 37        -0.00016
       8 <- 39        -0.00023
       8 <- 41        -0.00119
       8 <- 46         0.00099
       8 <- 49        -0.00036
       8 <- 50         0.00047
 
 Excited State   4:      Singlet-A1     7.5098 eV  165.10 nm  f=0.0540  <S**2>=0.000
       3 -> 10         0.00163
       3 -> 11        -0.00101
       3 -> 14         0.00052
       3 -> 15        -0.00037
       3 -> 19         0.00090
       3 -> 20         0.00107
       3 -> 21         0.00031
       3 -> 25        -0.00021
       3 -> 26         0.00074
       3 -> 30         0.00120
       3 -> 32        -0.00032
       3 -> 33        -0.00032
       3 -> 37        -0.00030
       3 -> 39         0.00013
       3 -> 41        -0.00021
       3 -> 50         0.00038
       3 -> 54        -0.00021
       4 -> 10         0.00535
       4 -> 11         0.00795
       4 -> 14         0.00575
       4 -> 15        -0.00021
       4 -> 19         0.00050
       4 -> 20         0.00547
       4 -> 21         0.00228
       4 -> 25         0.00716
       4 -> 26         0.00097
       4 -> 30        -0.00049
       4 -> 32         0.00014
       4 -> 33        -0.00077
       4 -> 39        -0.00031
       4 -> 41         0.00019
       4 -> 43         0.00014
       4 -> 46        -0.00025
       4 -> 49        -0.00020
       5 -> 12         0.00754
       5 -> 16        -0.00038
       5 -> 18         0.01159
       5 -> 22        -0.00111
       5 -> 24         0.00506
       5 -> 29         0.00017
       5 -> 34        -0.00015
       5 -> 35         0.00083
       5 -> 42         0.00011
       5 -> 51        -0.00033
       5 -> 53        -0.00015
       6 -> 10         0.01328
       6 -> 11        -0.00403
       6 -> 14         0.00418
       6 -> 15         0.00151
       6 -> 19         0.00483
       6 -> 20         0.00444
       6 -> 21         0.00177
       6 -> 25         0.00253
       6 -> 26         0.00053
       6 -> 30        -0.00101
       6 -> 32         0.00058
       6 -> 33        -0.00052
       6 -> 43         0.00012
       6 -> 49        -0.00031
       6 -> 50        -0.00053
       7 ->  9         0.01196
       7 -> 13         0.00759
       7 -> 17         0.00441
       7 -> 23         0.00507
       7 -> 31         0.00085
       7 -> 36         0.00055
       7 -> 44         0.00064
       7 -> 47        -0.00036
       7 -> 52        -0.00011
       8 -> 12         0.70571
       8 -> 16        -0.02169
       8 -> 18         0.02756
       8 -> 22         0.00521
       8 -> 24         0.00225
       8 -> 29         0.00153
       8 -> 34         0.00151
       8 -> 35        -0.00215
       8 -> 40        -0.00067
       8 -> 42        -0.00069
       8 -> 48        -0.00036
       8 -> 51        -0.00029
       8 -> 53        -0.00020
       3 <- 10         0.00059
       3 <- 11        -0.00022
       3 <- 14         0.00031
       3 <- 19         0.00039
       3 <- 20         0.00049
       3 <- 21         0.00030
       3 <- 25         0.00010
       3 <- 26         0.00041
       3 <- 30         0.00076
       3 <- 32        -0.00028
       3 <- 33        -0.00016
       3 <- 37        -0.00024
       3 <- 39         0.00012
       3 <- 41        -0.00017
       3 <- 46         0.00017
       3 <- 50         0.00033
       3 <- 54        -0.00019
       4 <- 10         0.00494
       4 <- 11         0.00223
       4 <- 14         0.00421
       4 <- 15        -0.00064
       4 <- 19         0.00036
       4 <- 20         0.00310
       4 <- 21         0.00093
       4 <- 25         0.00405
       4 <- 26         0.00058
       4 <- 32        -0.00010
       4 <- 33        -0.00103
       4 <- 37        -0.00010
       4 <- 39        -0.00034
       4 <- 46        -0.00023
       4 <- 49        -0.00017
       5 <- 12         0.00277
       5 <- 16         0.00144
       5 <- 18         0.00427
       5 <- 22        -0.00022
       5 <- 24         0.00274
       5 <- 34        -0.00033
       5 <- 35         0.00076
       5 <- 40         0.00010
       5 <- 51        -0.00023
       5 <- 53        -0.00014
       6 <- 10         0.00375
       6 <- 11        -0.00053
       6 <- 14         0.00177
       6 <- 15         0.00049
       6 <- 19         0.00173
       6 <- 20         0.00225
       6 <- 21         0.00068
       6 <- 25         0.00134
       6 <- 26         0.00056
       6 <- 30        -0.00056
       6 <- 32         0.00036
       6 <- 33        -0.00048
       6 <- 39        -0.00014
       6 <- 41         0.00015
       6 <- 49        -0.00020
       6 <- 50        -0.00051
       7 <-  9         0.00196
       7 <- 13         0.00217
       7 <- 17         0.00151
       7 <- 23         0.00270
       7 <- 28        -0.00010
       7 <- 31         0.00061
       7 <- 36         0.00044
       7 <- 44         0.00054
       7 <- 47        -0.00031
       8 <- 12        -0.00182
       8 <- 16        -0.00789
       8 <- 18        -0.00336
       8 <- 22         0.00071
       8 <- 24        -0.00226
       8 <- 29         0.00024
       8 <- 34         0.00085
       8 <- 35        -0.00122
       8 <- 40        -0.00061
       8 <- 42        -0.00058
       8 <- 48        -0.00042
       8 <- 51        -0.00024
       8 <- 53        -0.00021
 
 Excited State   5:      Singlet-A2     8.0198 eV  154.60 nm  f=0.0000  <S**2>=0.000
       3 -> 27        -0.00074
       3 -> 38        -0.00066
       3 -> 45        -0.00039
       4 -> 38         0.00057
       4 -> 45         0.00012
       5 ->  9        -0.00945
       5 -> 13        -0.00043
       5 -> 17         0.00563
       5 -> 23        -0.00114
       5 -> 31        -0.00183
       5 -> 36        -0.00134
       5 -> 44        -0.00024
       5 -> 52        -0.00016
       6 -> 27         0.00019
       6 -> 38         0.00028
       6 -> 45        -0.00040
       7 -> 12        -0.00052
       7 -> 16        -0.00182
       7 -> 18         0.00176
       7 -> 22        -0.00074
       7 -> 24        -0.00019
       7 -> 29         0.00015
       7 -> 35        -0.00019
       7 -> 40         0.00014
       7 -> 48        -0.00014
       8 ->  9         0.07695
       8 -> 13         0.70245
       8 -> 17         0.01254
       8 -> 23         0.01920
       8 -> 28        -0.00017
       8 -> 31        -0.00129
       8 -> 47         0.00018
       8 -> 52        -0.00022
       3 <- 27        -0.00032
       3 <- 38        -0.00049
       3 <- 45        -0.00048
       4 <- 27        -0.00032
       4 <- 45         0.00011
       5 <-  9        -0.00025
       5 <- 13        -0.00025
       5 <- 17         0.00062
       5 <- 36        -0.00032
       6 <- 38         0.00022
       6 <- 45        -0.00012
       7 <- 12        -0.00066
       7 <- 16        -0.00074
       7 <- 18         0.00064
       7 <- 22        -0.00138
       7 <- 24        -0.00031
       7 <- 29         0.00017
       7 <- 34         0.00048
       7 <- 35        -0.00080
       7 <- 40         0.00037
       7 <- 42         0.00028
       7 <- 53        -0.00017
       8 <-  9         0.00336
       8 <- 13         0.00137
       8 <- 17         0.00024
       8 <- 23        -0.00029
       8 <- 31        -0.00020
       8 <- 36         0.00029
 
 Excited State   6:      Singlet-B2    10.2695 eV  120.73 nm  f=0.1984  <S**2>=0.000
       3 -> 12        -0.00034
       3 -> 16        -0.00196
       3 -> 18         0.00062
       3 -> 22         0.00144
       3 -> 24         0.00097
       3 -> 29         0.00139
       3 -> 34        -0.00074
       3 -> 40        -0.00018
       3 -> 42        -0.00054
       3 -> 48         0.00033
       3 -> 51         0.00020
       3 -> 53        -0.00010
       4 -> 12        -0.00780
       4 -> 16         0.00060
       4 -> 18         0.00449
       4 -> 22        -0.01525
       4 -> 24         0.00870
       4 -> 29         0.00026
       4 -> 34         0.00244
       4 -> 35        -0.00271
       4 -> 40        -0.00195
       4 -> 42        -0.00142
       4 -> 48         0.00025
       4 -> 51         0.00014
       5 -> 10         0.01685
       5 -> 11        -0.00659
       5 -> 14         0.03362
       5 -> 15        -0.00788
       5 -> 19         0.00528
       5 -> 20        -0.01468
       5 -> 21         0.01634
       5 -> 25         0.00791
       5 -> 26         0.00273
       5 -> 30        -0.00048
       5 -> 32         0.00070
       5 -> 33         0.00353
       5 -> 39         0.00221
       5 -> 41        -0.00100
       5 -> 43        -0.00070
       5 -> 49        -0.00011
       5 -> 50         0.00030
       6 -> 12         0.00410
       6 -> 16         0.00371
       6 -> 18         0.00965
       6 -> 22        -0.00901
       6 -> 24         0.00550
       6 -> 29         0.00105
       6 -> 34         0.00173
       6 -> 35        -0.00056
       6 -> 40        -0.00117
       6 -> 42        -0.00034
       6 -> 48        -0.00052
       6 -> 51        -0.00024
       7 -> 27         0.00706
       7 -> 38         0.00011
       7 -> 45        -0.00072
       8 -> 10        -0.00116
       8 -> 11         0.01299
       8 -> 14         0.70475
       8 -> 15        -0.01991
       8 -> 19         0.01930
       8 -> 20         0.00593
       8 -> 21        -0.02454
       8 -> 25        -0.00748
       8 -> 26         0.00119
       8 -> 30        -0.00102
       8 -> 32         0.00147
       8 -> 33         0.00285
       8 -> 37         0.00137
       8 -> 39        -0.00395
       8 -> 41        -0.00018
       8 -> 43         0.00199
       8 -> 46        -0.00015
       8 -> 49        -0.00081
       8 -> 50         0.00032
       3 <- 12        -0.00029
       3 <- 16        -0.00097
       3 <- 18         0.00018
       3 <- 22         0.00053
       3 <- 24         0.00049
       3 <- 29         0.00081
       3 <- 34        -0.00038
       3 <- 35        -0.00010
       3 <- 40        -0.00014
       3 <- 42        -0.00038
       3 <- 48         0.00032
       3 <- 51         0.00014
       3 <- 53        -0.00016
       4 <- 12        -0.00111
       4 <- 16         0.00127
       4 <- 18         0.00343
       4 <- 22        -0.00756
       4 <- 24         0.00521
       4 <- 29         0.00035
       4 <- 34         0.00092
       4 <- 35        -0.00200
       4 <- 40        -0.00145
       4 <- 42        -0.00083
       4 <- 51         0.00027
       5 <- 10         0.00397
       5 <- 11        -0.00177
       5 <- 14         0.01146
       5 <- 15        -0.00234
       5 <- 19         0.00250
       5 <- 20        -0.00561
       5 <- 21         0.00782
       5 <- 25         0.00482
       5 <- 26         0.00133
       5 <- 30        -0.00083
       5 <- 32         0.00089
       5 <- 33         0.00163
       5 <- 39         0.00168
       5 <- 41        -0.00059
       5 <- 43        -0.00055
       5 <- 46         0.00012
       5 <- 50         0.00021
       6 <- 12         0.00059
       6 <- 16         0.00101
       6 <- 18         0.00306
       6 <- 22        -0.00392
       6 <- 24         0.00253
       6 <- 29         0.00073
       6 <- 34         0.00091
       6 <- 35        -0.00031
       6 <- 40        -0.00090
       6 <- 42        -0.00015
       6 <- 48        -0.00045
       6 <- 51        -0.00014
       7 <- 27         0.00445
       7 <- 45        -0.00073
       8 <- 10        -0.00857
       8 <- 11        -0.00397
       8 <- 14        -0.01950
       8 <- 19         0.00246
       8 <- 20         0.00353
       8 <- 21        -0.01350
       8 <- 25        -0.00574
       8 <- 26        -0.00089
       8 <- 30        -0.00074
       8 <- 32         0.00092
       8 <- 33         0.00065
       8 <- 37         0.00077
       8 <- 39        -0.00243
       8 <- 41        -0.00012
       8 <- 43         0.00136
       8 <- 46         0.00027
       8 <- 49        -0.00054
       8 <- 50         0.00022
 
 Excited State   7:      Singlet-B1    10.8331 eV  114.45 nm  f=0.0001  <S**2>=0.000
       3 ->  9        -0.02838
       3 -> 13         0.00951
       3 -> 17        -0.00791
       3 -> 23         0.00584
       3 -> 28        -0.00363
       3 -> 31        -0.00072
       3 -> 36        -0.00024
       3 -> 44         0.00080
       3 -> 47        -0.00034
       3 -> 52         0.00104
       4 ->  9         0.01574
       4 -> 13        -0.00287
       4 -> 17         0.00089
       4 -> 23        -0.00228
       4 -> 28        -0.00054
       4 -> 31         0.00344
       4 -> 44        -0.00029
       4 -> 47        -0.00172
       4 -> 52        -0.00101
       5 -> 27        -0.00195
       5 -> 38         0.00268
       5 -> 45         0.00435
       6 ->  9         0.70178
       6 -> 13        -0.06753
       6 -> 17         0.03004
       6 -> 23        -0.01182
       6 -> 28         0.01072
       6 -> 31        -0.00176
       6 -> 36        -0.00238
       6 -> 44        -0.00294
       6 -> 47         0.00612
       6 -> 52         0.00201
       7 -> 10         0.00511
       7 -> 11         0.02539
       7 -> 14         0.00331
       7 -> 15        -0.01397
       7 -> 19        -0.00719
       7 -> 20         0.00409
       7 -> 21         0.00442
       7 -> 25        -0.00393
       7 -> 26         0.00855
       7 -> 32        -0.00032
       7 -> 33        -0.00117
       7 -> 37        -0.00211
       7 -> 39         0.00144
       7 -> 41        -0.00277
       7 -> 43         0.00140
       7 -> 46         0.00515
       7 -> 49        -0.00123
       7 -> 50        -0.00188
       7 -> 54         0.00046
       8 -> 27         0.00614
       8 -> 38         0.00161
       8 -> 45         0.00642
       3 <-  9        -0.00832
       3 <- 13         0.00248
       3 <- 17        -0.00319
       3 <- 23         0.00159
       3 <- 28        -0.00177
       3 <- 31        -0.00053
       3 <- 36        -0.00033
       3 <- 52         0.00090
       4 <-  9         0.00312
       4 <- 13        -0.00019
       4 <- 17         0.00217
       4 <- 23        -0.00063
       4 <- 28         0.00155
       4 <- 31         0.00369
       4 <- 36         0.00078
       4 <- 44         0.00011
       4 <- 47        -0.00144
       4 <- 52        -0.00050
       5 <- 27        -0.00164
       5 <- 38         0.00197
       5 <- 45         0.00368
       6 <-  9        -0.01782
       6 <- 13         0.00663
       6 <- 17        -0.00332
       6 <- 23         0.00257
       6 <- 28        -0.00026
       6 <- 31        -0.00364
       6 <- 36        -0.00290
       6 <- 44        -0.00171
       6 <- 47         0.00505
       6 <- 52         0.00061
       7 <- 10         0.00088
       7 <- 11         0.00115
       7 <- 14         0.00016
       7 <- 15        -0.00050
       7 <- 19        -0.00018
       7 <- 20         0.00381
       7 <- 21         0.00378
       7 <- 25        -0.00524
       7 <- 26         0.00614
       7 <- 30         0.00442
       7 <- 32         0.00133
       7 <- 33        -0.00012
       7 <- 37        -0.00297
       7 <- 39         0.00141
       7 <- 41        -0.00183
       7 <- 43         0.00145
       7 <- 46         0.00438
       7 <- 49        -0.00105
       7 <- 50        -0.00122
       7 <- 54         0.00087
       8 <- 27         0.00395
       8 <- 38         0.00127
       8 <- 45         0.00527
 
 Excited State   8:      Singlet-B2    10.9772 eV  112.95 nm  f=0.0014  <S**2>=0.000
       3 -> 16         0.00082
       3 -> 18         0.00028
       3 -> 22        -0.00149
       3 -> 24        -0.00014
       3 -> 29        -0.00041
       3 -> 34         0.00012
       3 -> 35        -0.00045
       3 -> 40         0.00019
       3 -> 53         0.00011
       4 -> 12         0.00060
       4 -> 16        -0.00272
       4 -> 18         0.00044
       4 -> 22         0.00226
       4 -> 24         0.00276
       4 -> 29         0.00021
       4 -> 34         0.00088
       4 -> 35        -0.00017
       4 -> 40        -0.00030
       4 -> 48        -0.00022
       4 -> 51        -0.00017
       5 -> 10         0.00182
       5 -> 11        -0.01448
       5 -> 14         0.00254
       5 -> 15         0.01561
       5 -> 19         0.00104
       5 -> 20        -0.00108
       5 -> 21         0.00203
       5 -> 25         0.00153
       5 -> 26        -0.00155
       5 -> 30         0.00345
       5 -> 32        -0.00084
       5 -> 33         0.00072
       5 -> 37        -0.00075
       5 -> 39         0.00066
       5 -> 41         0.00057
       5 -> 43         0.00031
       5 -> 46        -0.00044
       5 -> 49         0.00033
       5 -> 54         0.00022
       6 -> 12         0.00205
       6 -> 16         0.00081
       6 -> 18         0.00312
       6 -> 22        -0.00351
       6 -> 24        -0.00014
       6 -> 29        -0.00059
       6 -> 34         0.00031
       6 -> 35        -0.00059
       6 -> 40         0.00041
       6 -> 48         0.00035
       6 -> 51         0.00044
       7 -> 27         0.00030
       7 -> 45         0.00069
       8 -> 10         0.00826
       8 -> 11        -0.01786
       8 -> 14         0.02053
       8 -> 15         0.70565
       8 -> 19        -0.01554
       8 -> 20         0.01776
       8 -> 21         0.00765
       8 -> 25        -0.00475
       8 -> 26        -0.00799
       8 -> 30         0.00440
       8 -> 32         0.00017
       8 -> 33         0.00118
       8 -> 37        -0.00090
       8 -> 39        -0.00046
       8 -> 41         0.00054
       8 -> 46        -0.00079
       8 -> 54         0.00030
       3 <- 12         0.00022
       3 <- 16         0.00093
       3 <- 22        -0.00067
       3 <- 24         0.00047
       3 <- 29        -0.00053
       3 <- 34         0.00020
       3 <- 35        -0.00038
       4 <- 12        -0.00022
       4 <- 16        -0.00017
       4 <- 18        -0.00018
       4 <- 22        -0.00017
       4 <- 24         0.00036
       4 <- 29        -0.00020
       4 <- 34         0.00057
       4 <- 35         0.00011
       4 <- 40        -0.00027
       4 <- 48        -0.00022
       4 <- 51        -0.00020
       5 <- 10        -0.00014
       5 <- 11         0.00039
       5 <- 14         0.00063
       5 <- 15         0.00011
       5 <- 19        -0.00091
       5 <- 21         0.00070
       5 <- 25         0.00015
       5 <- 26         0.00015
       5 <- 30         0.00025
       5 <- 32        -0.00032
       5 <- 33        -0.00010
       5 <- 37         0.00011
       5 <- 39         0.00036
       5 <- 41         0.00012
       5 <- 46        -0.00025
       5 <- 49         0.00021
       5 <- 50        -0.00019
       6 <- 12        -0.00019
       6 <- 16        -0.00137
       6 <- 18         0.00073
       6 <- 22        -0.00041
       6 <- 24        -0.00060
       6 <- 29         0.00096
       6 <- 34         0.00015
       6 <- 35        -0.00015
       6 <- 40         0.00033
       6 <- 42         0.00015
       6 <- 48         0.00040
       6 <- 51         0.00058
       6 <- 53         0.00029
       7 <- 27         0.00037
       7 <- 45         0.00035
       8 <- 11         0.00036
       8 <- 14        -0.00050
       8 <- 15         0.00104
       8 <- 19        -0.00039
       8 <- 20        -0.00044
       8 <- 21        -0.00103
       8 <- 26         0.00030
       8 <- 30        -0.00054
       8 <- 32        -0.00025
       8 <- 33         0.00036
       8 <- 37        -0.00049
[...]
  47        4PZ        -0.00074   0.00000   0.00898   0.01600   0.00379
  48        5S          0.00006   0.00000  -0.00055   0.00182   0.00124
  49        5PX         0.00000  -0.00000   0.00000   0.00000   0.00000
  50        5PY         0.00000  -0.00000  -0.02800  -0.04960  -0.04727
  51        5PZ        -0.00030  -0.00000   0.00347   0.00470   0.00068
  52        6D 0        0.00015   0.00000  -0.00144  -0.00277  -0.00066
  53        6D+1        0.00000   0.00000   0.00000   0.00000  -0.00000
  54        6D-1       -0.00000  -0.00000  -0.00313  -0.00319   0.00249
  55        6D+2        0.00001   0.00000  -0.00008  -0.00012  -0.00001
  56        6D-2        0.00000   0.00000   0.00000  -0.00000   0.00000
                          26        27        28        29        30
  26        4PX         0.00018
  27        4PY        -0.00000   0.00121
  28        4PZ         0.00000  -0.00048   0.00034
  29 3   H  1S          0.00000  -0.00294  -0.00153   0.08233
  30        2S          0.00000  -0.00391  -0.00247   0.12179   0.18526
  31        3S          0.00000  -0.00089  -0.00143   0.06225   0.10735
  32        4PX         0.00018   0.00000   0.00000  -0.00000  -0.00000
  33        4PY         0.00000  -0.00060  -0.00004   0.00747   0.00963
  34        4PZ        -0.00000   0.00004  -0.00016   0.00431   0.00587
  35 4   O  1S          0.00000  -0.00060  -0.00080   0.00298   0.00357
  36        2S          0.00000  -0.00132  -0.00072   0.00514   0.00687
  37        2PX         0.00457   0.00000  -0.00000  -0.00000  -0.00000
  38        2PY         0.00000  -0.00472   0.00233   0.02515   0.06202
  39        2PZ         0.00000  -0.00296  -0.00140   0.01007   0.01961
  40        3S         -0.00000   0.00514   0.00005  -0.01704  -0.02471
  41        3PX         0.00671   0.00000  -0.00000  -0.00000  -0.00000
  42        3PY         0.00000  -0.00687   0.00339   0.03637   0.08984
  43        3PZ         0.00000  -0.00414  -0.00197   0.01404   0.02736
  44        4S         -0.00000   0.00261  -0.00136  -0.01136  -0.01123
  45        4PX         0.00500   0.00000  -0.00000  -0.00000  -0.00000
  46        4PY         0.00000  -0.00482   0.00172   0.04887   0.10418
  47        4PZ         0.00000  -0.00224  -0.00085   0.00898   0.01600
  48        5S          0.00000  -0.00031  -0.00075  -0.00055   0.00182
  49        5PX         0.00026   0.00000   0.00000  -0.00000  -0.00000
  50        5PY         0.00000  -0.00007  -0.00075   0.02800   0.04960
  51        5PZ         0.00000  -0.00064   0.00010   0.00347   0.00470
  52        6D 0       -0.00000   0.00046   0.00019  -0.00144  -0.00277
  53        6D+1       -0.00056  -0.00000   0.00000  -0.00000  -0.00000
  54        6D-1       -0.00000   0.00062  -0.00049   0.00313   0.00319
  55        6D+2        0.00000   0.00002   0.00000  -0.00008  -0.00012
  56        6D-2       -0.00000   0.00000   0.00000   0.00000  -0.00000
                          31        32        33        34        35
  31        3S          0.09554
  32        4PX        -0.00000   0.00018
  33        4PY         0.00089  -0.00000   0.00121
  34        4PZ         0.00180  -0.00000   0.00048   0.00034
  35 4   O  1S          0.00152  -0.00000   0.00060  -0.00080   0.63933
  36        2S          0.00175  -0.00000   0.00132  -0.00072   0.56864
  37        2PX        -0.00000   0.00457   0.00000   0.00000   0.00000
  38        2PY         0.10022   0.00000  -0.00472  -0.00233   0.00000
  39        2PZ         0.00493  -0.00000   0.00296  -0.00140  -0.00887
  40        3S         -0.00282   0.00000  -0.00514   0.00005  -0.12937
  41        3PX        -0.00000   0.00671   0.00000   0.00000   0.00000
  42        3PY         0.14542   0.00000  -0.00687  -0.00339   0.00000
  43        3PZ         0.00690  -0.00000   0.00414  -0.00197  -0.01243
  44        4S          0.00073   0.00000  -0.00261  -0.00136  -0.12825
  45        4PX        -0.00000   0.00500   0.00000   0.00000   0.00000
  46        4PY         0.14072   0.00000  -0.00482  -0.00172   0.00000
  47        4PZ         0.00379  -0.00000   0.00224  -0.00085  -0.01398
  48        5S          0.00124  -0.00000   0.00031  -0.00075  -0.00638
  49        5PX        -0.00000   0.00026   0.00000  -0.00000   0.00000
  50        5PY         0.04727   0.00000  -0.00007   0.00075  -0.00000
  51        5PZ         0.00068  -0.00000   0.00064   0.00010   0.00111
  52        6D 0       -0.00066   0.00000  -0.00046   0.00019  -0.00156
  53        6D+1        0.00000  -0.00056  -0.00000  -0.00000   0.00000
  54        6D-1       -0.00249  -0.00000   0.00062   0.00049   0.00000
  55        6D+2       -0.00001   0.00000  -0.00002   0.00000  -0.00060
  56        6D-2        0.00000   0.00000   0.00000   0.00000  -0.00000
                          36        37        38        39        40
  36        2S          0.52290
  37        2PX         0.00000   0.11367
  38        2PY         0.00000  -0.00000   0.17975
  39        2PZ        -0.01387   0.00000   0.00000   0.15636
  40        3S         -0.22043   0.00000   0.00000   0.04375   0.67440
  41        3PX         0.00000   0.16690  -0.00000   0.00000   0.00000
  42        3PY         0.00000  -0.00000   0.26106  -0.00000  -0.00000
  43        3PZ        -0.01867   0.00000   0.00000   0.21805   0.05659
  44        4S         -0.20117   0.00000   0.00000   0.16077   0.56631
  45        4PX         0.00000   0.12438  -0.00000   0.00000   0.00000
  46        4PY         0.00000  -0.00000   0.22416  -0.00000  -0.00000
  47        4PZ        -0.02306   0.00000   0.00000   0.11322   0.07172
  48        5S         -0.01218   0.00000   0.00000   0.06294   0.04353
  49        5PX         0.00000   0.00636  -0.00000   0.00000   0.00000
  50        5PY        -0.00000  -0.00000   0.05118  -0.00000   0.00000
  51        5PZ         0.00124   0.00000   0.00000   0.00609  -0.00173
  52        6D 0       -0.00324  -0.00000  -0.00000  -0.01881   0.01105
  53        6D+1        0.00000  -0.01389   0.00000   0.00000  -0.00000
  54        6D-1        0.00000   0.00000  -0.01227   0.00000  -0.00000
  55        6D+2       -0.00102   0.00000  -0.00000   0.00011   0.00311
  56        6D-2       -0.00000   0.00000  -0.00000   0.00000   0.00000
                          41        42        43        44        45
  41        3PX         0.24505
  42        3PY        -0.00000   0.37916
  43        3PZ         0.00000   0.00000   0.30414
  44        4S          0.00000   0.00000   0.22073   0.57770
  45        4PX         0.18262  -0.00000   0.00000   0.00000   0.13610
  46        4PY        -0.00000   0.32552  -0.00000  -0.00000  -0.00000
  47        4PZ         0.00000   0.00000   0.15765   0.14729   0.00000
  48        5S          0.00000   0.00000   0.08766   0.08575   0.00000
  49        5PX         0.00934  -0.00000   0.00000   0.00000   0.00696
  50        5PY        -0.00000   0.07427  -0.00000  -0.00000  -0.00000
  51        5PZ         0.00000   0.00000   0.00848   0.00296   0.00000
  52        6D 0       -0.00000  -0.00000  -0.02635  -0.00656  -0.00000
  53        6D+1       -0.02040  -0.00000   0.00000   0.00000  -0.01520
  54        6D-1       -0.00000  -0.01783   0.00000   0.00000   0.00000
  55        6D+2        0.00000  -0.00000   0.00013   0.00253   0.00000
  56        6D-2        0.00000  -0.00000   0.00000   0.00000   0.00000
                          46        47        48        49        50
  46        4PY         0.28595
  47        4PZ         0.00000   0.08472
  48        5S          0.00000   0.04683   0.02694
  49        5PX        -0.00000   0.00000   0.00000   0.00036
  50        5PY         0.07144  -0.00000  -0.00000  -0.00000   0.02364
  51        5PZ         0.00000   0.00447   0.00190   0.00000   0.00000
  52        6D 0       -0.00000  -0.01262  -0.00698  -0.00000  -0.00000
  53        6D+1        0.00000   0.00000   0.00000  -0.00078   0.00000
  54        6D-1       -0.01353   0.00000   0.00000   0.00000  -0.00139
  55        6D+2       -0.00000   0.00027   0.00017  -0.00000  -0.00000
  56        6D-2       -0.00000  -0.00000   0.00000   0.00000   0.00000
                          51        52        53        54        55
  51        5PZ         0.00057
  52        6D 0       -0.00079   0.00267
  53        6D+1        0.00000   0.00000   0.00170
  54        6D-1        0.00000   0.00000   0.00000   0.00133
  55        6D+2       -0.00001   0.00006  -0.00000   0.00000   0.00001
  56        6D-2        0.00000   0.00000  -0.00000   0.00000  -0.00000
                          56
  56        6D-2        0.00000
          Condensed to atoms (all electrons):
               1          2          3          4
     1  C    4.711229   0.405036   0.405036   0.407787
     2  H    0.405036   0.752843  -0.128486  -0.099203
     3  H    0.405036  -0.128486   0.752843  -0.099203
     4  O    0.407787  -0.099203  -0.099203   8.001152
 Mulliken charges:
               1
     1  C    0.070913
     2  H    0.069810
     3  H    0.069810
     4  O   -0.210534
 Sum of Mulliken charges =  -0.00000
 Mulliken charges with hydrogens summed into heavy atoms:
               1
     1  C    0.210534
     4  O   -0.210534
 Electronic spatial extent (au):  <R**2>=             55.9142
 Charge=             -0.0000 electrons
 Dipole moment (field-independent basis, Debye):
    X=             -0.0000    Y=             -0.0000    Z=             -1.7413  Tot=              1.7413
 Quadrupole moment (field-independent basis, Debye-Ang):
   XX=            -11.3244   YY=            -11.8692   ZZ=            -12.7931
   XY=              0.0000   XZ=              0.0000   YZ=              0.0000
 Traceless Quadrupole moment (field-independent basis, Debye-Ang):
   XX=              0.6712   YY=              0.1263   ZZ=             -0.7975
   XY=              0.0000   XZ=              0.0000   YZ=              0.0000
 Octapole moment (field-independent basis, Debye-Ang**2):
  XXX=              0.0000  YYY=              0.0000  ZZZ=              1.6074  XYY=              0.0000
  XXY=              0.0000  XXZ=              0.8488  XZZ=              0.0000  YZZ=              0.0000
  YYZ=              0.5306  XYZ=             -0.0000
 Hexadecapole moment (field-independent basis, Debye-Ang**3):
 XXXX=             -9.7860 YYYY=            -20.4027 ZZZZ=            -42.3759 XXXY=             -0.0000
 XXXZ=             -0.0000 YYYX=             -0.0000 YYYZ=              0.0000 ZZZX=             -0.0000
 ZZZY=              0.0000 XXYY=             -5.2371 XXZZ=             -8.5485 YYZZ=            -10.8447
 XXYZ=              0.0000 YYXZ=             -0.0000 ZZXY=             -0.0000
 N-N= 3.431143581781D+01 E-N=-3.379686000814D+02  KE= 1.148518605159D+02
 Symmetry A1   KE= 1.042266908794D+02
 Symmetry A2   KE= 5.601769988657D-36
 Symmetry B1   KE= 3.841471058229D+00
 Symmetry B2   KE= 6.783698578273D+00
 Leave Link  601 at Fri Sep 17 10:52:38 2021, MaxMem=   268435456 cpu:               0.0 elap:               0.0
 (Enter /software/gaussian/g16-a03/l9999.exe)
 Electronic transition elements 
                 1             2             3             4             5 
      1  -0.114327D+03 -0.114260D+03 -0.114231D+03 -0.114226D+03 -0.114207D+03
      2   0.000000D+00  0.000000D+00  0.000000D+00  0.000000D+00  0.000000D+00
      3   0.000000D+00  0.580024D+00  0.342859D+00  0.000000D+00  0.000000D+00
      4   0.000000D+00  0.000000D+00  0.000000D+00 -0.541513D+00  0.000000D+00
      5   0.000000D+00  0.000000D+00  0.000000D+00  0.000000D+00  0.000000D+00
      6   0.000000D+00 -0.138812D+00 -0.969379D-01  0.000000D+00  0.000000D+00
      7   0.000000D+00  0.000000D+00  0.000000D+00  0.144194D+00  0.000000D+00
      8   0.000000D+00 -0.438586D+00  0.774110D+00  0.000000D+00  0.000000D+00
      9   0.000000D+00  0.000000D+00  0.000000D+00  0.000000D+00  0.000000D+00
     10   0.128166D+01  0.000000D+00  0.000000D+00  0.000000D+00 -0.129777D+00
     11   0.000000D+00  0.000000D+00  0.000000D+00 -0.117930D+00  0.000000D+00
     12   0.000000D+00  0.000000D+00  0.000000D+00 -0.501662D+00  0.000000D+00
     13   0.000000D+00  0.000000D+00  0.000000D+00 -0.239301D+00  0.000000D+00
     14  -0.147037D+00  0.000000D+00  0.000000D+00  0.000000D+00 -0.126617D+00
     15   0.000000D+00  0.000000D+00  0.000000D+00  0.000000D+00  0.000000D+00
     16   0.000000D+00  0.534570D+00  0.129929D+00  0.000000D+00  0.000000D+00
                 6             7             8             9            10 
      1  -0.114124D+03 -0.114104D+03 -0.114098D+03 -0.114091D+03 -0.114066D+03
      2   0.000000D+00  0.204447D-01  0.000000D+00  0.000000D+00  0.000000D+00
      3   0.887993D+00  0.000000D+00 -0.722562D-01  0.000000D+00  0.000000D+00
      4   0.000000D+00  0.000000D+00  0.000000D+00  0.182453D+00  0.000000D+00
      5   0.000000D+00 -0.183626D-01  0.000000D+00  0.000000D+00  0.000000D+00
      6  -0.334357D+00  0.000000D+00 -0.119033D-02  0.000000D+00  0.000000D+00
      7   0.000000D+00  0.000000D+00  0.000000D+00 -0.663860D-01  0.000000D+00
      8  -0.914140D+00  0.000000D+00  0.716861D+00  0.000000D+00  0.000000D+00
      9   0.000000D+00 -0.141590D+01  0.000000D+00  0.000000D+00  0.000000D+00
     10   0.000000D+00  0.000000D+00  0.000000D+00  0.000000D+00 -0.382978D+00
     11   0.000000D+00  0.000000D+00  0.000000D+00  0.245869D+00  0.000000D+00
     12   0.000000D+00  0.000000D+00  0.000000D+00 -0.435015D+00  0.000000D+00
     13   0.000000D+00  0.000000D+00  0.000000D+00 -0.636929D+00  0.000000D+00
     14   0.000000D+00  0.000000D+00  0.000000D+00  0.000000D+00  0.369926D+00
     15   0.000000D+00 -0.437580D+00  0.000000D+00  0.000000D+00  0.000000D+00
     16   0.757990D+00  0.000000D+00  0.304267D+00  0.000000D+00  0.000000D+00
                11            12            13            14            15 
      1  -0.114064D+03 -0.114058D+03 -0.114048D+03 -0.114044D+03 -0.114032D+03
      2  -0.374364D+00  0.000000D+00  0.000000D+00  0.000000D+00  0.286558D+00
      3   0.000000D+00  0.000000D+00  0.000000D+00  0.000000D+00  0.000000D+00
      4   0.000000D+00  0.000000D+00  0.306141D-01 -0.695447D+00  0.000000D+00
      5   0.167162D+00  0.000000D+00  0.000000D+00  0.000000D+00 -0.143593D+00
      6   0.000000D+00  0.000000D+00  0.000000D+00  0.000000D+00  0.000000D+00
      7   0.000000D+00  0.000000D+00 -0.171281D-01  0.314551D+00  0.000000D+00
      8   0.000000D+00  0.000000D+00  0.000000D+00  0.000000D+00  0.000000D+00
      9  -0.374521D-01  0.000000D+00  0.000000D+00  0.000000D+00 -0.818899D-02
     10   0.000000D+00  0.331260D+00  0.000000D+00  0.000000D+00  0.000000D+00
     11   0.000000D+00  0.000000D+00  0.241224D+00  0.321034D-01  0.000000D+00
     12   0.000000D+00  0.000000D+00  0.464933D+00 -0.278581D-01  0.000000D+00
     13   0.000000D+00  0.000000D+00  0.217775D+00  0.920269D-01  0.000000D+00
     14   0.000000D+00  0.894698D-01  0.000000D+00  0.000000D+00  0.000000D+00
     15  -0.552086D-01  0.000000D+00  0.000000D+00  0.000000D+00 -0.273176D+00
     16   0.000000D+00  0.000000D+00  0.000000D+00  0.000000D+00  0.000000D+00
                16            17            18            19            20 
      1  -0.114031D+03 -0.114023D+03 -0.114010D+03 -0.114008D+03 -0.114007D+03
      2   0.000000D+00  0.000000D+00  0.000000D+00  0.000000D+00  0.000000D+00
      3   0.000000D+00  0.000000D+00  0.000000D+00 -0.484319D+00 -0.109710D+00
      4   0.000000D+00  0.106454D+01  0.380351D+00  0.000000D+00  0.000000D+00
      5   0.000000D+00  0.000000D+00  0.000000D+00  0.000000D+00  0.000000D+00
      6   0.000000D+00  0.000000D+00  0.000000D+00  0.242959D+00  0.645438D-01
      7   0.000000D+00 -0.506212D+00 -0.192814D+00  0.000000D+00  0.000000D+00
      8   0.000000D+00  0.000000D+00  0.000000D+00 -0.526946D+00 -0.398037D+00
      9   0.000000D+00  0.000000D+00  0.000000D+00  0.000000D+00  0.000000D+00
     10   0.469623D-01  0.000000D+00  0.000000D+00  0.000000D+00  0.000000D+00
     11   0.000000D+00  0.434919D+00 -0.374330D+00  0.000000D+00  0.000000D+00
     12   0.000000D+00  0.804051D+00 -0.352783D+00  0.000000D+00  0.000000D+00
     13   0.000000D+00  0.756876D+00 -0.952681D-01  0.000000D+00  0.000000D+00
     14   0.256996D+00  0.000000D+00  0.000000D+00  0.000000D+00  0.000000D+00
     15   0.000000D+00  0.000000D+00  0.000000D+00  0.000000D+00  0.000000D+00
     16   0.000000D+00  0.000000D+00  0.000000D+00  0.540412D-01  0.167746D+00
                21            22            23            24            25 
      1  -0.113999D+03 -0.113993D+03 -0.113987D+03 -0.113960D+03 -0.113952D+03
      2   0.000000D+00  0.000000D+00 -0.270327D+00  0.000000D+00 -0.121292D+00
      3   0.000000D+00 -0.541345D+00  0.000000D+00  0.226771D+00  0.000000D+00
      4  -0.574433D+00  0.000000D+00  0.000000D+00  0.000000D+00  0.000000D+00
      5   0.000000D+00  0.000000D+00  0.132826D+00  0.000000D+00  0.858054D-01
      6   0.000000D+00  0.273473D+00  0.000000D+00 -0.126896D+00  0.000000D+00
      7   0.292640D+00  0.000000D+00  0.000000D+00  0.000000D+00  0.000000D+00
      8   0.000000D+00  0.270062D+00  0.000000D+00 -0.224756D+00  0.000000D+00
      9   0.000000D+00  0.000000D+00  0.545547D+00  0.000000D+00 -0.376954D+00
     10   0.000000D+00  0.000000D+00  0.000000D+00  0.000000D+00  0.000000D+00
     11   0.481594D+00  0.000000D+00  0.000000D+00  0.000000D+00  0.000000D+00
     12  -0.346213D+00  0.000000D+00  0.000000D+00  0.000000D+00  0.000000D+00
     13  -0.578027D-01  0.000000D+00  0.000000D+00  0.000000D+00  0.000000D+00
     14   0.000000D+00  0.000000D+00  0.000000D+00  0.000000D+00  0.000000D+00
     15   0.000000D+00  0.000000D+00  0.178345D+00  0.000000D+00 -0.167030D+00
     16   0.000000D+00 -0.421174D+00  0.000000D+00 -0.348288D+00  0.000000D+00
                26            27            28            29            30 
      1  -0.113950D+03 -0.113939D+03 -0.113933D+03 -0.113925D+03 -0.113921D+03
      2   0.000000D+00  0.000000D+00  0.000000D+00 -0.686523D+00  0.000000D+00
      3   0.000000D+00  0.000000D+00 -0.244792D+00  0.000000D+00  0.000000D+00
      4  -0.205442D+00  0.000000D+00  0.000000D+00  0.000000D+00  0.902097D-01
      5   0.000000D+00  0.000000D+00  0.000000D+00  0.394994D+00  0.000000D+00
      6   0.000000D+00  0.000000D+00  0.138743D+00  0.000000D+00  0.000000D+00
      7   0.120055D+00  0.000000D+00  0.000000D+00  0.000000D+00 -0.541272D-01
      8   0.000000D+00  0.000000D+00  0.954003D+00  0.000000D+00  0.000000D+00
      9   0.000000D+00  0.000000D+00  0.000000D+00 -0.359852D+00  0.000000D+00
     10   0.000000D+00  0.704534D-01  0.000000D+00  0.000000D+00  0.000000D+00
     11   0.298877D+00  0.000000D+00  0.000000D+00  0.000000D+00 -0.244750D+00
     12   0.739787D+00  0.000000D+00  0.000000D+00  0.000000D+00  0.386907D+00
     13   0.553547D-01  0.000000D+00  0.000000D+00  0.000000D+00 -0.145357D+00
     14   0.000000D+00  0.288737D+00  0.000000D+00  0.000000D+00  0.000000D+00
     15   0.000000D+00  0.000000D+00  0.000000D+00 -0.446280D+00  0.000000D+00
     16   0.000000D+00  0.000000D+00 -0.318716D-01  0.000000D+00  0.000000D+00

 Test job not archived.
 1\1\GINC-BHD0010\SP\RB3LYP TD-FC\6-311+G(d,p)\C1H2O1\BWEIGHT\17-Sep-20
 21\0\\#p B3LYP/6-311+G** #p TD=(singlets,nstates=30)IOp(6/8=3) IOp(9/4
 0=4)\\Scan Step 113, Bond Length 1.065\\0,1\C,0,0.,0.,-0.52736\H,0,0.,
 0.93726,-1.11871\H,0,0.,-0.93726,-1.11871\O,0,0.,0.,0.53764\\Version=E
 S64L-G16RevA.03\State=1-A1\HF=-114.5016904\RMSD=2.953e-09\PG=C02V [C2(
 C1O1),SGV(H2)]\\@


 IN THE UNIVERSE THE DIFFICULT THINGS ARE DONE AS IF THEY WERE EASY.

                                                          -- LAO-TSU
 Job cpu time:       0 days  0 hours  0 minutes 26.5 seconds.
 Elapsed time:       0 days  0 hours  0 minutes 27.1 seconds.
 File lengths (MBytes):  RWF=     79 Int=      0 D2E=      0 Chk=     32 Scr=      1
 Normal termination of Gaussian 16 at Fri Sep 17 10:52:38 2021.
