 Entering Gaussian System, Link 0=g16
 Initial command:
 /software/gaussian/g16-c01/sse4/g16/l1.exe "/local_scratch/24657579/Gau-27377.inp" -scrdir="/local_scratch/24657579/"
 Entering Link 1 = /software/gaussian/g16-c01/sse4/g16/l1.exe PID=     27378.
  
 Copyright (c) 1988-2019, Gaussian, Inc.  All Rights Reserved.
  
 This is part of the Gaussian(R) 16 program.  It is based on
 the Gaussian(R) 09 system (copyright 2009, Gaussian, Inc.),
 the Gaussian(R) 03 system (copyright 2003, Gaussian, Inc.),
 the Gaussian(R) 98 system (copyright 1998, Gaussian, Inc.),
 the Gaussian(R) 94 system (copyright 1995, Gaussian, Inc.),
 the Gaussian 92(TM) system (copyright 1992, Gaussian, Inc.),
 the Gaussian 90(TM) system (copyright 1990, Gaussian, Inc.),
 the Gaussian 88(TM) system (copyright 1988, Gaussian, Inc.),
 the Gaussian 86(TM) system (copyright 1986, Carnegie Mellon
 University), and the Gaussian 82(TM) system (copyright 1983,
 Carnegie Mellon University). Gaussian is a federally registered
 trademark of Gaussian, Inc.
  
 This software contains proprietary and confidential information,
 including trade secrets, belonging to Gaussian, Inc.
  
 This software is provided under written license and may be
 used, copied, transmitted, or stored only in accord with that
 written license.
  
 The following legend is applicable only to US Government
 contracts under FAR:
  
                    RESTRICTED RIGHTS LEGEND
  
 Use, reproduction and disclosure by the US Government is
 subject to restrictions as set forth in subparagraphs (a)
 and (c) of the Commercial Computer Software - Restricted
 Rights clause in FAR 52.227-19.
  
 Gaussian, Inc.
 340 Quinnipiac St., Bldg. 40, Wallingford CT 06492
  
  
 ---------------------------------------------------------------
 Warning -- This program may not be used in any manner that
 competes with the business of Gaussian, Inc. or will provide
 assistance to any competitor of Gaussian, Inc.  The licensee
 of this program is prohibited from giving any competitor of
 Gaussian, Inc. access to this program.  By using this program,
 the user acknowledges that Gaussian, Inc. is engaged in the
 business of creating and licensing software in the field of
 computational chemistry and represents and warrants to the
 licensee that it is not a competitor of Gaussian, Inc. and that
 it will not use this program in any manner prohibited above.
 ---------------------------------------------------------------
  

 Cite this work as:
 Gaussian 16, Revision C.01,
 M. J. Frisch, G. W. Trucks, H. B. Schlegel, G. E. Scuseria, 
 M. A. Robb, J. R. Cheeseman, G. Scalmani, V. Barone, 
 G. A. Petersson, H. Nakatsuji, X. Li, M. Caricato, A. V. Marenich, 
 J. Bloino, B. G. Janesko, R. Gomperts, B. Mennucci, H. P. Hratchian, 
 J. V. Ortiz, A. F. Izmaylov, J. L. Sonnenberg, D. Williams-Young, 
 F. Ding, F. Lipparini, F. Egidi, J. Goings, B. Peng, A. Petrone, 
 T. Henderson, D. Ranasinghe, V. G. Zakrzewski, J. Gao, N. Rega, 
 G. Zheng, W. Liang, M. Hada, M. Ehara, K. Toyota, R. Fukuda, 
 J. Hasegawa, M. Ishida, T. Nakajima, Y. Honda, O. Kitao, H. Nakai, 
 T. Vreven, K. Throssell, J. A. Montgomery, Jr., J. E. Peralta, 
 F. Ogliaro, M. J. Bearpark, J. J. Heyd, E. N. Brothers, K. N. Kudin, 
 V. N. Staroverov, T. A. Keith, R. Kobayashi, J. Normand, 
 K. Raghavachari, A. P. Rendell, J. C. Burant, S. S. Iyengar, 
 J. Tomasi, M. Cossi, J. M. Millam, M. Klene, C. Adamo, R. Cammi, 
 J. W. Ochterski, R. L. Martin, K. Morokuma, O. Farkas, 
 J. B. Foresman, and D. J. Fox, Gaussian, Inc., Wallingford CT, 2019.
 
 ******************************************
 Gaussian 16:  ES64L-G16RevC.01  3-Jul-2019
                 1-May-2024 
 ******************************************
 %chk=geometry.chk
 %mem=9GB
 %nprocshared=12
 Will use up to   12 processors via shared memory.
 ----------------------------------------
 #P wB97XD/6-311+G* NoSymm #P Field=Z+175
 ----------------------------------------
 1/38=1,172=1/1;
 2/12=2,15=1,17=6,18=5,40=1/2;
 3/5=4,6=6,7=11,11=2,14=3,15=175,25=1,30=1,74=-58/1,2,3;
 4//1;
 5/5=2,38=5/2;
 6/7=2,8=2,9=2,10=2,28=1/1;
 99/5=1,9=1/99;
 Leave Link    1 at Wed May  1 15:08:03 2024, MaxMem=  1207959552 cpu:               1.1 elap:               1.1
 (Enter /software/gaussian/g16-c01/sse4/g16/l101.exe)
 -------
 TitleMe
 -------
 Symbolic Z-matrix:
 Charge =  1 Multiplicity = 1
 C                     0.0295    1.3397    0.0682 
 C                     1.4348    1.2867    0.0064 
 C                     2.1118    0.0511   -0.0054 
 C                     1.4451   -1.1372    0.0312 
 C                    -0.6879    0.1682    0.11 
 H                    -0.4713    2.2984    0.0781 
 H                     2.0273    2.1965   -0.0322 
 H                     1.9897   -2.0764    0.0232 
 H                    -1.7716    0.1804    0.1582 
 N                     3.5864    0.051    -0.0675 
 O                     4.1471   -1.0597   -0.0881 
 O                     4.145     1.1639   -0.0901 
 C                    -0.0236   -1.1458    0.0835 
 H                    -0.4367   -1.8725    0.7889 
 Br                   -0.5359   -1.8697   -1.7408 
 
 ITRead=  0  0  0  0  0  0  0  0  0  0  0  0  0  0  0
 MicOpt= -1 -1 -1 -1 -1 -1 -1 -1 -1 -1 -1 -1 -1 -1 -1
 NAtoms=     15 NQM=       15 NQMF=       0 NMMI=      0 NMMIF=      0
                NMic=       0 NMicF=      0.
                    Isotopes and Nuclear Properties:
 (Nuclear quadrupole moments (NQMom) in fm**2, nuclear magnetic moments (NMagM)
  in nuclear magnetons)

  Atom         1           2           3           4           5           6           7           8           9          10
 IAtWgt=          12          12          12          12          12           1           1           1           1          14
 AtmWgt=  12.0000000  12.0000000  12.0000000  12.0000000  12.0000000   1.0078250   1.0078250   1.0078250   1.0078250  14.0030740
 NucSpn=           0           0           0           0           0           1           1           1           1           2
 AtZEff=  -0.0000000  -0.0000000  -0.0000000  -0.0000000  -0.0000000  -0.0000000  -0.0000000  -0.0000000  -0.0000000  -0.0000000
 NQMom=    0.0000000   0.0000000   0.0000000   0.0000000   0.0000000   0.0000000   0.0000000   0.0000000   0.0000000   2.0440000
 NMagM=    0.0000000   0.0000000   0.0000000   0.0000000   0.0000000   2.7928460   2.7928460   2.7928460   2.7928460   0.4037610
 AtZNuc=   6.0000000   6.0000000   6.0000000   6.0000000   6.0000000   1.0000000   1.0000000   1.0000000   1.0000000   7.0000000

  Atom        11          12          13          14          15
 IAtWgt=          16          16          12           1          79
 AtmWgt=  15.9949146  15.9949146  12.0000000   1.0078250  78.9183361
 NucSpn=           0           0           0           1           3
 AtZEff=  -0.0000000  -0.0000000  -0.0000000  -0.0000000  -0.0000000
 NQMom=    0.0000000   0.0000000   0.0000000   0.0000000  31.3000000
 NMagM=    0.0000000   0.0000000   0.0000000   2.7928460   2.1063990
 AtZNuc=   8.0000000   8.0000000   6.0000000   1.0000000  35.0000000
 Leave Link  101 at Wed May  1 15:08:04 2024, MaxMem=  1207959552 cpu:               1.5 elap:               1.5
 (Enter /software/gaussian/g16-c01/sse4/g16/l202.exe)
                          Input orientation:                          
 ---------------------------------------------------------------------
 Center     Atomic      Atomic             Coordinates (Angstroms)
 Number     Number       Type             X           Y           Z
 ---------------------------------------------------------------------
      1          6           0        0.029500    1.339700    0.068200
      2          6           0        1.434800    1.286700    0.006400
      3          6           0        2.111800    0.051100   -0.005400
      4          6           0        1.445100   -1.137200    0.031200
      5          6           0       -0.687900    0.168200    0.110000
      6          1           0       -0.471300    2.298400    0.078100
      7          1           0        2.027300    2.196500   -0.032200
      8          1           0        1.989700   -2.076400    0.023200
      9          1           0       -1.771600    0.180400    0.158200
     10          7           0        3.586400    0.051000   -0.067500
     11          8           0        4.147100   -1.059700   -0.088100
     12          8           0        4.145000    1.163900   -0.090100
     13          6           0       -0.023600   -1.145800    0.083500
     14          1           0       -0.436700   -1.872500    0.788900
     15         35           0       -0.535900   -1.869700   -1.740800
 ---------------------------------------------------------------------
                    Distance matrix (angstroms):
                    1          2          3          4          5
     1  C    0.000000
     2  C    1.407656   0.000000
     3  C    2.449874   1.408963   0.000000
     4  C    2.853126   2.424049   1.363043   0.000000
     5  C    1.374344   2.401589   2.804523   2.501993   0.000000
     6  H    1.081667   2.159142   3.424870   3.934226   2.141421
     7  H    2.176095   1.086408   2.147231   3.384750   3.392128
     8  H    3.938800   3.408612   2.131193   1.085702   3.495040
     9  H    2.143837   3.395283   3.888995   3.478413   1.084840
    10  N    3.785591   2.482297   1.475907   2.450862   4.279589
    11  O    4.768247   3.587631   2.320164   2.705743   4.992415
    12  O    4.122294   2.714696   2.319353   3.549540   4.938459
    13  C    2.486114   2.837240   2.449573   1.469656   1.472614
    14  H    3.324903   3.754379   3.290289   2.157764   2.165286
    15  Br   3.727252   4.110867   3.702891   2.756973   2.757100
                    6          7          8          9         10
     6  H    0.000000
     7  H    2.503108   0.000000
     8  H    5.019802   4.273425   0.000000
     9  H    2.486588   4.304945   4.388479   0.000000
    10  N    4.640790   2.652397   2.661486   5.364313   0.000000
    11  O    5.712624   3.885809   2.387560   6.052233   1.244373
    12  O    4.756638   2.356750   3.893289   6.002923   1.245428
    13  C    3.473180   3.923079   2.218790   2.195425   3.806210
    14  H    4.231175   4.827242   2.552506   2.528663   4.540772
    15  Br   4.548146   5.101303   3.087568   3.055498   4.845862
                   11         12         13         14         15
    11  O    0.000000
    12  O    2.223602   0.000000
    13  C    4.175117   4.768865   0.000000
    14  H    4.737193   5.566358   1.093770   0.000000
    15  Br   5.031700   5.817075   2.028436   2.531646   0.000000
 Symmetry turned off by external request.
 Stoichiometry    C6H5BrNO2(1+)
 Framework group  C1[X(C6H5BrNO2)]
 Deg. of freedom    39
 Full point group                 C1      NOp   1
 Rotational constants (GHZ):           1.8252210           0.5518633           0.4576002
 Leave Link  202 at Wed May  1 15:08:05 2024, MaxMem=  1207959552 cpu:               1.2 elap:               1.2
 (Enter /software/gaussian/g16-c01/sse4/g16/l301.exe)
 Standard basis: 6-311+G(d) (5D, 7F)
 Ernie: Thresh=  0.10000D-02 Tol=  0.10000D-05 Strict=F.
 The following finite field(s) will be applied:
 An electric field of              0.0000  0.0000  0.0175
   261 basis functions,   443 primitive gaussians,   273 cartesian basis functions
    49 alpha electrons       49 beta electrons
       nuclear repulsion energy       739.2122215416 Hartrees.
 IExCor= 4639 DFT=T Ex+Corr=wB97XD ExCW=0 ScaHFX=  1.000000
 ScaDFX=  1.000000  1.000000  1.000000  1.000000 ScalE2=  1.000000  1.000000
 IRadAn=      5 IRanWt=     -1 IRanGd=            0 ICorTp=0 IEmpDi=121
 HFx  wShort=  0.000000 wLong=  0.200000 cFull=  0.222036 cShort=  0.000000 cLong=  0.777964
 DFx  wShort=  0.000000 wLong=  0.200000 cFull=  0.000000 cShort=  0.000000 cLong=  1.000000
 NAtoms=   15 NActive=   15 NUniq=   15 SFac= 1.00D+00 NAtFMM=   60 NAOKFM=F Big=F
 Integral buffers will be    131072 words long.
 Raffenetti 2 integral format.
 Two-electron integral symmetry is turned off.
 R6Disp:  Grimme-D2 Dispersion energy=       -0.0077368520 Hartrees.
 Nuclear repulsion after empirical dispersion term =      739.2044846896 Hartrees.
 Leave Link  301 at Wed May  1 15:08:06 2024, MaxMem=  1207959552 cpu:               1.0 elap:               1.0
 (Enter /software/gaussian/g16-c01/sse4/g16/l302.exe)
 NPDir=0 NMtPBC=     1 NCelOv=     1 NCel=       1 NClECP=     1 NCelD=      1
         NCelK=      1 NCelE2=     1 NClLst=     1 CellRange=     0.0.
 One-electron integrals computed using PRISM.
 NBasis=   261 RedAO= T EigKep=  2.35D-06  NBF=   261
 NBsUse=   261 1.00D-06 EigRej= -1.00D+00 NBFU=   261
 Precomputing XC quadrature grid using
 IXCGrd= 4 IRadAn=           5 IRanWt=          -1 IRanGd=           0 AccXCQ= 0.00D+00.
 Generated NRdTot=       0 NPtTot=           0 NUsed=           0 NTot=          32
 NSgBfM=   273   273   273   273   273 MxSgAt=    15 MxSgA2=    15.
 Leave Link  302 at Wed May  1 15:08:28 2024, MaxMem=  1207959552 cpu:              21.2 elap:              21.2
 (Enter /software/gaussian/g16-c01/sse4/g16/l303.exe)
 DipDrv:  MaxL=1.
 The nuclear repulsion energy is now       737.2187344941 hartrees.
 Leave Link  303 at Wed May  1 15:08:31 2024, MaxMem=  1207959552 cpu:               3.4 elap:               3.3
 (Enter /software/gaussian/g16-c01/sse4/g16/l401.exe)
 ExpMin= 3.50D-02 ExpMax= 4.40D+05 ExpMxC= 1.51D+04 IAcc=3 IRadAn=         5 AccDes= 0.00D+00
 Harris functional with IExCor= 4639 and IRadAn=       5 diagonalized for initial guess.
 HarFok:  IExCor= 4639 AccDes= 0.00D+00 IRadAn=         5 IDoV= 1 UseB2=F ITyADJ=14
 ICtDFT=  3500011 ScaDFX=  1.000000  1.000000  1.000000  1.000000
 FoFCou: FMM=F IPFlag=           0 FMFlag=      100000 FMFlg1=           0
         NFxFlg=           0 DoJE=T BraDBF=F KetDBF=T FulRan=T
         wScrn=  0.000000 ICntrl=       500 IOpCl=  0 I1Cent=   200000004 NGrid=           0
         NMat0=    1 NMatS0=      1 NMatT0=    0 NMatD0=    1 NMtDS0=    0 NMtDT0=    0
 Symmetry not used in FoFCou.
 Harris En= -2970.61539090327    
 JPrj=0 DoOrth=F DoCkMO=F.
 Leave Link  401 at Wed May  1 15:09:01 2024, MaxMem=  1207959552 cpu:              30.2 elap:              30.2
 (Enter /software/gaussian/g16-c01/sse4/g16/l502.exe)
 Two-electron integral symmetry not used.
 Closed shell SCF:
 Using DIIS extrapolation, IDIIS=  1040.
 NGot=  1207959552 LenX=  1207804877 LenY=  1207729907
 Requested convergence on RMS density matrix=1.00D-08 within 128 cycles.
 Requested convergence on MAX density matrix=1.00D-06.
 Requested convergence on             energy=1.00D-06.
 No special actions if energy rises.
 Fock matrices will be formed incrementally for  20 cycles.

 Cycle   1  Pass 1  IDiag  1:
 FoFJK:  IHMeth= 1 ICntrl=       0 DoSepK=T KAlg= 0 I1Cent=           0 FoldK=F
 IRaf=         1 NMat=       1 IRICut=       1 DoRegI=T DoRafI=F ISym2E= 0 IDoP0=0 IntGTp=1.
 FoFCou: FMM=F IPFlag=           0 FMFlag=      100000 FMFlg1=           0
         NFxFlg=           0 DoJE=T BraDBF=F KetDBF=F FulRan=T
         wScrn=  0.000000 ICntrl=       500 IOpCl=  0 I1Cent=           0 NGrid=           0
         NMat0=    1 NMatS0=      1 NMatT0=    0 NMatD0=    1 NMtDS0=    0 NMtDT0=    0
 Symmetry not used in FoFCou.
 E= -3009.69280120148    
 DIIS: error= 3.21D-01 at cycle   1 NSaved=   1.
 NSaved= 1 IEnMin= 1 EnMin= -3009.69280120148     IErMin= 1 ErrMin= 3.21D-01
 ErrMax= 3.21D-01  0.00D+00 EMaxC= 1.00D-01 BMatC= 1.20D+01 BMatP= 1.20D+01
 IDIUse=3 WtCom= 0.00D+00 WtEn= 1.00D+00
 Coeff-Com:  0.100D+01
 Coeff-En:   0.100D+01
 Coeff:      0.100D+01
 Gap=     0.329 Goal=   None    Shift=    0.000
 GapD=    0.329 DampG=1.000 DampE=0.250 DampFc=0.2500 IDamp=-1.
 Damping current iteration by 2.50D-01
 RMSDP=1.08D-01 MaxDP=1.50D+01              OVMax= 2.54D-01

 Cycle   2  Pass 1  IDiag  1:
 RMSU=  6.34D-03    CP:  8.34D-01
 E= -3009.99275391331     Delta-E=       -0.299952711831 Rises=F Damp=T
 DIIS: error= 2.25D-01 at cycle   2 NSaved=   2.
 NSaved= 2 IEnMin= 2 EnMin= -3009.99275391331     IErMin= 2 ErrMin= 2.25D-01
 ErrMax= 2.25D-01  0.00D+00 EMaxC= 1.00D-01 BMatC= 5.46D+00 BMatP= 1.20D+01
 IDIUse=3 WtCom= 0.00D+00 WtEn= 1.00D+00
 Coeff-Com: -0.181D+01 0.281D+01
 Coeff-En:   0.000D+00 0.100D+01
 Coeff:      0.000D+00 0.100D+01
 Gap=     0.291 Goal=   None    Shift=    0.000
 RMSDP=8.11D-02 MaxDP=1.12D+01 DE=-3.00D-01 OVMax= 6.31D-02

 Cycle   3  Pass 1  IDiag  1:
 RMSU=  5.22D-03    CP:  3.30D-01  3.00D+00
 E= -3010.38113735062     Delta-E=       -0.388383437306 Rises=F Damp=F
 DIIS: error= 6.66D-02 at cycle   3 NSaved=   3.
 NSaved= 3 IEnMin= 3 EnMin= -3010.38113735062     IErMin= 3 ErrMin= 6.66D-02
 ErrMax= 6.66D-02  0.00D+00 EMaxC= 1.00D-01 BMatC= 7.67D-01 BMatP= 5.46D+00
 IDIUse=3 WtCom= 3.34D-01 WtEn= 6.66D-01
 Coeff-Com:  0.269D+01-0.354D+01 0.185D+01
 Coeff-En:   0.478D-01 0.000D+00 0.952D+00
 Coeff:      0.932D+00-0.118D+01 0.125D+01
 Gap=     0.276 Goal=   None    Shift=    0.000
 RMSDP=8.67D-03 MaxDP=6.25D-01 DE=-3.88D-01 OVMax= 9.35D-02

 Cycle   4  Pass 1  IDiag  1:
 RMSU=  6.73D-03    CP:  3.59D-01  2.87D+00  1.33D+00
 E= -3010.49835364885     Delta-E=       -0.117216298234 Rises=F Damp=F
 DIIS: error= 3.73D-02 at cycle   4 NSaved=   4.
 NSaved= 4 IEnMin= 4 EnMin= -3010.49835364885     IErMin= 4 ErrMin= 3.73D-02
 ErrMax= 3.73D-02  0.00D+00 EMaxC= 1.00D-01 BMatC= 2.23D-01 BMatP= 7.67D-01
 IDIUse=3 WtCom= 6.27D-01 WtEn= 3.73D-01
 Coeff-Com: -0.269D+00 0.371D+00 0.215D+00 0.683D+00
 Coeff-En:   0.000D+00 0.000D+00 0.183D+00 0.817D+00
 Coeff:     -0.169D+00 0.233D+00 0.203D+00 0.732D+00
 Gap=     0.254 Goal=   None    Shift=    0.000
 RMSDP=5.55D-03 MaxDP=7.19D-01 DE=-1.17D-01 OVMax= 3.91D-02

 Cycle   5  Pass 1  IDiag  1:
 RMSU=  1.78D-03    CP:  3.27D-01  3.00D+00  1.24D+00  8.09D-01
 E= -3010.54415967479     Delta-E=       -0.045806025937 Rises=F Damp=F
 DIIS: error= 6.95D-03 at cycle   5 NSaved=   5.
 NSaved= 5 IEnMin= 5 EnMin= -3010.54415967479     IErMin= 5 ErrMin= 6.95D-03
 ErrMax= 6.95D-03  0.00D+00 EMaxC= 1.00D-01 BMatC= 7.67D-03 BMatP= 2.23D-01
 IDIUse=3 WtCom= 9.30D-01 WtEn= 6.95D-02
 Coeff-Com: -0.164D+00 0.222D+00 0.184D-01 0.327D+00 0.597D+00
 Coeff-En:   0.000D+00 0.000D+00 0.000D+00 0.000D+00 0.100D+01
 Coeff:     -0.153D+00 0.207D+00 0.171D-01 0.304D+00 0.625D+00
 Gap=     0.240 Goal=   None    Shift=    0.000
 RMSDP=5.83D-04 MaxDP=3.77D-02 DE=-4.58D-02 OVMax= 1.26D-02

 Cycle   6  Pass 1  IDiag  1:
 RMSU=  4.14D-04    CP:  3.26D-01  3.00D+00  1.26D+00  8.37D-01  8.57D-01
 E= -3010.54585939051     Delta-E=       -0.001699715714 Rises=F Damp=F
 DIIS: error= 3.47D-04 at cycle   6 NSaved=   6.
 NSaved= 6 IEnMin= 6 EnMin= -3010.54585939051     IErMin= 6 ErrMin= 3.47D-04
 ErrMax= 3.47D-04  0.00D+00 EMaxC= 1.00D-01 BMatC= 6.27D-05 BMatP= 7.67D-03
 IDIUse=3 WtCom= 9.97D-01 WtEn= 3.47D-03
 Coeff-Com: -0.754D-01 0.101D+00-0.163D-01 0.986D-01 0.254D+00 0.638D+00
 Coeff-En:   0.000D+00 0.000D+00 0.000D+00 0.000D+00 0.000D+00 0.100D+01
 Coeff:     -0.751D-01 0.101D+00-0.162D-01 0.983D-01 0.253D+00 0.639D+00
 Gap=     0.242 Goal=   None    Shift=    0.000
 RMSDP=1.97D-04 MaxDP=2.16D-02 DE=-1.70D-03 OVMax= 4.05D-03

 Cycle   7  Pass 1  IDiag  1:
 RMSU=  1.09D-04    CP:  3.25D-01  3.00D+00  1.27D+00  8.41D-01  9.30D-01
                    CP:  9.97D-01
 E= -3010.54593167215     Delta-E=       -0.000072281646 Rises=F Damp=F
 DIIS: error= 2.59D-04 at cycle   7 NSaved=   7.
 NSaved= 7 IEnMin= 7 EnMin= -3010.54593167215     IErMin= 7 ErrMin= 2.59D-04
 ErrMax= 2.59D-04  0.00D+00 EMaxC= 1.00D-01 BMatC= 1.28D-05 BMatP= 6.27D-05
 IDIUse=3 WtCom= 9.97D-01 WtEn= 2.59D-03
 Coeff-Com: -0.215D-01 0.284D-01-0.117D-01 0.130D-01 0.465D-01 0.294D+00
 Coeff-Com:  0.651D+00
 Coeff-En:   0.000D+00 0.000D+00 0.000D+00 0.000D+00 0.000D+00 0.000D+00
 Coeff-En:   0.100D+01
 Coeff:     -0.214D-01 0.284D-01-0.117D-01 0.130D-01 0.464D-01 0.293D+00
 Coeff:      0.652D+00
 Gap=     0.242 Goal=   None    Shift=    0.000
 RMSDP=9.40D-05 MaxDP=7.86D-03 DE=-7.23D-05 OVMax= 2.30D-03

 Cycle   8  Pass 1  IDiag  1:
 RMSU=  4.97D-05    CP:  3.25D-01  3.00D+00  1.27D+00  8.44D-01  9.48D-01
                    CP:  1.14D+00  1.29D+00
 E= -3010.54594883158     Delta-E=       -0.000017159432 Rises=F Damp=F
 DIIS: error= 2.38D-04 at cycle   8 NSaved=   8.
 NSaved= 8 IEnMin= 8 EnMin= -3010.54594883158     IErMin= 8 ErrMin= 2.38D-04
 ErrMax= 2.38D-04  0.00D+00 EMaxC= 1.00D-01 BMatC= 4.80D-06 BMatP= 1.28D-05
 IDIUse=3 WtCom= 9.98D-01 WtEn= 2.38D-03
 Coeff-Com:  0.902D-02-0.123D-01-0.303D-02-0.218D-01-0.510D-01-0.150D-01
 Coeff-Com:  0.444D+00 0.650D+00
 Coeff-En:   0.000D+00 0.000D+00 0.000D+00 0.000D+00 0.000D+00 0.000D+00
 Coeff-En:   0.000D+00 0.100D+01
 Coeff:      0.900D-02-0.123D-01-0.302D-02-0.218D-01-0.508D-01-0.150D-01
 Coeff:      0.443D+00 0.651D+00
 Gap=     0.242 Goal=   None    Shift=    0.000
 RMSDP=7.44D-05 MaxDP=6.23D-03 DE=-1.72D-05 OVMax= 2.01D-03

 Cycle   9  Pass 1  IDiag  1:
 RMSU=  2.65D-05    CP:  3.25D-01  3.00D+00  1.27D+00  8.44D-01  9.56D-01
                    CP:  1.25D+00  1.71D+00  1.16D+00
 E= -3010.54595834790     Delta-E=       -0.000009516315 Rises=F Damp=F
 DIIS: error= 4.76D-05 at cycle   9 NSaved=   9.
 NSaved= 9 IEnMin= 9 EnMin= -3010.54595834790     IErMin= 9 ErrMin= 4.76D-05
 ErrMax= 4.76D-05  0.00D+00 EMaxC= 1.00D-01 BMatC= 6.33D-07 BMatP= 4.80D-06
 IDIUse=1 WtCom= 1.00D+00 WtEn= 0.00D+00
 Coeff-Com:  0.783D-02-0.105D-01 0.143D-02-0.111D-01-0.281D-01-0.749D-01
 Coeff-Com: -0.170D-01 0.261D+00 0.871D+00
 Coeff:      0.783D-02-0.105D-01 0.143D-02-0.111D-01-0.281D-01-0.749D-01
 Coeff:     -0.170D-01 0.261D+00 0.871D+00
 Gap=     0.242 Goal=   None    Shift=    0.000
 RMSDP=3.39D-05 MaxDP=2.69D-03 DE=-9.52D-06 OVMax= 1.77D-03

 Cycle  10  Pass 1  IDiag  1:
 RMSU=  1.37D-05    CP:  3.25D-01  3.00D+00  1.27D+00  8.44D-01  9.63D-01
                    CP:  1.30D+00  1.82D+00  1.36D+00  1.22D+00
 E= -3010.54596122780     Delta-E=       -0.000002879898 Rises=F Damp=F
 DIIS: error= 1.70D-05 at cycle  10 NSaved=  10.
 NSaved=10 IEnMin=10 EnMin= -3010.54596122780     IErMin=10 ErrMin= 1.70D-05
 ErrMax= 1.70D-05  0.00D+00 EMaxC= 1.00D-01 BMatC= 1.31D-07 BMatP= 6.33D-07
 IDIUse=1 WtCom= 1.00D+00 WtEn= 0.00D+00
 Coeff-Com: -0.546D-03 0.780D-03 0.549D-03 0.155D-02 0.466D-02-0.945D-02
 Coeff-Com: -0.871D-01-0.541D-01 0.228D+00 0.916D+00
 Coeff:     -0.546D-03 0.780D-03 0.549D-03 0.155D-02 0.466D-02-0.945D-02
 Coeff:     -0.871D-01-0.541D-01 0.228D+00 0.916D+00
 Gap=     0.242 Goal=   None    Shift=    0.000
 RMSDP=2.20D-05 MaxDP=2.23D-03 DE=-2.88D-06 OVMax= 9.65D-04

 Cycle  11  Pass 1  IDiag  1:
 RMSU=  6.51D-06    CP:  3.25D-01  3.00D+00  1.27D+00  8.44D-01  9.63D-01
                    CP:  1.32D+00  1.83D+00  1.41D+00  1.47D+00  1.47D+00
 E= -3010.54596192435     Delta-E=       -0.000000696549 Rises=F Damp=F
 DIIS: error= 8.38D-06 at cycle  11 NSaved=  11.
 NSaved=11 IEnMin=11 EnMin= -3010.54596192435     IErMin=11 ErrMin= 8.38D-06
 ErrMax= 8.38D-06  0.00D+00 EMaxC= 1.00D-01 BMatC= 2.30D-08 BMatP= 1.31D-07
 IDIUse=1 WtCom= 1.00D+00 WtEn= 0.00D+00
 Coeff-Com: -0.115D-02 0.154D-02-0.131D-03 0.227D-02 0.660D-02 0.207D-01
 Coeff-Com:  0.880D-02-0.738D-01-0.252D+00 0.185D-01 0.127D+01
 Coeff:     -0.115D-02 0.154D-02-0.131D-03 0.227D-02 0.660D-02 0.207D-01
 Coeff:      0.880D-02-0.738D-01-0.252D+00 0.185D-01 0.127D+01
 Gap=     0.242 Goal=   None    Shift=    0.000
 RMSDP=1.31D-05 MaxDP=1.28D-03 DE=-6.97D-07 OVMax= 8.01D-04

 Cycle  12  Pass 1  IDiag  1:
 RMSU=  2.84D-06    CP:  3.25D-01  3.00D+00  1.27D+00  8.44D-01  9.63D-01
                    CP:  1.32D+00  1.81D+00  1.42D+00  1.65D+00  1.92D+00
                    CP:  1.44D+00
 E= -3010.54596216125     Delta-E=       -0.000000236907 Rises=F Damp=F
 DIIS: error= 3.56D-06 at cycle  12 NSaved=  12.
 NSaved=12 IEnMin=12 EnMin= -3010.54596216125     IErMin=12 ErrMin= 3.56D-06
 ErrMax= 3.56D-06  0.00D+00 EMaxC= 1.00D-01 BMatC= 7.15D-09 BMatP= 2.30D-08
 IDIUse=1 WtCom= 1.00D+00 WtEn= 0.00D+00
 Coeff-Com: -0.438D-03 0.578D-03-0.116D-03 0.767D-03 0.167D-02 0.924D-02
 Coeff-Com:  0.151D-01-0.238D-01-0.138D+00-0.117D+00 0.578D+00 0.674D+00
 Coeff:     -0.438D-03 0.578D-03-0.116D-03 0.767D-03 0.167D-02 0.924D-02
 Coeff:      0.151D-01-0.238D-01-0.138D+00-0.117D+00 0.578D+00 0.674D+00
 Gap=     0.242 Goal=   None    Shift=    0.000
 RMSDP=2.48D-06 MaxDP=2.52D-04 DE=-2.37D-07 OVMax= 1.85D-04

 Cycle  13  Pass 1  IDiag  1:
 RMSU=  1.56D-06    CP:  3.25D-01  3.00D+00  1.27D+00  8.44D-01  9.63D-01
                    CP:  1.32D+00  1.81D+00  1.42D+00  1.66D+00  1.98D+00
                    CP:  1.59D+00  1.08D+00
 E= -3010.54596218305     Delta-E=       -0.000000021794 Rises=F Damp=F
 DIIS: error= 1.71D-06 at cycle  13 NSaved=  13.
 NSaved=13 IEnMin=13 EnMin= -3010.54596218305     IErMin=13 ErrMin= 1.71D-06
 ErrMax= 1.71D-06  0.00D+00 EMaxC= 1.00D-01 BMatC= 8.52D-10 BMatP= 7.15D-09
 IDIUse=1 WtCom= 1.00D+00 WtEn= 0.00D+00
 Coeff-Com:  0.488D-04-0.647D-04-0.181D-04-0.317D-03-0.150D-02-0.403D-02
 Coeff-Com: -0.707D-03 0.135D-01 0.435D-01-0.277D-01-0.222D+00 0.824D-01
 Coeff-Com:  0.112D+01
 Coeff:      0.488D-04-0.647D-04-0.181D-04-0.317D-03-0.150D-02-0.403D-02
 Coeff:     -0.707D-03 0.135D-01 0.435D-01-0.277D-01-0.222D+00 0.824D-01
 Coeff:      0.112D+01
 Gap=     0.242 Goal=   None    Shift=    0.000
 RMSDP=1.40D-06 MaxDP=4.61D-05 DE=-2.18D-08 OVMax= 1.12D-04

 Cycle  14  Pass 1  IDiag  1:
 RMSU=  4.29D-07    CP:  3.25D-01  3.00D+00  1.27D+00  8.44D-01  9.64D-01
                    CP:  1.32D+00  1.81D+00  1.42D+00  1.66D+00  1.99D+00
                    CP:  1.64D+00  1.37D+00  1.36D+00
 E= -3010.54596218852     Delta-E=       -0.000000005471 Rises=F Damp=F
 DIIS: error= 8.57D-07 at cycle  14 NSaved=  14.
 NSaved=14 IEnMin=14 EnMin= -3010.54596218852     IErMin=14 ErrMin= 8.57D-07
 ErrMax= 8.57D-07  0.00D+00 EMaxC= 1.00D-01 BMatC= 1.14D-10 BMatP= 8.52D-10
 IDIUse=1 WtCom= 1.00D+00 WtEn= 0.00D+00
 Coeff-Com:  0.639D-04-0.849D-04 0.463D-05-0.156D-03-0.424D-03-0.168D-02
 Coeff-Com: -0.167D-02 0.559D-02 0.255D-01 0.629D-02-0.119D+00-0.670D-01
 Coeff-Com:  0.296D+00 0.856D+00
 Coeff:      0.639D-04-0.849D-04 0.463D-05-0.156D-03-0.424D-03-0.168D-02
 Coeff:     -0.167D-02 0.559D-02 0.255D-01 0.629D-02-0.119D+00-0.670D-01
 Coeff:      0.296D+00 0.856D+00
 Gap=     0.242 Goal=   None    Shift=    0.000
 RMSDP=4.80D-07 MaxDP=3.14D-05 DE=-5.47D-09 OVMax= 2.13D-05

 Cycle  15  Pass 1  IDiag  1:
 RMSU=  2.01D-07    CP:  3.25D-01  3.00D+00  1.27D+00  8.44D-01  9.64D-01
                    CP:  1.32D+00  1.81D+00  1.42D+00  1.66D+00  1.99D+00
                    CP:  1.63D+00  1.44D+00  1.55D+00  1.25D+00
 E= -3010.54596218898     Delta-E=       -0.000000000460 Rises=F Damp=F
 DIIS: error= 3.20D-07 at cycle  15 NSaved=  15.
 NSaved=15 IEnMin=15 EnMin= -3010.54596218898     IErMin=15 ErrMin= 3.20D-07
 ErrMax= 3.20D-07  0.00D+00 EMaxC= 1.00D-01 BMatC= 2.82D-11 BMatP= 1.14D-10
 IDIUse=1 WtCom= 1.00D+00 WtEn= 0.00D+00
 Coeff-Com:  0.204D-04-0.272D-04 0.428D-05-0.484D-05 0.143D-03 0.209D-03
 Coeff-Com: -0.455D-03-0.556D-03 0.151D-02 0.745D-02-0.638D-02-0.416D-01
 Coeff-Com: -0.705D-01 0.357D+00 0.754D+00
 Coeff:      0.204D-04-0.272D-04 0.428D-05-0.484D-05 0.143D-03 0.209D-03
 Coeff:     -0.455D-03-0.556D-03 0.151D-02 0.745D-02-0.638D-02-0.416D-01
 Coeff:     -0.705D-01 0.357D+00 0.754D+00
 Gap=     0.242 Goal=   None    Shift=    0.000
 RMSDP=1.56D-07 MaxDP=9.19D-06 DE=-4.60D-10 OVMax= 6.99D-06

 Cycle  16  Pass 1  IDiag  1:
 RMSU=  6.77D-08    CP:  3.25D-01  3.00D+00  1.27D+00  8.44D-01  9.64D-01
                    CP:  1.32D+00  1.81D+00  1.42D+00  1.66D+00  1.99D+00
                    CP:  1.63D+00  1.46D+00  1.60D+00  1.44D+00  1.07D+00
 E= -3010.54596218908     Delta-E=       -0.000000000102 Rises=F Damp=F
 DIIS: error= 1.20D-07 at cycle  16 NSaved=  16.
 NSaved=16 IEnMin=16 EnMin= -3010.54596218908     IErMin=16 ErrMin= 1.20D-07
 ErrMax= 1.20D-07  0.00D+00 EMaxC= 1.00D-01 BMatC= 2.17D-12 BMatP= 2.82D-11
 IDIUse=1 WtCom= 1.00D+00 WtEn= 0.00D+00
 Coeff-Com: -0.515D-06 0.634D-06 0.112D-05 0.156D-04 0.854D-04 0.272D-03
 Coeff-Com:  0.654D-04-0.960D-03-0.290D-02 0.202D-02 0.133D-01-0.348D-02
 Coeff-Com: -0.606D-01-0.276D-01 0.155D+00 0.925D+00
 Coeff:     -0.515D-06 0.634D-06 0.112D-05 0.156D-04 0.854D-04 0.272D-03
 Coeff:      0.654D-04-0.960D-03-0.290D-02 0.202D-02 0.133D-01-0.348D-02
 Coeff:     -0.606D-01-0.276D-01 0.155D+00 0.925D+00
 Gap=     0.242 Goal=   None    Shift=    0.000
 RMSDP=7.59D-08 MaxDP=3.82D-06 DE=-1.02D-10 OVMax= 3.15D-06

 Cycle  17  Pass 1  IDiag  1:
 RMSU=  2.16D-08    CP:  3.25D-01  3.00D+00  1.27D+00  8.44D-01  9.64D-01
                    CP:  1.32D+00  1.81D+00  1.42D+00  1.66D+00  1.99D+00
                    CP:  1.62D+00  1.47D+00  1.61D+00  1.51D+00  1.26D+00
                    CP:  1.16D+00
 E= -3010.54596218907     Delta-E=        0.000000000014 Rises=F Damp=F
 DIIS: error= 4.97D-08 at cycle  17 NSaved=  17.
 NSaved=17 IEnMin=16 EnMin= -3010.54596218908     IErMin=17 ErrMin= 4.97D-08
 ErrMax= 4.97D-08  0.00D+00 EMaxC= 1.00D-01 BMatC= 3.16D-13 BMatP= 2.17D-12
 IDIUse=1 WtCom= 1.00D+00 WtEn= 0.00D+00
 Coeff-Com: -0.219D-05 0.292D-05-0.200D-06 0.321D-05 0.830D-06 0.358D-04
 Coeff-Com:  0.779D-04-0.121D-03-0.708D-03-0.259D-03 0.303D-02 0.375D-02
 Coeff-Com: -0.444D-02-0.404D-01-0.631D-01 0.223D+00 0.880D+00
 Coeff:     -0.219D-05 0.292D-05-0.200D-06 0.321D-05 0.830D-06 0.358D-04
 Coeff:      0.779D-04-0.121D-03-0.708D-03-0.259D-03 0.303D-02 0.375D-02
 Coeff:     -0.444D-02-0.404D-01-0.631D-01 0.223D+00 0.880D+00
 Gap=     0.242 Goal=   None    Shift=    0.000
 RMSDP=2.61D-08 MaxDP=2.25D-06 DE= 1.36D-11 OVMax= 9.25D-07

 Cycle  18  Pass 1  IDiag  1:
 RMSU=  7.06D-09    CP:  3.25D-01  3.00D+00  1.27D+00  8.44D-01  9.64D-01
                    CP:  1.32D+00  1.81D+00  1.42D+00  1.66D+00  1.99D+00
                    CP:  1.62D+00  1.47D+00  1.62D+00  1.52D+00  1.31D+00
                    CP:  1.30D+00  1.31D+00
 E= -3010.54596218907     Delta-E=       -0.000000000002 Rises=F Damp=F
 DIIS: error= 1.11D-08 at cycle  18 NSaved=  18.
 NSaved=18 IEnMin=16 EnMin= -3010.54596218908     IErMin=18 ErrMin= 1.11D-08
 ErrMax= 1.11D-08  0.00D+00 EMaxC= 1.00D-01 BMatC= 7.34D-14 BMatP= 3.16D-13
 IDIUse=1 WtCom= 1.00D+00 WtEn= 0.00D+00
 Coeff-Com: -0.250D-08 0.390D-08-0.111D-06-0.211D-05-0.150D-04-0.323D-04
 Coeff-Com:  0.240D-04 0.106D-03 0.191D-03-0.451D-03-0.102D-02 0.223D-02
 Coeff-Com:  0.827D-02-0.904D-02-0.532D-01-0.775D-01 0.329D+00 0.801D+00
 Coeff:     -0.250D-08 0.390D-08-0.111D-06-0.211D-05-0.150D-04-0.323D-04
 Coeff:      0.240D-04 0.106D-03 0.191D-03-0.451D-03-0.102D-02 0.223D-02
 Coeff:      0.827D-02-0.904D-02-0.532D-01-0.775D-01 0.329D+00 0.801D+00
 Gap=     0.242 Goal=   None    Shift=    0.000
 RMSDP=9.42D-09 MaxDP=4.92D-07 DE=-1.82D-12 OVMax= 2.45D-07

 SCF Done:  E(RwB97XD) =  -3010.54596219     A.U. after   18 cycles
            NFock= 18  Conv=0.94D-08     -V/T= 2.0016
 KE= 3.005825512844D+03 PE=-8.629542166225D+03 EE= 1.875951956698D+03
 Leave Link  502 at Wed May  1 15:25:57 2024, MaxMem=  1207959552 cpu:            1015.5 elap:            1015.8
 (Enter /software/gaussian/g16-c01/sse4/g16/l601.exe)
 Copying SCF densities to generalized density rwf, IOpCl= 0 IROHF=0.

 **********************************************************************

            Population analysis using the SCF Density.

 **********************************************************************

 Alpha  occ. eigenvalues -- -483.28591 -62.83570 -56.63311 -56.62673 -56.62671
 Alpha  occ. eigenvalues --  -19.45031 -19.44973 -14.84529 -10.56872 -10.56377
 Alpha  occ. eigenvalues --  -10.56209 -10.55982 -10.55797 -10.52083  -8.99344
 Alpha  occ. eigenvalues --   -6.82147  -6.80073  -6.80062  -2.92021  -2.91472
 Alpha  occ. eigenvalues --   -2.91461  -2.89804  -2.89804  -1.48793  -1.31773
 Alpha  occ. eigenvalues --   -1.21540  -1.12734  -1.10668  -1.02115  -1.00108
 Alpha  occ. eigenvalues --   -0.94301  -0.89966  -0.84410  -0.79906  -0.79654
 Alpha  occ. eigenvalues --   -0.79089  -0.77445  -0.75214  -0.74970  -0.70839
 Alpha  occ. eigenvalues --   -0.68326  -0.66581  -0.62052  -0.58698  -0.56217
 Alpha  occ. eigenvalues --   -0.55314  -0.54774  -0.53163  -0.52485
 Alpha virt. eigenvalues --   -0.28291  -0.20487  -0.14406  -0.12945  -0.10951
 Alpha virt. eigenvalues --   -0.08832  -0.08341  -0.05998  -0.04687  -0.04172
 Alpha virt. eigenvalues --   -0.02460  -0.01222  -0.00432   0.00840   0.01283
 Alpha virt. eigenvalues --    0.01587   0.02798   0.03809   0.04017   0.04797
 Alpha virt. eigenvalues --    0.05479   0.06124   0.06646   0.07075   0.07515
 Alpha virt. eigenvalues --    0.08224   0.08656   0.09309   0.10320   0.11151
 Alpha virt. eigenvalues --    0.11639   0.11963   0.12543   0.13031   0.13270
 Alpha virt. eigenvalues --    0.14170   0.15523   0.15656   0.16219   0.16558
 Alpha virt. eigenvalues --    0.17417   0.18196   0.18617   0.18995   0.19791
 Alpha virt. eigenvalues --    0.20572   0.22113   0.22406   0.23047   0.25871
 Alpha virt. eigenvalues --    0.26062   0.28581   0.29405   0.31604   0.34215
 Alpha virt. eigenvalues --    0.34720   0.35010   0.35758   0.37487   0.37738
 Alpha virt. eigenvalues --    0.38949   0.39066   0.40642   0.41401   0.43419
 Alpha virt. eigenvalues --    0.43991   0.44838   0.45158   0.46830   0.48315
 Alpha virt. eigenvalues --    0.48844   0.51418   0.52290   0.53440   0.54212
 Alpha virt. eigenvalues --    0.55270   0.56404   0.57179   0.58219   0.60301
 Alpha virt. eigenvalues --    0.62244   0.63295   0.65385   0.68201   0.69740
 Alpha virt. eigenvalues --    0.70996   0.73104   0.73435   0.74268   0.75048
 Alpha virt. eigenvalues --    0.75862   0.80075   0.80841   0.85239   0.86157
 Alpha virt. eigenvalues --    0.87776   0.88936   0.92587   0.94288   0.99579
 Alpha virt. eigenvalues --    1.00506   1.01999   1.05645   1.06170   1.07496
 Alpha virt. eigenvalues --    1.10382   1.11588   1.12951   1.13377   1.15041
 Alpha virt. eigenvalues --    1.22818   1.25261   1.27499   1.33849   1.37336
 Alpha virt. eigenvalues --    1.37692   1.39006   1.46322   1.55241   1.57958
 Alpha virt. eigenvalues --    1.59352   1.59656   1.61452   1.63232   1.67275
 Alpha virt. eigenvalues --    1.69976   1.70751   1.74402   1.76085   1.79911
 Alpha virt. eigenvalues --    1.81948   1.86254   1.88343   1.96018   1.98148
 Alpha virt. eigenvalues --    1.99697   2.03782   2.04823   2.08307   2.09331
 Alpha virt. eigenvalues --    2.10982   2.15714   2.21175   2.23440   2.30042
 Alpha virt. eigenvalues --    2.38282   2.41957   2.43120   2.44269   2.53324
 Alpha virt. eigenvalues --    2.57402   2.63858   2.66936   2.69026   2.72536
 Alpha virt. eigenvalues --    2.74206   2.77327   2.78166   2.81879   2.82767
 Alpha virt. eigenvalues --    2.94568   2.97266   3.01460   3.06518   3.09851
 Alpha virt. eigenvalues --    3.13775   3.15790   3.19846   3.24512   3.25086
 Alpha virt. eigenvalues --    3.28165   3.39942   3.48438   3.52076   3.55340
 Alpha virt. eigenvalues --    3.57696   3.70754   3.74942   3.83065   3.88111
 Alpha virt. eigenvalues --    4.11882   4.12094   4.19333   4.24597   4.45153
 Alpha virt. eigenvalues --    4.45352   4.58414   4.60738   4.94009   4.96670
 Alpha virt. eigenvalues --    5.05322   5.09490   5.63648   6.16577   6.67456
 Alpha virt. eigenvalues --    7.50603   7.52154   7.61770  23.22267  23.62173
 Alpha virt. eigenvalues --   23.70857  23.80468  23.96892  24.02295  35.33429
 Alpha virt. eigenvalues --   47.93894  49.86386  49.95196 289.83180 289.84847
 Alpha virt. eigenvalues --  289.972511020.94251
          Condensed to atoms (all electrons):
               1          2          3          4          5          6
     1  C    8.863739  -1.895309  -0.289447  -1.263272  -0.680245   0.305593
     2  C   -1.895309  12.928465  -1.340216  -3.830216   0.639913  -0.017948
     3  C   -0.289447  -1.340216  13.621373  -3.830918  -0.919900   0.030962
     4  C   -1.263272  -3.830216  -3.830918  17.240532   0.875676   0.003463
     5  C   -0.680245   0.639913  -0.919900   0.875676   7.702046   0.013199
     6  H    0.305593  -0.017948   0.030962   0.003463   0.013199   0.339580
     7  H    0.065026   0.228714   0.078885  -0.031336  -0.023395  -0.001687
     8  H    0.006134  -0.009107   0.078399   0.218043  -0.022766   0.000003
     9  H    0.037661  -0.023608   0.002930  -0.005942   0.294271  -0.002359
    10  N   -0.116008   0.354723  -0.992830   0.301613  -0.005000  -0.000718
    11  O    0.021236  -0.031514  -0.240195  -0.086777  -0.058951  -0.000022
    12  O    0.303793  -0.125494  -0.259971   0.004706  -0.045974   0.000074
    13  C    1.178931  -1.349070   0.709235  -3.823027  -1.718202  -0.000692
    14  H   -0.027256   0.004114  -0.000800  -0.002954   0.017890  -0.000034
    15  Br   0.036913   0.016678   0.046007  -0.029534  -0.012697  -0.000079
               7          8          9         10         11         12
     1  C    0.065026   0.006134   0.037661  -0.116008   0.021236   0.303793
     2  C    0.228714  -0.009107  -0.023608   0.354723  -0.031514  -0.125494
     3  C    0.078885   0.078399   0.002930  -0.992830  -0.240195  -0.259971
     4  C   -0.031336   0.218043  -0.005942   0.301613  -0.086777   0.004706
     5  C   -0.023395  -0.022766   0.294271  -0.005000  -0.058951  -0.045974
     6  H   -0.001687   0.000003  -0.002359  -0.000718  -0.000022   0.000074
     7  H    0.301576   0.000020   0.000056  -0.026235  -0.001489   0.021783
     8  H    0.000020   0.302502   0.000172  -0.024537   0.023733  -0.000928
     9  H    0.000056   0.000172   0.338551   0.000542  -0.000017   0.000013
    10  N   -0.026235  -0.024537   0.000542   7.404043   0.186606   0.137567
    11  O   -0.001489   0.023733  -0.000017   0.186606   7.842915  -0.004632
    12  O    0.021783  -0.000928   0.000013   0.137567  -0.004632   7.891874
    13  C    0.020644   0.058713   0.015214  -0.109756   0.314430   0.043474
    14  H   -0.000052  -0.007612  -0.008880  -0.001160  -0.000085   0.000000
    15  Br   0.000305   0.006449   0.005237   0.003612   0.001624   0.003050
              13         14         15
     1  C    1.178931  -0.027256   0.036913
     2  C   -1.349070   0.004114   0.016678
     3  C    0.709235  -0.000800   0.046007
     4  C   -3.823027  -0.002954  -0.029534
     5  C   -1.718202   0.017890  -0.012697
     6  H   -0.000692  -0.000034  -0.000079
     7  H    0.020644  -0.000052   0.000305
     8  H    0.058713  -0.007612   0.006449
     9  H    0.015214  -0.008880   0.005237
    10  N   -0.109756  -0.001160   0.003612
    11  O    0.314430  -0.000085   0.001624
    12  O    0.043474   0.000000   0.003050
    13  C   10.678763   0.294935   0.144043
    14  H    0.294935   0.444848  -0.055134
    15  Br   0.144043  -0.055134  34.497142
 Mulliken charges:
               1
     1  C   -0.547490
     2  C    0.449873
     3  C   -0.693514
     4  C    0.259941
     5  C   -0.055866
     6  H    0.330665
     7  H    0.367185
     8  H    0.370781
     9  H    0.346159
    10  N   -0.112464
    11  O    0.033138
    12  O    0.030666
    13  C   -0.457636
    14  H    0.342179
    15  Br   0.336384
 Sum of Mulliken charges =   1.00000
 Mulliken charges with hydrogens summed into heavy atoms:
               1
     1  C   -0.216826
     2  C    0.817058
     3  C   -0.693514
     4  C    0.630722
     5  C    0.290293
    10  N   -0.112464
    11  O    0.033138
    12  O    0.030666
    13  C   -0.115457
    15  Br   0.336384
 Electronic spatial extent (au):  <R**2>=           2795.9422
 Charge=              1.0000 electrons
 Dipole moment (field-independent basis, Debye):
    X=             -1.2589    Y=             -1.2665    Z=             -3.0767  Tot=              3.5574
 Quadrupole moment (field-independent basis, Debye-Ang):
   XX=            -71.8750   YY=            -51.1011   ZZ=            -59.6086
   XY=              1.8021   XZ=             -0.3019   YZ=              4.2496
 Traceless Quadrupole moment (field-independent basis, Debye-Ang):
   XX=            -11.0134   YY=              9.7605   ZZ=              1.2529
   XY=              1.8021   XZ=             -0.3019   YZ=              4.2496
 Octapole moment (field-independent basis, Debye-Ang**2):
  XXX=           -302.7883  YYY=             82.8967  ZZZ=             63.6927  XYY=            -77.8892
  XXY=             29.2356  XXZ=             22.0049  XZZ=            -80.2704  YZZ=              9.4034
  YYZ=             16.0431  XYZ=             -5.1620
 Hexadecapole moment (field-independent basis, Debye-Ang**3):
 XXXX=          -2290.8878 YYYY=           -667.3655 ZZZZ=           -319.9519 XXXY=            -66.4369
 XXXZ=            -49.7817 YYYX=            -56.4388 YYYZ=           -139.5970 ZZZX=            -16.2528
 ZZZY=           -116.0699 XXYY=           -456.4369 XXZZ=           -367.2207 YYZZ=           -148.6458
 XXYZ=            -52.1921 YYXZ=             -1.8256 ZZXY=             -4.5448
 N-N= 7.372187344941D+02 E-N=-8.629542168076D+03  KE= 3.005825512844D+03
 No NMR shielding tensors so no spin-rotation constants.
 Leave Link  601 at Wed May  1 15:26:04 2024, MaxMem=  1207959552 cpu:               7.1 elap:               7.1
 (Enter /software/gaussian/g16-c01/sse4/g16/l9999.exe)
 Unable to Open any file for archive entry.
 1\1\GINC-BHX0013\SP\RwB97XD\6-311+G(d)\C6H5Br1N1O2(1+)\BWEIGHT\01-May-
 2024\0\\#P wB97XD/6-311+G* NoSymm #P Field=Z+175\\TitleMe\\1,1\C,0,0.0
 295,1.3397,0.0682\C,0,1.4348,1.2867,0.0064\C,0,2.1118,0.0511,-0.0054\C
 ,0,1.4451,-1.1372,0.0312\C,0,-0.6879,0.1682,0.11\H,0,-0.4713,2.2984,0.
 0781\H,0,2.0273,2.1965,-0.0322\H,0,1.9897,-2.0764,0.0232\H,0,-1.7716,0
 .1804,0.1582\N,0,3.5864,0.051,-0.0675\O,0,4.1471,-1.0597,-0.0881\O,0,4
 .145,1.1639,-0.0901\C,0,-0.0236,-1.1458,0.0835\H,0,-0.4367,-1.8725,0.7
 889\Br,0,-0.5359,-1.8697,-1.7408\\Version=ES64L-G16RevC.01\HF=-3010.54
 59622\RMSD=9.416e-09\Dipole=-2.401833,0.6497938,-0.0642776\Quadrupole=
 -8.1881989,7.2566622,0.9315367,1.3398482,-0.2244259,3.1594904\PG=C01 [
 X(C6H5Br1N1O2)]\\@
 The archive entry for this job was punched.


 THIS CURIOUS WORLD WHICH WE INHABIT IS MORE WONDERFUL THAN IT IS CONVENIENT;
 MORE BEAUTIFUL THAN IT IS USEFUL;
 IT IS MORE TO BE ADMIRED THAN IT IS TO BE USED.

                                                                 -- THOREAU
 Job cpu time:       0 days  0 hours 18 minutes  3.0 seconds.
 Elapsed time:       0 days  0 hours 18 minutes  3.3 seconds.
 File lengths (MBytes):  RWF=     40 Int=      0 D2E=      0 Chk=     32 Scr=      1
 Normal termination of Gaussian 16 at Wed May  1 15:26:05 2024.
