 Entering Gaussian System, Link 0=g16
 Initial command:
 /software/gaussian/g16-c01/sse4/g16/l1.exe "/local_scratch/24657543/Gau-31801.inp" -scrdir="/local_scratch/24657543/"
 Entering Link 1 = /software/gaussian/g16-c01/sse4/g16/l1.exe PID=     31812.
  
 Copyright (c) 1988-2019, Gaussian, Inc.  All Rights Reserved.
  
 This is part of the Gaussian(R) 16 program.  It is based on
 the Gaussian(R) 09 system (copyright 2009, Gaussian, Inc.),
 the Gaussian(R) 03 system (copyright 2003, Gaussian, Inc.),
 the Gaussian(R) 98 system (copyright 1998, Gaussian, Inc.),
 the Gaussian(R) 94 system (copyright 1995, Gaussian, Inc.),
 the Gaussian 92(TM) system (copyright 1992, Gaussian, Inc.),
 the Gaussian 90(TM) system (copyright 1990, Gaussian, Inc.),
 the Gaussian 88(TM) system (copyright 1988, Gaussian, Inc.),
 the Gaussian 86(TM) system (copyright 1986, Carnegie Mellon
 University), and the Gaussian 82(TM) system (copyright 1983,
 Carnegie Mellon University). Gaussian is a federally registered
 trademark of Gaussian, Inc.
  
 This software contains proprietary and confidential information,
 including trade secrets, belonging to Gaussian, Inc.
  
 This software is provided under written license and may be
 used, copied, transmitted, or stored only in accord with that
 written license.
  
 The following legend is applicable only to US Government
 contracts under FAR:
  
                    RESTRICTED RIGHTS LEGEND
  
 Use, reproduction and disclosure by the US Government is
 subject to restrictions as set forth in subparagraphs (a)
 and (c) of the Commercial Computer Software - Restricted
 Rights clause in FAR 52.227-19.
  
 Gaussian, Inc.
 340 Quinnipiac St., Bldg. 40, Wallingford CT 06492
  
  
 ---------------------------------------------------------------
 Warning -- This program may not be used in any manner that
 competes with the business of Gaussian, Inc. or will provide
 assistance to any competitor of Gaussian, Inc.  The licensee
 of this program is prohibited from giving any competitor of
 Gaussian, Inc. access to this program.  By using this program,
 the user acknowledges that Gaussian, Inc. is engaged in the
 business of creating and licensing software in the field of
 computational chemistry and represents and warrants to the
 licensee that it is not a competitor of Gaussian, Inc. and that
 it will not use this program in any manner prohibited above.
 ---------------------------------------------------------------
  

 Cite this work as:
 Gaussian 16, Revision C.01,
 M. J. Frisch, G. W. Trucks, H. B. Schlegel, G. E. Scuseria, 
 M. A. Robb, J. R. Cheeseman, G. Scalmani, V. Barone, 
 G. A. Petersson, H. Nakatsuji, X. Li, M. Caricato, A. V. Marenich, 
 J. Bloino, B. G. Janesko, R. Gomperts, B. Mennucci, H. P. Hratchian, 
 J. V. Ortiz, A. F. Izmaylov, J. L. Sonnenberg, D. Williams-Young, 
 F. Ding, F. Lipparini, F. Egidi, J. Goings, B. Peng, A. Petrone, 
 T. Henderson, D. Ranasinghe, V. G. Zakrzewski, J. Gao, N. Rega, 
 G. Zheng, W. Liang, M. Hada, M. Ehara, K. Toyota, R. Fukuda, 
 J. Hasegawa, M. Ishida, T. Nakajima, Y. Honda, O. Kitao, H. Nakai, 
 T. Vreven, K. Throssell, J. A. Montgomery, Jr., J. E. Peralta, 
 F. Ogliaro, M. J. Bearpark, J. J. Heyd, E. N. Brothers, K. N. Kudin, 
 V. N. Staroverov, T. A. Keith, R. Kobayashi, J. Normand, 
 K. Raghavachari, A. P. Rendell, J. C. Burant, S. S. Iyengar, 
 J. Tomasi, M. Cossi, J. M. Millam, M. Klene, C. Adamo, R. Cammi, 
 J. W. Ochterski, R. L. Martin, K. Morokuma, O. Farkas, 
 J. B. Foresman, and D. J. Fox, Gaussian, Inc., Wallingford CT, 2019.
 
 ******************************************
 Gaussian 16:  ES64L-G16RevC.01  3-Jul-2019
                 1-May-2024 
 ******************************************
 %chk=geometry.chk
 %mem=9GB
 %nprocshared=12
 Will use up to   12 processors via shared memory.
 ----------------------------------------
 #P wB97XD/6-311+G* NoSymm #P Field=Z-175
 ----------------------------------------
 1/38=1,172=1/1;
 2/12=2,15=1,17=6,18=5,40=1/2;
 3/5=4,6=6,7=11,11=2,14=3,15=-175,25=1,30=1,74=-58/1,2,3;
 4//1;
 5/5=2,38=5/2;
 6/7=2,8=2,9=2,10=2,28=1/1;
 99/5=1,9=1/99;
 Leave Link    1 at Wed May  1 14:58:59 2024, MaxMem=  1207959552 cpu:               1.5 elap:               1.5
 (Enter /software/gaussian/g16-c01/sse4/g16/l101.exe)
 -------
 TitleMe
 -------
 Symbolic Z-matrix:
 Charge =  1 Multiplicity = 1
 C                     0.0295    1.3397    0.0682 
 C                     1.4348    1.2867    0.0064 
 C                     2.1118    0.0511   -0.0054 
 C                     1.4451   -1.1372    0.0312 
 C                    -0.6879    0.1682    0.11 
 H                    -0.4713    2.2984    0.0781 
 H                     2.0273    2.1965   -0.0322 
 H                     1.9897   -2.0764    0.0232 
 H                    -1.7716    0.1804    0.1582 
 N                     3.5864    0.051    -0.0675 
 O                     4.1471   -1.0597   -0.0881 
 O                     4.145     1.1639   -0.0901 
 C                    -0.0236   -1.1458    0.0835 
 H                    -0.4367   -1.8725    0.7889 
 Br                   -0.5359   -1.8697   -1.7408 
 
 ITRead=  0  0  0  0  0  0  0  0  0  0  0  0  0  0  0
 MicOpt= -1 -1 -1 -1 -1 -1 -1 -1 -1 -1 -1 -1 -1 -1 -1
 NAtoms=     15 NQM=       15 NQMF=       0 NMMI=      0 NMMIF=      0
                NMic=       0 NMicF=      0.
                    Isotopes and Nuclear Properties:
 (Nuclear quadrupole moments (NQMom) in fm**2, nuclear magnetic moments (NMagM)
  in nuclear magnetons)

  Atom         1           2           3           4           5           6           7           8           9          10
 IAtWgt=          12          12          12          12          12           1           1           1           1          14
 AtmWgt=  12.0000000  12.0000000  12.0000000  12.0000000  12.0000000   1.0078250   1.0078250   1.0078250   1.0078250  14.0030740
 NucSpn=           0           0           0           0           0           1           1           1           1           2
 AtZEff=  -0.0000000  -0.0000000  -0.0000000  -0.0000000  -0.0000000  -0.0000000  -0.0000000  -0.0000000  -0.0000000  -0.0000000
 NQMom=    0.0000000   0.0000000   0.0000000   0.0000000   0.0000000   0.0000000   0.0000000   0.0000000   0.0000000   2.0440000
 NMagM=    0.0000000   0.0000000   0.0000000   0.0000000   0.0000000   2.7928460   2.7928460   2.7928460   2.7928460   0.4037610
 AtZNuc=   6.0000000   6.0000000   6.0000000   6.0000000   6.0000000   1.0000000   1.0000000   1.0000000   1.0000000   7.0000000

  Atom        11          12          13          14          15
 IAtWgt=          16          16          12           1          79
 AtmWgt=  15.9949146  15.9949146  12.0000000   1.0078250  78.9183361
 NucSpn=           0           0           0           1           3
 AtZEff=  -0.0000000  -0.0000000  -0.0000000  -0.0000000  -0.0000000
 NQMom=    0.0000000   0.0000000   0.0000000   0.0000000  31.3000000
 NMagM=    0.0000000   0.0000000   0.0000000   2.7928460   2.1063990
 AtZNuc=   8.0000000   8.0000000   6.0000000   1.0000000  35.0000000
 Leave Link  101 at Wed May  1 14:59:01 2024, MaxMem=  1207959552 cpu:               1.5 elap:               1.5
 (Enter /software/gaussian/g16-c01/sse4/g16/l202.exe)
                          Input orientation:                          
 ---------------------------------------------------------------------
 Center     Atomic      Atomic             Coordinates (Angstroms)
 Number     Number       Type             X           Y           Z
 ---------------------------------------------------------------------
      1          6           0        0.029500    1.339700    0.068200
      2          6           0        1.434800    1.286700    0.006400
      3          6           0        2.111800    0.051100   -0.005400
      4          6           0        1.445100   -1.137200    0.031200
      5          6           0       -0.687900    0.168200    0.110000
      6          1           0       -0.471300    2.298400    0.078100
      7          1           0        2.027300    2.196500   -0.032200
      8          1           0        1.989700   -2.076400    0.023200
      9          1           0       -1.771600    0.180400    0.158200
     10          7           0        3.586400    0.051000   -0.067500
     11          8           0        4.147100   -1.059700   -0.088100
     12          8           0        4.145000    1.163900   -0.090100
     13          6           0       -0.023600   -1.145800    0.083500
     14          1           0       -0.436700   -1.872500    0.788900
     15         35           0       -0.535900   -1.869700   -1.740800
 ---------------------------------------------------------------------
                    Distance matrix (angstroms):
                    1          2          3          4          5
     1  C    0.000000
     2  C    1.407656   0.000000
     3  C    2.449874   1.408963   0.000000
     4  C    2.853126   2.424049   1.363043   0.000000
     5  C    1.374344   2.401589   2.804523   2.501993   0.000000
     6  H    1.081667   2.159142   3.424870   3.934226   2.141421
     7  H    2.176095   1.086408   2.147231   3.384750   3.392128
     8  H    3.938800   3.408612   2.131193   1.085702   3.495040
     9  H    2.143837   3.395283   3.888995   3.478413   1.084840
    10  N    3.785591   2.482297   1.475907   2.450862   4.279589
    11  O    4.768247   3.587631   2.320164   2.705743   4.992415
    12  O    4.122294   2.714696   2.319353   3.549540   4.938459
    13  C    2.486114   2.837240   2.449573   1.469656   1.472614
    14  H    3.324903   3.754379   3.290289   2.157764   2.165286
    15  Br   3.727252   4.110867   3.702891   2.756973   2.757100
                    6          7          8          9         10
     6  H    0.000000
     7  H    2.503108   0.000000
     8  H    5.019802   4.273425   0.000000
     9  H    2.486588   4.304945   4.388479   0.000000
    10  N    4.640790   2.652397   2.661486   5.364313   0.000000
    11  O    5.712624   3.885809   2.387560   6.052233   1.244373
    12  O    4.756638   2.356750   3.893289   6.002923   1.245428
    13  C    3.473180   3.923079   2.218790   2.195425   3.806210
    14  H    4.231175   4.827242   2.552506   2.528663   4.540772
    15  Br   4.548146   5.101303   3.087568   3.055498   4.845862
                   11         12         13         14         15
    11  O    0.000000
    12  O    2.223602   0.000000
    13  C    4.175117   4.768865   0.000000
    14  H    4.737193   5.566358   1.093770   0.000000
    15  Br   5.031700   5.817075   2.028436   2.531646   0.000000
 Symmetry turned off by external request.
 Stoichiometry    C6H5BrNO2(1+)
 Framework group  C1[X(C6H5BrNO2)]
 Deg. of freedom    39
 Full point group                 C1      NOp   1
 Rotational constants (GHZ):           1.8252210           0.5518633           0.4576002
 Leave Link  202 at Wed May  1 14:59:02 2024, MaxMem=  1207959552 cpu:               1.2 elap:               1.2
 (Enter /software/gaussian/g16-c01/sse4/g16/l301.exe)
 Standard basis: 6-311+G(d) (5D, 7F)
 Ernie: Thresh=  0.10000D-02 Tol=  0.10000D-05 Strict=F.
 The following finite field(s) will be applied:
 An electric field of              0.0000  0.0000 -0.0175
   261 basis functions,   443 primitive gaussians,   273 cartesian basis functions
    49 alpha electrons       49 beta electrons
       nuclear repulsion energy       739.2122215416 Hartrees.
 IExCor= 4639 DFT=T Ex+Corr=wB97XD ExCW=0 ScaHFX=  1.000000
 ScaDFX=  1.000000  1.000000  1.000000  1.000000 ScalE2=  1.000000  1.000000
 IRadAn=      5 IRanWt=     -1 IRanGd=            0 ICorTp=0 IEmpDi=121
 HFx  wShort=  0.000000 wLong=  0.200000 cFull=  0.222036 cShort=  0.000000 cLong=  0.777964
 DFx  wShort=  0.000000 wLong=  0.200000 cFull=  0.000000 cShort=  0.000000 cLong=  1.000000
 NAtoms=   15 NActive=   15 NUniq=   15 SFac= 1.00D+00 NAtFMM=   60 NAOKFM=F Big=F
 Integral buffers will be    131072 words long.
 Raffenetti 2 integral format.
 Two-electron integral symmetry is turned off.
 R6Disp:  Grimme-D2 Dispersion energy=       -0.0077368520 Hartrees.
 Nuclear repulsion after empirical dispersion term =      739.2044846896 Hartrees.
 Leave Link  301 at Wed May  1 14:59:03 2024, MaxMem=  1207959552 cpu:               1.0 elap:               1.0
 (Enter /software/gaussian/g16-c01/sse4/g16/l302.exe)
 NPDir=0 NMtPBC=     1 NCelOv=     1 NCel=       1 NClECP=     1 NCelD=      1
         NCelK=      1 NCelE2=     1 NClLst=     1 CellRange=     0.0.
 One-electron integrals computed using PRISM.
 NBasis=   261 RedAO= T EigKep=  2.35D-06  NBF=   261
 NBsUse=   261 1.00D-06 EigRej= -1.00D+00 NBFU=   261
 Precomputing XC quadrature grid using
 IXCGrd= 4 IRadAn=           5 IRanWt=          -1 IRanGd=           0 AccXCQ= 0.00D+00.
 Generated NRdTot=       0 NPtTot=           0 NUsed=           0 NTot=          32
 NSgBfM=   273   273   273   273   273 MxSgAt=    15 MxSgA2=    15.
 Leave Link  302 at Wed May  1 14:59:24 2024, MaxMem=  1207959552 cpu:              21.6 elap:              21.6
 (Enter /software/gaussian/g16-c01/sse4/g16/l303.exe)
 DipDrv:  MaxL=1.
 The nuclear repulsion energy is now       741.1902348850 hartrees.
 Leave Link  303 at Wed May  1 14:59:28 2024, MaxMem=  1207959552 cpu:               3.1 elap:               3.1
 (Enter /software/gaussian/g16-c01/sse4/g16/l401.exe)
 ExpMin= 3.50D-02 ExpMax= 4.40D+05 ExpMxC= 1.51D+04 IAcc=3 IRadAn=         5 AccDes= 0.00D+00
 Harris functional with IExCor= 4639 and IRadAn=       5 diagonalized for initial guess.
 HarFok:  IExCor= 4639 AccDes= 0.00D+00 IRadAn=         5 IDoV= 1 UseB2=F ITyADJ=14
 ICtDFT=  3500011 ScaDFX=  1.000000  1.000000  1.000000  1.000000
 FoFCou: FMM=F IPFlag=           0 FMFlag=      100000 FMFlg1=           0
         NFxFlg=           0 DoJE=T BraDBF=F KetDBF=T FulRan=T
         wScrn=  0.000000 ICntrl=       500 IOpCl=  0 I1Cent=   200000004 NGrid=           0
         NMat0=    1 NMatS0=      1 NMatT0=    0 NMatD0=    1 NMtDS0=    0 NMtDT0=    0
 Symmetry not used in FoFCou.
 Harris En= -2970.62888257498    
 JPrj=0 DoOrth=F DoCkMO=F.
 Leave Link  401 at Wed May  1 14:59:58 2024, MaxMem=  1207959552 cpu:              30.5 elap:              30.5
 (Enter /software/gaussian/g16-c01/sse4/g16/l502.exe)
 Two-electron integral symmetry not used.
 Closed shell SCF:
 Using DIIS extrapolation, IDIIS=  1040.
 NGot=  1207959552 LenX=  1207804877 LenY=  1207729907
 Requested convergence on RMS density matrix=1.00D-08 within 128 cycles.
 Requested convergence on MAX density matrix=1.00D-06.
 Requested convergence on             energy=1.00D-06.
 No special actions if energy rises.
 Fock matrices will be formed incrementally for  20 cycles.

 Cycle   1  Pass 1  IDiag  1:
 FoFJK:  IHMeth= 1 ICntrl=       0 DoSepK=T KAlg= 0 I1Cent=           0 FoldK=F
 IRaf=         1 NMat=       1 IRICut=       1 DoRegI=T DoRafI=F ISym2E= 0 IDoP0=0 IntGTp=1.
 FoFCou: FMM=F IPFlag=           0 FMFlag=      100000 FMFlg1=           0
         NFxFlg=           0 DoJE=T BraDBF=F KetDBF=F FulRan=T
         wScrn=  0.000000 ICntrl=       500 IOpCl=  0 I1Cent=           0 NGrid=           0
         NMat0=    1 NMatS0=      1 NMatT0=    0 NMatD0=    1 NMtDS0=    0 NMtDT0=    0
 Symmetry not used in FoFCou.
 E= -3009.70569579078    
 DIIS: error= 3.20D-01 at cycle   1 NSaved=   1.
 NSaved= 1 IEnMin= 1 EnMin= -3009.70569579078     IErMin= 1 ErrMin= 3.20D-01
 ErrMax= 3.20D-01  0.00D+00 EMaxC= 1.00D-01 BMatC= 1.19D+01 BMatP= 1.19D+01
 IDIUse=3 WtCom= 0.00D+00 WtEn= 1.00D+00
 Coeff-Com:  0.100D+01
 Coeff-En:   0.100D+01
 Coeff:      0.100D+01
 Gap=     0.383 Goal=   None    Shift=    0.000
 GapD=    0.383 DampG=1.000 DampE=0.250 DampFc=0.2500 IDamp=-1.
 Damping current iteration by 2.50D-01
 RMSDP=5.88D-02 MaxDP=5.79D+00              OVMax= 2.59D-01

 Cycle   2  Pass 1  IDiag  1:
 RMSU=  5.48D-03    CP:  8.73D-01
 E= -3009.99624581090     Delta-E=       -0.290550020124 Rises=F Damp=T
 DIIS: error= 2.25D-01 at cycle   2 NSaved=   2.
 NSaved= 2 IEnMin= 2 EnMin= -3009.99624581090     IErMin= 2 ErrMin= 2.25D-01
 ErrMax= 2.25D-01  0.00D+00 EMaxC= 1.00D-01 BMatC= 5.46D+00 BMatP= 1.19D+01
 IDIUse=3 WtCom= 0.00D+00 WtEn= 1.00D+00
 Coeff-Com: -0.186D+01 0.286D+01
 Coeff-En:   0.000D+00 0.100D+01
 Coeff:      0.000D+00 0.100D+01
 Gap=     0.290 Goal=   None    Shift=    0.000
 RMSDP=4.43D-02 MaxDP=4.42D+00 DE=-2.91D-01 OVMax= 7.63D-02

 Cycle   3  Pass 1  IDiag  1:
 RMSU=  4.60D-03    CP:  4.82D-01  3.00D+00
 E= -3010.39735434552     Delta-E=       -0.401108534616 Rises=F Damp=F
 DIIS: error= 6.49D-02 at cycle   3 NSaved=   3.
 NSaved= 3 IEnMin= 3 EnMin= -3010.39735434552     IErMin= 3 ErrMin= 6.49D-02
 ErrMax= 6.49D-02  0.00D+00 EMaxC= 1.00D-01 BMatC= 7.16D-01 BMatP= 5.46D+00
 IDIUse=3 WtCom= 3.51D-01 WtEn= 6.49D-01
 Coeff-Com:  0.280D+01-0.368D+01 0.188D+01
 Coeff-En:   0.190D-02 0.000D+00 0.998D+00
 Coeff:      0.984D+00-0.129D+01 0.131D+01
 Gap=     0.266 Goal=   None    Shift=    0.000
 RMSDP=8.85D-03 MaxDP=4.34D-01 DE=-4.01D-01 OVMax= 6.52D-02

 Cycle   4  Pass 1  IDiag  1:
 RMSU=  6.37D-03    CP:  5.22D-01  2.67D+00  1.50D+00
 E= -3010.49614345225     Delta-E=       -0.098789106739 Rises=F Damp=F
 DIIS: error= 3.98D-02 at cycle   4 NSaved=   4.
 NSaved= 4 IEnMin= 4 EnMin= -3010.49614345225     IErMin= 4 ErrMin= 3.98D-02
 ErrMax= 3.98D-02  0.00D+00 EMaxC= 1.00D-01 BMatC= 2.48D-01 BMatP= 7.16D-01
 IDIUse=3 WtCom= 6.02D-01 WtEn= 3.98D-01
 Coeff-Com: -0.140D+00 0.199D+00 0.306D+00 0.635D+00
 Coeff-En:   0.000D+00 0.000D+00 0.208D+00 0.792D+00
 Coeff:     -0.841D-01 0.120D+00 0.267D+00 0.697D+00
 Gap=     0.259 Goal=   None    Shift=    0.000
 RMSDP=4.16D-03 MaxDP=3.40D-01 DE=-9.88D-02 OVMax= 2.77D-02

 Cycle   5  Pass 1  IDiag  1:
 RMSU=  1.87D-03    CP:  4.91D-01  2.85D+00  1.35D+00  8.35D-01
 E= -3010.54351852347     Delta-E=       -0.047375071218 Rises=F Damp=F
 DIIS: error= 6.95D-03 at cycle   5 NSaved=   5.
 NSaved= 5 IEnMin= 5 EnMin= -3010.54351852347     IErMin= 5 ErrMin= 6.95D-03
 ErrMax= 6.95D-03  0.00D+00 EMaxC= 1.00D-01 BMatC= 8.12D-03 BMatP= 2.48D-01
 IDIUse=3 WtCom= 9.31D-01 WtEn= 6.95D-02
 Coeff-Com: -0.140D+00 0.191D+00 0.748D-01 0.352D+00 0.522D+00
 Coeff-En:   0.000D+00 0.000D+00 0.000D+00 0.000D+00 0.100D+01
 Coeff:     -0.130D+00 0.177D+00 0.696D-01 0.328D+00 0.556D+00
 Gap=     0.258 Goal=   None    Shift=    0.000
 RMSDP=7.63D-04 MaxDP=4.87D-02 DE=-4.74D-02 OVMax= 1.62D-02

 Cycle   6  Pass 1  IDiag  1:
 RMSU=  4.96D-04    CP:  4.92D-01  2.87D+00  1.37D+00  8.65D-01  7.19D-01
 E= -3010.54528062797     Delta-E=       -0.001762104494 Rises=F Damp=F
 DIIS: error= 2.18D-03 at cycle   6 NSaved=   6.
 NSaved= 6 IEnMin= 6 EnMin= -3010.54528062797     IErMin= 6 ErrMin= 2.18D-03
 ErrMax= 2.18D-03  0.00D+00 EMaxC= 1.00D-01 BMatC= 4.33D-04 BMatP= 8.12D-03
 IDIUse=3 WtCom= 9.78D-01 WtEn= 2.18D-02
 Coeff-Com: -0.100D+00 0.135D+00 0.165D-02 0.165D+00 0.371D+00 0.427D+00
 Coeff-En:   0.000D+00 0.000D+00 0.000D+00 0.000D+00 0.363D-01 0.964D+00
 Coeff:     -0.982D-01 0.132D+00 0.162D-02 0.162D+00 0.364D+00 0.439D+00
 Gap=     0.255 Goal=   None    Shift=    0.000
 RMSDP=2.29D-04 MaxDP=1.52D-02 DE=-1.76D-03 OVMax= 7.67D-03

 Cycle   7  Pass 1  IDiag  1:
 RMSU=  1.69D-04    CP:  4.91D-01  2.86D+00  1.37D+00  8.65D-01  7.87D-01
                    CP:  8.36D-01
 E= -3010.54559296016     Delta-E=       -0.000312332196 Rises=F Damp=F
 DIIS: error= 3.98D-04 at cycle   7 NSaved=   7.
 NSaved= 7 IEnMin= 7 EnMin= -3010.54559296016     IErMin= 7 ErrMin= 3.98D-04
 ErrMax= 3.98D-04  0.00D+00 EMaxC= 1.00D-01 BMatC= 1.93D-05 BMatP= 4.33D-04
 IDIUse=3 WtCom= 9.96D-01 WtEn= 3.98D-03
 Coeff-Com: -0.319D-01 0.424D-01-0.145D-01 0.233D-01 0.746D-01 0.186D+00
 Coeff-Com:  0.720D+00
 Coeff-En:   0.000D+00 0.000D+00 0.000D+00 0.000D+00 0.000D+00 0.000D+00
 Coeff-En:   0.100D+01
 Coeff:     -0.318D-01 0.422D-01-0.145D-01 0.232D-01 0.743D-01 0.185D+00
 Coeff:      0.721D+00
 Gap=     0.254 Goal=   None    Shift=    0.000
 RMSDP=1.44D-04 MaxDP=1.11D-02 DE=-3.12D-04 OVMax= 3.44D-03

 Cycle   8  Pass 1  IDiag  1:
 RMSU=  7.67D-05    CP:  4.92D-01  2.85D+00  1.38D+00  8.70D-01  8.30D-01
                    CP:  8.66D-01  1.04D+00
 E= -3010.54562116916     Delta-E=       -0.000028209000 Rises=F Damp=F
 DIIS: error= 1.13D-04 at cycle   8 NSaved=   8.
 NSaved= 8 IEnMin= 8 EnMin= -3010.54562116916     IErMin= 8 ErrMin= 1.13D-04
 ErrMax= 1.13D-04  0.00D+00 EMaxC= 1.00D-01 BMatC= 2.48D-06 BMatP= 1.93D-05
 IDIUse=3 WtCom= 9.99D-01 WtEn= 1.13D-03
 Coeff-Com:  0.915D-02-0.125D-01-0.331D-02-0.194D-01-0.426D-01-0.419D-01
 Coeff-Com:  0.169D+00 0.942D+00
 Coeff-En:   0.000D+00 0.000D+00 0.000D+00 0.000D+00 0.000D+00 0.000D+00
 Coeff-En:   0.000D+00 0.100D+01
 Coeff:      0.914D-02-0.125D-01-0.330D-02-0.193D-01-0.425D-01-0.418D-01
 Coeff:      0.169D+00 0.942D+00
 Gap=     0.254 Goal=   None    Shift=    0.000
 RMSDP=6.59D-05 MaxDP=3.96D-03 DE=-2.82D-05 OVMax= 2.64D-03

 Cycle   9  Pass 1  IDiag  1:
 RMSU=  3.06D-05    CP:  4.92D-01  2.85D+00  1.38D+00  8.72D-01  8.28D-01
                    CP:  9.20D-01  1.24D+00  1.21D+00
 E= -3010.54562909329     Delta-E=       -0.000007924124 Rises=F Damp=F
 DIIS: error= 5.17D-05 at cycle   9 NSaved=   9.
 NSaved= 9 IEnMin= 9 EnMin= -3010.54562909329     IErMin= 9 ErrMin= 5.17D-05
 ErrMax= 5.17D-05  0.00D+00 EMaxC= 1.00D-01 BMatC= 3.69D-07 BMatP= 2.48D-06
 IDIUse=1 WtCom= 1.00D+00 WtEn= 0.00D+00
 Coeff-Com:  0.689D-02-0.923D-02 0.918D-03-0.902D-02-0.208D-01-0.395D-01
 Coeff-Com: -0.689D-01 0.283D+00 0.857D+00
 Coeff:      0.689D-02-0.923D-02 0.918D-03-0.902D-02-0.208D-01-0.395D-01
 Coeff:     -0.689D-01 0.283D+00 0.857D+00
 Gap=     0.254 Goal=   None    Shift=    0.000
 RMSDP=2.21D-05 MaxDP=1.30D-03 DE=-7.92D-06 OVMax= 1.21D-03

 Cycle  10  Pass 1  IDiag  1:
 RMSU=  1.10D-05    CP:  4.92D-01  2.85D+00  1.38D+00  8.72D-01  8.32D-01
                    CP:  9.25D-01  1.28D+00  1.33D+00  1.27D+00
 E= -3010.54563048552     Delta-E=       -0.000001392235 Rises=F Damp=F
 DIIS: error= 1.80D-05 at cycle  10 NSaved=  10.
 NSaved=10 IEnMin=10 EnMin= -3010.54563048552     IErMin=10 ErrMin= 1.80D-05
 ErrMax= 1.80D-05  0.00D+00 EMaxC= 1.00D-01 BMatC= 8.45D-08 BMatP= 3.69D-07
 IDIUse=1 WtCom= 1.00D+00 WtEn= 0.00D+00
 Coeff-Com:  0.344D-03-0.429D-03 0.497D-03 0.199D-04 0.145D-02-0.376D-02
 Coeff-Com: -0.493D-01-0.512D-01 0.287D+00 0.816D+00
 Coeff:      0.344D-03-0.429D-03 0.497D-03 0.199D-04 0.145D-02-0.376D-02
 Coeff:     -0.493D-01-0.512D-01 0.287D+00 0.816D+00
 Gap=     0.254 Goal=   None    Shift=    0.000
 RMSDP=1.32D-05 MaxDP=9.00D-04 DE=-1.39D-06 OVMax= 4.65D-04

 Cycle  11  Pass 1  IDiag  1:
 RMSU=  6.65D-06    CP:  4.92D-01  2.85D+00  1.38D+00  8.71D-01  8.30D-01
                    CP:  9.31D-01  1.27D+00  1.33D+00  1.55D+00  1.30D+00
 E= -3010.54563070315     Delta-E=       -0.000000217625 Rises=F Damp=F
 DIIS: error= 7.14D-06 at cycle  11 NSaved=  11.
 NSaved=11 IEnMin=11 EnMin= -3010.54563070315     IErMin=11 ErrMin= 7.14D-06
 ErrMax= 7.14D-06  0.00D+00 EMaxC= 1.00D-01 BMatC= 7.72D-09 BMatP= 8.45D-08
 IDIUse=1 WtCom= 1.00D+00 WtEn= 0.00D+00
 Coeff-Com: -0.406D-03 0.550D-03 0.110D-03 0.968D-03 0.290D-02 0.430D-02
 Coeff-Com:  0.726D-03-0.464D-01-0.729D-01 0.145D+00 0.966D+00
 Coeff:     -0.406D-03 0.550D-03 0.110D-03 0.968D-03 0.290D-02 0.430D-02
 Coeff:      0.726D-03-0.464D-01-0.729D-01 0.145D+00 0.966D+00
 Gap=     0.254 Goal=   None    Shift=    0.000
 RMSDP=6.25D-06 MaxDP=4.53D-04 DE=-2.18D-07 OVMax= 2.02D-04

 Cycle  12  Pass 1  IDiag  1:
 RMSU=  1.62D-06    CP:  4.92D-01  2.85D+00  1.38D+00  8.71D-01  8.29D-01
                    CP:  9.32D-01  1.26D+00  1.32D+00  1.68D+00  1.54D+00
                    CP:  1.32D+00
 E= -3010.54563073895     Delta-E=       -0.000000035801 Rises=F Damp=F
 DIIS: error= 3.02D-06 at cycle  12 NSaved=  12.
 NSaved=12 IEnMin=12 EnMin= -3010.54563073895     IErMin=12 ErrMin= 3.02D-06
 ErrMax= 3.02D-06  0.00D+00 EMaxC= 1.00D-01 BMatC= 2.57D-09 BMatP= 7.72D-09
 IDIUse=1 WtCom= 1.00D+00 WtEn= 0.00D+00
 Coeff-Com: -0.197D-03 0.260D-03-0.618D-05 0.445D-03 0.930D-03 0.243D-02
 Coeff-Com:  0.101D-01-0.119D-01-0.906D-01-0.963D-01 0.464D+00 0.721D+00
 Coeff:     -0.197D-03 0.260D-03-0.618D-05 0.445D-03 0.930D-03 0.243D-02
 Coeff:      0.101D-01-0.119D-01-0.906D-01-0.963D-01 0.464D+00 0.721D+00
 Gap=     0.254 Goal=   None    Shift=    0.000
 RMSDP=2.52D-06 MaxDP=2.01D-04 DE=-3.58D-08 OVMax= 7.37D-05

 Cycle  13  Pass 1  IDiag  1:
 RMSU=  5.98D-07    CP:  4.92D-01  2.85D+00  1.38D+00  8.71D-01  8.29D-01
                    CP:  9.33D-01  1.26D+00  1.31D+00  1.72D+00  1.62D+00
                    CP:  1.51D+00  1.04D+00
 E= -3010.54563074468     Delta-E=       -0.000000005729 Rises=F Damp=F
 DIIS: error= 7.75D-07 at cycle  13 NSaved=  13.
 NSaved=13 IEnMin=13 EnMin= -3010.54563074468     IErMin=13 ErrMin= 7.75D-07
 ErrMax= 7.75D-07  0.00D+00 EMaxC= 1.00D-01 BMatC= 1.53D-10 BMatP= 2.57D-09
 IDIUse=1 WtCom= 1.00D+00 WtEn= 0.00D+00
 Coeff-Com: -0.366D-04 0.488D-04-0.132D-04 0.156D-05-0.236D-03-0.374D-03
 Coeff-Com:  0.579D-03 0.215D-02-0.164D-02-0.202D-01-0.267D-01 0.115D+00
 Coeff-Com:  0.931D+00
 Coeff:     -0.366D-04 0.488D-04-0.132D-04 0.156D-05-0.236D-03-0.374D-03
 Coeff:      0.579D-03 0.215D-02-0.164D-02-0.202D-01-0.267D-01 0.115D+00
 Coeff:      0.931D+00
 Gap=     0.254 Goal=   None    Shift=    0.000
 RMSDP=6.96D-07 MaxDP=4.81D-05 DE=-5.73D-09 OVMax= 1.24D-05

 Cycle  14  Pass 1  IDiag  1:
 RMSU=  2.63D-07    CP:  4.92D-01  2.85D+00  1.38D+00  8.71D-01  8.29D-01
                    CP:  9.33D-01  1.25D+00  1.31D+00  1.73D+00  1.62D+00
                    CP:  1.56D+00  1.22D+00  1.21D+00
 E= -3010.54563074505     Delta-E=       -0.000000000369 Rises=F Damp=F
 DIIS: error= 3.08D-07 at cycle  14 NSaved=  14.
 NSaved=14 IEnMin=14 EnMin= -3010.54563074505     IErMin=14 ErrMin= 3.08D-07
 ErrMax= 3.08D-07  0.00D+00 EMaxC= 1.00D-01 BMatC= 2.27D-11 BMatP= 1.53D-10
 IDIUse=1 WtCom= 1.00D+00 WtEn= 0.00D+00
 Coeff-Com: -0.986D-06 0.160D-05-0.704D-05-0.457D-04-0.190D-03-0.439D-03
 Coeff-Com: -0.101D-02 0.245D-02 0.108D-01 0.399D-02-0.733D-01-0.483D-01
 Coeff-Com:  0.325D+00 0.781D+00
 Coeff:     -0.986D-06 0.160D-05-0.704D-05-0.457D-04-0.190D-03-0.439D-03
 Coeff:     -0.101D-02 0.245D-02 0.108D-01 0.399D-02-0.733D-01-0.483D-01
 Coeff:      0.325D+00 0.781D+00
 Gap=     0.254 Goal=   None    Shift=    0.000
 RMSDP=2.58D-07 MaxDP=1.66D-05 DE=-3.69D-10 OVMax= 5.68D-06

 Cycle  15  Pass 1  IDiag  1:
 RMSU=  6.64D-08    CP:  4.92D-01  2.85D+00  1.38D+00  8.71D-01  8.29D-01
                    CP:  9.33D-01  1.25D+00  1.31D+00  1.73D+00  1.62D+00
                    CP:  1.57D+00  1.29D+00  1.35D+00  1.11D+00
 E= -3010.54563074515     Delta-E=       -0.000000000103 Rises=F Damp=F
 DIIS: error= 8.43D-08 at cycle  15 NSaved=  15.
 NSaved=15 IEnMin=15 EnMin= -3010.54563074515     IErMin=15 ErrMin= 8.43D-08
 ErrMax= 8.43D-08  0.00D+00 EMaxC= 1.00D-01 BMatC= 2.69D-12 BMatP= 2.27D-11
 IDIUse=1 WtCom= 1.00D+00 WtEn= 0.00D+00
 Coeff-Com:  0.431D-05-0.571D-05 0.143D-06-0.660D-05 0.129D-04-0.160D-04
 Coeff-Com: -0.269D-03 0.993D-04 0.217D-02 0.401D-02-0.110D-01-0.254D-01
 Coeff-Com: -0.780D-01 0.155D+00 0.953D+00
 Coeff:      0.431D-05-0.571D-05 0.143D-06-0.660D-05 0.129D-04-0.160D-04
 Coeff:     -0.269D-03 0.993D-04 0.217D-02 0.401D-02-0.110D-01-0.254D-01
 Coeff:     -0.780D-01 0.155D+00 0.953D+00
 Gap=     0.254 Goal=   None    Shift=    0.000
 RMSDP=1.10D-07 MaxDP=8.81D-06 DE=-1.03D-10 OVMax= 3.38D-06

 Cycle  16  Pass 1  IDiag  1:
 RMSU=  4.00D-08    CP:  4.92D-01  2.85D+00  1.38D+00  8.71D-01  8.29D-01
                    CP:  9.33D-01  1.25D+00  1.31D+00  1.73D+00  1.62D+00
                    CP:  1.57D+00  1.31D+00  1.43D+00  1.25D+00  1.27D+00
 E= -3010.54563074512     Delta-E=        0.000000000027 Rises=F Damp=F
 DIIS: error= 3.58D-08 at cycle  16 NSaved=  16.
 NSaved=16 IEnMin=15 EnMin= -3010.54563074515     IErMin=16 ErrMin= 3.58D-08
 ErrMax= 3.58D-08  0.00D+00 EMaxC= 1.00D-01 BMatC= 5.38D-13 BMatP= 2.69D-12
 IDIUse=1 WtCom= 1.00D+00 WtEn= 0.00D+00
 Coeff-Com:  0.124D-05-0.167D-05 0.117D-05 0.515D-05 0.316D-04 0.583D-04
 Coeff-Com:  0.494D-04-0.359D-03-0.911D-03 0.982D-03 0.719D-02 0.566D-03
 Coeff-Com: -0.645D-01-0.847D-01 0.240D+00 0.901D+00
 Coeff:      0.124D-05-0.167D-05 0.117D-05 0.515D-05 0.316D-04 0.583D-04
 Coeff:      0.494D-04-0.359D-03-0.911D-03 0.982D-03 0.719D-02 0.566D-03
 Coeff:     -0.645D-01-0.847D-01 0.240D+00 0.901D+00
 Gap=     0.254 Goal=   None    Shift=    0.000
 RMSDP=4.59D-08 MaxDP=3.49D-06 DE= 2.68D-11 OVMax= 1.64D-06

 Cycle  17  Pass 1  IDiag  1:
 RMSU=  1.04D-08    CP:  4.92D-01  2.85D+00  1.38D+00  8.71D-01  8.29D-01
                    CP:  9.33D-01  1.25D+00  1.31D+00  1.74D+00  1.62D+00
                    CP:  1.57D+00  1.32D+00  1.45D+00  1.29D+00  1.54D+00
                    CP:  1.22D+00
 E= -3010.54563074513     Delta-E=       -0.000000000009 Rises=F Damp=F
 DIIS: error= 1.49D-08 at cycle  17 NSaved=  17.
 NSaved=17 IEnMin=15 EnMin= -3010.54563074515     IErMin=17 ErrMin= 1.49D-08
 ErrMax= 1.49D-08  0.00D+00 EMaxC= 1.00D-01 BMatC= 1.03D-13 BMatP= 5.38D-13
 IDIUse=1 WtCom= 1.00D+00 WtEn= 0.00D+00
 Coeff-Com:  0.121D-06-0.169D-06 0.321D-06 0.143D-05 0.382D-05 0.127D-04
 Coeff-Com:  0.398D-04-0.712D-04-0.468D-03-0.248D-03 0.276D-02 0.336D-02
 Coeff-Com: -0.194D-02-0.485D-01-0.111D+00 0.246D+00 0.910D+00
 Coeff:      0.121D-06-0.169D-06 0.321D-06 0.143D-05 0.382D-05 0.127D-04
 Coeff:      0.398D-04-0.712D-04-0.468D-03-0.248D-03 0.276D-02 0.336D-02
 Coeff:     -0.194D-02-0.485D-01-0.111D+00 0.246D+00 0.910D+00
 Gap=     0.254 Goal=   None    Shift=    0.000
 RMSDP=1.86D-08 MaxDP=9.93D-07 DE=-9.09D-12 OVMax= 7.69D-07

 Cycle  18  Pass 1  IDiag  1:
 RMSU=  4.83D-09    CP:  4.92D-01  2.85D+00  1.38D+00  8.71D-01  8.29D-01
                    CP:  9.33D-01  1.25D+00  1.31D+00  1.74D+00  1.62D+00
                    CP:  1.58D+00  1.33D+00  1.46D+00  1.31D+00  1.61D+00
                    CP:  1.46D+00  1.26D+00
 E= -3010.54563074515     Delta-E=       -0.000000000020 Rises=F Damp=F
 DIIS: error= 6.03D-09 at cycle  18 NSaved=  18.
 NSaved=18 IEnMin=18 EnMin= -3010.54563074515     IErMin=18 ErrMin= 6.03D-09
 ErrMax= 6.03D-09  0.00D+00 EMaxC= 1.00D-01 BMatC= 1.91D-14 BMatP= 1.03D-13
 IDIUse=1 WtCom= 1.00D+00 WtEn= 0.00D+00
 Coeff-Com:  0.603D-07-0.802D-07-0.133D-06-0.112D-05-0.644D-05-0.972D-05
 Coeff-Com: -0.152D-05 0.735D-04 0.741D-04-0.316D-03-0.976D-03 0.707D-03
 Coeff-Com:  0.160D-01 0.738D-02-0.873D-01-0.128D+00 0.223D+00 0.969D+00
 Coeff:      0.603D-07-0.802D-07-0.133D-06-0.112D-05-0.644D-05-0.972D-05
 Coeff:     -0.152D-05 0.735D-04 0.741D-04-0.316D-03-0.976D-03 0.707D-03
 Coeff:      0.160D-01 0.738D-02-0.873D-01-0.128D+00 0.223D+00 0.969D+00
 Gap=     0.254 Goal=   None    Shift=    0.000
 RMSDP=8.75D-09 MaxDP=6.66D-07 DE=-2.00D-11 OVMax= 3.09D-07

 SCF Done:  E(RwB97XD) =  -3010.54563075     A.U. after   18 cycles
            NFock= 18  Conv=0.88D-08     -V/T= 2.0016
 KE= 3.005859303403D+03 PE=-8.634524032353D+03 EE= 1.876928863320D+03
 Leave Link  502 at Wed May  1 15:17:29 2024, MaxMem=  1207959552 cpu:            1051.0 elap:            1051.2
 (Enter /software/gaussian/g16-c01/sse4/g16/l601.exe)
 Copying SCF densities to generalized density rwf, IOpCl= 0 IROHF=0.

 **********************************************************************

            Population analysis using the SCF Density.

 **********************************************************************

 Alpha  occ. eigenvalues -- -483.33988 -62.89051 -56.68690 -56.68193 -56.68192
 Alpha  occ. eigenvalues --  -19.46450 -19.46360 -14.85942 -10.59607 -10.58353
 Alpha  occ. eigenvalues --  -10.57894 -10.57714 -10.57406 -10.53548  -9.04884
 Alpha  occ. eigenvalues --   -6.87414  -6.85771  -6.85760  -2.97354  -2.96913
 Alpha  occ. eigenvalues --   -2.96903  -2.95588  -2.95588  -1.50190  -1.33162
 Alpha  occ. eigenvalues --   -1.23494  -1.15331  -1.12520  -1.06487  -1.01663
 Alpha  occ. eigenvalues --   -0.96292  -0.91632  -0.85833  -0.81404  -0.81231
 Alpha  occ. eigenvalues --   -0.80565  -0.78873  -0.76685  -0.76566  -0.73649
 Alpha  occ. eigenvalues --   -0.70050  -0.68252  -0.64935  -0.61958  -0.59666
 Alpha  occ. eigenvalues --   -0.57659  -0.57274  -0.56613  -0.56142
 Alpha virt. eigenvalues --   -0.30769  -0.21907  -0.17893  -0.14864  -0.14271
 Alpha virt. eigenvalues --   -0.10957  -0.09817  -0.08114  -0.06644  -0.06072
 Alpha virt. eigenvalues --   -0.04535  -0.03862  -0.03122  -0.02272  -0.01828
 Alpha virt. eigenvalues --   -0.00681   0.00190   0.01170   0.01469   0.02865
 Alpha virt. eigenvalues --    0.04277   0.04817   0.05596   0.05746   0.06378
 Alpha virt. eigenvalues --    0.06893   0.07926   0.08066   0.08396   0.09018
 Alpha virt. eigenvalues --    0.10357   0.10974   0.11512   0.11949   0.12636
 Alpha virt. eigenvalues --    0.12750   0.13470   0.14141   0.14966   0.15818
 Alpha virt. eigenvalues --    0.16438   0.17139   0.17979   0.18931   0.18982
 Alpha virt. eigenvalues --    0.20073   0.20625   0.21127   0.21916   0.24371
 Alpha virt. eigenvalues --    0.25210   0.26109   0.27061   0.27801   0.27932
 Alpha virt. eigenvalues --    0.30016   0.32106   0.33572   0.34344   0.35848
 Alpha virt. eigenvalues --    0.37109   0.37623   0.37881   0.39795   0.40400
 Alpha virt. eigenvalues --    0.42350   0.43229   0.44238   0.46314   0.46848
 Alpha virt. eigenvalues --    0.47709   0.48532   0.49407   0.51401   0.53054
 Alpha virt. eigenvalues --    0.53506   0.54458   0.55729   0.56780   0.58889
 Alpha virt. eigenvalues --    0.60454   0.61591   0.62990   0.65405   0.67992
 Alpha virt. eigenvalues --    0.69771   0.71012   0.72320   0.72526   0.73516
 Alpha virt. eigenvalues --    0.73908   0.78916   0.79086   0.81264   0.84162
 Alpha virt. eigenvalues --    0.85290   0.87322   0.91317   0.92096   0.97768
 Alpha virt. eigenvalues --    0.99072   1.00351   1.03782   1.04806   1.05854
 Alpha virt. eigenvalues --    1.08115   1.10597   1.11328   1.11874   1.13700
 Alpha virt. eigenvalues --    1.21514   1.23981   1.26204   1.32243   1.35822
 Alpha virt. eigenvalues --    1.36228   1.37182   1.44134   1.53689   1.56449
 Alpha virt. eigenvalues --    1.57818   1.58054   1.59975   1.61710   1.65491
 Alpha virt. eigenvalues --    1.68472   1.68829   1.72838   1.74706   1.78327
 Alpha virt. eigenvalues --    1.80417   1.84838   1.86480   1.90448   1.92669
 Alpha virt. eigenvalues --    1.96717   2.02216   2.02894   2.05109   2.07083
 Alpha virt. eigenvalues --    2.08671   2.13924   2.19765   2.22071   2.28853
 Alpha virt. eigenvalues --    2.37083   2.40531   2.42151   2.42923   2.51800
 Alpha virt. eigenvalues --    2.56117   2.62391   2.65401   2.67547   2.71124
 Alpha virt. eigenvalues --    2.72769   2.75888   2.76725   2.80335   2.80937
 Alpha virt. eigenvalues --    2.92563   2.95509   3.00081   3.04742   3.08162
 Alpha virt. eigenvalues --    3.12369   3.14244   3.18438   3.23057   3.23676
 Alpha virt. eigenvalues --    3.26784   3.38499   3.46996   3.50568   3.53798
 Alpha virt. eigenvalues --    3.56193   3.69343   3.73543   3.81414   3.86353
 Alpha virt. eigenvalues --    4.05810   4.06060   4.13837   4.19003   4.39910
 Alpha virt. eigenvalues --    4.43787   4.56593   4.59259   4.92636   4.95307
 Alpha virt. eigenvalues --    5.03948   5.08114   5.62249   6.15202   6.61672
 Alpha virt. eigenvalues --    7.44449   7.46050   7.56005  23.20452  23.60530
 Alpha virt. eigenvalues --   23.68322  23.78607  23.95307  24.00632  35.32017
 Alpha virt. eigenvalues --   47.88357  49.84985  49.93796 289.77718 289.79387
 Alpha virt. eigenvalues --  289.918691020.88831
          Condensed to atoms (all electrons):
               1          2          3          4          5          6
     1  C    9.035851  -2.838608   0.613063  -1.893100  -0.817913   0.325857
     2  C   -2.838608  14.194453  -2.686056  -2.226755   1.321201  -0.024875
     3  C    0.613063  -2.686056  13.352741  -2.918186  -1.649560   0.025488
     4  C   -1.893100  -2.226755  -2.918186  14.677773   1.523411   0.017337
     5  C   -0.817913   1.321201  -1.649560   1.523411   7.871968   0.003493
     6  H    0.325857  -0.024875   0.025488   0.017337   0.003493   0.328897
     7  H    0.065675   0.222171   0.084926  -0.028194  -0.018670  -0.001678
     8  H    0.005257  -0.014259   0.074807   0.248090  -0.020820  -0.000003
     9  H    0.026007  -0.016521   0.008287  -0.010377   0.311890  -0.002057
    10  N   -0.171487   0.369664  -1.064230   0.442924   0.042243  -0.000677
    11  O    0.011652  -0.009438  -0.223868  -0.070779  -0.048851  -0.000041
    12  O    0.330250  -0.073126  -0.230112  -0.098758  -0.046580   0.000023
    13  C    1.847063  -2.686525   1.273577  -4.001992  -2.533377  -0.012931
    14  H   -0.007388   0.003590  -0.001152  -0.074975  -0.027595  -0.000023
    15  Br   0.080988  -0.105384   0.071126   0.107723   0.032941  -0.000587
               7          8          9         10         11         12
     1  C    0.065675   0.005257   0.026007  -0.171487   0.011652   0.330250
     2  C    0.222171  -0.014259  -0.016521   0.369664  -0.009438  -0.073126
     3  C    0.084926   0.074807   0.008287  -1.064230  -0.223868  -0.230112
     4  C   -0.028194   0.248090  -0.010377   0.442924  -0.070779  -0.098758
     5  C   -0.018670  -0.020820   0.311890   0.042243  -0.048851  -0.046580
     6  H   -0.001678  -0.000003  -0.002057  -0.000677  -0.000041   0.000023
     7  H    0.299480  -0.000014   0.000013  -0.027876  -0.001498   0.022785
     8  H   -0.000014   0.286787   0.000060  -0.025223   0.021043  -0.000502
     9  H    0.000013   0.000060   0.313633   0.000246   0.000018   0.000009
    10  N   -0.027876  -0.025223   0.000246   7.457283   0.143709   0.129763
    11  O   -0.001498   0.021043   0.000018   0.143709   7.866311  -0.000762
    12  O    0.022785  -0.000502   0.000009   0.129763  -0.000762   7.888484
    13  C    0.013591   0.048288   0.015779  -0.194312   0.281109   0.046252
    14  H   -0.000008  -0.002138  -0.003577   0.000878  -0.000431  -0.000126
    15  Br  -0.000110  -0.001555  -0.002627   0.004604  -0.002139   0.002577
              13         14         15
     1  C    1.847063  -0.007388   0.080988
     2  C   -2.686525   0.003590  -0.105384
     3  C    1.273577  -0.001152   0.071126
     4  C   -4.001992  -0.074975   0.107723
     5  C   -2.533377  -0.027595   0.032941
     6  H   -0.012931  -0.000023  -0.000587
     7  H    0.013591  -0.000008  -0.000110
     8  H    0.048288  -0.002138  -0.001555
     9  H    0.015779  -0.003577  -0.002627
    10  N   -0.194312   0.000878   0.004604
    11  O    0.281109  -0.000431  -0.002139
    12  O    0.046252  -0.000126   0.002577
    13  C   12.060067   0.405042  -0.090232
    14  H    0.405042   0.267083  -0.023371
    15  Br  -0.090232  -0.023371  34.914230
 Mulliken charges:
               1
     1  C   -0.613166
     2  C    0.570470
     3  C   -0.730851
     4  C    0.305859
     5  C    0.056218
     6  H    0.341776
     7  H    0.369407
     8  H    0.380182
     9  H    0.359218
    10  N   -0.107509
    11  O    0.033965
    12  O    0.029823
    13  C   -0.471399
    14  H    0.464192
    15  Br   0.011818
 Sum of Mulliken charges =   1.00000
 Mulliken charges with hydrogens summed into heavy atoms:
               1
     1  C   -0.271391
     2  C    0.939878
     3  C   -0.730851
     4  C    0.686040
     5  C    0.415435
    10  N   -0.107509
    11  O    0.033965
    12  O    0.029823
    13  C   -0.007207
    15  Br   0.011818
 Electronic spatial extent (au):  <R**2>=           2801.2695
 Charge=              1.0000 electrons
 Dipole moment (field-independent basis, Debye):
    X=             -0.4037    Y=              0.0593    Z=              3.0120  Tot=              3.0395
 Quadrupole moment (field-independent basis, Debye-Ang):
   XX=            -70.6744   YY=            -52.9176   ZZ=            -66.1580
   XY=              0.8336   XZ=              2.5009   YZ=             -0.9330
 Traceless Quadrupole moment (field-independent basis, Debye-Ang):
   XX=             -7.4244   YY=             10.3324   ZZ=             -2.9080
   XY=              0.8336   XZ=              2.5009   YZ=             -0.9330
 Octapole moment (field-independent basis, Debye-Ang**2):
  XXX=           -296.1025  YYY=             92.3127  ZZZ=             91.7764  XYY=            -74.4496
  XXY=             30.9154  XXZ=             42.4295  XZZ=            -76.2635  YZZ=             23.2854
  YYZ=             34.6402  XYZ=             -1.6270
 Hexadecapole moment (field-independent basis, Debye-Ang**3):
 XXXX=          -2268.1556 YYYY=           -686.9946 ZZZZ=           -381.2947 XXXY=            -70.2960
 XXXZ=              6.1837 YYYX=            -62.6971 YYYZ=           -171.3739 ZZZX=            -20.5571
 ZZZY=           -156.2881 XXYY=           -456.3056 XXZZ=           -375.2779 YYZZ=           -179.2900
 XXYZ=            -57.0501 YYXZ=             -2.2989 ZZXY=            -12.5891
 N-N= 7.411902348850D+02 E-N=-8.634524033988D+03  KE= 3.005859303403D+03
 No NMR shielding tensors so no spin-rotation constants.
 Leave Link  601 at Wed May  1 15:17:37 2024, MaxMem=  1207959552 cpu:               7.3 elap:               7.3
 (Enter /software/gaussian/g16-c01/sse4/g16/l9999.exe)
 Unable to Open any file for archive entry.
 1\1\GINC-BHX0004\SP\RwB97XD\6-311+G(d)\C6H5Br1N1O2(1+)\BWEIGHT\01-May-
 2024\0\\#P wB97XD/6-311+G* NoSymm #P Field=Z-175\\TitleMe\\1,1\C,0,0.0
 295,1.3397,0.0682\C,0,1.4348,1.2867,0.0064\C,0,2.1118,0.0511,-0.0054\C
 ,0,1.4451,-1.1372,0.0312\C,0,-0.6879,0.1682,0.11\H,0,-0.4713,2.2984,0.
 0781\H,0,2.0273,2.1965,-0.0322\H,0,1.9897,-2.0764,0.0232\H,0,-1.7716,0
 .1804,0.1582\N,0,3.5864,0.051,-0.0675\O,0,4.1471,-1.0597,-0.0881\O,0,4
 .145,1.1639,-0.0901\C,0,-0.0236,-1.1458,0.0835\H,0,-0.4367,-1.8725,0.7
 889\Br,0,-0.5359,-1.8697,-1.7408\\Version=ES64L-G16RevC.01\HF=-3010.54
 56307\RMSD=8.751e-09\Dipole=-2.0653645,1.1714222,2.3311814\Quadrupole=
 -5.5198467,7.6818542,-2.1620075,0.6197368,1.8593864,-0.6936282\PG=C01 
 [X(C6H5Br1N1O2)]\\@
 The archive entry for this job was punched.


 THOUGH I SPEAK WITH THE TONGUES OF MEN AND OF ANGELS, 
 AND HAVE NOT LOVE,
 I AM BECOME AS SOUNDING BRASS, A TINKLING CYMBAL.
 AND THOUGH I HAVE THE GIFT OF PROPHECY,
 AND UNDERSTAND ALL MYSTERIES, AND ALL KNOWLEDGE.
 AND THOUGH I HAVE ALL FAITH, SO THAT I COULD REMOVE MOUNTAINS,
 AND HAVE NOT LOVE, I AM NOTHING.
 AND THOUGH I BESTOW ALL MY GOODS TO FEED THE POOR,
 AND THOUGH I GIVE MY BODY TO BE BURNED,
 AND HAVE NOT LOVE IT PROFITETH ME NOTHING.
 LOVE SUFFERETH LONG, AND IS KIND,
 LOVE ENVIETH NOT,
 LOVE VAUNTETH NOT ITSELF, IS NOT PUFFED UP,
 DOTH NOT BEHAVE ITSELF UNSEEMLY, SEEKETH NOT HER OWN,
 IS NOT EASILY PROVOKED, THINKETH NO EVIL,
 REJOICETH NOT IN INIQUITY, BUT REJOICETH IN THE TRUTH,
 BEARETH ALL THINGS, BELIEVETH ALL THINGS,
 HOPETH ALL THINGS, ENDURETH ALL THINGS.
 LOVE NEVER FAILETH, BUT WHETHER THERE BE PROPHECIES, THEY SHALL FAIL, 
 WHETHER THERE BE TONGUES, THEY SHALL CEASE,
 WHETHER THERE BE KNOWLEDGE, IT SHALL VANISH AWAY.
 FOR WE KNOW IN PART, AND WE PROPHESY IN PART.
 BUT WHEN THAT WHICH IS PERFECT IS COME, THEN THAT WHICH IS IN PART 
 SHALL BE DONE AWAY. 
 WHEN I WAS A CHILD, I SPAKE AS A CHILD, I UNDERSTOOD AS A CHILD, 
 I THOUGHT AS A CHILD.
 BUT WHEN I BECAME A MAN, I PUT AWAY CHILDISH THINGS.
 FOR NOW WE SEE THROUGH A GLASS, DARKLY, BUT THEN FACE TO FACE.
 NOW I KNOW IN PART. BUT THEN SHALL I KNOW EVEN AS ALSO I AM KNOWN.
 AND NOW ABIDETH FAITH, HOPE AND LOVE, THESE THREE.
 BUT THE GREATEST OF THESE IS LOVE.

                     I CORINTHIANS 13
 Job cpu time:       0 days  0 hours 18 minutes 39.7 seconds.
 Elapsed time:       0 days  0 hours 18 minutes 39.9 seconds.
 File lengths (MBytes):  RWF=     40 Int=      0 D2E=      0 Chk=     32 Scr=      1
 Normal termination of Gaussian 16 at Wed May  1 15:17:38 2024.
