 Entering Gaussian System, Link 0=g16
 Initial command:
 /software/gaussian/g16-a03/l1.exe "/local_scratch/6484903/Gau-27937.inp" -scrdir="/local_scratch/6484903/"
 Entering Link 1 = /software/gaussian/g16-a03/l1.exe PID=     27938.
  
 Copyright (c) 1988,1990,1992,1993,1995,1998,2003,2009,2016,
            Gaussian, Inc.  All Rights Reserved.
  
 This is part of the Gaussian(R) 16 program.  It is based on
 the Gaussian(R) 09 system (copyright 2009, Gaussian, Inc.),
 the Gaussian(R) 03 system (copyright 2003, Gaussian, Inc.),
 the Gaussian(R) 98 system (copyright 1998, Gaussian, Inc.),
 the Gaussian(R) 94 system (copyright 1995, Gaussian, Inc.),
 the Gaussian 92(TM) system (copyright 1992, Gaussian, Inc.),
 the Gaussian 90(TM) system (copyright 1990, Gaussian, Inc.),
 the Gaussian 88(TM) system (copyright 1988, Gaussian, Inc.),
 the Gaussian 86(TM) system (copyright 1986, Carnegie Mellon
 University), and the Gaussian 82(TM) system (copyright 1983,
 Carnegie Mellon University). Gaussian is a federally registered
 trademark of Gaussian, Inc.
  
 This software contains proprietary and confidential information,
 including trade secrets, belonging to Gaussian, Inc.
  
 This software is provided under written license and may be
 used, copied, transmitted, or stored only in accord with that
 written license.
  
 The following legend is applicable only to US Government
 contracts under FAR:
  
                    RESTRICTED RIGHTS LEGEND
  
 Use, reproduction and disclosure by the US Government is
 subject to restrictions as set forth in subparagraphs (a)
 and (c) of the Commercial Computer Software - Restricted
 Rights clause in FAR 52.227-19.
  
 Gaussian, Inc.
 340 Quinnipiac St., Bldg. 40, Wallingford CT 06492
  
  
 ---------------------------------------------------------------
 Warning -- This program may not be used in any manner that
 competes with the business of Gaussian, Inc. or will provide
 assistance to any competitor of Gaussian, Inc.  The licensee
 of this program is prohibited from giving any competitor of
 Gaussian, Inc. access to this program.  By using this program,
 the user acknowledges that Gaussian, Inc. is engaged in the
 business of creating and licensing software in the field of
 computational chemistry and represents and warrants to the
 licensee that it is not a competitor of Gaussian, Inc. and that
 it will not use this program in any manner prohibited above.
 ---------------------------------------------------------------
  

 Cite this work as:
 Gaussian 16, Revision A.03,
 M. J. Frisch, G. W. Trucks, H. B. Schlegel, G. E. Scuseria, 
 M. A. Robb, J. R. Cheeseman, G. Scalmani, V. Barone, 
 G. A. Petersson, H. Nakatsuji, X. Li, M. Caricato, A. V. Marenich, 
 J. Bloino, B. G. Janesko, R. Gomperts, B. Mennucci, H. P. Hratchian, 
 J. V. Ortiz, A. F. Izmaylov, J. L. Sonnenberg, D. Williams-Young, 
 F. Ding, F. Lipparini, F. Egidi, J. Goings, B. Peng, A. Petrone, 
 T. Henderson, D. Ranasinghe, V. G. Zakrzewski, J. Gao, N. Rega, 
 G. Zheng, W. Liang, M. Hada, M. Ehara, K. Toyota, R. Fukuda, 
 J. Hasegawa, M. Ishida, T. Nakajima, Y. Honda, O. Kitao, H. Nakai, 
 T. Vreven, K. Throssell, J. A. Montgomery, Jr., J. E. Peralta, 
 F. Ogliaro, M. J. Bearpark, J. J. Heyd, E. N. Brothers, K. N. Kudin, 
 V. N. Staroverov, T. A. Keith, R. Kobayashi, J. Normand, 
 K. Raghavachari, A. P. Rendell, J. C. Burant, S. S. Iyengar, 
 J. Tomasi, M. Cossi, J. M. Millam, M. Klene, C. Adamo, R. Cammi, 
 J. W. Ochterski, R. L. Martin, K. Morokuma, O. Farkas, 
 J. B. Foresman, and D. J. Fox, Gaussian, Inc., Wallingford CT, 2016.
 
 ******************************************
 Gaussian 16:  ES64L-G16RevA.03 25-Dec-2016
                17-Sep-2021 
 ******************************************
 %chk=geometry.chk
 %mem=2GB
 %nprocshared=1
 Will use up to    1 processors via shared memory.
 --------------------------------------------------------------------
 #p B3LYP/6-311+G** #p TD=(singlets,nstates=30)IOp(6/8=3) IOp(9/40=4)
 --------------------------------------------------------------------
 1/38=1,172=1/1;
 2/12=2,17=6,18=5,40=1/2;
 3/5=4,6=6,7=111,11=9,25=1,30=1,74=-5/1,2,3,8;
 4//1;
 5/5=2,38=5/2;
 8/6=1,10=2,108=30/1;
 9/40=4,41=30,42=1,48=1,70=2/14;
 6/7=2,8=3,9=2,10=2/1;
 99/5=1,9=1/99;
 Leave Link    1 at Fri Sep 17 10:52:20 2021, MaxMem=   268435456 cpu:               0.0 elap:               0.1
 (Enter /software/gaussian/g16-a03/l101.exe)
 ---------------------------------------------
 Scan Step 172, Bond Length 1.3599999999999999
 ---------------------------------------------
 Symbolic Z-matrix:
 Charge =  0 Multiplicity = 1
 C                     0.        0.       -0.52736 
 H                     0.        0.93726  -1.11871 
 H                     0.       -0.93726  -1.11871 
 O                     0.        0.        0.83264 
 
 ITRead=  0  0  0  0
 MicOpt= -1 -1 -1 -1
 NAtoms=      4 NQM=        4 NQMF=       0 NMMI=      0 NMMIF=      0
                NMic=       0 NMicF=      0.
                    Isotopes and Nuclear Properties:
 (Nuclear quadrupole moments (NQMom) in fm**2, nuclear magnetic moments (NMagM)
  in nuclear magnetons)

  Atom         1           2           3           4
 IAtWgt=          12           1           1          16
 AtmWgt=  12.0000000   1.0078250   1.0078250  15.9949146
 NucSpn=           0           1           1           0
 AtZEff=  -0.0000000  -0.0000000  -0.0000000  -0.0000000
 NQMom=    0.0000000   0.0000000   0.0000000   0.0000000
 NMagM=    0.0000000   2.7928460   2.7928460   0.0000000
 AtZNuc=   6.0000000   1.0000000   1.0000000   8.0000000
 Leave Link  101 at Fri Sep 17 10:52:20 2021, MaxMem=   268435456 cpu:               0.1 elap:               0.1
 (Enter /software/gaussian/g16-a03/l202.exe)
                          Input orientation:                          
 ---------------------------------------------------------------------
 Center     Atomic      Atomic             Coordinates (Angstroms)
 Number     Number       Type             X           Y           Z
 ---------------------------------------------------------------------
      1          6           0        0.000000    0.000000   -0.527360
      2          1           0        0.000000    0.937260   -1.118710
      3          1           0        0.000000   -0.937260   -1.118710
      4          8           0        0.000000    0.000000    0.832640
 ---------------------------------------------------------------------
                    Distance matrix (angstroms):
                    1          2          3          4
     1  C    0.000000
     2  H    1.108220   0.000000
     3  H    1.108220   1.874520   0.000000
     4  O    1.360000   2.164769   2.164769   0.000000
 Stoichiometry    CH2O
 Framework group  C2V[C2(CO),SGV(H2)]
 Deg. of freedom     3
 Full point group                 C2V     NOp   4
 Largest Abelian subgroup         C2V     NOp   4
 Largest concise Abelian subgroup C2      NOp   2
                         Standard orientation:                         
 ---------------------------------------------------------------------
 Center     Atomic      Atomic             Coordinates (Angstroms)
 Number     Number       Type             X           Y           Z
 ---------------------------------------------------------------------
      1          6           0        0.000000    0.000000   -0.606081
      2          1           0        0.000000    0.937260   -1.197431
      3          1           0       -0.000000   -0.937260   -1.197431
      4          8           0        0.000000   -0.000000    0.753919
 ---------------------------------------------------------------------
 Rotational constants (GHZ):         285.4183527          31.1923531          28.1192956
 Leave Link  202 at Fri Sep 17 10:52:20 2021, MaxMem=   268435456 cpu:               0.0 elap:               0.0
 (Enter /software/gaussian/g16-a03/l301.exe)
 Standard basis: 6-311+G(d,p) (5D, 7F)
 Ernie: Thresh=  0.10000D-02 Tol=  0.10000D-05 Strict=F.
 There are    29 symmetry adapted cartesian basis functions of A1  symmetry.
 There are     3 symmetry adapted cartesian basis functions of A2  symmetry.
 There are    11 symmetry adapted cartesian basis functions of B1  symmetry.
 There are    15 symmetry adapted cartesian basis functions of B2  symmetry.
 There are    27 symmetry adapted basis functions of A1  symmetry.
 There are     3 symmetry adapted basis functions of A2  symmetry.
 There are    11 symmetry adapted basis functions of B1  symmetry.
 There are    15 symmetry adapted basis functions of B2  symmetry.
    56 basis functions,    88 primitive gaussians,    58 cartesian basis functions
     8 alpha electrons        8 beta electrons
       nuclear repulsion energy        28.6003637596 Hartrees.
 IExCor=  402 DFT=T Ex+Corr=B3LYP ExCW=0 ScaHFX=  0.200000
 ScaDFX=  0.800000  0.720000  1.000000  0.810000 ScalE2=  1.000000  1.000000
 IRadAn=      5 IRanWt=     -1 IRanGd=            0 ICorTp=0 IEmpDi=  4
 NAtoms=    4 NActive=    4 NUniq=    3 SFac= 1.78D+00 NAtFMM=   60 NAOKFM=F Big=F
 Integral buffers will be    131072 words long.
 Regular integral format.
 Two-electron integral symmetry is turned on.
 Leave Link  301 at Fri Sep 17 10:52:20 2021, MaxMem=   268435456 cpu:               0.0 elap:               0.1
 (Enter /software/gaussian/g16-a03/l302.exe)
 NPDir=0 NMtPBC=     1 NCelOv=     1 NCel=       1 NClECP=     1 NCelD=      1
         NCelK=      1 NCelE2=     1 NClLst=     1 CellRange=     0.0.
 One-electron integrals computed using PRISM.
 One-electron integral symmetry used in STVInt
 NBasis=    56 RedAO= T EigKep=  6.07D-03  NBF=    27     3    11    15
 NBsUse=    56 1.00D-06 EigRej= -1.00D+00 NBFU=    27     3    11    15
 Precomputing XC quadrature grid using
 IXCGrd= 4 IRadAn=           5 IRanWt=          -1 IRanGd=           0 AccXCQ= 0.00D+00.
 Generated NRdTot=       0 NPtTot=           0 NUsed=           0 NTot=          32
 NSgBfM=    58    58    58    58    58 MxSgAt=     4 MxSgA2=     4.
 Leave Link  302 at Fri Sep 17 10:52:21 2021, MaxMem=   268435456 cpu:               0.1 elap:               0.1
 (Enter /software/gaussian/g16-a03/l303.exe)
 DipDrv:  MaxL=1.
 Leave Link  303 at Fri Sep 17 10:52:21 2021, MaxMem=   268435456 cpu:               0.0 elap:               0.0
 (Enter /software/gaussian/g16-a03/l308.exe)
 Leave Link  308 at Fri Sep 17 10:52:21 2021, MaxMem=   268435456 cpu:               0.0 elap:               0.0
 (Enter /software/gaussian/g16-a03/l401.exe)
 ExpMin= 4.38D-02 ExpMax= 8.59D+03 ExpMxC= 1.30D+03 IAcc=3 IRadAn=         5 AccDes= 0.00D+00
 Harris functional with IExCor=  402 and IRadAn=       5 diagonalized for initial guess.
 HarFok:  IExCor=  402 AccDes= 0.00D+00 IRadAn=         5 IDoV= 1 UseB2=F ITyADJ=14
 ICtDFT=  3500011 ScaDFX=  1.000000  1.000000  1.000000  1.000000
 FoFCou: FMM=F IPFlag=           0 FMFlag=      100000 FMFlg1=           0
         NFxFlg=           0 DoJE=T BraDBF=F KetDBF=T FulRan=T
         wScrn=  0.000000 ICntrl=       500 IOpCl=  0 I1Cent=   200000004 NGrid=           0
         NMat0=    1 NMatS0=      1 NMatT0=    0 NMatD0=    1 NMtDS0=    0 NMtDT0=    0
 Petite list used in FoFCou.
 Harris En= -114.524113679554    
 JPrj=0 DoOrth=F DoCkMO=F.
 Initial guess orbital symmetries:
       Occupied  (A1) (A1) (A1) (A1) (B2) (A1) (B1) (B2)
       Virtual   (B1) (A1) (A1) (B2) (B1) (A1) (B2) (A1) (A1) (B1)
                 (B2) (A1) (A1) (B2) (B1) (A1) (B2) (A1) (A1) (A2)
                 (B1) (B2) (B1) (A1) (B2) (A1) (B2) (A1) (B1) (A2)
                 (A1) (B2) (A1) (B2) (B1) (A1) (A1) (A2) (A1) (B1)
                 (B2) (B2) (A1) (B1) (B2) (A1) (A1) (A1)
 The electronic state of the initial guess is 1-A1.
 Leave Link  401 at Fri Sep 17 10:52:21 2021, MaxMem=   268435456 cpu:               0.3 elap:               0.3
 (Enter /software/gaussian/g16-a03/l502.exe)
 Keep R1 ints in memory in symmetry-blocked form, NReq=2159909.
 FoFCou: FMM=F IPFlag=           0 FMFlag=           0 FMFlg1=           0
         NFxFlg=           0 DoJE=F BraDBF=F KetDBF=F FulRan=T
         wScrn=  0.000000 ICntrl=       600 IOpCl=  0 I1Cent=           0 NGrid=           0
         NMat0=    1 NMatS0=   1596 NMatT0=    0 NMatD0=    1 NMtDS0=    0 NMtDT0=    0
 Petite list used in FoFCou.
 Closed shell SCF:
 Using DIIS extrapolation, IDIIS=  1040.
 NGot=   268435456 LenX=   268074384 LenY=   268070579
 Requested convergence on RMS density matrix=1.00D-08 within 128 cycles.
 Requested convergence on MAX density matrix=1.00D-06.
 Requested convergence on             energy=1.00D-06.
 No special actions if energy rises.

 Cycle   1  Pass 1  IDiag  1:
 E= -114.456256324208    
 DIIS: error= 4.88D-02 at cycle   1 NSaved=   1.
 NSaved= 1 IEnMin= 1 EnMin= -114.456256324208     IErMin= 1 ErrMin= 4.88D-02
 ErrMax= 4.88D-02  0.00D+00 EMaxC= 1.00D-01 BMatC= 7.58D-02 BMatP= 7.58D-02
 IDIUse=3 WtCom= 5.12D-01 WtEn= 4.88D-01
 Coeff-Com:  0.100D+01
 Coeff-En:   0.100D+01
 Coeff:      0.100D+01
 Gap=     0.084 Goal=   None    Shift=    0.000
 GapD=    0.084 DampG=0.500 DampE=0.500 DampFc=0.2500 IDamp=-1.
 Damping current iteration by 2.50D-01
 RMSDP=1.15D-02 MaxDP=1.00D-01              OVMax= 4.15D-01

 Cycle   2  Pass 1  IDiag  1:
 E= -114.470309887709     Delta-E=       -0.014053563501 Rises=F Damp=T
 DIIS: error= 1.09D-02 at cycle   2 NSaved=   2.
 NSaved= 2 IEnMin= 2 EnMin= -114.470309887709     IErMin= 2 ErrMin= 1.09D-02
 ErrMax= 1.09D-02  0.00D+00 EMaxC= 1.00D-01 BMatC= 6.65D-03 BMatP= 7.58D-02
 IDIUse=3 WtCom= 8.91D-01 WtEn= 1.09D-01
 Coeff-Com: -0.617D-01 0.106D+01
 Coeff-En:   0.306D+00 0.694D+00
 Coeff:     -0.218D-01 0.102D+01
 Gap=     0.165 Goal=   None    Shift=    0.000
 RMSDP=1.42D-03 MaxDP=2.99D-02 DE=-1.41D-02 OVMax= 3.29D-01

 Cycle   3  Pass 1  IDiag  1:
 E= -114.510526643319     Delta-E=       -0.040216755610 Rises=F Damp=F
 DIIS: error= 9.21D-03 at cycle   3 NSaved=   3.
 NSaved= 3 IEnMin= 3 EnMin= -114.510526643319     IErMin= 3 ErrMin= 9.21D-03
 ErrMax= 9.21D-03  0.00D+00 EMaxC= 1.00D-01 BMatC= 2.90D-03 BMatP= 6.65D-03
 IDIUse=3 WtCom= 9.08D-01 WtEn= 9.21D-02
 Coeff-Com: -0.828D-01 0.438D+00 0.645D+00
 Coeff-En:   0.000D+00 0.000D+00 0.100D+01
 Coeff:     -0.752D-01 0.398D+00 0.677D+00
 Gap=     0.182 Goal=   None    Shift=    0.000
 RMSDP=7.88D-04 MaxDP=1.89D-02 DE=-4.02D-02 OVMax= 3.40D-02

 Cycle   4  Pass 1  IDiag  1:
 E= -114.513059072742     Delta-E=       -0.002532429422 Rises=F Damp=F
 DIIS: error= 3.82D-03 at cycle   4 NSaved=   4.
 NSaved= 4 IEnMin= 4 EnMin= -114.513059072742     IErMin= 4 ErrMin= 3.82D-03
 ErrMax= 3.82D-03  0.00D+00 EMaxC= 1.00D-01 BMatC= 5.10D-04 BMatP= 2.90D-03
 IDIUse=3 WtCom= 9.62D-01 WtEn= 3.82D-02
 Coeff-Com:  0.195D-02 0.384D-01 0.295D+00 0.664D+00
 Coeff-En:   0.000D+00 0.000D+00 0.124D+00 0.876D+00
 Coeff:      0.188D-02 0.369D-01 0.289D+00 0.672D+00
 Gap=     0.186 Goal=   None    Shift=    0.000
 RMSDP=2.46D-04 MaxDP=5.75D-03 DE=-2.53D-03 OVMax= 7.34D-03

 Cycle   5  Pass 1  IDiag  1:
 E= -114.513523127165     Delta-E=       -0.000464054424 Rises=F Damp=F
 DIIS: error= 4.68D-04 at cycle   5 NSaved=   5.
 NSaved= 5 IEnMin= 5 EnMin= -114.513523127165     IErMin= 5 ErrMin= 4.68D-04
 ErrMax= 4.68D-04  0.00D+00 EMaxC= 1.00D-01 BMatC= 7.74D-06 BMatP= 5.10D-04
 IDIUse=3 WtCom= 9.95D-01 WtEn= 4.68D-03
 Coeff-Com:  0.100D-01-0.165D-01 0.513D-01 0.174D+00 0.781D+00
 Coeff-En:   0.000D+00 0.000D+00 0.000D+00 0.000D+00 0.100D+01
 Coeff:      0.995D-02-0.165D-01 0.510D-01 0.174D+00 0.782D+00
 Gap=     0.186 Goal=   None    Shift=    0.000
 RMSDP=3.07D-05 MaxDP=2.20D-04 DE=-4.64D-04 OVMax= 7.58D-04

 Cycle   6  Pass 1  IDiag  1:
 E= -114.513529420440     Delta-E=       -0.000006293275 Rises=F Damp=F
 DIIS: error= 1.13D-04 at cycle   6 NSaved=   6.
 NSaved= 6 IEnMin= 6 EnMin= -114.513529420440     IErMin= 6 ErrMin= 1.13D-04
 ErrMax= 1.13D-04  0.00D+00 EMaxC= 1.00D-01 BMatC= 3.16D-07 BMatP= 7.74D-06
 IDIUse=3 WtCom= 9.99D-01 WtEn= 1.13D-03
 Coeff-Com:  0.161D-02-0.241D-02 0.642D-04-0.750D-02-0.385D-01 0.105D+01
 Coeff-En:   0.000D+00 0.000D+00 0.000D+00 0.000D+00 0.000D+00 0.100D+01
 Coeff:      0.161D-02-0.240D-02 0.642D-04-0.749D-02-0.384D-01 0.105D+01
 Gap=     0.186 Goal=   None    Shift=    0.000
 RMSDP=8.00D-06 MaxDP=6.87D-05 DE=-6.29D-06 OVMax= 1.79D-04

 Cycle   7  Pass 1  IDiag  1:
 E= -114.513529692194     Delta-E=       -0.000000271754 Rises=F Damp=F
 DIIS: error= 4.10D-06 at cycle   7 NSaved=   7.
 NSaved= 7 IEnMin= 7 EnMin= -114.513529692194     IErMin= 7 ErrMin= 4.10D-06
 ErrMax= 4.10D-06  0.00D+00 EMaxC= 1.00D-01 BMatC= 8.14D-10 BMatP= 3.16D-07
 IDIUse=1 WtCom= 1.00D+00 WtEn= 0.00D+00
 Coeff-Com:  0.133D-04-0.148D-05 0.856D-04-0.168D-02-0.101D-01 0.618D-01
 Coeff-Com:  0.950D+00
 Coeff:      0.133D-04-0.148D-05 0.856D-04-0.168D-02-0.101D-01 0.618D-01
 Coeff:      0.950D+00
 Gap=     0.186 Goal=   None    Shift=    0.000
 RMSDP=3.40D-07 MaxDP=6.85D-06 DE=-2.72D-07 OVMax= 9.87D-06

 Cycle   8  Pass 1  IDiag  1:
 E= -114.513529692795     Delta-E=       -0.000000000601 Rises=F Damp=F
 DIIS: error= 2.60D-06 at cycle   8 NSaved=   8.
 NSaved= 8 IEnMin= 8 EnMin= -114.513529692795     IErMin= 8 ErrMin= 2.60D-06
 ErrMax= 2.60D-06  0.00D+00 EMaxC= 1.00D-01 BMatC= 1.72D-10 BMatP= 8.14D-10
 IDIUse=1 WtCom= 1.00D+00 WtEn= 0.00D+00
 Coeff-Com:  0.254D-05 0.411D-05 0.260D-04-0.725D-05 0.401D-03-0.225D-01
 Coeff-Com:  0.452D-01 0.977D+00
 Coeff:      0.254D-05 0.411D-05 0.260D-04-0.725D-05 0.401D-03-0.225D-01
 Coeff:      0.452D-01 0.977D+00
 Gap=     0.186 Goal=   None    Shift=    0.000
 RMSDP=1.82D-07 MaxDP=1.34D-06 DE=-6.01D-10 OVMax= 4.13D-06

 Cycle   9  Pass 1  IDiag  1:
 E= -114.513529692942     Delta-E=       -0.000000000147 Rises=F Damp=F
 DIIS: error= 9.84D-08 at cycle   9 NSaved=   9.
 NSaved= 9 IEnMin= 9 EnMin= -114.513529692942     IErMin= 9 ErrMin= 9.84D-08
 ErrMax= 9.84D-08  0.00D+00 EMaxC= 1.00D-01 BMatC= 4.12D-13 BMatP= 1.72D-10
 IDIUse=1 WtCom= 1.00D+00 WtEn= 0.00D+00
 Coeff-Com:  0.217D-05-0.237D-05 0.491D-06 0.113D-04 0.156D-03-0.301D-02
 Coeff-Com: -0.466D-02 0.101D+00 0.906D+00
 Coeff:      0.217D-05-0.237D-05 0.491D-06 0.113D-04 0.156D-03-0.301D-02
 Coeff:     -0.466D-02 0.101D+00 0.906D+00
 Gap=     0.186 Goal=   None    Shift=    0.000
 RMSDP=5.95D-09 MaxDP=7.02D-08 DE=-1.47D-10 OVMax= 1.76D-07

 SCF Done:  E(RB3LYP) =  -114.513529693     A.U. after    9 cycles
            NFock=  9  Conv=0.60D-08     -V/T= 2.0073
 KE= 1.136820267345D+02 PE=-3.259545807336D+02 EE= 6.915866054660D+01
 Leave Link  502 at Fri Sep 17 10:52:23 2021, MaxMem=   268435456 cpu:               1.5 elap:               1.7
 (Enter /software/gaussian/g16-a03/l801.exe)
 DoSCS=F DFT=T ScalE2(SS,OS)=  1.000000  1.000000
 ExpMin= 4.38D-02 ExpMax= 8.59D+03 ExpMxC= 1.30D+03 IAcc=3 IRadAn=         5 AccDes= 0.00D+00
 HarFok:  IExCor=  205 AccDes= 0.00D+00 IRadAn=         5 IDoV=-2 UseB2=F ITyADJ=14
 ICtDFT= 12500011 ScaDFX=  1.000000  1.000000  1.000000  1.000000
 Largest valence mixing into a core orbital is  5.06D-05
 Largest core mixing into a valence orbital is  1.10D-05
 Range of M.O.s used for correlation:     3    56
 NBasis=    56 NAE=     8 NBE=     8 NFC=     2 NFV=     0
 NROrb=     54 NOA=     6 NOB=     6 NVA=    48 NVB=    48
 Leave Link  801 at Fri Sep 17 10:52:23 2021, MaxMem=   268435456 cpu:               0.2 elap:               0.2
 (Enter /software/gaussian/g16-a03/l914.exe)
 RHF ground state
 Keep R1, R2, and R3 ints in memory in symmetry-blocked form, NReq=6042848.
 FoFCou: FMM=F IPFlag=           0 FMFlag=           0 FMFlg1=           0
         NFxFlg=           0 DoJE=F BraDBF=F KetDBF=F FulRan=T
         wScrn=  0.000000 ICntrl=       600 IOpCl=  0 I1Cent=           0 NGrid=           0
         NMat0=    1 NMatS0=   1596 NMatT0=    0 NMatD0=    1 NMtDS0=    0 NMtDT0=    0
 Petite list used in FoFCou.
 MDV=   268435456 DFT=T DoStab=F Mixed=T DoRPA=T DoScal=F NonHer=T
 Making orbital integer symmetry assigments:
 Orbital symmetries:
       Occupied  (A1) (A1) (A1) (A1) (B2) (A1) (B1) (B2)
       Virtual   (B1) (A1) (A1) (B2) (B1) (A1) (B2) (A1) (B1) (A1)
                 (B2) (A1) (A1) (B2) (B1) (A1) (B2) (A1) (A2) (A1)
                 (B1) (B2) (B1) (A1) (B2) (A1) (B2) (A1) (B1) (A2)
                 (A1) (B2) (A1) (B2) (A1) (B1) (A1) (A2) (A1) (B1)
                 (B2) (B2) (A1) (B1) (B2) (A1) (A1) (A1)
   120 initial guesses have been made.
 Convergence on wavefunction:    0.001000000000000
 Davidson Disk Diagonalization:  ConvIn= 1.00D-03 SkipCon=T Conv= 1.00D-03.
 Max sub-space:  1728 roots to seek:   120 dimension of matrix:          576
 Iteration     1 Dimension   120 NMult     0 NNew    120
 CISAX will form   120 AO SS matrices at one time.
 NMat=   120 NSing=   120 JSym2X=-1.
 New state      2 was old state      3
 New state      3 was old state      6
 New state      4 was old state      2
 New state      5 was old state      4
 New state      6 was old state      5
 New state      8 was old state      9
 New state      9 was old state      8
 New state     11 was old state     12
 New state     12 was old state     11
 New state     15 was old state     16
 New state     16 was old state     15
 New state     20 was old state     23
 New state     22 was old state     20
 New state     23 was old state     22
 New state     24 was old state     27
 New state     25 was old state     24
 New state     26 was old state     25
 New state     27 was old state     26
 New state     28 was old state     29
 New state     29 was old state     28
 Excitation Energies [eV] at current iteration:
 Root      1 :     3.080011639015988
 Root      2 :     6.955171841270208
 Root      3 :     7.473860290068805
 Root      4 :     7.586612047325469
 Root      5 :     7.638089591240426
 Root      6 :     8.010015140810218
 Root      7 :     8.540123662319500
 Root      8 :     8.726098963665452
 Root      9 :     9.175186330263955
 Root     10 :     9.962553881893577
 Root     11 :    10.220232022488590
 Root     12 :    10.223889976789930
 Root     13 :    10.890416452048850
 Root     14 :    11.178151636790840
 Root     15 :    11.548991478639550
 Root     16 :    11.752673233698690
 Root     17 :    12.139068779757070
 Root     18 :    12.235768561189370
 Root     19 :    12.285506104108810
 Root     20 :    12.304006726924030
 Root     21 :    12.362938263148090
 Root     22 :    12.404113679981330
 Root     23 :    12.790491807202430
 Root     24 :    13.170634797691740
 Root     25 :    13.207286419452110
 Root     26 :    13.275554465835100
 Root     27 :    13.744432771805400
 Root     28 :    13.865234466272890
 Root     29 :    13.961861120978420
 Root     30 :    14.343805405056060
 Root     31 :    14.500078651847180
 Root     32 :    14.736413679315450
 Root     33 :    15.028009755371290
 Root     34 :    15.169749549036770
 Root     35 :    15.245303597113730
 Root     36 :    15.267759585107880
 Root     37 :    15.920555963678670
 Root     38 :    16.327674205668290
 Root     39 :    16.635170007592520
 Root     40 :    16.737535612280190
 Root     41 :    17.069276836250110
 Root     42 :    17.167764060445340
 Root     43 :    17.278380251126060
 Root     44 :    17.511474790512320
 Root     45 :    17.752824779074120
 Root     46 :    18.049495279239480
 Root     47 :    18.057875571374370
 Root     48 :    18.143225385114790
 Root     49 :    18.212361945296630
 Root     50 :    18.462002087900900
 Root     51 :    18.818608717951960
 Root     52 :    18.891655640218500
 Root     53 :    19.081122057682640
 Root     54 :    20.168920950467170
 Root     55 :    20.212437346457840
 Root     56 :    20.451506810797540
 Root     57 :    20.540506796929250
 Root     58 :    20.633176679803740
 Root     59 :    20.671933050938170
 Root     60 :    21.514319968166100
 Root     61 :    21.792249130274320
 Root     62 :    22.306738268805790
 Root     63 :    22.517178818883220
 Root     64 :    22.810648470918500
 Root     65 :    23.017901758919060
 Root     66 :    23.019260550244160
 Root     67 :    23.193532543317250
 Root     68 :    23.354559612811700
 Root     69 :    23.486130173458910
 Root     70 :    23.578409880892790
 Root     71 :    23.829309822347330
 Root     72 :    24.040126990555470
 Root     73 :    24.413298230710840
 Root     74 :    24.915193853010020
 Root     75 :    24.935756923724800
 Root     76 :    25.347878886967020
 Root     77 :    25.397579572746240
 Root     78 :    26.350583865775270
 Root     79 :    26.604107441738190
 Root     80 :    26.741283749537950
 Root     81 :    26.973706405503560
 Root     82 :    27.216419815829420
 Root     83 :    27.411147136030570
 Root     84 :    27.449887874594340
 Root     85 :    27.984528971470810
 Root     86 :    28.442290987771120
 Root     87 :    28.834528857673470
 Root     88 :    29.280274029880610
 Root     89 :    29.314462642052560
 Root     90 :    29.720936007672100
 Root     91 :    30.375504511886390
 Root     92 :    30.578432609477090
 Root     93 :    31.132335813500220
 Root     94 :    31.586927898367650
 Root     95 :    32.053662172568590
 Root     96 :    32.104653889417200
 Root     97 :    32.399085836545080
 Root     98 :    32.563706860309270
 Root     99 :    33.211818598660680
 Root    100 :    33.474931836733100
 Root    101 :    33.526851245133470
 Root    102 :    33.540944868893670
 Root    103 :    33.671961184910660
 Root    104 :    34.376072380144650
 Root    105 :    35.779937444358110
 Root    106 :    35.915535020755620
 Root    107 :    36.095369823877680
 Root    108 :    37.214247828459370
 Root    109 :    37.400387071239090
 Root    110 :    37.421876058880340
 Root    111 :    37.654527251981850
 Root    112 :    37.850844005627980
 Root    113 :    38.047153825672480
 Root    114 :    38.449259612956280
 Root    115 :    39.429596057884070
 Root    116 :    39.489436216490470
 Root    117 :    39.846233464190430
 Root    118 :    39.977526495505590
 Root    119 :    40.235277745988070
 Root    120 :    44.631986072990250
 Iteration     2 Dimension   180 NMult   120 NNew     60
 CISAX will form    60 AO SS matrices at one time.
 NMat=    60 NSing=    60 JSym2X=-1.
 Root      1 not converged, maximum delta is    0.005895722116044
 Root      2 not converged, maximum delta is    0.001866788736936
 Root      3 not converged, maximum delta is    0.012439667737683
 Root      4 not converged, maximum delta is    0.014690597463078
 Root      5 not converged, maximum delta is    0.005399726643682
 Root      6 not converged, maximum delta is    0.002281122291592
 Root      7 not converged, maximum delta is    0.005985777480819
 Root      8 not converged, maximum delta is    0.010646681892582
 Root      9 not converged, maximum delta is    0.001978094990829
 Root     10 not converged, maximum delta is    0.005796752374150
 New state     11 was old state     12
 Root     11 not converged, maximum delta is    0.004685935523063
 New state     12 was old state     11
 Root     12 not converged, maximum delta is    0.001796868881785
 Root     13 not converged, maximum delta is    0.005572391914979
 Root     14 not converged, maximum delta is    0.004034532370326
 Root     15 not converged, maximum delta is    0.003307910430283
 Root     16 not converged, maximum delta is    0.011130960381378
 Root     17 not converged, maximum delta is    0.008855596933500
 Root     18 not converged, maximum delta is    0.128465080545499
 New state     19 was old state     20
 Root     19 not converged, maximum delta is    0.159024895915681
 New state     20 was old state     19
 Root     20 not converged, maximum delta is    0.004917443317325
 Root     21 not converged, maximum delta is    0.001768412168384
 Root     22 not converged, maximum delta is    0.078422414826945
 Root     23 not converged, maximum delta is    0.001829472268944
 Root     24 not converged, maximum delta is    0.004421639355215
 Root     25 not converged, maximum delta is    0.008414256594371
 Root     26 not converged, maximum delta is    0.005875032770989
 Root     27 not converged, maximum delta is    0.007826127043882
 Root     28 not converged, maximum delta is    0.009041230366937
 Root     29 not converged, maximum delta is    0.001726731867935
 Root     30 not converged, maximum delta is    0.005475507171278
 Excitation Energies [eV] at current iteration:
 Root      1 :     3.069358304105947   Change is   -0.010653334910042
 Root      2 :     6.953572133430872   Change is   -0.001599707839337
 Root      3 :     7.420129818121394   Change is   -0.053730471947411
 Root      4 :     7.536216095186441   Change is   -0.050395952139028
 Root      5 :     7.625560116208892   Change is   -0.012529475031534
 Root      6 :     8.008626615252433   Change is   -0.001388525557783
 Root      7 :     8.539722194746702   Change is   -0.000401467572798
 Root      8 :     8.712055857870485   Change is   -0.014043105794966
 Root      9 :     9.173966322914129   Change is   -0.001220007349826
 Root     10 :     9.954455541260447   Change is   -0.008098340633129
 Root     11 :    10.214499635160210   Change is   -0.009390341629719
 Root     12 :    10.219665132801610   Change is   -0.000566889686988
 Root     13 :    10.883192485200160   Change is   -0.007223966848694
 Root     14 :    11.172815049293520   Change is   -0.005336587497321
 Root     15 :    11.545989155706690   Change is   -0.003002322932859
 Root     16 :    11.736284104072160   Change is   -0.016389129626531
 Root     17 :    12.125826791853500   Change is   -0.013241987903567
 Root     18 :    12.224200370720610   Change is   -0.011568190468761
 Root     19 :    12.277421403909280   Change is   -0.026585323014749
 Root     20 :    12.280670277299630   Change is   -0.004835826809182
 Root     21 :    12.362024526547890   Change is   -0.000913736600203
 Root     22 :    12.388191968161640   Change is   -0.015921711819685
 Root     23 :    12.789411521558770   Change is   -0.001080285643659
 Root     24 :    13.168077098810230   Change is   -0.002557698881509
 Root     25 :    13.191339580579880   Change is   -0.015946838872230
 Root     26 :    13.266273003944270   Change is   -0.009281461890833
 Root     27 :    13.734009237400970   Change is   -0.010423534404430
 Root     28 :    13.862729835736180   Change is   -0.002504630536711
 Root     29 :    13.961298092497630   Change is   -0.000563028480787
 Root     30 :    14.336041341032900   Change is   -0.007764064023158
 Iteration     3 Dimension   236 NMult   180 NNew     56
 CISAX will form    56 AO SS matrices at one time.
 NMat=    56 NSing=    56 JSym2X=-1.
 Root      1 has converged.
 Root      2 has converged.
 Root      3 has converged.
 Root      4 has converged.
 Root      5 has converged.
 Root      6 has converged.
 Root      7 has converged.
 Root      8 has converged.
 Root      9 has converged.
 Root     10 has converged.
 Root     11 has converged.
 Root     12 has converged.
 Root     13 has converged.
 Root     14 has converged.
 Root     15 has converged.
 Root     16 has converged.
 Root     17 has converged.
 Root     18 has converged.
 Root     19 has converged.
 Root     20 has converged.
 Root     21 has converged.
 Root     22 has converged.
 Root     23 has converged.
 Root     24 has converged.
 Root     25 has converged.
 Root     26 has converged.
 Root     27 has converged.
 Root     28 has converged.
 Root     29 has converged.
 Root     30 has converged.
 Excitation Energies [eV] at current iteration:
 Root      1 :     3.069357379917748   Change is   -0.000000924188199
 Root      2 :     6.953570928073947   Change is   -0.000001205356925
 Root      3 :     7.420080847303408   Change is   -0.000048970817986
 Root      4 :     7.536151394750300   Change is   -0.000064700436140
 Root      5 :     7.625550375716981   Change is   -0.000009740491912
 Root      6 :     8.008625183655447   Change is   -0.000001431596987
 Root      7 :     8.539722081241989   Change is   -0.000000113504712
 Root      8 :     8.712047516404295   Change is   -0.000008341466190
 Root      9 :     9.173965498623481   Change is   -0.000000824290647
 Root     10 :     9.954446012483508   Change is   -0.000009528776939
 Root     11 :    10.214488864041560   Change is   -0.000010771118654
 Root     12 :    10.219664886295820   Change is   -0.000000246505787
 Root     13 :    10.883175515743500   Change is   -0.000016969456658
 Root     14 :    11.172801458603810   Change is   -0.000013590689712
 Root     15 :    11.545977186515770   Change is   -0.000011969190924
 Root     16 :    11.736233246703540   Change is   -0.000050857368624
 Root     17 :    12.125784669972370   Change is   -0.000042121881131
 Root     18 :    12.224164677112790   Change is   -0.000035693607824
 Root     19 :    12.277381437406500   Change is   -0.000039966502786
 Root     20 :    12.280663123461810   Change is   -0.000007153837825
 Root     21 :    12.362023813764790   Change is   -0.000000712783102
 Root     22 :    12.388174940210860   Change is   -0.000017027950778
 Root     23 :    12.789410023598780   Change is   -0.000001497959995
 Root     24 :    13.168072522615170   Change is   -0.000004576195063
 Root     25 :    13.191284150620730   Change is   -0.000055429959146
 Root     26 :    13.266261191267310   Change is   -0.000011812676958
 Root     27 :    13.733983986391550   Change is   -0.000025251009420
 Root     28 :    13.862722731913660   Change is   -0.000007103822513
 Root     29 :    13.961297291987520   Change is   -0.000000800510115
 Root     30 :    14.336023297841520   Change is   -0.000018043191388
 Convergence achieved on expansion vectors.
 ***********************************************************************
 Excited states from <AA,BB:AA,BB> singles matrix:
 ***********************************************************************
 
 1PDM for each excited state written to RWF  633
 Ground to excited state transition densities written to RWF  633
 Ground to excited state transition electric dipole moments (Au):
       state          X           Y           Z        Dip. S.      Osc.
         1         0.0000     -0.0000     -0.0000      0.0000      0.0000
         2        -0.0000      0.2957      0.0000      0.0874      0.0149
         3         0.0884     -0.0000      0.0000      0.0078      0.0014
         4        -0.0000      0.0000      0.8461      0.7158      0.1322
         5         0.0000      0.3906     -0.0000      0.1526      0.0285
         6         0.0000      0.0000     -0.4833      0.2336      0.0458
         7         0.0000     -0.0000     -0.0000      0.0000      0.0000
         8        -0.0000      0.0000     -0.0000      0.0000      0.0000
         9        -0.3981     -0.0000     -0.0000      0.1584      0.0356
        10         0.5244      0.0000     -0.0000      0.2750      0.0671
        11        -0.0000      0.4431     -0.0000      0.1963      0.0491
        12         0.0000     -0.0000      0.0000      0.0000      0.0000
        13         0.0000     -0.0000     -0.1446      0.0209      0.0056
        14         0.0000     -0.0000      0.1373      0.0188      0.0052
        15        -0.0000     -0.1109     -0.0000      0.0123      0.0035
        16        -0.0000     -0.0000     -0.2142      0.0459      0.0132
        17        -0.0000     -0.0000      1.1130      1.2387      0.3680
        18         0.0000     -0.0056     -0.0000      0.0000      0.0000
        19         0.0000     -0.5284      0.0000      0.2792      0.0840
        20         0.2835      0.0000      0.0000      0.0803      0.0242
        21        -0.0000     -0.0000     -0.0000      0.0000      0.0000
        22         0.0000     -0.4731     -0.0000      0.2238      0.0679
        23        -0.1903     -0.0000      0.0000      0.0362      0.0113
        24         0.0000      0.0000     -0.0000      0.0000      0.0000
        25        -0.0000      0.0000     -0.4708      0.2217      0.0716
        26         0.0000      0.3501      0.0000      0.1225      0.0398
        27         0.0000     -0.0000      0.1953      0.0381      0.0128
        28         0.0545      0.0000      0.0000      0.0030      0.0010
        29         0.0000     -0.0000     -0.0000      0.0000      0.0000
        30        -0.0000      0.0000      0.3611      0.1304      0.0458
 Ground to excited state transition velocity dipole moments (Au):
       state          X           Y           Z        Dip. S.      Osc.
         1        -0.0000      0.0000      0.0000      0.0000      0.0000
         2        -0.0000     -0.0781      0.0000      0.0061      0.0159
         3        -0.0388      0.0000     -0.0000      0.0015      0.0037
         4         0.0000      0.0000     -0.2221      0.0493      0.1187
         5        -0.0000     -0.1131      0.0000      0.0128      0.0304
         6         0.0000      0.0000      0.1391      0.0193      0.0438
         7        -0.0000      0.0000      0.0000      0.0000      0.0000
         8        -0.0000     -0.0000     -0.0000      0.0000      0.0000
         9         0.1386      0.0000     -0.0000      0.0192      0.0380
        10        -0.1978     -0.0000      0.0000      0.0391      0.0713
        11         0.0000     -0.1655      0.0000      0.0274      0.0486
        12        -0.0000      0.0000     -0.0000      0.0000      0.0000
        13        -0.0000      0.0000      0.0625      0.0039      0.0065
        14         0.0000      0.0000     -0.0590      0.0035      0.0057
        15        -0.0000      0.0305      0.0000      0.0009      0.0015
        16         0.0000      0.0000      0.0817      0.0067      0.0103
        17         0.0000      0.0000     -0.5017      0.2517      0.3765
        18        -0.0000      0.0093      0.0000      0.0001      0.0001
        19        -0.0000      0.2402     -0.0000      0.0577      0.0852
        20        -0.1053     -0.0000     -0.0000      0.0111      0.0164
        21         0.0000      0.0000      0.0000      0.0000      0.0000
        22        -0.0000      0.2105      0.0000      0.0443      0.0649
        23         0.0844      0.0000     -0.0000      0.0071      0.0101
        24        -0.0000     -0.0000      0.0000      0.0000      0.0000
        25        -0.0000      0.0000      0.2182      0.0476      0.0654
        26        -0.0000     -0.1704     -0.0000      0.0290      0.0397
        27         0.0000     -0.0000     -0.0920      0.0085      0.0112
        28        -0.0181     -0.0000     -0.0000      0.0003      0.0004
        29         0.0000     -0.0000      0.0000      0.0000      0.0000
        30         0.0000      0.0000     -0.1880      0.0353      0.0447
 Ground to excited state transition magnetic dipole moments (Au):
       state          X           Y           Z
         1        -0.0000     -0.0000      1.1440
         2        -0.3792      0.0000     -0.0000
         3        -0.0000     -1.6298     -0.0000
         4         0.0000      0.0000      0.0000
         5         0.5975     -0.0000      0.0000
         6        -0.0000     -0.0000     -0.0000
         7        -0.0000     -0.0000     -0.0815
         8        -0.0000      0.0000     -0.8113
         9         0.0000      0.0279      0.0000
        10        -0.0000      0.1582     -0.0000
        11        -0.7212      0.0000      0.0000
        12         0.0000      0.0000      0.0338
        13        -0.0000     -0.0000      0.0000
        14         0.0000      0.0000     -0.0000
        15         0.4713      0.0000     -0.0000
        16        -0.0000      0.0000      0.0000
        17         0.0000      0.0000     -0.0000
        18         0.3524     -0.0000      0.0000
        19         0.1104     -0.0000     -0.0000
        20        -0.0000     -0.0502     -0.0000
        21         0.0000      0.0000     -0.0276
        22         0.1787     -0.0000      0.0000
        23         0.0000      0.2465     -0.0000
        24        -0.0000      0.0000     -0.0245
        25        -0.0000     -0.0000      0.0000
        26        -0.6448      0.0000      0.0000
        27        -0.0000      0.0000     -0.0000
        28         0.0000      0.0304     -0.0000
        29         0.0000      0.0000      0.0276
        30        -0.0000      0.0000      0.0000
 Ground to excited state transition velocity quadrupole moments (Au):
       state          XX          YY          ZZ          XY          XZ          YZ
         1        -0.0000     -0.0000     -0.0000     -0.0650     -0.0000      0.0000
         2         0.0000      0.0000     -0.0000      0.0000      0.0000      0.4217
         3        -0.0000     -0.0000     -0.0000      0.0000     -0.2664      0.0000
         4         0.1732     -0.0203     -0.1457     -0.0000      0.0000     -0.0000
         5        -0.0000     -0.0000      0.0000     -0.0000     -0.0000     -0.0960
         6        -0.0232     -0.1857     -0.2480      0.0000     -0.0000      0.0000
         7         0.0000     -0.0000     -0.0000     -0.0105     -0.0000     -0.0000
         8        -0.0000     -0.0000     -0.0000      0.2007      0.0000     -0.0000
         9         0.0000      0.0000      0.0000     -0.0000     -0.1685      0.0000
        10         0.0000     -0.0000     -0.0000      0.0000     -0.2745      0.0000
        11         0.0000     -0.0000     -0.0000      0.0000      0.0000      0.3907
        12        -0.0000      0.0000     -0.0000      0.2841      0.0000     -0.0000
        13         0.7634     -0.0143     -0.0519     -0.0000     -0.0000      0.0000
        14         0.0918     -0.0906      0.2213     -0.0000      0.0000      0.0000
        15        -0.0000      0.0000     -0.0000      0.0000      0.0000      0.2984
        16        -0.2775     -0.5759     -0.5710     -0.0000      0.0000     -0.0000
        17        -0.0250      0.3430      0.3787      0.0000      0.0000     -0.0000
        18         0.0000      0.0000     -0.0000     -0.0000      0.0000     -0.1621
        19        -0.0000     -0.0000      0.0000     -0.0000      0.0000     -0.5715
        20        -0.0000     -0.0000      0.0000      0.0000      0.0878      0.0000
        21         0.0000      0.0000      0.0000      0.3564     -0.0000     -0.0000
        22         0.0000     -0.0000     -0.0000      0.0000     -0.0000     -0.5436
        23         0.0000      0.0000      0.0000      0.0000     -0.0497     -0.0000
        24         0.0000      0.0000      0.0000     -0.2559     -0.0000      0.0000
        25         0.1140      0.4858      0.2258      0.0000     -0.0000      0.0000
        26        -0.0000     -0.0000     -0.0000      0.0000     -0.0000     -0.2428
        27         0.3036      1.1497      0.3029      0.0000      0.0000      0.0000
        28         0.0000      0.0000      0.0000     -0.0000      0.1109     -0.0000
        29        -0.0000     -0.0000      0.0000      0.3343      0.0000      0.0000
        30        -0.2066      0.4123     -0.1747     -0.0000      0.0000      0.0000
 <0|del|b> * <b|rxdel|0> + <0|del|b> * <b|delr+rdel|0>
 Rotatory Strengths (R) in cgs (10**-40 erg-esu-cm/Gauss)
       state          XX          YY          ZZ    R(velocity)    E-M Angle
         1         0.0000      0.0000      0.0000      0.0000       90.00
         2        -0.0000     -0.0000     -0.0000     -0.0000       90.00
         3        -0.0000      0.0000     -0.0000     -0.0000       90.00
         4         0.0000     -0.0000      0.0000     -0.0000       90.00
         5         0.0000     -0.0000      0.0000      0.0000       90.00
         6         0.0000     -0.0000     -0.0000     -0.0000       90.00
         7        -0.0000     -0.0000     -0.0000     -0.0000       90.00
         8         0.0000      0.0000     -0.0000      0.0000       90.00
         9         0.0000      0.0000     -0.0000      0.0000       90.00
        10        -0.0000     -0.0000      0.0000     -0.0000       90.00
        11        -0.0000     -0.0000     -0.0000     -0.0000       90.00
        12        -0.0000      0.0000     -0.0000     -0.0000       90.00
        13        -0.0000      0.0000      0.0000      0.0000       90.00
        14         0.0000     -0.0000      0.0000      0.0000       90.00
        15        -0.0000     -0.0000      0.0000     -0.0000       90.00
        16        -0.0000      0.0000      0.0000      0.0000       90.00
        17        -0.0000      0.0000      0.0000      0.0000       90.00
        18        -0.0000     -0.0000     -0.0000     -0.0000       90.00
        19        -0.0000      0.0000     -0.0000     -0.0000       90.00
        20         0.0000     -0.0000      0.0000      0.0000       90.00
        21         0.0000     -0.0000      0.0000     -0.0000       90.00
        22        -0.0000      0.0000     -0.0000     -0.0000       90.00
        23         0.0000      0.0000      0.0000      0.0000       90.00
        24        -0.0000      0.0000      0.0000     -0.0000       90.00
        25         0.0000     -0.0000      0.0000      0.0000       90.00
        26        -0.0000      0.0000      0.0000      0.0000       90.00
        27        -0.0000      0.0000     -0.0000      0.0000       90.00
        28         0.0000     -0.0000     -0.0000     -0.0000       90.00
        29         0.0000     -0.0000     -0.0000      0.0000       90.00
        30         0.0000     -0.0000     -0.0000     -0.0000       90.00
 1/2[<0|r|b>*<b|rxdel|0> + (<0|rxdel|b>*<b|r|0>)*]
 Rotatory Strengths (R) in cgs (10**-40 erg-esu-cm/Gauss)
       state          XX          YY          ZZ     R(length)
         1         0.0000     -0.0000      0.0000      0.0000
         2        -0.0000     -0.0000      0.0000     -0.0000
         3         0.0000     -0.0000      0.0000     -0.0000
         4         0.0000     -0.0000     -0.0000     -0.0000
         5        -0.0000      0.0000      0.0000      0.0000
         6         0.0000      0.0000     -0.0000     -0.0000
         7         0.0000     -0.0000     -0.0000     -0.0000
         8        -0.0000     -0.0000     -0.0000     -0.0000
         9         0.0000      0.0000      0.0000      0.0000
        10         0.0000     -0.0000     -0.0000     -0.0000
        11        -0.0000     -0.0000      0.0000     -0.0000
        12        -0.0000      0.0000     -0.0000     -0.0000
        13         0.0000     -0.0000      0.0000      0.0000
        14        -0.0000      0.0000      0.0000      0.0000
        15         0.0000      0.0000     -0.0000      0.0000
        16        -0.0000      0.0000      0.0000      0.0000
        17         0.0000      0.0000      0.0000      0.0000
        18        -0.0000     -0.0000      0.0000     -0.0000
        19        -0.0000     -0.0000      0.0000     -0.0000
        20         0.0000      0.0000      0.0000      0.0000
        21         0.0000      0.0000     -0.0000     -0.0000
        22        -0.0000     -0.0000      0.0000     -0.0000
        23         0.0000      0.0000      0.0000      0.0000
        24         0.0000     -0.0000     -0.0000     -0.0000
        25        -0.0000      0.0000      0.0000      0.0000
        26         0.0000     -0.0000     -0.0000      0.0000
        27         0.0000      0.0000      0.0000      0.0000
        28        -0.0000     -0.0000      0.0000     -0.0000
        29        -0.0000      0.0000      0.0000      0.0000
        30        -0.0000     -0.0000     -0.0000     -0.0000
  1/2[<0|del|b>*<b|r|0> + (<0|r|b>*<b|del|0>)*] (Au)
       state          X           Y           Z        Dip. S.   Osc.(frdel)
         1        -0.0000     -0.0000     -0.0000      0.0000      0.0000
         2         0.0000     -0.0231      0.0000      0.0231      0.0154
         3        -0.0034     -0.0000     -0.0000      0.0034      0.0023
         4        -0.0000      0.0000     -0.1879      0.1879      0.1253
         5        -0.0000     -0.0442     -0.0000      0.0442      0.0295
         6         0.0000      0.0000     -0.0672      0.0672      0.0448
         7        -0.0000     -0.0000     -0.0000      0.0000      0.0000
         8         0.0000     -0.0000      0.0000      0.0000      0.0000
         9        -0.0552     -0.0000      0.0000      0.0552      0.0368
        10        -0.1037     -0.0000     -0.0000      0.1037      0.0692
        11        -0.0000     -0.0733     -0.0000      0.0733      0.0489
        12        -0.0000     -0.0000     -0.0000      0.0000      0.0000
        13        -0.0000     -0.0000     -0.0090      0.0090      0.0060
        14         0.0000     -0.0000     -0.0081      0.0081      0.0054
        15         0.0000     -0.0034     -0.0000      0.0034      0.0023
        16        -0.0000     -0.0000     -0.0175      0.0175      0.0117
        17        -0.0000     -0.0000     -0.5583      0.5583      0.3722
        18        -0.0000     -0.0001     -0.0000      0.0001      0.0000
        19        -0.0000     -0.1269     -0.0000      0.1269      0.0846
        20        -0.0298     -0.0000     -0.0000      0.0298      0.0199
        21        -0.0000     -0.0000     -0.0000      0.0000      0.0000
        22        -0.0000     -0.0996     -0.0000      0.0996      0.0664
        23        -0.0161     -0.0000     -0.0000      0.0161      0.0107
        24        -0.0000     -0.0000     -0.0000      0.0000      0.0000
        25         0.0000      0.0000     -0.1027      0.1027      0.0685
        26        -0.0000     -0.0596     -0.0000      0.0596      0.0398
        27         0.0000      0.0000     -0.0180      0.0180      0.0120
        28        -0.0010     -0.0000     -0.0000      0.0010      0.0007
        29         0.0000      0.0000     -0.0000     -0.0000     -0.0000
        30        -0.0000      0.0000     -0.0679      0.0679      0.0453

 Excitation energies and oscillator strengths:
 
 Excited State   1:      Singlet-A2     3.0694 eV  403.94 nm  f=0.0000  <S**2>=0.000
       3 -> 27         0.00194
       3 -> 38         0.00159
       3 -> 46         0.00291
       4 -> 27         0.00132
       4 -> 38        -0.00036
       4 -> 46        -0.00141
       5 ->  9         0.01671
       5 -> 13        -0.00064
       5 -> 17         0.00462
       5 -> 23         0.00103
       5 -> 29         0.00404
       5 -> 31        -0.00110
       5 -> 37         0.00256
       5 -> 44         0.00050
       5 -> 48         0.00012
       5 -> 52         0.00060
       6 -> 27        -0.00044
       6 -> 38        -0.00089
       6 -> 46         0.00170
       7 -> 12        -0.00066
       7 -> 15         0.00371
       7 -> 19        -0.00333
       7 -> 25         0.00133
       7 -> 30        -0.00113
       7 -> 33         0.00045
       7 -> 35         0.00011
       7 -> 40         0.00011
       7 -> 42        -0.00012
       7 -> 49         0.00019
       7 -> 50         0.00029
       7 -> 53         0.00048
       8 ->  9         0.70677
       8 -> 13        -0.02675
       8 -> 17         0.02234
       8 -> 23        -0.00754
       8 -> 29         0.01051
       8 -> 31        -0.00088
       8 -> 37         0.00047
       8 -> 48        -0.00028
       8 -> 52         0.00186
       3 <- 27         0.00115
       3 <- 38         0.00127
       3 <- 46         0.00299
       4 <- 27         0.00205
       4 <- 38         0.00017
       4 <- 46        -0.00116
       5 <-  9        -0.00058
       5 <- 13        -0.00072
       5 <- 17        -0.00098
       5 <- 23         0.00045
       5 <- 29        -0.00069
       5 <- 31         0.00062
       5 <- 37         0.00131
       5 <- 44         0.00018
       5 <- 48         0.00012
       5 <- 52         0.00016
       6 <- 27         0.00018
       6 <- 38        -0.00076
       6 <- 46         0.00133
       7 <- 12        -0.00039
       7 <- 15        -0.00859
       7 <- 19         0.00161
       7 <- 22         0.00747
       7 <- 25         0.00022
       7 <- 30         0.00433
       7 <- 33        -0.00105
       7 <- 35         0.00187
       7 <- 40         0.00083
       7 <- 49        -0.00011
       7 <- 50         0.00019
       7 <- 53         0.00139
       8 <-  9        -0.03266
       8 <- 13         0.00182
       8 <- 17        -0.00516
       8 <- 23         0.00067
       8 <- 29        -0.00157
       8 <- 31        -0.00054
       8 <- 37        -0.00097
       8 <- 52         0.00052
 This state for optimization and/or second-order correction.
 Total Energy, E(TD-HF/TD-DFT) =  -114.400732885    
 Copying the excited state density for this state as the 1-particle RhoCI density.
 
 Excited State   2:      Singlet-B2     6.9536 eV  178.30 nm  f=0.0149  <S**2>=0.000
       3 -> 12         0.00176
       3 -> 15         0.00052
       3 -> 19         0.00144
       3 -> 22        -0.00034
       3 -> 25         0.00111
       3 -> 33         0.00029
       3 -> 35        -0.00063
       3 -> 40        -0.00032
       3 -> 49         0.00028
       3 -> 53        -0.00011
       4 -> 12        -0.00208
       4 -> 15         0.00216
       4 -> 19         0.00166
       4 -> 22        -0.00316
       4 -> 25         0.00293
       4 -> 30         0.00029
       4 -> 33        -0.00017
       4 -> 35         0.00030
       4 -> 40         0.00042
       4 -> 42        -0.00013
       5 -> 10        -0.00862
       5 -> 11        -0.00519
       5 -> 14         0.00754
       5 -> 16        -0.00050
       5 -> 18         0.00447
       5 -> 20         0.00204
       5 -> 21        -0.00553
       5 -> 24        -0.00098
       5 -> 26         0.00188
       5 -> 28         0.00096
       5 -> 32        -0.00105
       5 -> 34        -0.00098
       5 -> 36        -0.00021
       5 -> 39        -0.00015
       5 -> 41        -0.00056
       5 -> 43        -0.00041
       5 -> 54         0.00013
       6 -> 12        -0.00144
       6 -> 15         0.00124
       6 -> 19         0.00061
       6 -> 22        -0.00196
       6 -> 25         0.00082
       6 -> 30        -0.00045
       6 -> 33        -0.00033
       6 -> 35         0.00081
       6 -> 40         0.00016
       6 -> 42        -0.00013
       6 -> 49         0.00032
       6 -> 50        -0.00016
       7 -> 38        -0.00075
       8 -> 10         0.70331
       8 -> 11        -0.06435
       8 -> 14         0.02499
       8 -> 16        -0.00178
       8 -> 18         0.00892
       8 -> 20         0.01710
       8 -> 21         0.00192
       8 -> 24         0.00020
       8 -> 26         0.00333
       8 -> 28         0.00153
       8 -> 32         0.00087
       8 -> 34         0.00043
       8 -> 36         0.00019
       8 -> 39         0.00029
       8 -> 41        -0.00030
       8 -> 43         0.00059
       8 -> 47         0.00020
       8 -> 51        -0.00028
       8 -> 54         0.00026
       3 <- 12         0.00039
       3 <- 15         0.00046
       3 <- 19         0.00055
       3 <- 22        -0.00057
       3 <- 25         0.00058
       3 <- 33         0.00024
       3 <- 35        -0.00055
       3 <- 40        -0.00032
       3 <- 49         0.00033
       3 <- 53        -0.00011
       4 <- 12         0.00077
       4 <- 15         0.00200
       4 <- 19         0.00158
       4 <- 22        -0.00204
       4 <- 25         0.00195
       4 <- 30         0.00019
       4 <- 42        -0.00022
       4 <- 50        -0.00014
       5 <- 10         0.00216
       5 <- 11        -0.00024
       5 <- 14         0.00444
       5 <- 16        -0.00042
       5 <- 18         0.00038
       5 <- 20         0.00052
       5 <- 21        -0.00144
       5 <- 24        -0.00227
       5 <- 26         0.00131
       5 <- 28         0.00013
       5 <- 32        -0.00083
       5 <- 34        -0.00081
       5 <- 36        -0.00021
       5 <- 39        -0.00010
       5 <- 41        -0.00039
       5 <- 43        -0.00034
       6 <- 12        -0.00013
       6 <- 15        -0.00053
       6 <- 19         0.00086
       6 <- 22        -0.00015
       6 <- 25         0.00027
       6 <- 30         0.00055
       6 <- 33        -0.00038
       6 <- 35         0.00081
       6 <- 40         0.00014
       6 <- 42        -0.00011
       6 <- 49         0.00024
       6 <- 50        -0.00019
       6 <- 53         0.00020
       7 <- 38        -0.00056
       8 <- 10        -0.00136
       8 <- 11        -0.00096
       8 <- 14        -0.00381
       8 <- 16        -0.00068
       8 <- 18        -0.00106
       8 <- 20        -0.00067
       8 <- 21         0.00133
       8 <- 24         0.00136
       8 <- 26        -0.00096
       8 <- 28        -0.00028
       8 <- 32         0.00069
       8 <- 34        -0.00012
       8 <- 36         0.00032
       8 <- 43         0.00032
 
 Excited State   3:      Singlet-B1     7.4201 eV  167.09 nm  f=0.0014  <S**2>=0.000
       3 ->  9        -0.03335
       3 -> 13         0.00377
       3 -> 17        -0.00641
       3 -> 23         0.00325
       3 -> 29        -0.00202
       3 -> 31        -0.00045
       3 -> 44         0.00052
       3 -> 48         0.00042
       3 -> 52         0.00111
       4 ->  9         0.01627
       4 -> 13        -0.00272
       4 -> 17         0.00079
       4 -> 23        -0.00249
       4 -> 29         0.00015
       4 -> 31        -0.00215
       4 -> 37        -0.00045
       4 -> 48        -0.00152
       4 -> 52        -0.00089
       5 -> 27        -0.00136
       5 -> 38         0.00201
       5 -> 46         0.00219
       6 ->  9         0.70560
       6 -> 13        -0.02879
       6 -> 17         0.02088
       6 -> 23        -0.01213
       6 -> 29         0.00667
       6 -> 31         0.00396
       6 -> 37        -0.00259
       6 -> 44        -0.00348
       6 -> 48         0.00520
       6 -> 52         0.00185
       7 -> 10         0.00028
       7 -> 11         0.00160
       7 -> 14        -0.00138
       7 -> 16        -0.01165
       7 -> 18         0.00100
       7 -> 20         0.00188
       7 -> 21        -0.00244
       7 -> 24         0.00147
       7 -> 26         0.00066
       7 -> 28        -0.00470
       7 -> 32        -0.00123
       7 -> 34         0.00024
       7 -> 36        -0.00159
       7 -> 39         0.00018
       7 -> 41        -0.00163
       7 -> 43         0.00090
       7 -> 45         0.00455
       7 -> 47         0.00261
       7 -> 51         0.00112
       7 -> 54         0.00057
       8 -> 27         0.00206
       8 -> 38         0.00069
       8 -> 46         0.00659
       3 <-  9        -0.01060
       3 <- 13         0.00031
       3 <- 17        -0.00332
       3 <- 23         0.00014
       3 <- 29        -0.00128
       3 <- 31        -0.00037
       3 <- 37        -0.00011
       3 <- 44        -0.00018
       3 <- 48         0.00069
       3 <- 52         0.00089
       4 <-  9         0.00592
       4 <- 17         0.00244
       4 <- 23        -0.00030
       4 <- 29         0.00222
       4 <- 31        -0.00189
       4 <- 44         0.00020
       4 <- 48        -0.00131
       4 <- 52        -0.00049
       5 <- 27        -0.00154
       5 <- 38         0.00154
       5 <- 46         0.00194
       6 <-  9        -0.02191
       6 <- 13         0.00250
       6 <- 17        -0.00301
       6 <- 23         0.00022
       6 <- 29        -0.00252
       6 <- 31         0.00264
       6 <- 37        -0.00252
       6 <- 44        -0.00213
       6 <- 48         0.00458
       6 <- 52         0.00068
       7 <- 10         0.00240
       7 <- 11         0.00412
       7 <- 14         0.00168
       7 <- 16         0.00121
       7 <- 18         0.01272
       7 <- 20         0.00749
       7 <- 21        -0.00665
       7 <- 24         0.00597
       7 <- 26         0.00328
       7 <- 28         0.00054
       7 <- 32        -0.00109
       7 <- 34         0.00147
       7 <- 36        -0.00255
       7 <- 39         0.00042
       7 <- 41        -0.00111
       7 <- 43         0.00085
       7 <- 45         0.00413
       7 <- 47         0.00217
       7 <- 51         0.00081
       7 <- 54         0.00106
       8 <- 27         0.00206
       8 <- 38         0.00077
       8 <- 46         0.00588
 
 Excited State   4:      Singlet-A1     7.5362 eV  164.52 nm  f=0.1322  <S**2>=0.000
       3 -> 10         0.00564
       3 -> 11         0.01453
       3 -> 14         0.00757
       3 -> 16        -0.00124
       3 -> 18         0.02429
       3 -> 20         0.00179
       3 -> 21        -0.00624
       3 -> 24         0.00663
       3 -> 26         0.00882
       3 -> 28         0.00125
       3 -> 32         0.00312
       3 -> 34        -0.00392
       3 -> 36        -0.00191
       3 -> 39         0.00146
       3 -> 41         0.00020
       3 -> 43         0.00068
       3 -> 45         0.00182
       3 -> 47         0.00082
       3 -> 51         0.00016
       3 -> 54         0.00029
       4 -> 10         0.02738
       4 -> 11        -0.01120
       4 -> 14         0.01632
       4 -> 16         0.00183
       4 -> 18        -0.00765
       4 -> 20         0.00997
       4 -> 21        -0.00022
       4 -> 24        -0.00819
       4 -> 26         0.00630
       4 -> 28         0.00090
       4 -> 32        -0.00129
       4 -> 34         0.00317
       4 -> 36         0.00074
       4 -> 39        -0.00021
       4 -> 45        -0.00074
       4 -> 47        -0.00156
       5 -> 12         0.03268
       5 -> 15         0.03263
       5 -> 19         0.00277
       5 -> 22         0.00157
       5 -> 25         0.01403
       5 -> 30        -0.00324
       5 -> 33        -0.00320
       5 -> 35         0.00161
       5 -> 40         0.00165
       5 -> 42         0.00074
       5 -> 49         0.00061
       5 -> 50        -0.00044
       5 -> 53        -0.00036
       6 -> 10        -0.03417
       6 -> 11        -0.05640
       6 -> 14        -0.02166
       6 -> 16        -0.03290
       6 -> 18        -0.09618
       6 -> 20        -0.04082
       6 -> 21         0.03064
       6 -> 24        -0.02679
       6 -> 26        -0.01402
       6 -> 28        -0.01150
       6 -> 32        -0.00019
       6 -> 34        -0.00326
       6 -> 36         0.00242
       6 -> 41        -0.00104
       6 -> 43         0.00038
       6 -> 45         0.00071
       6 -> 47         0.00177
       6 -> 51         0.00073
       6 -> 54        -0.00024
       7 ->  9         0.68179
       7 -> 13         0.02640
       7 -> 17        -0.02800
       7 -> 23         0.00752
       7 -> 29        -0.00537
       7 -> 31        -0.00144
       7 -> 44        -0.00081
       7 -> 48         0.00059
       7 -> 52         0.00099
       8 -> 12         0.02716
       8 -> 15         0.14231
       8 -> 19        -0.02589
       8 -> 22        -0.04927
       8 -> 25         0.00399
       8 -> 30        -0.01535
       8 -> 33         0.00597
       8 -> 35        -0.00736
       8 -> 40        -0.00286
       8 -> 42        -0.00038
       8 -> 49         0.00062
       8 -> 50         0.00041
       8 -> 53        -0.00104
       3 <- 10         0.00288
       3 <- 11         0.00845
       3 <- 14         0.00517
       3 <- 16        -0.00011
       3 <- 18         0.01539
       3 <- 20         0.00142
       3 <- 21        -0.00511
       3 <- 24         0.00454
       3 <- 26         0.00571
       3 <- 28         0.00095
       3 <- 32         0.00277
       3 <- 34        -0.00250
       3 <- 36        -0.00131
       3 <- 39         0.00110
       3 <- 41         0.00015
       3 <- 43         0.00066
       3 <- 45         0.00188
       3 <- 47         0.00108
       3 <- 51         0.00015
       3 <- 54         0.00032
       4 <- 10         0.01047
       4 <- 11        -0.00491
       4 <- 14         0.00677
       4 <- 16         0.00048
       4 <- 18        -0.00429
       4 <- 20         0.00581
       4 <- 24        -0.00473
       4 <- 26         0.00431
       4 <- 32        -0.00169
       4 <- 34         0.00245
       4 <- 36         0.00042
       4 <- 39        -0.00021
       4 <- 41        -0.00013
       4 <- 45        -0.00022
       4 <- 47        -0.00143
       4 <- 51         0.00011
       5 <- 12         0.00923
       5 <- 15         0.01191
       5 <- 19         0.00150
       5 <- 22         0.00076
       5 <- 25         0.00775
       5 <- 30        -0.00185
       5 <- 33        -0.00226
       5 <- 35         0.00131
       5 <- 40         0.00137
       5 <- 42         0.00057
       5 <- 49         0.00051
       5 <- 50        -0.00039
       5 <- 53        -0.00031
       6 <- 10        -0.00655
       6 <- 11        -0.01162
       6 <- 14        -0.00606
       6 <- 16        -0.01115
       6 <- 18        -0.03448
       6 <- 20        -0.01736
       6 <- 21         0.01444
       6 <- 24        -0.01410
       6 <- 26        -0.00806
       6 <- 28        -0.00703
       6 <- 32         0.00018
       6 <- 34        -0.00280
       6 <- 36         0.00163
       6 <- 39         0.00026
       6 <- 41        -0.00068
       6 <- 43         0.00032
       6 <- 45         0.00025
       6 <- 47         0.00144
       6 <- 51         0.00053
       6 <- 54        -0.00016
       7 <-  9        -0.09701
       7 <- 13         0.01281
       7 <- 17        -0.01465
       7 <- 23         0.00767
       7 <- 29        -0.00605
       7 <- 37        -0.00026
       7 <- 44        -0.00028
       7 <- 52         0.00081
       8 <- 12         0.00061
       8 <- 15         0.02655
       8 <- 19        -0.00678
       8 <- 22        -0.01962
       8 <- 25         0.00113
       8 <- 30        -0.00939
       8 <- 33         0.00393
       8 <- 35        -0.00502
       8 <- 40        -0.00218
       8 <- 42        -0.00029
       8 <- 49         0.00041
       8 <- 50         0.00031
       8 <- 53        -0.00091
 
 Excited State   5:      Singlet-B2     7.6256 eV  162.59 nm  f=0.0285  <S**2>=0.000
       3 -> 12        -0.00037
       3 -> 15        -0.00132
       3 -> 19         0.00154
       3 -> 22         0.00056
       3 -> 25        -0.00016
       3 -> 30         0.00300
       3 -> 33         0.00018
       3 -> 35        -0.00089
       3 -> 40        -0.00072
       3 -> 49         0.00085
       3 -> 50        -0.00016
       4 -> 12         0.00210
       4 -> 15         0.00077
       4 -> 19         0.00117
       4 -> 22        -0.00149
       4 -> 25         0.00246
       4 -> 30        -0.00161
       4 -> 33         0.00048
       4 -> 35        -0.00063
       4 -> 49         0.00018
       5 -> 10        -0.00274
       5 -> 11         0.00022
       5 -> 14         0.01096
       5 -> 16        -0.00601
       5 -> 18        -0.00073
       5 -> 20        -0.00419
       5 -> 21        -0.00357
       5 -> 24        -0.00063
       5 -> 26         0.00194
       5 -> 28         0.00150
       5 -> 32         0.00026
       5 -> 34        -0.00062
       5 -> 36        -0.00059
       5 -> 39         0.00059
       5 -> 41        -0.00059
       5 -> 43         0.00025
       5 -> 45         0.00093
       5 -> 47         0.00020
       5 -> 51        -0.00047
       6 -> 12        -0.00245
       6 -> 15        -0.00092
       6 -> 19        -0.00077
       6 -> 22         0.00091
       6 -> 25         0.00017
       6 -> 30         0.00129
       6 -> 33        -0.00053
       6 -> 35         0.00150
       6 -> 40         0.00128
       6 -> 42         0.00011
       6 -> 49        -0.00149
       6 -> 50         0.00020
       6 -> 53         0.00014
       7 -> 27         0.00048
       7 -> 38        -0.00072
       7 -> 46        -0.00241
       8 -> 10         0.06357
       8 -> 11         0.70252
       8 -> 14         0.00663
       8 -> 16         0.00933
       8 -> 18         0.04556
       8 -> 20        -0.00817
       8 -> 21         0.00149
       8 -> 24         0.00180
       8 -> 26         0.00020
       8 -> 28         0.00343
       8 -> 32         0.00014
       8 -> 34        -0.00026
       8 -> 36        -0.00050
       8 -> 39        -0.00026
       8 -> 41        -0.00092
       8 -> 43         0.00041
       8 -> 45         0.00297
       8 -> 47         0.00020
       8 -> 51        -0.00135
       8 -> 54         0.00013
       3 <- 12         0.00033
       3 <- 15        -0.00044
       3 <- 19         0.00118
       3 <- 30         0.00154
       3 <- 33         0.00029
       3 <- 35        -0.00084
       3 <- 40        -0.00066
       3 <- 49         0.00080
       3 <- 50        -0.00011
       3 <- 53        -0.00042
       4 <- 12         0.00021
       4 <- 15         0.00096
       4 <- 19         0.00017
       4 <- 22        -0.00122
       4 <- 25         0.00109
       4 <- 30        -0.00093
       4 <- 33         0.00047
       4 <- 35        -0.00040
       4 <- 49         0.00013
       5 <- 10         0.00101
       5 <- 11        -0.00155
       5 <- 14         0.00271
       5 <- 16        -0.00045
       5 <- 18        -0.00193
       5 <- 20        -0.00021
       5 <- 21        -0.00102
       5 <- 24        -0.00143
       5 <- 26         0.00021
       5 <- 28         0.00059
       5 <- 32        -0.00062
       5 <- 34         0.00021
       5 <- 39         0.00015
       5 <- 41        -0.00064
       5 <- 43         0.00014
       5 <- 45         0.00093
       5 <- 51        -0.00031
       6 <- 12        -0.00021
       6 <- 15        -0.00160
       6 <- 19         0.00065
       6 <- 22         0.00128
       6 <- 25        -0.00016
       6 <- 30         0.00167
       6 <- 33        -0.00053
       6 <- 35         0.00141
       6 <- 40         0.00108
       6 <- 42         0.00011
       6 <- 49        -0.00124
       6 <- 50         0.00014
       6 <- 53         0.00018
       7 <- 27         0.00052
       7 <- 38        -0.00057
       7 <- 46        -0.00200
       8 <- 10        -0.00125
       8 <- 11        -0.00331
       8 <- 14        -0.00389
       8 <- 16         0.00025
       8 <- 18        -0.00649
       8 <- 20         0.00169
       8 <- 21         0.00185
       8 <- 24        -0.00065
       8 <- 26        -0.00166
       8 <- 28         0.00088
       8 <- 32        -0.00155
       8 <- 34         0.00187
       8 <- 39        -0.00093
       8 <- 41        -0.00095
       8 <- 43         0.00016
       8 <- 45         0.00243
       8 <- 47        -0.00018
       8 <- 51        -0.00087
 
 Excited State   6:      Singlet-A1     8.0086 eV  154.81 nm  f=0.0458  <S**2>=0.000
       3 -> 10         0.00195
       3 -> 11        -0.00119
       3 -> 14         0.00107
       3 -> 16         0.00019
       3 -> 18         0.00118
       3 -> 20         0.00113
       3 -> 21        -0.00022
       3 -> 26         0.00027
       3 -> 28         0.00051
       3 -> 32        -0.00010
       3 -> 34        -0.00062
       3 -> 36         0.00018
       3 -> 41        -0.00020
       3 -> 47        -0.00032
       3 -> 54        -0.00016
       4 -> 10         0.00153
       4 -> 11         0.00396
       4 -> 14         0.00202
       4 -> 16         0.00070
       4 -> 20         0.00124
       4 -> 21         0.00129
       4 -> 24        -0.00517
       4 -> 26         0.00180
       4 -> 28        -0.00022
       4 -> 32        -0.00043
       4 -> 43         0.00016
       4 -> 51        -0.00010
       5 -> 12         0.00048
       5 -> 19         0.00695
       5 -> 22        -0.00280
       5 -> 25         0.00376
       5 -> 35         0.00057
       5 -> 42        -0.00013
       5 -> 50         0.00012
       6 -> 10         0.01121
       6 -> 11         0.00236
       6 -> 14         0.00477
       6 -> 16         0.00125
       6 -> 18         0.00473
       6 -> 20         0.00424
       6 -> 21        -0.00033
       6 -> 24        -0.00232
       6 -> 26         0.00079
       6 -> 28        -0.00143
       6 -> 34         0.00011
       6 -> 36        -0.00030
       6 -> 39         0.00032
       6 -> 41         0.00013
       6 -> 43         0.00016
       6 -> 45        -0.00019
       6 -> 47         0.00052
       6 -> 51         0.00012
       6 -> 54        -0.00011
       7 ->  9        -0.02522
       7 -> 13         0.01013
       7 -> 17         0.00105
       7 -> 23         0.00383
       7 -> 29        -0.00064
       7 -> 31        -0.00101
       7 -> 37         0.00058
       7 -> 44         0.00062
       7 -> 48        -0.00035
       7 -> 52        -0.00019
       8 -> 12         0.70569
       8 -> 15        -0.00527
       8 -> 19         0.03025
       8 -> 22         0.00565
       8 -> 25         0.00536
       8 -> 30        -0.00029
       8 -> 33         0.00109
       8 -> 35        -0.00118
       8 -> 40         0.00044
       8 -> 49        -0.00053
       8 -> 50         0.00015
       8 -> 53        -0.00015
       3 <- 10         0.00048
       3 <- 14         0.00038
       3 <- 16         0.00024
       3 <- 18         0.00042
       3 <- 20         0.00025
       3 <- 24        -0.00030
       3 <- 26         0.00028
       3 <- 28         0.00032
       3 <- 34        -0.00045
       3 <- 36         0.00015
       3 <- 45         0.00011
       3 <- 47        -0.00028
       3 <- 54        -0.00015
       4 <- 10         0.00245
       4 <- 11         0.00076
       4 <- 14         0.00213
       4 <- 16         0.00015
       4 <- 18         0.00019
       4 <- 20         0.00071
       4 <- 21         0.00082
       4 <- 24        -0.00277
       4 <- 26         0.00101
       4 <- 32        -0.00060
       4 <- 34        -0.00022
       4 <- 41        -0.00015
       4 <- 43         0.00014
       4 <- 51        -0.00010
       5 <- 12         0.00161
       5 <- 15         0.00180
       5 <- 19         0.00257
       5 <- 22        -0.00113
       5 <- 25         0.00209
       5 <- 33        -0.00014
       5 <- 35         0.00049
       5 <- 40        -0.00011
       6 <- 10         0.00240
       6 <- 11         0.00080
       6 <- 14         0.00161
       6 <- 16         0.00033
       6 <- 18         0.00177
       6 <- 20         0.00171
       6 <- 24        -0.00098
       6 <- 26         0.00058
       6 <- 28        -0.00100
       6 <- 32        -0.00023
       6 <- 36        -0.00022
       6 <- 39         0.00017
       6 <- 41         0.00014
       6 <- 45        -0.00026
       6 <- 47         0.00042
       6 <- 51         0.00016
       6 <- 54        -0.00011
       7 <-  9         0.00454
       7 <- 13         0.00105
       7 <- 17         0.00035
       7 <- 23         0.00156
       7 <- 29        -0.00031
       7 <- 31        -0.00074
       7 <- 37         0.00046
       7 <- 44         0.00049
       7 <- 48        -0.00026
       7 <- 52        -0.00016
       8 <- 15        -0.00446
       8 <- 19        -0.00095
       8 <- 22         0.00151
       8 <- 25        -0.00095
       8 <- 30        -0.00071
       8 <- 33         0.00015
       8 <- 40         0.00053
       8 <- 49        -0.00048
       8 <- 53        -0.00016
 
 Excited State   7:      Singlet-A2     8.5397 eV  145.19 nm  f=0.0000  <S**2>=0.000
       3 -> 27        -0.00040
       3 -> 38        -0.00030
       4 -> 27        -0.00032
       4 -> 38         0.00040
       5 ->  9         0.05001
       5 -> 13        -0.00893
       5 -> 17         0.00687
       5 -> 23        -0.00335
       5 -> 29        -0.00017
       5 -> 31         0.00091
       5 -> 37        -0.00110
       5 -> 44        -0.00030
       6 -> 27         0.00012
       6 -> 38         0.00043
       7 -> 12         0.00260
       7 -> 15        -0.00112
       7 -> 19         0.00203
       7 -> 22        -0.00121
       7 -> 25         0.00019
       7 -> 30        -0.00022
       7 -> 35        -0.00015
       8 ->  9         0.02473
       8 -> 13         0.70413
       8 -> 17         0.02697
       8 -> 23         0.01446
       8 -> 29         0.00029
       8 -> 31         0.00198
       8 -> 37        -0.00028
       8 -> 44        -0.00010
       8 -> 48         0.00015
       3 <- 27        -0.00017
       3 <- 38        -0.00017
       4 <- 27        -0.00042
       5 <-  9        -0.00125
       5 <- 13        -0.00011
       5 <- 17         0.00031
       5 <- 31        -0.00017
       5 <- 37        -0.00039
       6 <- 27        -0.00012
       6 <- 38         0.00026
       6 <- 46         0.00011
       7 <- 12        -0.00049
       7 <- 15        -0.00128
       7 <- 19         0.00085
       7 <- 22        -0.00087
       7 <- 25        -0.00058
       7 <- 30         0.00030
       7 <- 33         0.00030
       7 <- 35        -0.00051
       7 <- 40        -0.00034
       7 <- 50        -0.00010
       8 <-  9         0.00051
       8 <- 13         0.00092
       8 <- 17         0.00012
       8 <- 29        -0.00031
       8 <- 31         0.00019
       8 <- 37         0.00016
 
 Excited State   8:      Singlet-A2     8.7120 eV  142.31 nm  f=0.0000  <S**2>=0.000
       3 -> 27        -0.00112
       3 -> 38        -0.00049
       3 -> 46         0.00056
       4 -> 27        -0.00582
       4 -> 38         0.00050
       4 -> 46        -0.00061
       5 ->  9         0.70365
       5 -> 13        -0.03385
       5 -> 17         0.00995
       5 -> 23        -0.01463
       5 -> 29         0.00201
       5 -> 31        -0.00041
       5 -> 37        -0.00545
       5 -> 44        -0.00198
       5 -> 48        -0.00022
       5 -> 52         0.00030
       6 -> 27        -0.00141
       6 -> 38         0.00185
       6 -> 46         0.00058
       7 -> 12         0.01613
       7 -> 15         0.01464
       7 -> 19         0.00094
       7 -> 22        -0.00542
       7 -> 25         0.00070
       7 -> 30        -0.00106
       7 -> 33        -0.00018
       7 -> 35        -0.00064
       7 -> 40        -0.00021
       7 -> 42        -0.00022
       7 -> 49        -0.00029
       7 -> 50        -0.00072
       7 -> 53         0.00011
       8 ->  9        -0.01902
       8 -> 13        -0.05036
       8 -> 17         0.01020
       8 -> 23         0.00176
       8 -> 29         0.00281
       8 -> 31         0.00057
       8 -> 37         0.00330
       8 -> 44         0.00030
       8 -> 48         0.00015
       8 -> 52         0.00057
       3 <- 27        -0.00150
       3 <- 38        -0.00064
       3 <- 46         0.00073
       4 <- 27        -0.00473
       4 <- 38         0.00042
       4 <- 46        -0.00016
       5 <-  9        -0.01060
       5 <- 13         0.00205
       5 <- 17        -0.00073
       5 <- 29         0.00108
       5 <- 31        -0.00253
       5 <- 37        -0.00311
       5 <- 44        -0.00034
       5 <- 48        -0.00029
       5 <- 52         0.00011
       6 <- 27        -0.00154
       6 <- 38         0.00129
       6 <- 46         0.00035
       7 <- 12        -0.00183
       7 <- 15        -0.00154
       7 <- 22        -0.00228
       7 <- 25        -0.00260
       7 <- 30         0.00059
       7 <- 33         0.00046
       7 <- 35        -0.00079
       7 <- 40        -0.00058
       7 <- 42        -0.00047
       7 <- 49        -0.00049
       7 <- 50        -0.00080
       7 <- 53         0.00037
       8 <-  9         0.00018
       8 <- 13        -0.00051
       8 <- 17        -0.00163
       8 <- 23         0.00037
       8 <- 29        -0.00236
       8 <- 31         0.00208
       8 <- 37         0.00136
       8 <- 44        -0.00011
       8 <- 48         0.00013
       8 <- 52         0.00012
 
 Excited State   9:      Singlet-B1     9.1740 eV  135.15 nm  f=0.0356  <S**2>=0.000
       3 ->  9         0.00455
       3 -> 13         0.00113
       3 -> 17         0.00060
       3 -> 23        -0.00052
       3 -> 31        -0.00027
       3 -> 44        -0.00043
       3 -> 48         0.00033
       3 -> 52        -0.00014
       4 ->  9         0.01591
       4 -> 13        -0.00098
       4 -> 17        -0.00030
       4 -> 23        -0.00254
       4 -> 29        -0.00041
       4 -> 31         0.00100
       4 -> 37        -0.00050
[...]
  48        5S         -0.00187   0.00000   0.00584   0.00906   0.00724
  49        5PX         0.00000   0.00000   0.00000   0.00000   0.00000
  50        5PY         0.00000   0.00000  -0.01595  -0.02965  -0.02785
  51        5PZ        -0.00018   0.00000   0.00234   0.00305   0.00035
  52        6D 0        0.00031   0.00000  -0.00063  -0.00106  -0.00118
  53        6D+1        0.00000   0.00000   0.00000   0.00000   0.00000
  54        6D-1        0.00000   0.00000  -0.00189  -0.00177   0.00222
  55        6D+2        0.00002   0.00000  -0.00006  -0.00006  -0.00001
  56        6D-2        0.00000   0.00000   0.00000   0.00000   0.00000
                          26        27        28        29        30
  26        4PX         0.00025
  27        4PY         0.00000   0.00109
  28        4PZ         0.00000  -0.00048   0.00051
  29 3   H  1S          0.00000  -0.00197  -0.00243   0.07929
  30        2S          0.00000  -0.00210  -0.00383   0.11401   0.16803
  31        3S          0.00000   0.00017  -0.00196   0.04160   0.07111
  32        4PX         0.00025   0.00000   0.00000   0.00000   0.00000
  33        4PY         0.00000  -0.00053  -0.00007   0.00797   0.01045
  34        4PZ         0.00000   0.00007  -0.00006   0.00440   0.00612
  35 4   O  1S          0.00000  -0.00009  -0.00079   0.00209   0.00132
  36        2S          0.00000  -0.00023  -0.00096   0.00347   0.00258
  37        2PX         0.00527   0.00000   0.00000   0.00000   0.00000
  38        2PY         0.00000  -0.00292   0.00140   0.01849   0.04948
  39        2PZ         0.00000  -0.00118  -0.00397   0.01323   0.02019
  40        3S          0.00000   0.00118   0.00169  -0.01166  -0.01046
  41        3PX         0.00775   0.00000   0.00000   0.00000   0.00000
  42        3PY         0.00000  -0.00427   0.00209   0.02594   0.07035
  43        3PZ         0.00000  -0.00169  -0.00576   0.01902   0.02901
  44        4S          0.00000   0.00075  -0.00102  -0.00478  -0.00066
  45        4PX         0.00661   0.00000   0.00000   0.00000   0.00000
  46        4PY         0.00000  -0.00332   0.00133   0.03034   0.07370
  47        4PZ         0.00000  -0.00145  -0.00335   0.01411   0.02097
  48        5S          0.00000  -0.00042  -0.00214   0.00584   0.00906
  49        5PX         0.00071   0.00000   0.00000   0.00000   0.00000
  50        5PY         0.00000   0.00003  -0.00048   0.01595   0.02965
  51        5PZ         0.00000  -0.00040   0.00011   0.00234   0.00305
  52        6D 0        0.00000   0.00001   0.00040  -0.00063  -0.00106
  53        6D+1       -0.00046   0.00000   0.00000   0.00000   0.00000
  54        6D-1        0.00000   0.00034  -0.00028   0.00189   0.00177
  55        6D+2        0.00000   0.00001   0.00001  -0.00006  -0.00006
  56        6D-2       -0.00000   0.00000   0.00000   0.00000   0.00000
                          31        32        33        34        35
  31        3S          0.05458
  32        4PX         0.00000   0.00025
  33        4PY         0.00143   0.00000   0.00109
  34        4PZ         0.00126   0.00000   0.00048   0.00051
  35 4   O  1S          0.00051   0.00000   0.00009  -0.00079   0.64048
  36        2S          0.00059   0.00000   0.00023  -0.00096   0.57031
  37        2PX         0.00000   0.00527   0.00000   0.00000   0.00000
  38        2PY         0.08009   0.00000  -0.00292  -0.00140   0.00000
  39        2PZ         0.01423   0.00000   0.00118  -0.00397  -0.01158
  40        3S         -0.00104   0.00000  -0.00118   0.00169  -0.14018
  41        3PX         0.00000   0.00775   0.00000   0.00000   0.00000
  42        3PY         0.11530   0.00000  -0.00427  -0.00209   0.00000
  43        3PZ         0.02054   0.00000   0.00169  -0.00576  -0.01355
  44        4S          0.00682   0.00000  -0.00075  -0.00102  -0.13641
  45        4PX         0.00000   0.00661   0.00000   0.00000   0.00000
  46        4PY         0.10768   0.00000  -0.00332  -0.00133   0.00000
  47        4PZ         0.01287   0.00000   0.00145  -0.00335  -0.01167
  48        5S          0.00724   0.00000   0.00042  -0.00214   0.00271
  49        5PX         0.00000   0.00071   0.00000   0.00000   0.00000
  50        5PY         0.02785   0.00000   0.00003   0.00048   0.00000
  51        5PZ         0.00035   0.00000   0.00040   0.00011  -0.00255
  52        6D 0       -0.00118   0.00000  -0.00001   0.00040  -0.00057
  53        6D+1        0.00000  -0.00046   0.00000   0.00000   0.00000
  54        6D-1       -0.00222   0.00000   0.00034   0.00028   0.00000
  55        6D+2       -0.00001   0.00000  -0.00001   0.00001  -0.00078
  56        6D-2        0.00000   0.00000   0.00000   0.00000   0.00000
                          36        37        38        39        40
  36        2S          0.52535
  37        2PX         0.00000   0.11191
  38        2PY         0.00000   0.00000   0.18621
  39        2PZ        -0.01803   0.00000   0.00000   0.12216
  40        3S         -0.23575   0.00000   0.00000   0.05164   0.73282
  41        3PX         0.00000   0.16445   0.00000   0.00000   0.00000
  42        3PY         0.00000   0.00000   0.26922   0.00000   0.00000
  43        3PZ        -0.02231   0.00000   0.00000   0.17589   0.06815
  44        4S         -0.21264   0.00000   0.00000   0.10915   0.60716
  45        4PX         0.00000   0.14019   0.00000   0.00000   0.00000
  46        4PY         0.00000   0.00000   0.24108   0.00000   0.00000
  47        4PZ        -0.01976   0.00000   0.00000   0.10942   0.06190
  48        5S         -0.00009   0.00000   0.00000   0.06195   0.01541
  49        5PX         0.00000   0.01515   0.00000   0.00000   0.00000
  50        5PY         0.00000   0.00000   0.04862   0.00000   0.00000
  51        5PZ        -0.00375   0.00000   0.00000   0.00180   0.00984
  52        6D 0       -0.00096  -0.00000  -0.00000  -0.01006   0.00292
  53        6D+1        0.00000  -0.00970   0.00000   0.00000  -0.00000
  54        6D-1        0.00000   0.00000  -0.00922   0.00000  -0.00000
  55        6D+2       -0.00125   0.00000   0.00000   0.00024   0.00369
  56        6D-2        0.00000   0.00000   0.00000   0.00000   0.00000
                          41        42        43        44        45
  41        3PX         0.24166
  42        3PY         0.00000   0.38924
  43        3PZ         0.00000   0.00000   0.25331
  44        4S          0.00000   0.00000   0.15221   0.54113
  45        4PX         0.20600   0.00000   0.00000   0.00000   0.17561
  46        4PY         0.00000   0.34844   0.00000   0.00000   0.00000
  47        4PZ         0.00000   0.00000   0.15739   0.10978   0.00000
  48        5S          0.00000   0.00000   0.08933   0.04674   0.00000
  49        5PX         0.02226   0.00000   0.00000   0.00000   0.01898
  50        5PY         0.00000   0.07010   0.00000   0.00000   0.00000
  51        5PZ         0.00000   0.00000   0.00249   0.00856   0.00000
  52        6D 0       -0.00000  -0.00000  -0.01456  -0.00339  -0.00000
  53        6D+1       -0.01426   0.00000   0.00000  -0.00000  -0.01215
  54        6D-1        0.00000  -0.01338   0.00000  -0.00000   0.00000
  55        6D+2        0.00000   0.00000   0.00031   0.00305   0.00000
  56        6D-2        0.00000   0.00000   0.00000   0.00000   0.00000
                          46        47        48        49        50
  46        4PY         0.31300
  47        4PZ         0.00000   0.09859
  48        5S          0.00000   0.05518   0.03175
  49        5PX         0.00000   0.00000   0.00000   0.00205
  50        5PY         0.06448   0.00000   0.00000   0.00000   0.01536
  51        5PZ         0.00000   0.00202   0.00065   0.00000   0.00000
  52        6D 0       -0.00000  -0.00880  -0.00525  -0.00000  -0.00000
  53        6D+1        0.00000   0.00000   0.00000  -0.00131   0.00000
  54        6D-1       -0.01156   0.00000   0.00000   0.00000  -0.00174
  55        6D+2        0.00000   0.00029   0.00007   0.00000   0.00000
  56        6D-2        0.00000   0.00000   0.00000   0.00000   0.00000
                          51        52        53        54        55
  51        5PZ         0.00035
  52        6D 0       -0.00000   0.00092
  53        6D+1       -0.00000   0.00000   0.00084
  54        6D-1       -0.00000   0.00000   0.00000   0.00063
  55        6D+2        0.00005   0.00002   0.00000   0.00000   0.00002
  56        6D-2        0.00000   0.00000   0.00000   0.00000   0.00000
                          56
  56        6D-2        0.00000
          Condensed to atoms (all electrons):
               1          2          3          4
     1  C    4.915139   0.370206   0.370206   0.359098
     2  H    0.370206   0.608118  -0.079017  -0.046274
     3  H    0.370206  -0.079017   0.608118  -0.046274
     4  O    0.359098  -0.046274  -0.046274   8.012734
 Mulliken charges:
               1
     1  C   -0.014648
     2  H    0.146967
     3  H    0.146967
     4  O   -0.279285
 Sum of Mulliken charges =   0.00000
 Mulliken charges with hydrogens summed into heavy atoms:
               1
     1  C    0.279285
     4  O   -0.279285
 Electronic spatial extent (au):  <R**2>=             67.3565
 Charge=             -0.0000 electrons
 Dipole moment (field-independent basis, Debye):
    X=             -0.0000    Y=              0.0000    Z=             -3.1113  Tot=              3.1113
 Quadrupole moment (field-independent basis, Debye-Ang):
   XX=            -12.1988   YY=            -11.7485   ZZ=            -12.0095
   XY=              0.0000   XZ=              0.0000   YZ=              0.0000
 Traceless Quadrupole moment (field-independent basis, Debye-Ang):
   XX=             -0.2132   YY=              0.2371   ZZ=             -0.0239
   XY=              0.0000   XZ=              0.0000   YZ=              0.0000
 Octapole moment (field-independent basis, Debye-Ang**2):
  XXX=              0.0000  YYY=             -0.0000  ZZZ=             -0.9768  XYY=             -0.0000
  XXY=              0.0000  XXZ=              0.5765  XZZ=             -0.0000  YZZ=             -0.0000
  YYZ=             -1.3881  XYZ=             -0.0000
 Hexadecapole moment (field-independent basis, Debye-Ang**3):
 XXXX=            -11.7900 YYYY=            -18.4403 ZZZZ=            -53.3820 XXXY=             -0.0000
 XXXZ=             -0.0000 YYYX=             -0.0000 YYYZ=             -0.0000 ZZZX=             -0.0000
 ZZZY=              0.0000 XXYY=             -5.4143 XXZZ=            -11.0881 YYZZ=            -11.1978
 XXYZ=             -0.0000 YYXZ=              0.0000 ZZXY=              0.0000
 N-N= 2.860036375962D+01 E-N=-3.259545821869D+02  KE= 1.136820267345D+02
 Symmetry A1   KE= 1.032725339292D+02
 Symmetry A2   KE= 2.175580019099D-35
 Symmetry B1   KE= 3.613849462761D+00
 Symmetry B2   KE= 6.795643342466D+00
 Leave Link  601 at Fri Sep 17 10:52:46 2021, MaxMem=   268435456 cpu:               0.0 elap:               0.0
 (Enter /software/gaussian/g16-a03/l9999.exe)
 Electronic transition elements 
                 1             2             3             4             5 
      1  -0.114401D+03 -0.114258D+03 -0.114241D+03 -0.114237D+03 -0.114233D+03
      2   0.000000D+00  0.000000D+00  0.884134D-01  0.000000D+00  0.000000D+00
      3   0.000000D+00  0.295712D+00  0.000000D+00  0.000000D+00  0.390644D+00
      4   0.000000D+00  0.000000D+00  0.000000D+00  0.846066D+00  0.000000D+00
      5   0.000000D+00  0.000000D+00 -0.387676D-01  0.000000D+00  0.000000D+00
      6   0.000000D+00 -0.781339D-01  0.000000D+00  0.000000D+00 -0.113105D+00
      7   0.000000D+00  0.000000D+00  0.000000D+00 -0.222098D+00  0.000000D+00
      8   0.000000D+00 -0.379210D+00  0.000000D+00  0.000000D+00  0.597513D+00
      9   0.000000D+00  0.000000D+00 -0.162983D+01  0.000000D+00  0.000000D+00
     10   0.114401D+01  0.000000D+00  0.000000D+00  0.000000D+00  0.000000D+00
     11   0.000000D+00  0.000000D+00  0.000000D+00  0.173192D+00  0.000000D+00
     12   0.000000D+00  0.000000D+00  0.000000D+00 -0.202548D-01  0.000000D+00
     13   0.000000D+00  0.000000D+00  0.000000D+00 -0.145673D+00  0.000000D+00
     14  -0.649540D-01  0.000000D+00  0.000000D+00  0.000000D+00  0.000000D+00
     15   0.000000D+00  0.000000D+00 -0.266418D+00  0.000000D+00  0.000000D+00
     16   0.000000D+00  0.421732D+00  0.000000D+00  0.000000D+00 -0.960068D-01
                 6             7             8             9            10 
      1  -0.114219D+03 -0.114200D+03 -0.114193D+03 -0.114176D+03 -0.114148D+03
      2   0.000000D+00  0.000000D+00  0.000000D+00 -0.398055D+00  0.524371D+00
      3   0.000000D+00  0.000000D+00  0.000000D+00  0.000000D+00  0.000000D+00
      4  -0.483332D+00  0.000000D+00  0.000000D+00  0.000000D+00  0.000000D+00
      5   0.000000D+00  0.000000D+00  0.000000D+00  0.138561D+00 -0.197826D+00
      6   0.000000D+00  0.000000D+00  0.000000D+00  0.000000D+00  0.000000D+00
      7   0.139100D+00  0.000000D+00  0.000000D+00  0.000000D+00  0.000000D+00
      8   0.000000D+00  0.000000D+00  0.000000D+00  0.000000D+00  0.000000D+00
      9   0.000000D+00  0.000000D+00  0.000000D+00  0.278629D-01  0.158234D+00
     10   0.000000D+00 -0.814887D-01 -0.811301D+00  0.000000D+00  0.000000D+00
     11  -0.232209D-01  0.000000D+00  0.000000D+00  0.000000D+00  0.000000D+00
     12  -0.185713D+00  0.000000D+00  0.000000D+00  0.000000D+00  0.000000D+00
     13  -0.247973D+00  0.000000D+00  0.000000D+00  0.000000D+00  0.000000D+00
     14   0.000000D+00 -0.104722D-01  0.200684D+00  0.000000D+00  0.000000D+00
     15   0.000000D+00  0.000000D+00  0.000000D+00 -0.168496D+00 -0.274510D+00
     16   0.000000D+00  0.000000D+00  0.000000D+00  0.000000D+00  0.000000D+00
                11            12            13            14            15 
      1  -0.114138D+03 -0.114138D+03 -0.114114D+03 -0.114103D+03 -0.114089D+03
      2   0.000000D+00  0.000000D+00  0.000000D+00  0.000000D+00  0.000000D+00
      3   0.443065D+00  0.000000D+00  0.000000D+00  0.000000D+00 -0.110868D+00
      4   0.000000D+00  0.000000D+00 -0.144576D+00  0.137265D+00  0.000000D+00
      5   0.000000D+00  0.000000D+00  0.000000D+00  0.000000D+00  0.000000D+00
      6  -0.165454D+00  0.000000D+00  0.000000D+00  0.000000D+00  0.305305D-01
      7   0.000000D+00  0.000000D+00  0.624545D-01 -0.590002D-01  0.000000D+00
      8  -0.721205D+00  0.000000D+00  0.000000D+00  0.000000D+00  0.471267D+00
      9   0.000000D+00  0.000000D+00  0.000000D+00  0.000000D+00  0.000000D+00
     10   0.000000D+00  0.337906D-01  0.000000D+00  0.000000D+00  0.000000D+00
     11   0.000000D+00  0.000000D+00  0.763353D+00  0.917835D-01  0.000000D+00
     12   0.000000D+00  0.000000D+00 -0.142500D-01 -0.906411D-01  0.000000D+00
     13   0.000000D+00  0.000000D+00 -0.518515D-01  0.221345D+00  0.000000D+00
     14   0.000000D+00  0.284085D+00  0.000000D+00  0.000000D+00  0.000000D+00
     15   0.000000D+00  0.000000D+00  0.000000D+00  0.000000D+00  0.000000D+00
     16   0.390704D+00  0.000000D+00  0.000000D+00  0.000000D+00  0.298436D+00
                16            17            18            19            20 
      1  -0.114082D+03 -0.114068D+03 -0.114064D+03 -0.114062D+03 -0.114062D+03
      2   0.000000D+00  0.000000D+00  0.000000D+00  0.000000D+00  0.283460D+00
      3   0.000000D+00  0.000000D+00 -0.557758D-02 -0.528382D+00  0.000000D+00
      4  -0.214246D+00  0.111297D+01  0.000000D+00  0.000000D+00  0.000000D+00
      5   0.000000D+00  0.000000D+00  0.000000D+00  0.000000D+00 -0.105273D+00
      6   0.000000D+00  0.000000D+00  0.925455D-02  0.240157D+00  0.000000D+00
      7   0.816909D-01 -0.501651D+00  0.000000D+00  0.000000D+00  0.000000D+00
      8   0.000000D+00  0.000000D+00  0.352430D+00  0.110355D+00  0.000000D+00
      9   0.000000D+00  0.000000D+00  0.000000D+00  0.000000D+00 -0.501551D-01
     10   0.000000D+00  0.000000D+00  0.000000D+00  0.000000D+00  0.000000D+00
     11  -0.277528D+00 -0.250443D-01  0.000000D+00  0.000000D+00  0.000000D+00
     12  -0.575882D+00  0.343034D+00  0.000000D+00  0.000000D+00  0.000000D+00
     13  -0.571012D+00  0.378672D+00  0.000000D+00  0.000000D+00  0.000000D+00
     14   0.000000D+00  0.000000D+00  0.000000D+00  0.000000D+00  0.000000D+00
     15   0.000000D+00  0.000000D+00  0.000000D+00  0.000000D+00  0.877523D-01
     16   0.000000D+00  0.000000D+00 -0.162053D+00 -0.571548D+00  0.000000D+00
                21            22            23            24            25 
      1  -0.114059D+03 -0.114058D+03 -0.114044D+03 -0.114030D+03 -0.114029D+03
      2   0.000000D+00  0.000000D+00 -0.190284D+00  0.000000D+00  0.000000D+00
      3   0.000000D+00 -0.473052D+00  0.000000D+00  0.000000D+00  0.000000D+00
      4   0.000000D+00  0.000000D+00  0.000000D+00  0.000000D+00 -0.470834D+00
      5   0.000000D+00  0.000000D+00  0.844242D-01  0.000000D+00  0.000000D+00
      6   0.000000D+00  0.210522D+00  0.000000D+00  0.000000D+00  0.000000D+00
      7   0.000000D+00  0.000000D+00  0.000000D+00  0.000000D+00  0.218151D+00
      8   0.000000D+00  0.178653D+00  0.000000D+00  0.000000D+00  0.000000D+00
      9   0.000000D+00  0.000000D+00  0.246541D+00  0.000000D+00  0.000000D+00
     10  -0.275742D-01  0.000000D+00  0.000000D+00 -0.245299D-01  0.000000D+00
     11   0.000000D+00  0.000000D+00  0.000000D+00  0.000000D+00  0.114029D+00
     12   0.000000D+00  0.000000D+00  0.000000D+00  0.000000D+00  0.485798D+00
     13   0.000000D+00  0.000000D+00  0.000000D+00  0.000000D+00  0.225790D+00
     14   0.356448D+00  0.000000D+00  0.000000D+00 -0.255930D+00  0.000000D+00
     15   0.000000D+00  0.000000D+00 -0.497441D-01  0.000000D+00  0.000000D+00
     16   0.000000D+00 -0.543636D+00  0.000000D+00  0.000000D+00  0.000000D+00
                26            27            28            29            30 
      1  -0.114026D+03 -0.114009D+03 -0.114004D+03 -0.114000D+03 -0.113987D+03
      2   0.000000D+00  0.000000D+00  0.545077D-01  0.000000D+00  0.000000D+00
      3   0.350065D+00  0.000000D+00  0.000000D+00  0.000000D+00  0.000000D+00
      4   0.000000D+00  0.195255D+00  0.000000D+00  0.000000D+00  0.361120D+00
      5   0.000000D+00  0.000000D+00 -0.180830D-01  0.000000D+00  0.000000D+00
      6  -0.170390D+00  0.000000D+00  0.000000D+00  0.000000D+00  0.000000D+00
      7   0.000000D+00 -0.919666D-01  0.000000D+00  0.000000D+00 -0.188011D+00
      8  -0.644770D+00  0.000000D+00  0.000000D+00  0.000000D+00  0.000000D+00
      9   0.000000D+00  0.000000D+00  0.304151D-01  0.000000D+00  0.000000D+00
     10   0.000000D+00  0.000000D+00  0.000000D+00  0.276094D-01  0.000000D+00
     11   0.000000D+00  0.303567D+00  0.000000D+00  0.000000D+00 -0.206593D+00
     12   0.000000D+00  0.114970D+01  0.000000D+00  0.000000D+00  0.412283D+00
     13   0.000000D+00  0.302901D+00  0.000000D+00  0.000000D+00 -0.174719D+00
     14   0.000000D+00  0.000000D+00  0.000000D+00  0.334289D+00  0.000000D+00
     15   0.000000D+00  0.000000D+00  0.110940D+00  0.000000D+00  0.000000D+00
     16  -0.242821D+00  0.000000D+00  0.000000D+00  0.000000D+00  0.000000D+00

 Test job not archived.
 1\1\GINC-BHD0002\SP\RB3LYP TD-FC\6-311+G(d,p)\C1H2O1\BWEIGHT\17-Sep-20
 21\0\\#p B3LYP/6-311+G** #p TD=(singlets,nstates=30)IOp(6/8=3) IOp(9/4
 0=4)\\Scan Step 172, Bond Length 1.3599999999999999\\0,1\C,0,0.,0.,-0.
 52736\H,0,0.,0.93726,-1.11871\H,0,0.,-0.93726,-1.11871\O,0,0.,0.,0.832
 64\\Version=ES64L-G16RevA.03\State=1-A1\HF=-114.5135297\RMSD=5.950e-09
 \PG=C02V [C2(C1O1),SGV(H2)]\\@


 ... UNTIL SCIENCE IS MIXED WITH EMOTION AND APPEALS TO THE HEART AND
 IMAGINATION , IT IS LIKE DEAD INORGANIC MATTER; AND WHEN IT IS SO MIXED
 AND SO TRANSFORMED IT IS LITERATURE.

                                  -- JOHN BURROUGHS
 Job cpu time:       0 days  0 hours  0 minutes 25.6 seconds.
 Elapsed time:       0 days  0 hours  0 minutes 25.9 seconds.
 File lengths (MBytes):  RWF=     79 Int=      0 D2E=      0 Chk=     32 Scr=      1
 Normal termination of Gaussian 16 at Fri Sep 17 10:52:46 2021.
