 Entering Gaussian System, Link 0=g16
 Initial command:
 /software/gaussian/g16-c01/sse4/g16/l1.exe "/local_scratch/24665284/Gau-23622.inp" -scrdir="/local_scratch/24665284/"
 Entering Link 1 = /software/gaussian/g16-c01/sse4/g16/l1.exe PID=     23625.
  
 Copyright (c) 1988-2019, Gaussian, Inc.  All Rights Reserved.
  
 This is part of the Gaussian(R) 16 program.  It is based on
 the Gaussian(R) 09 system (copyright 2009, Gaussian, Inc.),
 the Gaussian(R) 03 system (copyright 2003, Gaussian, Inc.),
 the Gaussian(R) 98 system (copyright 1998, Gaussian, Inc.),
 the Gaussian(R) 94 system (copyright 1995, Gaussian, Inc.),
 the Gaussian 92(TM) system (copyright 1992, Gaussian, Inc.),
 the Gaussian 90(TM) system (copyright 1990, Gaussian, Inc.),
 the Gaussian 88(TM) system (copyright 1988, Gaussian, Inc.),
 the Gaussian 86(TM) system (copyright 1986, Carnegie Mellon
 University), and the Gaussian 82(TM) system (copyright 1983,
 Carnegie Mellon University). Gaussian is a federally registered
 trademark of Gaussian, Inc.
  
 This software contains proprietary and confidential information,
 including trade secrets, belonging to Gaussian, Inc.
  
 This software is provided under written license and may be
 used, copied, transmitted, or stored only in accord with that
 written license.
  
 The following legend is applicable only to US Government
 contracts under FAR:
  
                    RESTRICTED RIGHTS LEGEND
  
 Use, reproduction and disclosure by the US Government is
 subject to restrictions as set forth in subparagraphs (a)
 and (c) of the Commercial Computer Software - Restricted
 Rights clause in FAR 52.227-19.
  
 Gaussian, Inc.
 340 Quinnipiac St., Bldg. 40, Wallingford CT 06492
  
  
 ---------------------------------------------------------------
 Warning -- This program may not be used in any manner that
 competes with the business of Gaussian, Inc. or will provide
 assistance to any competitor of Gaussian, Inc.  The licensee
 of this program is prohibited from giving any competitor of
 Gaussian, Inc. access to this program.  By using this program,
 the user acknowledges that Gaussian, Inc. is engaged in the
 business of creating and licensing software in the field of
 computational chemistry and represents and warrants to the
 licensee that it is not a competitor of Gaussian, Inc. and that
 it will not use this program in any manner prohibited above.
 ---------------------------------------------------------------
  

 Cite this work as:
 Gaussian 16, Revision C.01,
 M. J. Frisch, G. W. Trucks, H. B. Schlegel, G. E. Scuseria, 
 M. A. Robb, J. R. Cheeseman, G. Scalmani, V. Barone, 
 G. A. Petersson, H. Nakatsuji, X. Li, M. Caricato, A. V. Marenich, 
 J. Bloino, B. G. Janesko, R. Gomperts, B. Mennucci, H. P. Hratchian, 
 J. V. Ortiz, A. F. Izmaylov, J. L. Sonnenberg, D. Williams-Young, 
 F. Ding, F. Lipparini, F. Egidi, J. Goings, B. Peng, A. Petrone, 
 T. Henderson, D. Ranasinghe, V. G. Zakrzewski, J. Gao, N. Rega, 
 G. Zheng, W. Liang, M. Hada, M. Ehara, K. Toyota, R. Fukuda, 
 J. Hasegawa, M. Ishida, T. Nakajima, Y. Honda, O. Kitao, H. Nakai, 
 T. Vreven, K. Throssell, J. A. Montgomery, Jr., J. E. Peralta, 
 F. Ogliaro, M. J. Bearpark, J. J. Heyd, E. N. Brothers, K. N. Kudin, 
 V. N. Staroverov, T. A. Keith, R. Kobayashi, J. Normand, 
 K. Raghavachari, A. P. Rendell, J. C. Burant, S. S. Iyengar, 
 J. Tomasi, M. Cossi, J. M. Millam, M. Klene, C. Adamo, R. Cammi, 
 J. W. Ochterski, R. L. Martin, K. Morokuma, O. Farkas, 
 J. B. Foresman, and D. J. Fox, Gaussian, Inc., Wallingford CT, 2019.
 
 ******************************************
 Gaussian 16:  ES64L-G16RevC.01  3-Jul-2019
                 2-May-2024 
 ******************************************
 %chk=geometry.chk
 %mem=1GB
 %nprocshared=12
 Will use up to   12 processors via shared memory.
 ----------------------------------------
 #P wB97XD/6-311+G* NoSymm #P Field=X+204
 ----------------------------------------
 1/38=1,172=1/1;
 2/12=2,15=1,17=6,18=5,40=1/2;
 3/5=4,6=6,7=11,11=2,14=1,15=204,25=1,30=1,74=-58/1,2,3;
 4//1;
 5/5=2,38=5/2;
 6/7=2,8=2,9=2,10=2,28=1/1;
 99/5=1,9=1/99;
 Leave Link    1 at Thu May  2 13:57:39 2024, MaxMem=   134217728 cpu:               1.8 elap:               1.8
 (Enter /software/gaussian/g16-c01/sse4/g16/l101.exe)
 -------
 TitleMe
 -------
 Symbolic Z-matrix:
 Charge =  1 Multiplicity = 1
 C                     0.5193    1.233    -0.0319 
 C                     1.9445    1.2692   -0.0367 
 C                     2.6204    0.0928   -0.025 
 C                    -0.196     0.0301    0.001 
 H                    -0.0207    2.1742   -0.0434 
 H                     2.4828    2.2089   -0.0361 
 H                    -1.2777    0.0399    0.0117 
 N                     4.0921    0.0959    0.0366 
 O                     4.6393   -1.0217    0.1446 
 O                     4.6649    1.1984   -0.0233 
 C                     0.4943   -1.1671    0.021 
 H                    -0.0325   -2.1149    0.0545 
 C                     1.9629   -1.2165   -0.0211 
 H                     2.4436   -1.9631    0.6151 
 Br                    2.173    -1.9491   -1.9062 
 
 ITRead=  0  0  0  0  0  0  0  0  0  0  0  0  0  0  0
 MicOpt= -1 -1 -1 -1 -1 -1 -1 -1 -1 -1 -1 -1 -1 -1 -1
 NAtoms=     15 NQM=       15 NQMF=       0 NMMI=      0 NMMIF=      0
                NMic=       0 NMicF=      0.
                    Isotopes and Nuclear Properties:
 (Nuclear quadrupole moments (NQMom) in fm**2, nuclear magnetic moments (NMagM)
  in nuclear magnetons)

  Atom         1           2           3           4           5           6           7           8           9          10
 IAtWgt=          12          12          12          12           1           1           1          14          16          16
 AtmWgt=  12.0000000  12.0000000  12.0000000  12.0000000   1.0078250   1.0078250   1.0078250  14.0030740  15.9949146  15.9949146
 NucSpn=           0           0           0           0           1           1           1           2           0           0
 AtZEff=  -0.0000000  -0.0000000  -0.0000000  -0.0000000  -0.0000000  -0.0000000  -0.0000000  -0.0000000  -0.0000000  -0.0000000
 NQMom=    0.0000000   0.0000000   0.0000000   0.0000000   0.0000000   0.0000000   0.0000000   2.0440000   0.0000000   0.0000000
 NMagM=    0.0000000   0.0000000   0.0000000   0.0000000   2.7928460   2.7928460   2.7928460   0.4037610   0.0000000   0.0000000
 AtZNuc=   6.0000000   6.0000000   6.0000000   6.0000000   1.0000000   1.0000000   1.0000000   7.0000000   8.0000000   8.0000000

  Atom        11          12          13          14          15
 IAtWgt=          12           1          12           1          79
 AtmWgt=  12.0000000   1.0078250  12.0000000   1.0078250  78.9183361
 NucSpn=           0           1           0           1           3
 AtZEff=  -0.0000000  -0.0000000  -0.0000000  -0.0000000  -0.0000000
 NQMom=    0.0000000   0.0000000   0.0000000   0.0000000  31.3000000
 NMagM=    0.0000000   2.7928460   0.0000000   2.7928460   2.1063990
 AtZNuc=   6.0000000   1.0000000   6.0000000   1.0000000  35.0000000
 Leave Link  101 at Thu May  2 13:57:40 2024, MaxMem=   134217728 cpu:               1.6 elap:               1.7
 (Enter /software/gaussian/g16-c01/sse4/g16/l202.exe)
                          Input orientation:                          
 ---------------------------------------------------------------------
 Center     Atomic      Atomic             Coordinates (Angstroms)
 Number     Number       Type             X           Y           Z
 ---------------------------------------------------------------------
      1          6           0        0.519300    1.233000   -0.031900
      2          6           0        1.944500    1.269200   -0.036700
      3          6           0        2.620400    0.092800   -0.025000
      4          6           0       -0.196000    0.030100    0.001000
      5          1           0       -0.020700    2.174200   -0.043400
      6          1           0        2.482800    2.208900   -0.036100
      7          1           0       -1.277700    0.039900    0.011700
      8          7           0        4.092100    0.095900    0.036600
      9          8           0        4.639300   -1.021700    0.144600
     10          8           0        4.664900    1.198400   -0.023300
     11          6           0        0.494300   -1.167100    0.021000
     12          1           0       -0.032500   -2.114900    0.054500
     13          6           0        1.962900   -1.216500   -0.021100
     14          1           0        2.443600   -1.963100    0.615100
     15         35           0        2.173000   -1.949100   -1.906200
 ---------------------------------------------------------------------
                    Distance matrix (angstroms):
                    1          2          3          4          5
     1  C    0.000000
     2  C    1.425668   0.000000
     3  C    2.390549   1.356796   0.000000
     4  C    1.399895   2.473566   2.817218   0.000000
     5  H    1.085168   2.163581   3.362733   2.151712   0.000000
     6  H    2.192654   1.082960   2.120598   3.453189   2.503751
     7  H    2.157452   3.449071   3.898632   1.081797   2.477564
     8  N    3.750012   2.448304   1.472992   4.288753   4.608780
     9  O    4.699917   3.541615   2.312322   4.950458   5.653735
    10  O    4.145753   2.721354   2.324292   4.999386   4.786171
    11  C    2.400813   2.835836   2.471794   1.382101   3.381369
    12  H    3.394169   3.920329   3.452266   2.151887   4.290233
    13  C    2.843264   2.485817   1.465124   2.493060   3.928360
    14  H    3.786370   3.334922   2.160489   3.364142   4.860416
    15  Br   4.046416   3.728900   2.812194   3.628609   5.028314
                    6          7          8          9         10
     6  H    0.000000
     7  H    4.341452   0.000000
     8  N    2.657047   5.370150   0.000000
     9  O    3.888434   6.012948   1.249048   0.000000
    10  O    2.404752   6.054572   1.243863   2.226587   0.000000
    11  C    3.918516   2.144043   3.813080   4.149391   4.794941
    12  H    5.003018   2.489080   4.679774   4.798846   5.748876
    13  C    3.464662   3.475788   2.501842   2.688591   3.623886
    14  H    4.222698   4.268978   2.700314   2.434893   3.916224
    15  Br   4.569706   4.420610   3.411663   3.338935   4.434144
                   11         12         13         14         15
    11  C    0.000000
    12  H    1.084880   0.000000
    13  C    1.470034   2.189625   0.000000
    14  H    2.187771   2.543302   1.092353   0.000000
    15  Br   2.672762   2.955683   2.033334   2.535818   0.000000
 Symmetry turned off by external request.
 Stoichiometry    C6H5BrNO2(1+)
 Framework group  C1[X(C6H5BrNO2)]
 Deg. of freedom    39
 Full point group                 C1      NOp   1
 Rotational constants (GHZ):           1.1632986           0.9594224           0.5957624
 Leave Link  202 at Thu May  2 13:57:41 2024, MaxMem=   134217728 cpu:               1.2 elap:               1.2
 (Enter /software/gaussian/g16-c01/sse4/g16/l301.exe)
 Standard basis: 6-311+G(d) (5D, 7F)
 Ernie: Thresh=  0.10000D-02 Tol=  0.10000D-05 Strict=F.
 The following finite field(s) will be applied:
 An electric field of              0.0204  0.0000  0.0000
   261 basis functions,   443 primitive gaussians,   273 cartesian basis functions
    49 alpha electrons       49 beta electrons
       nuclear repulsion energy       772.8945969580 Hartrees.
 IExCor= 4639 DFT=T Ex+Corr=wB97XD ExCW=0 ScaHFX=  1.000000
 ScaDFX=  1.000000  1.000000  1.000000  1.000000 ScalE2=  1.000000  1.000000
 IRadAn=      5 IRanWt=     -1 IRanGd=            0 ICorTp=0 IEmpDi=121
 HFx  wShort=  0.000000 wLong=  0.200000 cFull=  0.222036 cShort=  0.000000 cLong=  0.777964
 DFx  wShort=  0.000000 wLong=  0.200000 cFull=  0.000000 cShort=  0.000000 cLong=  1.000000
 NAtoms=   15 NActive=   15 NUniq=   15 SFac= 1.00D+00 NAtFMM=   60 NAOKFM=F Big=F
 Integral buffers will be    131072 words long.
 Raffenetti 2 integral format.
 Two-electron integral symmetry is turned off.
 R6Disp:  Grimme-D2 Dispersion energy=       -0.0080346408 Hartrees.
 Nuclear repulsion after empirical dispersion term =      772.8865623173 Hartrees.
 Leave Link  301 at Thu May  2 13:57:42 2024, MaxMem=   134217728 cpu:               1.1 elap:               1.1
 (Enter /software/gaussian/g16-c01/sse4/g16/l302.exe)
 NPDir=0 NMtPBC=     1 NCelOv=     1 NCel=       1 NClECP=     1 NCelD=      1
         NCelK=      1 NCelE2=     1 NClLst=     1 CellRange=     0.0.
 One-electron integrals computed using PRISM.
 NBasis=   261 RedAO= T EigKep=  2.52D-06  NBF=   261
 NBsUse=   261 1.00D-06 EigRej= -1.00D+00 NBFU=   261
 Precomputing XC quadrature grid using
 IXCGrd= 4 IRadAn=           5 IRanWt=          -1 IRanGd=           0 AccXCQ= 0.00D+00.
 Generated NRdTot=       0 NPtTot=           0 NUsed=           0 NTot=          32
 NSgBfM=   273   273   273   273   273 MxSgAt=    15 MxSgA2=    15.
 Leave Link  302 at Thu May  2 13:58:04 2024, MaxMem=   134217728 cpu:              21.9 elap:              21.9
 (Enter /software/gaussian/g16-c01/sse4/g16/l303.exe)
 DipDrv:  MaxL=1.
 The nuclear repulsion energy is now       781.6298422328 hartrees.
 Leave Link  303 at Thu May  2 13:58:07 2024, MaxMem=   134217728 cpu:               3.1 elap:               3.1
 (Enter /software/gaussian/g16-c01/sse4/g16/l401.exe)
 ExpMin= 3.50D-02 ExpMax= 4.40D+05 ExpMxC= 1.51D+04 IAcc=3 IRadAn=         5 AccDes= 0.00D+00
 Harris functional with IExCor= 4639 and IRadAn=       5 diagonalized for initial guess.
 HarFok:  IExCor= 4639 AccDes= 0.00D+00 IRadAn=         5 IDoV= 1 UseB2=F ITyADJ=14
 ICtDFT=  3500011 ScaDFX=  1.000000  1.000000  1.000000  1.000000
 FoFCou: FMM=F IPFlag=           0 FMFlag=      100000 FMFlg1=           0
         NFxFlg=           0 DoJE=T BraDBF=F KetDBF=T FulRan=T
         wScrn=  0.000000 ICntrl=       500 IOpCl=  0 I1Cent=   200000004 NGrid=           0
         NMat0=    1 NMatS0=      1 NMatT0=    0 NMatD0=    1 NMtDS0=    0 NMtDT0=    0
 Symmetry not used in FoFCou.
 Harris En= -2970.62227585607    
 JPrj=0 DoOrth=F DoCkMO=F.
 Leave Link  401 at Thu May  2 13:58:39 2024, MaxMem=   134217728 cpu:              31.1 elap:              31.1
 (Enter /software/gaussian/g16-c01/sse4/g16/l502.exe)
 Two-electron integral symmetry not used.
 Closed shell SCF:
 Using DIIS extrapolation, IDIIS=  1040.
 NGot=   134217728 LenX=   134063053 LenY=   133988083
 Requested convergence on RMS density matrix=1.00D-08 within 128 cycles.
 Requested convergence on MAX density matrix=1.00D-06.
 Requested convergence on             energy=1.00D-06.
 No special actions if energy rises.
 Fock matrices will be formed incrementally for  20 cycles.

 Cycle   1  Pass 1  IDiag  1:
 FoFJK:  IHMeth= 1 ICntrl=       0 DoSepK=T KAlg= 0 I1Cent=           0 FoldK=F
 IRaf=         1 NMat=       1 IRICut=       1 DoRegI=T DoRafI=F ISym2E= 0 IDoP0=0 IntGTp=1.
 FoFCou: FMM=F IPFlag=           0 FMFlag=      100000 FMFlg1=           0
         NFxFlg=           0 DoJE=T BraDBF=F KetDBF=F FulRan=T
         wScrn=  0.000000 ICntrl=       500 IOpCl=  0 I1Cent=           0 NGrid=           0
         NMat0=    1 NMatS0=      1 NMatT0=    0 NMatD0=    1 NMtDS0=    0 NMtDT0=    0
 Symmetry not used in FoFCou.
 E= -3009.71089124475    
 DIIS: error= 2.90D-01 at cycle   1 NSaved=   1.
 NSaved= 1 IEnMin= 1 EnMin= -3009.71089124475     IErMin= 1 ErrMin= 2.90D-01
 ErrMax= 2.90D-01  0.00D+00 EMaxC= 1.00D-01 BMatC= 1.19D+01 BMatP= 1.19D+01
 IDIUse=3 WtCom= 0.00D+00 WtEn= 1.00D+00
 Coeff-Com:  0.100D+01
 Coeff-En:   0.100D+01
 Coeff:      0.100D+01
 Gap=     0.258 Goal=   None    Shift=    0.000
 GapD=    0.258 DampG=1.000 DampE=0.250 DampFc=0.2500 IDamp=-1.
 Damping current iteration by 2.50D-01
 RMSDP=1.27D-01 MaxDP=1.31D+01              OVMax= 2.29D-01

 Cycle   2  Pass 1  IDiag  1:
 RMSU=  8.52D-03    CP:  8.34D-01
 E= -3009.99437176132     Delta-E=       -0.283480516568 Rises=F Damp=T
 DIIS: error= 2.19D-01 at cycle   2 NSaved=   2.
 NSaved= 2 IEnMin= 2 EnMin= -3009.99437176132     IErMin= 2 ErrMin= 2.19D-01
 ErrMax= 2.19D-01  0.00D+00 EMaxC= 1.00D-01 BMatC= 5.45D+00 BMatP= 1.19D+01
 IDIUse=3 WtCom= 0.00D+00 WtEn= 1.00D+00
 Coeff-Com: -0.185D+01 0.285D+01
 Coeff-En:   0.000D+00 0.100D+01
 Coeff:      0.000D+00 0.100D+01
 Gap=     0.242 Goal=   None    Shift=    0.000
 RMSDP=9.59D-02 MaxDP=1.01D+01 DE=-2.83D-01 OVMax= 7.01D-02

 Cycle   3  Pass 1  IDiag  1:
 RMSU=  5.62D-03    CP:  3.25D-01  3.00D+00
 E= -3010.38682923221     Delta-E=       -0.392457470893 Rises=F Damp=F
 DIIS: error= 6.57D-02 at cycle   3 NSaved=   3.
 NSaved= 3 IEnMin= 3 EnMin= -3010.38682923221     IErMin= 3 ErrMin= 6.57D-02
 ErrMax= 6.57D-02  0.00D+00 EMaxC= 1.00D-01 BMatC= 7.22D-01 BMatP= 5.45D+00
 IDIUse=3 WtCom= 3.43D-01 WtEn= 6.57D-01
 Coeff-Com:  0.274D+01-0.360D+01 0.186D+01
 Coeff-En:   0.292D-02 0.000D+00 0.997D+00
 Coeff:      0.942D+00-0.124D+01 0.129D+01
 Gap=     0.242 Goal=   None    Shift=    0.000
 RMSDP=1.46D-02 MaxDP=9.13D-01 DE=-3.92D-01 OVMax= 6.74D-02

 Cycle   4  Pass 1  IDiag  1:
 RMSU=  8.73D-03    CP:  3.50D-01  2.30D+00  2.31D+00
 E= -3010.48053441675     Delta-E=       -0.093705184542 Rises=F Damp=F
 DIIS: error= 4.11D-02 at cycle   4 NSaved=   4.
 NSaved= 4 IEnMin= 4 EnMin= -3010.48053441675     IErMin= 4 ErrMin= 4.11D-02
 ErrMax= 4.11D-02  0.00D+00 EMaxC= 1.00D-01 BMatC= 2.62D-01 BMatP= 7.22D-01
 IDIUse=3 WtCom= 5.89D-01 WtEn= 4.11D-01
 Coeff-Com: -0.189D+00 0.265D+00 0.286D+00 0.638D+00
 Coeff-En:   0.000D+00 0.000D+00 0.233D+00 0.767D+00
 Coeff:     -0.111D+00 0.156D+00 0.264D+00 0.691D+00
 Gap=     0.252 Goal=   None    Shift=    0.000
 RMSDP=6.41D-03 MaxDP=6.03D-01 DE=-9.37D-02 OVMax= 3.34D-02

 Cycle   5  Pass 1  IDiag  1:
 RMSU=  2.42D-03    CP:  3.22D-01  2.43D+00  2.08D+00  7.25D-01
 E= -3010.53096808787     Delta-E=       -0.050433671117 Rises=F Damp=F
 DIIS: error= 6.56D-03 at cycle   5 NSaved=   5.
 NSaved= 5 IEnMin= 5 EnMin= -3010.53096808787     IErMin= 5 ErrMin= 6.56D-03
 ErrMax= 6.56D-03  0.00D+00 EMaxC= 1.00D-01 BMatC= 7.36D-03 BMatP= 2.62D-01
 IDIUse=3 WtCom= 9.34D-01 WtEn= 6.56D-02
 Coeff-Com: -0.142D+00 0.194D+00 0.735D-01 0.343D+00 0.532D+00
 Coeff-En:   0.000D+00 0.000D+00 0.000D+00 0.000D+00 0.100D+01
 Coeff:     -0.133D+00 0.181D+00 0.687D-01 0.320D+00 0.563D+00
 Gap=     0.245 Goal=   None    Shift=    0.000
 RMSDP=1.31D-03 MaxDP=1.51D-01 DE=-5.04D-02 OVMax= 1.31D-02

 Cycle   6  Pass 1  IDiag  1:
 RMSU=  6.00D-04    CP:  3.25D-01  2.43D+00  2.15D+00  8.21D-01  8.03D-01
 E= -3010.53261152074     Delta-E=       -0.001643432874 Rises=F Damp=F
 DIIS: error= 2.10D-03 at cycle   6 NSaved=   6.
 NSaved= 6 IEnMin= 6 EnMin= -3010.53261152074     IErMin= 6 ErrMin= 2.10D-03
 ErrMax= 2.10D-03  0.00D+00 EMaxC= 1.00D-01 BMatC= 3.96D-04 BMatP= 7.36D-03
 IDIUse=3 WtCom= 9.79D-01 WtEn= 2.10D-02
 Coeff-Com: -0.954D-01 0.128D+00-0.331D-02 0.146D+00 0.370D+00 0.454D+00
 Coeff-En:   0.000D+00 0.000D+00 0.000D+00 0.000D+00 0.361D-01 0.964D+00
 Coeff:     -0.934D-01 0.125D+00-0.324D-02 0.143D+00 0.363D+00 0.465D+00
 Gap=     0.245 Goal=   None    Shift=    0.000
 RMSDP=4.68D-04 MaxDP=3.95D-02 DE=-1.64D-03 OVMax= 4.79D-03

 Cycle   7  Pass 1  IDiag  1:
 RMSU=  2.07D-04    CP:  3.23D-01  2.42D+00  2.15D+00  8.07D-01  9.06D-01
                    CP:  8.22D-01
 E= -3010.53289327702     Delta-E=       -0.000281756277 Rises=F Damp=F
 DIIS: error= 3.48D-04 at cycle   7 NSaved=   7.
 NSaved= 7 IEnMin= 7 EnMin= -3010.53289327702     IErMin= 7 ErrMin= 3.48D-04
 ErrMax= 3.48D-04  0.00D+00 EMaxC= 1.00D-01 BMatC= 1.66D-05 BMatP= 3.96D-04
 IDIUse=3 WtCom= 9.97D-01 WtEn= 3.48D-03
 Coeff-Com: -0.256D-01 0.339D-01-0.145D-01 0.150D-01 0.672D-01 0.179D+00
 Coeff-Com:  0.745D+00
 Coeff-En:   0.000D+00 0.000D+00 0.000D+00 0.000D+00 0.000D+00 0.000D+00
 Coeff-En:   0.100D+01
 Coeff:     -0.255D-01 0.337D-01-0.144D-01 0.149D-01 0.669D-01 0.178D+00
 Coeff:      0.746D+00
 Gap=     0.246 Goal=   None    Shift=    0.000
 RMSDP=2.70D-04 MaxDP=2.68D-02 DE=-2.82D-04 OVMax= 2.68D-03

 Cycle   8  Pass 1  IDiag  1:
 RMSU=  1.17D-04    CP:  3.23D-01  2.41D+00  2.17D+00  8.20D-01  9.52D-01
                    CP:  8.84D-01  1.23D+00
 E= -3010.53291590797     Delta-E=       -0.000022630949 Rises=F Damp=F
 DIIS: error= 1.73D-04 at cycle   8 NSaved=   8.
 NSaved= 8 IEnMin= 8 EnMin= -3010.53291590797     IErMin= 8 ErrMin= 1.73D-04
 ErrMax= 1.73D-04  0.00D+00 EMaxC= 1.00D-01 BMatC= 2.96D-06 BMatP= 1.66D-05
 IDIUse=3 WtCom= 9.98D-01 WtEn= 1.73D-03
 Coeff-Com:  0.114D-01-0.155D-01-0.308D-02-0.213D-01-0.472D-01-0.467D-01
 Coeff-Com:  0.241D+00 0.882D+00
 Coeff-En:   0.000D+00 0.000D+00 0.000D+00 0.000D+00 0.000D+00 0.000D+00
 Coeff-En:   0.000D+00 0.100D+01
 Coeff:      0.114D-01-0.155D-01-0.308D-02-0.213D-01-0.471D-01-0.466D-01
 Coeff:      0.240D+00 0.882D+00
 Gap=     0.246 Goal=   None    Shift=    0.000
 RMSDP=1.33D-04 MaxDP=9.99D-03 DE=-2.26D-05 OVMax= 1.80D-03

 Cycle   9  Pass 1  IDiag  1:
 RMSU=  3.55D-05    CP:  3.23D-01  2.41D+00  2.18D+00  8.27D-01  9.69D-01
                    CP:  9.54D-01  1.47D+00  1.23D+00
 E= -3010.53292238796     Delta-E=       -0.000006479994 Rises=F Damp=F
 DIIS: error= 3.23D-05 at cycle   9 NSaved=   9.
 NSaved= 9 IEnMin= 9 EnMin= -3010.53292238796     IErMin= 9 ErrMin= 3.23D-05
 ErrMax= 3.23D-05  0.00D+00 EMaxC= 1.00D-01 BMatC= 3.94D-07 BMatP= 2.96D-06
 IDIUse=1 WtCom= 1.00D+00 WtEn= 0.00D+00
 Coeff-Com:  0.772D-02-0.103D-01 0.109D-02-0.973D-02-0.234D-01-0.380D-01
 Coeff-Com: -0.318D-01 0.267D+00 0.837D+00
 Coeff:      0.772D-02-0.103D-01 0.109D-02-0.973D-02-0.234D-01-0.380D-01
 Coeff:     -0.318D-01 0.267D+00 0.837D+00
 Gap=     0.246 Goal=   None    Shift=    0.000
 RMSDP=4.33D-05 MaxDP=3.03D-03 DE=-6.48D-06 OVMax= 9.74D-04

 Cycle  10  Pass 1  IDiag  1:
 RMSU=  1.46D-05    CP:  3.23D-01  2.40D+00  2.19D+00  8.27D-01  9.78D-01
                    CP:  9.59D-01  1.52D+00  1.31D+00  1.21D+00
 E= -3010.53292351406     Delta-E=       -0.000001126091 Rises=F Damp=F
 DIIS: error= 2.05D-05 at cycle  10 NSaved=  10.
 NSaved=10 IEnMin=10 EnMin= -3010.53292351406     IErMin=10 ErrMin= 2.05D-05
 ErrMax= 2.05D-05  0.00D+00 EMaxC= 1.00D-01 BMatC= 9.34D-08 BMatP= 3.94D-07
 IDIUse=1 WtCom= 1.00D+00 WtEn= 0.00D+00
 Coeff-Com:  0.160D-03-0.181D-03 0.501D-03 0.160D-03 0.155D-02 0.382D-03
 Coeff-Com: -0.439D-01-0.737D-01 0.238D+00 0.877D+00
 Coeff:      0.160D-03-0.181D-03 0.501D-03 0.160D-03 0.155D-02 0.382D-03
 Coeff:     -0.439D-01-0.737D-01 0.238D+00 0.877D+00
 Gap=     0.246 Goal=   None    Shift=    0.000
 RMSDP=1.66D-05 MaxDP=1.18D-03 DE=-1.13D-06 OVMax= 5.03D-04

 Cycle  11  Pass 1  IDiag  1:
 RMSU=  6.30D-06    CP:  3.23D-01  2.40D+00  2.19D+00  8.27D-01  9.79D-01
                    CP:  9.64D-01  1.49D+00  1.29D+00  1.37D+00  1.44D+00
 E= -3010.53292378037     Delta-E=       -0.000000266313 Rises=F Damp=F
 DIIS: error= 8.10D-06 at cycle  11 NSaved=  11.
 NSaved=11 IEnMin=11 EnMin= -3010.53292378037     IErMin=11 ErrMin= 8.10D-06
 ErrMax= 8.10D-06  0.00D+00 EMaxC= 1.00D-01 BMatC= 8.80D-09 BMatP= 9.34D-08
 IDIUse=1 WtCom= 1.00D+00 WtEn= 0.00D+00
 Coeff-Com: -0.532D-03 0.711D-03 0.298D-06 0.109D-02 0.295D-02 0.593D-02
 Coeff-Com:  0.138D-01-0.426D-01-0.151D+00-0.669D-01 0.124D+01
 Coeff:     -0.532D-03 0.711D-03 0.298D-06 0.109D-02 0.295D-02 0.593D-02
 Coeff:      0.138D-01-0.426D-01-0.151D+00-0.669D-01 0.124D+01
 Gap=     0.246 Goal=   None    Shift=    0.000
 RMSDP=1.10D-05 MaxDP=8.37D-04 DE=-2.66D-07 OVMax= 3.91D-04

 Cycle  12  Pass 1  IDiag  1:
 RMSU=  2.17D-06    CP:  3.23D-01  2.40D+00  2.19D+00  8.27D-01  9.78D-01
                    CP:  9.65D-01  1.47D+00  1.26D+00  1.48D+00  1.76D+00
                    CP:  1.58D+00
 E= -3010.53292385781     Delta-E=       -0.000000077436 Rises=F Damp=F
 DIIS: error= 3.90D-06 at cycle  12 NSaved=  12.
 NSaved=12 IEnMin=12 EnMin= -3010.53292385781     IErMin=12 ErrMin= 3.90D-06
 ErrMax= 3.90D-06  0.00D+00 EMaxC= 1.00D-01 BMatC= 4.60D-09 BMatP= 8.80D-09
 IDIUse=1 WtCom= 1.00D+00 WtEn= 0.00D+00
 Coeff-Com: -0.328D-03 0.434D-03-0.562D-04 0.575D-03 0.103D-02 0.250D-02
 Coeff-Com:  0.136D-01-0.148D-01-0.113D+00-0.189D+00 0.630D+00 0.669D+00
 Coeff:     -0.328D-03 0.434D-03-0.562D-04 0.575D-03 0.103D-02 0.250D-02
 Coeff:      0.136D-01-0.148D-01-0.113D+00-0.189D+00 0.630D+00 0.669D+00
 Gap=     0.246 Goal=   None    Shift=    0.000
 RMSDP=4.19D-06 MaxDP=2.91D-04 DE=-7.74D-08 OVMax= 1.24D-04

 Cycle  13  Pass 1  IDiag  1:
 RMSU=  1.24D-06    CP:  3.23D-01  2.40D+00  2.19D+00  8.27D-01  9.79D-01
                    CP:  9.65D-01  1.47D+00  1.25D+00  1.51D+00  1.89D+00
                    CP:  1.75D+00  1.16D+00
 E= -3010.53292387130     Delta-E=       -0.000000013498 Rises=F Damp=F
 DIIS: error= 1.09D-06 at cycle  13 NSaved=  13.
 NSaved=13 IEnMin=13 EnMin= -3010.53292387130     IErMin=13 ErrMin= 1.09D-06
 ErrMax= 1.09D-06  0.00D+00 EMaxC= 1.00D-01 BMatC= 5.10D-10 BMatP= 4.60D-09
 IDIUse=1 WtCom= 1.00D+00 WtEn= 0.00D+00
 Coeff-Com: -0.429D-04 0.577D-04-0.341D-04-0.107D-03-0.724D-03-0.129D-02
 Coeff-Com: -0.980D-03 0.693D-02 0.270D-01-0.203D-01-0.169D+00 0.472D-01
 Coeff-Com:  0.111D+01
 Coeff:     -0.429D-04 0.577D-04-0.341D-04-0.107D-03-0.724D-03-0.129D-02
 Coeff:     -0.980D-03 0.693D-02 0.270D-01-0.203D-01-0.169D+00 0.472D-01
 Coeff:      0.111D+01
 Gap=     0.246 Goal=   None    Shift=    0.000
 RMSDP=2.04D-06 MaxDP=1.60D-04 DE=-1.35D-08 OVMax= 7.17D-05

 Cycle  14  Pass 1  IDiag  1:
 RMSU=  6.10D-07    CP:  3.23D-01  2.40D+00  2.19D+00  8.27D-01  9.79D-01
                    CP:  9.66D-01  1.47D+00  1.25D+00  1.53D+00  1.89D+00
                    CP:  1.76D+00  1.41D+00  1.65D+00
 E= -3010.53292387418     Delta-E=       -0.000000002878 Rises=F Damp=F
 DIIS: error= 7.88D-07 at cycle  14 NSaved=  14.
 NSaved=14 IEnMin=14 EnMin= -3010.53292387418     IErMin=14 ErrMin= 7.88D-07
 ErrMax= 7.88D-07  0.00D+00 EMaxC= 1.00D-01 BMatC= 1.05D-10 BMatP= 5.10D-10
 IDIUse=1 WtCom= 1.00D+00 WtEn= 0.00D+00
 Coeff-Com:  0.339D-04-0.446D-04-0.542D-05-0.124D-03-0.376D-03-0.768D-03
 Coeff-Com: -0.228D-02 0.478D-02 0.278D-01 0.209D-01-0.152D+00-0.115D+00
 Coeff-Com:  0.381D+00 0.836D+00
 Coeff:      0.339D-04-0.446D-04-0.542D-05-0.124D-03-0.376D-03-0.768D-03
 Coeff:     -0.228D-02 0.478D-02 0.278D-01 0.209D-01-0.152D+00-0.115D+00
 Coeff:      0.381D+00 0.836D+00
 Gap=     0.246 Goal=   None    Shift=    0.000
 RMSDP=9.29D-07 MaxDP=9.18D-05 DE=-2.88D-09 OVMax= 2.38D-05

 Cycle  15  Pass 1  IDiag  1:
 RMSU=  1.77D-07    CP:  3.23D-01  2.40D+00  2.19D+00  8.27D-01  9.79D-01
                    CP:  9.66D-01  1.47D+00  1.25D+00  1.54D+00  1.90D+00
                    CP:  1.75D+00  1.48D+00  2.03D+00  1.29D+00
 E= -3010.53292387462     Delta-E=       -0.000000000439 Rises=F Damp=F
 DIIS: error= 3.24D-07 at cycle  15 NSaved=  15.
 NSaved=15 IEnMin=15 EnMin= -3010.53292387462     IErMin=15 ErrMin= 3.24D-07
 ErrMax= 3.24D-07  0.00D+00 EMaxC= 1.00D-01 BMatC= 2.02D-11 BMatP= 1.05D-10
 IDIUse=1 WtCom= 1.00D+00 WtEn= 0.00D+00
 Coeff-Com:  0.934D-05-0.124D-04 0.376D-05 0.190D-05 0.101D-03 0.139D-03
 Coeff-Com: -0.405D-03-0.701D-03 0.858D-03 0.873D-02-0.656D-02-0.476D-01
 Coeff-Com: -0.119D+00 0.288D+00 0.876D+00
 Coeff:      0.934D-05-0.124D-04 0.376D-05 0.190D-05 0.101D-03 0.139D-03
 Coeff:     -0.405D-03-0.701D-03 0.858D-03 0.873D-02-0.656D-02-0.476D-01
 Coeff:     -0.119D+00 0.288D+00 0.876D+00
 Gap=     0.246 Goal=   None    Shift=    0.000
 RMSDP=4.97D-07 MaxDP=4.31D-05 DE=-4.39D-10 OVMax= 1.24D-05

 Cycle  16  Pass 1  IDiag  1:
 RMSU=  6.36D-08    CP:  3.23D-01  2.40D+00  2.19D+00  8.27D-01  9.79D-01
                    CP:  9.66D-01  1.47D+00  1.25D+00  1.55D+00  1.90D+00
                    CP:  1.74D+00  1.49D+00  2.21D+00  1.50D+00  1.46D+00
 E= -3010.53292387472     Delta-E=       -0.000000000104 Rises=F Damp=F
 DIIS: error= 7.19D-08 at cycle  16 NSaved=  16.
 NSaved=16 IEnMin=16 EnMin= -3010.53292387472     IErMin=16 ErrMin= 7.19D-08
 ErrMax= 7.19D-08  0.00D+00 EMaxC= 1.00D-01 BMatC= 2.39D-12 BMatP= 2.02D-11
 IDIUse=1 WtCom= 1.00D+00 WtEn= 0.00D+00
 Coeff-Com:  0.104D-05-0.143D-05 0.218D-05 0.121D-04 0.630D-04 0.109D-03
 Coeff-Com:  0.120D-03-0.655D-03-0.277D-02 0.147D-02 0.161D-01 0.544D-02
 Coeff-Com: -0.842D-01-0.472D-01 0.193D+00 0.918D+00
 Coeff:      0.104D-05-0.143D-05 0.218D-05 0.121D-04 0.630D-04 0.109D-03
 Coeff:      0.120D-03-0.655D-03-0.277D-02 0.147D-02 0.161D-01 0.544D-02
 Coeff:     -0.842D-01-0.472D-01 0.193D+00 0.918D+00
 Gap=     0.246 Goal=   None    Shift=    0.000
 RMSDP=1.93D-07 MaxDP=2.28D-05 DE=-1.04D-10 OVMax= 2.42D-06

 Cycle  17  Pass 1  IDiag  1:
 RMSU=  2.65D-08    CP:  3.23D-01  2.40D+00  2.19D+00  8.27D-01  9.79D-01
                    CP:  9.66D-01  1.47D+00  1.26D+00  1.55D+00  1.90D+00
                    CP:  1.73D+00  1.49D+00  2.26D+00  1.57D+00  1.74D+00
                    CP:  1.21D+00
 E= -3010.53292387474     Delta-E=       -0.000000000015 Rises=F Damp=F
 DIIS: error= 3.67D-08 at cycle  17 NSaved=  17.
 NSaved=17 IEnMin=17 EnMin= -3010.53292387474     IErMin=17 ErrMin= 3.67D-08
 ErrMax= 3.67D-08  0.00D+00 EMaxC= 1.00D-01 BMatC= 4.68D-13 BMatP= 2.39D-12
 IDIUse=1 WtCom= 1.00D+00 WtEn= 0.00D+00
 Coeff-Com: -0.119D-05 0.157D-05 0.685D-07 0.304D-05 0.296D-05 0.590D-05
 Coeff-Com:  0.703D-04-0.311D-04-0.100D-02-0.797D-03 0.351D-02 0.919D-02
 Coeff-Com: -0.903D-02-0.476D-01-0.687D-01 0.280D+00 0.834D+00
 Coeff:     -0.119D-05 0.157D-05 0.685D-07 0.304D-05 0.296D-05 0.590D-05
 Coeff:      0.703D-04-0.311D-04-0.100D-02-0.797D-03 0.351D-02 0.919D-02
 Coeff:     -0.903D-02-0.476D-01-0.687D-01 0.280D+00 0.834D+00
 Gap=     0.246 Goal=   None    Shift=    0.000
 RMSDP=4.00D-08 MaxDP=2.69D-06 DE=-1.46D-11 OVMax= 1.27D-06

 Cycle  18  Pass 1  IDiag  1:
 RMSU=  8.51D-09    CP:  3.23D-01  2.40D+00  2.19D+00  8.27D-01  9.79D-01
                    CP:  9.66D-01  1.47D+00  1.26D+00  1.55D+00  1.90D+00
                    CP:  1.73D+00  1.50D+00  2.27D+00  1.59D+00  1.83D+00
                    CP:  1.41D+00  1.17D+00
 E= -3010.53292387474     Delta-E=       -0.000000000005 Rises=F Damp=F
 DIIS: error= 1.40D-08 at cycle  18 NSaved=  18.
 NSaved=18 IEnMin=18 EnMin= -3010.53292387474     IErMin=18 ErrMin= 1.40D-08
 ErrMax= 1.40D-08  0.00D+00 EMaxC= 1.00D-01 BMatC= 1.02D-13 BMatP= 4.68D-13
 IDIUse=1 WtCom= 1.00D+00 WtEn= 0.00D+00
 Coeff-Com: -0.482D-07 0.663D-07-0.340D-06-0.209D-05-0.128D-04-0.235D-04
 Coeff-Com: -0.303D-05 0.161D-03 0.242D-03-0.428D-03-0.223D-02 0.337D-02
 Coeff-Com:  0.146D-01-0.570D-02-0.718D-01-0.101D+00 0.291D+00 0.872D+00
 Coeff:     -0.482D-07 0.663D-07-0.340D-06-0.209D-05-0.128D-04-0.235D-04
 Coeff:     -0.303D-05 0.161D-03 0.242D-03-0.428D-03-0.223D-02 0.337D-02
 Coeff:      0.146D-01-0.570D-02-0.718D-01-0.101D+00 0.291D+00 0.872D+00
 Gap=     0.246 Goal=   None    Shift=    0.000
 RMSDP=2.96D-08 MaxDP=3.41D-06 DE=-5.46D-12 OVMax= 4.01D-07

 Cycle  19  Pass 1  IDiag  1:
 RMSU=  3.15D-09    CP:  3.23D-01  2.40D+00  2.19D+00  8.27D-01  9.79D-01
                    CP:  9.66D-01  1.47D+00  1.26D+00  1.55D+00  1.90D+00
                    CP:  1.73D+00  1.50D+00  2.27D+00  1.58D+00  1.87D+00
                    CP:  1.49D+00  1.39D+00  1.12D+00
 E= -3010.53292387475     Delta-E=       -0.000000000010 Rises=F Damp=F
 DIIS: error= 3.14D-09 at cycle  19 NSaved=  19.
 NSaved=19 IEnMin=19 EnMin= -3010.53292387475     IErMin=19 ErrMin= 3.14D-09
 ErrMax= 3.14D-09  0.00D+00 EMaxC= 1.00D-01 BMatC= 4.25D-15 BMatP= 1.02D-13
 IDIUse=1 WtCom= 1.00D+00 WtEn= 0.00D+00
 Coeff-Com:  0.182D-07-0.238D-07-0.380D-07-0.126D-06 0.302D-06-0.559D-06
 Coeff-Com: -0.678D-05-0.217D-06 0.641D-04 0.123D-03-0.520D-03-0.332D-03
 Coeff-Com:  0.370D-03 0.390D-02 0.416D-02-0.231D-01-0.481D-01 0.444D-04
 Coeff-Com:  0.106D+01
 Coeff:      0.182D-07-0.238D-07-0.380D-07-0.126D-06 0.302D-06-0.559D-06
 Coeff:     -0.678D-05-0.217D-06 0.641D-04 0.123D-03-0.520D-03-0.332D-03
 Coeff:      0.370D-03 0.390D-02 0.416D-02-0.231D-01-0.481D-01 0.444D-04
 Coeff:      0.106D+01
 Gap=     0.246 Goal=   None    Shift=    0.000
 RMSDP=4.12D-09 MaxDP=4.39D-07 DE=-1.00D-11 OVMax= 1.12D-07

 SCF Done:  E(RwB97XD) =  -3010.53292387     A.U. after   19 cycles
            NFock= 19  Conv=0.41D-08     -V/T= 2.0016
 KE= 3.005872266370D+03 PE=-8.708914589420D+03 EE= 1.910879556942D+03
 Leave Link  502 at Thu May  2 14:17:58 2024, MaxMem=   134217728 cpu:            1159.6 elap:            1159.8
 (Enter /software/gaussian/g16-c01/sse4/g16/l601.exe)
 Copying SCF densities to generalized density rwf, IOpCl= 0 IROHF=0.

 **********************************************************************

            Population analysis using the SCF Density.

 **********************************************************************

 Alpha  occ. eigenvalues -- -483.38316 -62.93350 -56.73029 -56.72479 -56.72470
 Alpha  occ. eigenvalues --  -19.59003 -19.58885 -14.98039 -10.66641 -10.65360
 Alpha  occ. eigenvalues --  -10.63030 -10.62231 -10.61537 -10.57398  -9.09166
 Alpha  occ. eigenvalues --   -6.91807  -6.89997  -6.89970  -3.01720  -3.01242
 Alpha  occ. eigenvalues --   -3.01220  -2.99771  -2.99771  -1.62559  -1.45646
 Alpha  occ. eigenvalues --   -1.29634  -1.20303  -1.19364  -1.12054  -1.08303
 Alpha  occ. eigenvalues --   -1.01822  -0.98350  -0.95129  -0.92495  -0.90933
 Alpha  occ. eigenvalues --   -0.87800  -0.85360  -0.83622  -0.82673  -0.78668
 Alpha  occ. eigenvalues --   -0.73700  -0.73415  -0.70388  -0.70246  -0.69363
 Alpha  occ. eigenvalues --   -0.68925  -0.66468  -0.63666  -0.61897
 Alpha virt. eigenvalues --   -0.37292  -0.30547  -0.22895  -0.20469  -0.18699
 Alpha virt. eigenvalues --   -0.15652  -0.14539  -0.14012  -0.12574  -0.10189
 Alpha virt. eigenvalues --   -0.09561  -0.09334  -0.08966  -0.07593  -0.06666
 Alpha virt. eigenvalues --   -0.06530  -0.05884  -0.05278  -0.04554  -0.03527
 Alpha virt. eigenvalues --   -0.03236  -0.02025  -0.01330  -0.00576  -0.00200
 Alpha virt. eigenvalues --    0.00167   0.00857   0.01217   0.01790   0.02120
 Alpha virt. eigenvalues --    0.03460   0.03988   0.04677   0.05213   0.05895
 Alpha virt. eigenvalues --    0.06182   0.07068   0.07942   0.08561   0.08899
 Alpha virt. eigenvalues --    0.10224   0.10594   0.10721   0.11530   0.12523
 Alpha virt. eigenvalues --    0.13661   0.14019   0.14932   0.16286   0.17415
 Alpha virt. eigenvalues --    0.17676   0.18035   0.18714   0.20257   0.21188
 Alpha virt. eigenvalues --    0.23301   0.24031   0.24710   0.26351   0.27927
 Alpha virt. eigenvalues --    0.30320   0.30441   0.32966   0.34114   0.35925
 Alpha virt. eigenvalues --    0.37672   0.37803   0.38481   0.39487   0.40829
 Alpha virt. eigenvalues --    0.41863   0.42478   0.43678   0.44810   0.46826
 Alpha virt. eigenvalues --    0.48507   0.49613   0.50986   0.52156   0.53296
 Alpha virt. eigenvalues --    0.56502   0.57031   0.58291   0.60584   0.63136
 Alpha virt. eigenvalues --    0.63741   0.65274   0.66461   0.68184   0.69436
 Alpha virt. eigenvalues --    0.70338   0.71150   0.72281   0.74261   0.75956
 Alpha virt. eigenvalues --    0.79404   0.80375   0.82788   0.86223   0.88143
 Alpha virt. eigenvalues --    0.88945   0.92782   0.95461   0.97722   0.98207
 Alpha virt. eigenvalues --    0.99749   1.01409   1.01780   1.03470   1.07980
 Alpha virt. eigenvalues --    1.10009   1.11344   1.20746   1.26672   1.29959
 Alpha virt. eigenvalues --    1.30532   1.31829   1.36508   1.45605   1.47022
 Alpha virt. eigenvalues --    1.49038   1.50236   1.54454   1.56591   1.59185
 Alpha virt. eigenvalues --    1.60193   1.62799   1.64737   1.69576   1.72708
 Alpha virt. eigenvalues --    1.78095   1.78739   1.80666   1.87224   1.88482
 Alpha virt. eigenvalues --    1.88815   1.93879   1.95130   1.99907   2.02019
 Alpha virt. eigenvalues --    2.06036   2.08181   2.13939   2.16588   2.22440
 Alpha virt. eigenvalues --    2.27168   2.31344   2.33204   2.37134   2.46972
 Alpha virt. eigenvalues --    2.51840   2.55485   2.58421   2.59833   2.61823
 Alpha virt. eigenvalues --    2.63640   2.64462   2.68183   2.70003   2.75371
 Alpha virt. eigenvalues --    2.85536   2.88839   2.92246   2.98195   3.01831
 Alpha virt. eigenvalues --    3.06954   3.10570   3.11258   3.12771   3.13888
 Alpha virt. eigenvalues --    3.20541   3.28166   3.41334   3.42172   3.42961
 Alpha virt. eigenvalues --    3.49467   3.56619   3.61828   3.77282   3.80767
 Alpha virt. eigenvalues --    4.02787   4.03649   4.12164   4.16380   4.31907
 Alpha virt. eigenvalues --    4.36509   4.46325   4.50421   4.80372   4.83121
 Alpha virt. eigenvalues --    4.91984   4.96477   5.49357   6.02081   6.60849
 Alpha virt. eigenvalues --    7.41684   7.43999   7.54176  23.15978  23.54801
 Alpha virt. eigenvalues --   23.64818  23.72507  23.90183  23.95065  35.19150
 Alpha virt. eigenvalues --   47.86992  49.72464  49.81126 289.74646 289.76986
 Alpha virt. eigenvalues --  289.896181020.88193
          Condensed to atoms (all electrons):
               1          2          3          4          5          6
     1  C    6.816095  -1.564642   0.499013   0.030826   0.287564   0.062663
     2  C   -1.564642  16.518388  -3.870575   0.445984  -0.029473   0.245395
     3  C    0.499013  -3.870575  19.693407  -0.875101   0.025213   0.094872
     4  C    0.030826   0.445984  -0.875101   6.214853   0.036213  -0.019771
     5  H    0.287564  -0.029473   0.025213   0.036213   0.286646  -0.001513
     6  H    0.062663   0.245395   0.094872  -0.019771  -0.001513   0.337740
     7  H    0.020231  -0.012179   0.006648   0.296978  -0.001660   0.000012
     8  N   -0.024944  -0.214282  -1.870746  -0.004033  -0.000467  -0.033156
     9  O   -0.000648   0.309074   0.010077  -0.007316  -0.000019  -0.002111
    10  O    0.164866  -0.213989  -0.249106  -0.024125  -0.000061   0.013890
    11  C    0.419664  -0.708210   0.604909  -0.048792  -0.021764   0.011216
    12  H   -0.012945   0.017345   0.001637   0.036208   0.000059  -0.000014
    13  C   -0.578507  -4.975742  -7.724998   0.234598   0.023454  -0.034575
    14  H    0.001977   0.065774   0.254515  -0.007428  -0.000032   0.000110
    15  Br   0.017705  -0.184548  -0.425636  -0.007069   0.000049  -0.001022
               7          8          9         10         11         12
     1  C    0.020231  -0.024944  -0.000648   0.164866   0.419664  -0.012945
     2  C   -0.012179  -0.214282   0.309074  -0.213989  -0.708210   0.017345
     3  C    0.006648  -1.870746   0.010077  -0.249106   0.604909   0.001637
     4  C    0.296978  -0.004033  -0.007316  -0.024125  -0.048792   0.036208
     5  H   -0.001660  -0.000467  -0.000019  -0.000061  -0.021764   0.000059
     6  H    0.000012  -0.033156  -0.002111   0.013890   0.011216  -0.000014
     7  H    0.261670   0.000183  -0.000008   0.000005   0.021755  -0.001537
     8  N    0.000183   7.346095   0.193654   0.303029   0.012907  -0.000420
     9  O   -0.000008   0.193654   7.934516  -0.036324   0.113819   0.000164
    10  O    0.000005   0.303029  -0.036324   7.885936   0.017399  -0.000023
    11  C    0.021755   0.012907   0.113819   0.017399   6.861615   0.311056
    12  H   -0.001537  -0.000420   0.000164  -0.000023   0.311056   0.273211
    13  C   -0.012449   1.408305  -0.476917   0.162257  -1.430796  -0.033549
    14  H   -0.000007  -0.054491   0.013624  -0.001971  -0.082237  -0.003243
    15  Br  -0.000398   0.175229  -0.059858   0.007418   0.063212   0.005663
              13         14         15
     1  C   -0.578507   0.001977   0.017705
     2  C   -4.975742   0.065774  -0.184548
     3  C   -7.724998   0.254515  -0.425636
     4  C    0.234598  -0.007428  -0.007069
     5  H    0.023454  -0.000032   0.000049
     6  H   -0.034575   0.000110  -0.001022
     7  H   -0.012449  -0.000007  -0.000398
     8  N    1.408305  -0.054491   0.175229
     9  O   -0.476917   0.013624  -0.059858
    10  O    0.162257  -0.001971   0.007418
    11  C   -1.430796  -0.082237   0.063212
    12  H   -0.033549  -0.003243   0.005663
    13  C   18.987878   0.115065   0.571628
    14  H    0.115065   0.365711  -0.054287
    15  Br   0.571628  -0.054287  34.745445
 Mulliken charges:
               1
     1  C   -0.138918
     2  C    0.171679
     3  C   -0.174129
     4  C   -0.302025
     5  H    0.395789
     6  H    0.326264
     7  H    0.420758
     8  N   -0.236861
     9  O    0.008273
    10  O   -0.029201
    11  C   -0.145749
    12  H    0.406388
    13  C   -0.235654
    14  H    0.386919
    15  Br   0.146467
 Sum of Mulliken charges =   1.00000
 Mulliken charges with hydrogens summed into heavy atoms:
               1
     1  C    0.256871
     2  C    0.497942
     3  C   -0.174129
     4  C    0.118733
     8  N   -0.236861
     9  O    0.008273
    10  O   -0.029201
    11  C    0.260638
    13  C    0.151266
    15  Br   0.146467
 Electronic spatial extent (au):  <R**2>=           3964.5623
 Charge=              1.0000 electrons
 Dipole moment (field-independent basis, Debye):
    X=             -3.0724    Y=             -0.6227    Z=             -0.4810  Tot=              3.1715
 Quadrupole moment (field-independent basis, Debye-Ang):
   XX=            -91.5332   YY=            -51.5890   ZZ=            -62.8334
   XY=             -1.4836   XZ=             -0.9741   YZ=              1.8151
 Traceless Quadrupole moment (field-independent basis, Debye-Ang):
   XX=            -22.8813   YY=             17.0629   ZZ=              5.8185
   XY=             -1.4836   XZ=             -0.9741   YZ=              1.8151
 Octapole moment (field-independent basis, Debye-Ang**2):
  XXX=           -635.3947  YYY=             94.3003  ZZZ=             84.9024  XYY=           -150.2352
  XXY=             28.5648  XXZ=             31.0674  XZZ=           -140.1728  YZZ=             18.9134
  YYZ=             27.2228  XYZ=              4.6080
 Hexadecapole moment (field-independent basis, Debye-Ang**3):
 XXXX=          -4064.7375 YYYY=           -705.0994 ZZZZ=           -400.7977 XXXY=            188.0984
 XXXZ=            201.6079 YYYX=            195.6369 YYYZ=           -176.4702 ZZZX=            178.2836
 ZZZY=           -148.7550 XXYY=           -680.4332 XXZZ=           -555.9046 YYZZ=           -175.4744
 XXYZ=            -53.1406 YYXZ=             57.8005 ZZXY=             37.8825
 N-N= 7.816298422328D+02 E-N=-8.708914588611D+03  KE= 3.005872266370D+03
 No NMR shielding tensors so no spin-rotation constants.
 Leave Link  601 at Thu May  2 14:18:06 2024, MaxMem=   134217728 cpu:               7.6 elap:               7.6
 (Enter /software/gaussian/g16-c01/sse4/g16/l9999.exe)
 Unable to Open any file for archive entry.
 1\1\GINC-BHX0008\SP\RwB97XD\6-311+G(d)\C6H5Br1N1O2(1+)\BWEIGHT\02-May-
 2024\0\\#P wB97XD/6-311+G* NoSymm #P Field=X+204\\TitleMe\\1,1\C,0,0.5
 193,1.233,-0.0319\C,0,1.9445,1.2692,-0.0367\C,0,2.6204,0.0928,-0.025\C
 ,0,-0.196,0.0301,0.001\H,0,-0.0207,2.1742,-0.0434\H,0,2.4828,2.2089,-0
 .0361\H,0,-1.2777,0.0399,0.0117\N,0,4.0921,0.0959,0.0366\O,0,4.6393,-1
 .0217,0.1446\O,0,4.6649,1.1984,-0.0233\C,0,0.4943,-1.1671,0.021\H,0,-0
 .0325,-2.1149,0.0545\C,0,1.9629,-1.2165,-0.0211\H,0,2.4436,-1.9631,0.6
 151\Br,0,2.173,-1.9491,-1.9062\\Version=ES64L-G16RevC.01\HF=-3010.5329
 239\RMSD=4.121e-09\Dipole=-5.5379769,0.9831449,1.0599885\Quadrupole=-1
 7.011698,12.685819,4.325879,-1.1030134,-0.7241876,1.3495181\PG=C01 [X(
 C6H5Br1N1O2)]\\@
 The archive entry for this job was punched.


 MY DESCRIPTION OF EXPERIENCE IS NOT WHAT HAPPENS
 TO A MAN.  EXPERIENCE IS WHAT A MAN DOES WITH WHAT
 HAPPENS TO HIM.
                         - CHUCK KNOX, SEATTLE SEAHAWKS, 1985
 Job cpu time:       0 days  0 hours 20 minutes 29.8 seconds.
 Elapsed time:       0 days  0 hours 20 minutes 30.0 seconds.
 File lengths (MBytes):  RWF=     40 Int=      0 D2E=      0 Chk=     32 Scr=      1
 Normal termination of Gaussian 16 at Thu May  2 14:18:07 2024.
