 Entering Gaussian System, Link 0=g16
 Initial command:
 /software/gaussian/g16-c01/sse4/g16/l1.exe "/local_scratch/24657570/Gau-16699.inp" -scrdir="/local_scratch/24657570/"
 Entering Link 1 = /software/gaussian/g16-c01/sse4/g16/l1.exe PID=     16701.
  
 Copyright (c) 1988-2019, Gaussian, Inc.  All Rights Reserved.
  
 This is part of the Gaussian(R) 16 program.  It is based on
 the Gaussian(R) 09 system (copyright 2009, Gaussian, Inc.),
 the Gaussian(R) 03 system (copyright 2003, Gaussian, Inc.),
 the Gaussian(R) 98 system (copyright 1998, Gaussian, Inc.),
 the Gaussian(R) 94 system (copyright 1995, Gaussian, Inc.),
 the Gaussian 92(TM) system (copyright 1992, Gaussian, Inc.),
 the Gaussian 90(TM) system (copyright 1990, Gaussian, Inc.),
 the Gaussian 88(TM) system (copyright 1988, Gaussian, Inc.),
 the Gaussian 86(TM) system (copyright 1986, Carnegie Mellon
 University), and the Gaussian 82(TM) system (copyright 1983,
 Carnegie Mellon University). Gaussian is a federally registered
 trademark of Gaussian, Inc.
  
 This software contains proprietary and confidential information,
 including trade secrets, belonging to Gaussian, Inc.
  
 This software is provided under written license and may be
 used, copied, transmitted, or stored only in accord with that
 written license.
  
 The following legend is applicable only to US Government
 contracts under FAR:
  
                    RESTRICTED RIGHTS LEGEND
  
 Use, reproduction and disclosure by the US Government is
 subject to restrictions as set forth in subparagraphs (a)
 and (c) of the Commercial Computer Software - Restricted
 Rights clause in FAR 52.227-19.
  
 Gaussian, Inc.
 340 Quinnipiac St., Bldg. 40, Wallingford CT 06492
  
  
 ---------------------------------------------------------------
 Warning -- This program may not be used in any manner that
 competes with the business of Gaussian, Inc. or will provide
 assistance to any competitor of Gaussian, Inc.  The licensee
 of this program is prohibited from giving any competitor of
 Gaussian, Inc. access to this program.  By using this program,
 the user acknowledges that Gaussian, Inc. is engaged in the
 business of creating and licensing software in the field of
 computational chemistry and represents and warrants to the
 licensee that it is not a competitor of Gaussian, Inc. and that
 it will not use this program in any manner prohibited above.
 ---------------------------------------------------------------
  

 Cite this work as:
 Gaussian 16, Revision C.01,
 M. J. Frisch, G. W. Trucks, H. B. Schlegel, G. E. Scuseria, 
 M. A. Robb, J. R. Cheeseman, G. Scalmani, V. Barone, 
 G. A. Petersson, H. Nakatsuji, X. Li, M. Caricato, A. V. Marenich, 
 J. Bloino, B. G. Janesko, R. Gomperts, B. Mennucci, H. P. Hratchian, 
 J. V. Ortiz, A. F. Izmaylov, J. L. Sonnenberg, D. Williams-Young, 
 F. Ding, F. Lipparini, F. Egidi, J. Goings, B. Peng, A. Petrone, 
 T. Henderson, D. Ranasinghe, V. G. Zakrzewski, J. Gao, N. Rega, 
 G. Zheng, W. Liang, M. Hada, M. Ehara, K. Toyota, R. Fukuda, 
 J. Hasegawa, M. Ishida, T. Nakajima, Y. Honda, O. Kitao, H. Nakai, 
 T. Vreven, K. Throssell, J. A. Montgomery, Jr., J. E. Peralta, 
 F. Ogliaro, M. J. Bearpark, J. J. Heyd, E. N. Brothers, K. N. Kudin, 
 V. N. Staroverov, T. A. Keith, R. Kobayashi, J. Normand, 
 K. Raghavachari, A. P. Rendell, J. C. Burant, S. S. Iyengar, 
 J. Tomasi, M. Cossi, J. M. Millam, M. Klene, C. Adamo, R. Cammi, 
 J. W. Ochterski, R. L. Martin, K. Morokuma, O. Farkas, 
 J. B. Foresman, and D. J. Fox, Gaussian, Inc., Wallingford CT, 2019.
 
 ******************************************
 Gaussian 16:  ES64L-G16RevC.01  3-Jul-2019
                 1-May-2024 
 ******************************************
 %chk=geometry.chk
 %mem=9GB
 %nprocshared=12
 Will use up to   12 processors via shared memory.
 ---------------------------------------
 #P wB97XD/6-311+G* NoSymm #P Field=Z+87
 ---------------------------------------
 1/38=1,172=1/1;
 2/12=2,15=1,17=6,18=5,40=1/2;
 3/5=4,6=6,7=11,11=2,14=3,15=87,25=1,30=1,74=-58/1,2,3;
 4//1;
 5/5=2,38=5/2;
 6/7=2,8=2,9=2,10=2,28=1/1;
 99/5=1,9=1/99;
 Leave Link    1 at Wed May  1 15:08:03 2024, MaxMem=  1207959552 cpu:               1.3 elap:               1.3
 (Enter /software/gaussian/g16-c01/sse4/g16/l101.exe)
 -------
 TitleMe
 -------
 Symbolic Z-matrix:
 Charge =  1 Multiplicity = 1
 C                     0.0295    1.3397    0.0682 
 C                     1.4348    1.2867    0.0064 
 C                     2.1118    0.0511   -0.0054 
 C                     1.4451   -1.1372    0.0312 
 C                    -0.6879    0.1682    0.11 
 H                    -0.4713    2.2984    0.0781 
 H                     2.0273    2.1965   -0.0322 
 H                     1.9897   -2.0764    0.0232 
 H                    -1.7716    0.1804    0.1582 
 N                     3.5864    0.051    -0.0675 
 O                     4.1471   -1.0597   -0.0881 
 O                     4.145     1.1639   -0.0901 
 C                    -0.0236   -1.1458    0.0835 
 H                    -0.4367   -1.8725    0.7889 
 Br                   -0.5359   -1.8697   -1.7408 
 
 ITRead=  0  0  0  0  0  0  0  0  0  0  0  0  0  0  0
 MicOpt= -1 -1 -1 -1 -1 -1 -1 -1 -1 -1 -1 -1 -1 -1 -1
 NAtoms=     15 NQM=       15 NQMF=       0 NMMI=      0 NMMIF=      0
                NMic=       0 NMicF=      0.
                    Isotopes and Nuclear Properties:
 (Nuclear quadrupole moments (NQMom) in fm**2, nuclear magnetic moments (NMagM)
  in nuclear magnetons)

  Atom         1           2           3           4           5           6           7           8           9          10
 IAtWgt=          12          12          12          12          12           1           1           1           1          14
 AtmWgt=  12.0000000  12.0000000  12.0000000  12.0000000  12.0000000   1.0078250   1.0078250   1.0078250   1.0078250  14.0030740
 NucSpn=           0           0           0           0           0           1           1           1           1           2
 AtZEff=  -0.0000000  -0.0000000  -0.0000000  -0.0000000  -0.0000000  -0.0000000  -0.0000000  -0.0000000  -0.0000000  -0.0000000
 NQMom=    0.0000000   0.0000000   0.0000000   0.0000000   0.0000000   0.0000000   0.0000000   0.0000000   0.0000000   2.0440000
 NMagM=    0.0000000   0.0000000   0.0000000   0.0000000   0.0000000   2.7928460   2.7928460   2.7928460   2.7928460   0.4037610
 AtZNuc=   6.0000000   6.0000000   6.0000000   6.0000000   6.0000000   1.0000000   1.0000000   1.0000000   1.0000000   7.0000000

  Atom        11          12          13          14          15
 IAtWgt=          16          16          12           1          79
 AtmWgt=  15.9949146  15.9949146  12.0000000   1.0078250  78.9183361
 NucSpn=           0           0           0           1           3
 AtZEff=  -0.0000000  -0.0000000  -0.0000000  -0.0000000  -0.0000000
 NQMom=    0.0000000   0.0000000   0.0000000   0.0000000  31.3000000
 NMagM=    0.0000000   0.0000000   0.0000000   2.7928460   2.1063990
 AtZNuc=   8.0000000   8.0000000   6.0000000   1.0000000  35.0000000
 Leave Link  101 at Wed May  1 15:08:04 2024, MaxMem=  1207959552 cpu:               1.5 elap:               1.5
 (Enter /software/gaussian/g16-c01/sse4/g16/l202.exe)
                          Input orientation:                          
 ---------------------------------------------------------------------
 Center     Atomic      Atomic             Coordinates (Angstroms)
 Number     Number       Type             X           Y           Z
 ---------------------------------------------------------------------
      1          6           0        0.029500    1.339700    0.068200
      2          6           0        1.434800    1.286700    0.006400
      3          6           0        2.111800    0.051100   -0.005400
      4          6           0        1.445100   -1.137200    0.031200
      5          6           0       -0.687900    0.168200    0.110000
      6          1           0       -0.471300    2.298400    0.078100
      7          1           0        2.027300    2.196500   -0.032200
      8          1           0        1.989700   -2.076400    0.023200
      9          1           0       -1.771600    0.180400    0.158200
     10          7           0        3.586400    0.051000   -0.067500
     11          8           0        4.147100   -1.059700   -0.088100
     12          8           0        4.145000    1.163900   -0.090100
     13          6           0       -0.023600   -1.145800    0.083500
     14          1           0       -0.436700   -1.872500    0.788900
     15         35           0       -0.535900   -1.869700   -1.740800
 ---------------------------------------------------------------------
                    Distance matrix (angstroms):
                    1          2          3          4          5
     1  C    0.000000
     2  C    1.407656   0.000000
     3  C    2.449874   1.408963   0.000000
     4  C    2.853126   2.424049   1.363043   0.000000
     5  C    1.374344   2.401589   2.804523   2.501993   0.000000
     6  H    1.081667   2.159142   3.424870   3.934226   2.141421
     7  H    2.176095   1.086408   2.147231   3.384750   3.392128
     8  H    3.938800   3.408612   2.131193   1.085702   3.495040
     9  H    2.143837   3.395283   3.888995   3.478413   1.084840
    10  N    3.785591   2.482297   1.475907   2.450862   4.279589
    11  O    4.768247   3.587631   2.320164   2.705743   4.992415
    12  O    4.122294   2.714696   2.319353   3.549540   4.938459
    13  C    2.486114   2.837240   2.449573   1.469656   1.472614
    14  H    3.324903   3.754379   3.290289   2.157764   2.165286
    15  Br   3.727252   4.110867   3.702891   2.756973   2.757100
                    6          7          8          9         10
     6  H    0.000000
     7  H    2.503108   0.000000
     8  H    5.019802   4.273425   0.000000
     9  H    2.486588   4.304945   4.388479   0.000000
    10  N    4.640790   2.652397   2.661486   5.364313   0.000000
    11  O    5.712624   3.885809   2.387560   6.052233   1.244373
    12  O    4.756638   2.356750   3.893289   6.002923   1.245428
    13  C    3.473180   3.923079   2.218790   2.195425   3.806210
    14  H    4.231175   4.827242   2.552506   2.528663   4.540772
    15  Br   4.548146   5.101303   3.087568   3.055498   4.845862
                   11         12         13         14         15
    11  O    0.000000
    12  O    2.223602   0.000000
    13  C    4.175117   4.768865   0.000000
    14  H    4.737193   5.566358   1.093770   0.000000
    15  Br   5.031700   5.817075   2.028436   2.531646   0.000000
 Symmetry turned off by external request.
 Stoichiometry    C6H5BrNO2(1+)
 Framework group  C1[X(C6H5BrNO2)]
 Deg. of freedom    39
 Full point group                 C1      NOp   1
 Rotational constants (GHZ):           1.8252210           0.5518633           0.4576002
 Leave Link  202 at Wed May  1 15:08:05 2024, MaxMem=  1207959552 cpu:               1.2 elap:               1.2
 (Enter /software/gaussian/g16-c01/sse4/g16/l301.exe)
 Standard basis: 6-311+G(d) (5D, 7F)
 Ernie: Thresh=  0.10000D-02 Tol=  0.10000D-05 Strict=F.
 The following finite field(s) will be applied:
 An electric field of              0.0000  0.0000  0.0087
   261 basis functions,   443 primitive gaussians,   273 cartesian basis functions
    49 alpha electrons       49 beta electrons
       nuclear repulsion energy       739.2122215416 Hartrees.
 IExCor= 4639 DFT=T Ex+Corr=wB97XD ExCW=0 ScaHFX=  1.000000
 ScaDFX=  1.000000  1.000000  1.000000  1.000000 ScalE2=  1.000000  1.000000
 IRadAn=      5 IRanWt=     -1 IRanGd=            0 ICorTp=0 IEmpDi=121
 HFx  wShort=  0.000000 wLong=  0.200000 cFull=  0.222036 cShort=  0.000000 cLong=  0.777964
 DFx  wShort=  0.000000 wLong=  0.200000 cFull=  0.000000 cShort=  0.000000 cLong=  1.000000
 NAtoms=   15 NActive=   15 NUniq=   15 SFac= 1.00D+00 NAtFMM=   60 NAOKFM=F Big=F
 Integral buffers will be    131072 words long.
 Raffenetti 2 integral format.
 Two-electron integral symmetry is turned off.
 R6Disp:  Grimme-D2 Dispersion energy=       -0.0077368520 Hartrees.
 Nuclear repulsion after empirical dispersion term =      739.2044846896 Hartrees.
 Leave Link  301 at Wed May  1 15:08:06 2024, MaxMem=  1207959552 cpu:               1.0 elap:               1.0
 (Enter /software/gaussian/g16-c01/sse4/g16/l302.exe)
 NPDir=0 NMtPBC=     1 NCelOv=     1 NCel=       1 NClECP=     1 NCelD=      1
         NCelK=      1 NCelE2=     1 NClLst=     1 CellRange=     0.0.
 One-electron integrals computed using PRISM.
 NBasis=   261 RedAO= T EigKep=  2.35D-06  NBF=   261
 NBsUse=   261 1.00D-06 EigRej= -1.00D+00 NBFU=   261
 Precomputing XC quadrature grid using
 IXCGrd= 4 IRadAn=           5 IRanWt=          -1 IRanGd=           0 AccXCQ= 0.00D+00.
 Generated NRdTot=       0 NPtTot=           0 NUsed=           0 NTot=          32
 NSgBfM=   273   273   273   273   273 MxSgAt=    15 MxSgA2=    15.
 Leave Link  302 at Wed May  1 15:08:27 2024, MaxMem=  1207959552 cpu:              20.8 elap:              20.9
 (Enter /software/gaussian/g16-c01/sse4/g16/l303.exe)
 DipDrv:  MaxL=1.
 The nuclear repulsion energy is now       738.2172831638 hartrees.
 Leave Link  303 at Wed May  1 15:08:31 2024, MaxMem=  1207959552 cpu:               3.3 elap:               3.3
 (Enter /software/gaussian/g16-c01/sse4/g16/l401.exe)
 ExpMin= 3.50D-02 ExpMax= 4.40D+05 ExpMxC= 1.51D+04 IAcc=3 IRadAn=         5 AccDes= 0.00D+00
 Harris functional with IExCor= 4639 and IRadAn=       5 diagonalized for initial guess.
 HarFok:  IExCor= 4639 AccDes= 0.00D+00 IRadAn=         5 IDoV= 1 UseB2=F ITyADJ=14
 ICtDFT=  3500011 ScaDFX=  1.000000  1.000000  1.000000  1.000000
 FoFCou: FMM=F IPFlag=           0 FMFlag=      100000 FMFlg1=           0
         NFxFlg=           0 DoJE=T BraDBF=F KetDBF=T FulRan=T
         wScrn=  0.000000 ICntrl=       500 IOpCl=  0 I1Cent=   200000004 NGrid=           0
         NMat0=    1 NMatS0=      1 NMatT0=    0 NMatD0=    1 NMtDS0=    0 NMtDT0=    0
 Symmetry not used in FoFCou.
 Harris En= -2970.59877049284    
 JPrj=0 DoOrth=F DoCkMO=F.
 Leave Link  401 at Wed May  1 15:09:00 2024, MaxMem=  1207959552 cpu:              29.5 elap:              29.5
 (Enter /software/gaussian/g16-c01/sse4/g16/l502.exe)
 Two-electron integral symmetry not used.
 Closed shell SCF:
 Using DIIS extrapolation, IDIIS=  1040.
 NGot=  1207959552 LenX=  1207804877 LenY=  1207729907
 Requested convergence on RMS density matrix=1.00D-08 within 128 cycles.
 Requested convergence on MAX density matrix=1.00D-06.
 Requested convergence on             energy=1.00D-06.
 No special actions if energy rises.
 Fock matrices will be formed incrementally for  20 cycles.

 Cycle   1  Pass 1  IDiag  1:
 FoFJK:  IHMeth= 1 ICntrl=       0 DoSepK=T KAlg= 0 I1Cent=           0 FoldK=F
 IRaf=         1 NMat=       1 IRICut=       1 DoRegI=T DoRafI=F ISym2E= 0 IDoP0=0 IntGTp=1.
 FoFCou: FMM=F IPFlag=           0 FMFlag=      100000 FMFlg1=           0
         NFxFlg=           0 DoJE=T BraDBF=F KetDBF=F FulRan=T
         wScrn=  0.000000 ICntrl=       500 IOpCl=  0 I1Cent=           0 NGrid=           0
         NMat0=    1 NMatS0=      1 NMatT0=    0 NMatD0=    1 NMtDS0=    0 NMtDT0=    0
 Symmetry not used in FoFCou.
 E= -3009.71812284949    
 DIIS: error= 3.21D-01 at cycle   1 NSaved=   1.
 NSaved= 1 IEnMin= 1 EnMin= -3009.71812284949     IErMin= 1 ErrMin= 3.21D-01
 ErrMax= 3.21D-01  0.00D+00 EMaxC= 1.00D-01 BMatC= 1.20D+01 BMatP= 1.20D+01
 IDIUse=3 WtCom= 0.00D+00 WtEn= 1.00D+00
 Coeff-Com:  0.100D+01
 Coeff-En:   0.100D+01
 Coeff:      0.100D+01
 Gap=     0.327 Goal=   None    Shift=    0.000
 GapD=    0.327 DampG=1.000 DampE=0.250 DampFc=0.2500 IDamp=-1.
 Damping current iteration by 2.50D-01
 RMSDP=5.75D-02 MaxDP=7.32D+00              OVMax= 2.54D-01

 Cycle   2  Pass 1  IDiag  1:
 RMSU=  4.77D-03    CP:  8.73D-01
 E= -3010.00520889191     Delta-E=       -0.287086042420 Rises=F Damp=T
 DIIS: error= 2.25D-01 at cycle   2 NSaved=   2.
 NSaved= 2 IEnMin= 2 EnMin= -3010.00520889191     IErMin= 2 ErrMin= 2.25D-01
 ErrMax= 2.25D-01  0.00D+00 EMaxC= 1.00D-01 BMatC= 5.46D+00 BMatP= 1.20D+01
 IDIUse=3 WtCom= 0.00D+00 WtEn= 1.00D+00
 Coeff-Com: -0.183D+01 0.283D+01
 Coeff-En:   0.000D+00 0.100D+01
 Coeff:      0.000D+00 0.100D+01
 Gap=     0.294 Goal=   None    Shift=    0.000
 RMSDP=4.41D-02 MaxDP=5.57D+00 DE=-2.87D-01 OVMax= 7.10D-02

 Cycle   3  Pass 1  IDiag  1:
 RMSU=  4.41D-03    CP:  4.76D-01  3.00D+00
 E= -3010.38400057299     Delta-E=       -0.378791681078 Rises=F Damp=F
 DIIS: error= 6.60D-02 at cycle   3 NSaved=   3.
 NSaved= 3 IEnMin= 3 EnMin= -3010.38400057299     IErMin= 3 ErrMin= 6.60D-02
 ErrMax= 6.60D-02  0.00D+00 EMaxC= 1.00D-01 BMatC= 7.44D-01 BMatP= 5.46D+00
 IDIUse=3 WtCom= 3.40D-01 WtEn= 6.60D-01
 Coeff-Com:  0.274D+01-0.361D+01 0.186D+01
 Coeff-En:   0.351D-01 0.000D+00 0.965D+00
 Coeff:      0.956D+00-0.123D+01 0.127D+01
 Gap=     0.264 Goal=   None    Shift=    0.000
 RMSDP=8.30D-03 MaxDP=4.52D-01 DE=-3.79D-01 OVMax= 7.28D-02

 Cycle   4  Pass 1  IDiag  1:
 RMSU=  5.01D-03    CP:  4.99D-01  2.34D+00  1.86D+00
 E= -3010.49198444256     Delta-E=       -0.107983869574 Rises=F Damp=F
 DIIS: error= 3.78D-02 at cycle   4 NSaved=   4.
 NSaved= 4 IEnMin= 4 EnMin= -3010.49198444256     IErMin= 4 ErrMin= 3.78D-02
 ErrMax= 3.78D-02  0.00D+00 EMaxC= 1.00D-01 BMatC= 2.25D-01 BMatP= 7.44D-01
 IDIUse=3 WtCom= 6.22D-01 WtEn= 3.78D-01
 Coeff-Com: -0.219D+00 0.304D+00 0.248D+00 0.667D+00
 Coeff-En:   0.000D+00 0.000D+00 0.189D+00 0.811D+00
 Coeff:     -0.136D+00 0.189D+00 0.226D+00 0.721D+00
 Gap=     0.260 Goal=   None    Shift=    0.000
 RMSDP=3.97D-03 MaxDP=4.27D-01 DE=-1.08D-01 OVMax= 3.17D-02

 Cycle   5  Pass 1  IDiag  1:
 RMSU=  1.36D-03    CP:  4.69D-01  2.65D+00  1.72D+00  8.73D-01
 E= -3010.53638644696     Delta-E=       -0.044402004401 Rises=F Damp=F
 DIIS: error= 6.87D-03 at cycle   5 NSaved=   5.
 NSaved= 5 IEnMin= 5 EnMin= -3010.53638644696     IErMin= 5 ErrMin= 6.87D-03
 ErrMax= 6.87D-03  0.00D+00 EMaxC= 1.00D-01 BMatC= 7.34D-03 BMatP= 2.25D-01
 IDIUse=3 WtCom= 9.31D-01 WtEn= 6.87D-02
 Coeff-Com: -0.144D+00 0.195D+00 0.271D-01 0.313D+00 0.609D+00
 Coeff-En:   0.000D+00 0.000D+00 0.000D+00 0.000D+00 0.100D+01
 Coeff:     -0.134D+00 0.182D+00 0.252D-01 0.292D+00 0.635D+00
 Gap=     0.249 Goal=   None    Shift=    0.000
 RMSDP=5.17D-04 MaxDP=3.29D-02 DE=-4.44D-02 OVMax= 1.12D-02

 Cycle   6  Pass 1  IDiag  1:
 RMSU=  3.91D-04    CP:  4.67D-01  2.65D+00  1.74D+00  8.83D-01  7.93D-01
 E= -3010.53791095675     Delta-E=       -0.001524509790 Rises=F Damp=F
 DIIS: error= 5.21D-04 at cycle   6 NSaved=   6.
 NSaved= 6 IEnMin= 6 EnMin= -3010.53791095675     IErMin= 6 ErrMin= 5.21D-04
 ErrMax= 5.21D-04  0.00D+00 EMaxC= 1.00D-01 BMatC= 7.26D-05 BMatP= 7.34D-03
 IDIUse=3 WtCom= 9.95D-01 WtEn= 5.21D-03
 Coeff-Com: -0.754D-01 0.101D+00-0.126D-01 0.108D+00 0.286D+00 0.593D+00
 Coeff-En:   0.000D+00 0.000D+00 0.000D+00 0.000D+00 0.000D+00 0.100D+01
 Coeff:     -0.750D-01 0.101D+00-0.125D-01 0.107D+00 0.284D+00 0.595D+00
 Gap=     0.250 Goal=   None    Shift=    0.000
 RMSDP=1.65D-04 MaxDP=1.02D-02 DE=-1.52D-03 OVMax= 3.78D-03

 Cycle   7  Pass 1  IDiag  1:
 RMSU=  8.32D-05    CP:  4.67D-01  2.63D+00  1.75D+00  8.89D-01  8.71D-01
                    CP:  9.44D-01
 E= -3010.53797185475     Delta-E=       -0.000060897998 Rises=F Damp=F
 DIIS: error= 4.45D-04 at cycle   7 NSaved=   7.
 NSaved= 7 IEnMin= 7 EnMin= -3010.53797185475     IErMin= 7 ErrMin= 4.45D-04
 ErrMax= 4.45D-04  0.00D+00 EMaxC= 1.00D-01 BMatC= 1.74D-05 BMatP= 7.26D-05
 IDIUse=3 WtCom= 9.96D-01 WtEn= 4.45D-03
 Coeff-Com: -0.318D-01 0.423D-01-0.124D-01 0.299D-01 0.948D-01 0.352D+00
 Coeff-Com:  0.525D+00
 Coeff-En:   0.000D+00 0.000D+00 0.000D+00 0.000D+00 0.000D+00 0.000D+00
 Coeff-En:   0.100D+01
 Coeff:     -0.316D-01 0.421D-01-0.124D-01 0.298D-01 0.944D-01 0.351D+00
 Coeff:      0.527D+00
 Gap=     0.250 Goal=   None    Shift=    0.000
 RMSDP=6.85D-05 MaxDP=5.37D-03 DE=-6.09D-05 OVMax= 2.39D-03

 Cycle   8  Pass 1  IDiag  1:
 RMSU=  5.24D-05    CP:  4.67D-01  2.63D+00  1.76D+00  8.92D-01  8.80D-01
                    CP:  1.03D+00  9.96D-01
 E= -3010.53798676512     Delta-E=       -0.000014910364 Rises=F Damp=F
 DIIS: error= 1.43D-04 at cycle   8 NSaved=   8.
 NSaved= 8 IEnMin= 8 EnMin= -3010.53798676512     IErMin= 8 ErrMin= 1.43D-04
 ErrMax= 1.43D-04  0.00D+00 EMaxC= 1.00D-01 BMatC= 3.30D-06 BMatP= 1.74D-05
 IDIUse=3 WtCom= 9.99D-01 WtEn= 1.43D-03
 Coeff-Com:  0.624D-02-0.856D-02-0.295D-02-0.167D-01-0.419D-01-0.111D-01
 Coeff-Com:  0.294D+00 0.781D+00
 Coeff-En:   0.000D+00 0.000D+00 0.000D+00 0.000D+00 0.000D+00 0.000D+00
 Coeff-En:   0.000D+00 0.100D+01
 Coeff:      0.623D-02-0.855D-02-0.295D-02-0.167D-01-0.419D-01-0.111D-01
 Coeff:      0.293D+00 0.781D+00
 Gap=     0.250 Goal=   None    Shift=    0.000
 RMSDP=5.87D-05 MaxDP=4.85D-03 DE=-1.49D-05 OVMax= 1.86D-03

 Cycle   9  Pass 1  IDiag  1:
 RMSU=  2.24D-05    CP:  4.67D-01  2.63D+00  1.76D+00  8.93D-01  8.85D-01
                    CP:  1.14D+00  1.31D+00  1.28D+00
 E= -3010.53799235214     Delta-E=       -0.000005587027 Rises=F Damp=F
 DIIS: error= 4.46D-05 at cycle   9 NSaved=   9.
 NSaved= 9 IEnMin= 9 EnMin= -3010.53799235214     IErMin= 9 ErrMin= 4.46D-05
 ErrMax= 4.46D-05  0.00D+00 EMaxC= 1.00D-01 BMatC= 2.69D-07 BMatP= 3.30D-06
 IDIUse=1 WtCom= 1.00D+00 WtEn= 0.00D+00
 Coeff-Com:  0.684D-02-0.918D-02 0.877D-03-0.101D-01-0.265D-01-0.598D-01
 Coeff-Com:  0.430D-02 0.249D+00 0.845D+00
 Coeff:      0.684D-02-0.918D-02 0.877D-03-0.101D-01-0.265D-01-0.598D-01
 Coeff:      0.430D-02 0.249D+00 0.845D+00
 Gap=     0.250 Goal=   None    Shift=    0.000
 RMSDP=2.02D-05 MaxDP=1.73D-03 DE=-5.59D-06 OVMax= 9.49D-04

 Cycle  10  Pass 1  IDiag  1:
 RMSU=  7.77D-06    CP:  4.67D-01  2.63D+00  1.76D+00  8.93D-01  8.89D-01
                    CP:  1.17D+00  1.39D+00  1.43D+00  1.14D+00
 E= -3010.53799329512     Delta-E=       -0.000000942980 Rises=F Damp=F
 DIIS: error= 1.47D-05 at cycle  10 NSaved=  10.
 NSaved=10 IEnMin=10 EnMin= -3010.53799329512     IErMin=10 ErrMin= 1.47D-05
 ErrMax= 1.47D-05  0.00D+00 EMaxC= 1.00D-01 BMatC= 6.01D-08 BMatP= 2.69D-07
 IDIUse=1 WtCom= 1.00D+00 WtEn= 0.00D+00
 Coeff-Com:  0.342D-03-0.432D-03 0.366D-03-0.840D-04 0.130D-02-0.100D-01
 Coeff-Com: -0.399D-01-0.519D-01 0.235D+00 0.866D+00
 Coeff:      0.342D-03-0.432D-03 0.366D-03-0.840D-04 0.130D-02-0.100D-01
 Coeff:     -0.399D-01-0.519D-01 0.235D+00 0.866D+00
 Gap=     0.250 Goal=   None    Shift=    0.000
 RMSDP=1.00D-05 MaxDP=9.27D-04 DE=-9.43D-07 OVMax= 3.55D-04

 Cycle  11  Pass 1  IDiag  1:
 RMSU=  4.31D-06    CP:  4.67D-01  2.63D+00  1.76D+00  8.93D-01  8.89D-01
                    CP:  1.18D+00  1.40D+00  1.46D+00  1.27D+00  1.22D+00
 E= -3010.53799346232     Delta-E=       -0.000000167201 Rises=F Damp=F
 DIIS: error= 6.46D-06 at cycle  11 NSaved=  11.
 NSaved=11 IEnMin=11 EnMin= -3010.53799346232     IErMin=11 ErrMin= 6.46D-06
 ErrMax= 6.46D-06  0.00D+00 EMaxC= 1.00D-01 BMatC= 5.05D-09 BMatP= 6.01D-08
 IDIUse=1 WtCom= 1.00D+00 WtEn= 0.00D+00
 Coeff-Com: -0.477D-03 0.639D-03-0.156D-04 0.107D-02 0.341D-02 0.969D-02
 Coeff-Com:  0.443D-02-0.308D-01-0.153D+00-0.593D-01 0.122D+01
 Coeff:     -0.477D-03 0.639D-03-0.156D-04 0.107D-02 0.341D-02 0.969D-02
 Coeff:      0.443D-02-0.308D-01-0.153D+00-0.593D-01 0.122D+01
 Gap=     0.250 Goal=   None    Shift=    0.000
 RMSDP=4.75D-06 MaxDP=3.43D-04 DE=-1.67D-07 OVMax= 2.07D-04

 Cycle  12  Pass 1  IDiag  1:
 RMSU=  1.49D-06    CP:  4.67D-01  2.63D+00  1.76D+00  8.92D-01  8.88D-01
                    CP:  1.19D+00  1.40D+00  1.47D+00  1.33D+00  1.49D+00
                    CP:  1.39D+00
 E= -3010.53799350282     Delta-E=       -0.000000040495 Rises=F Damp=F
 DIIS: error= 2.18D-06 at cycle  12 NSaved=  12.
 NSaved=12 IEnMin=12 EnMin= -3010.53799350282     IErMin=12 ErrMin= 2.18D-06
 ErrMax= 2.18D-06  0.00D+00 EMaxC= 1.00D-01 BMatC= 1.66D-09 BMatP= 5.05D-09
 IDIUse=1 WtCom= 1.00D+00 WtEn= 0.00D+00
 Coeff-Com: -0.227D-03 0.301D-03-0.414D-04 0.422D-03 0.880D-03 0.461D-02
 Coeff-Com:  0.706D-02-0.533D-02-0.913D-01-0.139D+00 0.527D+00 0.696D+00
 Coeff:     -0.227D-03 0.301D-03-0.414D-04 0.422D-03 0.880D-03 0.461D-02
 Coeff:      0.706D-02-0.533D-02-0.913D-01-0.139D+00 0.527D+00 0.696D+00
 Gap=     0.250 Goal=   None    Shift=    0.000
 RMSDP=1.01D-06 MaxDP=4.34D-05 DE=-4.05D-08 OVMax= 6.64D-05

 Cycle  13  Pass 1  IDiag  1:
 RMSU=  5.90D-07    CP:  4.67D-01  2.63D+00  1.76D+00  8.92D-01  8.88D-01
                    CP:  1.19D+00  1.40D+00  1.47D+00  1.34D+00  1.52D+00
                    CP:  1.51D+00  9.40D-01
 E= -3010.53799350808     Delta-E=       -0.000000005258 Rises=F Damp=F
 DIIS: error= 6.95D-07 at cycle  13 NSaved=  13.
 NSaved=13 IEnMin=13 EnMin= -3010.53799350808     IErMin=13 ErrMin= 6.95D-07
 ErrMax= 6.95D-07  0.00D+00 EMaxC= 1.00D-01 BMatC= 2.50D-10 BMatP= 1.66D-09
 IDIUse=1 WtCom= 1.00D+00 WtEn= 0.00D+00
 Coeff-Com:  0.300D-05-0.366D-05-0.132D-04-0.142D-03-0.798D-03-0.200D-02
 Coeff-Com: -0.750D-03 0.607D-02 0.266D-01-0.111D-02-0.229D+00 0.707D-01
 Coeff-Com:  0.113D+01
 Coeff:      0.300D-05-0.366D-05-0.132D-04-0.142D-03-0.798D-03-0.200D-02
 Coeff:     -0.750D-03 0.607D-02 0.266D-01-0.111D-02-0.229D+00 0.707D-01
 Coeff:      0.113D+01
 Gap=     0.250 Goal=   None    Shift=    0.000
 RMSDP=6.09D-07 MaxDP=2.70D-05 DE=-5.26D-09 OVMax= 5.38D-05

 Cycle  14  Pass 1  IDiag  1:
 RMSU=  2.17D-07    CP:  4.67D-01  2.63D+00  1.76D+00  8.92D-01  8.88D-01
                    CP:  1.19D+00  1.40D+00  1.47D+00  1.34D+00  1.53D+00
                    CP:  1.56D+00  1.21D+00  1.35D+00
 E= -3010.53799350975     Delta-E=       -0.000000001677 Rises=F Damp=F
 DIIS: error= 3.17D-07 at cycle  14 NSaved=  14.
 NSaved=14 IEnMin=14 EnMin= -3010.53799350975     IErMin=14 ErrMin= 3.17D-07
 ErrMax= 3.17D-07  0.00D+00 EMaxC= 1.00D-01 BMatC= 3.69D-11 BMatP= 2.50D-10
 IDIUse=1 WtCom= 1.00D+00 WtEn= 0.00D+00
 Coeff-Com:  0.334D-04-0.443D-04 0.240D-07-0.905D-04-0.245D-03-0.977D-03
 Coeff-Com: -0.109D-02 0.216D-02 0.194D-01 0.217D-01-0.132D+00-0.100D+00
 Coeff-Com:  0.236D+00 0.955D+00
 Coeff:      0.334D-04-0.443D-04 0.240D-07-0.905D-04-0.245D-03-0.977D-03
 Coeff:     -0.109D-02 0.216D-02 0.194D-01 0.217D-01-0.132D+00-0.100D+00
 Coeff:      0.236D+00 0.955D+00
 Gap=     0.250 Goal=   None    Shift=    0.000
 RMSDP=2.73D-07 MaxDP=2.19D-05 DE=-1.68D-09 OVMax= 2.10D-05

 Cycle  15  Pass 1  IDiag  1:
 RMSU=  1.11D-07    CP:  4.67D-01  2.63D+00  1.76D+00  8.92D-01  8.88D-01
                    CP:  1.19D+00  1.40D+00  1.47D+00  1.34D+00  1.54D+00
                    CP:  1.55D+00  1.28D+00  1.59D+00  1.39D+00
 E= -3010.53799351001     Delta-E=       -0.000000000255 Rises=F Damp=F
 DIIS: error= 2.09D-07 at cycle  15 NSaved=  15.
 NSaved=15 IEnMin=15 EnMin= -3010.53799351001     IErMin=15 ErrMin= 2.09D-07
 ErrMax= 2.09D-07  0.00D+00 EMaxC= 1.00D-01 BMatC= 1.19D-11 BMatP= 3.69D-11
 IDIUse=1 WtCom= 1.00D+00 WtEn= 0.00D+00
 Coeff-Com:  0.124D-04-0.166D-04 0.216D-05 0.221D-05 0.127D-03 0.224D-03
 Coeff-Com: -0.177D-03-0.802D-03-0.261D-03 0.771D-02 0.632D-02-0.511D-01
 Coeff-Com: -0.165D+00 0.397D+00 0.805D+00
 Coeff:      0.124D-04-0.166D-04 0.216D-05 0.221D-05 0.127D-03 0.224D-03
 Coeff:     -0.177D-03-0.802D-03-0.261D-03 0.771D-02 0.632D-02-0.511D-01
 Coeff:     -0.165D+00 0.397D+00 0.805D+00
 Gap=     0.250 Goal=   None    Shift=    0.000
 RMSDP=1.08D-07 MaxDP=5.11D-06 DE=-2.55D-10 OVMax= 7.85D-06

 Cycle  16  Pass 1  IDiag  1:
 RMSU=  5.26D-08    CP:  4.67D-01  2.63D+00  1.76D+00  8.92D-01  8.88D-01
                    CP:  1.19D+00  1.40D+00  1.47D+00  1.34D+00  1.54D+00
                    CP:  1.55D+00  1.30D+00  1.64D+00  1.65D+00  1.19D+00
 E= -3010.53799351005     Delta-E=       -0.000000000045 Rises=F Damp=F
 DIIS: error= 7.22D-08 at cycle  16 NSaved=  16.
 NSaved=16 IEnMin=16 EnMin= -3010.53799351005     IErMin=16 ErrMin= 7.22D-08
 ErrMax= 7.22D-08  0.00D+00 EMaxC= 1.00D-01 BMatC= 1.30D-12 BMatP= 1.19D-11
 IDIUse=1 WtCom= 1.00D+00 WtEn= 0.00D+00
 Coeff-Com:  0.154D-05-0.210D-05 0.124D-05 0.104D-04 0.681D-04 0.199D-03
 Coeff-Com:  0.604D-04-0.599D-03-0.269D-02 0.416D-03 0.200D-01-0.388D-02
 Coeff-Com: -0.912D-01-0.209D-01 0.201D+00 0.898D+00
 Coeff:      0.154D-05-0.210D-05 0.124D-05 0.104D-04 0.681D-04 0.199D-03
 Coeff:      0.604D-04-0.599D-03-0.269D-02 0.416D-03 0.200D-01-0.388D-02
 Coeff:     -0.912D-01-0.209D-01 0.201D+00 0.898D+00
 Gap=     0.250 Goal=   None    Shift=    0.000
 RMSDP=6.34D-08 MaxDP=5.87D-06 DE=-4.46D-11 OVMax= 3.03D-06

 Cycle  17  Pass 1  IDiag  1:
 RMSU=  1.46D-08    CP:  4.67D-01  2.63D+00  1.76D+00  8.92D-01  8.88D-01
                    CP:  1.19D+00  1.40D+00  1.47D+00  1.34D+00  1.54D+00
                    CP:  1.55D+00  1.31D+00  1.66D+00  1.76D+00  1.44D+00
                    CP:  1.09D+00
 E= -3010.53799351003     Delta-E=        0.000000000022 Rises=F Damp=F
 DIIS: error= 4.10D-08 at cycle  17 NSaved=  17.
 NSaved=17 IEnMin=16 EnMin= -3010.53799351005     IErMin=17 ErrMin= 4.10D-08
 ErrMax= 4.10D-08  0.00D+00 EMaxC= 1.00D-01 BMatC= 2.63D-13 BMatP= 1.30D-12
 IDIUse=1 WtCom= 1.00D+00 WtEn= 0.00D+00
 Coeff-Com: -0.136D-05 0.181D-05 0.702D-08 0.228D-05 0.644D-07 0.267D-04
 Coeff-Com:  0.500D-04-0.263D-04-0.719D-03-0.893D-03 0.425D-02 0.658D-02
 Coeff-Com: -0.358D-03-0.605D-01-0.846D-01 0.304D+00 0.832D+00
 Coeff:     -0.136D-05 0.181D-05 0.702D-08 0.228D-05 0.644D-07 0.267D-04
 Coeff:      0.500D-04-0.263D-04-0.719D-03-0.893D-03 0.425D-02 0.658D-02
 Coeff:     -0.358D-03-0.605D-01-0.846D-01 0.304D+00 0.832D+00
 Gap=     0.250 Goal=   None    Shift=    0.000
 RMSDP=1.69D-08 MaxDP=8.74D-07 DE= 2.18D-11 OVMax= 6.89D-07

 Cycle  18  Pass 1  IDiag  1:
 RMSU=  4.95D-09    CP:  4.67D-01  2.63D+00  1.76D+00  8.92D-01  8.88D-01
                    CP:  1.19D+00  1.40D+00  1.47D+00  1.34D+00  1.54D+00
                    CP:  1.54D+00  1.32D+00  1.66D+00  1.78D+00  1.51D+00
                    CP:  1.23D+00  1.27D+00
 E= -3010.53799351004     Delta-E=       -0.000000000005 Rises=F Damp=F
 DIIS: error= 9.30D-09 at cycle  18 NSaved=  18.
 NSaved=18 IEnMin=16 EnMin= -3010.53799351005     IErMin=18 ErrMin= 9.30D-09
 ErrMax= 9.30D-09  0.00D+00 EMaxC= 1.00D-01 BMatC= 3.90D-14 BMatP= 2.63D-13
 IDIUse=1 WtCom= 1.00D+00 WtEn= 0.00D+00
 Coeff-Com: -0.699D-07 0.955D-07-0.103D-06-0.166D-05-0.122D-04-0.244D-04
 Coeff-Com:  0.723D-05 0.101D-03 0.193D-03-0.387D-03-0.200D-02 0.307D-02
 Coeff-Com:  0.152D-01-0.125D-01-0.683D-01-0.513D-01 0.270D+00 0.846D+00
 Coeff:     -0.699D-07 0.955D-07-0.103D-06-0.166D-05-0.122D-04-0.244D-04
 Coeff:      0.723D-05 0.101D-03 0.193D-03-0.387D-03-0.200D-02 0.307D-02
 Coeff:      0.152D-01-0.125D-01-0.683D-01-0.513D-01 0.270D+00 0.846D+00
 Gap=     0.250 Goal=   None    Shift=    0.000
 RMSDP=7.28D-09 MaxDP=3.45D-07 DE=-4.55D-12 OVMax= 2.05D-07

 SCF Done:  E(RwB97XD) =  -3010.53799351     A.U. after   18 cycles
            NFock= 18  Conv=0.73D-08     -V/T= 2.0016
 KE= 3.005842876268D+03 PE=-8.630874692080D+03 EE= 1.876276539138D+03
 Leave Link  502 at Wed May  1 15:25:52 2024, MaxMem=  1207959552 cpu:            1011.8 elap:            1012.0
 (Enter /software/gaussian/g16-c01/sse4/g16/l601.exe)
 Copying SCF densities to generalized density rwf, IOpCl= 0 IROHF=0.

 **********************************************************************

            Population analysis using the SCF Density.

 **********************************************************************

 Alpha  occ. eigenvalues -- -483.29787 -62.84792 -56.64507 -56.63903 -56.63901
 Alpha  occ. eigenvalues --  -19.45329 -19.45264 -14.84832 -10.57449 -10.56821
 Alpha  occ. eigenvalues --  -10.56568 -10.56361 -10.56140 -10.52383  -9.00583
 Alpha  occ. eigenvalues --   -6.83320  -6.81353  -6.81339  -2.93210  -2.92689
 Alpha  occ. eigenvalues --   -2.92676  -2.91103  -2.91103  -1.49096  -1.32074
 Alpha  occ. eigenvalues --   -1.21957  -1.13251  -1.11082  -1.03140  -1.00445
 Alpha  occ. eigenvalues --   -0.94753  -0.90327  -0.84717  -0.80197  -0.80022
 Alpha  occ. eigenvalues --   -0.79415  -0.77738  -0.75529  -0.75311  -0.71417
 Alpha  occ. eigenvalues --   -0.68704  -0.66930  -0.62745  -0.59236  -0.56544
 Alpha  occ. eigenvalues --   -0.55617  -0.55101  -0.54648  -0.53797
 Alpha virt. eigenvalues --   -0.28818  -0.20761  -0.14728  -0.12669  -0.09579
 Alpha virt. eigenvalues --   -0.06808  -0.06536  -0.05269  -0.03332  -0.03098
 Alpha virt. eigenvalues --   -0.02294  -0.01254  -0.00569   0.00074   0.01240
 Alpha virt. eigenvalues --    0.02070   0.02409   0.03275   0.04102   0.04289
 Alpha virt. eigenvalues --    0.04947   0.05081   0.05650   0.06553   0.07198
 Alpha virt. eigenvalues --    0.07417   0.08029   0.08267   0.09585   0.09901
 Alpha virt. eigenvalues --    0.10988   0.11357   0.11720   0.12215   0.13125
 Alpha virt. eigenvalues --    0.13337   0.13763   0.14361   0.15403   0.16428
 Alpha virt. eigenvalues --    0.17010   0.17665   0.18129   0.18881   0.18992
 Alpha virt. eigenvalues --    0.19889   0.21601   0.21885   0.22340   0.25037
 Alpha virt. eigenvalues --    0.25660   0.28188   0.28839   0.30612   0.33527
 Alpha virt. eigenvalues --    0.34199   0.34322   0.35020   0.35890   0.36535
 Alpha virt. eigenvalues --    0.37896   0.38533   0.39881   0.40996   0.42866
 Alpha virt. eigenvalues --    0.43112   0.44277   0.44640   0.46632   0.47969
 Alpha virt. eigenvalues --    0.48232   0.50935   0.51692   0.52852   0.53958
 Alpha virt. eigenvalues --    0.54802   0.55812   0.57000   0.57603   0.59954
 Alpha virt. eigenvalues --    0.61813   0.62853   0.64810   0.67612   0.69222
 Alpha virt. eigenvalues --    0.70660   0.72755   0.72991   0.73817   0.74719
 Alpha virt. eigenvalues --    0.75233   0.79761   0.80466   0.84209   0.85731
 Alpha virt. eigenvalues --    0.87141   0.88522   0.92274   0.93747   0.99155
 Alpha virt. eigenvalues --    1.00122   1.01610   1.05250   1.05831   1.07105
 Alpha virt. eigenvalues --    1.09830   1.11358   1.12570   1.12995   1.14719
 Alpha virt. eigenvalues --    1.22516   1.24967   1.27199   1.33497   1.37003
 Alpha virt. eigenvalues --    1.37368   1.38592   1.45816   1.54895   1.57620
 Alpha virt. eigenvalues --    1.59007   1.59299   1.61116   1.62895   1.66881
 Alpha virt. eigenvalues --    1.69642   1.70320   1.74061   1.75775   1.79560
 Alpha virt. eigenvalues --    1.81622   1.85943   1.87950   1.94878   1.96948
 Alpha virt. eigenvalues --    1.98742   2.03437   2.04407   2.07717   2.08756
 Alpha virt. eigenvalues --    2.10317   2.15309   2.20869   2.23139   2.29781
 Alpha virt. eigenvalues --    2.38026   2.41647   2.42915   2.43966   2.52986
 Alpha virt. eigenvalues --    2.57123   2.63533   2.66597   2.68699   2.72225
 Alpha virt. eigenvalues --    2.73891   2.77012   2.77849   2.81555   2.82350
 Alpha virt. eigenvalues --    2.94124   2.96888   3.01157   3.06135   3.09478
 Alpha virt. eigenvalues --    3.13471   3.15449   3.19539   3.24191   3.24777
 Alpha virt. eigenvalues --    3.27861   3.39625   3.48121   3.51743   3.55004
 Alpha virt. eigenvalues --    3.57366   3.70447   3.74627   3.82703   3.87725
 Alpha virt. eigenvalues --    4.10497   4.10720   4.18086   4.23325   4.44109
 Alpha virt. eigenvalues --    4.44860   4.58013   4.60412   4.93707   4.96371
 Alpha virt. eigenvalues --    5.05022   5.09190   5.63343   6.16277   6.66138
 Alpha virt. eigenvalues --    7.49193   7.50756   7.60453  23.21877  23.61820
 Alpha virt. eigenvalues --   23.70318  23.80054  23.96556  24.01937  35.33126
 Alpha virt. eigenvalues --   47.92656  49.86091  49.94902 289.81966 289.83633
 Alpha virt. eigenvalues --  289.960561020.93048
          Condensed to atoms (all electrons):
               1          2          3          4          5          6
     1  C    8.813167  -2.078484  -0.016675  -1.419798  -0.621123   0.305941
     2  C   -2.078484  12.608801  -1.497979  -3.061936   0.619866  -0.014197
     3  C   -0.016675  -1.497979  13.199897  -3.400211  -1.084806   0.025920
     4  C   -1.419798  -3.061936  -3.400211  15.590541   1.090222   0.006703
     5  C   -0.621123   0.619866  -1.084806   1.090222   7.427188   0.015552
     6  H    0.305941  -0.014197   0.025920   0.006703   0.015552   0.338137
     7  H    0.067347   0.231565   0.076825  -0.032992  -0.021278  -0.001784
     8  H    0.004565  -0.009750   0.074323   0.236149  -0.020458   0.000003
     9  H    0.034949  -0.017146   0.002877  -0.006287   0.302340  -0.002377
    10  N   -0.129854   0.342540  -0.925181   0.294681   0.005215  -0.000653
    11  O    0.016656  -0.063988  -0.259468  -0.030781  -0.058135  -0.000020
    12  O    0.316326  -0.064230  -0.279206  -0.052805  -0.043445   0.000035
    13  C    1.247853  -1.499617   0.742383  -3.455816  -1.608335  -0.004641
    14  H   -0.016924  -0.001420   0.003135  -0.039864  -0.005394  -0.000051
    15  Br   0.037600   0.020429   0.043839   0.008371   0.027498  -0.000252
               7          8          9         10         11         12
     1  C    0.067347   0.004565   0.034949  -0.129854   0.016656   0.316326
     2  C    0.231565  -0.009750  -0.017146   0.342540  -0.063988  -0.064230
     3  C    0.076825   0.074323   0.002877  -0.925181  -0.259468  -0.279206
     4  C   -0.032992   0.236149  -0.006287   0.294681  -0.030781  -0.052805
     5  C   -0.021278  -0.020458   0.302340   0.005215  -0.058135  -0.043445
     6  H   -0.001784   0.000003  -0.002377  -0.000653  -0.000020   0.000035
     7  H    0.301701   0.000008   0.000029  -0.025606  -0.001490   0.022046
     8  H    0.000008   0.298616   0.000135  -0.023698   0.023253  -0.000943
     9  H    0.000029   0.000135   0.332553   0.000467  -0.000004   0.000008
    10  N   -0.025606  -0.023698   0.000467   7.356780   0.194471   0.151343
    11  O   -0.001490   0.023253  -0.000004   0.194471   7.835718  -0.000941
    12  O    0.022046  -0.000943   0.000008   0.151343  -0.000941   7.878996
    13  C    0.017357   0.047008   0.008316  -0.134709   0.312358   0.041766
    14  H   -0.000032  -0.005659  -0.007005  -0.000701  -0.000179  -0.000036
    15  Br   0.000084   0.004642   0.003167   0.004071   0.001049   0.002383
              13         14         15
     1  C    1.247853  -0.016924   0.037600
     2  C   -1.499617  -0.001420   0.020429
     3  C    0.742383   0.003135   0.043839
     4  C   -3.455816  -0.039864   0.008371
     5  C   -1.608335  -0.005394   0.027498
     6  H   -0.004641  -0.000051  -0.000252
     7  H    0.017357  -0.000032   0.000084
     8  H    0.047008  -0.005659   0.004642
     9  H    0.008316  -0.007005   0.003167
    10  N   -0.134709  -0.000701   0.004071
    11  O    0.312358  -0.000179   0.001049
    12  O    0.041766  -0.000036   0.002383
    13  C   10.340509   0.359650   0.050617
    14  H    0.359650   0.389923  -0.048844
    15  Br   0.050617  -0.048844  34.590021
 Mulliken charges:
               1
     1  C   -0.561547
     2  C    0.485546
     3  C   -0.705673
     4  C    0.273823
     5  C   -0.024907
     6  H    0.331684
     7  H    0.366221
     8  H    0.371808
     9  H    0.347978
    10  N   -0.109167
    11  O    0.031503
    12  O    0.028703
    13  C   -0.464700
    14  H    0.373401
    15  Br   0.255326
 Sum of Mulliken charges =   1.00000
 Mulliken charges with hydrogens summed into heavy atoms:
               1
     1  C   -0.229862
     2  C    0.851767
     3  C   -0.705673
     4  C    0.645631
     5  C    0.323072
    10  N   -0.109167
    11  O    0.031503
    12  O    0.028703
    13  C   -0.091299
    15  Br   0.255326
 Electronic spatial extent (au):  <R**2>=           2797.1128
 Charge=              1.0000 electrons
 Dipole moment (field-independent basis, Debye):
    X=             -1.0414    Y=             -0.9192    Z=             -1.5307  Tot=              2.0670
 Quadrupole moment (field-independent basis, Debye-Ang):
   XX=            -71.5531   YY=            -51.5446   ZZ=            -61.0614
   XY=              1.5442   XZ=              0.4136   YZ=              2.9466
 Traceless Quadrupole moment (field-independent basis, Debye-Ang):
   XX=            -10.1667   YY=              9.8418   ZZ=              0.3250
   XY=              1.5442   XZ=              0.4136   YZ=              2.9466
 Octapole moment (field-independent basis, Debye-Ang**2):
  XXX=           -301.1545  YYY=             85.2615  ZZZ=             70.4817  XYY=            -76.9825
  XXY=             29.6300  XXZ=             27.1639  XZZ=            -79.1730  YZZ=             12.7987
  YYZ=             20.7460  XYZ=             -4.2653
 Hexadecapole moment (field-independent basis, Debye-Ang**3):
 XXXX=          -2284.9342 YYYY=           -671.8246 ZZZZ=           -333.0995 XXXY=            -67.4259
 XXXZ=            -35.4940 YYYX=            -58.0463 YYYZ=           -147.4286 ZZZX=            -17.1510
 ZZZY=           -125.5756 XXYY=           -456.2150 XXZZ=           -368.5309 YYZZ=           -155.7085
 XXYZ=            -53.3514 YYXZ=             -1.9131 ZZXY=             -6.5122
 N-N= 7.382172831638D+02 E-N=-8.630874694395D+03  KE= 3.005842876268D+03
 No NMR shielding tensors so no spin-rotation constants.
 Leave Link  601 at Wed May  1 15:25:59 2024, MaxMem=  1207959552 cpu:               7.3 elap:               7.3
 (Enter /software/gaussian/g16-c01/sse4/g16/l9999.exe)
 Unable to Open any file for archive entry.
 1\1\GINC-BHX0024\SP\RwB97XD\6-311+G(d)\C6H5Br1N1O2(1+)\BWEIGHT\01-May-
 2024\0\\#P wB97XD/6-311+G* NoSymm #P Field=Z+87\\TitleMe\\1,1\C,0,0.02
 95,1.3397,0.0682\C,0,1.4348,1.2867,0.0064\C,0,2.1118,0.0511,-0.0054\C,
 0,1.4451,-1.1372,0.0312\C,0,-0.6879,0.1682,0.11\H,0,-0.4713,2.2984,0.0
 781\H,0,2.0273,2.1965,-0.0322\H,0,1.9897,-2.0764,0.0232\H,0,-1.7716,0.
 1804,0.1582\N,0,3.5864,0.051,-0.0675\O,0,4.1471,-1.0597,-0.0881\O,0,4.
 145,1.1639,-0.0901\C,0,-0.0236,-1.1458,0.0835\H,0,-0.4367,-1.8725,0.78
 89\Br,0,-0.5359,-1.8697,-1.7408\\Version=ES64L-G16RevC.01\HF=-3010.537
 9935\RMSD=7.281e-09\Dipole=-2.3162534,0.7864313,0.5439688\Quadrupole=-
 7.5587197,7.3171048,0.2416149,1.1480804,0.3075141,2.1907552\PG=C01 [X(
 C6H5Br1N1O2)]\\@
 The archive entry for this job was punched.


 OUR LITTLE SYSTEMS HAVE THEIR DAY,    
   THEY HAVE THEIR DAY AND CEASE TO BE.
   THEY ARE BUT BROKEN LIGHTS OF THEE, 
 AND THOU, OH LORD, ART MORE THAN THEY.
          -------------------          
 LET KNOWLEDGE GROW FROM MORE TO MORE, 
   BUT MORE OF REVERENCE IN US DWELL.  
   THAT MIND AND SOUL, ACCORDING WELL, 
 MAY MAKE ONE MUSIC AS BEFORE.....     
          -------------------          
                    LORD TENNYSON      
 Job cpu time:       0 days  0 hours 17 minutes 58.5 seconds.
 Elapsed time:       0 days  0 hours 17 minutes 58.6 seconds.
 File lengths (MBytes):  RWF=     40 Int=      0 D2E=      0 Chk=     32 Scr=      1
 Normal termination of Gaussian 16 at Wed May  1 15:26:00 2024.
