 Entering Gaussian System, Link 0=g16
 Initial command:
 /software/gaussian/g16-a03/l1.exe "/local_scratch/6484831/Gau-7508.inp" -scrdir="/local_scratch/6484831/"
 Entering Link 1 = /software/gaussian/g16-a03/l1.exe PID=      7520.
  
 Copyright (c) 1988,1990,1992,1993,1995,1998,2003,2009,2016,
            Gaussian, Inc.  All Rights Reserved.
  
 This is part of the Gaussian(R) 16 program.  It is based on
 the Gaussian(R) 09 system (copyright 2009, Gaussian, Inc.),
 the Gaussian(R) 03 system (copyright 2003, Gaussian, Inc.),
 the Gaussian(R) 98 system (copyright 1998, Gaussian, Inc.),
 the Gaussian(R) 94 system (copyright 1995, Gaussian, Inc.),
 the Gaussian 92(TM) system (copyright 1992, Gaussian, Inc.),
 the Gaussian 90(TM) system (copyright 1990, Gaussian, Inc.),
 the Gaussian 88(TM) system (copyright 1988, Gaussian, Inc.),
 the Gaussian 86(TM) system (copyright 1986, Carnegie Mellon
 University), and the Gaussian 82(TM) system (copyright 1983,
 Carnegie Mellon University). Gaussian is a federally registered
 trademark of Gaussian, Inc.
  
 This software contains proprietary and confidential information,
 including trade secrets, belonging to Gaussian, Inc.
  
 This software is provided under written license and may be
 used, copied, transmitted, or stored only in accord with that
 written license.
  
 The following legend is applicable only to US Government
 contracts under FAR:
  
                    RESTRICTED RIGHTS LEGEND
  
 Use, reproduction and disclosure by the US Government is
 subject to restrictions as set forth in subparagraphs (a)
 and (c) of the Commercial Computer Software - Restricted
 Rights clause in FAR 52.227-19.
  
 Gaussian, Inc.
 340 Quinnipiac St., Bldg. 40, Wallingford CT 06492
  
  
 ---------------------------------------------------------------
 Warning -- This program may not be used in any manner that
 competes with the business of Gaussian, Inc. or will provide
 assistance to any competitor of Gaussian, Inc.  The licensee
 of this program is prohibited from giving any competitor of
 Gaussian, Inc. access to this program.  By using this program,
 the user acknowledges that Gaussian, Inc. is engaged in the
 business of creating and licensing software in the field of
 computational chemistry and represents and warrants to the
 licensee that it is not a competitor of Gaussian, Inc. and that
 it will not use this program in any manner prohibited above.
 ---------------------------------------------------------------
  

 Cite this work as:
 Gaussian 16, Revision A.03,
 M. J. Frisch, G. W. Trucks, H. B. Schlegel, G. E. Scuseria, 
 M. A. Robb, J. R. Cheeseman, G. Scalmani, V. Barone, 
 G. A. Petersson, H. Nakatsuji, X. Li, M. Caricato, A. V. Marenich, 
 J. Bloino, B. G. Janesko, R. Gomperts, B. Mennucci, H. P. Hratchian, 
 J. V. Ortiz, A. F. Izmaylov, J. L. Sonnenberg, D. Williams-Young, 
 F. Ding, F. Lipparini, F. Egidi, J. Goings, B. Peng, A. Petrone, 
 T. Henderson, D. Ranasinghe, V. G. Zakrzewski, J. Gao, N. Rega, 
 G. Zheng, W. Liang, M. Hada, M. Ehara, K. Toyota, R. Fukuda, 
 J. Hasegawa, M. Ishida, T. Nakajima, Y. Honda, O. Kitao, H. Nakai, 
 T. Vreven, K. Throssell, J. A. Montgomery, Jr., J. E. Peralta, 
 F. Ogliaro, M. J. Bearpark, J. J. Heyd, E. N. Brothers, K. N. Kudin, 
 V. N. Staroverov, T. A. Keith, R. Kobayashi, J. Normand, 
 K. Raghavachari, A. P. Rendell, J. C. Burant, S. S. Iyengar, 
 J. Tomasi, M. Cossi, J. M. Millam, M. Klene, C. Adamo, R. Cammi, 
 J. W. Ochterski, R. L. Martin, K. Morokuma, O. Farkas, 
 J. B. Foresman, and D. J. Fox, Gaussian, Inc., Wallingford CT, 2016.
 
 ******************************************
 Gaussian 16:  ES64L-G16RevA.03 25-Dec-2016
                17-Sep-2021 
 ******************************************
 %chk=geometry.chk
 %mem=2GB
 %nprocshared=1
 Will use up to    1 processors via shared memory.
 --------------------------------------------------------------------
 #p B3LYP/6-311+G** #p TD=(singlets,nstates=30)IOp(6/8=3) IOp(9/40=4)
 --------------------------------------------------------------------
 1/38=1,172=1/1;
 2/12=2,17=6,18=5,40=1/2;
 3/5=4,6=6,7=111,11=9,25=1,30=1,74=-5/1,2,3,8;
 4//1;
 5/5=2,38=5/2;
 8/6=1,10=2,108=30/1;
 9/40=4,41=30,42=1,48=1,70=2/14;
 6/7=2,8=3,9=2,10=2/1;
 99/5=1,9=1/99;
 Leave Link    1 at Fri Sep 17 10:52:08 2021, MaxMem=   268435456 cpu:               0.0 elap:               0.3
 (Enter /software/gaussian/g16-a03/l101.exe)
 ------------------------------
 Scan Step 100, Bond Length 1.0
 ------------------------------
 Symbolic Z-matrix:
 Charge =  0 Multiplicity = 1
 C                     0.        0.       -0.52736 
 H                     0.        0.93726  -1.11871 
 H                     0.       -0.93726  -1.11871 
 O                     0.        0.        0.47264 
 
 ITRead=  0  0  0  0
 MicOpt= -1 -1 -1 -1
 NAtoms=      4 NQM=        4 NQMF=       0 NMMI=      0 NMMIF=      0
                NMic=       0 NMicF=      0.
                    Isotopes and Nuclear Properties:
 (Nuclear quadrupole moments (NQMom) in fm**2, nuclear magnetic moments (NMagM)
  in nuclear magnetons)

  Atom         1           2           3           4
 IAtWgt=          12           1           1          16
 AtmWgt=  12.0000000   1.0078250   1.0078250  15.9949146
 NucSpn=           0           1           1           0
 AtZEff=  -0.0000000  -0.0000000  -0.0000000  -0.0000000
 NQMom=    0.0000000   0.0000000   0.0000000   0.0000000
 NMagM=    0.0000000   2.7928460   2.7928460   0.0000000
 AtZNuc=   6.0000000   1.0000000   1.0000000   8.0000000
 Leave Link  101 at Fri Sep 17 10:52:09 2021, MaxMem=   268435456 cpu:               0.1 elap:               0.1
 (Enter /software/gaussian/g16-a03/l202.exe)
                          Input orientation:                          
 ---------------------------------------------------------------------
 Center     Atomic      Atomic             Coordinates (Angstroms)
 Number     Number       Type             X           Y           Z
 ---------------------------------------------------------------------
      1          6           0        0.000000    0.000000   -0.527360
      2          1           0        0.000000    0.937260   -1.118710
      3          1           0        0.000000   -0.937260   -1.118710
      4          8           0        0.000000    0.000000    0.472640
 ---------------------------------------------------------------------
                    Distance matrix (angstroms):
                    1          2          3          4
     1  C    0.000000
     2  H    1.108220   0.000000
     3  H    1.108220   1.874520   0.000000
     4  O    1.000000   1.846849   1.846849   0.000000
 Stoichiometry    CH2O
 Framework group  C2V[C2(CO),SGV(H2)]
 Deg. of freedom     3
 Full point group                 C2V     NOp   4
 Largest Abelian subgroup         C2V     NOp   4
 Largest concise Abelian subgroup C2      NOp   2
                         Standard orientation:                         
 ---------------------------------------------------------------------
 Center     Atomic      Atomic             Coordinates (Angstroms)
 Number     Number       Type             X           Y           Z
 ---------------------------------------------------------------------
      1          6           0        0.000000   -0.000000   -0.426081
      2          1           0        0.000000    0.937260   -1.017431
      3          1           0       -0.000000   -0.937260   -1.017431
      4          8           0        0.000000    0.000000    0.573919
 ---------------------------------------------------------------------
 Rotational constants (GHZ):         285.4183527          53.7746266          45.2493604
 Leave Link  202 at Fri Sep 17 10:52:09 2021, MaxMem=   268435456 cpu:               0.0 elap:               0.0
 (Enter /software/gaussian/g16-a03/l301.exe)
 Standard basis: 6-311+G(d,p) (5D, 7F)
 Ernie: Thresh=  0.10000D-02 Tol=  0.10000D-05 Strict=F.
 There are    29 symmetry adapted cartesian basis functions of A1  symmetry.
 There are     3 symmetry adapted cartesian basis functions of A2  symmetry.
 There are    11 symmetry adapted cartesian basis functions of B1  symmetry.
 There are    15 symmetry adapted cartesian basis functions of B2  symmetry.
 There are    27 symmetry adapted basis functions of A1  symmetry.
 There are     3 symmetry adapted basis functions of A2  symmetry.
 There are    11 symmetry adapted basis functions of B1  symmetry.
 There are    15 symmetry adapted basis functions of B2  symmetry.
    56 basis functions,    88 primitive gaussians,    58 cartesian basis functions
     8 alpha electrons        8 beta electrons
       nuclear repulsion energy        35.9973069747 Hartrees.
 IExCor=  402 DFT=T Ex+Corr=B3LYP ExCW=0 ScaHFX=  0.200000
 ScaDFX=  0.800000  0.720000  1.000000  0.810000 ScalE2=  1.000000  1.000000
 IRadAn=      5 IRanWt=     -1 IRanGd=            0 ICorTp=0 IEmpDi=  4
 NAtoms=    4 NActive=    4 NUniq=    3 SFac= 1.78D+00 NAtFMM=   60 NAOKFM=F Big=F
 Integral buffers will be    131072 words long.
 Regular integral format.
 Two-electron integral symmetry is turned on.
 Leave Link  301 at Fri Sep 17 10:52:09 2021, MaxMem=   268435456 cpu:               0.1 elap:               0.1
 (Enter /software/gaussian/g16-a03/l302.exe)
 NPDir=0 NMtPBC=     1 NCelOv=     1 NCel=       1 NClECP=     1 NCelD=      1
         NCelK=      1 NCelE2=     1 NClLst=     1 CellRange=     0.0.
 One-electron integrals computed using PRISM.
 One-electron integral symmetry used in STVInt
 NBasis=    56 RedAO= T EigKep=  1.99D-03  NBF=    27     3    11    15
 NBsUse=    56 1.00D-06 EigRej= -1.00D+00 NBFU=    27     3    11    15
 Precomputing XC quadrature grid using
 IXCGrd= 4 IRadAn=           5 IRanWt=          -1 IRanGd=           0 AccXCQ= 0.00D+00.
 Generated NRdTot=       0 NPtTot=           0 NUsed=           0 NTot=          32
 NSgBfM=    58    58    58    58    58 MxSgAt=     4 MxSgA2=     4.
 Leave Link  302 at Fri Sep 17 10:52:09 2021, MaxMem=   268435456 cpu:               0.1 elap:               0.1
 (Enter /software/gaussian/g16-a03/l303.exe)
 DipDrv:  MaxL=1.
 Leave Link  303 at Fri Sep 17 10:52:09 2021, MaxMem=   268435456 cpu:               0.0 elap:               0.0
 (Enter /software/gaussian/g16-a03/l308.exe)
 Leave Link  308 at Fri Sep 17 10:52:09 2021, MaxMem=   268435456 cpu:               0.0 elap:               0.0
 (Enter /software/gaussian/g16-a03/l401.exe)
 ExpMin= 4.38D-02 ExpMax= 8.59D+03 ExpMxC= 1.30D+03 IAcc=3 IRadAn=         5 AccDes= 0.00D+00
 Harris functional with IExCor=  402 and IRadAn=       5 diagonalized for initial guess.
 HarFok:  IExCor=  402 AccDes= 0.00D+00 IRadAn=         5 IDoV= 1 UseB2=F ITyADJ=14
 ICtDFT=  3500011 ScaDFX=  1.000000  1.000000  1.000000  1.000000
 FoFCou: FMM=F IPFlag=           0 FMFlag=      100000 FMFlg1=           0
         NFxFlg=           0 DoJE=T BraDBF=F KetDBF=T FulRan=T
         wScrn=  0.000000 ICntrl=       500 IOpCl=  0 I1Cent=   200000004 NGrid=           0
         NMat0=    1 NMatS0=      1 NMatT0=    0 NMatD0=    1 NMtDS0=    0 NMtDT0=    0
 Petite list used in FoFCou.
 Harris En= -114.482345279576    
 JPrj=0 DoOrth=F DoCkMO=F.
 Initial guess orbital symmetries:
       Occupied  (A1) (A1) (A1) (A1) (B2) (A1) (B1) (B2)
       Virtual   (B1) (A1) (A1) (B2) (B1) (A1) (A1) (B2) (B2) (B1)
                 (A1) (A1) (A1) (B2) (B1) (B2) (A1) (A1) (A2) (B1)
                 (B2) (A1) (B1) (A1) (A1) (B2) (B2) (B1) (A2) (A1)
                 (A1) (B2) (A1) (B2) (B1) (A1) (A2) (A1) (B1) (B2)
                 (A1) (A1) (B2) (B1) (B2) (A1) (A1) (A1)
 The electronic state of the initial guess is 1-A1.
 Leave Link  401 at Fri Sep 17 10:52:10 2021, MaxMem=   268435456 cpu:               0.3 elap:               0.3
 (Enter /software/gaussian/g16-a03/l502.exe)
 Keep R1 ints in memory in symmetry-blocked form, NReq=2159909.
 FoFCou: FMM=F IPFlag=           0 FMFlag=           0 FMFlg1=           0
         NFxFlg=           0 DoJE=F BraDBF=F KetDBF=F FulRan=T
         wScrn=  0.000000 ICntrl=       600 IOpCl=  0 I1Cent=           0 NGrid=           0
         NMat0=    1 NMatS0=   1596 NMatT0=    0 NMatD0=    1 NMtDS0=    0 NMtDT0=    0
 Petite list used in FoFCou.
 Closed shell SCF:
 Using DIIS extrapolation, IDIIS=  1040.
 NGot=   268435456 LenX=   268074384 LenY=   268070579
 Requested convergence on RMS density matrix=1.00D-08 within 128 cycles.
 Requested convergence on MAX density matrix=1.00D-06.
 Requested convergence on             energy=1.00D-06.
 No special actions if energy rises.

 Cycle   1  Pass 1  IDiag  1:
 E= -114.348224058527    
 DIIS: error= 5.68D-02 at cycle   1 NSaved=   1.
 NSaved= 1 IEnMin= 1 EnMin= -114.348224058527     IErMin= 1 ErrMin= 5.68D-02
 ErrMax= 5.68D-02  0.00D+00 EMaxC= 1.00D-01 BMatC= 1.39D-01 BMatP= 1.39D-01
 IDIUse=3 WtCom= 4.32D-01 WtEn= 5.68D-01
 Coeff-Com:  0.100D+01
 Coeff-En:   0.100D+01
 Coeff:      0.100D+01
 Gap=     0.174 Goal=   None    Shift=    0.000
 GapD=    0.174 DampG=1.000 DampE=0.500 DampFc=0.5000 IDamp=-1.
 Damping current iteration by 5.00D-01
 RMSDP=1.11D-02 MaxDP=1.32D-01              OVMax= 2.33D-01

 Cycle   2  Pass 1  IDiag  1:
 E= -114.375202044648     Delta-E=       -0.026977986121 Rises=F Damp=T
 DIIS: error= 1.90D-02 at cycle   2 NSaved=   2.
 NSaved= 2 IEnMin= 2 EnMin= -114.375202044648     IErMin= 2 ErrMin= 1.90D-02
 ErrMax= 1.90D-02  0.00D+00 EMaxC= 1.00D-01 BMatC= 1.18D-02 BMatP= 1.39D-01
 IDIUse=3 WtCom= 8.10D-01 WtEn= 1.90D-01
 Coeff-Com:  0.164D+00 0.836D+00
 Coeff-En:   0.325D+00 0.675D+00
 Coeff:      0.195D+00 0.805D+00
 Gap=     0.277 Goal=   None    Shift=    0.000
 RMSDP=2.62D-03 MaxDP=3.08D-02 DE=-2.70D-02 OVMax= 1.54D-01

 Cycle   3  Pass 1  IDiag  1:
 E= -114.435187813295     Delta-E=       -0.059985768647 Rises=F Damp=F
 DIIS: error= 1.17D-02 at cycle   3 NSaved=   3.
 NSaved= 3 IEnMin= 3 EnMin= -114.435187813295     IErMin= 3 ErrMin= 1.17D-02
 ErrMax= 1.17D-02  0.00D+00 EMaxC= 1.00D-01 BMatC= 5.25D-03 BMatP= 1.18D-02
 IDIUse=3 WtCom= 8.83D-01 WtEn= 1.17D-01
 Coeff-Com:  0.231D-01 0.402D+00 0.575D+00
 Coeff-En:   0.000D+00 0.000D+00 0.100D+01
 Coeff:      0.204D-01 0.355D+00 0.624D+00
 Gap=     0.250 Goal=   None    Shift=    0.000
 RMSDP=9.67D-04 MaxDP=1.86D-02 DE=-6.00D-02 OVMax= 3.19D-02

 Cycle   4  Pass 1  IDiag  1:
 E= -114.438766657225     Delta-E=       -0.003578843930 Rises=F Damp=F
 DIIS: error= 3.99D-03 at cycle   4 NSaved=   4.
 NSaved= 4 IEnMin= 4 EnMin= -114.438766657225     IErMin= 4 ErrMin= 3.99D-03
 ErrMax= 3.99D-03  0.00D+00 EMaxC= 1.00D-01 BMatC= 5.09D-04 BMatP= 5.25D-03
 IDIUse=3 WtCom= 9.60D-01 WtEn= 3.99D-02
 Coeff-Com: -0.121D-01 0.501D-01 0.274D+00 0.688D+00
 Coeff-En:   0.000D+00 0.000D+00 0.291D-01 0.971D+00
 Coeff:     -0.116D-01 0.481D-01 0.265D+00 0.699D+00
 Gap=     0.251 Goal=   None    Shift=    0.000
 RMSDP=2.67D-04 MaxDP=6.07D-03 DE=-3.58D-03 OVMax= 5.96D-03

 Cycle   5  Pass 1  IDiag  1:
 E= -114.439180142013     Delta-E=       -0.000413484788 Rises=F Damp=F
 DIIS: error= 1.92D-04 at cycle   5 NSaved=   5.
 NSaved= 5 IEnMin= 5 EnMin= -114.439180142013     IErMin= 5 ErrMin= 1.92D-04
 ErrMax= 1.92D-04  0.00D+00 EMaxC= 1.00D-01 BMatC= 1.91D-06 BMatP= 5.09D-04
 IDIUse=3 WtCom= 9.98D-01 WtEn= 1.92D-03
 Coeff-Com: -0.340D-03-0.233D-02 0.260D-01 0.110D+00 0.867D+00
 Coeff-En:   0.000D+00 0.000D+00 0.000D+00 0.000D+00 0.100D+01
 Coeff:     -0.340D-03-0.233D-02 0.259D-01 0.110D+00 0.867D+00
 Gap=     0.251 Goal=   None    Shift=    0.000
 RMSDP=3.34D-05 MaxDP=3.37D-04 DE=-4.13D-04 OVMax= 5.99D-04

 Cycle   6  Pass 1  IDiag  1:
 E= -114.439182155258     Delta-E=       -0.000002013245 Rises=F Damp=F
 DIIS: error= 1.44D-05 at cycle   6 NSaved=   6.
 NSaved= 6 IEnMin= 6 EnMin= -114.439182155258     IErMin= 6 ErrMin= 1.44D-05
 ErrMax= 1.44D-05  0.00D+00 EMaxC= 1.00D-01 BMatC= 6.72D-09 BMatP= 1.91D-06
 IDIUse=1 WtCom= 1.00D+00 WtEn= 0.00D+00
 Coeff-Com:  0.220D-03-0.578D-03-0.164D-02-0.101D-02 0.248D-01 0.978D+00
 Coeff:      0.220D-03-0.578D-03-0.164D-02-0.101D-02 0.248D-01 0.978D+00
 Gap=     0.251 Goal=   None    Shift=    0.000
 RMSDP=1.65D-06 MaxDP=1.81D-05 DE=-2.01D-06 OVMax= 3.60D-05

 Cycle   7  Pass 1  IDiag  1:
 E= -114.439182162572     Delta-E=       -0.000000007314 Rises=F Damp=F
 DIIS: error= 1.74D-06 at cycle   7 NSaved=   7.
 NSaved= 7 IEnMin= 7 EnMin= -114.439182162572     IErMin= 7 ErrMin= 1.74D-06
 ErrMax= 1.74D-06  0.00D+00 EMaxC= 1.00D-01 BMatC= 7.51D-11 BMatP= 6.72D-09
 IDIUse=1 WtCom= 1.00D+00 WtEn= 0.00D+00
 Coeff-Com: -0.697D-05 0.112D-04-0.362D-04-0.632D-03-0.623D-02 0.233D-02
 Coeff-Com:  0.100D+01
 Coeff:     -0.697D-05 0.112D-04-0.362D-04-0.632D-03-0.623D-02 0.233D-02
 Coeff:      0.100D+01
 Gap=     0.251 Goal=   None    Shift=    0.000
 RMSDP=2.15D-07 MaxDP=1.80D-06 DE=-7.31D-09 OVMax= 3.62D-06

 Cycle   8  Pass 1  IDiag  1:
 E= -114.439182162649     Delta-E=       -0.000000000077 Rises=F Damp=F
 DIIS: error= 1.20D-07 at cycle   8 NSaved=   8.
 NSaved= 8 IEnMin= 8 EnMin= -114.439182162649     IErMin= 8 ErrMin= 1.20D-07
 ErrMax= 1.20D-07  0.00D+00 EMaxC= 1.00D-01 BMatC= 2.66D-13 BMatP= 7.51D-11
 IDIUse=1 WtCom= 1.00D+00 WtEn= 0.00D+00
 Coeff-Com: -0.787D-06 0.176D-05-0.265D-06-0.375D-04-0.364D-03-0.314D-02
 Coeff-Com:  0.196D-02 0.100D+01
 Coeff:     -0.787D-06 0.176D-05-0.265D-06-0.375D-04-0.364D-03-0.314D-02
 Coeff:      0.196D-02 0.100D+01
 Gap=     0.251 Goal=   None    Shift=    0.000
 RMSDP=1.89D-08 MaxDP=1.59D-07 DE=-7.65D-11 OVMax= 3.19D-07

 Cycle   9  Pass 1  IDiag  1:
 E= -114.439182162649     Delta-E=       -0.000000000000 Rises=F Damp=F
 DIIS: error= 1.45D-08 at cycle   9 NSaved=   9.
 NSaved= 9 IEnMin= 9 EnMin= -114.439182162649     IErMin= 9 ErrMin= 1.45D-08
 ErrMax= 1.45D-08  0.00D+00 EMaxC= 1.00D-01 BMatC= 1.23D-14 BMatP= 2.66D-13
 IDIUse=1 WtCom= 1.00D+00 WtEn= 0.00D+00
 Coeff-Com: -0.105D-06 0.383D-06 0.144D-05-0.119D-05-0.406D-05-0.785D-03
 Coeff-Com: -0.731D-02 0.140D+00 0.868D+00
 Coeff:     -0.105D-06 0.383D-06 0.144D-05-0.119D-05-0.406D-05-0.785D-03
 Coeff:     -0.731D-02 0.140D+00 0.868D+00
 Gap=     0.251 Goal=   None    Shift=    0.000
 RMSDP=1.39D-09 MaxDP=2.63D-08 DE=-3.41D-13 OVMax= 3.50D-08

 SCF Done:  E(RB3LYP) =  -114.439182163     A.U. after    9 cycles
            NFock=  9  Conv=0.14D-08     -V/T= 1.9920
 KE= 1.153571020094D+02 PE=-3.415249353295D+02 EE= 7.573134418270D+01
 Leave Link  502 at Fri Sep 17 10:52:12 2021, MaxMem=   268435456 cpu:               1.6 elap:               2.0
 (Enter /software/gaussian/g16-a03/l801.exe)
 DoSCS=F DFT=T ScalE2(SS,OS)=  1.000000  1.000000
 ExpMin= 4.38D-02 ExpMax= 8.59D+03 ExpMxC= 1.30D+03 IAcc=3 IRadAn=         5 AccDes= 0.00D+00
 HarFok:  IExCor=  205 AccDes= 0.00D+00 IRadAn=         5 IDoV=-2 UseB2=F ITyADJ=14
 ICtDFT= 12500011 ScaDFX=  1.000000  1.000000  1.000000  1.000000
 Largest valence mixing into a core orbital is  4.15D-05
 Largest core mixing into a valence orbital is  8.05D-06
 Range of M.O.s used for correlation:     3    56
 NBasis=    56 NAE=     8 NBE=     8 NFC=     2 NFV=     0
 NROrb=     54 NOA=     6 NOB=     6 NVA=    48 NVB=    48
 Leave Link  801 at Fri Sep 17 10:52:12 2021, MaxMem=   268435456 cpu:               0.2 elap:               0.2
 (Enter /software/gaussian/g16-a03/l914.exe)
 RHF ground state
 Keep R1, R2, and R3 ints in memory in symmetry-blocked form, NReq=6042848.
 FoFCou: FMM=F IPFlag=           0 FMFlag=           0 FMFlg1=           0
         NFxFlg=           0 DoJE=F BraDBF=F KetDBF=F FulRan=T
         wScrn=  0.000000 ICntrl=       600 IOpCl=  0 I1Cent=           0 NGrid=           0
         NMat0=    1 NMatS0=   1596 NMatT0=    0 NMatD0=    1 NMtDS0=    0 NMtDT0=    0
 Petite list used in FoFCou.
 MDV=   268435456 DFT=T DoStab=F Mixed=T DoRPA=T DoScal=F NonHer=T
 Making orbital integer symmetry assigments:
 Orbital symmetries:
       Occupied  (A1) (A1) (A1) (A1) (B2) (A1) (B1) (B2)
       Virtual   (B1) (A1) (A1) (B2) (B1) (A1) (A1) (B2) (B1) (B2)
                 (A1) (A1) (A1) (B2) (B1) (B2) (A1) (A1) (A2) (B1)
                 (B2) (A1) (B1) (A1) (B2) (A1) (B2) (B1) (A2) (A1)
                 (A1) (B2) (A1) (B2) (A1) (B1) (A1) (A2) (B1) (B2)
                 (A1) (B2) (A1) (B1) (B2) (A1) (A1) (A1)
   120 initial guesses have been made.
 Convergence on wavefunction:    0.001000000000000
 Davidson Disk Diagonalization:  ConvIn= 1.00D-03 SkipCon=T Conv= 1.00D-03.
 Max sub-space:  1728 roots to seek:   120 dimension of matrix:          576
 Iteration     1 Dimension   120 NMult     0 NNew    120
 CISAX will form   120 AO SS matrices at one time.
 NMat=   120 NSing=   120 JSym2X=-1.
 New state     10 was old state     12
 New state     11 was old state     10
 New state     12 was old state     13
 New state     13 was old state     14
 New state     14 was old state     20
 New state     16 was old state     11
 New state     17 was old state     18
 New state     18 was old state     16
 New state     20 was old state     17
 New state     21 was old state     23
 New state     23 was old state     21
 New state     25 was old state     27
 New state     27 was old state     25
 New state     28 was old state     29
 New state     29 was old state     31
 Excitation Energies [eV] at current iteration:
 Root      1 :     5.116632127858473
 Root      2 :     6.361614804768955
 Root      3 :     7.152885433216296
 Root      4 :     7.291150187928722
 Root      5 :     7.837136608070860
 Root      6 :    10.192373624290000
 Root      7 :    10.705349301411890
 Root      8 :    11.581929338649700
 Root      9 :    11.756095887680070
 Root     10 :    11.794913169316940
 Root     11 :    12.146361201381140
 Root     12 :    12.775132534555650
 Root     13 :    12.920705447434690
 Root     14 :    13.074765394328540
 Root     15 :    13.167548906425400
 Root     16 :    13.501411048698560
 Root     17 :    13.654179263251710
 Root     18 :    13.655209210468890
 Root     19 :    13.762957696131240
 Root     20 :    13.817038753028450
 Root     21 :    14.404977771095910
 Root     22 :    14.482214421228400
 Root     23 :    14.673802796127490
 Root     24 :    15.352236506711930
 Root     25 :    15.420714479842510
 Root     26 :    15.534606455909700
 Root     27 :    15.594398446390890
 Root     28 :    15.951383010922790
 Root     29 :    16.120280072772420
 Root     30 :    16.302570939004120
 Root     31 :    16.513937313974760
 Root     32 :    16.913311151845860
 Root     33 :    16.940445941779540
 Root     34 :    17.152212209683220
 Root     35 :    17.157331719233350
 Root     36 :    17.580074528745070
 Root     37 :    17.663924941020650
 Root     38 :    17.818534354710130
 Root     39 :    17.916296436645790
 Root     40 :    18.119856897501280
 Root     41 :    18.331755786167130
 Root     42 :    18.526856479898210
 Root     43 :    18.540933425050720
 Root     44 :    18.949962926981360
 Root     45 :    19.375517344456140
 Root     46 :    19.414859663059820
 Root     47 :    19.590068706015560
 Root     48 :    19.676003616177400
 Root     49 :    19.882069312688090
 Root     50 :    19.913675508567330
 Root     51 :    19.932763910402210
 Root     52 :    20.526729894264450
 Root     53 :    20.811875046523210
 Root     54 :    21.047989340168760
 Root     55 :    21.122266492992360
 Root     56 :    21.331409450374180
 Root     57 :    21.571757821471350
 Root     58 :    21.731387950271870
 Root     59 :    21.864597078767720
 Root     60 :    22.251497627829290
 Root     61 :    22.967032108489810
 Root     62 :    23.743392644122030
 Root     63 :    23.828840858669210
 Root     64 :    24.380842023773950
 Root     65 :    25.323260377855670
 Root     66 :    25.656944743945650
 Root     67 :    25.676013729184080
 Root     68 :    25.916130246907280
 Root     69 :    26.012405707149890
 Root     70 :    26.119209674913190
 Root     71 :    26.676241926583960
 Root     72 :    27.303654915932980
 Root     73 :    27.418649334188770
 Root     74 :    27.935111287041460
 Root     75 :    29.022558828145230
 Root     76 :    29.046969437126010
 Root     77 :    29.310713596266720
 Root     78 :    29.356496879951660
 Root     79 :    29.545533212597800
 Root     80 :    30.360968951603140
 Root     81 :    30.509199004017740
 Root     82 :    30.834577598269010
 Root     83 :    30.882649967507390
 Root     84 :    31.903378626277400
 Root     85 :    32.102924987119690
 Root     86 :    32.363113921012720
 Root     87 :    32.567657990680270
 Root     88 :    32.840874216278580
 Root     89 :    32.842999130204930
 Root     90 :    33.026116523261000
 Root     91 :    33.252496960937850
 Root     92 :    33.517146491273970
 Root     93 :    34.465744509871560
 Root     94 :    35.107667059385480
 Root     95 :    35.519207119787080
 Root     96 :    35.624903884518620
 Root     97 :    36.326359514094070
 Root     98 :    36.639633094450220
 Root     99 :    36.916570566873100
 Root    100 :    37.564255127889110
 Root    101 :    37.582941139054670
 Root    102 :    38.022153500211550
 Root    103 :    38.498221392250940
 Root    104 :    38.667389351172470
 Root    105 :    39.050636682798380
 Root    106 :    39.399814091825010
 Root    107 :    39.435398613467750
 Root    108 :    39.660330470555580
 Root    109 :    39.978156956217650
 Root    110 :    40.190143507092470
 Root    111 :    40.748884509402210
 Root    112 :    41.161319203635870
 Root    113 :    41.382661927808100
 Root    114 :    41.573215822841180
 Root    115 :    41.739827063110970
 Root    116 :    41.988533821298550
 Root    117 :    42.527020770607610
 Root    118 :    42.581066506601600
 Root    119 :    43.029943995126350
 Root    120 :    48.291802270916110
 Iteration     2 Dimension   180 NMult   120 NNew     60
 CISAX will form    60 AO SS matrices at one time.
 NMat=    60 NSing=    60 JSym2X=-1.
 Root      1 not converged, maximum delta is    0.005760538241141
 Root      2 not converged, maximum delta is    0.003545467344317
 Root      3 not converged, maximum delta is    0.002614548839734
 Root      4 not converged, maximum delta is    0.003742275301513
 Root      5 not converged, maximum delta is    0.002106207707906
 Root      6 not converged, maximum delta is    0.007327811483108
 Root      7 not converged, maximum delta is    0.002446932264639
 Root      8 not converged, maximum delta is    0.005984467460599
 New state      9 was old state     10
 Root      9 not converged, maximum delta is    0.010724666073320
 New state     10 was old state      9
 Root     10 not converged, maximum delta is    0.001478889948483
 Root     11 not converged, maximum delta is    0.016584133172136
 Root     12 not converged, maximum delta is    0.001316133796100
 Root     13 not converged, maximum delta is    0.019027664109475
 Root     14 not converged, maximum delta is    0.006573072576459
 Root     15 not converged, maximum delta is    0.007472193505655
 Root     16 not converged, maximum delta is    0.071570937185436
 New state     17 was old state     18
 Root     17 not converged, maximum delta is    0.005881640939442
 New state     18 was old state     17
 Root     18 not converged, maximum delta is    0.001160847902833
 Root     19 not converged, maximum delta is    0.007219283041346
 Root     20 not converged, maximum delta is    0.045179801544520
 Root     21 not converged, maximum delta is    0.011950964444596
 Root     22 not converged, maximum delta is    0.003846653101625
 Root     23 not converged, maximum delta is    0.024093136794588
 Root     24 not converged, maximum delta is    0.015790354016109
 Root     25 not converged, maximum delta is    0.015263337816203
 Root     26 not converged, maximum delta is    0.045557470660388
 Root     27 not converged, maximum delta is    0.019727053571279
 Root     28 not converged, maximum delta is    0.002462976160524
 Root     29 not converged, maximum delta is    0.016025078171823
 Root     30 not converged, maximum delta is    0.032803720491701
 Excitation Energies [eV] at current iteration:
 Root      1 :     5.104585738137542   Change is   -0.012046389720930
 Root      2 :     6.358431324120909   Change is   -0.003183480648046
 Root      3 :     7.147447192990780   Change is   -0.005438240225516
 Root      4 :     7.287903049349161   Change is   -0.003247138579561
 Root      5 :     7.835533053010528   Change is   -0.001603555060332
 Root      6 :    10.177817949820660   Change is   -0.014555674469342
 Root      7 :    10.703310352131370   Change is   -0.002038949280523
 Root      8 :    11.571674039790960   Change is   -0.010255298858732
 Root      9 :    11.726075199511150   Change is   -0.068837969805788
 Root     10 :    11.754916723918010   Change is   -0.001179163762057
 Root     11 :    12.127959733597140   Change is   -0.018401467783997
 Root     12 :    12.774241219839650   Change is   -0.000891314716005
 Root     13 :    12.899069362525060   Change is   -0.021636084909633
 Root     14 :    13.068247221348630   Change is   -0.006518172979906
 Root     15 :    13.158869812037310   Change is   -0.008679094388091
 Root     16 :    13.458199074054070   Change is   -0.043211974644493
 Root     17 :    13.650112509778950   Change is   -0.005096700689946
 Root     18 :    13.653774864990690   Change is   -0.000404398261022
 Root     19 :    13.755831513997110   Change is   -0.007126182134136
 Root     20 :    13.778403550658010   Change is   -0.038635202370439
 Root     21 :    14.390879053279540   Change is   -0.014098717816374
 Root     22 :    14.478920265610560   Change is   -0.003294155617847
 Root     23 :    14.627126952088300   Change is   -0.046675844039185
 Root     24 :    15.348847654806010   Change is   -0.003388851905916
 Root     25 :    15.398434345859590   Change is   -0.022280133982917
 Root     26 :    15.470886661152810   Change is   -0.063719794756890
 Root     27 :    15.575965806115990   Change is   -0.018432640274900
 Root     28 :    15.950326993092900   Change is   -0.001056017829890
 Root     29 :    16.114366550089830   Change is   -0.005913522682594
 Root     30 :    16.251511979342250   Change is   -0.051058959661867
 Iteration     3 Dimension   239 NMult   180 NNew     59
 CISAX will form    59 AO SS matrices at one time.
 NMat=    59 NSing=    59 JSym2X=-1.
 Root      1 has converged.
 Root      2 has converged.
 Root      3 has converged.
 Root      4 has converged.
 Root      5 has converged.
 Root      6 has converged.
 Root      7 has converged.
 Root      8 has converged.
 Root      9 has converged.
 Root     10 has converged.
 Root     11 has converged.
 Root     12 has converged.
 Root     13 has converged.
 Root     14 has converged.
 Root     15 has converged.
 Root     16 has converged.
 Root     17 has converged.
 Root     18 has converged.
 Root     19 has converged.
 Root     20 has converged.
 Root     21 has converged.
 Root     22 has converged.
 Root     23 has converged.
 Root     24 has converged.
 Root     25 has converged.
 Root     26 has converged.
 Root     27 has converged.
 Root     28 has converged.
 Root     29 has converged.
 Root     30 has converged.
 Excitation Energies [eV] at current iteration:
 Root      1 :     5.104583250665916   Change is   -0.000002487471626
 Root      2 :     6.358429042736748   Change is   -0.000002281384161
 Root      3 :     7.147444638924913   Change is   -0.000002554065868
 Root      4 :     7.287901081306573   Change is   -0.000001968042589
 Root      5 :     7.835532755125757   Change is   -0.000000297884771
 Root      6 :    10.177810879355540   Change is   -0.000007070465122
 Root      7 :    10.703307105937110   Change is   -0.000003246194255
 Root      8 :    11.571657581002580   Change is   -0.000016458788386
 Root      9 :    11.725932611324970   Change is   -0.000142588186179
 Root     10 :    11.754915867107300   Change is   -0.000000856810714
 Root     11 :    12.127924011285010   Change is   -0.000035722312133
 Root     12 :    12.774239438991940   Change is   -0.000001780847708
 Root     13 :    12.899026590043350   Change is   -0.000042772481712
 Root     14 :    13.068244303515340   Change is   -0.000002917833288
 Root     15 :    13.158857857226260   Change is   -0.000011954811053
 Root     16 :    13.458108491601980   Change is   -0.000090582452085
 Root     17 :    13.650097967867890   Change is   -0.000014541911062
 Root     18 :    13.653774627720610   Change is   -0.000000237270080
 Root     19 :    13.755817410370210   Change is   -0.000014103626897
 Root     20 :    13.778307718304840   Change is   -0.000095832353165
 Root     21 :    14.390839372034580   Change is   -0.000039681244957
 Root     22 :    14.478912996830730   Change is   -0.000007268779827
 Root     23 :    14.627027234978970   Change is   -0.000099717109329
 Root     24 :    15.348839170951730   Change is   -0.000008483854276
 Root     25 :    15.398396912942630   Change is   -0.000037432916964
 Root     26 :    15.470801291756580   Change is   -0.000085369396233
 Root     27 :    15.575914554201860   Change is   -0.000051251914125
 Root     28 :    15.950326466573100   Change is   -0.000000526519807
 Root     29 :    16.114353163117710   Change is   -0.000013386972117
 Root     30 :    16.251462818592890   Change is   -0.000049160749356
 Convergence achieved on expansion vectors.
 ***********************************************************************
 Excited states from <AA,BB:AA,BB> singles matrix:
 ***********************************************************************
 
 1PDM for each excited state written to RWF  633
 Ground to excited state transition densities written to RWF  633
 Ground to excited state transition electric dipole moments (Au):
       state          X           Y           Z        Dip. S.      Osc.
         1        -0.0000      0.0000     -0.0000      0.0000      0.0000
         2         0.0000      0.6516     -0.0000      0.4246      0.0661
         3         0.0000      0.3422      0.0000      0.1171      0.0205
         4        -0.0000     -0.0000     -0.5391      0.2906      0.0519
         5         0.0000     -0.0000     -0.0000      0.0000      0.0000
         6        -0.0000      0.9827     -0.0000      0.9657      0.2408
         7        -0.0000     -0.1329     -0.0000      0.0177      0.0046
         8         0.0000     -0.0000     -0.1284      0.0165      0.0047
         9        -0.0136     -0.0000      0.0000      0.0002      0.0001
        10        -0.0000      0.0000      0.0000      0.0000      0.0000
        11         0.0000      0.0000     -0.4823      0.2326      0.0691
        12        -0.3578     -0.0000      0.0000      0.1280      0.0401
        13        -0.0000     -0.0000     -0.4158      0.1729      0.0546
        14         0.0000     -0.0000     -0.0000      0.0000      0.0000
        15        -0.0000     -0.3609      0.0000      0.1302      0.0420
        16         0.0000      0.0000      1.0832      1.1733      0.3869
        17         0.2397     -0.0000      0.0000      0.0575      0.0192
        18         0.0000     -0.0000      0.0000      0.0000      0.0000
        19        -0.0000     -0.3581     -0.0000      0.1283      0.0432
        20        -0.0000     -0.0000      0.0659      0.0043      0.0015
        21        -0.2735     -0.0000      0.0000      0.0748      0.0264
        22         0.0000     -0.4958      0.0000      0.2458      0.0872
        23        -0.0000     -0.0000     -0.5945      0.3535      0.1267
        24         0.0000      0.1262     -0.0000      0.0159      0.0060
        25        -0.0000     -0.2818      0.0000      0.0794      0.0300
        26        -0.4838      0.0000      0.0000      0.2340      0.0887
        27        -0.0000     -0.0000     -0.3249      0.1056      0.0403
        28        -0.0000      0.0000      0.0000      0.0000      0.0000
        29         0.0000      0.0000      0.0283      0.0008      0.0003
        30         0.5826      0.0000      0.0000      0.3394      0.1351
 Ground to excited state transition velocity dipole moments (Au):
       state          X           Y           Z        Dip. S.      Osc.
         1         0.0000     -0.0000     -0.0000      0.0000      0.0000
         2        -0.0000     -0.1499     -0.0000      0.0225      0.0641
         3        -0.0000     -0.0933     -0.0000      0.0087      0.0221
         4         0.0000      0.0000      0.1385      0.0192      0.0478
         5        -0.0000     -0.0000      0.0000      0.0000      0.0000
         6         0.0000     -0.3678     -0.0000      0.1353      0.2411
         7         0.0000      0.0205      0.0000      0.0004      0.0007
         8        -0.0000      0.0000      0.0616      0.0038      0.0060
         9        -0.0038      0.0000     -0.0000      0.0000      0.0000
        10         0.0000     -0.0000     -0.0000      0.0000      0.0000
        11        -0.0000     -0.0000      0.2142      0.0459      0.0686
        12         0.1714      0.0000     -0.0000      0.0294      0.0417
        13         0.0000      0.0000      0.1948      0.0380      0.0534
        14        -0.0000      0.0000      0.0000      0.0000      0.0000
        15         0.0000      0.1833     -0.0000      0.0336      0.0463
        16        -0.0000      0.0000     -0.5327      0.2838      0.3825
        17        -0.1287      0.0000      0.0000      0.0166      0.0220
        18        -0.0000      0.0000     -0.0000      0.0000      0.0000
        19         0.0000      0.1801      0.0000      0.0324      0.0428
        20         0.0000      0.0000     -0.0393      0.0015      0.0020
        21         0.1381      0.0000      0.0000      0.0191      0.0240
        22        -0.0000      0.2620     -0.0000      0.0686      0.0860
        23         0.0000      0.0000      0.3234      0.1046      0.1297
        24        -0.0000     -0.0769      0.0000      0.0059      0.0070
        25         0.0000      0.1548     -0.0000      0.0240      0.0282
        26         0.2900     -0.0000     -0.0000      0.0841      0.0986
        27         0.0000      0.0000      0.1909      0.0364      0.0424
        28         0.0000     -0.0000     -0.0000      0.0000      0.0000
        29        -0.0000      0.0000     -0.0223      0.0005      0.0006
        30        -0.3375     -0.0000      0.0000      0.1139      0.1272
 Ground to excited state transition magnetic dipole moments (Au):
       state          X           Y           Z
         1        -0.0000     -0.0000      1.2924
         2        -0.4379      0.0000     -0.0000
         3         0.7891      0.0000      0.0000
         4         0.0000     -0.0000      0.0000
         5         0.0000      0.0000     -0.2154
         6        -0.9032     -0.0000     -0.0000
         7         0.8137     -0.0000     -0.0000
         8         0.0000     -0.0000      0.0000
         9        -0.0000     -1.3143     -0.0000
        10        -0.0000     -0.0000      0.0325
        11        -0.0000      0.0000     -0.0000
        12        -0.0000     -0.0449     -0.0000
        13        -0.0000     -0.0000      0.0000
        14        -0.0000      0.0000     -0.4340
        15        -0.5329     -0.0000      0.0000
        16         0.0000      0.0000      0.0000
        17        -0.0000     -0.0612     -0.0000
        18        -0.0000     -0.0000      0.0544
        19        -0.2764      0.0000      0.0000
        20        -0.0000      0.0000      0.0000
        21        -0.0000      0.6688      0.0000
        22         0.2701     -0.0000     -0.0000
        23         0.0000      0.0000     -0.0000
        24         0.1433      0.0000     -0.0000
        25         1.1071     -0.0000      0.0000
        26        -0.0000     -0.5048      0.0000
        27         0.0000      0.0000      0.0000
        28        -0.0000     -0.0000      0.0875
        29         0.0000      0.0000      0.0000
        30        -0.0000      0.1217      0.0000
 Ground to excited state transition velocity quadrupole moments (Au):
       state          XX          YY          ZZ          XY          XZ          YZ
         1        -0.0000     -0.0000      0.0000     -0.1793     -0.0000      0.0000
         2        -0.0000     -0.0000     -0.0000     -0.0000      0.0000      0.5344
         3        -0.0000     -0.0000     -0.0000     -0.0000      0.0000      0.1832
         4        -0.1449     -0.5641     -0.2229      0.0000     -0.0000     -0.0000
         5        -0.0000     -0.0000      0.0000     -0.1332      0.0000     -0.0000
         6        -0.0000     -0.0000     -0.0000      0.0000     -0.0000      0.8373
         7         0.0000     -0.0000     -0.0000      0.0000     -0.0000      0.2579
         8         0.0519     -0.7547     -0.8368     -0.0000     -0.0000     -0.0000
         9        -0.0000      0.0000      0.0000     -0.0000     -0.4619     -0.0000
        10         0.0000     -0.0000     -0.0000      0.2900     -0.0000      0.0000
        11         0.2616      0.0164     -0.1370     -0.0000      0.0000     -0.0000
        12         0.0000      0.0000     -0.0000     -0.0000     -0.0332      0.0000
        13        -0.0304      0.0719      0.2861     -0.0000     -0.0000     -0.0000
        14        -0.0000      0.0000      0.0000      0.2388      0.0000      0.0000
        15        -0.0000     -0.0000     -0.0000     -0.0000     -0.0000      0.1179
        16         0.4522      0.6689      0.5500     -0.0000      0.0000      0.0000
        17         0.0000     -0.0000      0.0000     -0.0000     -0.2763      0.0000
        18        -0.0000     -0.0000     -0.0000      0.2470     -0.0000     -0.0000
        19         0.0000      0.0000      0.0000     -0.0000      0.0000      0.0229
        20        -0.4948     -0.5131     -0.1845     -0.0000      0.0000      0.0000
        21        -0.0000      0.0000      0.0000     -0.0000      0.2713      0.0000
        22        -0.0000      0.0000      0.0000     -0.0000     -0.0000     -0.3491
        23         0.3724     -0.4547     -0.0407     -0.0000     -0.0000     -0.0000
        24         0.0000      0.0000      0.0000     -0.0000      0.0000     -0.3644
        25        -0.0000     -0.0000     -0.0000      0.0000     -0.0000     -0.0119
        26        -0.0000      0.0000     -0.0000     -0.0000     -0.4011      0.0000
        27         0.1813      0.4722     -0.1260     -0.0000     -0.0000      0.0000
        28        -0.0000     -0.0000     -0.0000      0.2630     -0.0000     -0.0000
        29        -0.4133      0.0511     -0.2847     -0.0000      0.0000     -0.0000
        30        -0.0000     -0.0000      0.0000      0.0000      0.3769      0.0000
 <0|del|b> * <b|rxdel|0> + <0|del|b> * <b|delr+rdel|0>
 Rotatory Strengths (R) in cgs (10**-40 erg-esu-cm/Gauss)
       state          XX          YY          ZZ    R(velocity)    E-M Angle
         1        -0.0000     -0.0000      0.0000     -0.0000       90.00
         2         0.0000     -0.0000      0.0000      0.0000       90.00
         3         0.0000     -0.0000     -0.0000     -0.0000       90.00
         4         0.0000     -0.0000      0.0000      0.0000       90.00
         5        -0.0000     -0.0000     -0.0000     -0.0000       90.00
         6         0.0000     -0.0000      0.0000      0.0000       90.00
         7        -0.0000      0.0000     -0.0000      0.0000       90.00
         8         0.0000      0.0000     -0.0000      0.0000       90.00
         9        -0.0000      0.0000     -0.0000     -0.0000       90.00
        10        -0.0000      0.0000      0.0000     -0.0000       90.00
        11        -0.0000     -0.0000     -0.0000     -0.0000       90.00
        12        -0.0000      0.0000     -0.0000     -0.0000       90.00
        13         0.0000      0.0000     -0.0000      0.0000       90.00
        14        -0.0000     -0.0000      0.0000     -0.0000       90.00
        15         0.0000     -0.0000     -0.0000     -0.0000       90.00
        16         0.0000     -0.0000      0.0000     -0.0000       90.00
        17         0.0000      0.0000      0.0000      0.0000       90.00
        18        -0.0000      0.0000     -0.0000     -0.0000       90.00
        19         0.0000     -0.0000      0.0000      0.0000       90.00
        20         0.0000     -0.0000     -0.0000     -0.0000       90.00
        21         0.0000     -0.0000      0.0000      0.0000       90.00
        22        -0.0000      0.0000     -0.0000     -0.0000       90.00
        23        -0.0000     -0.0000      0.0000     -0.0000       90.00
        24        -0.0000      0.0000     -0.0000     -0.0000       90.00
        25        -0.0000      0.0000     -0.0000     -0.0000       90.00
        26         0.0000      0.0000     -0.0000     -0.0000       90.00
        27         0.0000      0.0000      0.0000      0.0000       90.00
        28        -0.0000      0.0000      0.0000     -0.0000       90.00
        29        -0.0000     -0.0000     -0.0000     -0.0000       90.00
        30         0.0000      0.0000      0.0000      0.0000       90.00
 1/2[<0|r|b>*<b|rxdel|0> + (<0|rxdel|b>*<b|r|0>)*]
 Rotatory Strengths (R) in cgs (10**-40 erg-esu-cm/Gauss)
       state          XX          YY          ZZ     R(length)
         1        -0.0000      0.0000      0.0000      0.0000
         2         0.0000     -0.0000     -0.0000     -0.0000
         3        -0.0000     -0.0000     -0.0000     -0.0000
         4         0.0000     -0.0000      0.0000      0.0000
         5        -0.0000      0.0000     -0.0000     -0.0000
         6        -0.0000      0.0000     -0.0000      0.0000
         7         0.0000     -0.0000     -0.0000     -0.0000
         8        -0.0000     -0.0000      0.0000      0.0000
         9        -0.0000     -0.0000      0.0000     -0.0000
        10        -0.0000      0.0000     -0.0000     -0.0000
        11         0.0000     -0.0000     -0.0000     -0.0000
        12        -0.0000     -0.0000      0.0000     -0.0000
        13        -0.0000     -0.0000      0.0000      0.0000
        14         0.0000      0.0000     -0.0000     -0.0000
        15        -0.0000     -0.0000     -0.0000     -0.0000
        16        -0.0000     -0.0000     -0.0000     -0.0000
        17         0.0000     -0.0000      0.0000      0.0000
        18         0.0000     -0.0000     -0.0000     -0.0000
        19        -0.0000      0.0000      0.0000      0.0000
        20        -0.0000      0.0000     -0.0000     -0.0000
        21        -0.0000      0.0000     -0.0000     -0.0000
        22        -0.0000     -0.0000      0.0000     -0.0000
        23         0.0000      0.0000     -0.0000     -0.0000
        24        -0.0000     -0.0000     -0.0000     -0.0000
        25         0.0000     -0.0000     -0.0000     -0.0000
        26        -0.0000      0.0000     -0.0000     -0.0000
        27         0.0000      0.0000      0.0000      0.0000
        28        -0.0000      0.0000     -0.0000     -0.0000
        29        -0.0000     -0.0000     -0.0000     -0.0000
        30         0.0000     -0.0000     -0.0000      0.0000
  1/2[<0|del|b>*<b|r|0> + (<0|r|b>*<b|del|0>)*] (Au)
       state          X           Y           Z        Dip. S.   Osc.(frdel)
         1        -0.0000     -0.0000      0.0000      0.0000      0.0000
         2        -0.0000     -0.0977      0.0000      0.0977      0.0651
         3        -0.0000     -0.0319     -0.0000      0.0319      0.0213
         4        -0.0000     -0.0000     -0.0747      0.0747      0.0498
         5        -0.0000      0.0000     -0.0000      0.0000      0.0000
         6        -0.0000     -0.3614      0.0000      0.3614      0.2410
         7        -0.0000     -0.0027     -0.0000      0.0027      0.0018
         8        -0.0000     -0.0000     -0.0079      0.0079      0.0053
         9         0.0001     -0.0000     -0.0000     -0.0001     -0.0000
        10        -0.0000     -0.0000     -0.0000      0.0000      0.0000
        11        -0.0000     -0.0000     -0.1033      0.1033      0.0689
        12        -0.0613     -0.0000     -0.0000      0.0613      0.0409
        13        -0.0000     -0.0000     -0.0810      0.0810      0.0540
        14        -0.0000     -0.0000     -0.0000      0.0000      0.0000
        15        -0.0000     -0.0662     -0.0000      0.0662      0.0441
        16        -0.0000      0.0000     -0.5770      0.5770      0.3847
        17        -0.0308     -0.0000      0.0000      0.0308      0.0206
        18        -0.0000     -0.0000     -0.0000      0.0000      0.0000
        19        -0.0000     -0.0645     -0.0000      0.0645      0.0430
        20        -0.0000     -0.0000     -0.0026      0.0026      0.0017
        21        -0.0378     -0.0000      0.0000      0.0378      0.0252
        22        -0.0000     -0.1299     -0.0000      0.1299      0.0866
        23        -0.0000     -0.0000     -0.1922      0.1922      0.1282
        24        -0.0000     -0.0097     -0.0000      0.0097      0.0065
        25        -0.0000     -0.0436     -0.0000      0.0436      0.0291
        26        -0.1403     -0.0000     -0.0000      0.1403      0.0935
        27        -0.0000     -0.0000     -0.0620      0.0620      0.0414
        28        -0.0000     -0.0000     -0.0000      0.0000      0.0000
        29        -0.0000      0.0000     -0.0006      0.0006      0.0004
        30        -0.1966     -0.0000      0.0000      0.1966      0.1311

 Excitation energies and oscillator strengths:
 
 Excited State   1:      Singlet-A2     5.1046 eV  242.89 nm  f=0.0000  <S**2>=0.000
       3 -> 27         0.00299
       3 -> 37         0.00247
       3 -> 46         0.00170
       4 -> 27         0.00300
       4 -> 37        -0.00075
       4 -> 46        -0.00094
       5 ->  9         0.01611
       5 -> 13        -0.00870
       5 -> 17         0.00622
       5 -> 23        -0.00282
       5 -> 28         0.00357
       5 -> 31         0.00276
       5 -> 36         0.00401
       5 -> 44         0.00066
       5 -> 47         0.00010
       5 -> 52         0.00084
       6 -> 27         0.00067
       6 -> 37        -0.00053
       6 -> 46         0.00152
       7 -> 12        -0.00062
       7 -> 16         0.00168
       7 -> 18        -0.00137
       7 -> 22         0.00165
       7 -> 24         0.00102
       7 -> 29        -0.00064
       7 -> 33         0.00033
       7 -> 35         0.00052
       7 -> 40        -0.00026
       7 -> 42         0.00039
       7 -> 48         0.00064
       7 -> 50        -0.00017
       7 -> 53         0.00037
       8 ->  9         0.69936
       8 -> 13        -0.09960
       8 -> 17         0.02682
       8 -> 23        -0.01141
       8 -> 28         0.00648
       8 -> 31         0.00351
       8 -> 36        -0.00170
       8 -> 44        -0.00026
       8 -> 47        -0.00013
       8 -> 52         0.00123
       3 <- 27         0.00212
       3 <- 37         0.00210
       3 <- 46         0.00177
       4 <- 27         0.00371
       4 <- 37        -0.00028
       4 <- 46        -0.00087
       5 <-  9         0.00018
       5 <- 13        -0.00102
       5 <- 17        -0.00046
       5 <- 23         0.00044
       5 <- 28        -0.00032
       5 <- 31        -0.00112
       5 <- 36         0.00179
       5 <- 44         0.00041
       5 <- 47         0.00016
       5 <- 52         0.00022
       6 <- 27         0.00100
       6 <- 37        -0.00053
       6 <- 46         0.00119
       7 <- 12        -0.00097
       7 <- 16        -0.00430
       7 <- 18        -0.00222
       7 <- 22         0.00601
       7 <- 24        -0.00110
       7 <- 29         0.00211
       7 <- 33        -0.00119
       7 <- 35         0.00241
       7 <- 40        -0.00043
       7 <- 42         0.00095
       7 <- 48         0.00047
       7 <- 53         0.00098
       8 <-  9        -0.01457
       8 <- 13         0.00653
       8 <- 17        -0.00387
       8 <- 23         0.00066
       8 <- 28        -0.00046
       8 <- 31         0.00214
       8 <- 36        -0.00217
       8 <- 52         0.00037
 This state for optimization and/or second-order correction.
 Total Energy, E(TD-HF/TD-DFT) =  -114.251592180    
 Copying the excited state density for this state as the 1-particle RhoCI density.
 
 Excited State   2:      Singlet-B2     6.3584 eV  194.99 nm  f=0.0661  <S**2>=0.000
       3 -> 12         0.00108
       3 -> 16         0.00035
       3 -> 18         0.00113
       3 -> 22        -0.00017
       3 -> 24         0.00126
       3 -> 29        -0.00014
       3 -> 35        -0.00019
       3 -> 50        -0.00012
       4 -> 12        -0.00511
       4 -> 16         0.00022
       4 -> 18         0.00231
       4 -> 22        -0.00311
       4 -> 24         0.00395
       4 -> 29        -0.00020
       4 -> 33        -0.00089
       4 -> 35         0.00087
       4 -> 40        -0.00031
       4 -> 42         0.00039
       5 -> 10        -0.00091
       5 -> 11        -0.00855
       5 -> 14         0.00629
       5 -> 15        -0.00143
       5 -> 19         0.00340
       5 -> 20        -0.00047
       5 -> 21         0.00391
       5 -> 25         0.00066
       5 -> 26        -0.00182
       5 -> 30         0.00250
       5 -> 32        -0.00029
       5 -> 34        -0.00028
       5 -> 38        -0.00057
       5 -> 39        -0.00024
       5 -> 41         0.00011
       5 -> 43        -0.00050
       5 -> 45        -0.00057
       5 -> 49         0.00027
       6 -> 12         0.00169
       6 -> 16        -0.00013
       6 -> 18         0.00422
       6 -> 22        -0.00263
       6 -> 24         0.00198
       6 -> 29        -0.00017
       6 -> 42        -0.00038
       6 -> 48         0.00036
       6 -> 50         0.00051
       7 -> 27         0.00066
       7 -> 46         0.00078
       8 -> 10         0.70570
       8 -> 11        -0.03616
       8 -> 14        -0.00599
       8 -> 15        -0.01067
       8 -> 19         0.01868
       8 -> 20         0.00960
       8 -> 21        -0.00609
       8 -> 25         0.00084
       8 -> 26        -0.00097
       8 -> 30         0.00037
       8 -> 32         0.00196
       8 -> 34         0.00191
       8 -> 38         0.00063
       8 -> 39         0.00057
       8 -> 41        -0.00019
       8 -> 43         0.00068
       8 -> 45        -0.00094
       8 -> 49         0.00016
       8 -> 54         0.00016
       3 <- 12         0.00032
       3 <- 16         0.00038
       3 <- 18         0.00054
       3 <- 22        -0.00025
       3 <- 24         0.00086
       3 <- 29        -0.00013
       3 <- 35        -0.00019
       4 <- 12         0.00036
       4 <- 16         0.00075
       4 <- 18         0.00273
       4 <- 22        -0.00189
       4 <- 24         0.00288
       4 <- 29        -0.00015
       4 <- 33        -0.00063
       4 <- 35         0.00062
       4 <- 40        -0.00027
       5 <- 10         0.00236
       5 <- 14         0.00473
       5 <- 15        -0.00140
       5 <- 19         0.00084
       5 <- 21         0.00212
       5 <- 25         0.00168
       5 <- 26        -0.00138
       5 <- 30         0.00085
       5 <- 32        -0.00055
       5 <- 34        -0.00033
       5 <- 38        -0.00045
       5 <- 39        -0.00017
       5 <- 41         0.00023
       5 <- 43        -0.00034
       5 <- 45        -0.00049
       5 <- 49         0.00024
       6 <- 12         0.00048
       6 <- 16        -0.00071
       6 <- 18         0.00183
       6 <- 22        -0.00099
       6 <- 24         0.00082
       6 <- 29         0.00049
       6 <- 33        -0.00016
       6 <- 35         0.00019
       6 <- 42        -0.00035
       6 <- 48         0.00031
       6 <- 50         0.00054
       7 <- 27         0.00051
       7 <- 46         0.00066
       8 <- 10        -0.00329
       8 <- 11        -0.00113
       8 <- 14        -0.00998
       8 <- 15         0.00071
       8 <- 19        -0.00067
       8 <- 20        -0.00036
       8 <- 21        -0.00355
       8 <- 25        -0.00297
       8 <- 26        -0.00038
       8 <- 30        -0.00063
       8 <- 32         0.00071
       8 <- 34         0.00163
       8 <- 38         0.00065
       8 <- 39         0.00046
       8 <- 43         0.00054
       8 <- 45        -0.00064
       8 <- 49         0.00019
       8 <- 51         0.00011
 
 Excited State   3:      Singlet-B2     7.1474 eV  173.47 nm  f=0.0205  <S**2>=0.000
       3 -> 12        -0.00017
       3 -> 16        -0.00068
       3 -> 18         0.00036
       3 -> 22         0.00020
       3 -> 24         0.00037
       3 -> 29         0.00129
       3 -> 33         0.00014
       3 -> 35        -0.00032
       3 -> 42        -0.00033
       3 -> 48         0.00022
       3 -> 50         0.00026
       4 -> 12         0.00311
       4 -> 16        -0.00211
       4 -> 18         0.00330
       4 -> 22        -0.00156
       4 -> 24         0.00345
       4 -> 29        -0.00107
       4 -> 33         0.00055
       4 -> 35        -0.00032
       4 -> 40        -0.00018
       4 -> 42        -0.00012
       4 -> 48         0.00017
       4 -> 50         0.00016
       5 -> 10        -0.00676
       5 -> 11         0.00031
       5 -> 14         0.00458
       5 -> 15        -0.00589
       5 -> 19        -0.00385
       5 -> 20        -0.00197
       5 -> 21         0.00112
       5 -> 25         0.00126
       5 -> 26         0.00111
       5 -> 30         0.00103
       5 -> 32        -0.00175
       5 -> 34        -0.00088
       5 -> 39         0.00056
       5 -> 41        -0.00085
       5 -> 45         0.00069
       5 -> 49        -0.00042
       5 -> 51        -0.00028
       6 -> 12        -0.00317
       6 -> 16        -0.00144
       6 -> 18        -0.00198
       6 -> 22         0.00145
       6 -> 29         0.00029
       6 -> 33        -0.00036
       6 -> 35         0.00137
       6 -> 40        -0.00047
       6 -> 42         0.00072
       6 -> 48        -0.00071
       6 -> 50        -0.00067
       6 -> 53         0.00014
       7 -> 27        -0.00064
       7 -> 37        -0.00125
       7 -> 46        -0.00129
       8 -> 10         0.03678
       8 -> 11         0.70518
       8 -> 14        -0.01386
       8 -> 15         0.01968
       8 -> 19        -0.02172
       8 -> 20         0.01348
       8 -> 21        -0.00211
       8 -> 25         0.00035
       8 -> 26         0.00081
       8 -> 30        -0.00142
       8 -> 34         0.00041
       8 -> 39         0.00022
       8 -> 41        -0.00143
       8 -> 45         0.00095
       8 -> 49        -0.00075
       8 -> 51        -0.00033
       8 -> 54        -0.00017
       3 <- 12         0.00029
       3 <- 16        -0.00041
       3 <- 18         0.00063
       3 <- 24         0.00045
       3 <- 29         0.00082
       3 <- 33         0.00020
       3 <- 35        -0.00036
       3 <- 42        -0.00028
       3 <- 48         0.00018
       3 <- 50         0.00015
       3 <- 53        -0.00022
       4 <- 12         0.00034
       4 <- 16         0.00014
       4 <- 18         0.00115
       4 <- 22        -0.00125
       4 <- 24         0.00149
       4 <- 29        -0.00044
       4 <- 33         0.00053
       4 <- 40        -0.00017
       4 <- 42        -0.00016
       4 <- 48         0.00010
       4 <- 50         0.00022
       5 <- 10         0.00134
       5 <- 11        -0.00059
       5 <- 14         0.00205
       5 <- 15        -0.00048
       5 <- 19         0.00069
       5 <- 21         0.00096
       5 <- 25         0.00101
       5 <- 26         0.00080
       5 <- 30         0.00077
       5 <- 32        -0.00027
       5 <- 34        -0.00125
       5 <- 38         0.00015
       5 <- 39         0.00033
       5 <- 41        -0.00087
       5 <- 43        -0.00011
       5 <- 45         0.00066
       5 <- 49        -0.00028
       5 <- 51        -0.00027
       6 <- 12        -0.00036
       6 <- 18        -0.00030
       6 <- 22         0.00037
       6 <- 33        -0.00015
       6 <- 35         0.00100
       6 <- 40        -0.00036
       6 <- 42         0.00050
       6 <- 48        -0.00061
       6 <- 50        -0.00059
       7 <- 27        -0.00021
       7 <- 37        -0.00101
       7 <- 46        -0.00110
       8 <- 10        -0.00112
       8 <- 11         0.00078
       8 <- 14        -0.00506
       8 <- 15         0.00085
       8 <- 19         0.00251
       8 <- 20        -0.00159
       8 <- 21        -0.00230
       8 <- 25        -0.00014
       8 <- 26         0.00128
       8 <- 30        -0.00083
       8 <- 32         0.00118
       8 <- 38        -0.00023
       8 <- 41        -0.00120
       8 <- 45         0.00079
       8 <- 49        -0.00048
       8 <- 51        -0.00030
 
 Excited State   4:      Singlet-A1     7.2879 eV  170.12 nm  f=0.0519  <S**2>=0.000
       3 -> 10         0.00150
       3 -> 11        -0.00098
       3 -> 14         0.00035
       3 -> 15        -0.00047
       3 -> 19         0.00114
       3 -> 20         0.00075
       3 -> 26        -0.00041
       3 -> 30         0.00119
       3 -> 32        -0.00032
       3 -> 34        -0.00022
       3 -> 38        -0.00034
       3 -> 39         0.00017
       3 -> 41        -0.00019
       3 -> 49        -0.00013
       3 -> 51        -0.00034
       3 -> 54        -0.00021
       4 -> 10         0.00550
       4 -> 11         0.00900
       4 -> 14         0.00607
       4 -> 15        -0.00072
       4 -> 19         0.00064
       4 -> 20         0.00604
       4 -> 21         0.00253
       4 -> 25         0.00706
       4 -> 26        -0.00083
       4 -> 30        -0.00058
       4 -> 32        -0.00026
       4 -> 34        -0.00088
       4 -> 38        -0.00010
       4 -> 39        -0.00049
       4 -> 41         0.00021
       4 -> 43         0.00011
       4 -> 45        -0.00028
       4 -> 49        -0.00023
       5 -> 12         0.00777
       5 -> 16        -0.00307
       5 -> 18         0.01110
       5 -> 22        -0.00043
       5 -> 24         0.00477
       5 -> 29         0.00036
       5 -> 33        -0.00016
       5 -> 35         0.00087
       5 -> 42        -0.00017
       5 -> 50        -0.00036
       5 -> 53        -0.00015
       6 -> 10         0.01339
       6 -> 11        -0.00459
       6 -> 14         0.00381
       6 -> 15         0.00145
       6 -> 19         0.00610
       6 -> 20         0.00412
       6 -> 21         0.00170
       6 -> 25         0.00226
       6 -> 26        -0.00055
       6 -> 30        -0.00047
       6 -> 32         0.00055
       6 -> 34        -0.00077
       6 -> 39        -0.00014
       6 -> 43         0.00011
       6 -> 49        -0.00020
       6 -> 51         0.00054
       7 ->  9         0.01002
       7 -> 13         0.00593
       7 -> 17         0.00494
       7 -> 23         0.00478
       7 -> 28         0.00025
       7 -> 31         0.00085
       7 -> 36         0.00054
       7 -> 44         0.00061
       7 -> 47        -0.00036
       8 -> 12         0.70563
       8 -> 16        -0.03068
       8 -> 18         0.02150
       8 -> 22         0.00498
       8 -> 24         0.00170
       8 -> 29         0.00221
       8 -> 33         0.00151
       8 -> 35        -0.00228
       8 -> 40        -0.00018
       8 -> 42         0.00112
       8 -> 48        -0.00037
       8 -> 50        -0.00023
       8 -> 53        -0.00017
       3 <- 10         0.00058
       3 <- 11        -0.00028
       3 <- 14         0.00023
       3 <- 15        -0.00017
       3 <- 19         0.00056
       3 <- 20         0.00034
       3 <- 21         0.00015
       3 <- 25         0.00020
       3 <- 26        -0.00019
       3 <- 30         0.00072
       3 <- 32        -0.00025
       3 <- 34        -0.00011
       3 <- 38        -0.00027
       3 <- 39         0.00015
       3 <- 41        -0.00017
       3 <- 45         0.00013
       3 <- 49        -0.00014
       3 <- 51        -0.00030
       3 <- 54        -0.00019
       4 <- 10         0.00528
       4 <- 11         0.00276
       4 <- 14         0.00446
       4 <- 15        -0.00102
       4 <- 19         0.00049
       4 <- 20         0.00341
       4 <- 21         0.00101
       4 <- 25         0.00409
       4 <- 26        -0.00042
       4 <- 32        -0.00054
       4 <- 34        -0.00097
       4 <- 38        -0.00017
       4 <- 39        -0.00047
       4 <- 45        -0.00027
       4 <- 49        -0.00020
       5 <- 12         0.00275
       5 <- 16         0.00023
       5 <- 18         0.00442
       5 <- 22         0.00014
       5 <- 24         0.00259
       5 <- 33        -0.00032
       5 <- 35         0.00079
       5 <- 42        -0.00015
       5 <- 50        -0.00026
       5 <- 53        -0.00014
       6 <- 10         0.00409
       6 <- 11        -0.00079
       6 <- 14         0.00171
       6 <- 15         0.00048
       6 <- 19         0.00235
       6 <- 20         0.00219
       6 <- 21         0.00066
       6 <- 25         0.00126
       6 <- 26        -0.00055
       6 <- 30        -0.00016
       6 <- 32         0.00030
       6 <- 34        -0.00060
       6 <- 39        -0.00021
       6 <- 41         0.00014
       6 <- 51         0.00050
       7 <-  9         0.00239
       7 <- 13         0.00194
       7 <- 17         0.00191
       7 <- 23         0.00265
       7 <- 31         0.00062
       7 <- 36         0.00044
       7 <- 44         0.00051
       7 <- 47        -0.00032
       8 <- 12        -0.00242
       8 <- 16        -0.00825
       8 <- 18        -0.00543
       8 <- 22         0.00037
       8 <- 24        -0.00238
       8 <- 29         0.00075
       8 <- 33         0.00096
       8 <- 35        -0.00143
       8 <- 40        -0.00020
       8 <- 42         0.00093
       8 <- 48        -0.00044
       8 <- 50        -0.00020
       8 <- 53        -0.00018
 
 Excited State   5:      Singlet-A2     7.8355 eV  158.23 nm  f=0.0000  <S**2>=0.000
       3 -> 27        -0.00101
       3 -> 37        -0.00088
       3 -> 46        -0.00049
       4 -> 27        -0.00011
       4 -> 37         0.00062
       4 -> 46         0.00016
       5 ->  9        -0.00988
       5 -> 13         0.00243
       5 -> 17         0.00467
       5 -> 23        -0.00044
       5 -> 31        -0.00200
       5 -> 36        -0.00167
       5 -> 44        -0.00027
       5 -> 52        -0.00024
       6 -> 27         0.00011
       6 -> 37         0.00027
       6 -> 46        -0.00052
       7 -> 12        -0.00045
       7 -> 16        -0.00194
       7 -> 18         0.00139
       7 -> 22        -0.00088
       7 -> 24        -0.00024
       7 -> 29         0.00024
       7 -> 35        -0.00024
       7 -> 42        -0.00019
       7 -> 48        -0.00019
       7 -> 53        -0.00012
       8 ->  9         0.09983
       8 -> 13         0.69960
       8 -> 17         0.00757
       8 -> 23         0.02062
       8 -> 28        -0.00064
       8 -> 31        -0.00125
       8 -> 36         0.00023
       8 -> 47         0.00018
       8 -> 52        -0.00029
       3 <- 27        -0.00050
       3 <- 37        -0.00068
       3 <- 46        -0.00059
       4 <- 27        -0.00059
       4 <- 46         0.00017
       5 <-  9        -0.00026
       5 <- 13        -0.00013
       5 <- 17         0.00063
       5 <- 23        -0.00010
       5 <- 36        -0.00045
       5 <- 44        -0.00011
       6 <- 27        -0.00018
       6 <- 37         0.00024
       6 <- 46        -0.00021
       7 <- 12        -0.00062
       7 <- 16        -0.00059
       7 <- 18         0.00060
       7 <- 22        -0.00175
       7 <- 24        -0.00014
       7 <- 29         0.00012
       7 <- 33         0.00056
       7 <- 35        -0.00096
       7 <- 40         0.00018
       7 <- 42        -0.00051
       7 <- 53        -0.00024
       8 <-  9         0.00455
       8 <- 13         0.00097
       8 <- 17         0.00033
       8 <- 23        -0.00037
       8 <- 28         0.00014
       8 <- 31        -0.00039
       8 <- 36         0.00046
       8 <- 52        -0.00013
 
 Excited State   6:      Singlet-B2    10.1778 eV  121.82 nm  f=0.2408  <S**2>=0.000
       3 -> 12        -0.00040
       3 -> 16        -0.00195
       3 -> 18         0.00010
       3 -> 22         0.00145
       3 -> 24         0.00084
       3 -> 29         0.00135
       3 -> 33        -0.00084
       3 -> 40         0.00018
       3 -> 42         0.00064
       3 -> 48         0.00032
       3 -> 50         0.00018
       4 -> 12        -0.01017
       4 -> 16        -0.00268
       4 -> 18         0.00381
       4 -> 22        -0.01532
       4 -> 24         0.01005
       4 -> 29         0.00019
       4 -> 33         0.00250
       4 -> 35        -0.00303
       4 -> 40        -0.00081
       4 -> 42         0.00233
       4 -> 48         0.00021
       4 -> 50         0.00010
       5 -> 10         0.01386
       5 -> 11        -0.00698
       5 -> 14         0.03080
       5 -> 15        -0.00817
       5 -> 19         0.00526
       5 -> 20        -0.01515
       5 -> 21         0.01562
       5 -> 25         0.00768
       5 -> 26        -0.00234
       5 -> 30        -0.00081
       5 -> 32         0.00220
       5 -> 34         0.00313
       5 -> 39         0.00225
       5 -> 41        -0.00061
       5 -> 43        -0.00063
       5 -> 49        -0.00013
       5 -> 51        -0.00024
       6 -> 12         0.00315
       6 -> 16        -0.00060
       6 -> 18         0.00996
       6 -> 22        -0.00834
       6 -> 24         0.00613
       6 -> 29         0.00125
       6 -> 33         0.00173
       6 -> 35        -0.00079
       6 -> 40        -0.00070
       6 -> 42         0.00085
       6 -> 48        -0.00046
       6 -> 50        -0.00023
       7 -> 27         0.00742
       7 -> 37         0.00026
       7 -> 46        -0.00060
       8 -> 10         0.00559
       8 -> 11         0.01418
       8 -> 14         0.70498
       8 -> 15        -0.00353
       8 -> 19         0.02078
       8 -> 20         0.00919
       8 -> 21        -0.03130
       8 -> 25        -0.00851
       8 -> 26        -0.00131
       8 -> 30        -0.00082
       8 -> 32         0.00292
       8 -> 34         0.00268
       8 -> 38         0.00106
       8 -> 39        -0.00453
       8 -> 41        -0.00086
       8 -> 43         0.00184
       8 -> 45        -0.00058
       8 -> 49        -0.00090
       3 <- 12        -0.00030
       3 <- 16        -0.00096
       3 <- 22         0.00061
       3 <- 24         0.00047
       3 <- 29         0.00079
       3 <- 33        -0.00047
       3 <- 40         0.00012
       3 <- 42         0.00048
       3 <- 48         0.00032
       3 <- 50         0.00013
       3 <- 53        -0.00013
       4 <- 12        -0.00167
       4 <- 16        -0.00017
       4 <- 18         0.00352
       4 <- 22        -0.00777
       4 <- 24         0.00593
       4 <- 29         0.00028
       4 <- 33         0.00088
       4 <- 35        -0.00218
       4 <- 40        -0.00075
       4 <- 42         0.00156
       4 <- 50         0.00024
       5 <- 10         0.00383
       5 <- 11        -0.00169
       5 <- 14         0.01119
       5 <- 15        -0.00281
       5 <- 19         0.00244
       5 <- 20        -0.00595
       5 <- 21         0.00774
       5 <- 25         0.00461
       5 <- 26        -0.00136
       5 <- 30        -0.00102
       5 <- 32         0.00162
       5 <- 34         0.00120
       5 <- 39         0.00169
       5 <- 41        -0.00030
       5 <- 43        -0.00044
       5 <- 45         0.00011
       5 <- 51        -0.00018
       6 <- 12         0.00048
       6 <- 16        -0.00015
       6 <- 18         0.00325
       6 <- 22        -0.00380
       6 <- 24         0.00288
       6 <- 29         0.00085
       6 <- 33         0.00093
       6 <- 35        -0.00047
       6 <- 40        -0.00062
       6 <- 42         0.00056
       6 <- 48        -0.00040
       6 <- 50        -0.00012
       7 <- 27         0.00476
       7 <- 46        -0.00065
       8 <- 10        -0.01036
       8 <- 11        -0.00481
       8 <- 14        -0.02332
       8 <- 15         0.00095
       8 <- 19         0.00237
       8 <- 20         0.00416
       8 <- 21        -0.01602
       8 <- 25        -0.00626
       8 <- 26         0.00043
       8 <- 30        -0.00067
       8 <- 32         0.00136
       8 <- 34         0.00071
       8 <- 38         0.00068
       8 <- 39        -0.00282
       8 <- 41        -0.00060
       8 <- 43         0.00132
       8 <- 49        -0.00064
 
 Excited State   7:      Singlet-B2    10.7033 eV  115.84 nm  f=0.0046  <S**2>=0.000
       3 -> 16         0.00065
       3 -> 18         0.00030
       3 -> 22        -0.00137
       3 -> 24        -0.00013
       3 -> 29        -0.00042
       3 -> 33         0.00017
       3 -> 35        -0.00044
       3 -> 40         0.00011
       3 -> 42        -0.00018
       4 -> 12         0.00106
       4 -> 16        -0.00278
       4 -> 18        -0.00012
       4 -> 22         0.00309
       4 -> 24         0.00217
       4 -> 29         0.00012
       4 -> 33         0.00091
       4 -> 40        -0.00022
       4 -> 48        -0.00020
       4 -> 50        -0.00015
       5 -> 10         0.00088
       5 -> 11        -0.01068
       5 -> 14         0.00037
       5 -> 15         0.01407
       5 -> 19         0.00042
       5 -> 21         0.00120
       5 -> 25         0.00108
       5 -> 26         0.00285
       5 -> 30         0.00217
       5 -> 32        -0.00088
       5 -> 34         0.00080
       5 -> 38        -0.00066
       5 -> 39         0.00054
       5 -> 41         0.00066
       5 -> 43         0.00046
       5 -> 45        -0.00034
       5 -> 49         0.00033
       5 -> 54         0.00021
       6 -> 12         0.00098
       6 -> 16        -0.00027
       6 -> 18         0.00170
       6 -> 22        -0.00261
       6 -> 24        -0.00038
       6 -> 29        -0.00070
       6 -> 33         0.00025
       6 -> 35        -0.00047
       6 -> 40         0.00028
       6 -> 42        -0.00027
       6 -> 48         0.00025
       6 -> 50         0.00036
       7 -> 27        -0.00017
       7 -> 46         0.00054
       8 -> 10         0.00979
       8 -> 11        -0.02079
       8 -> 14         0.00438
       8 -> 15         0.70597
       8 -> 19        -0.01586
       8 -> 20         0.01676
       8 -> 21         0.00860
       8 -> 25        -0.00561
       8 -> 26         0.00802
       8 -> 30         0.00201
       8 -> 32         0.00023
       8 -> 34         0.00084
       8 -> 38        -0.00098
       8 -> 39        -0.00035
       8 -> 41         0.00035
       8 -> 43        -0.00018
       8 -> 45        -0.00060
       8 -> 54         0.00023
       3 <- 12         0.00023
       3 <- 16         0.00084
       3 <- 18         0.00026
       3 <- 22        -0.00064
       3 <- 24         0.00045
       3 <- 29        -0.00055
       3 <- 33         0.00022
       3 <- 35        -0.00038
       4 <- 12        -0.00020
       4 <- 16        -0.00018
       4 <- 18        -0.00045
       4 <- 22         0.00017
       4 <- 29        -0.00022
       4 <- 33         0.00065
       4 <- 35         0.00017
       4 <- 40        -0.00016
       4 <- 42         0.00011
       4 <- 48        -0.00020
       4 <- 50        -0.00020
       5 <- 10        -0.00039
       5 <- 11         0.00048
       5 <- 15         0.00034
       5 <- 19        -0.00106
       5 <- 20         0.00038
       5 <- 21         0.00036
       5 <- 25        -0.00014
       5 <- 30         0.00030
       5 <- 32        -0.00047
       5 <- 38         0.00013
       5 <- 39         0.00028
       5 <- 41         0.00015
       5 <- 43         0.00017
       5 <- 45        -0.00017
       5 <- 49         0.00026
       5 <- 51         0.00013
       6 <- 12        -0.00027
       6 <- 16        -0.00135
       6 <- 22        -0.00026
       6 <- 24        -0.00070
       6 <- 29         0.00076
       6 <- 33         0.00014
       6 <- 40         0.00018
       6 <- 42        -0.00028
       6 <- 48         0.00031
       6 <- 50         0.00051
       6 <- 53         0.00024
       7 <- 37        -0.00016
       7 <- 46         0.00026
       8 <- 10         0.00068
       8 <- 11         0.00062
       8 <- 14         0.00073
       8 <- 15         0.00109
       8 <- 19        -0.00042
       8 <- 20        -0.00069
       8 <- 21        -0.00041
       8 <- 25         0.00037
       8 <- 26        -0.00031
       8 <- 30        -0.00053
       8 <- 32        -0.00019
       8 <- 34         0.00032
       8 <- 38        -0.00065
       8 <- 39        -0.00026
       8 <- 41         0.00016
       8 <- 43        -0.00018
       8 <- 45        -0.00035
       8 <- 49         0.00015
       8 <- 51         0.00020
 
 Excited State   8:      Singlet-A1    11.5717 eV  107.14 nm  f=0.0047  <S**2>=0.000
       3 -> 10         0.00143
       3 -> 11        -0.00049
       3 -> 14        -0.00057
       3 -> 15        -0.00211
       3 -> 19         0.00135
       3 -> 20         0.00041
       3 -> 21        -0.00095
       3 -> 25         0.00108
       3 -> 26        -0.00103
       3 -> 30         0.00175
       3 -> 32         0.00036
       3 -> 34        -0.00159
       3 -> 38        -0.00099
       3 -> 39         0.00054
       3 -> 41        -0.00102
       3 -> 43         0.00033
       3 -> 45         0.00098
       3 -> 49        -0.00014
       3 -> 51        -0.00010
       3 -> 54         0.00011
       4 -> 10         0.04016
       4 -> 11         0.01031
       4 -> 14         0.01971
       4 -> 15        -0.00931
       4 -> 19         0.00262
       4 -> 20         0.01390
       4 -> 21         0.00607
       4 -> 25         0.00872
       4 -> 26        -0.00470
       4 -> 30         0.00103
       4 -> 32        -0.00195
       4 -> 34         0.00032
       4 -> 38         0.00095
       4 -> 39        -0.00037
       4 -> 41        -0.00021
       4 -> 45        -0.00096
       4 -> 49         0.00037
       4 -> 51         0.00027
       4 -> 54        -0.00019
       5 -> 12         0.03065
       5 -> 16         0.01227
       5 -> 18         0.02152
       5 -> 22        -0.00307
       5 -> 24         0.01514
       5 -> 29         0.00040
       5 -> 33         0.00108
       5 -> 35        -0.00137
       5 -> 40         0.00027
       5 -> 42        -0.00065
       5 -> 48         0.00033
       5 -> 50         0.00025
       6 -> 10         0.08455
       6 -> 11        -0.01647
       6 -> 14         0.01275
       6 -> 15         0.01455
       6 -> 19         0.01519
       6 -> 20         0.00746
       6 -> 21         0.00428
       6 -> 25         0.00716
       6 -> 26         0.00853
       6 -> 30         0.00208
       6 -> 32         0.00256
       6 -> 34        -0.00132
       6 -> 38         0.00082
       6 -> 39        -0.00041
       6 -> 41        -0.00130
       6 -> 43        -0.00031
       6 -> 45         0.00077
       6 -> 49        -0.00081
       6 -> 51        -0.00068
       6 -> 54         0.00067
       7 ->  9         0.27447
       7 -> 13         0.01380
       7 -> 17         0.02908
       7 -> 23         0.01001
       7 -> 28         0.00777
       7 -> 31        -0.00085
       7 -> 36        -0.00017
       7 -> 47         0.00071
       7 -> 52         0.00127
       8 -> 12         0.02322
       8 -> 16         0.63316
       8 -> 18        -0.09896
       8 -> 22        -0.01356
       8 -> 24        -0.00403
       8 -> 29         0.00168
       8 -> 33         0.00149
       8 -> 35        -0.00351
       8 -> 40         0.00059
       8 -> 42        -0.00041
       8 -> 48         0.00049
       8 -> 50         0.00027
       3 <- 10         0.00071
       3 <- 11        -0.00041
       3 <- 14         0.00016
[...]
  46        4PY        -0.00000   0.00000  -0.05356  -0.11078  -0.14876
  47        4PZ        -0.00002   0.00000   0.00783   0.01511   0.00121
  48        5S          0.00059   0.00000  -0.00293  -0.00111  -0.00057
  49        5PX        -0.00000   0.00000   0.00000   0.00000   0.00000
  50        5PY        -0.00000   0.00000  -0.03196  -0.05605  -0.05473
  51        5PZ        -0.00028   0.00000   0.00379   0.00523   0.00064
  52        6D 0        0.00001   0.00000  -0.00177  -0.00352  -0.00029
  53        6D+1       -0.00000  -0.00000   0.00000   0.00000   0.00000
  54        6D-1        0.00000   0.00000  -0.00329  -0.00332   0.00268
  55        6D+2        0.00001   0.00000  -0.00008  -0.00014  -0.00002
  56        6D-2        0.00000   0.00000   0.00000   0.00000   0.00000
                          26        27        28        29        30
  26        4PX         0.00017
  27        4PY         0.00000   0.00127
  28        4PZ         0.00000  -0.00050   0.00033
  29 3   H  1S          0.00000  -0.00329  -0.00128   0.08319
  30        2S          0.00000  -0.00456  -0.00205   0.12386   0.18961
  31        3S          0.00000  -0.00116  -0.00132   0.06884   0.11820
  32        4PX         0.00017   0.00000   0.00000   0.00000   0.00000
  33        4PY         0.00000  -0.00066  -0.00002   0.00730   0.00942
  34        4PZ         0.00000   0.00002  -0.00017   0.00428   0.00581
  35 4   O  1S          0.00000  -0.00079  -0.00074   0.00323   0.00428
  36        2S          0.00000  -0.00169  -0.00058   0.00558   0.00812
  37        2PX         0.00438   0.00000   0.00000   0.00000   0.00000
  38        2PY         0.00000  -0.00516   0.00272   0.02630   0.06358
  39        2PZ         0.00000  -0.00384  -0.00069   0.00945   0.02008
  40        3S          0.00000   0.00634  -0.00044  -0.01861  -0.02874
  41        3PX         0.00640   0.00000   0.00000   0.00000   0.00000
  42        3PY         0.00000  -0.00745   0.00391   0.03856   0.09281
  43        3PZ         0.00000  -0.00540  -0.00097   0.01329   0.02822
  44        4S          0.00000   0.00299  -0.00124  -0.01410  -0.01519
  45        4PX         0.00455   0.00000   0.00000   0.00000   0.00000
  46        4PY         0.00000  -0.00510   0.00193   0.05356   0.11078
  47        4PZ         0.00000  -0.00262  -0.00038   0.00783   0.01511
  48        5S          0.00000  -0.00014  -0.00056  -0.00293  -0.00111
  49        5PX         0.00017   0.00000   0.00000   0.00000   0.00000
  50        5PY         0.00000  -0.00014  -0.00079   0.03196   0.05605
  51        5PZ         0.00000  -0.00076   0.00014   0.00379   0.00523
  52        6D 0        0.00000   0.00070   0.00009  -0.00177  -0.00352
  53        6D+1       -0.00058   0.00000   0.00000   0.00000   0.00000
  54        6D-1        0.00000   0.00070  -0.00056   0.00329   0.00332
  55        6D+2        0.00000   0.00003  -0.00000  -0.00008  -0.00014
  56        6D-2       -0.00000   0.00000   0.00000   0.00000   0.00000
                          31        32        33        34        35
  31        3S          0.10955
  32        4PX         0.00000   0.00017
  33        4PY         0.00065   0.00000   0.00127
  34        4PZ         0.00183   0.00000   0.00050   0.00033
  35 4   O  1S          0.00180   0.00000   0.00079  -0.00074   0.63928
  36        2S          0.00209   0.00000   0.00169  -0.00058   0.56871
  37        2PX         0.00000   0.00438   0.00000   0.00000   0.00000
  38        2PY         0.10413   0.00000  -0.00516  -0.00272  -0.00000
  39        2PZ         0.00144   0.00000   0.00384  -0.00069  -0.00712
  40        3S         -0.00359   0.00000  -0.00634  -0.00044  -0.12728
  41        3PX         0.00000   0.00640   0.00000   0.00000   0.00000
  42        3PY         0.15132   0.00000  -0.00745  -0.00391  -0.00000
  43        3PZ         0.00203   0.00000   0.00540  -0.00097  -0.01090
  44        4S         -0.00296   0.00000  -0.00299  -0.00124  -0.12657
  45        4PX         0.00000   0.00455   0.00000   0.00000   0.00000
  46        4PY         0.14876   0.00000  -0.00510  -0.00193  -0.00000
  47        4PZ         0.00121   0.00000   0.00262  -0.00038  -0.01397
  48        5S         -0.00057   0.00000   0.00014  -0.00056  -0.00888
  49        5PX         0.00000   0.00017   0.00000   0.00000   0.00000
  50        5PY         0.05473   0.00000  -0.00014   0.00079   0.00000
  51        5PZ         0.00064   0.00000   0.00076   0.00014   0.00201
  52        6D 0       -0.00029   0.00000  -0.00070   0.00009  -0.00204
  53        6D+1        0.00000  -0.00058   0.00000   0.00000   0.00000
  54        6D-1       -0.00268   0.00000   0.00070   0.00056   0.00000
  55        6D+2       -0.00002   0.00000  -0.00003  -0.00000  -0.00055
  56        6D-2        0.00000   0.00000   0.00000   0.00000   0.00000
                          36        37        38        39        40
  36        2S          0.52317
  37        2PX         0.00000   0.11572
  38        2PY        -0.00000   0.00000   0.17870
  39        2PZ        -0.01103  -0.00000  -0.00000   0.16644
  40        3S         -0.21844   0.00000   0.00000   0.03572   0.66760
  41        3PX         0.00000   0.16894   0.00000   0.00000   0.00000
  42        3PY        -0.00000   0.00000   0.25893   0.00000   0.00000
  43        3PZ        -0.01527  -0.00000  -0.00000   0.23283   0.04404
  44        4S         -0.19964   0.00000   0.00000   0.16634   0.56164
  45        4PX         0.00000   0.12030   0.00000   0.00000   0.00000
  46        4PY        -0.00000   0.00000   0.21887   0.00000   0.00000
  47        4PZ        -0.02269  -0.00000  -0.00000   0.11681   0.06914
  48        5S         -0.01558   0.00000   0.00000   0.06225   0.05099
  49        5PX         0.00000   0.00453   0.00000   0.00000   0.00000
  50        5PY         0.00000   0.00000   0.05258   0.00000  -0.00000
  51        5PZ         0.00256  -0.00000  -0.00000   0.00700  -0.00505
  52        6D 0       -0.00427   0.00000   0.00000  -0.02202   0.01462
  53        6D+1       -0.00000  -0.01539   0.00000  -0.00000   0.00000
  54        6D-1       -0.00000   0.00000  -0.01365  -0.00000   0.00000
  55        6D+2       -0.00097  -0.00000   0.00000   0.00001   0.00303
  56        6D-2        0.00000  -0.00000   0.00000   0.00000   0.00000
                          41        42        43        44        45
  41        3PX         0.24662
  42        3PY         0.00000   0.37518
  43        3PZ        -0.00000  -0.00000   0.32578
  44        4S          0.00000   0.00000   0.22798   0.58782
  45        4PX         0.17562   0.00000   0.00000   0.00000   0.12505
  46        4PY         0.00000   0.31733   0.00000   0.00000   0.00000
  47        4PZ        -0.00000  -0.00000   0.16303   0.15118  -0.00000
  48        5S          0.00000   0.00000   0.08679   0.09335   0.00000
  49        5PX         0.00661   0.00000   0.00000   0.00000   0.00471
  50        5PY         0.00000   0.07641   0.00000   0.00000   0.00000
  51        5PZ        -0.00000  -0.00000   0.00981   0.00101  -0.00000
  52        6D 0        0.00000   0.00000  -0.03097  -0.00662   0.00000
  53        6D+1       -0.02247   0.00000  -0.00000  -0.00000  -0.01600
  54        6D-1        0.00000  -0.01973  -0.00000  -0.00000   0.00000
  55        6D+2       -0.00000   0.00000  -0.00002   0.00242  -0.00000
  56        6D-2       -0.00000   0.00000   0.00000   0.00000  -0.00000
                          46        47        48        49        50
  46        4PY         0.27747
  47        4PZ        -0.00000   0.08519
  48        5S          0.00000   0.04579   0.02642
  49        5PX         0.00000   0.00000   0.00000   0.00018
  50        5PY         0.07506   0.00000   0.00000   0.00000   0.02757
  51        5PZ        -0.00000   0.00472   0.00165  -0.00000  -0.00000
  52        6D 0        0.00000  -0.01416  -0.00715   0.00000   0.00000
  53        6D+1        0.00000  -0.00000  -0.00000  -0.00060   0.00000
  54        6D-1       -0.01438  -0.00000  -0.00000   0.00000  -0.00137
  55        6D+2        0.00000   0.00021   0.00018   0.00000   0.00000
  56        6D-2        0.00000   0.00000   0.00000  -0.00000  -0.00000
                          51        52        53        54        55
  51        5PZ         0.00071
  52        6D 0       -0.00111   0.00348
  53        6D+1       -0.00000  -0.00000   0.00205
  54        6D-1       -0.00000  -0.00000   0.00000   0.00162
  55        6D+2       -0.00003   0.00009   0.00000  -0.00000   0.00001
  56        6D-2        0.00000   0.00000   0.00000  -0.00000   0.00000
                          56
  56        6D-2        0.00000
          Condensed to atoms (all electrons):
               1          2          3          4
     1  C    4.648294   0.418990   0.418990   0.400635
     2  H    0.418990   0.797066  -0.144039  -0.118310
     3  H    0.418990  -0.144039   0.797066  -0.118310
     4  O    0.400635  -0.118310  -0.118310   8.041664
 Mulliken charges:
               1
     1  C    0.113091
     2  H    0.046294
     3  H    0.046294
     4  O   -0.205679
 Sum of Mulliken charges =  -0.00000
 Mulliken charges with hydrogens summed into heavy atoms:
               1
     1  C    0.205679
     4  O   -0.205679
 Electronic spatial extent (au):  <R**2>=             53.7856
 Charge=             -0.0000 electrons
 Dipole moment (field-independent basis, Debye):
    X=              0.0000    Y=              0.0000    Z=             -1.3250  Tot=              1.3250
 Quadrupole moment (field-independent basis, Debye-Ang):
   XX=            -11.1209   YY=            -11.9976   ZZ=            -12.9532
   XY=             -0.0000   XZ=             -0.0000   YZ=             -0.0000
 Traceless Quadrupole moment (field-independent basis, Debye-Ang):
   XX=              0.9030   YY=              0.0263   ZZ=             -0.9293
   XY=             -0.0000   XZ=             -0.0000   YZ=             -0.0000
 Octapole moment (field-independent basis, Debye-Ang**2):
  XXX=              0.0000  YYY=             -0.0000  ZZZ=              2.3479  XYY=              0.0000
  XXY=             -0.0000  XXZ=              0.9728  XZZ=              0.0000  YZZ=              0.0000
  YYZ=              1.1460  XYZ=              0.0000
 Hexadecapole moment (field-independent basis, Debye-Ang**3):
 XXXX=             -9.4126 YYYY=            -21.4731 ZZZZ=            -40.4399 XXXY=             -0.0000
 XXXZ=             -0.0000 YYYX=             -0.0000 YYYZ=             -0.0000 ZZZX=             -0.0000
 ZZZY=              0.0000 XXYY=             -5.2931 XXZZ=             -8.1132 YYZZ=            -11.0175
 XXYZ=             -0.0000 YYXZ=             -0.0000 ZZXY=             -0.0000
 N-N= 3.599730697474D+01 E-N=-3.415249351121D+02  KE= 1.153571020094D+02
 Symmetry A1   KE= 1.046133655890D+02
 Symmetry A2   KE= 1.063753563003D-35
 Symmetry B1   KE= 3.945030298339D+00
 Symmetry B2   KE= 6.798706122092D+00
 Leave Link  601 at Fri Sep 17 10:52:36 2021, MaxMem=   268435456 cpu:               0.0 elap:               0.0
 (Enter /software/gaussian/g16-a03/l9999.exe)
 Electronic transition elements 
                 1             2             3             4             5 
      1  -0.114252D+03 -0.114206D+03 -0.114177D+03 -0.114171D+03 -0.114151D+03
      2   0.000000D+00  0.000000D+00  0.000000D+00  0.000000D+00  0.000000D+00
      3   0.000000D+00  0.651617D+00  0.342238D+00  0.000000D+00  0.000000D+00
      4   0.000000D+00  0.000000D+00  0.000000D+00 -0.539077D+00  0.000000D+00
      5   0.000000D+00  0.000000D+00  0.000000D+00  0.000000D+00  0.000000D+00
      6   0.000000D+00 -0.149940D+00 -0.933049D-01  0.000000D+00  0.000000D+00
      7   0.000000D+00  0.000000D+00  0.000000D+00  0.138545D+00  0.000000D+00
      8   0.000000D+00 -0.437896D+00  0.789071D+00  0.000000D+00  0.000000D+00
      9   0.000000D+00  0.000000D+00  0.000000D+00  0.000000D+00  0.000000D+00
     10   0.129242D+01  0.000000D+00  0.000000D+00  0.000000D+00 -0.215444D+00
     11   0.000000D+00  0.000000D+00  0.000000D+00 -0.144916D+00  0.000000D+00
     12   0.000000D+00  0.000000D+00  0.000000D+00 -0.564052D+00  0.000000D+00
     13   0.000000D+00  0.000000D+00  0.000000D+00 -0.222948D+00  0.000000D+00
     14  -0.179296D+00  0.000000D+00  0.000000D+00  0.000000D+00 -0.133169D+00
     15   0.000000D+00  0.000000D+00  0.000000D+00  0.000000D+00  0.000000D+00
     16   0.000000D+00  0.534380D+00  0.183209D+00  0.000000D+00  0.000000D+00
                 6             7             8             9            10 
      1  -0.114065D+03 -0.114046D+03 -0.114014D+03 -0.114008D+03 -0.114007D+03
      2   0.000000D+00  0.000000D+00  0.000000D+00 -0.135638D-01  0.000000D+00
      3   0.982719D+00 -0.132911D+00  0.000000D+00  0.000000D+00  0.000000D+00
      4   0.000000D+00  0.000000D+00 -0.128437D+00  0.000000D+00  0.000000D+00
      5   0.000000D+00  0.000000D+00  0.000000D+00 -0.382514D-02  0.000000D+00
      6  -0.367782D+00  0.205442D-01  0.000000D+00  0.000000D+00  0.000000D+00
      7   0.000000D+00  0.000000D+00  0.616154D-01  0.000000D+00  0.000000D+00
      8  -0.903211D+00  0.813683D+00  0.000000D+00  0.000000D+00  0.000000D+00
      9   0.000000D+00  0.000000D+00  0.000000D+00 -0.131426D+01  0.000000D+00
     10   0.000000D+00  0.000000D+00  0.000000D+00  0.000000D+00  0.325015D-01
     11   0.000000D+00  0.000000D+00  0.519018D-01  0.000000D+00  0.000000D+00
     12   0.000000D+00  0.000000D+00 -0.754692D+00  0.000000D+00  0.000000D+00
     13   0.000000D+00  0.000000D+00 -0.836828D+00  0.000000D+00  0.000000D+00
     14   0.000000D+00  0.000000D+00  0.000000D+00  0.000000D+00  0.289966D+00
     15   0.000000D+00  0.000000D+00  0.000000D+00 -0.461905D+00  0.000000D+00
     16   0.837295D+00  0.257904D+00  0.000000D+00  0.000000D+00  0.000000D+00
                11            12            13            14            15 
      1  -0.113993D+03 -0.113970D+03 -0.113965D+03 -0.113959D+03 -0.113956D+03
      2   0.000000D+00 -0.357833D+00  0.000000D+00  0.000000D+00  0.000000D+00
      3   0.000000D+00  0.000000D+00  0.000000D+00  0.000000D+00 -0.360885D+00
      4  -0.482321D+00  0.000000D+00 -0.415768D+00  0.000000D+00  0.000000D+00
      5   0.000000D+00  0.171379D+00  0.000000D+00  0.000000D+00  0.000000D+00
      6   0.000000D+00  0.000000D+00  0.000000D+00  0.000000D+00  0.183316D+00
      7   0.214170D+00  0.000000D+00  0.194838D+00  0.000000D+00  0.000000D+00
      8   0.000000D+00  0.000000D+00  0.000000D+00  0.000000D+00 -0.532939D+00
      9   0.000000D+00 -0.448731D-01  0.000000D+00  0.000000D+00  0.000000D+00
     10   0.000000D+00  0.000000D+00  0.000000D+00 -0.434019D+00  0.000000D+00
     11   0.261571D+00  0.000000D+00 -0.304130D-01  0.000000D+00  0.000000D+00
     12   0.164294D-01  0.000000D+00  0.719200D-01  0.000000D+00  0.000000D+00
     13  -0.136967D+00  0.000000D+00  0.286062D+00  0.000000D+00  0.000000D+00
     14   0.000000D+00  0.000000D+00  0.000000D+00  0.238813D+00  0.000000D+00
     15   0.000000D+00 -0.331623D-01  0.000000D+00  0.000000D+00  0.000000D+00
     16   0.000000D+00  0.000000D+00  0.000000D+00  0.000000D+00  0.117944D+00
                16            17            18            19            20 
      1  -0.113945D+03 -0.113938D+03 -0.113937D+03 -0.113934D+03 -0.113933D+03
      2   0.000000D+00  0.239733D+00  0.000000D+00  0.000000D+00  0.000000D+00
      3   0.000000D+00  0.000000D+00  0.000000D+00 -0.358146D+00  0.000000D+00
      4   0.108318D+01  0.000000D+00  0.000000D+00  0.000000D+00  0.658818D-01
      5   0.000000D+00 -0.128653D+00  0.000000D+00  0.000000D+00  0.000000D+00
      6   0.000000D+00  0.000000D+00  0.000000D+00  0.180056D+00  0.000000D+00
      7  -0.532697D+00  0.000000D+00  0.000000D+00  0.000000D+00 -0.392878D-01
      8   0.000000D+00  0.000000D+00  0.000000D+00 -0.276414D+00  0.000000D+00
      9   0.000000D+00 -0.612152D-01  0.000000D+00  0.000000D+00  0.000000D+00
     10   0.000000D+00  0.000000D+00  0.543956D-01  0.000000D+00  0.000000D+00
     11   0.452154D+00  0.000000D+00  0.000000D+00  0.000000D+00 -0.494840D+00
     12   0.668924D+00  0.000000D+00  0.000000D+00  0.000000D+00 -0.513094D+00
     13   0.549969D+00  0.000000D+00  0.000000D+00  0.000000D+00 -0.184545D+00
     14   0.000000D+00  0.000000D+00  0.247032D+00  0.000000D+00  0.000000D+00
     15   0.000000D+00 -0.276274D+00  0.000000D+00  0.000000D+00  0.000000D+00
     16   0.000000D+00  0.000000D+00  0.000000D+00  0.228509D-01  0.000000D+00
                21            22            23            24            25 
      1  -0.113910D+03 -0.113907D+03 -0.113902D+03 -0.113875D+03 -0.113873D+03
      2  -0.273492D+00  0.000000D+00  0.000000D+00  0.000000D+00  0.000000D+00
      3   0.000000D+00 -0.495823D+00  0.000000D+00  0.126152D+00 -0.281799D+00
      4   0.000000D+00  0.000000D+00 -0.594517D+00  0.000000D+00  0.000000D+00
      5   0.138060D+00  0.000000D+00  0.000000D+00  0.000000D+00  0.000000D+00
      6   0.000000D+00  0.261970D+00  0.000000D+00 -0.768878D-01  0.154814D+00
      7   0.000000D+00  0.000000D+00  0.323361D+00  0.000000D+00  0.000000D+00
      8   0.000000D+00  0.270142D+00  0.000000D+00  0.143257D+00  0.110713D+01
      9   0.668777D+00  0.000000D+00  0.000000D+00  0.000000D+00  0.000000D+00
     10   0.000000D+00  0.000000D+00  0.000000D+00  0.000000D+00  0.000000D+00
     11   0.000000D+00  0.000000D+00  0.372361D+00  0.000000D+00  0.000000D+00
     12   0.000000D+00  0.000000D+00 -0.454714D+00  0.000000D+00  0.000000D+00
     13   0.000000D+00  0.000000D+00 -0.407078D-01  0.000000D+00  0.000000D+00
     14   0.000000D+00  0.000000D+00  0.000000D+00  0.000000D+00  0.000000D+00
     15   0.271314D+00  0.000000D+00  0.000000D+00  0.000000D+00  0.000000D+00
     16   0.000000D+00 -0.349090D+00  0.000000D+00 -0.364410D+00 -0.118931D-01
                26            27            28            29            30 
      1  -0.113871D+03 -0.113867D+03 -0.113853D+03 -0.113847D+03 -0.113842D+03
      2  -0.483785D+00  0.000000D+00  0.000000D+00  0.000000D+00  0.582592D+00
      3   0.000000D+00  0.000000D+00  0.000000D+00  0.000000D+00  0.000000D+00
      4   0.000000D+00 -0.324923D+00  0.000000D+00  0.282709D-01  0.000000D+00
      5   0.289977D+00  0.000000D+00  0.000000D+00  0.000000D+00 -0.337513D+00
      6   0.000000D+00  0.000000D+00  0.000000D+00  0.000000D+00  0.000000D+00
      7   0.000000D+00  0.190909D+00  0.000000D+00 -0.222591D-01  0.000000D+00
      8   0.000000D+00  0.000000D+00  0.000000D+00  0.000000D+00  0.000000D+00
      9  -0.504802D+00  0.000000D+00  0.000000D+00  0.000000D+00  0.121709D+00
     10   0.000000D+00  0.000000D+00  0.875279D-01  0.000000D+00  0.000000D+00
     11   0.000000D+00  0.181337D+00  0.000000D+00 -0.413308D+00  0.000000D+00
     12   0.000000D+00  0.472228D+00  0.000000D+00  0.511101D-01  0.000000D+00
     13   0.000000D+00 -0.126012D+00  0.000000D+00 -0.284707D+00  0.000000D+00
     14   0.000000D+00  0.000000D+00  0.262996D+00  0.000000D+00  0.000000D+00
     15  -0.401141D+00  0.000000D+00  0.000000D+00  0.000000D+00  0.376913D+00
     16   0.000000D+00  0.000000D+00  0.000000D+00  0.000000D+00  0.000000D+00

 Test job not archived.
 1\1\GINC-BHD0009\SP\RB3LYP TD-FC\6-311+G(d,p)\C1H2O1\BWEIGHT\17-Sep-20
 21\0\\#p B3LYP/6-311+G** #p TD=(singlets,nstates=30)IOp(6/8=3) IOp(9/4
 0=4)\\Scan Step 100, Bond Length 1.0\\0,1\C,0,0.,0.,-0.52736\H,0,0.,0.
 93726,-1.11871\H,0,0.,-0.93726,-1.11871\O,0,0.,0.,0.47264\\Version=ES6
 4L-G16RevA.03\State=1-A1\HF=-114.4391822\RMSD=1.390e-09\PG=C02V [C2(C1
 O1),SGV(H2)]\\@


 THE WISE MAN HAS THE POWER TO REASON AWAY
 WHAT A FOOL BELIEVES.
                     - DOOBIE BROTHERS
 Job cpu time:       0 days  0 hours  0 minutes 27.0 seconds.
 Elapsed time:       0 days  0 hours  0 minutes 27.7 seconds.
 File lengths (MBytes):  RWF=     79 Int=      0 D2E=      0 Chk=     32 Scr=      1
 Normal termination of Gaussian 16 at Fri Sep 17 10:52:36 2021.
