 Entering Gaussian System, Link 0=g16
 Initial command:
 /software/gaussian/g16-c01/sse4/g16/l1.exe "/local_scratch/24657416/Gau-27875.inp" -scrdir="/local_scratch/24657416/"
 Entering Link 1 = /software/gaussian/g16-c01/sse4/g16/l1.exe PID=     27894.
  
 Copyright (c) 1988-2019, Gaussian, Inc.  All Rights Reserved.
  
 This is part of the Gaussian(R) 16 program.  It is based on
 the Gaussian(R) 09 system (copyright 2009, Gaussian, Inc.),
 the Gaussian(R) 03 system (copyright 2003, Gaussian, Inc.),
 the Gaussian(R) 98 system (copyright 1998, Gaussian, Inc.),
 the Gaussian(R) 94 system (copyright 1995, Gaussian, Inc.),
 the Gaussian 92(TM) system (copyright 1992, Gaussian, Inc.),
 the Gaussian 90(TM) system (copyright 1990, Gaussian, Inc.),
 the Gaussian 88(TM) system (copyright 1988, Gaussian, Inc.),
 the Gaussian 86(TM) system (copyright 1986, Carnegie Mellon
 University), and the Gaussian 82(TM) system (copyright 1983,
 Carnegie Mellon University). Gaussian is a federally registered
 trademark of Gaussian, Inc.
  
 This software contains proprietary and confidential information,
 including trade secrets, belonging to Gaussian, Inc.
  
 This software is provided under written license and may be
 used, copied, transmitted, or stored only in accord with that
 written license.
  
 The following legend is applicable only to US Government
 contracts under FAR:
  
                    RESTRICTED RIGHTS LEGEND
  
 Use, reproduction and disclosure by the US Government is
 subject to restrictions as set forth in subparagraphs (a)
 and (c) of the Commercial Computer Software - Restricted
 Rights clause in FAR 52.227-19.
  
 Gaussian, Inc.
 340 Quinnipiac St., Bldg. 40, Wallingford CT 06492
  
  
 ---------------------------------------------------------------
 Warning -- This program may not be used in any manner that
 competes with the business of Gaussian, Inc. or will provide
 assistance to any competitor of Gaussian, Inc.  The licensee
 of this program is prohibited from giving any competitor of
 Gaussian, Inc. access to this program.  By using this program,
 the user acknowledges that Gaussian, Inc. is engaged in the
 business of creating and licensing software in the field of
 computational chemistry and represents and warrants to the
 licensee that it is not a competitor of Gaussian, Inc. and that
 it will not use this program in any manner prohibited above.
 ---------------------------------------------------------------
  

 Cite this work as:
 Gaussian 16, Revision C.01,
 M. J. Frisch, G. W. Trucks, H. B. Schlegel, G. E. Scuseria, 
 M. A. Robb, J. R. Cheeseman, G. Scalmani, V. Barone, 
 G. A. Petersson, H. Nakatsuji, X. Li, M. Caricato, A. V. Marenich, 
 J. Bloino, B. G. Janesko, R. Gomperts, B. Mennucci, H. P. Hratchian, 
 J. V. Ortiz, A. F. Izmaylov, J. L. Sonnenberg, D. Williams-Young, 
 F. Ding, F. Lipparini, F. Egidi, J. Goings, B. Peng, A. Petrone, 
 T. Henderson, D. Ranasinghe, V. G. Zakrzewski, J. Gao, N. Rega, 
 G. Zheng, W. Liang, M. Hada, M. Ehara, K. Toyota, R. Fukuda, 
 J. Hasegawa, M. Ishida, T. Nakajima, Y. Honda, O. Kitao, H. Nakai, 
 T. Vreven, K. Throssell, J. A. Montgomery, Jr., J. E. Peralta, 
 F. Ogliaro, M. J. Bearpark, J. J. Heyd, E. N. Brothers, K. N. Kudin, 
 V. N. Staroverov, T. A. Keith, R. Kobayashi, J. Normand, 
 K. Raghavachari, A. P. Rendell, J. C. Burant, S. S. Iyengar, 
 J. Tomasi, M. Cossi, J. M. Millam, M. Klene, C. Adamo, R. Cammi, 
 J. W. Ochterski, R. L. Martin, K. Morokuma, O. Farkas, 
 J. B. Foresman, and D. J. Fox, Gaussian, Inc., Wallingford CT, 2019.
 
 ******************************************
 Gaussian 16:  ES64L-G16RevC.01  3-Jul-2019
                 1-May-2024 
 ******************************************
 %chk=geometry.chk
 %mem=9GB
 %nprocshared=12
 Will use up to   12 processors via shared memory.
 ----------------------------------------
 #P wB97XD/6-311+G* NoSymm #P Field=X-243
 ----------------------------------------
 1/38=1,172=1/1;
 2/12=2,15=1,17=6,18=5,40=1/2;
 3/5=4,6=6,7=11,11=2,14=1,15=-243,25=1,30=1,74=-58/1,2,3;
 4//1;
 5/5=2,38=5/2;
 6/7=2,8=2,9=2,10=2,28=1/1;
 99/5=1,9=1/99;
 Leave Link    1 at Wed May  1 14:27:44 2024, MaxMem=  1207959552 cpu:               2.0 elap:               2.0
 (Enter /software/gaussian/g16-c01/sse4/g16/l101.exe)
 -------
 TitleMe
 -------
 Symbolic Z-matrix:
 Charge =  1 Multiplicity = 1
 C                     0.0295    1.3397    0.0682 
 C                     1.4348    1.2867    0.0064 
 C                     2.1118    0.0511   -0.0054 
 C                     1.4451   -1.1372    0.0312 
 C                    -0.6879    0.1682    0.11 
 H                    -0.4713    2.2984    0.0781 
 H                     2.0273    2.1965   -0.0322 
 H                     1.9897   -2.0764    0.0232 
 H                    -1.7716    0.1804    0.1582 
 N                     3.5864    0.051    -0.0675 
 O                     4.1471   -1.0597   -0.0881 
 O                     4.145     1.1639   -0.0901 
 C                    -0.0236   -1.1458    0.0835 
 H                    -0.4367   -1.8725    0.7889 
 Br                   -0.5359   -1.8697   -1.7408 
 
 ITRead=  0  0  0  0  0  0  0  0  0  0  0  0  0  0  0
 MicOpt= -1 -1 -1 -1 -1 -1 -1 -1 -1 -1 -1 -1 -1 -1 -1
 NAtoms=     15 NQM=       15 NQMF=       0 NMMI=      0 NMMIF=      0
                NMic=       0 NMicF=      0.
                    Isotopes and Nuclear Properties:
 (Nuclear quadrupole moments (NQMom) in fm**2, nuclear magnetic moments (NMagM)
  in nuclear magnetons)

  Atom         1           2           3           4           5           6           7           8           9          10
 IAtWgt=          12          12          12          12          12           1           1           1           1          14
 AtmWgt=  12.0000000  12.0000000  12.0000000  12.0000000  12.0000000   1.0078250   1.0078250   1.0078250   1.0078250  14.0030740
 NucSpn=           0           0           0           0           0           1           1           1           1           2
 AtZEff=  -0.0000000  -0.0000000  -0.0000000  -0.0000000  -0.0000000  -0.0000000  -0.0000000  -0.0000000  -0.0000000  -0.0000000
 NQMom=    0.0000000   0.0000000   0.0000000   0.0000000   0.0000000   0.0000000   0.0000000   0.0000000   0.0000000   2.0440000
 NMagM=    0.0000000   0.0000000   0.0000000   0.0000000   0.0000000   2.7928460   2.7928460   2.7928460   2.7928460   0.4037610
 AtZNuc=   6.0000000   6.0000000   6.0000000   6.0000000   6.0000000   1.0000000   1.0000000   1.0000000   1.0000000   7.0000000

  Atom        11          12          13          14          15
 IAtWgt=          16          16          12           1          79
 AtmWgt=  15.9949146  15.9949146  12.0000000   1.0078250  78.9183361
 NucSpn=           0           0           0           1           3
 AtZEff=  -0.0000000  -0.0000000  -0.0000000  -0.0000000  -0.0000000
 NQMom=    0.0000000   0.0000000   0.0000000   0.0000000  31.3000000
 NMagM=    0.0000000   0.0000000   0.0000000   2.7928460   2.1063990
 AtZNuc=   8.0000000   8.0000000   6.0000000   1.0000000  35.0000000
 Leave Link  101 at Wed May  1 14:27:46 2024, MaxMem=  1207959552 cpu:               1.6 elap:               1.6
 (Enter /software/gaussian/g16-c01/sse4/g16/l202.exe)
                          Input orientation:                          
 ---------------------------------------------------------------------
 Center     Atomic      Atomic             Coordinates (Angstroms)
 Number     Number       Type             X           Y           Z
 ---------------------------------------------------------------------
      1          6           0        0.029500    1.339700    0.068200
      2          6           0        1.434800    1.286700    0.006400
      3          6           0        2.111800    0.051100   -0.005400
      4          6           0        1.445100   -1.137200    0.031200
      5          6           0       -0.687900    0.168200    0.110000
      6          1           0       -0.471300    2.298400    0.078100
      7          1           0        2.027300    2.196500   -0.032200
      8          1           0        1.989700   -2.076400    0.023200
      9          1           0       -1.771600    0.180400    0.158200
     10          7           0        3.586400    0.051000   -0.067500
     11          8           0        4.147100   -1.059700   -0.088100
     12          8           0        4.145000    1.163900   -0.090100
     13          6           0       -0.023600   -1.145800    0.083500
     14          1           0       -0.436700   -1.872500    0.788900
     15         35           0       -0.535900   -1.869700   -1.740800
 ---------------------------------------------------------------------
                    Distance matrix (angstroms):
                    1          2          3          4          5
     1  C    0.000000
     2  C    1.407656   0.000000
     3  C    2.449874   1.408963   0.000000
     4  C    2.853126   2.424049   1.363043   0.000000
     5  C    1.374344   2.401589   2.804523   2.501993   0.000000
     6  H    1.081667   2.159142   3.424870   3.934226   2.141421
     7  H    2.176095   1.086408   2.147231   3.384750   3.392128
     8  H    3.938800   3.408612   2.131193   1.085702   3.495040
     9  H    2.143837   3.395283   3.888995   3.478413   1.084840
    10  N    3.785591   2.482297   1.475907   2.450862   4.279589
    11  O    4.768247   3.587631   2.320164   2.705743   4.992415
    12  O    4.122294   2.714696   2.319353   3.549540   4.938459
    13  C    2.486114   2.837240   2.449573   1.469656   1.472614
    14  H    3.324903   3.754379   3.290289   2.157764   2.165286
    15  Br   3.727252   4.110867   3.702891   2.756973   2.757100
                    6          7          8          9         10
     6  H    0.000000
     7  H    2.503108   0.000000
     8  H    5.019802   4.273425   0.000000
     9  H    2.486588   4.304945   4.388479   0.000000
    10  N    4.640790   2.652397   2.661486   5.364313   0.000000
    11  O    5.712624   3.885809   2.387560   6.052233   1.244373
    12  O    4.756638   2.356750   3.893289   6.002923   1.245428
    13  C    3.473180   3.923079   2.218790   2.195425   3.806210
    14  H    4.231175   4.827242   2.552506   2.528663   4.540772
    15  Br   4.548146   5.101303   3.087568   3.055498   4.845862
                   11         12         13         14         15
    11  O    0.000000
    12  O    2.223602   0.000000
    13  C    4.175117   4.768865   0.000000
    14  H    4.737193   5.566358   1.093770   0.000000
    15  Br   5.031700   5.817075   2.028436   2.531646   0.000000
 Symmetry turned off by external request.
 Stoichiometry    C6H5BrNO2(1+)
 Framework group  C1[X(C6H5BrNO2)]
 Deg. of freedom    39
 Full point group                 C1      NOp   1
 Rotational constants (GHZ):           1.8252210           0.5518633           0.4576002
 Leave Link  202 at Wed May  1 14:27:47 2024, MaxMem=  1207959552 cpu:               1.2 elap:               1.2
 (Enter /software/gaussian/g16-c01/sse4/g16/l301.exe)
 Standard basis: 6-311+G(d) (5D, 7F)
 Ernie: Thresh=  0.10000D-02 Tol=  0.10000D-05 Strict=F.
 The following finite field(s) will be applied:
 An electric field of             -0.0243  0.0000  0.0000
   261 basis functions,   443 primitive gaussians,   273 cartesian basis functions
    49 alpha electrons       49 beta electrons
       nuclear repulsion energy       739.2122215416 Hartrees.
 IExCor= 4639 DFT=T Ex+Corr=wB97XD ExCW=0 ScaHFX=  1.000000
 ScaDFX=  1.000000  1.000000  1.000000  1.000000 ScalE2=  1.000000  1.000000
 IRadAn=      5 IRanWt=     -1 IRanGd=            0 ICorTp=0 IEmpDi=121
 HFx  wShort=  0.000000 wLong=  0.200000 cFull=  0.222036 cShort=  0.000000 cLong=  0.777964
 DFx  wShort=  0.000000 wLong=  0.200000 cFull=  0.000000 cShort=  0.000000 cLong=  1.000000
 NAtoms=   15 NActive=   15 NUniq=   15 SFac= 1.00D+00 NAtFMM=   60 NAOKFM=F Big=F
 Integral buffers will be    131072 words long.
 Raffenetti 2 integral format.
 Two-electron integral symmetry is turned off.
 R6Disp:  Grimme-D2 Dispersion energy=       -0.0077368520 Hartrees.
 Nuclear repulsion after empirical dispersion term =      739.2044846896 Hartrees.
 Leave Link  301 at Wed May  1 14:27:48 2024, MaxMem=  1207959552 cpu:               1.0 elap:               1.0
 (Enter /software/gaussian/g16-c01/sse4/g16/l302.exe)
 NPDir=0 NMtPBC=     1 NCelOv=     1 NCel=       1 NClECP=     1 NCelD=      1
         NCelK=      1 NCelE2=     1 NClLst=     1 CellRange=     0.0.
 One-electron integrals computed using PRISM.
 NBasis=   261 RedAO= T EigKep=  2.35D-06  NBF=   261
 NBsUse=   261 1.00D-06 EigRej= -1.00D+00 NBFU=   261
 Precomputing XC quadrature grid using
 IXCGrd= 4 IRadAn=           5 IRanWt=          -1 IRanGd=           0 AccXCQ= 0.00D+00.
 Generated NRdTot=       0 NPtTot=           0 NUsed=           0 NTot=          32
 NSgBfM=   273   273   273   273   273 MxSgAt=    15 MxSgA2=    15.
 Leave Link  302 at Wed May  1 14:28:10 2024, MaxMem=  1207959552 cpu:              21.2 elap:              21.2
 (Enter /software/gaussian/g16-c01/sse4/g16/l303.exe)
 DipDrv:  MaxL=1.
 The nuclear repulsion energy is now       734.6179285040 hartrees.
 Leave Link  303 at Wed May  1 14:28:13 2024, MaxMem=  1207959552 cpu:               3.4 elap:               3.3
 (Enter /software/gaussian/g16-c01/sse4/g16/l401.exe)
 ExpMin= 3.50D-02 ExpMax= 4.40D+05 ExpMxC= 1.51D+04 IAcc=3 IRadAn=         5 AccDes= 0.00D+00
 Harris functional with IExCor= 4639 and IRadAn=       5 diagonalized for initial guess.
 HarFok:  IExCor= 4639 AccDes= 0.00D+00 IRadAn=         5 IDoV= 1 UseB2=F ITyADJ=14
 ICtDFT=  3500011 ScaDFX=  1.000000  1.000000  1.000000  1.000000
 FoFCou: FMM=F IPFlag=           0 FMFlag=      100000 FMFlg1=           0
         NFxFlg=           0 DoJE=T BraDBF=F KetDBF=T FulRan=T
         wScrn=  0.000000 ICntrl=       500 IOpCl=  0 I1Cent=   200000004 NGrid=           0
         NMat0=    1 NMatS0=      1 NMatT0=    0 NMatD0=    1 NMtDS0=    0 NMtDT0=    0
 Symmetry not used in FoFCou.
 Harris En= -2971.42313899858    
 JPrj=0 DoOrth=F DoCkMO=F.
 Leave Link  401 at Wed May  1 14:28:44 2024, MaxMem=  1207959552 cpu:              30.7 elap:              30.7
 (Enter /software/gaussian/g16-c01/sse4/g16/l502.exe)
 Two-electron integral symmetry not used.
 Closed shell SCF:
 Using DIIS extrapolation, IDIIS=  1040.
 NGot=  1207959552 LenX=  1207804877 LenY=  1207729907
 Requested convergence on RMS density matrix=1.00D-08 within 128 cycles.
 Requested convergence on MAX density matrix=1.00D-06.
 Requested convergence on             energy=1.00D-06.
 No special actions if energy rises.
 Fock matrices will be formed incrementally for  20 cycles.

 Cycle   1  Pass 1  IDiag  1:
 FoFJK:  IHMeth= 1 ICntrl=       0 DoSepK=T KAlg= 0 I1Cent=           0 FoldK=F
 IRaf=         1 NMat=       1 IRICut=       1 DoRegI=T DoRafI=F ISym2E= 0 IDoP0=0 IntGTp=1.
 FoFCou: FMM=F IPFlag=           0 FMFlag=      100000 FMFlg1=           0
         NFxFlg=           0 DoJE=T BraDBF=F KetDBF=F FulRan=T
         wScrn=  0.000000 ICntrl=       500 IOpCl=  0 I1Cent=           0 NGrid=           0
         NMat0=    1 NMatS0=      1 NMatT0=    0 NMatD0=    1 NMtDS0=    0 NMtDT0=    0
 Symmetry not used in FoFCou.
 E= -3001.29522683049    
 DIIS: error= 3.19D-01 at cycle   1 NSaved=   1.
 NSaved= 1 IEnMin= 1 EnMin= -3001.29522683049     IErMin= 1 ErrMin= 3.19D-01
 ErrMax= 3.19D-01  0.00D+00 EMaxC= 1.00D-01 BMatC= 1.44D+01 BMatP= 1.44D+01
 IDIUse=3 WtCom= 0.00D+00 WtEn= 1.00D+00
 Coeff-Com:  0.100D+01
 Coeff-En:   0.100D+01
 Coeff:      0.100D+01
 Gap=     0.206 Goal=   None    Shift=    0.000
 GapD=    0.206 DampG=1.000 DampE=0.250 DampFc=0.2500 IDamp=-1.
 Damping current iteration by 2.50D-01
 RMSDP=1.26D+01 MaxDP=1.28D+03              OVMax= 9.97D-01

 Cycle   2  Pass 1  IDiag  1:
 RMSU=  1.85D-01    CP:  7.55D-01
 E= -3002.30397169092     Delta-E=       -1.008744860435 Rises=F Damp=T
 DIIS: error= 2.23D-01 at cycle   2 NSaved=   2.
 NSaved= 2 IEnMin= 2 EnMin= -3002.30397169092     IErMin= 2 ErrMin= 2.23D-01
 ErrMax= 2.23D-01  0.00D+00 EMaxC= 1.00D-01 BMatC= 6.31D+00 BMatP= 1.44D+01
 IDIUse=3 WtCom= 0.00D+00 WtEn= 1.00D+00
 Coeff-Com: -0.329D+00 0.133D+01
 Coeff-En:   0.442D+00 0.558D+00
 Coeff:      0.442D+00 0.558D+00
 Gap=     0.471 Goal=   None    Shift=    0.000
 RMSDP=9.60D+00 MaxDP=9.62D+02 DE=-1.01D+00 OVMax= 9.84D-01

 Cycle   3  Pass 1  IDiag  1:
 RMSU=  5.99D-02    CP:  3.39D-03  2.60D-01
 E= -2998.73239503713     Delta-E=        3.571576653791 Rises=F Damp=F
 DIIS: error= 1.42D-01 at cycle   3 NSaved=   3.
 NSaved= 3 IEnMin= 2 EnMin= -3002.30397169092     IErMin= 3 ErrMin= 1.42D-01
 ErrMax= 1.42D-01  0.00D+00 EMaxC= 1.00D-01 BMatC= 8.16D+00 BMatP= 6.31D+00
 IDIUse=2 WtCom= 0.00D+00 WtEn= 1.00D+00
 EnCoef did   100 forward-backward iterations
 Coeff-En:   0.540D+00 0.826D-02 0.452D+00
 Coeff:      0.540D+00 0.826D-02 0.452D+00
 Gap=    -0.203 Goal=   None    Shift=    0.000
 RMSDP=2.85D-02 MaxDP=1.64D+00 DE= 3.57D+00 OVMax= 7.91D-01

 Cycle   4  Pass 1  IDiag  1:
 RMSU=  2.67D-02    CP:  3.63D-03  2.18D-01  9.11D-01
 E= -3009.69467478112     Delta-E=      -10.962279743986 Rises=F Damp=F
 DIIS: error= 6.01D-02 at cycle   4 NSaved=   4.
 NSaved= 4 IEnMin= 4 EnMin= -3009.69467478112     IErMin= 4 ErrMin= 6.01D-02
 ErrMax= 6.01D-02  0.00D+00 EMaxC= 1.00D-01 BMatC= 1.16D+00 BMatP= 6.31D+00
 IDIUse=3 WtCom= 3.99D-01 WtEn= 6.01D-01
 Coeff-Com:  0.141D+00 0.499D-01 0.760D-01 0.733D+00
 Coeff-En:   0.554D-01 0.000D+00 0.000D+00 0.945D+00
 Coeff:      0.897D-01 0.199D-01 0.303D-01 0.860D+00
 Gap=     0.375 Goal=   None    Shift=    0.000
 RMSDP=4.31D-02 MaxDP=3.20D+00 DE=-1.10D+01 OVMax= 6.77D-01

 Cycle   5  Pass 1  IDiag  1:
 RMSU=  4.05D-02    CP:  3.34D-03  1.89D-01  6.90D-01  9.55D-01
 E= -3008.82765033646     Delta-E=        0.867024444660 Rises=F Damp=F
 DIIS: error= 6.76D-02 at cycle   5 NSaved=   5.
 NSaved= 5 IEnMin= 4 EnMin= -3009.69467478112     IErMin= 4 ErrMin= 6.01D-02
 ErrMax= 6.76D-02  0.00D+00 EMaxC= 1.00D-01 BMatC= 1.64D+00 BMatP= 1.16D+00
 IDIUse=2 WtCom= 0.00D+00 WtEn= 1.00D+00
 Coeff-En:   0.000D+00 0.000D+00 0.000D+00 0.662D+00 0.338D+00
 Coeff:      0.000D+00 0.000D+00 0.000D+00 0.662D+00 0.338D+00
 Gap=     0.083 Goal=   None    Shift=    0.000
 RMSDP=3.83D-02 MaxDP=2.25D+00 DE= 8.67D-01 OVMax= 8.45D-01

 Cycle   6  Pass 1  IDiag  1:
 RMSU=  2.22D-02    CP:  4.19D-03  1.53D-01  5.42D-01  4.39D-01  4.23D-01
 E= -3009.44914514987     Delta-E=       -0.621494813412 Rises=F Damp=F
 DIIS: error= 5.13D-02 at cycle   6 NSaved=   6.
 NSaved= 6 IEnMin= 4 EnMin= -3009.69467478112     IErMin= 6 ErrMin= 5.13D-02
 ErrMax= 5.13D-02  0.00D+00 EMaxC= 1.00D-01 BMatC= 6.90D-01 BMatP= 1.16D+00
 IDIUse=3 WtCom= 4.87D-01 WtEn= 5.13D-01
 EnCoef did     2 forward-backward iterations
 Coeff-Com: -0.383D-01 0.907D-01 0.289D-01 0.374D+00 0.215D+00 0.330D+00
 Coeff-En:   0.000D+00 0.000D+00 0.000D+00 0.527D+00 0.188D+00 0.285D+00
 Coeff:     -0.186D-01 0.441D-01 0.141D-01 0.452D+00 0.201D+00 0.307D+00
 Gap=     0.030 Goal=   None    Shift=    0.000
 RMSDP=2.61D-02 MaxDP=1.22D+00 DE=-6.21D-01 OVMax= 8.33D-01

 Cycle   7  Pass 1  IDiag  1:
 RMSU=  1.51D-02    CP:  3.30D-03  1.53D-01  5.94D-01  7.32D-01  4.07D-01
                    CP:  2.76D-01
 E= -3010.44527175787     Delta-E=       -0.996126607997 Rises=F Damp=F
 DIIS: error= 2.50D-02 at cycle   7 NSaved=   7.
 NSaved= 7 IEnMin= 7 EnMin= -3010.44527175787     IErMin= 7 ErrMin= 2.50D-02
 ErrMax= 2.50D-02  0.00D+00 EMaxC= 1.00D-01 BMatC= 1.45D-01 BMatP= 6.90D-01
 IDIUse=3 WtCom= 7.50D-01 WtEn= 2.50D-01
 Coeff-Com: -0.405D-01 0.531D-01 0.766D-02 0.160D+00 0.576D-01 0.294D+00
 Coeff-Com:  0.467D+00
 Coeff-En:   0.000D+00 0.000D+00 0.000D+00 0.000D+00 0.000D+00 0.958D-01
 Coeff-En:   0.904D+00
 Coeff:     -0.304D-01 0.398D-01 0.574D-02 0.120D+00 0.432D-01 0.245D+00
 Coeff:      0.577D+00
 Gap=     0.110 Goal=   None    Shift=    0.000
 RMSDP=7.80D-03 MaxDP=3.48D-01 DE=-9.96D-01 OVMax= 1.23D-01

 Cycle   8  Pass 1  IDiag  1:
 RMSU=  7.07D-03    CP:  3.48D-03  1.56D-01  5.66D-01  7.77D-01  4.04D-01
                    CP:  2.60D-01  9.28D-01
 E= -3010.54808751963     Delta-E=       -0.102815761762 Rises=F Damp=F
 DIIS: error= 9.55D-03 at cycle   8 NSaved=   8.
 NSaved= 8 IEnMin= 8 EnMin= -3010.54808751963     IErMin= 8 ErrMin= 9.55D-03
 ErrMax= 9.55D-03  0.00D+00 EMaxC= 1.00D-01 BMatC= 1.36D-02 BMatP= 1.45D-01
 IDIUse=3 WtCom= 9.05D-01 WtEn= 9.55D-02
 Coeff-Com: -0.930D-02 0.904D-02-0.766D-02 0.159D-01 0.465D-02 0.887D-01
 Coeff-Com:  0.210D+00 0.688D+00
 Coeff-En:   0.000D+00 0.000D+00 0.000D+00 0.000D+00 0.000D+00 0.000D+00
 Coeff-En:   0.000D+00 0.100D+01
 Coeff:     -0.842D-02 0.818D-02-0.693D-02 0.144D-01 0.421D-02 0.802D-01
 Coeff:      0.190D+00 0.718D+00
 Gap=     0.150 Goal=   None    Shift=    0.000
 RMSDP=2.93D-03 MaxDP=1.22D-01 DE=-1.03D-01 OVMax= 7.08D-02

 Cycle   9  Pass 1  IDiag  1:
 RMSU=  2.64D-03    CP:  3.47D-03  1.54D-01  5.48D-01  7.70D-01  4.03D-01
                    CP:  2.78D-01  9.23D-01  9.75D-01
 E= -3010.55102288161     Delta-E=       -0.002935361980 Rises=F Damp=F
 DIIS: error= 1.34D-02 at cycle   9 NSaved=   9.
 NSaved= 9 IEnMin= 9 EnMin= -3010.55102288161     IErMin= 8 ErrMin= 9.55D-03
 ErrMax= 1.34D-02  0.00D+00 EMaxC= 1.00D-01 BMatC= 1.23D-02 BMatP= 1.36D-02
 IDIUse=3 WtCom= 9.05D-01 WtEn= 9.55D-02
 Coeff-Com:  0.108D-02-0.978D-03-0.398D-02-0.986D-02-0.119D-01 0.376D-01
 Coeff-Com:  0.316D-01 0.493D+00 0.464D+00
 Coeff-En:   0.000D+00 0.000D+00 0.000D+00 0.000D+00 0.000D+00 0.000D+00
 Coeff-En:   0.000D+00 0.419D+00 0.581D+00
 Coeff:      0.976D-03-0.884D-03-0.360D-02-0.892D-02-0.107D-01 0.340D-01
 Coeff:      0.286D-01 0.486D+00 0.475D+00
 Gap=     0.164 Goal=   None    Shift=    0.000
 RMSDP=1.64D-03 MaxDP=1.28D-01 DE=-2.94D-03 OVMax= 4.49D-02

 Cycle  10  Pass 1  IDiag  1:
 RMSU=  1.25D-03    CP:  3.43D-03  1.53D-01  5.42D-01  7.62D-01  3.92D-01
                    CP:  2.84D-01  8.87D-01  1.03D+00  8.76D-01
 E= -3010.56073739471     Delta-E=       -0.009714513104 Rises=F Damp=F
 DIIS: error= 2.07D-03 at cycle  10 NSaved=  10.
 NSaved=10 IEnMin=10 EnMin= -3010.56073739471     IErMin=10 ErrMin= 2.07D-03
 ErrMax= 2.07D-03  0.00D+00 EMaxC= 1.00D-01 BMatC= 7.36D-04 BMatP= 1.23D-02
 IDIUse=3 WtCom= 9.79D-01 WtEn= 2.07D-02
 Coeff-Com:  0.101D-02-0.150D-02-0.138D-02 0.612D-03-0.488D-02 0.855D-02
 Coeff-Com: -0.439D-01-0.756D-01 0.110D+00 0.101D+01
 Coeff-En:   0.000D+00 0.000D+00 0.000D+00 0.000D+00 0.000D+00 0.000D+00
 Coeff-En:   0.000D+00 0.000D+00 0.000D+00 0.100D+01
 Coeff:      0.992D-03-0.147D-02-0.135D-02 0.600D-03-0.478D-02 0.837D-02
 Coeff:     -0.430D-01-0.741D-01 0.108D+00 0.101D+01
 Gap=     0.163 Goal=   None    Shift=    0.000
 RMSDP=7.62D-04 MaxDP=5.24D-02 DE=-9.71D-03 OVMax= 2.60D-02

 Cycle  11  Pass 1  IDiag  1:
 RMSU=  4.23D-04    CP:  3.45D-03  1.54D-01  5.36D-01  7.60D-01  3.93D-01
                    CP:  2.90D-01  8.95D-01  1.03D+00  1.05D+00  1.04D+00
 E= -3010.56228501433     Delta-E=       -0.001547619622 Rises=F Damp=F
 DIIS: error= 8.18D-04 at cycle  11 NSaved=  11.
 NSaved=11 IEnMin=11 EnMin= -3010.56228501433     IErMin=11 ErrMin= 8.18D-04
 ErrMax= 8.18D-04  0.00D+00 EMaxC= 1.00D-01 BMatC= 1.24D-04 BMatP= 7.36D-04
 IDIUse=3 WtCom= 9.92D-01 WtEn= 8.18D-03
 Coeff-Com:  0.299D-03-0.458D-03 0.765D-04 0.167D-02-0.217D-02 0.136D-02
 Coeff-Com: -0.223D-01-0.913D-01-0.419D-01 0.319D+00 0.836D+00
 Coeff-En:   0.000D+00 0.000D+00 0.000D+00 0.000D+00 0.000D+00 0.000D+00
 Coeff-En:   0.000D+00 0.000D+00 0.000D+00 0.000D+00 0.100D+01
 Coeff:      0.297D-03-0.454D-03 0.759D-04 0.166D-02-0.215D-02 0.135D-02
 Coeff:     -0.221D-01-0.906D-01-0.416D-01 0.316D+00 0.838D+00
 Gap=     0.163 Goal=   None    Shift=    0.000
 RMSDP=4.88D-04 MaxDP=4.27D-02 DE=-1.55D-03 OVMax= 1.57D-02

 Cycle  12  Pass 1  IDiag  1:
 RMSU=  2.07D-04    CP:  3.43D-03  1.53D-01  5.34D-01  7.63D-01  3.90D-01
                    CP:  2.90D-01  8.85D-01  1.02D+00  1.13D+00  1.20D+00
                    CP:  1.26D+00
 E= -3010.56268279545     Delta-E=       -0.000397781112 Rises=F Damp=F
 DIIS: error= 3.98D-04 at cycle  12 NSaved=  12.
 NSaved=12 IEnMin=12 EnMin= -3010.56268279545     IErMin=12 ErrMin= 3.98D-04
 ErrMax= 3.98D-04  0.00D+00 EMaxC= 1.00D-01 BMatC= 1.62D-05 BMatP= 1.24D-04
 IDIUse=3 WtCom= 9.96D-01 WtEn= 3.98D-03
 Coeff-Com: -0.445D-03 0.734D-03 0.224D-03 0.629D-03 0.377D-03-0.151D-02
 Coeff-Com:  0.577D-02 0.414D-02-0.324D-01-0.120D+00 0.167D+00 0.976D+00
 Coeff-En:   0.000D+00 0.000D+00 0.000D+00 0.000D+00 0.000D+00 0.000D+00
 Coeff-En:   0.000D+00 0.000D+00 0.000D+00 0.000D+00 0.000D+00 0.100D+01
 Coeff:     -0.443D-03 0.731D-03 0.224D-03 0.626D-03 0.376D-03-0.151D-02
 Coeff:      0.575D-02 0.413D-02-0.322D-01-0.120D+00 0.166D+00 0.976D+00
 Gap=     0.164 Goal=   None    Shift=    0.000
 RMSDP=2.23D-04 MaxDP=1.28D-02 DE=-3.98D-04 OVMax= 1.16D-02

 Cycle  13  Pass 1  IDiag  1:
 RMSU=  9.47D-05    CP:  3.43D-03  1.53D-01  5.34D-01  7.63D-01  3.90D-01
                    CP:  2.90D-01  8.83D-01  1.01D+00  1.16D+00  1.25D+00
                    CP:  1.52D+00  1.42D+00
 E= -3010.56281702540     Delta-E=       -0.000134229954 Rises=F Damp=F
 DIIS: error= 2.21D-04 at cycle  13 NSaved=  13.
 NSaved=13 IEnMin=13 EnMin= -3010.56281702540     IErMin=13 ErrMin= 2.21D-04
 ErrMax= 2.21D-04  0.00D+00 EMaxC= 1.00D-01 BMatC= 2.11D-05 BMatP= 1.62D-05
 IDIUse=3 WtCom= 9.96D-01 WtEn= 3.98D-03
 Coeff-Com: -0.518D-03 0.703D-03 0.195D-03-0.440D-03 0.784D-04-0.119D-02
 Coeff-Com:  0.784D-02 0.119D-01 0.231D-02-0.539D-02-0.112D+00 0.175D+00
 Coeff-Com:  0.921D+00
 Coeff-En:   0.000D+00 0.000D+00 0.000D+00 0.000D+00 0.000D+00 0.000D+00
 Coeff-En:   0.000D+00 0.000D+00 0.000D+00 0.000D+00 0.000D+00 0.000D+00
 Coeff-En:   0.100D+01
 Coeff:     -0.516D-03 0.700D-03 0.194D-03-0.438D-03 0.781D-04-0.118D-02
 Coeff:      0.780D-02 0.119D-01 0.230D-02-0.537D-02-0.112D+00 0.175D+00
 Coeff:      0.922D+00
 Gap=     0.165 Goal=   None    Shift=    0.000
 RMSDP=1.79D-04 MaxDP=1.06D-02 DE=-1.34D-04 OVMax= 6.78D-03

 Cycle  14  Pass 1  IDiag  1:
 RMSU=  5.03D-05    CP:  3.43D-03  1.53D-01  5.34D-01  7.64D-01  3.89D-01
                    CP:  2.90D-01  8.82D-01  9.94D-01  1.17D+00  1.29D+00
                    CP:  1.54D+00  1.68D+00  1.81D+00
 E= -3010.56287318610     Delta-E=       -0.000056160700 Rises=F Damp=F
 DIIS: error= 1.91D-04 at cycle  14 NSaved=  14.
 NSaved=14 IEnMin=14 EnMin= -3010.56287318610     IErMin=14 ErrMin= 1.91D-04
 ErrMax= 1.91D-04  0.00D+00 EMaxC= 1.00D-01 BMatC= 1.33D-05 BMatP= 1.62D-05
 IDIUse=3 WtCom= 9.98D-01 WtEn= 1.91D-03
 Coeff-Com: -0.205D-03 0.234D-03 0.121D-03-0.365D-03-0.362D-03-0.821D-03
 Coeff-Com:  0.252D-02-0.200D-02 0.182D-01 0.113D+00-0.132D+00-0.406D+00
 Coeff-Com:  0.406D-01 0.137D+01
 Coeff-En:   0.000D+00 0.000D+00 0.000D+00 0.000D+00 0.000D+00 0.000D+00
 Coeff-En:   0.000D+00 0.000D+00 0.000D+00 0.000D+00 0.000D+00 0.000D+00
 Coeff-En:   0.000D+00 0.100D+01
 Coeff:     -0.204D-03 0.234D-03 0.121D-03-0.364D-03-0.361D-03-0.819D-03
 Coeff:      0.251D-02-0.199D-02 0.182D-01 0.113D+00-0.132D+00-0.405D+00
 Coeff:      0.406D-01 0.137D+01
 Gap=     0.167 Goal=   None    Shift=    0.000
 RMSDP=2.56D-04 MaxDP=1.36D-02 DE=-5.62D-05 OVMax= 8.55D-03

 Cycle  15  Pass 1  IDiag  1:
 RMSU=  3.15D-05    CP:  3.42D-03  1.53D-01  5.35D-01  7.63D-01  3.89D-01
                    CP:  2.90D-01  8.82D-01  9.70D-01  1.17D+00  1.34D+00
                    CP:  1.58D+00  1.88D+00  3.00D+00  2.23D+00
 E= -3010.56292356688     Delta-E=       -0.000050380776 Rises=F Damp=F
 DIIS: error= 9.78D-05 at cycle  15 NSaved=  15.
 NSaved=15 IEnMin=15 EnMin= -3010.56292356688     IErMin=15 ErrMin= 9.78D-05
 ErrMax= 9.78D-05  0.00D+00 EMaxC= 1.00D-01 BMatC= 3.58D-06 BMatP= 1.33D-05
 IDIUse=1 WtCom= 1.00D+00 WtEn= 0.00D+00
 Coeff-Com: -0.271D-04 0.475D-04 0.336D-04 0.334D-03-0.176D-03-0.306D-03
 Coeff-Com: -0.692D-03-0.731D-02 0.310D-03 0.401D-01 0.249D-02-0.112D+00
 Coeff-Com: -0.578D+00 0.436D+00 0.122D+01
 Coeff:     -0.271D-04 0.475D-04 0.336D-04 0.334D-03-0.176D-03-0.306D-03
 Coeff:     -0.692D-03-0.731D-02 0.310D-03 0.401D-01 0.249D-02-0.112D+00
 Coeff:     -0.578D+00 0.436D+00 0.122D+01
 Gap=     0.168 Goal=   None    Shift=    0.000
 RMSDP=2.14D-04 MaxDP=1.39D-02 DE=-5.04D-05 OVMax= 7.43D-03

 Cycle  16  Pass 1  IDiag  1:
 RMSU=  8.94D-05    CP:  3.42D-03  1.52D-01  5.36D-01  7.63D-01  3.87D-01
                    CP:  2.90D-01  8.80D-01  9.52D-01  1.19D+00  1.40D+00
                    CP:  1.59D+00  2.14D+00  3.00D+00  3.00D+00  1.69D+00
 E= -3010.56294279992     Delta-E=       -0.000019233043 Rises=F Damp=F
 DIIS: error= 4.23D-05 at cycle  16 NSaved=  16.
 NSaved=16 IEnMin=16 EnMin= -3010.56294279992     IErMin=16 ErrMin= 4.23D-05
 ErrMax= 4.23D-05  0.00D+00 EMaxC= 1.00D-01 BMatC= 3.54D-07 BMatP= 3.58D-06
 IDIUse=1 WtCom= 1.00D+00 WtEn= 0.00D+00
 Coeff-Com: -0.234D-04 0.472D-04-0.741D-05 0.101D-03-0.800D-04-0.560D-04
 Coeff-Com: -0.272D-03-0.124D-02-0.309D-02-0.629D-02 0.171D-01 0.584D-01
 Coeff-Com: -0.160D+00-0.140D+00 0.319D+00 0.916D+00
 Coeff:     -0.234D-04 0.472D-04-0.741D-05 0.101D-03-0.800D-04-0.560D-04
 Coeff:     -0.272D-03-0.124D-02-0.309D-02-0.629D-02 0.171D-01 0.584D-01
 Coeff:     -0.160D+00-0.140D+00 0.319D+00 0.916D+00
 Gap=     0.168 Goal=   None    Shift=    0.000
 RMSDP=5.47D-05 MaxDP=2.44D-03 DE=-1.92D-05 OVMax= 2.45D-03

 Cycle  17  Pass 1  IDiag  1:
 RMSU=  1.53D-05    CP:  3.42D-03  1.52D-01  5.36D-01  7.63D-01  3.87D-01
                    CP:  2.89D-01  8.80D-01  9.48D-01  1.19D+00  1.41D+00
                    CP:  1.62D+00  2.19D+00  3.00D+00  3.00D+00  2.03D+00
                    CP:  1.30D+00
 E= -3010.56294522552     Delta-E=       -0.000002425601 Rises=F Damp=F
 DIIS: error= 3.11D-05 at cycle  17 NSaved=  17.
 NSaved=17 IEnMin=17 EnMin= -3010.56294522552     IErMin=17 ErrMin= 3.11D-05
 ErrMax= 3.11D-05  0.00D+00 EMaxC= 1.00D-01 BMatC= 7.07D-08 BMatP= 3.54D-07
 IDIUse=1 WtCom= 1.00D+00 WtEn= 0.00D+00
 Coeff-Com:  0.297D-05 0.358D-06-0.118D-04-0.563D-04-0.177D-05-0.175D-04
 Coeff-Com: -0.819D-05 0.997D-03-0.957D-03-0.930D-02 0.223D-02 0.502D-01
 Coeff-Com:  0.883D-01-0.138D+00-0.178D+00 0.295D+00 0.890D+00
 Coeff:      0.297D-05 0.358D-06-0.118D-04-0.563D-04-0.177D-05-0.175D-04
 Coeff:     -0.819D-05 0.997D-03-0.957D-03-0.930D-02 0.223D-02 0.502D-01
 Coeff:      0.883D-01-0.138D+00-0.178D+00 0.295D+00 0.890D+00
 Gap=     0.168 Goal=   None    Shift=    0.000
 RMSDP=2.17D-05 MaxDP=7.77D-04 DE=-2.43D-06 OVMax= 1.11D-03

 Cycle  18  Pass 1  IDiag  1:
 RMSU=  8.90D-06    CP:  3.42D-03  1.52D-01  5.36D-01  7.63D-01  3.87D-01
                    CP:  2.90D-01  8.80D-01  9.47D-01  1.20D+00  1.41D+00
                    CP:  1.63D+00  2.21D+00  3.00D+00  3.00D+00  2.15D+00
                    CP:  1.39D+00  1.76D+00
 E= -3010.56294613907     Delta-E=       -0.000000913551 Rises=F Damp=F
 DIIS: error= 1.95D-05 at cycle  18 NSaved=  18.
 NSaved=18 IEnMin=18 EnMin= -3010.56294613907     IErMin=18 ErrMin= 1.95D-05
 ErrMax= 1.95D-05  0.00D+00 EMaxC= 1.00D-01 BMatC= 4.24D-08 BMatP= 7.07D-08
 IDIUse=1 WtCom= 1.00D+00 WtEn= 0.00D+00
 Coeff-Com:  0.256D-04-0.392D-04-0.529D-05-0.409D-04 0.318D-04-0.363D-04
 Coeff-Com: -0.101D-03 0.424D-04 0.153D-02 0.271D-02-0.998D-02-0.277D-01
 Coeff-Com:  0.416D-01 0.721D-01-0.790D-01-0.286D+00 0.406D-01 0.124D+01
 Coeff:      0.256D-04-0.392D-04-0.529D-05-0.409D-04 0.318D-04-0.363D-04
 Coeff:     -0.101D-03 0.424D-04 0.153D-02 0.271D-02-0.998D-02-0.277D-01
 Coeff:      0.416D-01 0.721D-01-0.790D-01-0.286D+00 0.406D-01 0.124D+01
 Gap=     0.168 Goal=   None    Shift=    0.000
 RMSDP=2.66D-05 MaxDP=1.00D-03 DE=-9.14D-07 OVMax= 1.23D-03

 Cycle  19  Pass 1  IDiag  1:
 RMSU=  3.30D-06    CP:  3.42D-03  1.52D-01  5.36D-01  7.63D-01  3.87D-01
                    CP:  2.90D-01  8.79D-01  9.47D-01  1.20D+00  1.41D+00
                    CP:  1.64D+00  2.24D+00  3.00D+00  3.00D+00  2.25D+00
                    CP:  1.50D+00  2.51D+00  2.20D+00
 E= -3010.56294682156     Delta-E=       -0.000000682493 Rises=F Damp=F
 DIIS: error= 1.35D-05 at cycle  19 NSaved=  19.
 NSaved=19 IEnMin=19 EnMin= -3010.56294682156     IErMin=19 ErrMin= 1.35D-05
 ErrMax= 1.35D-05  0.00D+00 EMaxC= 1.00D-01 BMatC= 1.83D-08 BMatP= 4.24D-08
 IDIUse=1 WtCom= 1.00D+00 WtEn= 0.00D+00
 Coeff-Com:  0.209D-04-0.345D-04 0.286D-06 0.150D-04 0.157D-04 0.940D-05
 Coeff-Com: -0.797D-04-0.365D-03 0.987D-03 0.424D-02-0.283D-02-0.315D-01
 Coeff-Com: -0.194D-01 0.741D-01 0.504D-01-0.180D+00-0.394D+00 0.345D+00
 Coeff-Com:  0.115D+01
 Coeff:      0.209D-04-0.345D-04 0.286D-06 0.150D-04 0.157D-04 0.940D-05
 Coeff:     -0.797D-04-0.365D-03 0.987D-03 0.424D-02-0.283D-02-0.315D-01
 Coeff:     -0.194D-01 0.741D-01 0.504D-01-0.180D+00-0.394D+00 0.345D+00
 Coeff:      0.115D+01
 Gap=     0.168 Goal=   None    Shift=    0.000
 RMSDP=2.24D-05 MaxDP=9.89D-04 DE=-6.82D-07 OVMax= 1.11D-03

 Cycle  20  Pass 1  IDiag  1:
 RMSU=  4.38D-06    CP:  3.42D-03  1.52D-01  5.36D-01  7.63D-01  3.87D-01
                    CP:  2.90D-01  8.79D-01  9.47D-01  1.21D+00  1.41D+00
                    CP:  1.65D+00  2.26D+00  3.00D+00  3.00D+00  2.34D+00
                    CP:  1.60D+00  3.00D+00  3.00D+00  1.85D+00
 E= -3010.56294720436     Delta-E=       -0.000000382802 Rises=F Damp=F
 DIIS: error= 6.30D-06 at cycle  20 NSaved=  20.
 NSaved=20 IEnMin=20 EnMin= -3010.56294720436     IErMin=20 ErrMin= 6.30D-06
 ErrMax= 6.30D-06  0.00D+00 EMaxC= 1.00D-01 BMatC= 6.58D-09 BMatP= 1.83D-08
 IDIUse=1 WtCom= 1.00D+00 WtEn= 0.00D+00
 Coeff-Com:  0.489D-05-0.484D-05-0.232D-05 0.245D-04-0.797D-05 0.181D-04
 Coeff-Com: -0.269D-05-0.112D-03-0.433D-03 0.111D-04 0.483D-02-0.440D-02
 Coeff-Com: -0.230D-01-0.125D-01 0.545D-01 0.975D-01-0.188D+00-0.548D+00
 Coeff-Com:  0.274D+00 0.135D+01
 Coeff:      0.489D-05-0.484D-05-0.232D-05 0.245D-04-0.797D-05 0.181D-04
 Coeff:     -0.269D-05-0.112D-03-0.433D-03 0.111D-04 0.483D-02-0.440D-02
 Coeff:     -0.230D-01-0.125D-01 0.545D-01 0.975D-01-0.188D+00-0.548D+00
 Coeff:      0.274D+00 0.135D+01
 Gap=     0.168 Goal=   None    Shift=    0.000
 RMSDP=2.36D-05 MaxDP=1.09D-03 DE=-3.83D-07 OVMax= 1.27D-03

 Cycle  21  Pass 1  IDiag  1:
 Restarting incremental Fock formation.
 E= -3010.56294738859     Delta-E=       -0.000000184230 Rises=F Damp=F
 DIIS: error= 2.19D-06 at cycle  21 NSaved=  20.
 NSaved=20 IEnMin=20 EnMin= -3010.56294738859     IErMin=20 ErrMin= 2.19D-06
 ErrMax= 2.19D-06  0.00D+00 EMaxC= 1.00D-01 BMatC= 1.09D-09 BMatP= 6.58D-09
 IDIUse=1 WtCom= 1.00D+00 WtEn= 0.00D+00
 Coeff-Com: -0.651D-07 0.177D-05 0.536D-05-0.546D-05 0.138D-04 0.195D-04
 Coeff-Com:  0.956D-04-0.254D-03-0.937D-03 0.202D-02 0.320D-02 0.515D-02
 Coeff-Com: -0.182D-01-0.662D-02 0.486D-01 0.461D-01-0.101D+00-0.248D+00
 Coeff-Com:  0.280D+00 0.990D+00
 Coeff:     -0.651D-07 0.177D-05 0.536D-05-0.546D-05 0.138D-04 0.195D-04
 Coeff:      0.956D-04-0.254D-03-0.937D-03 0.202D-02 0.320D-02 0.515D-02
 Coeff:     -0.182D-01-0.662D-02 0.486D-01 0.461D-01-0.101D+00-0.248D+00
 Coeff:      0.280D+00 0.990D+00
 Gap=     0.168 Goal=   None    Shift=    0.000
 RMSDP=5.00D-06 MaxDP=2.69D-04 DE=-1.84D-07 OVMax= 2.70D-04

 Cycle  22  Pass 1  IDiag  1:
 RMSU=  4.92D-06    CP:  1.00D+00
 E= -3010.56294739963     Delta-E=       -0.000000011030 Rises=F Damp=F
 DIIS: error= 1.37D-06 at cycle  22 NSaved=  20.
 NSaved=20 IEnMin=20 EnMin= -3010.56294739963     IErMin=20 ErrMin= 1.37D-06
 ErrMax= 1.37D-06  0.00D+00 EMaxC= 1.00D-01 BMatC= 1.77D-10 BMatP= 1.09D-09
 IDIUse=1 WtCom= 1.00D+00 WtEn= 0.00D+00
 Coeff-Com: -0.587D-06-0.460D-05-0.130D-06 0.349D-05-0.522D-05 0.581D-04
 Coeff-Com:  0.370D-04-0.232D-03-0.182D-03 0.595D-03 0.515D-02-0.343D-02
 Coeff-Com: -0.861D-02-0.304D-02 0.390D-01 0.793D-01-0.102D+00-0.165D+00
 Coeff-Com:  0.919D-01 0.107D+01
 Coeff:     -0.587D-06-0.460D-05-0.130D-06 0.349D-05-0.522D-05 0.581D-04
 Coeff:      0.370D-04-0.232D-03-0.182D-03 0.595D-03 0.515D-02-0.343D-02
 Coeff:     -0.861D-02-0.304D-02 0.390D-01 0.793D-01-0.102D+00-0.165D+00
 Coeff:      0.919D-01 0.107D+01
 Gap=     0.168 Goal=   None    Shift=    0.000
 RMSDP=1.82D-06 MaxDP=1.21D-04 DE=-1.10D-08 OVMax= 7.98D-05

 Cycle  23  Pass 1  IDiag  1:
 RMSU=  8.38D-07    CP:  1.00D+00  1.32D+00
 E= -3010.56294740161     Delta-E=       -0.000000001984 Rises=F Damp=F
 DIIS: error= 5.28D-07 at cycle  23 NSaved=  20.
 NSaved=20 IEnMin=20 EnMin= -3010.56294740161     IErMin=20 ErrMin= 5.28D-07
 ErrMax= 5.28D-07  0.00D+00 EMaxC= 1.00D-01 BMatC= 4.31D-11 BMatP= 1.77D-10
 IDIUse=1 WtCom= 1.00D+00 WtEn= 0.00D+00
 Coeff-Com: -0.178D-05 0.108D-05-0.828D-06-0.399D-05 0.750D-05 0.177D-04
 Coeff-Com: -0.114D-04-0.132D-03-0.686D-04 0.146D-02-0.983D-03-0.758D-03
 Coeff-Com: -0.186D-02 0.526D-02 0.263D-01-0.230D-02-0.600D-01-0.118D+00
 Coeff-Com:  0.181D+00 0.970D+00
 Coeff:     -0.178D-05 0.108D-05-0.828D-06-0.399D-05 0.750D-05 0.177D-04
 Coeff:     -0.114D-04-0.132D-03-0.686D-04 0.146D-02-0.983D-03-0.758D-03
 Coeff:     -0.186D-02 0.526D-02 0.263D-01-0.230D-02-0.600D-01-0.118D+00
 Coeff:      0.181D+00 0.970D+00
 Gap=     0.168 Goal=   None    Shift=    0.000
 RMSDP=6.70D-07 MaxDP=4.95D-05 DE=-1.98D-09 OVMax= 2.25D-05

 Cycle  24  Pass 1  IDiag  1:
 RMSU=  3.01D-07    CP:  1.00D+00  1.40D+00  1.46D+00
 E= -3010.56294740198     Delta-E=       -0.000000000366 Rises=F Damp=F
 DIIS: error= 2.91D-07 at cycle  24 NSaved=  20.
 NSaved=20 IEnMin=20 EnMin= -3010.56294740198     IErMin=20 ErrMin= 2.91D-07
 ErrMax= 2.91D-07  0.00D+00 EMaxC= 1.00D-01 BMatC= 1.46D-11 BMatP= 4.31D-11
 IDIUse=1 WtCom= 1.00D+00 WtEn= 0.00D+00
 Coeff-Com: -0.695D-06-0.636D-07-0.135D-05-0.901D-05 0.256D-06 0.748D-04
 Coeff-Com:  0.630D-04-0.304D-03-0.284D-03-0.176D-03 0.149D-02-0.147D-02
 Coeff-Com: -0.925D-02-0.582D-02 0.214D-01 0.285D-01-0.372D-01-0.245D+00
 Coeff-Com:  0.176D+00 0.107D+01
 Coeff:     -0.695D-06-0.636D-07-0.135D-05-0.901D-05 0.256D-06 0.748D-04
 Coeff:      0.630D-04-0.304D-03-0.284D-03-0.176D-03 0.149D-02-0.147D-02
 Coeff:     -0.925D-02-0.582D-02 0.214D-01 0.285D-01-0.372D-01-0.245D+00
 Coeff:      0.176D+00 0.107D+01
 Gap=     0.168 Goal=   None    Shift=    0.000
 RMSDP=4.36D-07 MaxDP=3.02D-05 DE=-3.66D-10 OVMax= 1.53D-05

 Cycle  25  Pass 1  IDiag  1:
 RMSU=  1.68D-07    CP:  1.00D+00  1.44D+00  1.82D+00  1.36D+00
 E= -3010.56294740215     Delta-E=       -0.000000000172 Rises=F Damp=F
 DIIS: error= 1.79D-07 at cycle  25 NSaved=  20.
 NSaved=20 IEnMin=20 EnMin= -3010.56294740215     IErMin=20 ErrMin= 1.79D-07
 ErrMax= 1.79D-07  0.00D+00 EMaxC= 1.00D-01 BMatC= 2.63D-12 BMatP= 1.46D-11
 IDIUse=1 WtCom= 1.00D+00 WtEn= 0.00D+00
 Coeff-Com:  0.529D-06 0.271D-05 0.273D-05-0.885D-05-0.134D-04 0.359D-04
 Coeff-Com:  0.717D-04-0.171D-03-0.150D-03 0.324D-03 0.276D-03-0.125D-02
 Coeff-Com: -0.422D-02-0.152D-02 0.105D-01 0.308D-01-0.351D-01-0.183D+00
 Coeff-Com: -0.328D-01 0.122D+01
 Coeff:      0.529D-06 0.271D-05 0.273D-05-0.885D-05-0.134D-04 0.359D-04
 Coeff:      0.717D-04-0.171D-03-0.150D-03 0.324D-03 0.276D-03-0.125D-02
 Coeff:     -0.422D-02-0.152D-02 0.105D-01 0.308D-01-0.351D-01-0.183D+00
 Coeff:     -0.328D-01 0.122D+01
 Gap=     0.168 Goal=   None    Shift=    0.000
 RMSDP=2.67D-07 MaxDP=2.37D-05 DE=-1.72D-10 OVMax= 8.78D-06

 Cycle  26  Pass 1  IDiag  1:
 RMSU=  7.41D-08    CP:  1.00D+00  1.48D+00  1.93D+00  1.71D+00  1.41D+00
 E= -3010.56294740219     Delta-E=       -0.000000000047 Rises=F Damp=F
 DIIS: error= 1.28D-07 at cycle  26 NSaved=  20.
 NSaved=20 IEnMin=20 EnMin= -3010.56294740219     IErMin=20 ErrMin= 1.28D-07
 ErrMax= 1.28D-07  0.00D+00 EMaxC= 1.00D-01 BMatC= 7.15D-13 BMatP= 2.63D-12
 IDIUse=1 WtCom= 1.00D+00 WtEn= 0.00D+00
 Coeff-Com: -0.452D-07 0.322D-05 0.199D-05-0.224D-04-0.314D-04 0.110D-03
 Coeff-Com:  0.120D-03 0.619D-04-0.546D-03 0.240D-03 0.292D-02 0.207D-02
 Coeff-Com: -0.427D-02-0.105D-01 0.515D-02 0.609D-01-0.975D-02-0.287D+00
 Coeff-Com: -0.157D+00 0.140D+01
 Coeff:     -0.452D-07 0.322D-05 0.199D-05-0.224D-04-0.314D-04 0.110D-03
 Coeff:      0.120D-03 0.619D-04-0.546D-03 0.240D-03 0.292D-02 0.207D-02
 Coeff:     -0.427D-02-0.105D-01 0.515D-02 0.609D-01-0.975D-02-0.287D+00
 Coeff:     -0.157D+00 0.140D+01
 Gap=     0.168 Goal=   None    Shift=    0.000
 RMSDP=1.81D-07 MaxDP=1.58D-05 DE=-4.73D-11 OVMax= 7.84D-06

 Cycle  27  Pass 1  IDiag  1:
 RMSU=  4.73D-08    CP:  1.00D+00  1.50D+00  2.01D+00  1.93D+00  1.58D+00
                    CP:  1.94D+00
 E= -3010.56294740224     Delta-E=       -0.000000000049 Rises=F Damp=F
 DIIS: error= 6.46D-08 at cycle  27 NSaved=  20.
 NSaved=20 IEnMin=20 EnMin= -3010.56294740224     IErMin=20 ErrMin= 6.46D-08
 ErrMax= 6.46D-08  0.00D+00 EMaxC= 1.00D-01 BMatC= 3.03D-13 BMatP= 7.15D-13
 IDIUse=1 WtCom= 1.00D+00 WtEn= 0.00D+00
 Coeff-Com: -0.592D-06 0.794D-06 0.388D-06-0.105D-04-0.121D-04-0.863D-04
 Coeff-Com:  0.177D-03 0.485D-04 0.312D-03 0.234D-03-0.110D-02 0.770D-03
 Coeff-Com: -0.855D-03-0.291D-02 0.105D-01 0.310D-01-0.321D-01-0.297D+00
 Coeff-Com:  0.771D-01 0.121D+01
 Coeff:     -0.592D-06 0.794D-06 0.388D-06-0.105D-04-0.121D-04-0.863D-04
 Coeff:      0.177D-03 0.485D-04 0.312D-03 0.234D-03-0.110D-02 0.770D-03
 Coeff:     -0.855D-03-0.291D-02 0.105D-01 0.310D-01-0.321D-01-0.297D+00
 Coeff:      0.771D-01 0.121D+01
 Gap=     0.168 Goal=   None    Shift=    0.000
 RMSDP=1.18D-07 MaxDP=9.64D-06 DE=-4.91D-11 OVMax= 4.98D-06

 Cycle  28  Pass 1  IDiag  1:
 RMSU=  2.21D-08    CP:  1.00D+00  1.50D+00  2.03D+00  2.08D+00  1.52D+00
                    CP:  2.83D+00  1.68D+00
 E= -3010.56294740224     Delta-E=        0.000000000006 Rises=F Damp=F
 DIIS: error= 2.97D-08 at cycle  28 NSaved=  20.
 NSaved=20 IEnMin=19 EnMin= -3010.56294740224     IErMin=20 ErrMin= 2.97D-08
 ErrMax= 2.97D-08  0.00D+00 EMaxC= 1.00D-01 BMatC= 7.67D-14 BMatP= 3.03D-13
 IDIUse=1 WtCom= 1.00D+00 WtEn= 0.00D+00
 Coeff-Com: -0.210D-05-0.726D-05 0.113D-04 0.484D-04 0.398D-05-0.113D-03
 Coeff-Com: -0.343D-04 0.373D-03 0.104D-03-0.858D-03 0.328D-03 0.117D-02
 Coeff-Com: -0.358D-02-0.934D-02 0.239D-01 0.698D-01-0.113D+00-0.278D+00
 Coeff-Com:  0.247D+00 0.106D+01
 Coeff:     -0.210D-05-0.726D-05 0.113D-04 0.484D-04 0.398D-05-0.113D-03
 Coeff:     -0.343D-04 0.373D-03 0.104D-03-0.858D-03 0.328D-03 0.117D-02
 Coeff:     -0.358D-02-0.934D-02 0.239D-01 0.698D-01-0.113D+00-0.278D+00
 Coeff:      0.247D+00 0.106D+01
 Gap=     0.168 Goal=   None    Shift=    0.000
 RMSDP=5.43D-08 MaxDP=4.31D-06 DE= 6.37D-12 OVMax= 2.44D-06

 Cycle  29  Pass 1  IDiag  1:
 RMSU=  1.61D-08    CP:  1.00D+00  1.51D+00  2.05D+00  2.14D+00  1.50D+00
                    CP:  3.00D+00  2.09D+00  1.38D+00
 E= -3010.56294740223     Delta-E=        0.000000000003 Rises=F Damp=F
 DIIS: error= 1.03D-08 at cycle  29 NSaved=  20.
 NSaved=20 IEnMin=18 EnMin= -3010.56294740224     IErMin=20 ErrMin= 1.03D-08
 ErrMax= 1.03D-08  0.00D+00 EMaxC= 1.00D-01 BMatC= 2.33D-14 BMatP= 7.67D-14
 IDIUse=1 WtCom= 1.00D+00 WtEn= 0.00D+00
 Coeff-Com:  0.136D-05-0.593D-06-0.912D-05 0.183D-08 0.192D-04-0.531D-05
 Coeff-Com: -0.176D-03-0.312D-03 0.132D-03 0.385D-03 0.106D-02-0.384D-03
 Coeff-Com: -0.595D-02-0.839D-02 0.280D-01 0.819D-01-0.116D+00-0.270D+00
 Coeff-Com:  0.283D+00 0.101D+01
 Coeff:      0.136D-05-0.593D-06-0.912D-05 0.183D-08 0.192D-04-0.531D-05
 Coeff:     -0.176D-03-0.312D-03 0.132D-03 0.385D-03 0.106D-02-0.384D-03
 Coeff:     -0.595D-02-0.839D-02 0.280D-01 0.819D-01-0.116D+00-0.270D+00
 Coeff:      0.283D+00 0.101D+01
 Gap=     0.168 Goal=   None    Shift=    0.000
 RMSDP=1.90D-08 MaxDP=1.08D-06 DE= 2.73D-12 OVMax= 8.65D-07

 Cycle  30  Pass 1  IDiag  1:
 RMSU=  4.69D-09    CP:  1.00D+00  1.51D+00  2.05D+00  2.17D+00  1.49D+00
                    CP:  3.00D+00  2.18D+00  1.63D+00  1.65D+00
 E= -3010.56294740222     Delta-E=        0.000000000015 Rises=F Damp=F
 DIIS: error= 2.57D-09 at cycle  30 NSaved=  20.
 NSaved=20 IEnMin=17 EnMin= -3010.56294740224     IErMin=20 ErrMin= 2.57D-09
 ErrMax= 2.57D-09  0.00D+00 EMaxC= 1.00D-01 BMatC= 1.58D-15 BMatP= 2.33D-14
 IDIUse=1 WtCom= 1.00D+00 WtEn= 0.00D+00
 Large coefficients: NSaved= 20 BigCof=    0.00 CofMax=   10.00 Det=-4.36D-15
 Inversion failed.  Reducing to 19 matrices.
 Large coefficients: NSaved= 19 BigCof=    0.00 CofMax=   10.00 Det=-4.37D-15
 Inversion failed.  Reducing to 18 matrices.
 Large coefficients: NSaved= 18 BigCof=    0.00 CofMax=   10.00 Det=-5.01D-15
 Inversion failed.  Reducing to 17 matrices.
 Large coefficients: NSaved= 17 BigCof=    0.00 CofMax=   10.00 Det=-5.02D-15
 Inversion failed.  Reducing to 16 matrices.
 Large coefficients: NSaved= 16 BigCof=    0.00 CofMax=   10.00 Det=-5.40D-15
 Inversion failed.  Reducing to 15 matrices.
 Coeff-Com: -0.294D-04 0.272D-04 0.137D-03-0.174D-03-0.151D-03 0.255D-03
 Coeff-Com:  0.210D-02-0.340D-02-0.896D-02 0.163D-01 0.389D-01-0.575D-01
 Coeff-Com: -0.136D+00 0.607D-01 0.109D+01
 Coeff:     -0.294D-04 0.272D-04 0.137D-03-0.174D-03-0.151D-03 0.255D-03
 Coeff:      0.210D-02-0.340D-02-0.896D-02 0.163D-01 0.389D-01-0.575D-01
 Coeff:     -0.136D+00 0.607D-01 0.109D+01
 Gap=     0.168 Goal=   None    Shift=    0.000
 RMSDP=4.46D-09 MaxDP=2.92D-07 DE= 1.46D-11 OVMax= 2.00D-07

 SCF Done:  E(RwB97XD) =  -3010.56294740     A.U. after   30 cycles
            NFock= 30  Conv=0.45D-08     -V/T= 2.0016
 KE= 3.005850934093D+03 PE=-8.627628846692D+03 EE= 1.876597036692D+03
 Leave Link  502 at Wed May  1 14:58:01 2024, MaxMem=  1207959552 cpu:            1757.6 elap:            1757.7
 (Enter /software/gaussian/g16-c01/sse4/g16/l601.exe)
 Copying SCF densities to generalized density rwf, IOpCl= 0 IROHF=0.

 **********************************************************************

            Population analysis using the SCF Density.

 **********************************************************************

 Alpha  occ. eigenvalues -- -483.29697 -62.84751 -56.64394 -56.63896 -56.63888
 Alpha  occ. eigenvalues --  -19.34336 -19.34286 -14.73710 -10.56216 -10.53975
 Alpha  occ. eigenvalues --  -10.52727 -10.51820 -10.51074 -10.50694  -9.00579
 Alpha  occ. eigenvalues --   -6.83115  -6.81470  -6.81442  -2.93053  -2.92617
 Alpha  occ. eigenvalues --   -2.92593  -2.91276  -2.91276  -1.37867  -1.20736
 Alpha  occ. eigenvalues --   -1.18850  -1.10234  -1.07612  -1.01913  -0.94679
 Alpha  occ. eigenvalues --   -0.91636  -0.86029  -0.80603  -0.76272  -0.75257
 Alpha  occ. eigenvalues --   -0.72851  -0.71038  -0.69831  -0.67744  -0.65396
 Alpha  occ. eigenvalues --   -0.64960  -0.62368  -0.60084  -0.57117  -0.55412
 Alpha  occ. eigenvalues --   -0.52406  -0.44855  -0.43315  -0.43190
 Alpha virt. eigenvalues --   -0.26371  -0.16956  -0.14645  -0.13386  -0.12121
 Alpha virt. eigenvalues --   -0.09916  -0.08289  -0.06374  -0.04223  -0.03840
 Alpha virt. eigenvalues --   -0.02873  -0.01390  -0.00256   0.00337   0.01059
 Alpha virt. eigenvalues --    0.02328   0.03150   0.03583   0.04047   0.04883
 Alpha virt. eigenvalues --    0.06153   0.07571   0.08222   0.08620   0.09726
 Alpha virt. eigenvalues --    0.10621   0.10986   0.12385   0.12633   0.13587
 Alpha virt. eigenvalues --    0.15335   0.15794   0.16196   0.17114   0.18036
 Alpha virt. eigenvalues --    0.18915   0.20200   0.20728   0.22327   0.23579
 Alpha virt. eigenvalues --    0.24067   0.25022   0.27099   0.27133   0.28805
 Alpha virt. eigenvalues --    0.30274   0.30930   0.31970   0.32104   0.32798
 Alpha virt. eigenvalues --    0.34198   0.34229   0.36113   0.36587   0.37852
 Alpha virt. eigenvalues --    0.38526   0.39548   0.41164   0.41609   0.42967
 Alpha virt. eigenvalues --    0.43990   0.44749   0.45689   0.47132   0.48333
 Alpha virt. eigenvalues --    0.49820   0.50276   0.51091   0.51354   0.52602
 Alpha virt. eigenvalues --    0.54056   0.54466   0.55590   0.56543   0.58374
 Alpha virt. eigenvalues --    0.59760   0.60951   0.61444   0.63224   0.65041
 Alpha virt. eigenvalues --    0.66184   0.67374   0.67766   0.69536   0.70148
 Alpha virt. eigenvalues --    0.73074   0.74994   0.76288   0.77030   0.78883
 Alpha virt. eigenvalues --    0.82060   0.84879   0.87535   0.89216   0.89638
 Alpha virt. eigenvalues --    0.90561   0.94782   0.97848   1.01395   1.06239
 Alpha virt. eigenvalues --    1.06842   1.09262   1.09970   1.11783   1.14353
 Alpha virt. eigenvalues --    1.16302   1.19706   1.24133   1.25046   1.28022
 Alpha virt. eigenvalues --    1.31329   1.33783   1.35454   1.37753   1.40936
 Alpha virt. eigenvalues --    1.41594   1.41967   1.49006   1.59390   1.62143
 Alpha virt. eigenvalues --    1.63392   1.63661   1.68054   1.69611   1.70887
 Alpha virt. eigenvalues --    1.74589   1.77050   1.77991   1.82439   1.83849
 Alpha virt. eigenvalues --    1.85209   1.92472   1.92923   1.95000   1.97761
 Alpha virt. eigenvalues --    2.03798   2.07797   2.08741   2.11639   2.13126
 Alpha virt. eigenvalues --    2.14253   2.18850   2.24503   2.29145   2.33487
 Alpha virt. eigenvalues --    2.42000   2.47855   2.49288   2.50780   2.56358
 Alpha virt. eigenvalues --    2.60591   2.67621   2.70556   2.72973   2.79317
 Alpha virt. eigenvalues --    2.83360   2.84892   2.86957   2.87839   2.93040
 Alpha virt. eigenvalues --    2.97094   3.00687   3.08950   3.12451   3.14175
 Alpha virt. eigenvalues --    3.16977   3.20048   3.23949   3.28707   3.34834
 Alpha virt. eigenvalues --    3.39551   3.45977   3.51442   3.57694   3.61983
 Alpha virt. eigenvalues --    3.67361   3.81296   3.85960   3.86496   3.91775
 Alpha virt. eigenvalues --    4.10123   4.10368   4.18191   4.23299   4.44226
 Alpha virt. eigenvalues --    4.56655   4.61420   4.70419   5.05534   5.08326
 Alpha virt. eigenvalues --    5.16973   5.21123   5.74632   6.28036   6.65906
 Alpha virt. eigenvalues --    7.48797   7.50369   7.60339  23.25060  23.65197
 Alpha virt. eigenvalues --   23.72087  23.83871  23.99314  24.06314  35.44226
 Alpha virt. eigenvalues --   47.92653  49.97160  50.05973 289.82013 289.83681
 Alpha virt. eigenvalues --  289.961621020.93124
          Condensed to atoms (all electrons):
               1          2          3          4          5          6
     1  C   11.529859  -4.184194   0.322771  -2.586012  -1.398439   0.290975
     2  C   -4.184194  16.046896  -2.901953  -1.072666   0.447772   0.044788
     3  C    0.322771  -2.901953  15.172045  -4.978258  -1.460549   0.029796
     4  C   -2.586012  -1.072666  -4.978258  19.496597   0.894965   0.016112
     5  C   -1.398439   0.447772  -1.460549   0.894965  10.397445  -0.034771
     6  H    0.290975   0.044788   0.029796   0.016112  -0.034771   0.389447
     7  H    0.127559   0.154550   0.074926  -0.043501  -0.014631  -0.001704
     8  H    0.014995  -0.036100   0.110337   0.128042  -0.039668  -0.000005
     9  H    0.100793  -0.079895   0.031893  -0.034343   0.184589  -0.004255
    10  N   -0.326774   0.514748  -1.045962   0.500786  -0.013456  -0.000721
    11  O   -0.010720  -0.185084  -0.246306   0.060415  -0.089233  -0.000029
    12  O    0.504863  -0.036653  -0.241354  -0.260291  -0.046414   0.000137
    13  C    2.136370  -3.187860   1.817222  -6.423613  -2.789688  -0.011354
    14  H   -0.048624   0.033689  -0.025764  -0.094157   0.143059  -0.000015
    15  Br   0.026437   0.074187  -0.070446   0.075423  -0.142163  -0.000133
               7          8          9         10         11         12
     1  C    0.127559   0.014995   0.100793  -0.326774  -0.010720   0.504863
     2  C    0.154550  -0.036100  -0.079895   0.514748  -0.185084  -0.036653
     3  C    0.074926   0.110337   0.031893  -1.045962  -0.246306  -0.241354
     4  C   -0.043501   0.128042  -0.034343   0.500786   0.060415  -0.260291
     5  C   -0.014631  -0.039668   0.184589  -0.013456  -0.089233  -0.046414
     6  H   -0.001704  -0.000005  -0.004255  -0.000721  -0.000029   0.000137
     7  H    0.268763   0.000026   0.000060  -0.030878  -0.001708   0.037051
     8  H    0.000026   0.263254   0.000120  -0.027012   0.034488  -0.000512
     9  H    0.000060   0.000120   0.458357   0.000112   0.000023   0.000017
    10  N   -0.030878  -0.027012   0.000112   7.924297  -0.026214  -0.052219
    11  O   -0.001708   0.034488   0.000023  -0.026214   7.841292   0.024420
    12  O    0.037051  -0.000512   0.000017  -0.052219   0.024420   7.872870
    13  C    0.023504   0.136700   0.116946  -0.303148   0.440932   0.039000
    14  H   -0.000031  -0.002353  -0.008930   0.001950  -0.000540  -0.000095
    15  Br   0.000150   0.010225   0.002999   0.013389  -0.000426   0.002253
              13         14         15
     1  C    2.136370  -0.048624   0.026437
     2  C   -3.187860   0.033689   0.074187
     3  C    1.817222  -0.025764  -0.070446
     4  C   -6.423613  -0.094157   0.075423
     5  C   -2.789688   0.143059  -0.142163
     6  H   -0.011354  -0.000015  -0.000133
     7  H    0.023504  -0.000031   0.000150
     8  H    0.136700  -0.002353   0.010225
     9  H    0.116946  -0.008930   0.002999
    10  N   -0.303148   0.001950   0.013389
    11  O    0.440932  -0.000540  -0.000426
    12  O    0.039000  -0.000095   0.002253
    13  C   14.042053   0.307599   0.136693
    14  H    0.307599   0.387883  -0.057349
    15  Br   0.136693  -0.057349  34.885577
 Mulliken charges:
               1
     1  C   -0.499859
     2  C    0.367773
     3  C   -0.588397
     4  C    0.320503
     5  C   -0.038819
     6  H    0.281732
     7  H    0.405864
     8  H    0.407463
     9  H    0.231516
    10  N   -0.128897
    11  O    0.158690
    12  O    0.156927
    13  C   -0.481356
    14  H    0.363677
    15  Br   0.043183
 Sum of Mulliken charges =   1.00000
 Mulliken charges with hydrogens summed into heavy atoms:
               1
     1  C   -0.218127
     2  C    0.773637
     3  C   -0.588397
     4  C    0.727966
     5  C    0.192697
    10  N   -0.128897
    11  O    0.158690
    12  O    0.156927
    13  C   -0.117679
    15  Br   0.043183
 Electronic spatial extent (au):  <R**2>=           2787.2118
 Charge=              1.0000 electrons
 Dipole moment (field-independent basis, Debye):
    X=              6.9319    Y=              0.2429    Z=              0.5788  Tot=              6.9603
 Quadrupole moment (field-independent basis, Debye-Ang):
   XX=            -53.0435   YY=            -53.0833   ZZ=            -64.7151
   XY=             -0.1053   XZ=             -0.9018   YZ=             -0.0750
 Traceless Quadrupole moment (field-independent basis, Debye-Ang):
   XX=              3.9037   YY=              3.8640   ZZ=             -7.7678
   XY=             -0.1053   XZ=             -0.9018   YZ=             -0.0750
 Octapole moment (field-independent basis, Debye-Ang**2):
  XXX=           -191.0475  YYY=             94.0754  ZZZ=             82.3529  XYY=            -58.3267
  XXY=             33.8218  XXZ=             33.0140  XZZ=            -69.7323  YZZ=             20.6661
  YYZ=             29.3777  XYZ=              0.2894
 Hexadecapole moment (field-independent basis, Debye-Ang**3):
 XXXX=          -1830.4078 YYYY=           -694.4259 ZZZZ=           -364.1617 XXXY=            -70.3800
 XXXZ=            -35.4706 YYYX=            -69.4720 YYYZ=           -167.3615 ZZZX=            -28.8678
 ZZZY=           -146.7701 XXYY=           -424.2794 XXZZ=           -366.0223 YYZZ=           -174.1148
 XXYZ=            -59.8954 YYXZ=            -11.0133 ZZXY=            -16.3584
 N-N= 7.346179285040D+02 E-N=-8.627628846344D+03  KE= 3.005850934093D+03
 No NMR shielding tensors so no spin-rotation constants.
 Leave Link  601 at Wed May  1 14:58:09 2024, MaxMem=  1207959552 cpu:               7.4 elap:               7.4
 (Enter /software/gaussian/g16-c01/sse4/g16/l9999.exe)
 Unable to Open any file for archive entry.
 1\1\GINC-BHX0004\SP\RwB97XD\6-311+G(d)\C6H5Br1N1O2(1+)\BWEIGHT\01-May-
 2024\0\\#P wB97XD/6-311+G* NoSymm #P Field=X-243\\TitleMe\\1,1\C,0,0.0
 295,1.3397,0.0682\C,0,1.4348,1.2867,0.0064\C,0,2.1118,0.0511,-0.0054\C
 ,0,1.4451,-1.1372,0.0312\C,0,-0.6879,0.1682,0.11\H,0,-0.4713,2.2984,0.
 0781\H,0,2.0273,2.1965,-0.0322\H,0,1.9897,-2.0764,0.0232\H,0,-1.7716,0
 .1804,0.1582\N,0,3.5864,0.051,-0.0675\O,0,4.1471,-1.0597,-0.0881\O,0,4
 .145,1.1639,-0.0901\C,0,-0.0236,-1.1458,0.0835\H,0,-0.4367,-1.8725,0.7
 889\Br,0,-0.5359,-1.8697,-1.7408\\Version=ES64L-G16RevC.01\HF=-3010.56
 29474\RMSD=4.462e-09\Dipole=0.8206886,1.2436482,1.3739051\Quadrupole=2
 .9023422,2.8728192,-5.7751614,-0.0783074,-0.6704966,-0.0557764\PG=C01 
 [X(C6H5Br1N1O2)]\\@
 The archive entry for this job was punched.


 Until you make peace with who you are,
 you'll never be content with what you have.
                           -- Doris Mortman
 Job cpu time:       0 days  0 hours 30 minutes 26.9 seconds.
 Elapsed time:       0 days  0 hours 30 minutes 27.0 seconds.
 File lengths (MBytes):  RWF=     40 Int=      0 D2E=      0 Chk=     32 Scr=      1
 Normal termination of Gaussian 16 at Wed May  1 14:58:09 2024.
