 Entering Gaussian System, Link 0=g16
 Initial command:
 /software/gaussian/g16-c01/sse4/g16/l1.exe "/local_scratch/24665334/Gau-3145.inp" -scrdir="/local_scratch/24665334/"
 Entering Link 1 = /software/gaussian/g16-c01/sse4/g16/l1.exe PID=      3146.
  
 Copyright (c) 1988-2019, Gaussian, Inc.  All Rights Reserved.
  
 This is part of the Gaussian(R) 16 program.  It is based on
 the Gaussian(R) 09 system (copyright 2009, Gaussian, Inc.),
 the Gaussian(R) 03 system (copyright 2003, Gaussian, Inc.),
 the Gaussian(R) 98 system (copyright 1998, Gaussian, Inc.),
 the Gaussian(R) 94 system (copyright 1995, Gaussian, Inc.),
 the Gaussian 92(TM) system (copyright 1992, Gaussian, Inc.),
 the Gaussian 90(TM) system (copyright 1990, Gaussian, Inc.),
 the Gaussian 88(TM) system (copyright 1988, Gaussian, Inc.),
 the Gaussian 86(TM) system (copyright 1986, Carnegie Mellon
 University), and the Gaussian 82(TM) system (copyright 1983,
 Carnegie Mellon University). Gaussian is a federally registered
 trademark of Gaussian, Inc.
  
 This software contains proprietary and confidential information,
 including trade secrets, belonging to Gaussian, Inc.
  
 This software is provided under written license and may be
 used, copied, transmitted, or stored only in accord with that
 written license.
  
 The following legend is applicable only to US Government
 contracts under FAR:
  
                    RESTRICTED RIGHTS LEGEND
  
 Use, reproduction and disclosure by the US Government is
 subject to restrictions as set forth in subparagraphs (a)
 and (c) of the Commercial Computer Software - Restricted
 Rights clause in FAR 52.227-19.
  
 Gaussian, Inc.
 340 Quinnipiac St., Bldg. 40, Wallingford CT 06492
  
  
 ---------------------------------------------------------------
 Warning -- This program may not be used in any manner that
 competes with the business of Gaussian, Inc. or will provide
 assistance to any competitor of Gaussian, Inc.  The licensee
 of this program is prohibited from giving any competitor of
 Gaussian, Inc. access to this program.  By using this program,
 the user acknowledges that Gaussian, Inc. is engaged in the
 business of creating and licensing software in the field of
 computational chemistry and represents and warrants to the
 licensee that it is not a competitor of Gaussian, Inc. and that
 it will not use this program in any manner prohibited above.
 ---------------------------------------------------------------
  

 Cite this work as:
 Gaussian 16, Revision C.01,
 M. J. Frisch, G. W. Trucks, H. B. Schlegel, G. E. Scuseria, 
 M. A. Robb, J. R. Cheeseman, G. Scalmani, V. Barone, 
 G. A. Petersson, H. Nakatsuji, X. Li, M. Caricato, A. V. Marenich, 
 J. Bloino, B. G. Janesko, R. Gomperts, B. Mennucci, H. P. Hratchian, 
 J. V. Ortiz, A. F. Izmaylov, J. L. Sonnenberg, D. Williams-Young, 
 F. Ding, F. Lipparini, F. Egidi, J. Goings, B. Peng, A. Petrone, 
 T. Henderson, D. Ranasinghe, V. G. Zakrzewski, J. Gao, N. Rega, 
 G. Zheng, W. Liang, M. Hada, M. Ehara, K. Toyota, R. Fukuda, 
 J. Hasegawa, M. Ishida, T. Nakajima, Y. Honda, O. Kitao, H. Nakai, 
 T. Vreven, K. Throssell, J. A. Montgomery, Jr., J. E. Peralta, 
 F. Ogliaro, M. J. Bearpark, J. J. Heyd, E. N. Brothers, K. N. Kudin, 
 V. N. Staroverov, T. A. Keith, R. Kobayashi, J. Normand, 
 K. Raghavachari, A. P. Rendell, J. C. Burant, S. S. Iyengar, 
 J. Tomasi, M. Cossi, J. M. Millam, M. Klene, C. Adamo, R. Cammi, 
 J. W. Ochterski, R. L. Martin, K. Morokuma, O. Farkas, 
 J. B. Foresman, and D. J. Fox, Gaussian, Inc., Wallingford CT, 2019.
 
 ******************************************
 Gaussian 16:  ES64L-G16RevC.01  3-Jul-2019
                 2-May-2024 
 ******************************************
 %chk=geometry.chk
 %mem=1GB
 %nprocshared=12
 Will use up to   12 processors via shared memory.
 ----------------------------------------
 #P wB97XD/6-311+G* NoSymm #P Field=Y+107
 ----------------------------------------
 1/38=1,172=1/1;
 2/12=2,15=1,17=6,18=5,40=1/2;
 3/5=4,6=6,7=11,11=2,14=2,15=107,25=1,30=1,74=-58/1,2,3;
 4//1;
 5/5=2,38=5/2;
 6/7=2,8=2,9=2,10=2,28=1/1;
 99/5=1,9=1/99;
 Leave Link    1 at Thu May  2 13:57:43 2024, MaxMem=   134217728 cpu:               2.1 elap:               2.1
 (Enter /software/gaussian/g16-c01/sse4/g16/l101.exe)
 -------
 TitleMe
 -------
 Symbolic Z-matrix:
 Charge =  1 Multiplicity = 1
 C                     0.5193    1.233    -0.0319 
 C                     1.9445    1.2692   -0.0367 
 C                     2.6204    0.0928   -0.025 
 C                    -0.196     0.0301    0.001 
 H                    -0.0207    2.1742   -0.0434 
 H                     2.4828    2.2089   -0.0361 
 H                    -1.2777    0.0399    0.0117 
 N                     4.0921    0.0959    0.0366 
 O                     4.6393   -1.0217    0.1446 
 O                     4.6649    1.1984   -0.0233 
 C                     0.4943   -1.1671    0.021 
 H                    -0.0325   -2.1149    0.0545 
 C                     1.9629   -1.2165   -0.0211 
 H                     2.4436   -1.9631    0.6151 
 Br                    2.173    -1.9491   -1.9062 
 
 ITRead=  0  0  0  0  0  0  0  0  0  0  0  0  0  0  0
 MicOpt= -1 -1 -1 -1 -1 -1 -1 -1 -1 -1 -1 -1 -1 -1 -1
 NAtoms=     15 NQM=       15 NQMF=       0 NMMI=      0 NMMIF=      0
                NMic=       0 NMicF=      0.
                    Isotopes and Nuclear Properties:
 (Nuclear quadrupole moments (NQMom) in fm**2, nuclear magnetic moments (NMagM)
  in nuclear magnetons)

  Atom         1           2           3           4           5           6           7           8           9          10
 IAtWgt=          12          12          12          12           1           1           1          14          16          16
 AtmWgt=  12.0000000  12.0000000  12.0000000  12.0000000   1.0078250   1.0078250   1.0078250  14.0030740  15.9949146  15.9949146
 NucSpn=           0           0           0           0           1           1           1           2           0           0
 AtZEff=  -0.0000000  -0.0000000  -0.0000000  -0.0000000  -0.0000000  -0.0000000  -0.0000000  -0.0000000  -0.0000000  -0.0000000
 NQMom=    0.0000000   0.0000000   0.0000000   0.0000000   0.0000000   0.0000000   0.0000000   2.0440000   0.0000000   0.0000000
 NMagM=    0.0000000   0.0000000   0.0000000   0.0000000   2.7928460   2.7928460   2.7928460   0.4037610   0.0000000   0.0000000
 AtZNuc=   6.0000000   6.0000000   6.0000000   6.0000000   1.0000000   1.0000000   1.0000000   7.0000000   8.0000000   8.0000000

  Atom        11          12          13          14          15
 IAtWgt=          12           1          12           1          79
 AtmWgt=  12.0000000   1.0078250  12.0000000   1.0078250  78.9183361
 NucSpn=           0           1           0           1           3
 AtZEff=  -0.0000000  -0.0000000  -0.0000000  -0.0000000  -0.0000000
 NQMom=    0.0000000   0.0000000   0.0000000   0.0000000  31.3000000
 NMagM=    0.0000000   2.7928460   0.0000000   2.7928460   2.1063990
 AtZNuc=   6.0000000   1.0000000   6.0000000   1.0000000  35.0000000
 Leave Link  101 at Thu May  2 13:57:45 2024, MaxMem=   134217728 cpu:               1.4 elap:               1.4
 (Enter /software/gaussian/g16-c01/sse4/g16/l202.exe)
                          Input orientation:                          
 ---------------------------------------------------------------------
 Center     Atomic      Atomic             Coordinates (Angstroms)
 Number     Number       Type             X           Y           Z
 ---------------------------------------------------------------------
      1          6           0        0.519300    1.233000   -0.031900
      2          6           0        1.944500    1.269200   -0.036700
      3          6           0        2.620400    0.092800   -0.025000
      4          6           0       -0.196000    0.030100    0.001000
      5          1           0       -0.020700    2.174200   -0.043400
      6          1           0        2.482800    2.208900   -0.036100
      7          1           0       -1.277700    0.039900    0.011700
      8          7           0        4.092100    0.095900    0.036600
      9          8           0        4.639300   -1.021700    0.144600
     10          8           0        4.664900    1.198400   -0.023300
     11          6           0        0.494300   -1.167100    0.021000
     12          1           0       -0.032500   -2.114900    0.054500
     13          6           0        1.962900   -1.216500   -0.021100
     14          1           0        2.443600   -1.963100    0.615100
     15         35           0        2.173000   -1.949100   -1.906200
 ---------------------------------------------------------------------
                    Distance matrix (angstroms):
                    1          2          3          4          5
     1  C    0.000000
     2  C    1.425668   0.000000
     3  C    2.390549   1.356796   0.000000
     4  C    1.399895   2.473566   2.817218   0.000000
     5  H    1.085168   2.163581   3.362733   2.151712   0.000000
     6  H    2.192654   1.082960   2.120598   3.453189   2.503751
     7  H    2.157452   3.449071   3.898632   1.081797   2.477564
     8  N    3.750012   2.448304   1.472992   4.288753   4.608780
     9  O    4.699917   3.541615   2.312322   4.950458   5.653735
    10  O    4.145753   2.721354   2.324292   4.999386   4.786171
    11  C    2.400813   2.835836   2.471794   1.382101   3.381369
    12  H    3.394169   3.920329   3.452266   2.151887   4.290233
    13  C    2.843264   2.485817   1.465124   2.493060   3.928360
    14  H    3.786370   3.334922   2.160489   3.364142   4.860416
    15  Br   4.046416   3.728900   2.812194   3.628609   5.028314
                    6          7          8          9         10
     6  H    0.000000
     7  H    4.341452   0.000000
     8  N    2.657047   5.370150   0.000000
     9  O    3.888434   6.012948   1.249048   0.000000
    10  O    2.404752   6.054572   1.243863   2.226587   0.000000
    11  C    3.918516   2.144043   3.813080   4.149391   4.794941
    12  H    5.003018   2.489080   4.679774   4.798846   5.748876
    13  C    3.464662   3.475788   2.501842   2.688591   3.623886
    14  H    4.222698   4.268978   2.700314   2.434893   3.916224
    15  Br   4.569706   4.420610   3.411663   3.338935   4.434144
                   11         12         13         14         15
    11  C    0.000000
    12  H    1.084880   0.000000
    13  C    1.470034   2.189625   0.000000
    14  H    2.187771   2.543302   1.092353   0.000000
    15  Br   2.672762   2.955683   2.033334   2.535818   0.000000
 Symmetry turned off by external request.
 Stoichiometry    C6H5BrNO2(1+)
 Framework group  C1[X(C6H5BrNO2)]
 Deg. of freedom    39
 Full point group                 C1      NOp   1
 Rotational constants (GHZ):           1.1632986           0.9594224           0.5957624
 Leave Link  202 at Thu May  2 13:57:46 2024, MaxMem=   134217728 cpu:               1.2 elap:               1.2
 (Enter /software/gaussian/g16-c01/sse4/g16/l301.exe)
 Standard basis: 6-311+G(d) (5D, 7F)
 Ernie: Thresh=  0.10000D-02 Tol=  0.10000D-05 Strict=F.
 The following finite field(s) will be applied:
 An electric field of              0.0000  0.0107  0.0000
   261 basis functions,   443 primitive gaussians,   273 cartesian basis functions
    49 alpha electrons       49 beta electrons
       nuclear repulsion energy       772.8945969580 Hartrees.
 IExCor= 4639 DFT=T Ex+Corr=wB97XD ExCW=0 ScaHFX=  1.000000
 ScaDFX=  1.000000  1.000000  1.000000  1.000000 ScalE2=  1.000000  1.000000
 IRadAn=      5 IRanWt=     -1 IRanGd=            0 ICorTp=0 IEmpDi=121
 HFx  wShort=  0.000000 wLong=  0.200000 cFull=  0.222036 cShort=  0.000000 cLong=  0.777964
 DFx  wShort=  0.000000 wLong=  0.200000 cFull=  0.000000 cShort=  0.000000 cLong=  1.000000
 NAtoms=   15 NActive=   15 NUniq=   15 SFac= 1.00D+00 NAtFMM=   60 NAOKFM=F Big=F
 Integral buffers will be    131072 words long.
 Raffenetti 2 integral format.
 Two-electron integral symmetry is turned off.
 R6Disp:  Grimme-D2 Dispersion energy=       -0.0080346408 Hartrees.
 Nuclear repulsion after empirical dispersion term =      772.8865623173 Hartrees.
 Leave Link  301 at Thu May  2 13:57:48 2024, MaxMem=   134217728 cpu:               1.1 elap:               1.1
 (Enter /software/gaussian/g16-c01/sse4/g16/l302.exe)
 NPDir=0 NMtPBC=     1 NCelOv=     1 NCel=       1 NClECP=     1 NCelD=      1
         NCelK=      1 NCelE2=     1 NClLst=     1 CellRange=     0.0.
 One-electron integrals computed using PRISM.
 NBasis=   261 RedAO= T EigKep=  2.52D-06  NBF=   261
 NBsUse=   261 1.00D-06 EigRej= -1.00D+00 NBFU=   261
 Precomputing XC quadrature grid using
 IXCGrd= 4 IRadAn=           5 IRanWt=          -1 IRanGd=           0 AccXCQ= 0.00D+00.
 Generated NRdTot=       0 NPtTot=           0 NUsed=           0 NTot=          32
 NSgBfM=   273   273   273   273   273 MxSgAt=    15 MxSgA2=    15.
 Leave Link  302 at Thu May  2 13:58:10 2024, MaxMem=   134217728 cpu:              22.1 elap:              22.1
 (Enter /software/gaussian/g16-c01/sse4/g16/l303.exe)
 DipDrv:  MaxL=1.
 The nuclear repulsion energy is now       771.5856111316 hartrees.
 Leave Link  303 at Thu May  2 13:58:13 2024, MaxMem=   134217728 cpu:               3.3 elap:               3.3
 (Enter /software/gaussian/g16-c01/sse4/g16/l401.exe)
 ExpMin= 3.50D-02 ExpMax= 4.40D+05 ExpMxC= 1.51D+04 IAcc=3 IRadAn=         5 AccDes= 0.00D+00
 Harris functional with IExCor= 4639 and IRadAn=       5 diagonalized for initial guess.
 HarFok:  IExCor= 4639 AccDes= 0.00D+00 IRadAn=         5 IDoV= 1 UseB2=F ITyADJ=14
 ICtDFT=  3500011 ScaDFX=  1.000000  1.000000  1.000000  1.000000
 FoFCou: FMM=F IPFlag=           0 FMFlag=      100000 FMFlg1=           0
         NFxFlg=           0 DoJE=T BraDBF=F KetDBF=T FulRan=T
         wScrn=  0.000000 ICntrl=       500 IOpCl=  0 I1Cent=   200000004 NGrid=           0
         NMat0=    1 NMatS0=      1 NMatT0=    0 NMatD0=    1 NMtDS0=    0 NMtDT0=    0
 Symmetry not used in FoFCou.
 Harris En= -2970.62287277607    
 JPrj=0 DoOrth=F DoCkMO=F.
 Leave Link  401 at Thu May  2 13:58:45 2024, MaxMem=   134217728 cpu:              31.5 elap:              31.5
 (Enter /software/gaussian/g16-c01/sse4/g16/l502.exe)
 Two-electron integral symmetry not used.
 Closed shell SCF:
 Using DIIS extrapolation, IDIIS=  1040.
 NGot=   134217728 LenX=   134063053 LenY=   133988083
 Requested convergence on RMS density matrix=1.00D-08 within 128 cycles.
 Requested convergence on MAX density matrix=1.00D-06.
 Requested convergence on             energy=1.00D-06.
 No special actions if energy rises.
 Fock matrices will be formed incrementally for  20 cycles.

 Cycle   1  Pass 1  IDiag  1:
 FoFJK:  IHMeth= 1 ICntrl=       0 DoSepK=T KAlg= 0 I1Cent=           0 FoldK=F
 IRaf=         1 NMat=       1 IRICut=       1 DoRegI=T DoRafI=F ISym2E= 0 IDoP0=0 IntGTp=1.
 FoFCou: FMM=F IPFlag=           0 FMFlag=      100000 FMFlg1=           0
         NFxFlg=           0 DoJE=T BraDBF=F KetDBF=F FulRan=T
         wScrn=  0.000000 ICntrl=       500 IOpCl=  0 I1Cent=           0 NGrid=           0
         NMat0=    1 NMatS0=      1 NMatT0=    0 NMatD0=    1 NMtDS0=    0 NMtDT0=    0
 Symmetry not used in FoFCou.
 E= -3009.65949585654    
 DIIS: error= 2.90D-01 at cycle   1 NSaved=   1.
 NSaved= 1 IEnMin= 1 EnMin= -3009.65949585654     IErMin= 1 ErrMin= 2.90D-01
 ErrMax= 2.90D-01  0.00D+00 EMaxC= 1.00D-01 BMatC= 1.20D+01 BMatP= 1.20D+01
 IDIUse=3 WtCom= 0.00D+00 WtEn= 1.00D+00
 Coeff-Com:  0.100D+01
 Coeff-En:   0.100D+01
 Coeff:      0.100D+01
 Gap=     0.382 Goal=   None    Shift=    0.000
 GapD=    0.382 DampG=1.000 DampE=0.250 DampFc=0.2500 IDamp=-1.
 Damping current iteration by 2.50D-01
 RMSDP=6.64D-02 MaxDP=8.27D+00              OVMax= 3.04D-01

 Cycle   2  Pass 1  IDiag  1:
 RMSU=  8.59D-03    CP:  8.86D-01
 E= -3009.96746885593     Delta-E=       -0.307972999398 Rises=F Damp=T
 DIIS: error= 2.19D-01 at cycle   2 NSaved=   2.
 NSaved= 2 IEnMin= 2 EnMin= -3009.96746885593     IErMin= 2 ErrMin= 2.19D-01
 ErrMax= 2.19D-01  0.00D+00 EMaxC= 1.00D-01 BMatC= 5.46D+00 BMatP= 1.20D+01
 IDIUse=3 WtCom= 0.00D+00 WtEn= 1.00D+00
 Coeff-Com: -0.179D+01 0.279D+01
 Coeff-En:   0.000D+00 0.100D+01
 Coeff:      0.000D+00 0.100D+01
 Gap=     0.259 Goal=   None    Shift=    0.000
 RMSDP=5.12D-02 MaxDP=6.31D+00 DE=-3.08D-01 OVMax= 1.22D-01

 Cycle   3  Pass 1  IDiag  1:
 RMSU=  6.49D-03    CP:  5.06D-01  3.00D+00
 E= -3010.37690893756     Delta-E=       -0.409440081628 Rises=F Damp=F
 DIIS: error= 6.65D-02 at cycle   3 NSaved=   3.
 NSaved= 3 IEnMin= 3 EnMin= -3010.37690893756     IErMin= 3 ErrMin= 6.65D-02
 ErrMax= 6.65D-02  0.00D+00 EMaxC= 1.00D-01 BMatC= 7.55D-01 BMatP= 5.46D+00
 IDIUse=3 WtCom= 3.35D-01 WtEn= 6.65D-01
 Coeff-Com:  0.197D+01-0.253D+01 0.156D+01
 Coeff-En:   0.455D-01 0.000D+00 0.954D+00
 Coeff:      0.690D+00-0.847D+00 0.116D+01
 Gap=     0.269 Goal=   None    Shift=    0.000
 RMSDP=1.06D-02 MaxDP=7.71D-01 DE=-4.09D-01 OVMax= 1.02D-01

 Cycle   4  Pass 1  IDiag  1:
 RMSU=  9.20D-03    CP:  5.32D-01  3.00D+00  1.64D+00
 E= -3010.47612085782     Delta-E=       -0.099211920257 Rises=F Damp=F
 DIIS: error= 3.93D-02 at cycle   4 NSaved=   4.
 NSaved= 4 IEnMin= 4 EnMin= -3010.47612085782     IErMin= 4 ErrMin= 3.93D-02
 ErrMax= 3.93D-02  0.00D+00 EMaxC= 1.00D-01 BMatC= 2.63D-01 BMatP= 7.55D-01
 IDIUse=3 WtCom= 6.07D-01 WtEn= 3.93D-01
 Coeff-Com:  0.434D+00-0.560D+00 0.605D+00 0.521D+00
 Coeff-En:   0.000D+00 0.000D+00 0.254D+00 0.746D+00
 Coeff:      0.263D+00-0.340D+00 0.467D+00 0.610D+00
 Gap=     0.250 Goal=   None    Shift=    0.000
 RMSDP=6.45D-03 MaxDP=7.67D-01 DE=-9.92D-02 OVMax= 8.98D-02

 Cycle   5  Pass 1  IDiag  1:
 RMSU=  2.35D-03    CP:  4.99D-01  2.88D+00  1.71D+00  5.45D-01
 E= -3010.52950759684     Delta-E=       -0.053386739017 Rises=F Damp=F
 DIIS: error= 1.60D-02 at cycle   5 NSaved=   5.
 NSaved= 5 IEnMin= 5 EnMin= -3010.52950759684     IErMin= 5 ErrMin= 1.60D-02
 ErrMax= 1.60D-02  0.00D+00 EMaxC= 1.00D-01 BMatC= 2.00D-02 BMatP= 2.63D-01
 IDIUse=3 WtCom= 8.40D-01 WtEn= 1.60D-01
 Coeff-Com:  0.507D-02-0.510D-03 0.190D+00 0.365D+00 0.441D+00
 Coeff-En:   0.000D+00 0.000D+00 0.000D+00 0.107D+00 0.893D+00
 Coeff:      0.426D-02-0.429D-03 0.159D+00 0.324D+00 0.513D+00
 Gap=     0.253 Goal=   None    Shift=    0.000
 RMSDP=2.42D-03 MaxDP=2.24D-01 DE=-5.34D-02 OVMax= 5.78D-02

 Cycle   6  Pass 1  IDiag  1:
 RMSU=  8.03D-04    CP:  4.97D-01  3.00D+00  1.66D+00  7.16D-01  6.00D-01
 E= -3010.54086866744     Delta-E=       -0.011361070602 Rises=F Damp=F
 DIIS: error= 4.62D-03 at cycle   6 NSaved=   6.
 NSaved= 6 IEnMin= 6 EnMin= -3010.54086866744     IErMin= 6 ErrMin= 4.62D-03
 ErrMax= 4.62D-03  0.00D+00 EMaxC= 1.00D-01 BMatC= 2.06D-03 BMatP= 2.00D-02
 IDIUse=3 WtCom= 9.54D-01 WtEn= 4.62D-02
 Coeff-Com: -0.524D-01 0.706D-01 0.673D-02 0.108D+00 0.327D+00 0.540D+00
 Coeff-En:   0.000D+00 0.000D+00 0.000D+00 0.000D+00 0.107D+00 0.893D+00
 Coeff:     -0.499D-01 0.673D-01 0.642D-02 0.103D+00 0.317D+00 0.556D+00
 Gap=     0.237 Goal=   None    Shift=    0.000
 RMSDP=6.23D-04 MaxDP=5.32D-02 DE=-1.14D-02 OVMax= 1.42D-02

 Cycle   7  Pass 1  IDiag  1:
 RMSU=  3.70D-04    CP:  4.97D-01  3.00D+00  1.69D+00  6.89D-01  7.38D-01
                    CP:  7.03D-01
 E= -3010.54228056825     Delta-E=       -0.001411900807 Rises=F Damp=F
 DIIS: error= 4.33D-04 at cycle   7 NSaved=   7.
 NSaved= 7 IEnMin= 7 EnMin= -3010.54228056825     IErMin= 7 ErrMin= 4.33D-04
 ErrMax= 4.33D-04  0.00D+00 EMaxC= 1.00D-01 BMatC= 3.10D-05 BMatP= 2.06D-03
 IDIUse=3 WtCom= 9.96D-01 WtEn= 4.33D-03
 Coeff-Com: -0.284D-01 0.378D-01-0.115D-01 0.243D-01 0.104D+00 0.231D+00
 Coeff-Com:  0.643D+00
 Coeff-En:   0.000D+00 0.000D+00 0.000D+00 0.000D+00 0.000D+00 0.000D+00
 Coeff-En:   0.100D+01
 Coeff:     -0.283D-01 0.376D-01-0.114D-01 0.242D-01 0.103D+00 0.230D+00
 Coeff:      0.645D+00
 Gap=     0.239 Goal=   None    Shift=    0.000
 RMSDP=2.31D-04 MaxDP=2.64D-02 DE=-1.41D-03 OVMax= 2.60D-03

 Cycle   8  Pass 1  IDiag  1:
 RMSU=  1.27D-04    CP:  4.96D-01  3.00D+00  1.69D+00  6.95D-01  7.64D-01
                    CP:  8.10D-01  9.78D-01
 E= -3010.54231802168     Delta-E=       -0.000037453433 Rises=F Damp=F
 DIIS: error= 1.47D-04 at cycle   8 NSaved=   8.
 NSaved= 8 IEnMin= 8 EnMin= -3010.54231802168     IErMin= 8 ErrMin= 1.47D-04
 ErrMax= 1.47D-04  0.00D+00 EMaxC= 1.00D-01 BMatC= 2.78D-06 BMatP= 3.10D-05
 IDIUse=3 WtCom= 9.99D-01 WtEn= 1.47D-03
 Coeff-Com: -0.103D-02 0.122D-02-0.426D-02-0.739D-02-0.235D-01-0.409D-01
 Coeff-Com:  0.141D+00 0.935D+00
 Coeff-En:   0.000D+00 0.000D+00 0.000D+00 0.000D+00 0.000D+00 0.000D+00
 Coeff-En:   0.000D+00 0.100D+01
 Coeff:     -0.103D-02 0.122D-02-0.426D-02-0.738D-02-0.235D-01-0.408D-01
 Coeff:      0.141D+00 0.935D+00
 Gap=     0.239 Goal=   None    Shift=    0.000
 RMSDP=1.12D-04 MaxDP=8.80D-03 DE=-3.75D-05 OVMax= 1.71D-03

 Cycle   9  Pass 1  IDiag  1:
 RMSU=  4.45D-05    CP:  4.96D-01  3.00D+00  1.69D+00  6.99D-01  7.73D-01
                    CP:  8.41D-01  1.14D+00  1.50D+00
 E= -3010.54232640677     Delta-E=       -0.000008385093 Rises=F Damp=F
 DIIS: error= 3.87D-05 at cycle   9 NSaved=   9.
 NSaved= 9 IEnMin= 9 EnMin= -3010.54232640677     IErMin= 9 ErrMin= 3.87D-05
 ErrMax= 3.87D-05  0.00D+00 EMaxC= 1.00D-01 BMatC= 4.62D-07 BMatP= 2.78D-06
 IDIUse=1 WtCom= 1.00D+00 WtEn= 0.00D+00
 Coeff-Com:  0.380D-02-0.511D-02 0.761D-04-0.618D-02-0.219D-01-0.472D-01
 Coeff-Com: -0.397D-01 0.298D+00 0.819D+00
 Coeff:      0.380D-02-0.511D-02 0.761D-04-0.618D-02-0.219D-01-0.472D-01
 Coeff:     -0.397D-01 0.298D+00 0.819D+00
 Gap=     0.239 Goal=   None    Shift=    0.000
 RMSDP=4.30D-05 MaxDP=1.75D-03 DE=-8.39D-06 OVMax= 1.08D-03

 Cycle  10  Pass 1  IDiag  1:
 RMSU=  2.03D-05    CP:  4.96D-01  3.00D+00  1.69D+00  6.99D-01  7.80D-01
                    CP:  8.49D-01  1.21D+00  1.59D+00  1.08D+00
 E= -3010.54232863845     Delta-E=       -0.000002231676 Rises=F Damp=F
 DIIS: error= 2.50D-05 at cycle  10 NSaved=  10.
 NSaved=10 IEnMin=10 EnMin= -3010.54232863845     IErMin=10 ErrMin= 2.50D-05
 ErrMax= 2.50D-05  0.00D+00 EMaxC= 1.00D-01 BMatC= 1.10D-07 BMatP= 4.62D-07
 IDIUse=1 WtCom= 1.00D+00 WtEn= 0.00D+00
 Coeff-Com:  0.150D-03-0.176D-03 0.545D-03 0.966D-03 0.678D-02 0.127D-01
 Coeff-Com: -0.267D-01-0.223D+00 0.214D-01 0.121D+01
 Coeff:      0.150D-03-0.176D-03 0.545D-03 0.966D-03 0.678D-02 0.127D-01
 Coeff:     -0.267D-01-0.223D+00 0.214D-01 0.121D+01
 Gap=     0.239 Goal=   None    Shift=    0.000
 RMSDP=2.82D-05 MaxDP=1.97D-03 DE=-2.23D-06 OVMax= 9.79D-04

 Cycle  11  Pass 1  IDiag  1:
 RMSU=  9.60D-06    CP:  4.96D-01  3.00D+00  1.69D+00  6.98D-01  7.86D-01
                    CP:  8.51D-01  1.23D+00  1.60D+00  1.04D+00  1.95D+00
 E= -3010.54232955441     Delta-E=       -0.000000915960 Rises=F Damp=F
 DIIS: error= 6.90D-06 at cycle  11 NSaved=  11.
 NSaved=11 IEnMin=11 EnMin= -3010.54232955441     IErMin=11 ErrMin= 6.90D-06
 ErrMax= 6.90D-06  0.00D+00 EMaxC= 1.00D-01 BMatC= 2.20D-08 BMatP= 1.10D-07
 IDIUse=1 WtCom= 1.00D+00 WtEn= 0.00D+00
 Coeff-Com: -0.522D-03 0.709D-03 0.147D-03 0.121D-02 0.511D-02 0.105D-01
 Coeff-Com:  0.174D-03-0.106D+00-0.127D+00 0.343D+00 0.872D+00
 Coeff:     -0.522D-03 0.709D-03 0.147D-03 0.121D-02 0.511D-02 0.105D-01
 Coeff:      0.174D-03-0.106D+00-0.127D+00 0.343D+00 0.872D+00
 Gap=     0.239 Goal=   None    Shift=    0.000
 RMSDP=8.66D-06 MaxDP=5.11D-04 DE=-9.16D-07 OVMax= 4.10D-04

 Cycle  12  Pass 1  IDiag  1:
 RMSU=  3.98D-06    CP:  4.96D-01  3.00D+00  1.69D+00  6.98D-01  7.87D-01
                    CP:  8.51D-01  1.24D+00  1.58D+00  1.05D+00  2.21D+00
                    CP:  1.31D+00
 E= -3010.54232971388     Delta-E=       -0.000000159475 Rises=F Damp=F
 DIIS: error= 4.66D-06 at cycle  12 NSaved=  12.
 NSaved=12 IEnMin=12 EnMin= -3010.54232971388     IErMin=12 ErrMin= 4.66D-06
 ErrMax= 4.66D-06  0.00D+00 EMaxC= 1.00D-01 BMatC= 8.87D-09 BMatP= 2.20D-08
 IDIUse=1 WtCom= 1.00D+00 WtEn= 0.00D+00
 Coeff-Com: -0.234D-03 0.310D-03-0.720D-04 0.210D-03-0.884D-03-0.152D-02
 Coeff-Com:  0.114D-01 0.465D-01-0.609D-01-0.360D+00 0.394D+00 0.971D+00
 Coeff:     -0.234D-03 0.310D-03-0.720D-04 0.210D-03-0.884D-03-0.152D-02
 Coeff:      0.114D-01 0.465D-01-0.609D-01-0.360D+00 0.394D+00 0.971D+00
 Gap=     0.239 Goal=   None    Shift=    0.000
 RMSDP=9.66D-06 MaxDP=8.89D-04 DE=-1.59D-07 OVMax= 3.06D-04

 Cycle  13  Pass 1  IDiag  1:
 RMSU=  2.28D-06    CP:  4.96D-01  3.00D+00  1.69D+00  6.98D-01  7.88D-01
                    CP:  8.50D-01  1.24D+00  1.55D+00  1.01D+00  2.53D+00
                    CP:  1.60D+00  1.36D+00
 E= -3010.54232976824     Delta-E=       -0.000000054355 Rises=F Damp=F
 DIIS: error= 1.48D-06 at cycle  13 NSaved=  13.
 NSaved=13 IEnMin=13 EnMin= -3010.54232976824     IErMin=13 ErrMin= 1.48D-06
 ErrMax= 1.48D-06  0.00D+00 EMaxC= 1.00D-01 BMatC= 7.22D-10 BMatP= 8.87D-09
 IDIUse=1 WtCom= 1.00D+00 WtEn= 0.00D+00
 Coeff-Com: -0.265D-04 0.339D-04-0.389D-04-0.685D-04-0.729D-03-0.145D-02
 Coeff-Com:  0.240D-02 0.173D-01 0.571D-02-0.973D-01-0.190D-01 0.996D-01
 Coeff-Com:  0.994D+00
 Coeff:     -0.265D-04 0.339D-04-0.389D-04-0.685D-04-0.729D-03-0.145D-02
 Coeff:      0.240D-02 0.173D-01 0.571D-02-0.973D-01-0.190D-01 0.996D-01
 Coeff:      0.994D+00
 Gap=     0.239 Goal=   None    Shift=    0.000
 RMSDP=3.54D-06 MaxDP=3.48D-04 DE=-5.44D-08 OVMax= 8.03D-05

 Cycle  14  Pass 1  IDiag  1:
 RMSU=  1.11D-06    CP:  4.96D-01  3.00D+00  1.69D+00  6.98D-01  7.87D-01
                    CP:  8.51D-01  1.24D+00  1.54D+00  1.03D+00  2.56D+00
                    CP:  1.57D+00  1.68D+00  1.56D+00
 E= -3010.54232977243     Delta-E=       -0.000000004188 Rises=F Damp=F
 DIIS: error= 9.29D-07 at cycle  14 NSaved=  14.
 NSaved=14 IEnMin=14 EnMin= -3010.54232977243     IErMin=14 ErrMin= 9.29D-07
 ErrMax= 9.29D-07  0.00D+00 EMaxC= 1.00D-01 BMatC= 2.14D-10 BMatP= 7.22D-10
 IDIUse=1 WtCom= 1.00D+00 WtEn= 0.00D+00
 Coeff-Com:  0.118D-04-0.158D-04-0.116D-04-0.576D-04-0.298D-04-0.770D-04
 Coeff-Com: -0.126D-02-0.549D-02 0.152D-01 0.460D-01-0.793D-01-0.192D+00
 Coeff-Com:  0.365D+00 0.851D+00
 Coeff:      0.118D-04-0.158D-04-0.116D-04-0.576D-04-0.298D-04-0.770D-04
 Coeff:     -0.126D-02-0.549D-02 0.152D-01 0.460D-01-0.793D-01-0.192D+00
 Coeff:      0.365D+00 0.851D+00
 Gap=     0.239 Goal=   None    Shift=    0.000
 RMSDP=1.51D-06 MaxDP=1.51D-04 DE=-4.19D-09 OVMax= 2.74D-05

 Cycle  15  Pass 1  IDiag  1:
 RMSU=  2.37D-07    CP:  4.96D-01  3.00D+00  1.70D+00  6.98D-01  7.87D-01
                    CP:  8.51D-01  1.24D+00  1.53D+00  1.04D+00  2.57D+00
                    CP:  1.54D+00  1.77D+00  1.84D+00  1.29D+00
 E= -3010.54232977315     Delta-E=       -0.000000000724 Rises=F Damp=F
 DIIS: error= 2.74D-07 at cycle  15 NSaved=  15.
 NSaved=15 IEnMin=15 EnMin= -3010.54232977315     IErMin=15 ErrMin= 2.74D-07
 ErrMax= 2.74D-07  0.00D+00 EMaxC= 1.00D-01 BMatC= 2.45D-11 BMatP= 2.14D-10
 IDIUse=1 WtCom= 1.00D+00 WtEn= 0.00D+00
 Coeff-Com:  0.323D-06-0.168D-06 0.101D-05 0.730D-06 0.107D-03 0.216D-03
 Coeff-Com: -0.582D-03-0.404D-02 0.277D-02 0.251D-01-0.117D-01-0.649D-01
 Coeff-Com: -0.819D-01 0.179D+00 0.956D+00
 Coeff:      0.323D-06-0.168D-06 0.101D-05 0.730D-06 0.107D-03 0.216D-03
 Coeff:     -0.582D-03-0.404D-02 0.277D-02 0.251D-01-0.117D-01-0.649D-01
 Coeff:     -0.819D-01 0.179D+00 0.956D+00
 Gap=     0.239 Goal=   None    Shift=    0.000
 RMSDP=7.17D-07 MaxDP=7.04D-05 DE=-7.24D-10 OVMax= 1.01D-05

 Cycle  16  Pass 1  IDiag  1:
 RMSU=  1.16D-07    CP:  4.96D-01  3.00D+00  1.70D+00  6.98D-01  7.87D-01
                    CP:  8.51D-01  1.24D+00  1.53D+00  1.05D+00  2.57D+00
                    CP:  1.53D+00  1.79D+00  1.97D+00  1.45D+00  1.26D+00
 E= -3010.54232977332     Delta-E=       -0.000000000172 Rises=F Damp=F
 DIIS: error= 1.27D-07 at cycle  16 NSaved=  16.
 NSaved=16 IEnMin=16 EnMin= -3010.54232977332     IErMin=16 ErrMin= 1.27D-07
 ErrMax= 1.27D-07  0.00D+00 EMaxC= 1.00D-01 BMatC= 3.16D-12 BMatP= 2.45D-11
 IDIUse=1 WtCom= 1.00D+00 WtEn= 0.00D+00
 Coeff-Com: -0.478D-06 0.710D-06 0.236D-05 0.662D-05 0.153D-04 0.342D-04
 Coeff-Com:  0.287D-04 0.661D-04-0.128D-02-0.115D-02 0.844D-02 0.101D-01
 Coeff-Com: -0.532D-01-0.606D-01 0.156D+00 0.941D+00
 Coeff:     -0.478D-06 0.710D-06 0.236D-05 0.662D-05 0.153D-04 0.342D-04
 Coeff:      0.287D-04 0.661D-04-0.128D-02-0.115D-02 0.844D-02 0.101D-01
 Coeff:     -0.532D-01-0.606D-01 0.156D+00 0.941D+00
 Gap=     0.239 Goal=   None    Shift=    0.000
 RMSDP=1.19D-07 MaxDP=9.57D-06 DE=-1.72D-10 OVMax= 3.63D-06

 Cycle  17  Pass 1  IDiag  1:
 RMSU=  4.20D-08    CP:  4.96D-01  3.00D+00  1.70D+00  6.98D-01  7.87D-01
                    CP:  8.51D-01  1.24D+00  1.53D+00  1.05D+00  2.57D+00
                    CP:  1.52D+00  1.79D+00  1.98D+00  1.48D+00  1.41D+00
                    CP:  1.22D+00
 E= -3010.54232977340     Delta-E=       -0.000000000076 Rises=F Damp=F
 DIIS: error= 7.03D-08 at cycle  17 NSaved=  17.
 NSaved=17 IEnMin=17 EnMin= -3010.54232977340     IErMin=17 ErrMin= 7.03D-08
 ErrMax= 7.03D-08  0.00D+00 EMaxC= 1.00D-01 BMatC= 1.71D-12 BMatP= 3.16D-12
 IDIUse=1 WtCom= 1.00D+00 WtEn= 0.00D+00
 Coeff-Com: -0.196D-05 0.259D-05 0.213D-06 0.422D-05-0.121D-04-0.254D-04
 Coeff-Com:  0.153D-03 0.970D-03-0.135D-02-0.627D-02 0.619D-02 0.179D-01
 Coeff-Com: -0.203D-03-0.650D-01-0.203D+00 0.427D+00 0.823D+00
 Coeff:     -0.196D-05 0.259D-05 0.213D-06 0.422D-05-0.121D-04-0.254D-04
 Coeff:      0.153D-03 0.970D-03-0.135D-02-0.627D-02 0.619D-02 0.179D-01
 Coeff:     -0.203D-03-0.650D-01-0.203D+00 0.427D+00 0.823D+00
 Gap=     0.239 Goal=   None    Shift=    0.000
 RMSDP=7.53D-08 MaxDP=6.18D-06 DE=-7.64D-11 OVMax= 2.61D-06

 Cycle  18  Pass 1  IDiag  1:
 RMSU=  2.10D-08    CP:  4.96D-01  3.00D+00  1.70D+00  6.98D-01  7.87D-01
                    CP:  8.51D-01  1.24D+00  1.53D+00  1.05D+00  2.57D+00
                    CP:  1.52D+00  1.79D+00  1.99D+00  1.49D+00  1.45D+00
                    CP:  1.48D+00  1.46D+00
 E= -3010.54232977335     Delta-E=        0.000000000045 Rises=F Damp=F
 DIIS: error= 2.34D-08 at cycle  18 NSaved=  18.
 NSaved=18 IEnMin=17 EnMin= -3010.54232977340     IErMin=18 ErrMin= 2.34D-08
 ErrMax= 2.34D-08  0.00D+00 EMaxC= 1.00D-01 BMatC= 2.06D-13 BMatP= 1.71D-12
 IDIUse=1 WtCom= 1.00D+00 WtEn= 0.00D+00
 Coeff-Com: -0.414D-06 0.541D-06-0.754D-06-0.120D-05-0.124D-05-0.677D-05
 Coeff-Com: -0.201D-04-0.500D-04 0.241D-03 0.663D-03-0.195D-02-0.365D-02
 Coeff-Com:  0.169D-01 0.196D-01-0.680D-01-0.184D+00-0.793D-01 0.130D+01
 Coeff:     -0.414D-06 0.541D-06-0.754D-06-0.120D-05-0.124D-05-0.677D-05
 Coeff:     -0.201D-04-0.500D-04 0.241D-03 0.663D-03-0.195D-02-0.365D-02
 Coeff:      0.169D-01 0.196D-01-0.680D-01-0.184D+00-0.793D-01 0.130D+01
 Gap=     0.239 Goal=   None    Shift=    0.000
 RMSDP=6.10D-08 MaxDP=8.09D-06 DE= 4.46D-11 OVMax= 1.80D-06

 Cycle  19  Pass 1  IDiag  1:
 RMSU=  8.89D-09    CP:  4.96D-01  3.00D+00  1.70D+00  6.98D-01  7.87D-01
                    CP:  8.51D-01  1.24D+00  1.53D+00  1.05D+00  2.57D+00
                    CP:  1.53D+00  1.79D+00  1.99D+00  1.49D+00  1.45D+00
                    CP:  1.62D+00  1.91D+00  1.82D+00
 E= -3010.54232977336     Delta-E=       -0.000000000001 Rises=F Damp=F
 DIIS: error= 9.87D-09 at cycle  19 NSaved=  19.
 NSaved=19 IEnMin=17 EnMin= -3010.54232977340     IErMin=19 ErrMin= 9.87D-09
 ErrMax= 9.87D-09  0.00D+00 EMaxC= 1.00D-01 BMatC= 3.75D-14 BMatP= 2.06D-13
 IDIUse=1 WtCom= 1.00D+00 WtEn= 0.00D+00
 Coeff-Com:  0.189D-06-0.248D-06-0.127D-06-0.725D-06 0.114D-05 0.495D-06
 Coeff-Com: -0.253D-04-0.135D-03 0.250D-03 0.899D-03-0.117D-02-0.297D-02
 Coeff-Com:  0.202D-02 0.104D-01 0.218D-01-0.669D-01-0.162D+00 0.114D+00
 Coeff-Com:  0.108D+01
 Coeff:      0.189D-06-0.248D-06-0.127D-06-0.725D-06 0.114D-05 0.495D-06
 Coeff:     -0.253D-04-0.135D-03 0.250D-03 0.899D-03-0.117D-02-0.297D-02
 Coeff:      0.202D-02 0.104D-01 0.218D-01-0.669D-01-0.162D+00 0.114D+00
 Coeff:      0.108D+01
 Gap=     0.239 Goal=   None    Shift=    0.000
 RMSDP=1.76D-08 MaxDP=1.06D-06 DE=-9.09D-13 OVMax= 7.14D-07

 Cycle  20  Pass 1  IDiag  1:
 RMSU=  3.01D-09    CP:  4.96D-01  3.00D+00  1.70D+00  6.98D-01  7.87D-01
                    CP:  8.51D-01  1.24D+00  1.53D+00  1.05D+00  2.57D+00
                    CP:  1.53D+00  1.79D+00  1.99D+00  1.49D+00  1.45D+00
                    CP:  1.66D+00  2.06D+00  2.15D+00  1.40D+00
 E= -3010.54232977339     Delta-E=       -0.000000000036 Rises=F Damp=F
 DIIS: error= 5.19D-09 at cycle  20 NSaved=  20.
 NSaved=20 IEnMin=17 EnMin= -3010.54232977340     IErMin=20 ErrMin= 5.19D-09
 ErrMax= 5.19D-09  0.00D+00 EMaxC= 1.00D-01 BMatC= 9.08D-15 BMatP= 3.75D-14
 IDIUse=1 WtCom= 1.00D+00 WtEn= 0.00D+00
 Coeff-Com:  0.877D-07-0.114D-06 0.996D-07 0.905D-07 0.844D-06 0.166D-05
 Coeff-Com: -0.244D-05-0.354D-04 0.354D-04 0.116D-03 0.803D-04-0.113D-03
 Coeff-Com: -0.283D-02-0.133D-02 0.228D-01 0.235D-01-0.433D-01-0.244D+00
 Coeff-Com:  0.419D+00 0.827D+00
 Coeff:      0.877D-07-0.114D-06 0.996D-07 0.905D-07 0.844D-06 0.166D-05
 Coeff:     -0.244D-05-0.354D-04 0.354D-04 0.116D-03 0.803D-04-0.113D-03
 Coeff:     -0.283D-02-0.133D-02 0.228D-01 0.235D-01-0.433D-01-0.244D+00
 Coeff:      0.419D+00 0.827D+00
 Gap=     0.239 Goal=   None    Shift=    0.000
 RMSDP=6.49D-09 MaxDP=7.58D-07 DE=-3.64D-11 OVMax= 1.75D-07

 SCF Done:  E(RwB97XD) =  -3010.54232977     A.U. after   20 cycles
            NFock= 20  Conv=0.65D-08     -V/T= 2.0016
 KE= 3.005829904192D+03 PE=-8.697672954186D+03 EE= 1.909715109088D+03
 Leave Link  502 at Thu May  2 14:19:02 2024, MaxMem=   134217728 cpu:            1217.0 elap:            1217.2
 (Enter /software/gaussian/g16-c01/sse4/g16/l601.exe)
 Copying SCF densities to generalized density rwf, IOpCl= 0 IROHF=0.

 **********************************************************************

            Population analysis using the SCF Density.

 **********************************************************************

 Alpha  occ. eigenvalues -- -483.29496 -62.84492 -56.64210 -56.63611 -56.63593
 Alpha  occ. eigenvalues --  -19.46237 -19.46014 -14.85497 -10.58849 -10.56720
 Alpha  occ. eigenvalues --  -10.56458 -10.56364 -10.53476 -10.52249  -9.00277
 Alpha  occ. eigenvalues --   -6.83023  -6.81060  -6.81008  -2.92911  -2.92401
 Alpha  occ. eigenvalues --   -2.92359  -2.90788  -2.90788  -1.49790  -1.32758
 Alpha  occ. eigenvalues --   -1.21767  -1.12333  -1.11640  -1.03710  -0.99600
 Alpha  occ. eigenvalues --   -0.94708  -0.90109  -0.84658  -0.80592  -0.79864
 Alpha  occ. eigenvalues --   -0.79630  -0.77408  -0.75994  -0.74963  -0.71226
 Alpha  occ. eigenvalues --   -0.67916  -0.67078  -0.62665  -0.58899  -0.57258
 Alpha  occ. eigenvalues --   -0.56464  -0.55787  -0.54155  -0.53152
 Alpha virt. eigenvalues --   -0.29297  -0.20178  -0.14404  -0.12590  -0.11683
 Alpha virt. eigenvalues --   -0.07835  -0.06181  -0.05292  -0.04225  -0.03302
 Alpha virt. eigenvalues --   -0.01793  -0.01132  -0.00405  -0.00122   0.00834
 Alpha virt. eigenvalues --    0.01668   0.02921   0.03331   0.04040   0.04728
 Alpha virt. eigenvalues --    0.05252   0.05711   0.06132   0.06624   0.06947
 Alpha virt. eigenvalues --    0.07647   0.08080   0.09036   0.09376   0.10118
 Alpha virt. eigenvalues --    0.10565   0.10909   0.11651   0.12014   0.12879
 Alpha virt. eigenvalues --    0.13441   0.14108   0.14904   0.15839   0.16121
 Alpha virt. eigenvalues --    0.17196   0.17372   0.17853   0.19613   0.20715
 Alpha virt. eigenvalues --    0.21364   0.21522   0.21900   0.22606   0.24631
 Alpha virt. eigenvalues --    0.26144   0.27319   0.28552   0.31489   0.31855
 Alpha virt. eigenvalues --    0.33477   0.34676   0.34813   0.35865   0.37459
 Alpha virt. eigenvalues --    0.38004   0.38715   0.39952   0.41958   0.42956
 Alpha virt. eigenvalues --    0.43885   0.44612   0.45615   0.46767   0.48290
 Alpha virt. eigenvalues --    0.49219   0.51619   0.51633   0.53107   0.53910
 Alpha virt. eigenvalues --    0.55791   0.57167   0.57409   0.59533   0.60793
 Alpha virt. eigenvalues --    0.62322   0.63116   0.65912   0.68744   0.69390
 Alpha virt. eigenvalues --    0.70646   0.71499   0.73792   0.74532   0.75327
 Alpha virt. eigenvalues --    0.76510   0.77390   0.79675   0.84861   0.86358
 Alpha virt. eigenvalues --    0.87679   0.88266   0.91762   0.94737   0.98584
 Alpha virt. eigenvalues --    1.01062   1.03105   1.04108   1.06240   1.07338
 Alpha virt. eigenvalues --    1.09798   1.12904   1.13497   1.14085   1.17985
 Alpha virt. eigenvalues --    1.21794   1.23524   1.28438   1.34389   1.36749
 Alpha virt. eigenvalues --    1.37562   1.39617   1.44213   1.55823   1.57297
 Alpha virt. eigenvalues --    1.57598   1.60219   1.61926   1.64430   1.66612
 Alpha virt. eigenvalues --    1.68511   1.72069   1.74359   1.75954   1.80069
 Alpha virt. eigenvalues --    1.84661   1.85744   1.87588   1.96857   1.97538
 Alpha virt. eigenvalues --    1.98624   2.03358   2.03874   2.07990   2.09938
 Alpha virt. eigenvalues --    2.13890   2.15404   2.22842   2.24115   2.27369
 Alpha virt. eigenvalues --    2.33885   2.40674   2.42000   2.45090   2.53776
 Alpha virt. eigenvalues --    2.59018   2.63631   2.66394   2.69232   2.71842
 Alpha virt. eigenvalues --    2.73913   2.76577   2.77906   2.80885   2.82884
 Alpha virt. eigenvalues --    2.94104   2.98773   3.01873   3.06915   3.09491
 Alpha virt. eigenvalues --    3.15266   3.16524   3.18374   3.22801   3.26636
 Alpha virt. eigenvalues --    3.27843   3.38317   3.46932   3.50644   3.54863
 Alpha virt. eigenvalues --    3.58204   3.69060   3.74382   3.84339   3.88029
 Alpha virt. eigenvalues --    4.11927   4.12807   4.21188   4.25404   4.44515
 Alpha virt. eigenvalues --    4.45908   4.55379   4.60068   4.93532   4.96595
 Alpha virt. eigenvalues --    5.05129   5.10049   5.62141   6.15254   6.69960
 Alpha virt. eigenvalues --    7.50838   7.53144   7.63199  23.22803  23.61880
 Alpha virt. eigenvalues --   23.73355  23.78600  23.96313  24.02407  35.31666
 Alpha virt. eigenvalues --   47.95887  49.85330  49.93997 289.83495 289.85832
 Alpha virt. eigenvalues --  289.984361020.97023
          Condensed to atoms (all electrons):
               1          2          3          4          5          6
     1  C    8.505330  -3.512312   1.066515  -0.239947   0.292375   0.071100
     2  C   -3.512312  18.402654  -4.878408   0.582127  -0.022818   0.145439
     3  C    1.066515  -4.878408  18.332440  -1.483609   0.024269   0.165757
     4  C   -0.239947   0.582127  -1.483609   6.678579   0.039703  -0.022849
     5  H    0.292375  -0.022818   0.024269   0.039703   0.377543  -0.002430
     6  H    0.071100   0.145439   0.165757  -0.022849  -0.002430   0.351082
     7  H    0.015554  -0.026746   0.021058   0.299733  -0.003277  -0.000009
     8  N   -0.119861   0.122550  -1.574876  -0.004713  -0.000532  -0.036052
     9  O   -0.043555   0.277371  -0.152998  -0.005924  -0.000042  -0.002900
    10  O    0.314317  -0.268899  -0.226617  -0.028035   0.000037   0.024765
    11  C    0.920391  -0.944879   2.349632  -0.455001  -0.030981   0.012602
    12  H   -0.003296   0.015389   0.004532   0.005181   0.000017  -0.000019
    13  C   -1.138332  -3.954047  -7.376794   0.950146   0.027081  -0.013518
    14  H   -0.011095   0.023132   0.041000   0.011323  -0.000035   0.000033
    15  Br  -0.012780  -0.150977  -0.213394   0.036119  -0.000036  -0.000747
               7          8          9         10         11         12
     1  C    0.015554  -0.119861  -0.043555   0.314317   0.920391  -0.003296
     2  C   -0.026746   0.122550   0.277371  -0.268899  -0.944879   0.015389
     3  C    0.021058  -1.574876  -0.152998  -0.226617   2.349632   0.004532
     4  C    0.299733  -0.004713  -0.005924  -0.028035  -0.455001   0.005181
     5  H   -0.003277  -0.000532  -0.000042   0.000037  -0.030981   0.000017
     6  H   -0.000009  -0.036052  -0.002900   0.024765   0.012602  -0.000019
     7  H    0.341040   0.000065  -0.000002   0.000003   0.046091  -0.001980
     8  N    0.000065   7.623701   0.102428   0.153711  -0.213780   0.000897
     9  O   -0.000002   0.102428   7.801217  -0.003675   0.228168   0.000049
    10  O    0.000003   0.153711  -0.003675   7.932119   0.018944  -0.000017
    11  C    0.046091  -0.213780   0.228168   0.018944   8.203378   0.325040
    12  H   -0.001980   0.000897   0.000049  -0.000017   0.325040   0.289620
    13  C   -0.019163   1.069839  -0.305294   0.073049  -4.330473  -0.023417
    14  H   -0.000044  -0.036901   0.013512  -0.002122  -0.041318  -0.004005
    15  Br  -0.000425   0.157697  -0.056562   0.003817   0.098889  -0.002036
              13         14         15
     1  C   -1.138332  -0.011095  -0.012780
     2  C   -3.954047   0.023132  -0.150977
     3  C   -7.376794   0.041000  -0.213394
     4  C    0.950146   0.011323   0.036119
     5  H    0.027081  -0.000035  -0.000036
     6  H   -0.013518   0.000033  -0.000747
     7  H   -0.019163  -0.000044  -0.000425
     8  N    1.069839  -0.036901   0.157697
     9  O   -0.305294   0.013512  -0.056562
    10  O    0.073049  -0.002122   0.003817
    11  C   -4.330473  -0.041318   0.098889
    12  H   -0.023417  -0.004005  -0.002036
    13  C   20.811655   0.299366   0.310477
    14  H    0.299366   0.303761  -0.033300
    15  Br   0.310477  -0.033300  34.599012
 Mulliken charges:
               1
     1  C   -0.104402
     2  C    0.190425
     3  C   -0.098507
     4  C   -0.362834
     5  H    0.299126
     6  H    0.307746
     7  H    0.328103
     8  N   -0.244173
     9  O    0.148207
    10  O    0.008602
    11  C   -0.186702
    12  H    0.394046
    13  C   -0.380575
    14  H    0.436692
    15  Br   0.264247
 Sum of Mulliken charges =   1.00000
 Mulliken charges with hydrogens summed into heavy atoms:
               1
     1  C    0.194724
     2  C    0.498171
     3  C   -0.098507
     4  C   -0.034731
     8  N   -0.244173
     9  O    0.148207
    10  O    0.008602
    11  C    0.207343
    13  C    0.056117
    15  Br   0.264247
 Electronic spatial extent (au):  <R**2>=           3944.0952
 Charge=              1.0000 electrons
 Dipole moment (field-independent basis, Debye):
    X=              2.9419    Y=             -4.0498    Z=             -1.1870  Tot=              5.1443
 Quadrupole moment (field-independent basis, Debye-Ang):
   XX=            -67.6947   YY=            -49.6981   ZZ=            -61.0340
   XY=             -9.5379   XZ=             -3.5149   YZ=              4.1211
 Traceless Quadrupole moment (field-independent basis, Debye-Ang):
   XX=             -8.2191   YY=              9.7775   ZZ=             -1.5584
   XY=             -9.5379   XZ=             -3.5149   YZ=              4.1211
 Octapole moment (field-independent basis, Debye-Ang**2):
  XXX=           -513.8200  YYY=             73.2372  ZZZ=             79.4629  XYY=           -133.0423
  XXY=              0.4622  XXZ=             23.3457  XZZ=           -129.6934  YZZ=             11.3113
  YYZ=             20.8366  XYZ=             11.6523
 Hexadecapole moment (field-independent basis, Debye-Ang**3):
 XXXX=          -3459.4495 YYYY=           -683.7450 ZZZZ=           -385.4056 XXXY=             83.0924
 XXXZ=            179.1833 YYYX=            148.2418 YYYZ=           -156.6343 ZZZX=            159.6148
 ZZZY=           -133.4132 XXYY=           -617.0233 XXZZ=           -518.7847 YYZZ=           -159.8665
 XXYZ=            -32.0153 YYXZ=             38.6362 ZZXY=             16.2024
 N-N= 7.715856111316D+02 E-N=-8.697672954287D+03  KE= 3.005829904192D+03
 No NMR shielding tensors so no spin-rotation constants.
 Leave Link  601 at Thu May  2 14:19:09 2024, MaxMem=   134217728 cpu:               7.3 elap:               7.3
 (Enter /software/gaussian/g16-c01/sse4/g16/l9999.exe)
 Unable to Open any file for archive entry.
 1\1\GINC-BHX0012\SP\RwB97XD\6-311+G(d)\C6H5Br1N1O2(1+)\BWEIGHT\02-May-
 2024\0\\#P wB97XD/6-311+G* NoSymm #P Field=Y+107\\TitleMe\\1,1\C,0,0.5
 193,1.233,-0.0319\C,0,1.9445,1.2692,-0.0367\C,0,2.6204,0.0928,-0.025\C
 ,0,-0.196,0.0301,0.001\H,0,-0.0207,2.1742,-0.0434\H,0,2.4828,2.2089,-0
 .0361\H,0,-1.2777,0.0399,0.0117\N,0,4.0921,0.0959,0.0366\O,0,4.6393,-1
 .0217,0.1446\O,0,4.6649,1.1984,-0.0233\C,0,0.4943,-1.1671,0.021\H,0,-0
 .0325,-2.1149,0.0545\C,0,1.9629,-1.2165,-0.0211\H,0,2.4436,-1.9631,0.6
 151\Br,0,2.173,-1.9491,-1.9062\\Version=ES64L-G16RevC.01\HF=-3010.5423
 298\RMSD=6.493e-09\Dipole=-3.1717794,-0.3651715,0.7822262\Quadrupole=-
 6.1107034,7.2693518,-1.1586484,-7.0912022,-2.6132459,3.0639513\PG=C01 
 [X(C6H5Br1N1O2)]\\@
 The archive entry for this job was punched.


 THE WHOLE OF SCIENCE IS NOTHING MORE THAN A REFINEMENT OF EVERYDAY THINKING.
                                                              -- A. EINSTEIN
 Job cpu time:       0 days  0 hours 21 minutes 27.8 seconds.
 Elapsed time:       0 days  0 hours 21 minutes 28.0 seconds.
 File lengths (MBytes):  RWF=     40 Int=      0 D2E=      0 Chk=     32 Scr=      1
 Normal termination of Gaussian 16 at Thu May  2 14:19:10 2024.
