 Entering Gaussian System, Link 0=g16
 Initial command:
 /software/gaussian/g16-c01/sse4/g16/l1.exe "/local_scratch/24665364/Gau-29460.inp" -scrdir="/local_scratch/24665364/"
 Entering Link 1 = /software/gaussian/g16-c01/sse4/g16/l1.exe PID=     29507.
  
 Copyright (c) 1988-2019, Gaussian, Inc.  All Rights Reserved.
  
 This is part of the Gaussian(R) 16 program.  It is based on
 the Gaussian(R) 09 system (copyright 2009, Gaussian, Inc.),
 the Gaussian(R) 03 system (copyright 2003, Gaussian, Inc.),
 the Gaussian(R) 98 system (copyright 1998, Gaussian, Inc.),
 the Gaussian(R) 94 system (copyright 1995, Gaussian, Inc.),
 the Gaussian 92(TM) system (copyright 1992, Gaussian, Inc.),
 the Gaussian 90(TM) system (copyright 1990, Gaussian, Inc.),
 the Gaussian 88(TM) system (copyright 1988, Gaussian, Inc.),
 the Gaussian 86(TM) system (copyright 1986, Carnegie Mellon
 University), and the Gaussian 82(TM) system (copyright 1983,
 Carnegie Mellon University). Gaussian is a federally registered
 trademark of Gaussian, Inc.
  
 This software contains proprietary and confidential information,
 including trade secrets, belonging to Gaussian, Inc.
  
 This software is provided under written license and may be
 used, copied, transmitted, or stored only in accord with that
 written license.
  
 The following legend is applicable only to US Government
 contracts under FAR:
  
                    RESTRICTED RIGHTS LEGEND
  
 Use, reproduction and disclosure by the US Government is
 subject to restrictions as set forth in subparagraphs (a)
 and (c) of the Commercial Computer Software - Restricted
 Rights clause in FAR 52.227-19.
  
 Gaussian, Inc.
 340 Quinnipiac St., Bldg. 40, Wallingford CT 06492
  
  
 ---------------------------------------------------------------
 Warning -- This program may not be used in any manner that
 competes with the business of Gaussian, Inc. or will provide
 assistance to any competitor of Gaussian, Inc.  The licensee
 of this program is prohibited from giving any competitor of
 Gaussian, Inc. access to this program.  By using this program,
 the user acknowledges that Gaussian, Inc. is engaged in the
 business of creating and licensing software in the field of
 computational chemistry and represents and warrants to the
 licensee that it is not a competitor of Gaussian, Inc. and that
 it will not use this program in any manner prohibited above.
 ---------------------------------------------------------------
  

 Cite this work as:
 Gaussian 16, Revision C.01,
 M. J. Frisch, G. W. Trucks, H. B. Schlegel, G. E. Scuseria, 
 M. A. Robb, J. R. Cheeseman, G. Scalmani, V. Barone, 
 G. A. Petersson, H. Nakatsuji, X. Li, M. Caricato, A. V. Marenich, 
 J. Bloino, B. G. Janesko, R. Gomperts, B. Mennucci, H. P. Hratchian, 
 J. V. Ortiz, A. F. Izmaylov, J. L. Sonnenberg, D. Williams-Young, 
 F. Ding, F. Lipparini, F. Egidi, J. Goings, B. Peng, A. Petrone, 
 T. Henderson, D. Ranasinghe, V. G. Zakrzewski, J. Gao, N. Rega, 
 G. Zheng, W. Liang, M. Hada, M. Ehara, K. Toyota, R. Fukuda, 
 J. Hasegawa, M. Ishida, T. Nakajima, Y. Honda, O. Kitao, H. Nakai, 
 T. Vreven, K. Throssell, J. A. Montgomery, Jr., J. E. Peralta, 
 F. Ogliaro, M. J. Bearpark, J. J. Heyd, E. N. Brothers, K. N. Kudin, 
 V. N. Staroverov, T. A. Keith, R. Kobayashi, J. Normand, 
 K. Raghavachari, A. P. Rendell, J. C. Burant, S. S. Iyengar, 
 J. Tomasi, M. Cossi, J. M. Millam, M. Klene, C. Adamo, R. Cammi, 
 J. W. Ochterski, R. L. Martin, K. Morokuma, O. Farkas, 
 J. B. Foresman, and D. J. Fox, Gaussian, Inc., Wallingford CT, 2019.
 
 ******************************************
 Gaussian 16:  ES64L-G16RevC.01  3-Jul-2019
                 2-May-2024 
 ******************************************
 %chk=geometry.chk
 %mem=1GB
 %nprocshared=12
 Will use up to   12 processors via shared memory.
 ----------------------------------------
 #P wB97XD/6-311+G* NoSymm #P Field=Z-184
 ----------------------------------------
 1/38=1,172=1/1;
 2/12=2,15=1,17=6,18=5,40=1/2;
 3/5=4,6=6,7=11,11=2,14=3,15=-184,25=1,30=1,74=-58/1,2,3;
 4//1;
 5/5=2,38=5/2;
 6/7=2,8=2,9=2,10=2,28=1/1;
 99/5=1,9=1/99;
 Leave Link    1 at Thu May  2 13:58:20 2024, MaxMem=   134217728 cpu:               3.0 elap:               3.0
 (Enter /software/gaussian/g16-c01/sse4/g16/l101.exe)
 -------
 TitleMe
 -------
 Symbolic Z-matrix:
 Charge =  1 Multiplicity = 1
 C                     0.5193    1.233    -0.0319 
 C                     1.9445    1.2692   -0.0367 
 C                     2.6204    0.0928   -0.025 
 C                    -0.196     0.0301    0.001 
 H                    -0.0207    2.1742   -0.0434 
 H                     2.4828    2.2089   -0.0361 
 H                    -1.2777    0.0399    0.0117 
 N                     4.0921    0.0959    0.0366 
 O                     4.6393   -1.0217    0.1446 
 O                     4.6649    1.1984   -0.0233 
 C                     0.4943   -1.1671    0.021 
 H                    -0.0325   -2.1149    0.0545 
 C                     1.9629   -1.2165   -0.0211 
 H                     2.4436   -1.9631    0.6151 
 Br                    2.173    -1.9491   -1.9062 
 
 ITRead=  0  0  0  0  0  0  0  0  0  0  0  0  0  0  0
 MicOpt= -1 -1 -1 -1 -1 -1 -1 -1 -1 -1 -1 -1 -1 -1 -1
 NAtoms=     15 NQM=       15 NQMF=       0 NMMI=      0 NMMIF=      0
                NMic=       0 NMicF=      0.
                    Isotopes and Nuclear Properties:
 (Nuclear quadrupole moments (NQMom) in fm**2, nuclear magnetic moments (NMagM)
  in nuclear magnetons)

  Atom         1           2           3           4           5           6           7           8           9          10
 IAtWgt=          12          12          12          12           1           1           1          14          16          16
 AtmWgt=  12.0000000  12.0000000  12.0000000  12.0000000   1.0078250   1.0078250   1.0078250  14.0030740  15.9949146  15.9949146
 NucSpn=           0           0           0           0           1           1           1           2           0           0
 AtZEff=  -0.0000000  -0.0000000  -0.0000000  -0.0000000  -0.0000000  -0.0000000  -0.0000000  -0.0000000  -0.0000000  -0.0000000
 NQMom=    0.0000000   0.0000000   0.0000000   0.0000000   0.0000000   0.0000000   0.0000000   2.0440000   0.0000000   0.0000000
 NMagM=    0.0000000   0.0000000   0.0000000   0.0000000   2.7928460   2.7928460   2.7928460   0.4037610   0.0000000   0.0000000
 AtZNuc=   6.0000000   6.0000000   6.0000000   6.0000000   1.0000000   1.0000000   1.0000000   7.0000000   8.0000000   8.0000000

  Atom        11          12          13          14          15
 IAtWgt=          12           1          12           1          79
 AtmWgt=  12.0000000   1.0078250  12.0000000   1.0078250  78.9183361
 NucSpn=           0           1           0           1           3
 AtZEff=  -0.0000000  -0.0000000  -0.0000000  -0.0000000  -0.0000000
 NQMom=    0.0000000   0.0000000   0.0000000   0.0000000  31.3000000
 NMagM=    0.0000000   2.7928460   0.0000000   2.7928460   2.1063990
 AtZNuc=   6.0000000   1.0000000   6.0000000   1.0000000  35.0000000
 Leave Link  101 at Thu May  2 13:58:22 2024, MaxMem=   134217728 cpu:               1.5 elap:               2.2
 (Enter /software/gaussian/g16-c01/sse4/g16/l202.exe)
                          Input orientation:                          
 ---------------------------------------------------------------------
 Center     Atomic      Atomic             Coordinates (Angstroms)
 Number     Number       Type             X           Y           Z
 ---------------------------------------------------------------------
      1          6           0        0.519300    1.233000   -0.031900
      2          6           0        1.944500    1.269200   -0.036700
      3          6           0        2.620400    0.092800   -0.025000
      4          6           0       -0.196000    0.030100    0.001000
      5          1           0       -0.020700    2.174200   -0.043400
      6          1           0        2.482800    2.208900   -0.036100
      7          1           0       -1.277700    0.039900    0.011700
      8          7           0        4.092100    0.095900    0.036600
      9          8           0        4.639300   -1.021700    0.144600
     10          8           0        4.664900    1.198400   -0.023300
     11          6           0        0.494300   -1.167100    0.021000
     12          1           0       -0.032500   -2.114900    0.054500
     13          6           0        1.962900   -1.216500   -0.021100
     14          1           0        2.443600   -1.963100    0.615100
     15         35           0        2.173000   -1.949100   -1.906200
 ---------------------------------------------------------------------
                    Distance matrix (angstroms):
                    1          2          3          4          5
     1  C    0.000000
     2  C    1.425668   0.000000
     3  C    2.390549   1.356796   0.000000
     4  C    1.399895   2.473566   2.817218   0.000000
     5  H    1.085168   2.163581   3.362733   2.151712   0.000000
     6  H    2.192654   1.082960   2.120598   3.453189   2.503751
     7  H    2.157452   3.449071   3.898632   1.081797   2.477564
     8  N    3.750012   2.448304   1.472992   4.288753   4.608780
     9  O    4.699917   3.541615   2.312322   4.950458   5.653735
    10  O    4.145753   2.721354   2.324292   4.999386   4.786171
    11  C    2.400813   2.835836   2.471794   1.382101   3.381369
    12  H    3.394169   3.920329   3.452266   2.151887   4.290233
    13  C    2.843264   2.485817   1.465124   2.493060   3.928360
    14  H    3.786370   3.334922   2.160489   3.364142   4.860416
    15  Br   4.046416   3.728900   2.812194   3.628609   5.028314
                    6          7          8          9         10
     6  H    0.000000
     7  H    4.341452   0.000000
     8  N    2.657047   5.370150   0.000000
     9  O    3.888434   6.012948   1.249048   0.000000
    10  O    2.404752   6.054572   1.243863   2.226587   0.000000
    11  C    3.918516   2.144043   3.813080   4.149391   4.794941
    12  H    5.003018   2.489080   4.679774   4.798846   5.748876
    13  C    3.464662   3.475788   2.501842   2.688591   3.623886
    14  H    4.222698   4.268978   2.700314   2.434893   3.916224
    15  Br   4.569706   4.420610   3.411663   3.338935   4.434144
                   11         12         13         14         15
    11  C    0.000000
    12  H    1.084880   0.000000
    13  C    1.470034   2.189625   0.000000
    14  H    2.187771   2.543302   1.092353   0.000000
    15  Br   2.672762   2.955683   2.033334   2.535818   0.000000
 Symmetry turned off by external request.
 Stoichiometry    C6H5BrNO2(1+)
 Framework group  C1[X(C6H5BrNO2)]
 Deg. of freedom    39
 Full point group                 C1      NOp   1
 Rotational constants (GHZ):           1.1632986           0.9594224           0.5957624
 Leave Link  202 at Thu May  2 13:58:23 2024, MaxMem=   134217728 cpu:               1.2 elap:               1.2
 (Enter /software/gaussian/g16-c01/sse4/g16/l301.exe)
 Standard basis: 6-311+G(d) (5D, 7F)
 Ernie: Thresh=  0.10000D-02 Tol=  0.10000D-05 Strict=F.
 The following finite field(s) will be applied:
 An electric field of              0.0000  0.0000 -0.0184
   261 basis functions,   443 primitive gaussians,   273 cartesian basis functions
    49 alpha electrons       49 beta electrons
       nuclear repulsion energy       772.8945969580 Hartrees.
 IExCor= 4639 DFT=T Ex+Corr=wB97XD ExCW=0 ScaHFX=  1.000000
 ScaDFX=  1.000000  1.000000  1.000000  1.000000 ScalE2=  1.000000  1.000000
 IRadAn=      5 IRanWt=     -1 IRanGd=            0 ICorTp=0 IEmpDi=121
 HFx  wShort=  0.000000 wLong=  0.200000 cFull=  0.222036 cShort=  0.000000 cLong=  0.777964
 DFx  wShort=  0.000000 wLong=  0.200000 cFull=  0.000000 cShort=  0.000000 cLong=  1.000000
 NAtoms=   15 NActive=   15 NUniq=   15 SFac= 1.00D+00 NAtFMM=   60 NAOKFM=F Big=F
 Integral buffers will be    131072 words long.
 Raffenetti 2 integral format.
 Two-electron integral symmetry is turned off.
 R6Disp:  Grimme-D2 Dispersion energy=       -0.0080346408 Hartrees.
 Nuclear repulsion after empirical dispersion term =      772.8865623173 Hartrees.
 Leave Link  301 at Thu May  2 13:58:24 2024, MaxMem=   134217728 cpu:               0.9 elap:               0.9
 (Enter /software/gaussian/g16-c01/sse4/g16/l302.exe)
 NPDir=0 NMtPBC=     1 NCelOv=     1 NCel=       1 NClECP=     1 NCelD=      1
         NCelK=      1 NCelE2=     1 NClLst=     1 CellRange=     0.0.
 One-electron integrals computed using PRISM.
 NBasis=   261 RedAO= T EigKep=  2.52D-06  NBF=   261
 NBsUse=   261 1.00D-06 EigRej= -1.00D+00 NBFU=   261
 Precomputing XC quadrature grid using
 IXCGrd= 4 IRadAn=           5 IRanWt=          -1 IRanGd=           0 AccXCQ= 0.00D+00.
 Generated NRdTot=       0 NPtTot=           0 NUsed=           0 NTot=          32
 NSgBfM=   273   273   273   273   273 MxSgAt=    15 MxSgA2=    15.
 Leave Link  302 at Thu May  2 13:58:46 2024, MaxMem=   134217728 cpu:              21.6 elap:              21.6
 (Enter /software/gaussian/g16-c01/sse4/g16/l303.exe)
 DipDrv:  MaxL=1.
 The nuclear repulsion energy is now       775.1621408856 hartrees.
 Leave Link  303 at Thu May  2 13:58:49 2024, MaxMem=   134217728 cpu:               3.4 elap:               3.4
 (Enter /software/gaussian/g16-c01/sse4/g16/l401.exe)
 ExpMin= 3.50D-02 ExpMax= 4.40D+05 ExpMxC= 1.51D+04 IAcc=3 IRadAn=         5 AccDes= 0.00D+00
 Harris functional with IExCor= 4639 and IRadAn=       5 diagonalized for initial guess.
 HarFok:  IExCor= 4639 AccDes= 0.00D+00 IRadAn=         5 IDoV= 1 UseB2=F ITyADJ=14
 ICtDFT=  3500011 ScaDFX=  1.000000  1.000000  1.000000  1.000000
 FoFCou: FMM=F IPFlag=           0 FMFlag=      100000 FMFlg1=           0
         NFxFlg=           0 DoJE=T BraDBF=F KetDBF=T FulRan=T
         wScrn=  0.000000 ICntrl=       500 IOpCl=  0 I1Cent=   200000004 NGrid=           0
         NMat0=    1 NMatS0=      1 NMatT0=    0 NMatD0=    1 NMtDS0=    0 NMtDT0=    0
 Symmetry not used in FoFCou.
 Harris En= -2970.63346360930    
 JPrj=0 DoOrth=F DoCkMO=F.
 Leave Link  401 at Thu May  2 13:59:21 2024, MaxMem=   134217728 cpu:              31.5 elap:              31.5
 (Enter /software/gaussian/g16-c01/sse4/g16/l502.exe)
 Two-electron integral symmetry not used.
 Closed shell SCF:
 Using DIIS extrapolation, IDIIS=  1040.
 NGot=   134217728 LenX=   134063053 LenY=   133988083
 Requested convergence on RMS density matrix=1.00D-08 within 128 cycles.
 Requested convergence on MAX density matrix=1.00D-06.
 Requested convergence on             energy=1.00D-06.
 No special actions if energy rises.
 Fock matrices will be formed incrementally for  20 cycles.

 Cycle   1  Pass 1  IDiag  1:
 FoFJK:  IHMeth= 1 ICntrl=       0 DoSepK=T KAlg= 0 I1Cent=           0 FoldK=F
 IRaf=         1 NMat=       1 IRICut=       1 DoRegI=T DoRafI=F ISym2E= 0 IDoP0=0 IntGTp=1.
 FoFCou: FMM=F IPFlag=           0 FMFlag=      100000 FMFlg1=           0
         NFxFlg=           0 DoJE=T BraDBF=F KetDBF=F FulRan=T
         wScrn=  0.000000 ICntrl=       500 IOpCl=  0 I1Cent=           0 NGrid=           0
         NMat0=    1 NMatS0=      1 NMatT0=    0 NMatD0=    1 NMtDS0=    0 NMtDT0=    0
 Symmetry not used in FoFCou.
 E= -3009.39681357492    
 DIIS: error= 2.91D-01 at cycle   1 NSaved=   1.
 NSaved= 1 IEnMin= 1 EnMin= -3009.39681357492     IErMin= 1 ErrMin= 2.91D-01
 ErrMax= 2.91D-01  0.00D+00 EMaxC= 1.00D-01 BMatC= 1.21D+01 BMatP= 1.21D+01
 IDIUse=3 WtCom= 0.00D+00 WtEn= 1.00D+00
 Coeff-Com:  0.100D+01
 Coeff-En:   0.100D+01
 Coeff:      0.100D+01
 Gap=     0.279 Goal=   None    Shift=    0.000
 GapD=    0.279 DampG=1.000 DampE=0.250 DampFc=0.2500 IDamp=-1.
 Damping current iteration by 2.50D-01
 RMSDP=3.62D-01 MaxDP=3.65D+01              OVMax= 6.59D-01

 Cycle   2  Pass 1  IDiag  1:
 RMSU=  1.49D-02    CP:  7.87D-01
 E= -3009.74500059368     Delta-E=       -0.348187018764 Rises=F Damp=T
 DIIS: error= 2.19D-01 at cycle   2 NSaved=   2.
 NSaved= 2 IEnMin= 2 EnMin= -3009.74500059368     IErMin= 2 ErrMin= 2.19D-01
 ErrMax= 2.19D-01  0.00D+00 EMaxC= 1.00D-01 BMatC= 5.47D+00 BMatP= 1.21D+01
 IDIUse=3 WtCom= 0.00D+00 WtEn= 1.00D+00
 Coeff-Com: -0.174D+01 0.274D+01
 Coeff-En:   0.000D+00 0.100D+01
 Coeff:      0.000D+00 0.100D+01
 Gap=     0.061 Goal=   None    Shift=    0.000
 RMSDP=2.74D-01 MaxDP=2.78D+01 DE=-3.48D-01 OVMax= 5.78D-01

 Cycle   3  Pass 1  IDiag  1:
 RMSU=  1.18D-02    CP:  1.37D-01  3.00D+00
 E= -3010.37463169367     Delta-E=       -0.629631099981 Rises=F Damp=F
 DIIS: error= 6.52D-02 at cycle   3 NSaved=   3.
 NSaved= 3 IEnMin= 3 EnMin= -3010.37463169367     IErMin= 3 ErrMin= 6.52D-02
 ErrMax= 6.52D-02  0.00D+00 EMaxC= 1.00D-01 BMatC= 7.13D-01 BMatP= 5.47D+00
 IDIUse=3 WtCom= 3.48D-01 WtEn= 6.52D-01
 Coeff-Com:  0.877D+00-0.101D+01 0.113D+01
 Coeff-En:   0.000D+00 0.000D+00 0.100D+01
 Coeff:      0.305D+00-0.350D+00 0.104D+01
 Gap=     0.268 Goal=   None    Shift=    0.000
 RMSDP=2.00D-02 MaxDP=1.11D+00 DE=-6.30D-01 OVMax= 8.41D-02

 Cycle   4  Pass 1  IDiag  1:
 RMSU=  1.78D-02    CP:  1.18D-01  2.84D+00  1.00D+00
 E= -3010.46065998182     Delta-E=       -0.086028288157 Rises=F Damp=F
 DIIS: error= 4.56D-02 at cycle   4 NSaved=   4.
 NSaved= 4 IEnMin= 4 EnMin= -3010.46065998182     IErMin= 4 ErrMin= 4.56D-02
 ErrMax= 4.56D-02  0.00D+00 EMaxC= 1.00D-01 BMatC= 3.30D-01 BMatP= 7.13D-01
 IDIUse=3 WtCom= 5.44D-01 WtEn= 4.56D-01
 Coeff-Com:  0.168D+00-0.207D+00 0.498D+00 0.541D+00
 Coeff-En:   0.000D+00 0.000D+00 0.274D+00 0.726D+00
 Coeff:      0.915D-01-0.113D+00 0.396D+00 0.625D+00
 Gap=     0.246 Goal=   None    Shift=    0.000
 RMSDP=6.98D-03 MaxDP=4.34D-01 DE=-8.60D-02 OVMax= 8.14D-02

 Cycle   5  Pass 1  IDiag  1:
 RMSU=  5.28D-03    CP:  1.20D-01  2.90D+00  1.02D+00  7.56D-01
 E= -3010.52600347001     Delta-E=       -0.065343488187 Rises=F Damp=F
 DIIS: error= 1.38D-02 at cycle   5 NSaved=   5.
 NSaved= 5 IEnMin= 5 EnMin= -3010.52600347001     IErMin= 5 ErrMin= 1.38D-02
 ErrMax= 1.38D-02  0.00D+00 EMaxC= 1.00D-01 BMatC= 1.90D-02 BMatP= 3.30D-01
 IDIUse=3 WtCom= 8.62D-01 WtEn= 1.38D-01
 Coeff-Com:  0.708D-01-0.878D-01 0.251D+00 0.354D+00 0.412D+00
 Coeff-En:   0.000D+00 0.000D+00 0.000D+00 0.145D-01 0.986D+00
 Coeff:      0.610D-01-0.756D-01 0.216D+00 0.307D+00 0.491D+00
 Gap=     0.258 Goal=   None    Shift=    0.000
 RMSDP=3.77D-03 MaxDP=4.42D-01 DE=-6.53D-02 OVMax= 5.72D-02

 Cycle   6  Pass 1  IDiag  1:
 RMSU=  1.84D-03    CP:  1.17D-01  2.74D+00  1.04D+00  8.46D-01  9.46D-01
 E= -3010.53478450572     Delta-E=       -0.008781035709 Rises=F Damp=F
 DIIS: error= 7.44D-03 at cycle   6 NSaved=   6.
 NSaved= 6 IEnMin= 6 EnMin= -3010.53478450572     IErMin= 6 ErrMin= 7.44D-03
 ErrMax= 7.44D-03  0.00D+00 EMaxC= 1.00D-01 BMatC= 3.84D-03 BMatP= 1.90D-02
 IDIUse=3 WtCom= 9.26D-01 WtEn= 7.44D-02
 Coeff-Com: -0.902D-02 0.121D-01 0.150D-01 0.744D-01 0.360D+00 0.547D+00
 Coeff-En:   0.000D+00 0.000D+00 0.000D+00 0.000D+00 0.215D+00 0.785D+00
 Coeff:     -0.835D-02 0.112D-01 0.139D-01 0.689D-01 0.349D+00 0.565D+00
 Gap=     0.246 Goal=   None    Shift=    0.000
 RMSDP=1.27D-03 MaxDP=7.65D-02 DE=-8.78D-03 OVMax= 2.41D-02

 Cycle   7  Pass 1  IDiag  1:
 RMSU=  5.47D-04    CP:  1.17D-01  2.75D+00  1.03D+00  8.41D-01  1.14D+00
                    CP:  8.80D-01
 E= -3010.53785319232     Delta-E=       -0.003068686604 Rises=F Damp=F
 DIIS: error= 1.43D-03 at cycle   7 NSaved=   7.
 NSaved= 7 IEnMin= 7 EnMin= -3010.53785319232     IErMin= 7 ErrMin= 1.43D-03
 ErrMax= 1.43D-03  0.00D+00 EMaxC= 1.00D-01 BMatC= 1.96D-04 BMatP= 3.84D-03
 IDIUse=3 WtCom= 9.86D-01 WtEn= 1.43D-02
 Coeff-Com: -0.209D-01 0.272D-01-0.250D-01-0.398D-02 0.127D+00 0.296D+00
 Coeff-Com:  0.600D+00
 Coeff-En:   0.000D+00 0.000D+00 0.000D+00 0.000D+00 0.000D+00 0.000D+00
 Coeff-En:   0.100D+01
 Coeff:     -0.206D-01 0.268D-01-0.247D-01-0.393D-02 0.125D+00 0.291D+00
 Coeff:      0.606D+00
 Gap=     0.243 Goal=   None    Shift=    0.000
 RMSDP=6.09D-04 MaxDP=4.16D-02 DE=-3.07D-03 OVMax= 1.17D-02

 Cycle   8  Pass 1  IDiag  1:
 RMSU=  1.75D-04    CP:  1.18D-01  2.75D+00  1.03D+00  8.55D-01  1.22D+00
                    CP:  1.01D+00  1.09D+00
 E= -3010.53818448725     Delta-E=       -0.000331294922 Rises=F Damp=F
 DIIS: error= 3.49D-04 at cycle   8 NSaved=   8.
 NSaved= 8 IEnMin= 8 EnMin= -3010.53818448725     IErMin= 8 ErrMin= 3.49D-04
 ErrMax= 3.49D-04  0.00D+00 EMaxC= 1.00D-01 BMatC= 3.36D-05 BMatP= 1.96D-04
 IDIUse=3 WtCom= 9.97D-01 WtEn= 3.49D-03
 Coeff-Com: -0.126D-01 0.167D-01-0.119D-01-0.983D-02-0.261D-01-0.959D-02
 Coeff-Com:  0.243D+00 0.810D+00
 Coeff-En:   0.000D+00 0.000D+00 0.000D+00 0.000D+00 0.000D+00 0.000D+00
 Coeff-En:   0.000D+00 0.100D+01
 Coeff:     -0.126D-01 0.166D-01-0.119D-01-0.980D-02-0.260D-01-0.956D-02
 Coeff:      0.242D+00 0.811D+00
 Gap=     0.245 Goal=   None    Shift=    0.000
 RMSDP=3.83D-04 MaxDP=3.69D-02 DE=-3.31D-04 OVMax= 1.14D-02

 Cycle   9  Pass 1  IDiag  1:
 RMSU=  1.61D-04    CP:  1.17D-01  2.74D+00  1.02D+00  8.67D-01  1.24D+00
                    CP:  1.08D+00  1.23D+00  1.19D+00
 E= -3010.53833107054     Delta-E=       -0.000146583290 Rises=F Damp=F
 DIIS: error= 2.11D-04 at cycle   9 NSaved=   9.
 NSaved= 9 IEnMin= 9 EnMin= -3010.53833107054     IErMin= 9 ErrMin= 2.11D-04
 ErrMax= 2.11D-04  0.00D+00 EMaxC= 1.00D-01 BMatC= 9.47D-06 BMatP= 3.36D-05
 IDIUse=3 WtCom= 9.98D-01 WtEn= 2.11D-03
 Coeff-Com: -0.327D-02 0.451D-02 0.996D-03 0.220D-04-0.441D-01-0.904D-01
 Coeff-Com: -0.962D-01 0.287D+00 0.941D+00
 Coeff-En:   0.000D+00 0.000D+00 0.000D+00 0.000D+00 0.000D+00 0.000D+00
 Coeff-En:   0.000D+00 0.000D+00 0.100D+01
 Coeff:     -0.326D-02 0.450D-02 0.994D-03 0.220D-04-0.440D-01-0.902D-01
 Coeff:     -0.960D-01 0.287D+00 0.941D+00
 Gap=     0.245 Goal=   None    Shift=    0.000
 RMSDP=2.93D-04 MaxDP=3.15D-02 DE=-1.47D-04 OVMax= 9.02D-03

 Cycle  10  Pass 1  IDiag  1:
 RMSU=  1.26D-04    CP:  1.17D-01  2.74D+00  1.02D+00  8.72D-01  1.24D+00
                    CP:  1.15D+00  1.37D+00  1.44D+00  1.89D+00
 E= -3010.53839496279     Delta-E=       -0.000063892257 Rises=F Damp=F
 DIIS: error= 9.66D-05 at cycle  10 NSaved=  10.
 NSaved=10 IEnMin=10 EnMin= -3010.53839496279     IErMin=10 ErrMin= 9.66D-05
 ErrMax= 9.66D-05  0.00D+00 EMaxC= 1.00D-01 BMatC= 1.80D-06 BMatP= 9.47D-06
 IDIUse=1 WtCom= 1.00D+00 WtEn= 0.00D+00
 Coeff-Com:  0.702D-03-0.868D-03 0.210D-02 0.235D-02-0.363D-02-0.210D-01
 Coeff-Com: -0.962D-01-0.163D+00 0.276D+00 0.100D+01
 Coeff:      0.702D-03-0.868D-03 0.210D-02 0.235D-02-0.363D-02-0.210D-01
 Coeff:     -0.962D-01-0.163D+00 0.276D+00 0.100D+01
 Gap=     0.246 Goal=   None    Shift=    0.000
 RMSDP=1.45D-04 MaxDP=1.42D-02 DE=-6.39D-05 OVMax= 5.63D-03

 Cycle  11  Pass 1  IDiag  1:
 RMSU=  2.62D-05    CP:  1.17D-01  2.73D+00  1.02D+00  8.75D-01  1.24D+00
                    CP:  1.18D+00  1.42D+00  1.57D+00  2.37D+00  1.28D+00
 E= -3010.53841074772     Delta-E=       -0.000015784924 Rises=F Damp=F
 DIIS: error= 5.34D-05 at cycle  11 NSaved=  11.
 NSaved=11 IEnMin=11 EnMin= -3010.53841074772     IErMin=11 ErrMin= 5.34D-05
 ErrMax= 5.34D-05  0.00D+00 EMaxC= 1.00D-01 BMatC= 4.31D-07 BMatP= 1.80D-06
 IDIUse=1 WtCom= 1.00D+00 WtEn= 0.00D+00
 Coeff-Com:  0.639D-03-0.868D-03 0.272D-03 0.739D-03 0.771D-02 0.107D-01
 Coeff-Com: -0.178D-01-0.123D+00-0.665D-01 0.422D+00 0.766D+00
 Coeff:      0.639D-03-0.868D-03 0.272D-03 0.739D-03 0.771D-02 0.107D-01
 Coeff:     -0.178D-01-0.123D+00-0.665D-01 0.422D+00 0.766D+00
 Gap=     0.245 Goal=   None    Shift=    0.000
 RMSDP=3.06D-05 MaxDP=2.32D-03 DE=-1.58D-05 OVMax= 1.57D-03

 Cycle  12  Pass 1  IDiag  1:
 RMSU=  1.35D-05    CP:  1.17D-01  2.73D+00  1.02D+00  8.76D-01  1.24D+00
                    CP:  1.18D+00  1.43D+00  1.62D+00  2.45D+00  1.35D+00
                    CP:  1.35D+00
 E= -3010.53841257763     Delta-E=       -0.000001829912 Rises=F Damp=F
 DIIS: error= 2.73D-05 at cycle  12 NSaved=  12.
 NSaved=12 IEnMin=12 EnMin= -3010.53841257763     IErMin=12 ErrMin= 2.73D-05
 ErrMax= 2.73D-05  0.00D+00 EMaxC= 1.00D-01 BMatC= 6.96D-08 BMatP= 4.31D-07
 IDIUse=1 WtCom= 1.00D+00 WtEn= 0.00D+00
 Coeff-Com:  0.272D-03-0.369D-03-0.474D-04-0.258D-03 0.787D-03 0.396D-02
 Coeff-Com:  0.154D-01 0.228D-01-0.662D-01-0.155D+00 0.128D+00 0.105D+01
 Coeff:      0.272D-03-0.369D-03-0.474D-04-0.258D-03 0.787D-03 0.396D-02
 Coeff:      0.154D-01 0.228D-01-0.662D-01-0.155D+00 0.128D+00 0.105D+01
 Gap=     0.245 Goal=   None    Shift=    0.000
 RMSDP=1.42D-05 MaxDP=6.97D-04 DE=-1.83D-06 OVMax= 7.05D-04

 Cycle  13  Pass 1  IDiag  1:
 RMSU=  5.35D-06    CP:  1.17D-01  2.73D+00  1.02D+00  8.76D-01  1.24D+00
                    CP:  1.18D+00  1.44D+00  1.62D+00  2.45D+00  1.39D+00
                    CP:  1.61D+00  1.37D+00
 E= -3010.53841300951     Delta-E=       -0.000000431884 Rises=F Damp=F
 DIIS: error= 1.19D-05 at cycle  13 NSaved=  13.
 NSaved=13 IEnMin=13 EnMin= -3010.53841300951     IErMin=13 ErrMin= 1.19D-05
 ErrMax= 1.19D-05  0.00D+00 EMaxC= 1.00D-01 BMatC= 1.79D-08 BMatP= 6.96D-08
 IDIUse=1 WtCom= 1.00D+00 WtEn= 0.00D+00
 Coeff-Com:  0.586D-04-0.769D-04-0.179D-04-0.283D-03-0.126D-02-0.603D-03
 Coeff-Com:  0.798D-02 0.316D-01-0.830D-02-0.125D+00-0.119D+00 0.316D+00
 Coeff-Com:  0.898D+00
 Coeff:      0.586D-04-0.769D-04-0.179D-04-0.283D-03-0.126D-02-0.603D-03
 Coeff:      0.798D-02 0.316D-01-0.830D-02-0.125D+00-0.119D+00 0.316D+00
 Coeff:      0.898D+00
 Gap=     0.245 Goal=   None    Shift=    0.000
 RMSDP=7.62D-06 MaxDP=3.49D-04 DE=-4.32D-07 OVMax= 2.47D-04

 Cycle  14  Pass 1  IDiag  1:
 RMSU=  2.64D-06    CP:  1.17D-01  2.73D+00  1.02D+00  8.76D-01  1.24D+00
                    CP:  1.18D+00  1.44D+00  1.63D+00  2.44D+00  1.39D+00
                    CP:  1.70D+00  1.59D+00  1.35D+00
 E= -3010.53841308335     Delta-E=       -0.000000073840 Rises=F Damp=F
 DIIS: error= 4.24D-06 at cycle  14 NSaved=  14.
 NSaved=14 IEnMin=14 EnMin= -3010.53841308335     IErMin=14 ErrMin= 4.24D-06
 ErrMax= 4.24D-06  0.00D+00 EMaxC= 1.00D-01 BMatC= 3.14D-09 BMatP= 1.79D-08
 IDIUse=1 WtCom= 1.00D+00 WtEn= 0.00D+00
 Coeff-Com:  0.581D-05-0.657D-05 0.297D-05-0.856D-04-0.603D-03-0.100D-02
 Coeff-Com: -0.710D-03 0.611D-02 0.975D-02-0.105D-01-0.619D-01-0.988D-01
 Coeff-Com:  0.313D+00 0.845D+00
 Coeff:      0.581D-05-0.657D-05 0.297D-05-0.856D-04-0.603D-03-0.100D-02
 Coeff:     -0.710D-03 0.611D-02 0.975D-02-0.105D-01-0.619D-01-0.988D-01
 Coeff:      0.313D+00 0.845D+00
 Gap=     0.245 Goal=   None    Shift=    0.000
 RMSDP=3.36D-06 MaxDP=2.35D-04 DE=-7.38D-08 OVMax= 9.02D-05

 Cycle  15  Pass 1  IDiag  1:
 RMSU=  1.01D-06    CP:  1.17D-01  2.73D+00  1.02D+00  8.76D-01  1.24D+00
                    CP:  1.18D+00  1.44D+00  1.63D+00  2.44D+00  1.40D+00
                    CP:  1.72D+00  1.61D+00  1.58D+00  1.24D+00
 E= -3010.53841309373     Delta-E=       -0.000000010380 Rises=F Damp=F
 DIIS: error= 1.48D-06 at cycle  15 NSaved=  15.
 NSaved=15 IEnMin=15 EnMin= -3010.53841309373     IErMin=15 ErrMin= 1.48D-06
 ErrMax= 1.48D-06  0.00D+00 EMaxC= 1.00D-01 BMatC= 2.86D-10 BMatP= 3.14D-09
 IDIUse=1 WtCom= 1.00D+00 WtEn= 0.00D+00
 Coeff-Com: -0.664D-05 0.845D-05-0.300D-05 0.251D-04 0.143D-03 0.708D-04
 Coeff-Com: -0.846D-03-0.303D-02 0.243D-02 0.124D-01 0.917D-02-0.631D-01
 Coeff-Com: -0.626D-01 0.154D+00 0.951D+00
 Coeff:     -0.664D-05 0.845D-05-0.300D-05 0.251D-04 0.143D-03 0.708D-04
 Coeff:     -0.846D-03-0.303D-02 0.243D-02 0.124D-01 0.917D-02-0.631D-01
 Coeff:     -0.626D-01 0.154D+00 0.951D+00
 Gap=     0.245 Goal=   None    Shift=    0.000
 RMSDP=1.29D-06 MaxDP=1.02D-04 DE=-1.04D-08 OVMax= 2.99D-05

 Cycle  16  Pass 1  IDiag  1:
 RMSU=  4.35D-07    CP:  1.17D-01  2.73D+00  1.02D+00  8.76D-01  1.24D+00
                    CP:  1.18D+00  1.44D+00  1.63D+00  2.44D+00  1.40D+00
                    CP:  1.71D+00  1.62D+00  1.65D+00  1.44D+00  1.15D+00
 E= -3010.53841309481     Delta-E=       -0.000000001076 Rises=F Damp=F
 DIIS: error= 3.90D-07 at cycle  16 NSaved=  16.
 NSaved=16 IEnMin=16 EnMin= -3010.53841309481     IErMin=16 ErrMin= 3.90D-07
 ErrMax= 3.90D-07  0.00D+00 EMaxC= 1.00D-01 BMatC= 4.35D-11 BMatP= 2.86D-10
 IDIUse=1 WtCom= 1.00D+00 WtEn= 0.00D+00
 Coeff-Com: -0.288D-05 0.369D-05 0.258D-06 0.188D-04 0.102D-03 0.115D-03
 Coeff-Com: -0.161D-03-0.149D-02-0.416D-03 0.348D-02 0.107D-01-0.572D-02
 Coeff-Com: -0.471D-01-0.566D-01 0.249D+00 0.848D+00
 Coeff:     -0.288D-05 0.369D-05 0.258D-06 0.188D-04 0.102D-03 0.115D-03
 Coeff:     -0.161D-03-0.149D-02-0.416D-03 0.348D-02 0.107D-01-0.572D-02
 Coeff:     -0.471D-01-0.566D-01 0.249D+00 0.848D+00
 Gap=     0.245 Goal=   None    Shift=    0.000
 RMSDP=4.31D-07 MaxDP=4.14D-05 DE=-1.08D-09 OVMax= 7.69D-06

 Cycle  17  Pass 1  IDiag  1:
 RMSU=  1.12D-07    CP:  1.17D-01  2.73D+00  1.02D+00  8.76D-01  1.24D+00
                    CP:  1.18D+00  1.44D+00  1.63D+00  2.44D+00  1.40D+00
                    CP:  1.71D+00  1.61D+00  1.66D+00  1.46D+00  1.26D+00
                    CP:  1.19D+00
 E= -3010.53841309493     Delta-E=       -0.000000000120 Rises=F Damp=F
 DIIS: error= 1.15D-07 at cycle  17 NSaved=  17.
 NSaved=17 IEnMin=17 EnMin= -3010.53841309493     IErMin=17 ErrMin= 1.15D-07
 ErrMax= 1.15D-07  0.00D+00 EMaxC= 1.00D-01 BMatC= 8.40D-12 BMatP= 4.35D-11
 IDIUse=1 WtCom= 1.00D+00 WtEn= 0.00D+00
 Coeff-Com: -0.737D-06 0.967D-06 0.285D-06 0.401D-05 0.233D-04 0.470D-04
 Coeff-Com:  0.863D-04-0.104D-03-0.478D-03-0.726D-03 0.318D-02 0.643D-02
 Coeff-Com: -0.721D-02-0.455D-01-0.541D-01 0.311D+00 0.788D+00
 Coeff:     -0.737D-06 0.967D-06 0.285D-06 0.401D-05 0.233D-04 0.470D-04
 Coeff:      0.863D-04-0.104D-03-0.478D-03-0.726D-03 0.318D-02 0.643D-02
 Coeff:     -0.721D-02-0.455D-01-0.541D-01 0.311D+00 0.788D+00
 Gap=     0.245 Goal=   None    Shift=    0.000
 RMSDP=1.58D-07 MaxDP=1.00D-05 DE=-1.20D-10 OVMax= 3.07D-06

 Cycle  18  Pass 1  IDiag  1:
 RMSU=  4.30D-08    CP:  1.17D-01  2.73D+00  1.02D+00  8.76D-01  1.24D+00
                    CP:  1.18D+00  1.44D+00  1.63D+00  2.44D+00  1.40D+00
                    CP:  1.71D+00  1.61D+00  1.66D+00  1.47D+00  1.29D+00
                    CP:  1.25D+00  1.16D+00
 E= -3010.53841309498     Delta-E=       -0.000000000055 Rises=F Damp=F
 DIIS: error= 6.84D-08 at cycle  18 NSaved=  18.
 NSaved=18 IEnMin=18 EnMin= -3010.53841309498     IErMin=18 ErrMin= 6.84D-08
 ErrMax= 6.84D-08  0.00D+00 EMaxC= 1.00D-01 BMatC= 5.63D-13 BMatP= 8.40D-12
 IDIUse=1 WtCom= 1.00D+00 WtEn= 0.00D+00
 Coeff-Com:  0.422D-06-0.558D-06-0.126D-06-0.177D-05-0.677D-05-0.177D-05
 Coeff-Com:  0.302D-04 0.150D-03-0.621D-04-0.598D-03-0.313D-03 0.191D-02
 Coeff-Com:  0.358D-02-0.389D-02-0.388D-01-0.253D-01 0.160D+00 0.903D+00
 Coeff:      0.422D-06-0.558D-06-0.126D-06-0.177D-05-0.677D-05-0.177D-05
 Coeff:      0.302D-04 0.150D-03-0.621D-04-0.598D-03-0.313D-03 0.191D-02
 Coeff:      0.358D-02-0.389D-02-0.388D-01-0.253D-01 0.160D+00 0.903D+00
 Gap=     0.245 Goal=   None    Shift=    0.000
 RMSDP=3.87D-08 MaxDP=3.46D-06 DE=-5.46D-11 OVMax= 1.10D-06

 Cycle  19  Pass 1  IDiag  1:
 RMSU=  1.44D-08    CP:  1.17D-01  2.73D+00  1.02D+00  8.76D-01  1.24D+00
                    CP:  1.18D+00  1.44D+00  1.63D+00  2.44D+00  1.40D+00
                    CP:  1.71D+00  1.61D+00  1.65D+00  1.47D+00  1.29D+00
                    CP:  1.28D+00  1.33D+00  1.11D+00
 E= -3010.53841309499     Delta-E=       -0.000000000005 Rises=F Damp=F
 DIIS: error= 1.81D-08 at cycle  19 NSaved=  19.
 NSaved=19 IEnMin=19 EnMin= -3010.53841309499     IErMin=19 ErrMin= 1.81D-08
 ErrMax= 1.81D-08  0.00D+00 EMaxC= 1.00D-01 BMatC= 1.23D-13 BMatP= 5.63D-13
 IDIUse=1 WtCom= 1.00D+00 WtEn= 0.00D+00
 Coeff-Com:  0.385D-06-0.521D-06-0.211D-06-0.123D-05-0.391D-05-0.442D-05
 Coeff-Com: -0.982D-06 0.453D-04 0.327D-04-0.825D-04-0.314D-03-0.212D-03
 Coeff-Com:  0.155D-02 0.343D-02-0.439D-02-0.344D-01-0.522D-01 0.253D+00
 Coeff-Com:  0.834D+00
 Coeff:      0.385D-06-0.521D-06-0.211D-06-0.123D-05-0.391D-05-0.442D-05
 Coeff:     -0.982D-06 0.453D-04 0.327D-04-0.825D-04-0.314D-03-0.212D-03
 Coeff:      0.155D-02 0.343D-02-0.439D-02-0.344D-01-0.522D-01 0.253D+00
 Coeff:      0.834D+00
 Gap=     0.245 Goal=   None    Shift=    0.000
 RMSDP=1.99D-08 MaxDP=1.87D-06 DE=-4.55D-12 OVMax= 4.86D-07

 Cycle  20  Pass 1  IDiag  1:
 RMSU=  5.15D-09    CP:  1.17D-01  2.73D+00  1.02D+00  8.76D-01  1.24D+00
                    CP:  1.18D+00  1.44D+00  1.63D+00  2.44D+00  1.40D+00
                    CP:  1.71D+00  1.61D+00  1.65D+00  1.47D+00  1.29D+00
                    CP:  1.29D+00  1.36D+00  1.21D+00  1.30D+00
 E= -3010.53841309501     Delta-E=       -0.000000000022 Rises=F Damp=F
 DIIS: error= 9.23D-09 at cycle  20 NSaved=  20.
 NSaved=20 IEnMin=20 EnMin= -3010.53841309501     IErMin=20 ErrMin= 9.23D-09
 ErrMax= 9.23D-09  0.00D+00 EMaxC= 1.00D-01 BMatC= 2.25D-14 BMatP= 1.23D-13
 IDIUse=1 WtCom= 1.00D+00 WtEn= 0.00D+00
 Coeff-Com:  0.564D-07-0.790D-07-0.497D-07 0.800D-08 0.568D-06-0.555D-06
 Coeff-Com: -0.537D-05-0.205D-04 0.255D-04 0.936D-04 0.291D-04-0.470D-03
 Coeff-Com: -0.499D-03 0.129D-02 0.714D-02 0.293D-02-0.508D-01-0.128D+00
 Coeff-Com:  0.109D+00 0.106D+01
 Coeff:      0.564D-07-0.790D-07-0.497D-07 0.800D-08 0.568D-06-0.555D-06
 Coeff:     -0.537D-05-0.205D-04 0.255D-04 0.936D-04 0.291D-04-0.470D-03
 Coeff:     -0.499D-03 0.129D-02 0.714D-02 0.293D-02-0.508D-01-0.128D+00
 Coeff:      0.109D+00 0.106D+01
 Gap=     0.245 Goal=   None    Shift=    0.000
 RMSDP=1.17D-08 MaxDP=9.11D-07 DE=-2.18D-11 OVMax= 3.99D-07

 Cycle  21  Pass 1  IDiag  1:
 Restarting incremental Fock formation.
 E= -3010.53841309502     Delta-E=       -0.000000000011 Rises=F Damp=F
 DIIS: error= 4.56D-09 at cycle  21 NSaved=  20.
 NSaved=20 IEnMin=20 EnMin= -3010.53841309502     IErMin=20 ErrMin= 4.56D-09
 ErrMax= 4.56D-09  0.00D+00 EMaxC= 1.00D-01 BMatC= 3.81D-15 BMatP= 2.25D-14
 IDIUse=1 WtCom= 1.00D+00 WtEn= 0.00D+00
 Large coefficients: NSaved= 20 BigCof=    0.00 CofMax=   10.00 Det=-5.92D-15
 Inversion failed.  Reducing to 19 matrices.
 Large coefficients: NSaved= 19 BigCof=    0.00 CofMax=   10.00 Det=-6.08D-15
 Inversion failed.  Reducing to 18 matrices.
 Large coefficients: NSaved= 18 BigCof=    0.00 CofMax=   10.00 Det=-6.20D-15
 Inversion failed.  Reducing to 17 matrices.
 Large coefficients: NSaved= 17 BigCof=    0.00 CofMax=   10.00 Det=-6.60D-15
 Inversion failed.  Reducing to 16 matrices.
 Large coefficients: NSaved= 16 BigCof=    0.00 CofMax=   10.00 Det=-7.17D-15
 Inversion failed.  Reducing to 15 matrices.
 Coeff-Com:  0.220D-06-0.310D-05-0.187D-05-0.144D-05 0.163D-04 0.341D-04
 Coeff-Com: -0.500D-04-0.216D-03-0.142D-03 0.443D-02 0.155D-02-0.179D-01
 Coeff-Com: -0.147D+00 0.616D-02 0.115D+01
 Coeff:      0.220D-06-0.310D-05-0.187D-05-0.144D-05 0.163D-04 0.341D-04
 Coeff:     -0.500D-04-0.216D-03-0.142D-03 0.443D-02 0.155D-02-0.179D-01
 Coeff:     -0.147D+00 0.616D-02 0.115D+01
 Gap=     0.245 Goal=   None    Shift=    0.000
 RMSDP=6.77D-09 MaxDP=5.91D-07 DE=-1.09D-11 OVMax= 2.00D-07

 SCF Done:  E(RwB97XD) =  -3010.53841310     A.U. after   21 cycles
            NFock= 21  Conv=0.68D-08     -V/T= 2.0016
 KE= 3.005860694765D+03 PE=-8.702279202353D+03 EE= 1.910717953607D+03
 Leave Link  502 at Thu May  2 14:20:36 2024, MaxMem=   134217728 cpu:            1275.0 elap:            1275.3
 (Enter /software/gaussian/g16-c01/sse4/g16/l601.exe)
 Copying SCF densities to generalized density rwf, IOpCl= 0 IROHF=0.

 **********************************************************************

            Population analysis using the SCF Density.

 **********************************************************************

 Alpha  occ. eigenvalues -- -483.34319 -62.89380 -56.69021 -56.68524 -56.68519
 Alpha  occ. eigenvalues --  -19.46742 -19.46685 -14.86183 -10.60281 -10.59816
 Alpha  occ. eigenvalues --  -10.58408 -10.58255 -10.54428 -10.53736  -9.05213
 Alpha  occ. eigenvalues --   -6.87748  -6.86099  -6.86086  -2.97686  -2.97245
 Alpha  occ. eigenvalues --   -2.97234  -2.95914  -2.95913  -1.50403  -1.33349
 Alpha  occ. eigenvalues --   -1.23713  -1.14557  -1.13547  -1.06994  -1.01500
 Alpha  occ. eigenvalues --   -0.96526  -0.91609  -0.85686  -0.81736  -0.81056
 Alpha  occ. eigenvalues --   -0.80734  -0.78872  -0.76874  -0.76576  -0.73680
 Alpha  occ. eigenvalues --   -0.69642  -0.68652  -0.65079  -0.62081  -0.59952
 Alpha  occ. eigenvalues --   -0.57994  -0.57643  -0.56475  -0.56162
 Alpha virt. eigenvalues --   -0.31636  -0.21236  -0.18672  -0.15586  -0.14039
 Alpha virt. eigenvalues --   -0.11949  -0.10516  -0.08635  -0.07460  -0.06494
 Alpha virt. eigenvalues --   -0.05143  -0.04619  -0.02720  -0.02034  -0.01640
 Alpha virt. eigenvalues --   -0.01417   0.00229   0.00484   0.02282   0.02394
 Alpha virt. eigenvalues --    0.04011   0.04674   0.05054   0.05423   0.06839
 Alpha virt. eigenvalues --    0.06972   0.07513   0.08081   0.08382   0.09292
 Alpha virt. eigenvalues --    0.09805   0.11039   0.11278   0.11942   0.12886
 Alpha virt. eigenvalues --    0.13040   0.13274   0.13884   0.14481   0.15790
 Alpha virt. eigenvalues --    0.16414   0.17203   0.17968   0.18587   0.19503
 Alpha virt. eigenvalues --    0.20285   0.20644   0.21569   0.22143   0.23535
 Alpha virt. eigenvalues --    0.23916   0.25815   0.26716   0.27967   0.28764
 Alpha virt. eigenvalues --    0.30626   0.32762   0.33624   0.33723   0.35217
 Alpha virt. eigenvalues --    0.36538   0.37478   0.38549   0.39347   0.40738
 Alpha virt. eigenvalues --    0.43107   0.43833   0.44617   0.46375   0.47008
 Alpha virt. eigenvalues --    0.47756   0.49327   0.49469   0.50529   0.52894
 Alpha virt. eigenvalues --    0.53951   0.55301   0.57257   0.57576   0.59302
 Alpha virt. eigenvalues --    0.60170   0.61406   0.63016   0.65449   0.67314
 Alpha virt. eigenvalues --    0.70581   0.70778   0.72307   0.73250   0.73800
 Alpha virt. eigenvalues --    0.74008   0.76828   0.79219   0.80786   0.84441
 Alpha virt. eigenvalues --    0.85740   0.87021   0.90811   0.93040   0.98124
 Alpha virt. eigenvalues --    0.99718   1.01526   1.03046   1.04726   1.06243
 Alpha virt. eigenvalues --    1.08015   1.12198   1.12898   1.13511   1.17251
 Alpha virt. eigenvalues --    1.20602   1.22357   1.27321   1.32522   1.35466
 Alpha virt. eigenvalues --    1.36046   1.38125   1.41868   1.53876   1.55915
 Alpha virt. eigenvalues --    1.56619   1.59142   1.60407   1.63169   1.64689
 Alpha virt. eigenvalues --    1.67441   1.70447   1.73395   1.74463   1.78521
 Alpha virt. eigenvalues --    1.83124   1.84486   1.86396   1.91445   1.93523
 Alpha virt. eigenvalues --    1.96999   2.01003   2.02068   2.06107   2.07370
 Alpha virt. eigenvalues --    2.11504   2.13568   2.21548   2.23060   2.26659
 Alpha virt. eigenvalues --    2.32728   2.39253   2.40922   2.43688   2.52390
 Alpha virt. eigenvalues --    2.57328   2.62361   2.65080   2.67903   2.71253
 Alpha virt. eigenvalues --    2.73078   2.75856   2.76738   2.79968   2.81093
 Alpha virt. eigenvalues --    2.92126   2.97335   3.00675   3.04818   3.08045
 Alpha virt. eigenvalues --    3.13997   3.15544   3.16786   3.21958   3.26057
 Alpha virt. eigenvalues --    3.27088   3.37286   3.45726   3.49417   3.54139
 Alpha virt. eigenvalues --    3.56826   3.68412   3.73742   3.82701   3.86366
 Alpha virt. eigenvalues --    4.06635   4.07449   4.16374   4.20391   4.40346
 Alpha virt. eigenvalues --    4.44622   4.53635   4.59216   4.93126   4.96000
 Alpha virt. eigenvalues --    5.04809   5.09323   5.61528   6.14727   6.64748
 Alpha virt. eigenvalues --    7.45412   7.47793   7.58054  23.21114  23.60343
 Alpha virt. eigenvalues --   23.70336  23.76919  23.94753  24.01180  35.30981
 Alpha virt. eigenvalues --   47.90946  49.84752  49.93416 289.78619 289.80963
 Alpha virt. eigenvalues --  289.936221020.92182
          Condensed to atoms (all electrons):
               1          2          3          4          5          6
     1  C    8.274913  -3.124932   1.267170  -0.245426   0.307038   0.046943
     2  C   -3.124932  18.377893  -5.953729   0.726232  -0.034911   0.180416
     3  C    1.267170  -5.953729  19.803697  -1.635292   0.047535   0.130375
     4  C   -0.245426   0.726232  -1.635292   6.579370   0.004819  -0.017341
     5  H    0.307038  -0.034911   0.047535   0.004819   0.326111  -0.001507
     6  H    0.046943   0.180416   0.130375  -0.017341  -0.001507   0.307441
     7  H    0.018759  -0.021700   0.025538   0.317119  -0.002693  -0.000005
     8  N   -0.128863   0.529072  -1.672721   0.023066  -0.000812  -0.030930
     9  O   -0.046616   0.119328  -0.404279  -0.006635  -0.000043  -0.002328
    10  O    0.277531  -0.438853  -0.003343  -0.035213   0.000076   0.021835
    11  C    0.982490  -1.491297   2.253784  -0.383895  -0.022173   0.009987
    12  H   -0.009967   0.010683   0.016261   0.002657   0.000007  -0.000017
    13  C   -1.503485  -2.901819  -7.529713   0.939606   0.025528  -0.000705
    14  H   -0.005349   0.014981   0.020438   0.007684  -0.000020   0.000011
    15  Br  -0.047780  -0.096255  -0.268992   0.079091  -0.000203  -0.000546
               7          8          9         10         11         12
     1  C    0.018759  -0.128863  -0.046616   0.277531   0.982490  -0.009967
     2  C   -0.021700   0.529072   0.119328  -0.438853  -1.491297   0.010683
     3  C    0.025538  -1.672721  -0.404279  -0.003343   2.253784   0.016261
     4  C    0.317119   0.023066  -0.006635  -0.035213  -0.383895   0.002657
     5  H   -0.002693  -0.000812  -0.000043   0.000076  -0.022173   0.000007
     6  H   -0.000005  -0.030930  -0.002328   0.021835   0.009987  -0.000017
     7  H    0.331015  -0.000007   0.000015  -0.000014   0.029690  -0.002114
     8  N   -0.000007   7.657424   0.144282   0.081593  -0.270639   0.000132
     9  O    0.000015   0.144282   7.814756   0.010192   0.221824   0.000084
    10  O   -0.000014   0.081593   0.010192   7.878794   0.036925  -0.000001
    11  C    0.029690  -0.270639   0.221824   0.036925   8.463382   0.327721
    12  H   -0.002114   0.000132   0.000084  -0.000001   0.327721   0.310225
    13  C   -0.034105   0.772434   0.093100   0.100008  -3.969895  -0.013483
    14  H    0.000005  -0.016293   0.002622  -0.001877  -0.018396  -0.002840
    15  Br  -0.000440   0.117915  -0.037813  -0.002395  -0.021242  -0.004106
              13         14         15
     1  C   -1.503485  -0.005349  -0.047780
     2  C   -2.901819   0.014981  -0.096255
     3  C   -7.529713   0.020438  -0.268992
     4  C    0.939606   0.007684   0.079091
     5  H    0.025528  -0.000020  -0.000203
     6  H   -0.000705   0.000011  -0.000546
     7  H   -0.034105   0.000005  -0.000440
     8  N    0.772434  -0.016293   0.117915
     9  O    0.093100   0.002622  -0.037813
    10  O    0.100008  -0.001877  -0.002395
    11  C   -3.969895  -0.018396  -0.021242
    12  H   -0.013483  -0.002840  -0.004106
    13  C   19.663651   0.299955   0.342971
    14  H    0.299955   0.252087  -0.023383
    15  Br   0.342971  -0.023383  34.963037
 Mulliken charges:
               1
     1  C   -0.062427
     2  C    0.104891
     3  C   -0.096729
     4  C   -0.355844
     5  H    0.351248
     6  H    0.356371
     7  H    0.338937
     8  N   -0.205654
     9  O    0.091509
    10  O    0.074740
    11  C   -0.148265
    12  H    0.364758
    13  C   -0.284049
    14  H    0.470374
    15  Br   0.000139
 Sum of Mulliken charges =   1.00000
 Mulliken charges with hydrogens summed into heavy atoms:
               1
     1  C    0.288821
     2  C    0.461262
     3  C   -0.096729
     4  C   -0.016906
     8  N   -0.205654
     9  O    0.091509
    10  O    0.074740
    11  C    0.216493
    13  C    0.186325
    15  Br   0.000139
 Electronic spatial extent (au):  <R**2>=           3950.3443
 Charge=              1.0000 electrons
 Dipole moment (field-independent basis, Debye):
    X=              2.5377    Y=             -0.1873    Z=              2.5532  Tot=              3.6047
 Quadrupole moment (field-independent basis, Debye-Ang):
   XX=            -67.7872   YY=            -52.3248   ZZ=            -66.7201
   XY=             -1.5452   XZ=              4.2457   YZ=             -0.7774
 Traceless Quadrupole moment (field-independent basis, Debye-Ang):
   XX=             -5.5098   YY=              9.9526   ZZ=             -4.4427
   XY=             -1.5452   XZ=              4.2457   YZ=             -0.7774
 Octapole moment (field-independent basis, Debye-Ang**2):
  XXX=           -510.4925  YYY=             97.7378  ZZZ=            100.9456  XYY=           -139.8368
  XXY=             27.5177  XXZ=             46.6567  XZZ=           -142.5138  YZZ=             26.3405
  YYZ=             36.5219  XYZ=              0.7927
 Hexadecapole moment (field-independent basis, Debye-Ang**3):
 XXXX=          -3426.2502 YYYY=           -715.7084 ZZZZ=           -442.3155 XXXY=            185.5923
 XXXZ=            257.3224 YYYX=            197.4768 YYYZ=           -193.0322 ZZZX=            205.5586
 ZZZY=           -173.1848 XXYY=           -631.6741 XXZZ=           -551.3071 YYZZ=           -193.5035
 XXYZ=            -59.5694 YYXZ=             72.6909 ZZXY=             48.9459
 N-N= 7.751621408856D+02 E-N=-8.702279202710D+03  KE= 3.005860694765D+03
 No NMR shielding tensors so no spin-rotation constants.
 Leave Link  601 at Thu May  2 14:20:43 2024, MaxMem=   134217728 cpu:               7.1 elap:               7.1
 (Enter /software/gaussian/g16-c01/sse4/g16/l9999.exe)
 Unable to Open any file for archive entry.
 1\1\GINC-BHX0015\SP\RwB97XD\6-311+G(d)\C6H5Br1N1O2(1+)\BWEIGHT\02-May-
 2024\0\\#P wB97XD/6-311+G* NoSymm #P Field=Z-184\\TitleMe\\1,1\C,0,0.5
 193,1.233,-0.0319\C,0,1.9445,1.2692,-0.0367\C,0,2.6204,0.0928,-0.025\C
 ,0,-0.196,0.0301,0.001\H,0,-0.0207,2.1742,-0.0434\H,0,2.4828,2.2089,-0
 .0361\H,0,-1.2777,0.0399,0.0117\N,0,4.0921,0.0959,0.0366\O,0,4.6393,-1
 .0217,0.1446\O,0,4.6649,1.1984,-0.0233\C,0,0.4943,-1.1671,0.021\H,0,-0
 .0325,-2.1149,0.0545\C,0,1.9629,-1.2165,-0.0211\H,0,2.4436,-1.9631,0.6
 151\Br,0,2.173,-1.9491,-1.9062\\Version=ES64L-G16RevC.01\HF=-3010.5384
 131\RMSD=6.774e-09\Dipole=-3.3308012,1.1544393,2.2537196\Quadrupole=-4
 .0964233,7.3994786,-3.3030554,-1.1488128,3.156598,-0.577986\PG=C01 [X(
 C6H5Br1N1O2)]\\@
 The archive entry for this job was punched.


 A BIRD IN THE HAND IS SAFER THAN ONE OVERHEAD.

                       -- NEWTON'S SEVENTH LAW
 Job cpu time:       0 days  0 hours 22 minutes 26.1 seconds.
 Elapsed time:       0 days  0 hours 22 minutes 27.0 seconds.
 File lengths (MBytes):  RWF=     40 Int=      0 D2E=      0 Chk=     32 Scr=      1
 Normal termination of Gaussian 16 at Thu May  2 14:20:44 2024.
