 Entering Gaussian System, Link 0=g16
 Initial command:
 /software/gaussian/g16-c01/sse4/g16/l1.exe "/local_scratch/24657515/Gau-31040.inp" -scrdir="/local_scratch/24657515/"
 Entering Link 1 = /software/gaussian/g16-c01/sse4/g16/l1.exe PID=     31041.
  
 Copyright (c) 1988-2019, Gaussian, Inc.  All Rights Reserved.
  
 This is part of the Gaussian(R) 16 program.  It is based on
 the Gaussian(R) 09 system (copyright 2009, Gaussian, Inc.),
 the Gaussian(R) 03 system (copyright 2003, Gaussian, Inc.),
 the Gaussian(R) 98 system (copyright 1998, Gaussian, Inc.),
 the Gaussian(R) 94 system (copyright 1995, Gaussian, Inc.),
 the Gaussian 92(TM) system (copyright 1992, Gaussian, Inc.),
 the Gaussian 90(TM) system (copyright 1990, Gaussian, Inc.),
 the Gaussian 88(TM) system (copyright 1988, Gaussian, Inc.),
 the Gaussian 86(TM) system (copyright 1986, Carnegie Mellon
 University), and the Gaussian 82(TM) system (copyright 1983,
 Carnegie Mellon University). Gaussian is a federally registered
 trademark of Gaussian, Inc.
  
 This software contains proprietary and confidential information,
 including trade secrets, belonging to Gaussian, Inc.
  
 This software is provided under written license and may be
 used, copied, transmitted, or stored only in accord with that
 written license.
  
 The following legend is applicable only to US Government
 contracts under FAR:
  
                    RESTRICTED RIGHTS LEGEND
  
 Use, reproduction and disclosure by the US Government is
 subject to restrictions as set forth in subparagraphs (a)
 and (c) of the Commercial Computer Software - Restricted
 Rights clause in FAR 52.227-19.
  
 Gaussian, Inc.
 340 Quinnipiac St., Bldg. 40, Wallingford CT 06492
  
  
 ---------------------------------------------------------------
 Warning -- This program may not be used in any manner that
 competes with the business of Gaussian, Inc. or will provide
 assistance to any competitor of Gaussian, Inc.  The licensee
 of this program is prohibited from giving any competitor of
 Gaussian, Inc. access to this program.  By using this program,
 the user acknowledges that Gaussian, Inc. is engaged in the
 business of creating and licensing software in the field of
 computational chemistry and represents and warrants to the
 licensee that it is not a competitor of Gaussian, Inc. and that
 it will not use this program in any manner prohibited above.
 ---------------------------------------------------------------
  

 Cite this work as:
 Gaussian 16, Revision C.01,
 M. J. Frisch, G. W. Trucks, H. B. Schlegel, G. E. Scuseria, 
 M. A. Robb, J. R. Cheeseman, G. Scalmani, V. Barone, 
 G. A. Petersson, H. Nakatsuji, X. Li, M. Caricato, A. V. Marenich, 
 J. Bloino, B. G. Janesko, R. Gomperts, B. Mennucci, H. P. Hratchian, 
 J. V. Ortiz, A. F. Izmaylov, J. L. Sonnenberg, D. Williams-Young, 
 F. Ding, F. Lipparini, F. Egidi, J. Goings, B. Peng, A. Petrone, 
 T. Henderson, D. Ranasinghe, V. G. Zakrzewski, J. Gao, N. Rega, 
 G. Zheng, W. Liang, M. Hada, M. Ehara, K. Toyota, R. Fukuda, 
 J. Hasegawa, M. Ishida, T. Nakajima, Y. Honda, O. Kitao, H. Nakai, 
 T. Vreven, K. Throssell, J. A. Montgomery, Jr., J. E. Peralta, 
 F. Ogliaro, M. J. Bearpark, J. J. Heyd, E. N. Brothers, K. N. Kudin, 
 V. N. Staroverov, T. A. Keith, R. Kobayashi, J. Normand, 
 K. Raghavachari, A. P. Rendell, J. C. Burant, S. S. Iyengar, 
 J. Tomasi, M. Cossi, J. M. Millam, M. Klene, C. Adamo, R. Cammi, 
 J. W. Ochterski, R. L. Martin, K. Morokuma, O. Farkas, 
 J. B. Foresman, and D. J. Fox, Gaussian, Inc., Wallingford CT, 2019.
 
 ******************************************
 Gaussian 16:  ES64L-G16RevC.01  3-Jul-2019
                 1-May-2024 
 ******************************************
 %chk=geometry.chk
 %mem=9GB
 %nprocshared=12
 Will use up to   12 processors via shared memory.
 ----------------------------------------
 #P wB97XD/6-311+G* NoSymm #P Field=Y+136
 ----------------------------------------
 1/38=1,172=1/1;
 2/12=2,15=1,17=6,18=5,40=1/2;
 3/5=4,6=6,7=11,11=2,14=2,15=136,25=1,30=1,74=-58/1,2,3;
 4//1;
 5/5=2,38=5/2;
 6/7=2,8=2,9=2,10=2,28=1/1;
 99/5=1,9=1/99;
 Leave Link    1 at Wed May  1 14:49:54 2024, MaxMem=  1207959552 cpu:               1.3 elap:               1.3
 (Enter /software/gaussian/g16-c01/sse4/g16/l101.exe)
 -------
 TitleMe
 -------
 Symbolic Z-matrix:
 Charge =  1 Multiplicity = 1
 C                     0.0295    1.3397    0.0682 
 C                     1.4348    1.2867    0.0064 
 C                     2.1118    0.0511   -0.0054 
 C                     1.4451   -1.1372    0.0312 
 C                    -0.6879    0.1682    0.11 
 H                    -0.4713    2.2984    0.0781 
 H                     2.0273    2.1965   -0.0322 
 H                     1.9897   -2.0764    0.0232 
 H                    -1.7716    0.1804    0.1582 
 N                     3.5864    0.051    -0.0675 
 O                     4.1471   -1.0597   -0.0881 
 O                     4.145     1.1639   -0.0901 
 C                    -0.0236   -1.1458    0.0835 
 H                    -0.4367   -1.8725    0.7889 
 Br                   -0.5359   -1.8697   -1.7408 
 
 ITRead=  0  0  0  0  0  0  0  0  0  0  0  0  0  0  0
 MicOpt= -1 -1 -1 -1 -1 -1 -1 -1 -1 -1 -1 -1 -1 -1 -1
 NAtoms=     15 NQM=       15 NQMF=       0 NMMI=      0 NMMIF=      0
                NMic=       0 NMicF=      0.
                    Isotopes and Nuclear Properties:
 (Nuclear quadrupole moments (NQMom) in fm**2, nuclear magnetic moments (NMagM)
  in nuclear magnetons)

  Atom         1           2           3           4           5           6           7           8           9          10
 IAtWgt=          12          12          12          12          12           1           1           1           1          14
 AtmWgt=  12.0000000  12.0000000  12.0000000  12.0000000  12.0000000   1.0078250   1.0078250   1.0078250   1.0078250  14.0030740
 NucSpn=           0           0           0           0           0           1           1           1           1           2
 AtZEff=  -0.0000000  -0.0000000  -0.0000000  -0.0000000  -0.0000000  -0.0000000  -0.0000000  -0.0000000  -0.0000000  -0.0000000
 NQMom=    0.0000000   0.0000000   0.0000000   0.0000000   0.0000000   0.0000000   0.0000000   0.0000000   0.0000000   2.0440000
 NMagM=    0.0000000   0.0000000   0.0000000   0.0000000   0.0000000   2.7928460   2.7928460   2.7928460   2.7928460   0.4037610
 AtZNuc=   6.0000000   6.0000000   6.0000000   6.0000000   6.0000000   1.0000000   1.0000000   1.0000000   1.0000000   7.0000000

  Atom        11          12          13          14          15
 IAtWgt=          16          16          12           1          79
 AtmWgt=  15.9949146  15.9949146  12.0000000   1.0078250  78.9183361
 NucSpn=           0           0           0           1           3
 AtZEff=  -0.0000000  -0.0000000  -0.0000000  -0.0000000  -0.0000000
 NQMom=    0.0000000   0.0000000   0.0000000   0.0000000  31.3000000
 NMagM=    0.0000000   0.0000000   0.0000000   2.7928460   2.1063990
 AtZNuc=   8.0000000   8.0000000   6.0000000   1.0000000  35.0000000
 Leave Link  101 at Wed May  1 14:49:55 2024, MaxMem=  1207959552 cpu:               1.3 elap:               1.3
 (Enter /software/gaussian/g16-c01/sse4/g16/l202.exe)
                          Input orientation:                          
 ---------------------------------------------------------------------
 Center     Atomic      Atomic             Coordinates (Angstroms)
 Number     Number       Type             X           Y           Z
 ---------------------------------------------------------------------
      1          6           0        0.029500    1.339700    0.068200
      2          6           0        1.434800    1.286700    0.006400
      3          6           0        2.111800    0.051100   -0.005400
      4          6           0        1.445100   -1.137200    0.031200
      5          6           0       -0.687900    0.168200    0.110000
      6          1           0       -0.471300    2.298400    0.078100
      7          1           0        2.027300    2.196500   -0.032200
      8          1           0        1.989700   -2.076400    0.023200
      9          1           0       -1.771600    0.180400    0.158200
     10          7           0        3.586400    0.051000   -0.067500
     11          8           0        4.147100   -1.059700   -0.088100
     12          8           0        4.145000    1.163900   -0.090100
     13          6           0       -0.023600   -1.145800    0.083500
     14          1           0       -0.436700   -1.872500    0.788900
     15         35           0       -0.535900   -1.869700   -1.740800
 ---------------------------------------------------------------------
                    Distance matrix (angstroms):
                    1          2          3          4          5
     1  C    0.000000
     2  C    1.407656   0.000000
     3  C    2.449874   1.408963   0.000000
     4  C    2.853126   2.424049   1.363043   0.000000
     5  C    1.374344   2.401589   2.804523   2.501993   0.000000
     6  H    1.081667   2.159142   3.424870   3.934226   2.141421
     7  H    2.176095   1.086408   2.147231   3.384750   3.392128
     8  H    3.938800   3.408612   2.131193   1.085702   3.495040
     9  H    2.143837   3.395283   3.888995   3.478413   1.084840
    10  N    3.785591   2.482297   1.475907   2.450862   4.279589
    11  O    4.768247   3.587631   2.320164   2.705743   4.992415
    12  O    4.122294   2.714696   2.319353   3.549540   4.938459
    13  C    2.486114   2.837240   2.449573   1.469656   1.472614
    14  H    3.324903   3.754379   3.290289   2.157764   2.165286
    15  Br   3.727252   4.110867   3.702891   2.756973   2.757100
                    6          7          8          9         10
     6  H    0.000000
     7  H    2.503108   0.000000
     8  H    5.019802   4.273425   0.000000
     9  H    2.486588   4.304945   4.388479   0.000000
    10  N    4.640790   2.652397   2.661486   5.364313   0.000000
    11  O    5.712624   3.885809   2.387560   6.052233   1.244373
    12  O    4.756638   2.356750   3.893289   6.002923   1.245428
    13  C    3.473180   3.923079   2.218790   2.195425   3.806210
    14  H    4.231175   4.827242   2.552506   2.528663   4.540772
    15  Br   4.548146   5.101303   3.087568   3.055498   4.845862
                   11         12         13         14         15
    11  O    0.000000
    12  O    2.223602   0.000000
    13  C    4.175117   4.768865   0.000000
    14  H    4.737193   5.566358   1.093770   0.000000
    15  Br   5.031700   5.817075   2.028436   2.531646   0.000000
 Symmetry turned off by external request.
 Stoichiometry    C6H5BrNO2(1+)
 Framework group  C1[X(C6H5BrNO2)]
 Deg. of freedom    39
 Full point group                 C1      NOp   1
 Rotational constants (GHZ):           1.8252210           0.5518633           0.4576002
 Leave Link  202 at Wed May  1 14:49:56 2024, MaxMem=  1207959552 cpu:               1.1 elap:               1.1
 (Enter /software/gaussian/g16-c01/sse4/g16/l301.exe)
 Standard basis: 6-311+G(d) (5D, 7F)
 Ernie: Thresh=  0.10000D-02 Tol=  0.10000D-05 Strict=F.
 The following finite field(s) will be applied:
 An electric field of              0.0000  0.0136  0.0000
   261 basis functions,   443 primitive gaussians,   273 cartesian basis functions
    49 alpha electrons       49 beta electrons
       nuclear repulsion energy       739.2122215416 Hartrees.
 IExCor= 4639 DFT=T Ex+Corr=wB97XD ExCW=0 ScaHFX=  1.000000
 ScaDFX=  1.000000  1.000000  1.000000  1.000000 ScalE2=  1.000000  1.000000
 IRadAn=      5 IRanWt=     -1 IRanGd=            0 ICorTp=0 IEmpDi=121
 HFx  wShort=  0.000000 wLong=  0.200000 cFull=  0.222036 cShort=  0.000000 cLong=  0.777964
 DFx  wShort=  0.000000 wLong=  0.200000 cFull=  0.000000 cShort=  0.000000 cLong=  1.000000
 NAtoms=   15 NActive=   15 NUniq=   15 SFac= 1.00D+00 NAtFMM=   60 NAOKFM=F Big=F
 Integral buffers will be    131072 words long.
 Raffenetti 2 integral format.
 Two-electron integral symmetry is turned off.
 R6Disp:  Grimme-D2 Dispersion energy=       -0.0077368520 Hartrees.
 Nuclear repulsion after empirical dispersion term =      739.2044846896 Hartrees.
 Leave Link  301 at Wed May  1 14:49:57 2024, MaxMem=  1207959552 cpu:               1.0 elap:               1.0
 (Enter /software/gaussian/g16-c01/sse4/g16/l302.exe)
 NPDir=0 NMtPBC=     1 NCelOv=     1 NCel=       1 NClECP=     1 NCelD=      1
         NCelK=      1 NCelE2=     1 NClLst=     1 CellRange=     0.0.
 One-electron integrals computed using PRISM.
 NBasis=   261 RedAO= T EigKep=  2.35D-06  NBF=   261
 NBsUse=   261 1.00D-06 EigRej= -1.00D+00 NBFU=   261
 Precomputing XC quadrature grid using
 IXCGrd= 4 IRadAn=           5 IRanWt=          -1 IRanGd=           0 AccXCQ= 0.00D+00.
 Generated NRdTot=       0 NPtTot=           0 NUsed=           0 NTot=          32
 NSgBfM=   273   273   273   273   273 MxSgAt=    15 MxSgA2=    15.
 Leave Link  302 at Wed May  1 14:50:18 2024, MaxMem=  1207959552 cpu:              21.0 elap:              21.0
 (Enter /software/gaussian/g16-c01/sse4/g16/l303.exe)
 DipDrv:  MaxL=1.
 The nuclear repulsion energy is now       737.6587082216 hartrees.
 Leave Link  303 at Wed May  1 14:50:21 2024, MaxMem=  1207959552 cpu:               3.1 elap:               3.1
 (Enter /software/gaussian/g16-c01/sse4/g16/l401.exe)
 ExpMin= 3.50D-02 ExpMax= 4.40D+05 ExpMxC= 1.51D+04 IAcc=3 IRadAn=         5 AccDes= 0.00D+00
 Harris functional with IExCor= 4639 and IRadAn=       5 diagonalized for initial guess.
 HarFok:  IExCor= 4639 AccDes= 0.00D+00 IRadAn=         5 IDoV= 1 UseB2=F ITyADJ=14
 ICtDFT=  3500011 ScaDFX=  1.000000  1.000000  1.000000  1.000000
 FoFCou: FMM=F IPFlag=           0 FMFlag=      100000 FMFlg1=           0
         NFxFlg=           0 DoJE=T BraDBF=F KetDBF=T FulRan=T
         wScrn=  0.000000 ICntrl=       500 IOpCl=  0 I1Cent=   200000004 NGrid=           0
         NMat0=    1 NMatS0=      1 NMatT0=    0 NMatD0=    1 NMtDS0=    0 NMtDT0=    0
 Symmetry not used in FoFCou.
 Harris En= -2970.62867057600    
 JPrj=0 DoOrth=F DoCkMO=F.
 Leave Link  401 at Wed May  1 14:50:51 2024, MaxMem=  1207959552 cpu:              29.4 elap:              29.4
 (Enter /software/gaussian/g16-c01/sse4/g16/l502.exe)
 Two-electron integral symmetry not used.
 Closed shell SCF:
 Using DIIS extrapolation, IDIIS=  1040.
 NGot=  1207959552 LenX=  1207804877 LenY=  1207729907
 Requested convergence on RMS density matrix=1.00D-08 within 128 cycles.
 Requested convergence on MAX density matrix=1.00D-06.
 Requested convergence on             energy=1.00D-06.
 No special actions if energy rises.
 Fock matrices will be formed incrementally for  20 cycles.

 Cycle   1  Pass 1  IDiag  1:
 FoFJK:  IHMeth= 1 ICntrl=       0 DoSepK=T KAlg= 0 I1Cent=           0 FoldK=F
 IRaf=         1 NMat=       1 IRICut=       1 DoRegI=T DoRafI=F ISym2E= 0 IDoP0=0 IntGTp=1.
 FoFCou: FMM=F IPFlag=           0 FMFlag=      100000 FMFlg1=           0
         NFxFlg=           0 DoJE=T BraDBF=F KetDBF=F FulRan=T
         wScrn=  0.000000 ICntrl=       500 IOpCl=  0 I1Cent=           0 NGrid=           0
         NMat0=    1 NMatS0=      1 NMatT0=    0 NMatD0=    1 NMtDS0=    0 NMtDT0=    0
 Symmetry not used in FoFCou.
 E= -3009.66040343452    
 DIIS: error= 3.20D-01 at cycle   1 NSaved=   1.
 NSaved= 1 IEnMin= 1 EnMin= -3009.66040343452     IErMin= 1 ErrMin= 3.20D-01
 ErrMax= 3.20D-01  0.00D+00 EMaxC= 1.00D-01 BMatC= 1.20D+01 BMatP= 1.20D+01
 IDIUse=3 WtCom= 0.00D+00 WtEn= 1.00D+00
 Coeff-Com:  0.100D+01
 Coeff-En:   0.100D+01
 Coeff:      0.100D+01
 Gap=     0.392 Goal=   None    Shift=    0.000
 GapD=    0.392 DampG=1.000 DampE=0.250 DampFc=0.2500 IDamp=-1.
 Damping current iteration by 2.50D-01
 RMSDP=9.16D-02 MaxDP=9.75D+00              OVMax= 3.06D-01

 Cycle   2  Pass 1  IDiag  1:
 RMSU=  6.50D-03    CP:  8.45D-01
 E= -3009.97060906356     Delta-E=       -0.310205629041 Rises=F Damp=T
 DIIS: error= 2.25D-01 at cycle   2 NSaved=   2.
 NSaved= 2 IEnMin= 2 EnMin= -3009.97060906356     IErMin= 2 ErrMin= 2.25D-01
 ErrMax= 2.25D-01  0.00D+00 EMaxC= 1.00D-01 BMatC= 5.46D+00 BMatP= 1.20D+01
 IDIUse=3 WtCom= 0.00D+00 WtEn= 1.00D+00
 Coeff-Com: -0.180D+01 0.280D+01
 Coeff-En:   0.000D+00 0.100D+01
 Coeff:      0.000D+00 0.100D+01
 Gap=     0.269 Goal=   None    Shift=    0.000
 RMSDP=6.87D-02 MaxDP=7.16D+00 DE=-3.10D-01 OVMax= 1.38D-01

 Cycle   3  Pass 1  IDiag  1:
 RMSU=  6.45D-03    CP:  3.78D-01  3.00D+00
 E= -3010.38205019760     Delta-E=       -0.411441134042 Rises=F Damp=F
 DIIS: error= 6.63D-02 at cycle   3 NSaved=   3.
 NSaved= 3 IEnMin= 3 EnMin= -3010.38205019760     IErMin= 3 ErrMin= 6.63D-02
 ErrMax= 6.63D-02  0.00D+00 EMaxC= 1.00D-01 BMatC= 7.62D-01 BMatP= 5.46D+00
 IDIUse=3 WtCom= 3.37D-01 WtEn= 6.63D-01
 Coeff-Com:  0.203D+01-0.262D+01 0.158D+01
 Coeff-En:   0.414D-01 0.000D+00 0.959D+00
 Coeff:      0.712D+00-0.882D+00 0.117D+01
 Gap=     0.300 Goal=   None    Shift=    0.000
 RMSDP=1.01D-02 MaxDP=6.02D-01 DE=-4.11D-01 OVMax= 9.77D-02

 Cycle   4  Pass 1  IDiag  1:
 RMSU=  7.72D-03    CP:  4.18D-01  3.00D+00  1.53D+00
 E= -3010.48134696898     Delta-E=       -0.099296771380 Rises=F Damp=F
 DIIS: error= 3.96D-02 at cycle   4 NSaved=   4.
 NSaved= 4 IEnMin= 4 EnMin= -3010.48134696898     IErMin= 4 ErrMin= 3.96D-02
 ErrMax= 3.96D-02  0.00D+00 EMaxC= 1.00D-01 BMatC= 2.71D-01 BMatP= 7.62D-01
 IDIUse=3 WtCom= 6.04D-01 WtEn= 3.96D-01
 Coeff-Com:  0.443D+00-0.573D+00 0.610D+00 0.520D+00
 Coeff-En:   0.000D+00 0.000D+00 0.253D+00 0.747D+00
 Coeff:      0.267D+00-0.346D+00 0.469D+00 0.610D+00
 Gap=     0.260 Goal=   None    Shift=    0.000
 RMSDP=6.70D-03 MaxDP=4.36D-01 DE=-9.93D-02 OVMax= 8.39D-02

 Cycle   5  Pass 1  IDiag  1:
 RMSU=  2.27D-03    CP:  3.80D-01  3.00D+00  1.64D+00  5.87D-01
 E= -3010.53776781531     Delta-E=       -0.056420846330 Rises=F Damp=F
 DIIS: error= 1.34D-02 at cycle   5 NSaved=   5.
 NSaved= 5 IEnMin= 5 EnMin= -3010.53776781531     IErMin= 5 ErrMin= 1.34D-02
 ErrMax= 1.34D-02  0.00D+00 EMaxC= 1.00D-01 BMatC= 1.80D-02 BMatP= 2.71D-01
 IDIUse=3 WtCom= 8.66D-01 WtEn= 1.34D-01
 Coeff-Com: -0.348D-01 0.520D-01 0.155D+00 0.352D+00 0.476D+00
 Coeff-En:   0.000D+00 0.000D+00 0.000D+00 0.643D-01 0.936D+00
 Coeff:     -0.301D-01 0.450D-01 0.134D+00 0.313D+00 0.538D+00
 Gap=     0.274 Goal=   None    Shift=    0.000
 RMSDP=1.60D-03 MaxDP=8.45D-02 DE=-5.64D-02 OVMax= 5.32D-02

 Cycle   6  Pass 1  IDiag  1:
 RMSU=  8.61D-04    CP:  3.77D-01  3.00D+00  1.62D+00  7.03D-01  5.98D-01
 E= -3010.54779163812     Delta-E=       -0.010023822808 Rises=F Damp=F
 DIIS: error= 3.40D-03 at cycle   6 NSaved=   6.
 NSaved= 6 IEnMin= 6 EnMin= -3010.54779163812     IErMin= 6 ErrMin= 3.40D-03
 ErrMax= 3.40D-03  0.00D+00 EMaxC= 1.00D-01 BMatC= 1.65D-03 BMatP= 1.80D-02
 IDIUse=3 WtCom= 9.66D-01 WtEn= 3.40D-02
 Coeff-Com: -0.703D-01 0.947D-01 0.378D-02 0.121D+00 0.341D+00 0.510D+00
 Coeff-En:   0.000D+00 0.000D+00 0.000D+00 0.000D+00 0.803D-01 0.920D+00
 Coeff:     -0.679D-01 0.915D-01 0.365D-02 0.117D+00 0.332D+00 0.524D+00
 Gap=     0.244 Goal=   None    Shift=    0.000
 RMSDP=4.97D-04 MaxDP=2.39D-02 DE=-1.00D-02 OVMax= 1.22D-02

 Cycle   7  Pass 1  IDiag  1:
 RMSU=  4.09D-04    CP:  3.77D-01  3.00D+00  1.64D+00  6.92D-01  6.95D-01
                    CP:  9.58D-01
 E= -3010.54891532360     Delta-E=       -0.001123685478 Rises=F Damp=F
 DIIS: error= 4.00D-04 at cycle   7 NSaved=   7.
 NSaved= 7 IEnMin= 7 EnMin= -3010.54891532360     IErMin= 7 ErrMin= 4.00D-04
 ErrMax= 4.00D-04  0.00D+00 EMaxC= 1.00D-01 BMatC= 2.87D-05 BMatP= 1.65D-03
 IDIUse=3 WtCom= 9.96D-01 WtEn= 4.00D-03
 Coeff-Com: -0.318D-01 0.424D-01-0.129D-01 0.237D-01 0.865D-01 0.189D+00
 Coeff-Com:  0.703D+00
 Coeff-En:   0.000D+00 0.000D+00 0.000D+00 0.000D+00 0.000D+00 0.000D+00
 Coeff-En:   0.100D+01
 Coeff:     -0.317D-01 0.422D-01-0.128D-01 0.236D-01 0.861D-01 0.188D+00
 Coeff:      0.705D+00
 Gap=     0.245 Goal=   None    Shift=    0.000
 RMSDP=2.72D-04 MaxDP=1.70D-02 DE=-1.12D-03 OVMax= 2.91D-03

 Cycle   8  Pass 1  IDiag  1:
 RMSU=  1.35D-04    CP:  3.76D-01  3.00D+00  1.65D+00  6.96D-01  7.31D-01
                    CP:  1.04D+00  9.13D-01
 E= -3010.54895598487     Delta-E=       -0.000040661268 Rises=F Damp=F
 DIIS: error= 1.72D-04 at cycle   8 NSaved=   8.
 NSaved= 8 IEnMin= 8 EnMin= -3010.54895598487     IErMin= 8 ErrMin= 1.72D-04
 ErrMax= 1.72D-04  0.00D+00 EMaxC= 1.00D-01 BMatC= 4.22D-06 BMatP= 2.87D-05
 IDIUse=3 WtCom= 9.98D-01 WtEn= 1.72D-03
 Coeff-Com:  0.371D-02-0.519D-02-0.417D-02-0.136D-01-0.434D-01-0.656D-01
 Coeff-Com:  0.180D+00 0.948D+00
 Coeff-En:   0.000D+00 0.000D+00 0.000D+00 0.000D+00 0.000D+00 0.000D+00
 Coeff-En:   0.000D+00 0.100D+01
 Coeff:      0.371D-02-0.518D-02-0.417D-02-0.135D-01-0.433D-01-0.654D-01
 Coeff:      0.180D+00 0.948D+00
 Gap=     0.245 Goal=   None    Shift=    0.000
 RMSDP=1.39D-04 MaxDP=8.14D-03 DE=-4.07D-05 OVMax= 2.24D-03

 Cycle   9  Pass 1  IDiag  1:
 RMSU=  3.08D-05    CP:  3.76D-01  3.00D+00  1.66D+00  7.01D-01  7.42D-01
                    CP:  1.11D+00  1.13D+00  1.32D+00
 E= -3010.54896828986     Delta-E=       -0.000012304999 Rises=F Damp=F
 DIIS: error= 5.20D-05 at cycle   9 NSaved=   9.
 NSaved= 9 IEnMin= 9 EnMin= -3010.54896828986     IErMin= 9 ErrMin= 5.20D-05
 ErrMax= 5.20D-05  0.00D+00 EMaxC= 1.00D-01 BMatC= 4.47D-07 BMatP= 4.22D-06
 IDIUse=1 WtCom= 1.00D+00 WtEn= 0.00D+00
 Coeff-Com:  0.537D-02-0.721D-02 0.542D-03-0.702D-02-0.212D-01-0.393D-01
 Coeff-Com: -0.438D-01 0.202D+00 0.911D+00
 Coeff:      0.537D-02-0.721D-02 0.542D-03-0.702D-02-0.212D-01-0.393D-01
 Coeff:     -0.438D-01 0.202D+00 0.911D+00
 Gap=     0.245 Goal=   None    Shift=    0.000
 RMSDP=4.75D-05 MaxDP=3.93D-03 DE=-1.23D-05 OVMax= 1.08D-03

 Cycle  10  Pass 1  IDiag  1:
 RMSU=  1.87D-05    CP:  3.76D-01  3.00D+00  1.66D+00  7.02D-01  7.43D-01
                    CP:  1.12D+00  1.20D+00  1.49D+00  1.34D+00
 E= -3010.54897075846     Delta-E=       -0.000002468592 Rises=F Damp=F
 DIIS: error= 1.66D-05 at cycle  10 NSaved=  10.
 NSaved=10 IEnMin=10 EnMin= -3010.54897075846     IErMin=10 ErrMin= 1.66D-05
 ErrMax= 1.66D-05  0.00D+00 EMaxC= 1.00D-01 BMatC= 1.31D-07 BMatP= 4.47D-07
 IDIUse=1 WtCom= 1.00D+00 WtEn= 0.00D+00
 Coeff-Com: -0.171D-03 0.265D-03 0.612D-03 0.130D-02 0.776D-02 0.126D-01
 Coeff-Com: -0.435D-01-0.191D+00 0.206D+00 0.101D+01
 Coeff:     -0.171D-03 0.265D-03 0.612D-03 0.130D-02 0.776D-02 0.126D-01
 Coeff:     -0.435D-01-0.191D+00 0.206D+00 0.101D+01
 Gap=     0.245 Goal=   None    Shift=    0.000
 RMSDP=3.18D-05 MaxDP=2.02D-03 DE=-2.47D-06 OVMax= 7.62D-04

 Cycle  11  Pass 1  IDiag  1:
 RMSU=  8.79D-06    CP:  3.76D-01  3.00D+00  1.66D+00  7.02D-01  7.41D-01
                    CP:  1.12D+00  1.22D+00  1.51D+00  1.60D+00  1.55D+00
 E= -3010.54897150389     Delta-E=       -0.000000745436 Rises=F Damp=F
 DIIS: error= 7.43D-06 at cycle  11 NSaved=  11.
 NSaved=11 IEnMin=11 EnMin= -3010.54897150389     IErMin=11 ErrMin= 7.43D-06
 ErrMax= 7.43D-06  0.00D+00 EMaxC= 1.00D-01 BMatC= 2.15D-08 BMatP= 1.31D-07
 IDIUse=1 WtCom= 1.00D+00 WtEn= 0.00D+00
 Coeff-Com: -0.525D-03 0.713D-03 0.145D-03 0.109D-02 0.340D-02 0.628D-02
 Coeff-Com: -0.209D-02-0.522D-01-0.109D+00 0.157D+00 0.995D+00
 Coeff:     -0.525D-03 0.713D-03 0.145D-03 0.109D-02 0.340D-02 0.628D-02
 Coeff:     -0.209D-02-0.522D-01-0.109D+00 0.157D+00 0.995D+00
 Gap=     0.245 Goal=   None    Shift=    0.000
 RMSDP=2.04D-05 MaxDP=1.54D-03 DE=-7.45D-07 OVMax= 3.72D-04

 Cycle  12  Pass 1  IDiag  1:
 RMSU=  3.29D-06    CP:  3.76D-01  3.00D+00  1.66D+00  7.03D-01  7.37D-01
                    CP:  1.12D+00  1.23D+00  1.53D+00  1.70D+00  2.05D+00
                    CP:  1.36D+00
 E= -3010.54897166093     Delta-E=       -0.000000157039 Rises=F Damp=F
 DIIS: error= 4.44D-06 at cycle  12 NSaved=  12.
 NSaved=12 IEnMin=12 EnMin= -3010.54897166093     IErMin=12 ErrMin= 4.44D-06
 ErrMax= 4.44D-06  0.00D+00 EMaxC= 1.00D-01 BMatC= 7.70D-09 BMatP= 2.15D-08
 IDIUse=1 WtCom= 1.00D+00 WtEn= 0.00D+00
 Coeff-Com: -0.154D-03 0.200D-03-0.752D-04 0.148D-03-0.111D-02-0.160D-02
 Coeff-Com:  0.136D-01 0.406D-01-0.125D+00-0.253D+00 0.478D+00 0.849D+00
 Coeff:     -0.154D-03 0.200D-03-0.752D-04 0.148D-03-0.111D-02-0.160D-02
 Coeff:      0.136D-01 0.406D-01-0.125D+00-0.253D+00 0.478D+00 0.849D+00
 Gap=     0.245 Goal=   None    Shift=    0.000
 RMSDP=1.01D-05 MaxDP=5.17D-04 DE=-1.57D-07 OVMax= 2.34D-04

 Cycle  13  Pass 1  IDiag  1:
 RMSU=  1.72D-06    CP:  3.76D-01  3.00D+00  1.66D+00  7.03D-01  7.36D-01
                    CP:  1.12D+00  1.23D+00  1.53D+00  1.73D+00  2.28D+00
                    CP:  1.66D+00  1.25D+00
 E= -3010.54897170744     Delta-E=       -0.000000046505 Rises=F Damp=F
 DIIS: error= 1.53D-06 at cycle  13 NSaved=  13.
 NSaved=13 IEnMin=13 EnMin= -3010.54897170744     IErMin=13 ErrMin= 1.53D-06
 ErrMax= 1.53D-06  0.00D+00 EMaxC= 1.00D-01 BMatC= 7.09D-10 BMatP= 7.70D-09
 IDIUse=1 WtCom= 1.00D+00 WtEn= 0.00D+00
 Coeff-Com:  0.319D-04-0.445D-04-0.407D-04-0.133D-03-0.500D-03-0.952D-03
 Coeff-Com:  0.102D-02 0.811D-02 0.727D-02-0.268D-01-0.134D+00 0.300D-01
 Coeff-Com:  0.112D+01
 Coeff:      0.319D-04-0.445D-04-0.407D-04-0.133D-03-0.500D-03-0.952D-03
 Coeff:      0.102D-02 0.811D-02 0.727D-02-0.268D-01-0.134D+00 0.300D-01
 Coeff:      0.112D+01
 Gap=     0.245 Goal=   None    Shift=    0.000
 RMSDP=2.53D-06 MaxDP=1.65D-04 DE=-4.65D-08 OVMax= 9.75D-05

 Cycle  14  Pass 1  IDiag  1:
 RMSU=  7.87D-07    CP:  3.76D-01  3.00D+00  1.66D+00  7.03D-01  7.35D-01
                    CP:  1.12D+00  1.23D+00  1.53D+00  1.74D+00  2.35D+00
                    CP:  1.74D+00  1.51D+00  1.36D+00
 E= -3010.54897171424     Delta-E=       -0.000000006805 Rises=F Damp=F
 DIIS: error= 7.61D-07 at cycle  14 NSaved=  14.
 NSaved=14 IEnMin=14 EnMin= -3010.54897171424     IErMin=14 ErrMin= 7.61D-07
 ErrMax= 7.61D-07  0.00D+00 EMaxC= 1.00D-01 BMatC= 1.97D-10 BMatP= 7.09D-10
 IDIUse=1 WtCom= 1.00D+00 WtEn= 0.00D+00
 Coeff-Com:  0.303D-04-0.403D-04-0.100D-04-0.830D-04 0.231D-04-0.308D-04
 Coeff-Com: -0.199D-02-0.462D-02 0.254D-01 0.376D-01-0.141D+00-0.150D+00
 Coeff-Com:  0.422D+00 0.813D+00
 Coeff:      0.303D-04-0.403D-04-0.100D-04-0.830D-04 0.231D-04-0.308D-04
 Coeff:     -0.199D-02-0.462D-02 0.254D-01 0.376D-01-0.141D+00-0.150D+00
 Coeff:      0.422D+00 0.813D+00
 Gap=     0.245 Goal=   None    Shift=    0.000
 RMSDP=1.12D-06 MaxDP=9.43D-05 DE=-6.80D-09 OVMax= 3.50D-05

 Cycle  15  Pass 1  IDiag  1:
 RMSU=  2.16D-07    CP:  3.76D-01  3.00D+00  1.66D+00  7.03D-01  7.35D-01
                    CP:  1.12D+00  1.23D+00  1.54D+00  1.75D+00  2.38D+00
                    CP:  1.76D+00  1.62D+00  1.57D+00  1.18D+00
 E= -3010.54897171524     Delta-E=       -0.000000000997 Rises=F Damp=F
 DIIS: error= 3.17D-07 at cycle  15 NSaved=  15.
 NSaved=15 IEnMin=15 EnMin= -3010.54897171524     IErMin=15 ErrMin= 3.17D-07
 ErrMax= 3.17D-07  0.00D+00 EMaxC= 1.00D-01 BMatC= 2.62D-11 BMatP= 1.97D-10
 IDIUse=1 WtCom= 1.00D+00 WtEn= 0.00D+00
 Coeff-Com:  0.568D-05-0.726D-05 0.464D-05-0.203D-05 0.719D-04 0.140D-03
 Coeff-Com: -0.573D-03-0.203D-02 0.483D-02 0.129D-01-0.445D-02-0.402D-01
 Coeff-Com: -0.120D+00 0.186D+00 0.963D+00
 Coeff:      0.568D-05-0.726D-05 0.464D-05-0.203D-05 0.719D-04 0.140D-03
 Coeff:     -0.573D-03-0.203D-02 0.483D-02 0.129D-01-0.445D-02-0.402D-01
 Coeff:     -0.120D+00 0.186D+00 0.963D+00
 Gap=     0.245 Goal=   None    Shift=    0.000
 RMSDP=3.99D-07 MaxDP=2.60D-05 DE=-9.97D-10 OVMax= 1.33D-05

 Cycle  16  Pass 1  IDiag  1:
 RMSU=  1.00D-07    CP:  3.76D-01  3.00D+00  1.66D+00  7.03D-01  7.35D-01
                    CP:  1.12D+00  1.23D+00  1.54D+00  1.75D+00  2.38D+00
                    CP:  1.76D+00  1.65D+00  1.65D+00  1.28D+00  1.44D+00
 E= -3010.54897171544     Delta-E=       -0.000000000206 Rises=F Damp=F
 DIIS: error= 8.09D-08 at cycle  16 NSaved=  16.
 NSaved=16 IEnMin=16 EnMin= -3010.54897171544     IErMin=16 ErrMin= 8.09D-08
 ErrMax= 8.09D-08  0.00D+00 EMaxC= 1.00D-01 BMatC= 4.15D-12 BMatP= 2.62D-11
 IDIUse=1 WtCom= 1.00D+00 WtEn= 0.00D+00
 Coeff-Com:  0.279D-05-0.370D-05 0.392D-05 0.570D-05 0.179D-05 0.220D-04
 Coeff-Com:  0.976D-04 0.176D-03-0.240D-02-0.272D-02 0.160D-01 0.842D-02
 Coeff-Com: -0.731D-01-0.578D-01 0.193D+00 0.918D+00
 Coeff:      0.279D-05-0.370D-05 0.392D-05 0.570D-05 0.179D-05 0.220D-04
 Coeff:      0.976D-04 0.176D-03-0.240D-02-0.272D-02 0.160D-01 0.842D-02
 Coeff:     -0.731D-01-0.578D-01 0.193D+00 0.918D+00
 Gap=     0.245 Goal=   None    Shift=    0.000
 RMSDP=1.52D-07 MaxDP=1.20D-05 DE=-2.06D-10 OVMax= 6.31D-06

 Cycle  17  Pass 1  IDiag  1:
 RMSU=  4.23D-08    CP:  3.76D-01  3.00D+00  1.66D+00  7.03D-01  7.35D-01
                    CP:  1.12D+00  1.23D+00  1.54D+00  1.75D+00  2.39D+00
                    CP:  1.76D+00  1.66D+00  1.66D+00  1.34D+00  1.63D+00
                    CP:  1.04D+00
 E= -3010.54897171545     Delta-E=       -0.000000000009 Rises=F Damp=F
 DIIS: error= 5.69D-08 at cycle  17 NSaved=  17.
 NSaved=17 IEnMin=17 EnMin= -3010.54897171545     IErMin=17 ErrMin= 5.69D-08
 ErrMax= 5.69D-08  0.00D+00 EMaxC= 1.00D-01 BMatC= 1.15D-12 BMatP= 4.15D-12
 IDIUse=1 WtCom= 1.00D+00 WtEn= 0.00D+00
 Coeff-Com: -0.724D-06 0.915D-06 0.184D-06 0.296D-05-0.701D-05-0.741D-05
 Coeff-Com:  0.151D-03 0.452D-03-0.159D-02-0.300D-02 0.620D-02 0.961D-02
 Coeff-Com:  0.428D-03-0.561D-01-0.131D+00 0.313D+00 0.862D+00
 Coeff:     -0.724D-06 0.915D-06 0.184D-06 0.296D-05-0.701D-05-0.741D-05
 Coeff:      0.151D-03 0.452D-03-0.159D-02-0.300D-02 0.620D-02 0.961D-02
 Coeff:      0.428D-03-0.561D-01-0.131D+00 0.313D+00 0.862D+00
 Gap=     0.245 Goal=   None    Shift=    0.000
 RMSDP=4.62D-08 MaxDP=2.06D-06 DE=-9.09D-12 OVMax= 2.25D-06

 Cycle  18  Pass 1  IDiag  1:
 RMSU=  1.77D-08    CP:  3.76D-01  3.00D+00  1.66D+00  7.03D-01  7.35D-01
                    CP:  1.12D+00  1.23D+00  1.54D+00  1.75D+00  2.39D+00
                    CP:  1.76D+00  1.67D+00  1.66D+00  1.36D+00  1.69D+00
                    CP:  1.19D+00  1.43D+00
 E= -3010.54897171546     Delta-E=       -0.000000000011 Rises=F Damp=F
 DIIS: error= 2.07D-08 at cycle  18 NSaved=  18.
 NSaved=18 IEnMin=18 EnMin= -3010.54897171546     IErMin=18 ErrMin= 2.07D-08
 ErrMax= 2.07D-08  0.00D+00 EMaxC= 1.00D-01 BMatC= 2.08D-13 BMatP= 1.15D-12
 IDIUse=1 WtCom= 1.00D+00 WtEn= 0.00D+00
 Coeff-Com: -0.222D-06 0.293D-06-0.677D-06-0.132D-05 0.417D-07-0.533D-05
 Coeff-Com: -0.297D-04-0.483D-04 0.474D-03 0.543D-03-0.376D-02-0.129D-02
 Coeff-Com:  0.202D-01 0.701D-02-0.633D-01-0.194D+00 0.121D+00 0.111D+01
 Coeff:     -0.222D-06 0.293D-06-0.677D-06-0.132D-05 0.417D-07-0.533D-05
 Coeff:     -0.297D-04-0.483D-04 0.474D-03 0.543D-03-0.376D-02-0.129D-02
 Coeff:      0.202D-01 0.701D-02-0.633D-01-0.194D+00 0.121D+00 0.111D+01
 Gap=     0.245 Goal=   None    Shift=    0.000
 RMSDP=4.11D-08 MaxDP=2.75D-06 DE=-1.14D-11 OVMax= 1.53D-06

 Cycle  19  Pass 1  IDiag  1:
 RMSU=  9.00D-09    CP:  3.76D-01  3.00D+00  1.66D+00  7.03D-01  7.35D-01
                    CP:  1.12D+00  1.23D+00  1.54D+00  1.75D+00  2.39D+00
                    CP:  1.76D+00  1.67D+00  1.66D+00  1.36D+00  1.73D+00
                    CP:  1.21D+00  1.84D+00  1.55D+00
 E= -3010.54897171545     Delta-E=        0.000000000016 Rises=F Damp=F
 DIIS: error= 8.46D-09 at cycle  19 NSaved=  19.
 NSaved=19 IEnMin=18 EnMin= -3010.54897171546     IErMin=19 ErrMin= 8.46D-09
 ErrMax= 8.46D-09  0.00D+00 EMaxC= 1.00D-01 BMatC= 2.99D-14 BMatP= 2.08D-13
 IDIUse=1 WtCom= 1.00D+00 WtEn= 0.00D+00
 Coeff-Com:  0.504D-07-0.575D-07 0.564D-07-0.199D-06 0.891D-06 0.122D-06
 Coeff-Com: -0.253D-04-0.591D-04 0.251D-03 0.398D-03-0.100D-02-0.673D-03
 Coeff-Com: -0.154D-02 0.508D-02 0.277D-01-0.340D-01-0.124D+00-0.128D+00
 Coeff-Com:  0.126D+01
 Coeff:      0.504D-07-0.575D-07 0.564D-07-0.199D-06 0.891D-06 0.122D-06
 Coeff:     -0.253D-04-0.591D-04 0.251D-03 0.398D-03-0.100D-02-0.673D-03
 Coeff:     -0.154D-02 0.508D-02 0.277D-01-0.340D-01-0.124D+00-0.128D+00
 Coeff:      0.126D+01
 Gap=     0.245 Goal=   None    Shift=    0.000
 RMSDP=1.54D-08 MaxDP=9.31D-07 DE= 1.59D-11 OVMax= 6.62D-07

 Cycle  20  Pass 1  IDiag  1:
 RMSU=  3.80D-09    CP:  3.76D-01  3.00D+00  1.66D+00  7.03D-01  7.35D-01
                    CP:  1.12D+00  1.23D+00  1.54D+00  1.75D+00  2.39D+00
                    CP:  1.76D+00  1.67D+00  1.66D+00  1.36D+00  1.72D+00
                    CP:  1.19D+00  2.03D+00  1.85D+00  1.32D+00
 E= -3010.54897171546     Delta-E=       -0.000000000013 Rises=F Damp=F
 DIIS: error= 5.61D-09 at cycle  20 NSaved=  20.
 NSaved=20 IEnMin=18 EnMin= -3010.54897171546     IErMin=20 ErrMin= 5.61D-09
 ErrMax= 5.61D-09  0.00D+00 EMaxC= 1.00D-01 BMatC= 9.46D-15 BMatP= 2.99D-14
 IDIUse=1 WtCom= 1.00D+00 WtEn= 0.00D+00
 Coeff-Com: -0.224D-07 0.347D-07 0.141D-06 0.280D-06 0.440D-06 0.911D-06
 Coeff-Com: -0.362D-05-0.829D-05 0.217D-05 0.193D-04 0.241D-03 0.192D-03
 Coeff-Com: -0.430D-02-0.136D-03 0.242D-01 0.242D-01-0.635D-01-0.283D+00
 Coeff-Com:  0.452D+00 0.850D+00
 Coeff:     -0.224D-07 0.347D-07 0.141D-06 0.280D-06 0.440D-06 0.911D-06
 Coeff:     -0.362D-05-0.829D-05 0.217D-05 0.193D-04 0.241D-03 0.192D-03
 Coeff:     -0.430D-02-0.136D-03 0.242D-01 0.242D-01-0.635D-01-0.283D+00
 Coeff:      0.452D+00 0.850D+00
 Gap=     0.245 Goal=   None    Shift=    0.000
 RMSDP=6.01D-09 MaxDP=2.30D-07 DE=-1.27D-11 OVMax= 2.28D-07

 SCF Done:  E(RwB97XD) =  -3010.54897172     A.U. after   20 cycles
            NFock= 20  Conv=0.60D-08     -V/T= 2.0016
 KE= 3.005825355991D+03 PE=-8.629984025312D+03 EE= 1.875950989383D+03
 Leave Link  502 at Wed May  1 15:09:19 2024, MaxMem=  1207959552 cpu:            1107.7 elap:            1107.8
 (Enter /software/gaussian/g16-c01/sse4/g16/l601.exe)
 Copying SCF densities to generalized density rwf, IOpCl= 0 IROHF=0.

 **********************************************************************

            Population analysis using the SCF Density.

 **********************************************************************

 Alpha  occ. eigenvalues -- -483.29110 -62.84106 -56.63825 -56.63218 -56.63214
 Alpha  occ. eigenvalues --  -19.45469 -19.45318 -14.84873 -10.57445 -10.56414
 Alpha  occ. eigenvalues --  -10.56392 -10.56312 -10.55887 -10.53324  -8.99890
 Alpha  occ. eigenvalues --   -6.82636  -6.80655  -6.80636  -2.92524  -2.92000
 Alpha  occ. eigenvalues --   -2.91984  -2.90400  -2.90400  -1.49168  -1.32154
 Alpha  occ. eigenvalues --   -1.21870  -1.12965  -1.11279  -1.02641  -1.00521
 Alpha  occ. eigenvalues --   -0.94639  -0.90337  -0.84930  -0.80347  -0.79996
 Alpha  occ. eigenvalues --   -0.79455  -0.77621  -0.75560  -0.75214  -0.71427
 Alpha  occ. eigenvalues --   -0.68650  -0.66990  -0.62846  -0.59077  -0.56714
 Alpha  occ. eigenvalues --   -0.55721  -0.55079  -0.53761  -0.53191
 Alpha virt. eigenvalues --   -0.28697  -0.20625  -0.14870  -0.13369  -0.11951
 Alpha virt. eigenvalues --   -0.09378  -0.06841  -0.06042  -0.05160  -0.03445
 Alpha virt. eigenvalues --   -0.01957  -0.01236  -0.01118  -0.00091   0.00375
 Alpha virt. eigenvalues --    0.01789   0.02295   0.03249   0.03604   0.04318
 Alpha virt. eigenvalues --    0.04860   0.05883   0.06054   0.06430   0.06974
 Alpha virt. eigenvalues --    0.07831   0.08038   0.08294   0.08505   0.09429
 Alpha virt. eigenvalues --    0.11066   0.11562   0.11721   0.12587   0.13037
 Alpha virt. eigenvalues --    0.13874   0.14374   0.14848   0.15740   0.16430
 Alpha virt. eigenvalues --    0.16870   0.17545   0.18857   0.19276   0.20976
 Alpha virt. eigenvalues --    0.21345   0.22190   0.22547   0.23660   0.25439
 Alpha virt. eigenvalues --    0.26430   0.28432   0.28696   0.31679   0.32391
 Alpha virt. eigenvalues --    0.34120   0.34728   0.35845   0.36344   0.37451
 Alpha virt. eigenvalues --    0.37687   0.38220   0.40193   0.42022   0.42755
 Alpha virt. eigenvalues --    0.43649   0.44042   0.45094   0.46676   0.47692
 Alpha virt. eigenvalues --    0.48467   0.51251   0.51863   0.52729   0.53821
 Alpha virt. eigenvalues --    0.55629   0.56046   0.57426   0.58417   0.59609
 Alpha virt. eigenvalues --    0.61526   0.63625   0.65913   0.67815   0.69806
 Alpha virt. eigenvalues --    0.70504   0.71236   0.72438   0.73975   0.74378
 Alpha virt. eigenvalues --    0.75735   0.79409   0.80978   0.84788   0.85945
 Alpha virt. eigenvalues --    0.87238   0.88315   0.92549   0.93810   0.98797
 Alpha virt. eigenvalues --    1.00321   1.01232   1.05306   1.05909   1.07241
 Alpha virt. eigenvalues --    1.10044   1.10953   1.12311   1.12955   1.15025
 Alpha virt. eigenvalues --    1.22556   1.25077   1.27250   1.33312   1.36984
 Alpha virt. eigenvalues --    1.37315   1.39177   1.46070   1.54923   1.57575
 Alpha virt. eigenvalues --    1.58951   1.59501   1.61039   1.63146   1.67000
 Alpha virt. eigenvalues --    1.69638   1.70523   1.73886   1.75771   1.79447
 Alpha virt. eigenvalues --    1.81783   1.85421   1.87949   1.95447   1.97575
 Alpha virt. eigenvalues --    1.99138   2.03422   2.04429   2.08110   2.09089
 Alpha virt. eigenvalues --    2.11108   2.15252   2.20499   2.22866   2.28335
 Alpha virt. eigenvalues --    2.38015   2.41909   2.43246   2.44786   2.52811
 Alpha virt. eigenvalues --    2.57131   2.63356   2.66525   2.68726   2.71919
 Alpha virt. eigenvalues --    2.74162   2.77003   2.77695   2.81431   2.82493
 Alpha virt. eigenvalues --    2.94398   2.97247   3.01116   3.06841   3.09551
 Alpha virt. eigenvalues --    3.13338   3.14689   3.18980   3.23818   3.25044
 Alpha virt. eigenvalues --    3.27780   3.39554   3.47445   3.51614   3.55144
 Alpha virt. eigenvalues --    3.57486   3.70430   3.74568   3.82607   3.87774
 Alpha virt. eigenvalues --    4.11257   4.11467   4.18774   4.24073   4.44739
 Alpha virt. eigenvalues --    4.44868   4.58077   4.60343   4.93550   4.96327
 Alpha virt. eigenvalues --    5.04882   5.09127   5.63264   6.16192   6.66929
 Alpha virt. eigenvalues --    7.49931   7.51514   7.61190  23.21790  23.61775
 Alpha virt. eigenvalues --   23.71239  23.79651  23.96175  24.01886  35.33084
 Alpha virt. eigenvalues --   47.93355  49.85995  49.94802 289.82649 289.84316
 Alpha virt. eigenvalues --  289.967351020.93728
          Condensed to atoms (all electrons):
               1          2          3          4          5          6
     1  C    9.900787  -3.489803   0.687639  -2.182706  -0.677785   0.298024
     2  C   -3.489803  14.796667  -2.596475  -1.552117   0.779441  -0.018130
     3  C    0.687639  -2.596475  14.609696  -4.517577  -1.764727   0.018246
     4  C   -2.182706  -1.552117  -4.517577  15.960871   1.935595   0.016059
     5  C   -0.677785   0.779441  -1.764727   1.935595   7.858088   0.038318
     6  H    0.298024  -0.018130   0.018246   0.016059   0.038318   0.395884
     7  H    0.093328   0.183551   0.124704  -0.047188  -0.029279  -0.002827
     8  H    0.001262   0.002712   0.047282   0.279196  -0.014677  -0.000002
     9  H    0.013908  -0.003673   0.000379   0.008255   0.302306  -0.002642
    10  N   -0.243628   0.448311  -1.001927   0.375675   0.026450  -0.000703
    11  O   -0.006543  -0.049792  -0.272942   0.045241  -0.050126  -0.000022
    12  O    0.386709  -0.106898  -0.278107  -0.102491  -0.049547   0.000026
    13  C    1.773581  -2.939159   1.595334  -4.470505  -2.394927  -0.016169
    14  H   -0.005103  -0.024034   0.023086  -0.140153  -0.033482  -0.000084
    15  Br   0.050090  -0.026529   0.121984   0.045011   0.123913  -0.000394
               7          8          9         10         11         12
     1  C    0.093328   0.001262   0.013908  -0.243628  -0.006543   0.386709
     2  C    0.183551   0.002712  -0.003673   0.448311  -0.049792  -0.106898
     3  C    0.124704   0.047282   0.000379  -1.001927  -0.272942  -0.278107
     4  C   -0.047188   0.279196   0.008255   0.375675   0.045241  -0.102491
     5  C   -0.029279  -0.014677   0.302306   0.026450  -0.050126  -0.049547
     6  H   -0.002827  -0.000002  -0.002642  -0.000703  -0.000022   0.000026
     7  H    0.349269   0.000002  -0.000010  -0.032687  -0.001950   0.027008
     8  H    0.000002   0.260912   0.000124  -0.019650   0.018862  -0.000509
     9  H   -0.000010   0.000124   0.336858   0.000450   0.000010   0.000005
    10  N   -0.032687  -0.019650   0.000450   7.370570   0.237976   0.095659
    11  O   -0.001950   0.018862   0.000010   0.237976   7.715878  -0.000227
    12  O    0.027008  -0.000509   0.000005   0.095659  -0.000227   8.015084
    13  C    0.022138   0.009172   0.005351  -0.151544   0.262490   0.060045
    14  H   -0.000015  -0.003112  -0.005934  -0.000294  -0.000346  -0.000057
    15  Br  -0.000157   0.001509  -0.002645  -0.001289   0.000699   0.001991
              13         14         15
     1  C    1.773581  -0.005103   0.050090
     2  C   -2.939159  -0.024034  -0.026529
     3  C    1.595334   0.023086   0.121984
     4  C   -4.470505  -0.140153   0.045011
     5  C   -2.394927  -0.033482   0.123913
     6  H   -0.016169  -0.000084  -0.000394
     7  H    0.022138  -0.000015  -0.000157
     8  H    0.009172  -0.003112   0.001509
     9  H    0.005351  -0.005934  -0.002645
    10  N   -0.151544  -0.000294  -0.001289
    11  O    0.262490  -0.000346   0.000699
    12  O    0.060045  -0.000057   0.001991
    13  C   12.404098   0.474213  -0.128394
    14  H    0.474213   0.308276  -0.031146
    15  Br  -0.128394  -0.031146  34.576102
 Mulliken charges:
               1
     1  C   -0.599760
     2  C    0.595931
     3  C   -0.796595
     4  C    0.346834
     5  C   -0.049560
     6  H    0.274417
     7  H    0.314112
     8  H    0.416916
     9  H    0.347258
    10  N   -0.103369
    11  O    0.100790
    12  O   -0.048692
    13  C   -0.505724
    14  H    0.438186
    15  Br   0.269255
 Sum of Mulliken charges =   1.00000
 Mulliken charges with hydrogens summed into heavy atoms:
               1
     1  C   -0.325343
     2  C    0.910043
     3  C   -0.796595
     4  C    0.763751
     5  C    0.297698
    10  N   -0.103369
    11  O    0.100790
    12  O   -0.048692
    13  C   -0.067538
    15  Br   0.269255
 Electronic spatial extent (au):  <R**2>=           2796.9588
 Charge=              1.0000 electrons
 Dipole moment (field-independent basis, Debye):
    X=             -1.2675    Y=             -4.5161    Z=             -0.5489  Tot=              4.7226
 Quadrupole moment (field-independent basis, Debye-Ang):
   XX=            -71.9467   YY=            -50.4846   ZZ=            -61.5207
   XY=             -3.0587   XZ=              1.5557   YZ=              3.4664
 Traceless Quadrupole moment (field-independent basis, Debye-Ang):
   XX=            -10.6294   YY=             10.8327   ZZ=             -0.2033
   XY=             -3.0587   XZ=              1.5557   YZ=              3.4664
 Octapole moment (field-independent basis, Debye-Ang**2):
  XXX=           -303.5484  YYY=             64.2692  ZZZ=             73.9708  XYY=            -79.0944
  XXY=              9.1138  XXZ=             31.7227  XZZ=            -79.3891  YZZ=              9.8353
  YYZ=             20.0294  XYZ=             -4.2576
 Hexadecapole moment (field-independent basis, Debye-Ang**3):
 XXXX=          -2294.6852 YYYY=           -659.2724 ZZZZ=           -338.9121 XXXY=           -141.0630
 XXXZ=            -19.9098 YYYX=            -73.3211 YYYZ=           -139.5093 ZZZX=            -15.7549
 ZZZY=           -124.9756 XXYY=           -458.3036 XXZZ=           -369.6800 YYZZ=           -151.7536
 XXYZ=            -51.3052 YYXZ=              1.3540 ZZXY=             -8.8845
 N-N= 7.376587082216D+02 E-N=-8.629984025696D+03  KE= 3.005825355991D+03
 No NMR shielding tensors so no spin-rotation constants.
 Leave Link  601 at Wed May  1 15:09:26 2024, MaxMem=  1207959552 cpu:               7.6 elap:               7.6
 (Enter /software/gaussian/g16-c01/sse4/g16/l9999.exe)
 Unable to Open any file for archive entry.
 1\1\GINC-BHX0010\SP\RwB97XD\6-311+G(d)\C6H5Br1N1O2(1+)\BWEIGHT\01-May-
 2024\0\\#P wB97XD/6-311+G* NoSymm #P Field=Y+136\\TitleMe\\1,1\C,0,0.0
 295,1.3397,0.0682\C,0,1.4348,1.2867,0.0064\C,0,2.1118,0.0511,-0.0054\C
 ,0,1.4451,-1.1372,0.0312\C,0,-0.6879,0.1682,0.11\H,0,-0.4713,2.2984,0.
 0781\H,0,2.0273,2.1965,-0.0322\H,0,1.9897,-2.0764,0.0232\H,0,-1.7716,0
 .1804,0.1582\N,0,3.5864,0.051,-0.0675\O,0,4.1471,-1.0597,-0.0881\O,0,4
 .145,1.1639,-0.0901\C,0,-0.0236,-1.1458,0.0835\H,0,-0.4367,-1.8725,0.7
 889\Br,0,-0.5359,-1.8697,-1.7408\\Version=ES64L-G16RevC.01\HF=-3010.54
 89717\RMSD=6.008e-09\Dipole=-2.4052207,-0.6287004,0.9302037\Quadrupole
 =-7.9026828,8.0538568,-0.151174,-2.2740413,1.1566219,2.5772106\PG=C01 
 [X(C6H5Br1N1O2)]\\@
 The archive entry for this job was punched.


 YOU WILL NEVER "FIND" TIME FOR ANYTHING.
 IF YOU WANT TIME, YOU MUST MAKE IT.

                        -- CHARLES BIXTON
 Job cpu time:       0 days  0 hours 19 minutes 34.3 seconds.
 Elapsed time:       0 days  0 hours 19 minutes 34.4 seconds.
 File lengths (MBytes):  RWF=     40 Int=      0 D2E=      0 Chk=     32 Scr=      1
 Normal termination of Gaussian 16 at Wed May  1 15:09:27 2024.
