 Entering Gaussian System, Link 0=g16
 Initial command:
 /software/gaussian/g16-c01/sse4/g16/l1.exe "/local_scratch/24665335/Gau-5148.inp" -scrdir="/local_scratch/24665335/"
 Entering Link 1 = /software/gaussian/g16-c01/sse4/g16/l1.exe PID=      5151.
  
 Copyright (c) 1988-2019, Gaussian, Inc.  All Rights Reserved.
  
 This is part of the Gaussian(R) 16 program.  It is based on
 the Gaussian(R) 09 system (copyright 2009, Gaussian, Inc.),
 the Gaussian(R) 03 system (copyright 2003, Gaussian, Inc.),
 the Gaussian(R) 98 system (copyright 1998, Gaussian, Inc.),
 the Gaussian(R) 94 system (copyright 1995, Gaussian, Inc.),
 the Gaussian 92(TM) system (copyright 1992, Gaussian, Inc.),
 the Gaussian 90(TM) system (copyright 1990, Gaussian, Inc.),
 the Gaussian 88(TM) system (copyright 1988, Gaussian, Inc.),
 the Gaussian 86(TM) system (copyright 1986, Carnegie Mellon
 University), and the Gaussian 82(TM) system (copyright 1983,
 Carnegie Mellon University). Gaussian is a federally registered
 trademark of Gaussian, Inc.
  
 This software contains proprietary and confidential information,
 including trade secrets, belonging to Gaussian, Inc.
  
 This software is provided under written license and may be
 used, copied, transmitted, or stored only in accord with that
 written license.
  
 The following legend is applicable only to US Government
 contracts under FAR:
  
                    RESTRICTED RIGHTS LEGEND
  
 Use, reproduction and disclosure by the US Government is
 subject to restrictions as set forth in subparagraphs (a)
 and (c) of the Commercial Computer Software - Restricted
 Rights clause in FAR 52.227-19.
  
 Gaussian, Inc.
 340 Quinnipiac St., Bldg. 40, Wallingford CT 06492
  
  
 ---------------------------------------------------------------
 Warning -- This program may not be used in any manner that
 competes with the business of Gaussian, Inc. or will provide
 assistance to any competitor of Gaussian, Inc.  The licensee
 of this program is prohibited from giving any competitor of
 Gaussian, Inc. access to this program.  By using this program,
 the user acknowledges that Gaussian, Inc. is engaged in the
 business of creating and licensing software in the field of
 computational chemistry and represents and warrants to the
 licensee that it is not a competitor of Gaussian, Inc. and that
 it will not use this program in any manner prohibited above.
 ---------------------------------------------------------------
  

 Cite this work as:
 Gaussian 16, Revision C.01,
 M. J. Frisch, G. W. Trucks, H. B. Schlegel, G. E. Scuseria, 
 M. A. Robb, J. R. Cheeseman, G. Scalmani, V. Barone, 
 G. A. Petersson, H. Nakatsuji, X. Li, M. Caricato, A. V. Marenich, 
 J. Bloino, B. G. Janesko, R. Gomperts, B. Mennucci, H. P. Hratchian, 
 J. V. Ortiz, A. F. Izmaylov, J. L. Sonnenberg, D. Williams-Young, 
 F. Ding, F. Lipparini, F. Egidi, J. Goings, B. Peng, A. Petrone, 
 T. Henderson, D. Ranasinghe, V. G. Zakrzewski, J. Gao, N. Rega, 
 G. Zheng, W. Liang, M. Hada, M. Ehara, K. Toyota, R. Fukuda, 
 J. Hasegawa, M. Ishida, T. Nakajima, Y. Honda, O. Kitao, H. Nakai, 
 T. Vreven, K. Throssell, J. A. Montgomery, Jr., J. E. Peralta, 
 F. Ogliaro, M. J. Bearpark, J. J. Heyd, E. N. Brothers, K. N. Kudin, 
 V. N. Staroverov, T. A. Keith, R. Kobayashi, J. Normand, 
 K. Raghavachari, A. P. Rendell, J. C. Burant, S. S. Iyengar, 
 J. Tomasi, M. Cossi, J. M. Millam, M. Klene, C. Adamo, R. Cammi, 
 J. W. Ochterski, R. L. Martin, K. Morokuma, O. Farkas, 
 J. B. Foresman, and D. J. Fox, Gaussian, Inc., Wallingford CT, 2019.
 
 ******************************************
 Gaussian 16:  ES64L-G16RevC.01  3-Jul-2019
                 2-May-2024 
 ******************************************
 %chk=geometry.chk
 %mem=1GB
 %nprocshared=12
 Will use up to   12 processors via shared memory.
 ----------------------------------------
 #P wB97XD/6-311+G* NoSymm #P Field=Y+116
 ----------------------------------------
 1/38=1,172=1/1;
 2/12=2,15=1,17=6,18=5,40=1/2;
 3/5=4,6=6,7=11,11=2,14=2,15=116,25=1,30=1,74=-58/1,2,3;
 4//1;
 5/5=2,38=5/2;
 6/7=2,8=2,9=2,10=2,28=1/1;
 99/5=1,9=1/99;
 Leave Link    1 at Thu May  2 13:57:43 2024, MaxMem=   134217728 cpu:               1.7 elap:               1.7
 (Enter /software/gaussian/g16-c01/sse4/g16/l101.exe)
 -------
 TitleMe
 -------
 Symbolic Z-matrix:
 Charge =  1 Multiplicity = 1
 C                     0.5193    1.233    -0.0319 
 C                     1.9445    1.2692   -0.0367 
 C                     2.6204    0.0928   -0.025 
 C                    -0.196     0.0301    0.001 
 H                    -0.0207    2.1742   -0.0434 
 H                     2.4828    2.2089   -0.0361 
 H                    -1.2777    0.0399    0.0117 
 N                     4.0921    0.0959    0.0366 
 O                     4.6393   -1.0217    0.1446 
 O                     4.6649    1.1984   -0.0233 
 C                     0.4943   -1.1671    0.021 
 H                    -0.0325   -2.1149    0.0545 
 C                     1.9629   -1.2165   -0.0211 
 H                     2.4436   -1.9631    0.6151 
 Br                    2.173    -1.9491   -1.9062 
 
 ITRead=  0  0  0  0  0  0  0  0  0  0  0  0  0  0  0
 MicOpt= -1 -1 -1 -1 -1 -1 -1 -1 -1 -1 -1 -1 -1 -1 -1
 NAtoms=     15 NQM=       15 NQMF=       0 NMMI=      0 NMMIF=      0
                NMic=       0 NMicF=      0.
                    Isotopes and Nuclear Properties:
 (Nuclear quadrupole moments (NQMom) in fm**2, nuclear magnetic moments (NMagM)
  in nuclear magnetons)

  Atom         1           2           3           4           5           6           7           8           9          10
 IAtWgt=          12          12          12          12           1           1           1          14          16          16
 AtmWgt=  12.0000000  12.0000000  12.0000000  12.0000000   1.0078250   1.0078250   1.0078250  14.0030740  15.9949146  15.9949146
 NucSpn=           0           0           0           0           1           1           1           2           0           0
 AtZEff=  -0.0000000  -0.0000000  -0.0000000  -0.0000000  -0.0000000  -0.0000000  -0.0000000  -0.0000000  -0.0000000  -0.0000000
 NQMom=    0.0000000   0.0000000   0.0000000   0.0000000   0.0000000   0.0000000   0.0000000   2.0440000   0.0000000   0.0000000
 NMagM=    0.0000000   0.0000000   0.0000000   0.0000000   2.7928460   2.7928460   2.7928460   0.4037610   0.0000000   0.0000000
 AtZNuc=   6.0000000   6.0000000   6.0000000   6.0000000   1.0000000   1.0000000   1.0000000   7.0000000   8.0000000   8.0000000

  Atom        11          12          13          14          15
 IAtWgt=          12           1          12           1          79
 AtmWgt=  12.0000000   1.0078250  12.0000000   1.0078250  78.9183361
 NucSpn=           0           1           0           1           3
 AtZEff=  -0.0000000  -0.0000000  -0.0000000  -0.0000000  -0.0000000
 NQMom=    0.0000000   0.0000000   0.0000000   0.0000000  31.3000000
 NMagM=    0.0000000   2.7928460   0.0000000   2.7928460   2.1063990
 AtZNuc=   6.0000000   1.0000000   6.0000000   1.0000000  35.0000000
 Leave Link  101 at Thu May  2 13:57:45 2024, MaxMem=   134217728 cpu:               1.6 elap:               1.7
 (Enter /software/gaussian/g16-c01/sse4/g16/l202.exe)
                          Input orientation:                          
 ---------------------------------------------------------------------
 Center     Atomic      Atomic             Coordinates (Angstroms)
 Number     Number       Type             X           Y           Z
 ---------------------------------------------------------------------
      1          6           0        0.519300    1.233000   -0.031900
      2          6           0        1.944500    1.269200   -0.036700
      3          6           0        2.620400    0.092800   -0.025000
      4          6           0       -0.196000    0.030100    0.001000
      5          1           0       -0.020700    2.174200   -0.043400
      6          1           0        2.482800    2.208900   -0.036100
      7          1           0       -1.277700    0.039900    0.011700
      8          7           0        4.092100    0.095900    0.036600
      9          8           0        4.639300   -1.021700    0.144600
     10          8           0        4.664900    1.198400   -0.023300
     11          6           0        0.494300   -1.167100    0.021000
     12          1           0       -0.032500   -2.114900    0.054500
     13          6           0        1.962900   -1.216500   -0.021100
     14          1           0        2.443600   -1.963100    0.615100
     15         35           0        2.173000   -1.949100   -1.906200
 ---------------------------------------------------------------------
                    Distance matrix (angstroms):
                    1          2          3          4          5
     1  C    0.000000
     2  C    1.425668   0.000000
     3  C    2.390549   1.356796   0.000000
     4  C    1.399895   2.473566   2.817218   0.000000
     5  H    1.085168   2.163581   3.362733   2.151712   0.000000
     6  H    2.192654   1.082960   2.120598   3.453189   2.503751
     7  H    2.157452   3.449071   3.898632   1.081797   2.477564
     8  N    3.750012   2.448304   1.472992   4.288753   4.608780
     9  O    4.699917   3.541615   2.312322   4.950458   5.653735
    10  O    4.145753   2.721354   2.324292   4.999386   4.786171
    11  C    2.400813   2.835836   2.471794   1.382101   3.381369
    12  H    3.394169   3.920329   3.452266   2.151887   4.290233
    13  C    2.843264   2.485817   1.465124   2.493060   3.928360
    14  H    3.786370   3.334922   2.160489   3.364142   4.860416
    15  Br   4.046416   3.728900   2.812194   3.628609   5.028314
                    6          7          8          9         10
     6  H    0.000000
     7  H    4.341452   0.000000
     8  N    2.657047   5.370150   0.000000
     9  O    3.888434   6.012948   1.249048   0.000000
    10  O    2.404752   6.054572   1.243863   2.226587   0.000000
    11  C    3.918516   2.144043   3.813080   4.149391   4.794941
    12  H    5.003018   2.489080   4.679774   4.798846   5.748876
    13  C    3.464662   3.475788   2.501842   2.688591   3.623886
    14  H    4.222698   4.268978   2.700314   2.434893   3.916224
    15  Br   4.569706   4.420610   3.411663   3.338935   4.434144
                   11         12         13         14         15
    11  C    0.000000
    12  H    1.084880   0.000000
    13  C    1.470034   2.189625   0.000000
    14  H    2.187771   2.543302   1.092353   0.000000
    15  Br   2.672762   2.955683   2.033334   2.535818   0.000000
 Symmetry turned off by external request.
 Stoichiometry    C6H5BrNO2(1+)
 Framework group  C1[X(C6H5BrNO2)]
 Deg. of freedom    39
 Full point group                 C1      NOp   1
 Rotational constants (GHZ):           1.1632986           0.9594224           0.5957624
 Leave Link  202 at Thu May  2 13:57:46 2024, MaxMem=   134217728 cpu:               1.2 elap:               1.2
 (Enter /software/gaussian/g16-c01/sse4/g16/l301.exe)
 Standard basis: 6-311+G(d) (5D, 7F)
 Ernie: Thresh=  0.10000D-02 Tol=  0.10000D-05 Strict=F.
 The following finite field(s) will be applied:
 An electric field of              0.0000  0.0116  0.0000
   261 basis functions,   443 primitive gaussians,   273 cartesian basis functions
    49 alpha electrons       49 beta electrons
       nuclear repulsion energy       772.8945969580 Hartrees.
 IExCor= 4639 DFT=T Ex+Corr=wB97XD ExCW=0 ScaHFX=  1.000000
 ScaDFX=  1.000000  1.000000  1.000000  1.000000 ScalE2=  1.000000  1.000000
 IRadAn=      5 IRanWt=     -1 IRanGd=            0 ICorTp=0 IEmpDi=121
 HFx  wShort=  0.000000 wLong=  0.200000 cFull=  0.222036 cShort=  0.000000 cLong=  0.777964
 DFx  wShort=  0.000000 wLong=  0.200000 cFull=  0.000000 cShort=  0.000000 cLong=  1.000000
 NAtoms=   15 NActive=   15 NUniq=   15 SFac= 1.00D+00 NAtFMM=   60 NAOKFM=F Big=F
 Integral buffers will be    131072 words long.
 Raffenetti 2 integral format.
 Two-electron integral symmetry is turned off.
 R6Disp:  Grimme-D2 Dispersion energy=       -0.0080346408 Hartrees.
 Nuclear repulsion after empirical dispersion term =      772.8865623173 Hartrees.
 Leave Link  301 at Thu May  2 13:57:47 2024, MaxMem=   134217728 cpu:               1.0 elap:               1.0
 (Enter /software/gaussian/g16-c01/sse4/g16/l302.exe)
 NPDir=0 NMtPBC=     1 NCelOv=     1 NCel=       1 NClECP=     1 NCelD=      1
         NCelK=      1 NCelE2=     1 NClLst=     1 CellRange=     0.0.
 One-electron integrals computed using PRISM.
 NBasis=   261 RedAO= T EigKep=  2.52D-06  NBF=   261
 NBsUse=   261 1.00D-06 EigRej= -1.00D+00 NBFU=   261
 Precomputing XC quadrature grid using
 IXCGrd= 4 IRadAn=           5 IRanWt=          -1 IRanGd=           0 AccXCQ= 0.00D+00.
 Generated NRdTot=       0 NPtTot=           0 NUsed=           0 NTot=          32
 NSgBfM=   273   273   273   273   273 MxSgAt=    15 MxSgA2=    15.
 Leave Link  302 at Thu May  2 13:58:10 2024, MaxMem=   134217728 cpu:              22.1 elap:              22.1
 (Enter /software/gaussian/g16-c01/sse4/g16/l303.exe)
 DipDrv:  MaxL=1.
 The nuclear repulsion energy is now       771.4761853309 hartrees.
 Leave Link  303 at Thu May  2 13:58:13 2024, MaxMem=   134217728 cpu:               3.2 elap:               3.2
 (Enter /software/gaussian/g16-c01/sse4/g16/l401.exe)
 ExpMin= 3.50D-02 ExpMax= 4.40D+05 ExpMxC= 1.51D+04 IAcc=3 IRadAn=         5 AccDes= 0.00D+00
 Harris functional with IExCor= 4639 and IRadAn=       5 diagonalized for initial guess.
 HarFok:  IExCor= 4639 AccDes= 0.00D+00 IRadAn=         5 IDoV= 1 UseB2=F ITyADJ=14
 ICtDFT=  3500011 ScaDFX=  1.000000  1.000000  1.000000  1.000000
 FoFCou: FMM=F IPFlag=           0 FMFlag=      100000 FMFlg1=           0
         NFxFlg=           0 DoJE=T BraDBF=F KetDBF=T FulRan=T
         wScrn=  0.000000 ICntrl=       500 IOpCl=  0 I1Cent=   200000004 NGrid=           0
         NMat0=    1 NMatS0=      1 NMatT0=    0 NMatD0=    1 NMtDS0=    0 NMtDT0=    0
 Symmetry not used in FoFCou.
 Harris En= -2970.62654204918    
 JPrj=0 DoOrth=F DoCkMO=F.
 Leave Link  401 at Thu May  2 13:58:44 2024, MaxMem=   134217728 cpu:              31.6 elap:              31.6
 (Enter /software/gaussian/g16-c01/sse4/g16/l502.exe)
 Two-electron integral symmetry not used.
 Closed shell SCF:
 Using DIIS extrapolation, IDIIS=  1040.
 NGot=   134217728 LenX=   134063053 LenY=   133988083
 Requested convergence on RMS density matrix=1.00D-08 within 128 cycles.
 Requested convergence on MAX density matrix=1.00D-06.
 Requested convergence on             energy=1.00D-06.
 No special actions if energy rises.
 Fock matrices will be formed incrementally for  20 cycles.

 Cycle   1  Pass 1  IDiag  1:
 FoFJK:  IHMeth= 1 ICntrl=       0 DoSepK=T KAlg= 0 I1Cent=           0 FoldK=F
 IRaf=         1 NMat=       1 IRICut=       1 DoRegI=T DoRafI=F ISym2E= 0 IDoP0=0 IntGTp=1.
 FoFCou: FMM=F IPFlag=           0 FMFlag=      100000 FMFlg1=           0
         NFxFlg=           0 DoJE=T BraDBF=F KetDBF=F FulRan=T
         wScrn=  0.000000 ICntrl=       500 IOpCl=  0 I1Cent=           0 NGrid=           0
         NMat0=    1 NMatS0=      1 NMatT0=    0 NMatD0=    1 NMtDS0=    0 NMtDT0=    0
 Symmetry not used in FoFCou.
 E= -3009.65304764982    
 DIIS: error= 2.90D-01 at cycle   1 NSaved=   1.
 NSaved= 1 IEnMin= 1 EnMin= -3009.65304764982     IErMin= 1 ErrMin= 2.90D-01
 ErrMax= 2.90D-01  0.00D+00 EMaxC= 1.00D-01 BMatC= 1.20D+01 BMatP= 1.20D+01
 IDIUse=3 WtCom= 0.00D+00 WtEn= 1.00D+00
 Coeff-Com:  0.100D+01
 Coeff-En:   0.100D+01
 Coeff:      0.100D+01
 Gap=     0.388 Goal=   None    Shift=    0.000
 GapD=    0.388 DampG=1.000 DampE=0.250 DampFc=0.2500 IDamp=-1.
 Damping current iteration by 2.50D-01
 RMSDP=7.25D-02 MaxDP=8.95D+00              OVMax= 3.11D-01

 Cycle   2  Pass 1  IDiag  1:
 RMSU=  9.02D-03    CP:  8.79D-01
 E= -3009.96356290999     Delta-E=       -0.310515260167 Rises=F Damp=T
 DIIS: error= 2.19D-01 at cycle   2 NSaved=   2.
 NSaved= 2 IEnMin= 2 EnMin= -3009.96356290999     IErMin= 2 ErrMin= 2.19D-01
 ErrMax= 2.19D-01  0.00D+00 EMaxC= 1.00D-01 BMatC= 5.46D+00 BMatP= 1.20D+01
 IDIUse=3 WtCom= 0.00D+00 WtEn= 1.00D+00
 Coeff-Com: -0.179D+01 0.279D+01
 Coeff-En:   0.000D+00 0.100D+01
 Coeff:      0.000D+00 0.100D+01
 Gap=     0.257 Goal=   None    Shift=    0.000
 RMSDP=5.57D-02 MaxDP=6.80D+00 DE=-3.11D-01 OVMax= 1.30D-01

 Cycle   3  Pass 1  IDiag  1:
 RMSU=  6.77D-03    CP:  4.81D-01  3.00D+00
 E= -3010.37705161065     Delta-E=       -0.413488700660 Rises=F Damp=F
 DIIS: error= 6.65D-02 at cycle   3 NSaved=   3.
 NSaved= 3 IEnMin= 3 EnMin= -3010.37705161065     IErMin= 3 ErrMin= 6.65D-02
 ErrMax= 6.65D-02  0.00D+00 EMaxC= 1.00D-01 BMatC= 7.57D-01 BMatP= 5.46D+00
 IDIUse=3 WtCom= 3.35D-01 WtEn= 6.65D-01
 Coeff-Com:  0.190D+01-0.244D+01 0.153D+01
 Coeff-En:   0.461D-01 0.000D+00 0.954D+00
 Coeff:      0.667D+00-0.815D+00 0.115D+01
 Gap=     0.270 Goal=   None    Shift=    0.000
 RMSDP=1.06D-02 MaxDP=7.59D-01 DE=-4.13D-01 OVMax= 1.05D-01

 Cycle   4  Pass 1  IDiag  1:
 RMSU=  9.16D-03    CP:  5.05D-01  3.00D+00  1.62D+00
 E= -3010.47603914648     Delta-E=       -0.098987535835 Rises=F Damp=F
 DIIS: error= 3.95D-02 at cycle   4 NSaved=   4.
 NSaved= 4 IEnMin= 4 EnMin= -3010.47603914648     IErMin= 4 ErrMin= 3.95D-02
 ErrMax= 3.95D-02  0.00D+00 EMaxC= 1.00D-01 BMatC= 2.67D-01 BMatP= 7.57D-01
 IDIUse=3 WtCom= 6.05D-01 WtEn= 3.95D-01
 Coeff-Com:  0.429D+00-0.554D+00 0.604D+00 0.521D+00
 Coeff-En:   0.000D+00 0.000D+00 0.257D+00 0.743D+00
 Coeff:      0.260D+00-0.335D+00 0.467D+00 0.608D+00
 Gap=     0.250 Goal=   None    Shift=    0.000
 RMSDP=6.48D-03 MaxDP=7.55D-01 DE=-9.90D-02 OVMax= 9.07D-02

 Cycle   5  Pass 1  IDiag  1:
 RMSU=  2.63D-03    CP:  4.73D-01  2.94D+00  1.68D+00  5.52D-01
 E= -3010.53083172268     Delta-E=       -0.054792576197 Rises=F Damp=F
 DIIS: error= 1.60D-02 at cycle   5 NSaved=   5.
 NSaved= 5 IEnMin= 5 EnMin= -3010.53083172268     IErMin= 5 ErrMin= 1.60D-02
 ErrMax= 1.60D-02  0.00D+00 EMaxC= 1.00D-01 BMatC= 2.01D-02 BMatP= 2.67D-01
 IDIUse=3 WtCom= 8.40D-01 WtEn= 1.60D-01
 Coeff-Com:  0.420D-02 0.611D-03 0.188D+00 0.362D+00 0.445D+00
 Coeff-En:   0.000D+00 0.000D+00 0.000D+00 0.106D+00 0.894D+00
 Coeff:      0.353D-02 0.513D-03 0.158D+00 0.321D+00 0.517D+00
 Gap=     0.252 Goal=   None    Shift=    0.000
 RMSDP=2.43D-03 MaxDP=2.22D-01 DE=-5.48D-02 OVMax= 5.83D-02

 Cycle   6  Pass 1  IDiag  1:
 RMSU=  9.10D-04    CP:  4.70D-01  3.00D+00  1.64D+00  7.14D-01  5.32D-01
 E= -3010.54231214988     Delta-E=       -0.011480427198 Rises=F Damp=F
 DIIS: error= 4.66D-03 at cycle   6 NSaved=   6.
 NSaved= 6 IEnMin= 6 EnMin= -3010.54231214988     IErMin= 6 ErrMin= 4.66D-03
 ErrMax= 4.66D-03  0.00D+00 EMaxC= 1.00D-01 BMatC= 2.11D-03 BMatP= 2.01D-02
 IDIUse=3 WtCom= 9.53D-01 WtEn= 4.66D-02
 Coeff-Com: -0.516D-01 0.695D-01 0.667D-02 0.107D+00 0.330D+00 0.539D+00
 Coeff-En:   0.000D+00 0.000D+00 0.000D+00 0.000D+00 0.108D+00 0.892D+00
 Coeff:     -0.492D-01 0.662D-01 0.636D-02 0.102D+00 0.319D+00 0.555D+00
 Gap=     0.236 Goal=   None    Shift=    0.000
 RMSDP=6.30D-04 MaxDP=5.33D-02 DE=-1.15D-02 OVMax= 1.44D-02

 Cycle   7  Pass 1  IDiag  1:
 RMSU=  4.02D-04    CP:  4.71D-01  3.00D+00  1.67D+00  6.88D-01  6.56D-01
                    CP:  7.86D-01
 E= -3010.54375582975     Delta-E=       -0.001443679872 Rises=F Damp=F
 DIIS: error= 4.44D-04 at cycle   7 NSaved=   7.
 NSaved= 7 IEnMin= 7 EnMin= -3010.54375582975     IErMin= 7 ErrMin= 4.44D-04
 ErrMax= 4.44D-04  0.00D+00 EMaxC= 1.00D-01 BMatC= 3.30D-05 BMatP= 2.11D-03
 IDIUse=3 WtCom= 9.96D-01 WtEn= 4.44D-03
 Coeff-Com: -0.285D-01 0.379D-01-0.118D-01 0.238D-01 0.105D+00 0.232D+00
 Coeff-Com:  0.641D+00
 Coeff-En:   0.000D+00 0.000D+00 0.000D+00 0.000D+00 0.000D+00 0.000D+00
 Coeff-En:   0.100D+01
 Coeff:     -0.283D-01 0.377D-01-0.117D-01 0.237D-01 0.105D+00 0.231D+00
 Coeff:      0.643D+00
 Gap=     0.238 Goal=   None    Shift=    0.000
 RMSDP=2.46D-04 MaxDP=2.81D-02 DE=-1.44D-03 OVMax= 2.82D-03

 Cycle   8  Pass 1  IDiag  1:
 RMSU=  1.17D-04    CP:  4.70D-01  3.00D+00  1.67D+00  6.95D-01  6.74D-01
                    CP:  9.15D-01  1.04D+00
 E= -3010.54379680146     Delta-E=       -0.000040971711 Rises=F Damp=F
 DIIS: error= 1.54D-04 at cycle   8 NSaved=   8.
 NSaved= 8 IEnMin= 8 EnMin= -3010.54379680146     IErMin= 8 ErrMin= 1.54D-04
 ErrMax= 1.54D-04  0.00D+00 EMaxC= 1.00D-01 BMatC= 3.02D-06 BMatP= 3.30D-05
 IDIUse=3 WtCom= 9.98D-01 WtEn= 1.54D-03
 Coeff-Com: -0.115D-02 0.138D-02-0.440D-02-0.759D-02-0.248D-01-0.436D-01
 Coeff-Com:  0.138D+00 0.942D+00
 Coeff-En:   0.000D+00 0.000D+00 0.000D+00 0.000D+00 0.000D+00 0.000D+00
 Coeff-En:   0.000D+00 0.100D+01
 Coeff:     -0.115D-02 0.138D-02-0.439D-02-0.758D-02-0.248D-01-0.435D-01
 Coeff:      0.138D+00 0.942D+00
 Gap=     0.238 Goal=   None    Shift=    0.000
 RMSDP=1.22D-04 MaxDP=9.34D-03 DE=-4.10D-05 OVMax= 1.96D-03

 Cycle   9  Pass 1  IDiag  1:
 RMSU=  3.83D-05    CP:  4.70D-01  3.00D+00  1.67D+00  6.99D-01  6.78D-01
                    CP:  9.70D-01  1.24D+00  1.39D+00
 E= -3010.54380662418     Delta-E=       -0.000009822716 Rises=F Damp=F
 DIIS: error= 4.05D-05 at cycle   9 NSaved=   9.
 NSaved= 9 IEnMin= 9 EnMin= -3010.54380662418     IErMin= 9 ErrMin= 4.05D-05
 ErrMax= 4.05D-05  0.00D+00 EMaxC= 1.00D-01 BMatC= 5.23D-07 BMatP= 3.02D-06
 IDIUse=1 WtCom= 1.00D+00 WtEn= 0.00D+00
 Coeff-Com:  0.392D-02-0.527D-02 0.122D-03-0.633D-02-0.232D-01-0.500D-01
 Coeff-Com: -0.440D-01 0.297D+00 0.828D+00
 Coeff:      0.392D-02-0.527D-02 0.122D-03-0.633D-02-0.232D-01-0.500D-01
 Coeff:     -0.440D-01 0.297D+00 0.828D+00
 Gap=     0.238 Goal=   None    Shift=    0.000
 RMSDP=4.73D-05 MaxDP=2.04D-03 DE=-9.82D-06 OVMax= 1.26D-03

 Cycle  10  Pass 1  IDiag  1:
 RMSU=  2.36D-05    CP:  4.69D-01  3.00D+00  1.67D+00  6.99D-01  6.84D-01
                    CP:  9.81D-01  1.31D+00  1.45D+00  1.18D+00
 E= -3010.54380933992     Delta-E=       -0.000002715746 Rises=F Damp=F
 DIIS: error= 2.66D-05 at cycle  10 NSaved=  10.
 NSaved=10 IEnMin=10 EnMin= -3010.54380933992     IErMin=10 ErrMin= 2.66D-05
 ErrMax= 2.66D-05  0.00D+00 EMaxC= 1.00D-01 BMatC= 1.29D-07 BMatP= 5.23D-07
 IDIUse=1 WtCom= 1.00D+00 WtEn= 0.00D+00
 Coeff-Com:  0.172D-03-0.203D-03 0.598D-03 0.108D-02 0.750D-02 0.142D-01
 Coeff-Com: -0.267D-01-0.238D+00 0.209D-01 0.122D+01
 Coeff:      0.172D-03-0.203D-03 0.598D-03 0.108D-02 0.750D-02 0.142D-01
 Coeff:     -0.267D-01-0.238D+00 0.209D-01 0.122D+01
 Gap=     0.238 Goal=   None    Shift=    0.000
 RMSDP=3.09D-05 MaxDP=2.10D-03 DE=-2.72D-06 OVMax= 1.14D-03

 Cycle  11  Pass 1  IDiag  1:
 RMSU=  9.80D-06    CP:  4.69D-01  3.00D+00  1.67D+00  6.98D-01  6.90D-01
                    CP:  9.80D-01  1.33D+00  1.47D+00  1.28D+00  1.94D+00
 E= -3010.54381046068     Delta-E=       -0.000001120762 Rises=F Damp=F
 DIIS: error= 7.95D-06 at cycle  11 NSaved=  11.
 NSaved=11 IEnMin=11 EnMin= -3010.54381046068     IErMin=11 ErrMin= 7.95D-06
 ErrMax= 7.95D-06  0.00D+00 EMaxC= 1.00D-01 BMatC= 2.63D-08 BMatP= 1.29D-07
 IDIUse=1 WtCom= 1.00D+00 WtEn= 0.00D+00
 Coeff-Com: -0.551D-03 0.749D-03 0.162D-03 0.131D-02 0.567D-02 0.117D-01
 Coeff-Com:  0.709D-03-0.114D+00-0.130D+00 0.363D+00 0.861D+00
 Coeff:     -0.551D-03 0.749D-03 0.162D-03 0.131D-02 0.567D-02 0.117D-01
 Coeff:      0.709D-03-0.114D+00-0.130D+00 0.363D+00 0.861D+00
 Gap=     0.238 Goal=   None    Shift=    0.000
 RMSDP=9.77D-06 MaxDP=6.36D-04 DE=-1.12D-06 OVMax= 4.63D-04

 Cycle  12  Pass 1  IDiag  1:
 RMSU=  4.47D-06    CP:  4.69D-01  3.00D+00  1.67D+00  6.98D-01  6.91D-01
                    CP:  9.79D-01  1.33D+00  1.45D+00  1.32D+00  2.20D+00
                    CP:  1.32D+00
 E= -3010.54381064994     Delta-E=       -0.000000189261 Rises=F Damp=F
 DIIS: error= 5.17D-06 at cycle  12 NSaved=  12.
 NSaved=12 IEnMin=12 EnMin= -3010.54381064994     IErMin=12 ErrMin= 5.17D-06
 ErrMax= 5.17D-06  0.00D+00 EMaxC= 1.00D-01 BMatC= 1.03D-08 BMatP= 2.63D-08
 IDIUse=1 WtCom= 1.00D+00 WtEn= 0.00D+00
 Coeff-Com: -0.243D-03 0.322D-03-0.740D-04 0.206D-03-0.101D-02-0.178D-02
 Coeff-Com:  0.113D-01 0.484D-01-0.593D-01-0.355D+00 0.377D+00 0.980D+00
 Coeff:     -0.243D-03 0.322D-03-0.740D-04 0.206D-03-0.101D-02-0.178D-02
 Coeff:      0.113D-01 0.484D-01-0.593D-01-0.355D+00 0.377D+00 0.980D+00
 Gap=     0.238 Goal=   None    Shift=    0.000
 RMSDP=1.06D-05 MaxDP=9.12D-04 DE=-1.89D-07 OVMax= 3.42D-04

 Cycle  13  Pass 1  IDiag  1:
 RMSU=  2.43D-06    CP:  4.69D-01  3.00D+00  1.68D+00  6.98D-01  6.92D-01
                    CP:  9.77D-01  1.33D+00  1.42D+00  1.31D+00  2.51D+00
                    CP:  1.63D+00  1.34D+00
 E= -3010.54381071307     Delta-E=       -0.000000063126 Rises=F Damp=F
 DIIS: error= 1.47D-06 at cycle  13 NSaved=  13.
 NSaved=13 IEnMin=13 EnMin= -3010.54381071307     IErMin=13 ErrMin= 1.47D-06
 ErrMax= 1.47D-06  0.00D+00 EMaxC= 1.00D-01 BMatC= 8.17D-10 BMatP= 1.03D-08
 IDIUse=1 WtCom= 1.00D+00 WtEn= 0.00D+00
 Coeff-Com: -0.237D-04 0.301D-04-0.397D-04-0.789D-04-0.810D-03-0.161D-02
 Coeff-Com:  0.236D-02 0.183D-01 0.612D-02-0.988D-01-0.182D-01 0.105D+00
 Coeff-Com:  0.988D+00
 Coeff:     -0.237D-04 0.301D-04-0.397D-04-0.789D-04-0.810D-03-0.161D-02
 Coeff:      0.236D-02 0.183D-01 0.612D-02-0.988D-01-0.182D-01 0.105D+00
 Coeff:      0.988D+00
 Gap=     0.238 Goal=   None    Shift=    0.000
 RMSDP=3.86D-06 MaxDP=3.84D-04 DE=-6.31D-08 OVMax= 8.71D-05

 Cycle  14  Pass 1  IDiag  1:
 RMSU=  1.23D-06    CP:  4.69D-01  3.00D+00  1.68D+00  6.98D-01  6.92D-01
                    CP:  9.77D-01  1.33D+00  1.40D+00  1.34D+00  2.53D+00
                    CP:  1.62D+00  1.67D+00  1.59D+00
 E= -3010.54381071782     Delta-E=       -0.000000004748 Rises=F Damp=F
 DIIS: error= 9.91D-07 at cycle  14 NSaved=  14.
 NSaved=14 IEnMin=14 EnMin= -3010.54381071782     IErMin=14 ErrMin= 9.91D-07
 ErrMax= 9.91D-07  0.00D+00 EMaxC= 1.00D-01 BMatC= 2.37D-10 BMatP= 8.17D-10
 IDIUse=1 WtCom= 1.00D+00 WtEn= 0.00D+00
 Coeff-Com:  0.141D-04-0.189D-04-0.122D-04-0.609D-04-0.332D-04-0.729D-04
 Coeff-Com: -0.119D-02-0.541D-02 0.147D-01 0.430D-01-0.737D-01-0.186D+00
 Coeff-Com:  0.359D+00 0.850D+00
 Coeff:      0.141D-04-0.189D-04-0.122D-04-0.609D-04-0.332D-04-0.729D-04
 Coeff:     -0.119D-02-0.541D-02 0.147D-01 0.430D-01-0.737D-01-0.186D+00
 Coeff:      0.359D+00 0.850D+00
 Gap=     0.238 Goal=   None    Shift=    0.000
 RMSDP=1.60D-06 MaxDP=1.60D-04 DE=-4.75D-09 OVMax= 2.88D-05

 Cycle  15  Pass 1  IDiag  1:
 RMSU=  2.43D-07    CP:  4.69D-01  3.00D+00  1.68D+00  6.98D-01  6.92D-01
                    CP:  9.77D-01  1.33D+00  1.40D+00  1.35D+00  2.54D+00
                    CP:  1.60D+00  1.75D+00  1.88D+00  1.28D+00
 E= -3010.54381071866     Delta-E=       -0.000000000840 Rises=F Damp=F
 DIIS: error= 2.88D-07 at cycle  15 NSaved=  15.
 NSaved=15 IEnMin=15 EnMin= -3010.54381071866     IErMin=15 ErrMin= 2.88D-07
 ErrMax= 2.88D-07  0.00D+00 EMaxC= 1.00D-01 BMatC= 2.87D-11 BMatP= 2.37D-10
 IDIUse=1 WtCom= 1.00D+00 WtEn= 0.00D+00
 Coeff-Com:  0.675D-06-0.638D-06 0.102D-05 0.122D-05 0.122D-03 0.247D-03
 Coeff-Com: -0.583D-03-0.434D-02 0.274D-02 0.255D-01-0.117D-01-0.667D-01
 Coeff-Com: -0.823D-01 0.186D+00 0.951D+00
 Coeff:      0.675D-06-0.638D-06 0.102D-05 0.122D-05 0.122D-03 0.247D-03
 Coeff:     -0.583D-03-0.434D-02 0.274D-02 0.255D-01-0.117D-01-0.667D-01
 Coeff:     -0.823D-01 0.186D+00 0.951D+00
 Gap=     0.238 Goal=   None    Shift=    0.000
 RMSDP=7.78D-07 MaxDP=7.62D-05 DE=-8.40D-10 OVMax= 1.12D-05

 Cycle  16  Pass 1  IDiag  1:
 RMSU=  1.26D-07    CP:  4.69D-01  3.00D+00  1.68D+00  6.98D-01  6.92D-01
                    CP:  9.77D-01  1.33D+00  1.40D+00  1.35D+00  2.54D+00
                    CP:  1.58D+00  1.78D+00  2.02D+00  1.44D+00  1.24D+00
 E= -3010.54381071883     Delta-E=       -0.000000000166 Rises=F Damp=F
 DIIS: error= 1.35D-07 at cycle  16 NSaved=  16.
 NSaved=16 IEnMin=16 EnMin= -3010.54381071883     IErMin=16 ErrMin= 1.35D-07
 ErrMax= 1.35D-07  0.00D+00 EMaxC= 1.00D-01 BMatC= 3.87D-12 BMatP= 2.87D-11
 IDIUse=1 WtCom= 1.00D+00 WtEn= 0.00D+00
 Coeff-Com: -0.685D-06 0.100D-05 0.257D-05 0.729D-05 0.178D-04 0.379D-04
 Coeff-Com:  0.194D-04 0.384D-04-0.123D-02-0.833D-03 0.786D-02 0.983D-02
 Coeff-Com: -0.533D-01-0.622D-01 0.152D+00 0.948D+00
 Coeff:     -0.685D-06 0.100D-05 0.257D-05 0.729D-05 0.178D-04 0.379D-04
 Coeff:      0.194D-04 0.384D-04-0.123D-02-0.833D-03 0.786D-02 0.983D-02
 Coeff:     -0.533D-01-0.622D-01 0.152D+00 0.948D+00
 Gap=     0.238 Goal=   None    Shift=    0.000
 RMSDP=1.31D-07 MaxDP=9.95D-06 DE=-1.66D-10 OVMax= 4.42D-06

 Cycle  17  Pass 1  IDiag  1:
 RMSU=  4.70D-08    CP:  4.69D-01  3.00D+00  1.68D+00  6.98D-01  6.92D-01
                    CP:  9.77D-01  1.33D+00  1.40D+00  1.35D+00  2.54D+00
                    CP:  1.58D+00  1.79D+00  2.04D+00  1.47D+00  1.40D+00
                    CP:  1.24D+00
 E= -3010.54381071886     Delta-E=       -0.000000000034 Rises=F Damp=F
 DIIS: error= 7.65D-08 at cycle  17 NSaved=  17.
 NSaved=17 IEnMin=17 EnMin= -3010.54381071886     IErMin=17 ErrMin= 7.65D-08
 ErrMax= 7.65D-08  0.00D+00 EMaxC= 1.00D-01 BMatC= 2.09D-12 BMatP= 3.87D-12
 IDIUse=1 WtCom= 1.00D+00 WtEn= 0.00D+00
 Coeff-Com: -0.222D-05 0.293D-05 0.240D-06 0.440D-05-0.157D-04-0.340D-04
 Coeff-Com:  0.155D-03 0.108D-02-0.136D-02-0.660D-02 0.602D-02 0.189D-01
 Coeff-Com:  0.168D-02-0.687D-01-0.218D+00 0.426D+00 0.841D+00
 Coeff:     -0.222D-05 0.293D-05 0.240D-06 0.440D-05-0.157D-04-0.340D-04
 Coeff:      0.155D-03 0.108D-02-0.136D-02-0.660D-02 0.602D-02 0.189D-01
 Coeff:      0.168D-02-0.687D-01-0.218D+00 0.426D+00 0.841D+00
 Gap=     0.238 Goal=   None    Shift=    0.000
 RMSDP=8.61D-08 MaxDP=7.41D-06 DE=-3.37D-11 OVMax= 3.05D-06

 Cycle  18  Pass 1  IDiag  1:
 RMSU=  2.37D-08    CP:  4.69D-01  3.00D+00  1.68D+00  6.98D-01  6.92D-01
                    CP:  9.77D-01  1.33D+00  1.40D+00  1.36D+00  2.54D+00
                    CP:  1.58D+00  1.79D+00  2.05D+00  1.49D+00  1.44D+00
                    CP:  1.52D+00  1.50D+00
 E= -3010.54381071888     Delta-E=       -0.000000000024 Rises=F Damp=F
 DIIS: error= 2.68D-08 at cycle  18 NSaved=  18.
 NSaved=18 IEnMin=18 EnMin= -3010.54381071888     IErMin=18 ErrMin= 2.68D-08
 ErrMax= 2.68D-08  0.00D+00 EMaxC= 1.00D-01 BMatC= 2.57D-13 BMatP= 2.09D-12
 IDIUse=1 WtCom= 1.00D+00 WtEn= 0.00D+00
 Coeff-Com: -0.339D-06 0.436D-06-0.824D-06-0.137D-05-0.112D-05-0.660D-05
 Coeff-Com: -0.200D-04-0.607D-04 0.235D-03 0.673D-03-0.183D-02-0.379D-02
 Coeff-Com:  0.169D-01 0.208D-01-0.666D-01-0.193D+00-0.820D-01 0.131D+01
 Coeff:     -0.339D-06 0.436D-06-0.824D-06-0.137D-05-0.112D-05-0.660D-05
 Coeff:     -0.200D-04-0.607D-04 0.235D-03 0.673D-03-0.183D-02-0.379D-02
 Coeff:      0.169D-01 0.208D-01-0.666D-01-0.193D+00-0.820D-01 0.131D+01
 Gap=     0.238 Goal=   None    Shift=    0.000
 RMSDP=6.84D-08 MaxDP=9.00D-06 DE=-2.36D-11 OVMax= 2.14D-06

 Cycle  19  Pass 1  IDiag  1:
 RMSU=  9.52D-09    CP:  4.69D-01  3.00D+00  1.68D+00  6.98D-01  6.92D-01
                    CP:  9.77D-01  1.33D+00  1.39D+00  1.36D+00  2.55D+00
                    CP:  1.58D+00  1.78D+00  2.05D+00  1.49D+00  1.45D+00
                    CP:  1.68D+00  1.99D+00  1.80D+00
 E= -3010.54381071889     Delta-E=       -0.000000000006 Rises=F Damp=F
 DIIS: error= 1.06D-08 at cycle  19 NSaved=  19.
 NSaved=19 IEnMin=19 EnMin= -3010.54381071889     IErMin=19 ErrMin= 1.06D-08
 ErrMax= 1.06D-08  0.00D+00 EMaxC= 1.00D-01 BMatC= 4.30D-14 BMatP= 2.57D-13
 IDIUse=1 WtCom= 1.00D+00 WtEn= 0.00D+00
 Coeff-Com:  0.236D-06-0.312D-06-0.133D-06-0.772D-06 0.152D-05 0.136D-05
 Coeff-Com: -0.253D-04-0.148D-03 0.254D-03 0.912D-03-0.111D-02-0.307D-02
 Coeff-Com:  0.173D-02 0.108D-01 0.242D-01-0.657D-01-0.161D+00 0.112D+00
 Coeff-Com:  0.108D+01
 Coeff:      0.236D-06-0.312D-06-0.133D-06-0.772D-06 0.152D-05 0.136D-05
 Coeff:     -0.253D-04-0.148D-03 0.254D-03 0.912D-03-0.111D-02-0.307D-02
 Coeff:      0.173D-02 0.108D-01 0.242D-01-0.657D-01-0.161D+00 0.112D+00
 Coeff:      0.108D+01
 Gap=     0.238 Goal=   None    Shift=    0.000
 RMSDP=1.85D-08 MaxDP=1.10D-06 DE=-5.91D-12 OVMax= 7.54D-07

 Cycle  20  Pass 1  IDiag  1:
 RMSU=  3.31D-09    CP:  4.69D-01  3.00D+00  1.68D+00  6.98D-01  6.92D-01
                    CP:  9.77D-01  1.33D+00  1.39D+00  1.36D+00  2.55D+00
                    CP:  1.58D+00  1.79D+00  2.05D+00  1.49D+00  1.44D+00
                    CP:  1.71D+00  2.14D+00  2.11D+00  1.40D+00
 E= -3010.54381071893     Delta-E=       -0.000000000040 Rises=F Damp=F
 DIIS: error= 5.14D-09 at cycle  20 NSaved=  20.
 NSaved=20 IEnMin=20 EnMin= -3010.54381071893     IErMin=20 ErrMin= 5.14D-09
 ErrMax= 5.14D-09  0.00D+00 EMaxC= 1.00D-01 BMatC= 1.02D-14 BMatP= 4.30D-14
 IDIUse=1 WtCom= 1.00D+00 WtEn= 0.00D+00
 Coeff-Com:  0.904D-07-0.117D-06 0.101D-06 0.777D-07 0.876D-06 0.169D-05
 Coeff-Com: -0.282D-05-0.374D-04 0.442D-04 0.125D-03 0.426D-04-0.171D-03
 Coeff-Com: -0.265D-02-0.117D-02 0.222D-01 0.217D-01-0.436D-01-0.224D+00
 Coeff-Com:  0.414D+00 0.814D+00
 Coeff:      0.904D-07-0.117D-06 0.101D-06 0.777D-07 0.876D-06 0.169D-05
 Coeff:     -0.282D-05-0.374D-04 0.442D-04 0.125D-03 0.426D-04-0.171D-03
 Coeff:     -0.265D-02-0.117D-02 0.222D-01 0.217D-01-0.436D-01-0.224D+00
 Coeff:      0.414D+00 0.814D+00
 Gap=     0.238 Goal=   None    Shift=    0.000
 RMSDP=6.53D-09 MaxDP=7.60D-07 DE=-4.05D-11 OVMax= 1.79D-07

 SCF Done:  E(RwB97XD) =  -3010.54381072     A.U. after   20 cycles
            NFock= 20  Conv=0.65D-08     -V/T= 2.0016
 KE= 3.005827717199D+03 PE=-8.697513688675D+03 EE= 1.909665975426D+03
 Leave Link  502 at Thu May  2 14:19:30 2024, MaxMem=   134217728 cpu:            1245.5 elap:            1246.0
 (Enter /software/gaussian/g16-c01/sse4/g16/l601.exe)
 Copying SCF densities to generalized density rwf, IOpCl= 0 IROHF=0.

 **********************************************************************

            Population analysis using the SCF Density.

 **********************************************************************

 Alpha  occ. eigenvalues -- -483.29376 -62.84370 -56.64090 -56.63488 -56.63470
 Alpha  occ. eigenvalues --  -19.46247 -19.46007 -14.85491 -10.58828 -10.56712
 Alpha  occ. eigenvalues --  -10.56343 -10.56291 -10.53496 -10.52222  -9.00153
 Alpha  occ. eigenvalues --   -6.82904  -6.80934  -6.80880  -2.92790  -2.92279
 Alpha  occ. eigenvalues --   -2.92236  -2.90660  -2.90659  -1.49788  -1.32756
 Alpha  occ. eigenvalues --   -1.21727  -1.12307  -1.11583  -1.03638  -0.99551
 Alpha  occ. eigenvalues --   -0.94666  -0.90083  -0.84650  -0.80577  -0.79858
 Alpha  occ. eigenvalues --   -0.79600  -0.77381  -0.75983  -0.74920  -0.71178
 Alpha  occ. eigenvalues --   -0.67873  -0.67040  -0.62617  -0.58842  -0.57259
 Alpha  occ. eigenvalues --   -0.56458  -0.55779  -0.53998  -0.53036
 Alpha virt. eigenvalues --   -0.29243  -0.20171  -0.14330  -0.12594  -0.12075
 Alpha virt. eigenvalues --   -0.08217  -0.06255  -0.05479  -0.04343  -0.03298
 Alpha virt. eigenvalues --   -0.01794  -0.01168  -0.00465  -0.00118   0.00802
 Alpha virt. eigenvalues --    0.01721   0.02785   0.03448   0.04042   0.04758
 Alpha virt. eigenvalues --    0.05234   0.05872   0.06194   0.06700   0.06947
 Alpha virt. eigenvalues --    0.07713   0.08168   0.09045   0.09430   0.10034
 Alpha virt. eigenvalues --    0.10689   0.10975   0.11723   0.12089   0.12891
 Alpha virt. eigenvalues --    0.13501   0.14210   0.15057   0.15881   0.16176
 Alpha virt. eigenvalues --    0.17267   0.17471   0.17941   0.19701   0.20771
 Alpha virt. eigenvalues --    0.21491   0.21694   0.21971   0.22760   0.24692
 Alpha virt. eigenvalues --    0.26309   0.27406   0.28564   0.31550   0.31842
 Alpha virt. eigenvalues --    0.33518   0.34701   0.35020   0.36009   0.37549
 Alpha virt. eigenvalues --    0.38050   0.38796   0.40034   0.42049   0.43018
 Alpha virt. eigenvalues --    0.43955   0.44648   0.45633   0.46755   0.48353
 Alpha virt. eigenvalues --    0.49275   0.51682   0.51707   0.53110   0.53972
 Alpha virt. eigenvalues --    0.55794   0.57209   0.57408   0.59644   0.60820
 Alpha virt. eigenvalues --    0.62443   0.63171   0.66016   0.68778   0.69502
 Alpha virt. eigenvalues --    0.70595   0.71463   0.73826   0.74567   0.75380
 Alpha virt. eigenvalues --    0.76642   0.77406   0.79683   0.84973   0.86405
 Alpha virt. eigenvalues --    0.87718   0.88313   0.91772   0.94767   0.98554
 Alpha virt. eigenvalues --    1.01109   1.03134   1.04108   1.06274   1.07358
 Alpha virt. eigenvalues --    1.09862   1.12922   1.13496   1.14084   1.17987
 Alpha virt. eigenvalues --    1.21847   1.23581   1.28447   1.34453   1.36768
 Alpha virt. eigenvalues --    1.37597   1.39651   1.44281   1.55879   1.57321
 Alpha virt. eigenvalues --    1.57616   1.60232   1.61968   1.64451   1.66662
 Alpha virt. eigenvalues --    1.68526   1.72102   1.74380   1.75993   1.80101
 Alpha virt. eigenvalues --    1.84682   1.85762   1.87613   1.96987   1.97620
 Alpha virt. eigenvalues --    1.98677   2.03386   2.03960   2.08033   2.09995
 Alpha virt. eigenvalues --    2.13956   2.15454   2.22866   2.24136   2.27345
 Alpha virt. eigenvalues --    2.33898   2.40714   2.42036   2.45137   2.53796
 Alpha virt. eigenvalues --    2.59082   2.63650   2.66412   2.69256   2.71842
 Alpha virt. eigenvalues --    2.73919   2.76580   2.77929   2.80895   2.82934
 Alpha virt. eigenvalues --    2.94159   2.98807   3.01897   3.06985   3.09513
 Alpha virt. eigenvalues --    3.15281   3.16513   3.18431   3.22815   3.26630
 Alpha virt. eigenvalues --    3.27830   3.38334   3.46936   3.50670   3.54866
 Alpha virt. eigenvalues --    3.58239   3.69065   3.74387   3.84376   3.88065
 Alpha virt. eigenvalues --    4.12063   4.12945   4.21311   4.25535   4.44565
 Alpha virt. eigenvalues --    4.45987   4.55420   4.60074   4.93519   4.96606
 Alpha virt. eigenvalues --    5.05108   5.10068   5.62144   6.15254   6.70097
 Alpha virt. eigenvalues --    7.50976   7.53281   7.63333  23.22835  23.61908
 Alpha virt. eigenvalues --   23.73455  23.78629  23.96343  24.02411  35.31672
 Alpha virt. eigenvalues --   47.96012  49.85328  49.93996 289.83617 289.85953
 Alpha virt. eigenvalues --  289.985561020.97144
          Condensed to atoms (all electrons):
               1          2          3          4          5          6
     1  C    8.587301  -3.610986   1.089153  -0.263378   0.291438   0.072389
     2  C   -3.610986  18.535026  -4.954688   0.600374  -0.023737   0.140446
     3  C    1.089153  -4.954688  18.318770  -1.502260   0.024125   0.170877
     4  C   -0.263378   0.600374  -1.502260   6.714171   0.041962  -0.023707
     5  H    0.291438  -0.023737   0.024125   0.041962   0.381793  -0.002505
     6  H    0.072389   0.140446   0.170877  -0.023707  -0.002505   0.354684
     7  H    0.014676  -0.026690   0.020993   0.298937  -0.003322  -0.000010
     8  N   -0.122603   0.132457  -1.566213  -0.007122  -0.000537  -0.036633
     9  O   -0.045997   0.279054  -0.158477  -0.004879  -0.000043  -0.002940
    10  O    0.318731  -0.275261  -0.225198  -0.028650   0.000040   0.025073
    11  C    0.941053  -0.983685   2.341115  -0.475903  -0.031564   0.013018
    12  H   -0.002729   0.015251   0.004121   0.004399   0.000018  -0.000019
    13  C   -1.138618  -3.897093  -7.291086   0.960409   0.027311  -0.013963
    14  H   -0.011655   0.023980   0.042747   0.011935  -0.000035   0.000032
    15  Br  -0.014687  -0.146577  -0.213024   0.039145  -0.000033  -0.000767
               7          8          9         10         11         12
     1  C    0.014676  -0.122603  -0.045997   0.318731   0.941053  -0.002729
     2  C   -0.026690   0.132457   0.279054  -0.275261  -0.983685   0.015251
     3  C    0.020993  -1.566213  -0.158477  -0.225198   2.341115   0.004121
     4  C    0.298937  -0.007122  -0.004879  -0.028650  -0.475903   0.004399
     5  H   -0.003322  -0.000537  -0.000043   0.000040  -0.031564   0.000018
     6  H   -0.000010  -0.036633  -0.002940   0.025073   0.013018  -0.000019
     7  H    0.341256   0.000071  -0.000003   0.000003   0.047472  -0.001951
     8  N    0.000071   7.625358   0.105581   0.149789  -0.203829   0.000930
     9  O   -0.000003   0.105581   7.794139  -0.004410   0.224717   0.000045
    10  O    0.000003   0.149789  -0.004410   7.942073   0.020337  -0.000017
    11  C    0.047472  -0.203829   0.224717   0.020337   8.249152   0.325432
    12  H   -0.001951   0.000930   0.000045  -0.000017   0.325432   0.287119
    13  C   -0.018886   1.047405  -0.297126   0.072370  -4.337507  -0.023633
    14  H   -0.000045  -0.037503   0.013604  -0.002152  -0.045518  -0.003957
    15  Br  -0.000425   0.157359  -0.056542   0.003769   0.100784  -0.002090
              13         14         15
     1  C   -1.138618  -0.011655  -0.014687
     2  C   -3.897093   0.023980  -0.146577
     3  C   -7.291086   0.042747  -0.213024
     4  C    0.960409   0.011935   0.039145
     5  H    0.027311  -0.000035  -0.000033
     6  H   -0.013963   0.000032  -0.000767
     7  H   -0.018886  -0.000045  -0.000425
     8  N    1.047405  -0.037503   0.157359
     9  O   -0.297126   0.013604  -0.056542
    10  O    0.072370  -0.002152   0.003769
    11  C   -4.337507  -0.045518   0.100784
    12  H   -0.023633  -0.003957  -0.002090
    13  C   20.689094   0.300355   0.303941
    14  H    0.300355   0.302242  -0.032823
    15  Br   0.303941  -0.032823  34.590759
 Mulliken charges:
               1
     1  C   -0.104088
     2  C    0.192131
     3  C   -0.100956
     4  C   -0.365433
     5  H    0.295089
     6  H    0.304024
     7  H    0.327925
     8  N   -0.244508
     9  O    0.153278
    10  O    0.003504
    11  C   -0.185075
    12  H    0.397080
    13  C   -0.382972
    14  H    0.438791
    15  Br   0.271211
 Sum of Mulliken charges =   1.00000
 Mulliken charges with hydrogens summed into heavy atoms:
               1
     1  C    0.191002
     2  C    0.496155
     3  C   -0.100956
     4  C   -0.037509
     8  N   -0.244508
     9  O    0.153278
    10  O    0.003504
    11  C    0.212005
    13  C    0.055819
    15  Br   0.271211
 Electronic spatial extent (au):  <R**2>=           3943.9362
 Charge=              1.0000 electrons
 Dipole moment (field-independent basis, Debye):
    X=              2.9555    Y=             -4.3151    Z=             -1.2245  Tot=              5.3717
 Quadrupole moment (field-independent basis, Debye-Ang):
   XX=            -67.6814   YY=            -49.5907   ZZ=            -60.9408
   XY=            -10.0930   XZ=             -3.5970   YZ=              4.2620
 Traceless Quadrupole moment (field-independent basis, Debye-Ang):
   XX=             -8.2771   YY=              9.8136   ZZ=             -1.5366
   XY=            -10.0930   XZ=             -3.5970   YZ=              4.2620
 Octapole moment (field-independent basis, Debye-Ang**2):
  XXX=           -513.8789  YYY=             71.6563  ZZZ=             79.1785  XYY=           -132.7714
  XXY=             -1.5567  XXZ=             23.1670  XZZ=           -129.4631  YZZ=             10.8239
  YYZ=             20.4360  XYZ=             11.9629
 Hexadecapole moment (field-independent basis, Debye-Ang**3):
 XXXX=          -3460.3172 YYYY=           -682.4258 ZZZZ=           -384.6178 XXXY=             74.9960
 XXXZ=            178.8255 YYYX=            145.1467 YYYZ=           -155.3742 ZZZX=            158.9682
 ZZZY=           -132.5122 XXYY=           -616.5268 XXZZ=           -518.1969 YYZZ=           -158.9352
 XXYZ=            -31.2459 YYXZ=             37.7416 ZZXY=             15.1409
 N-N= 7.714761853309D+02 E-N=-8.697513688806D+03  KE= 3.005827717199D+03
 No NMR shielding tensors so no spin-rotation constants.
 Leave Link  601 at Thu May  2 14:19:38 2024, MaxMem=   134217728 cpu:               7.5 elap:               7.5
 (Enter /software/gaussian/g16-c01/sse4/g16/l9999.exe)
 Unable to Open any file for archive entry.
 1\1\GINC-BHX0013\SP\RwB97XD\6-311+G(d)\C6H5Br1N1O2(1+)\BWEIGHT\02-May-
 2024\0\\#P wB97XD/6-311+G* NoSymm #P Field=Y+116\\TitleMe\\1,1\C,0,0.5
 193,1.233,-0.0319\C,0,1.9445,1.2692,-0.0367\C,0,2.6204,0.0928,-0.025\C
 ,0,-0.196,0.0301,0.001\H,0,-0.0207,2.1742,-0.0434\H,0,2.4828,2.2089,-0
 .0361\H,0,-1.2777,0.0399,0.0117\N,0,4.0921,0.0959,0.0366\O,0,4.6393,-1
 .0217,0.1446\O,0,4.6649,1.1984,-0.0233\C,0,0.4943,-1.1671,0.021\H,0,-0
 .0325,-2.1149,0.0545\C,0,1.9629,-1.2165,-0.0211\H,0,2.4436,-1.9631,0.6
 151\Br,0,2.173,-1.9491,-1.9062\\Version=ES64L-G16RevC.01\HF=-3010.5438
 107\RMSD=6.526e-09\Dipole=-3.1664121,-0.4695852,0.7674666\Quadrupole=-
 6.1537951,7.2961881,-1.142393,-7.5038662,-2.6742727,3.1686928\PG=C01 [
 X(C6H5Br1N1O2)]\\@
 The archive entry for this job was punched.


 OLD HORSE! OLD HORSE! WHAT BROUGHT YOU HERE?
 FROM SACARAP' TO PORTLAND PIER
 I'VE CARTED STONE THIS MANY A YEAR;
 TILL, KILLED BY BLOWS AND SORE ABUSE,
 THEY SALTED ME DOWN FOR SAILORS' USE.
 THE SAILORS THEY DO ME DESPISE;
 THEY TURN ME OVER AND DAMN MY EYES;
 CUT OFF MY MEAT, AND SCRAPE MY BONES,
 AND PITCH ME OVER TO DAVY JONES.

    SAILORS' COMPLAINT ABOUT THE BEEF
    SERVED ON SHIPBOARD, CIRCA 1835.
 Job cpu time:       0 days  0 hours 21 minutes 56.3 seconds.
 Elapsed time:       0 days  0 hours 21 minutes 56.7 seconds.
 File lengths (MBytes):  RWF=     40 Int=      0 D2E=      0 Chk=     32 Scr=      1
 Normal termination of Gaussian 16 at Thu May  2 14:19:39 2024.
