 Entering Gaussian System, Link 0=g16
 Initial command:
 /software/gaussian/g16-a03/l1.exe "/local_scratch/6484738/Gau-29141.inp" -scrdir="/local_scratch/6484738/"
 Entering Link 1 = /software/gaussian/g16-a03/l1.exe PID=     29241.
  
 Copyright (c) 1988,1990,1992,1993,1995,1998,2003,2009,2016,
            Gaussian, Inc.  All Rights Reserved.
  
 This is part of the Gaussian(R) 16 program.  It is based on
 the Gaussian(R) 09 system (copyright 2009, Gaussian, Inc.),
 the Gaussian(R) 03 system (copyright 2003, Gaussian, Inc.),
 the Gaussian(R) 98 system (copyright 1998, Gaussian, Inc.),
 the Gaussian(R) 94 system (copyright 1995, Gaussian, Inc.),
 the Gaussian 92(TM) system (copyright 1992, Gaussian, Inc.),
 the Gaussian 90(TM) system (copyright 1990, Gaussian, Inc.),
 the Gaussian 88(TM) system (copyright 1988, Gaussian, Inc.),
 the Gaussian 86(TM) system (copyright 1986, Carnegie Mellon
 University), and the Gaussian 82(TM) system (copyright 1983,
 Carnegie Mellon University). Gaussian is a federally registered
 trademark of Gaussian, Inc.
  
 This software contains proprietary and confidential information,
 including trade secrets, belonging to Gaussian, Inc.
  
 This software is provided under written license and may be
 used, copied, transmitted, or stored only in accord with that
 written license.
  
 The following legend is applicable only to US Government
 contracts under FAR:
  
                    RESTRICTED RIGHTS LEGEND
  
 Use, reproduction and disclosure by the US Government is
 subject to restrictions as set forth in subparagraphs (a)
 and (c) of the Commercial Computer Software - Restricted
 Rights clause in FAR 52.227-19.
  
 Gaussian, Inc.
 340 Quinnipiac St., Bldg. 40, Wallingford CT 06492
  
  
 ---------------------------------------------------------------
 Warning -- This program may not be used in any manner that
 competes with the business of Gaussian, Inc. or will provide
 assistance to any competitor of Gaussian, Inc.  The licensee
 of this program is prohibited from giving any competitor of
 Gaussian, Inc. access to this program.  By using this program,
 the user acknowledges that Gaussian, Inc. is engaged in the
 business of creating and licensing software in the field of
 computational chemistry and represents and warrants to the
 licensee that it is not a competitor of Gaussian, Inc. and that
 it will not use this program in any manner prohibited above.
 ---------------------------------------------------------------
  

 Cite this work as:
 Gaussian 16, Revision A.03,
 M. J. Frisch, G. W. Trucks, H. B. Schlegel, G. E. Scuseria, 
 M. A. Robb, J. R. Cheeseman, G. Scalmani, V. Barone, 
 G. A. Petersson, H. Nakatsuji, X. Li, M. Caricato, A. V. Marenich, 
 J. Bloino, B. G. Janesko, R. Gomperts, B. Mennucci, H. P. Hratchian, 
 J. V. Ortiz, A. F. Izmaylov, J. L. Sonnenberg, D. Williams-Young, 
 F. Ding, F. Lipparini, F. Egidi, J. Goings, B. Peng, A. Petrone, 
 T. Henderson, D. Ranasinghe, V. G. Zakrzewski, J. Gao, N. Rega, 
 G. Zheng, W. Liang, M. Hada, M. Ehara, K. Toyota, R. Fukuda, 
 J. Hasegawa, M. Ishida, T. Nakajima, Y. Honda, O. Kitao, H. Nakai, 
 T. Vreven, K. Throssell, J. A. Montgomery, Jr., J. E. Peralta, 
 F. Ogliaro, M. J. Bearpark, J. J. Heyd, E. N. Brothers, K. N. Kudin, 
 V. N. Staroverov, T. A. Keith, R. Kobayashi, J. Normand, 
 K. Raghavachari, A. P. Rendell, J. C. Burant, S. S. Iyengar, 
 J. Tomasi, M. Cossi, J. M. Millam, M. Klene, C. Adamo, R. Cammi, 
 J. W. Ochterski, R. L. Martin, K. Morokuma, O. Farkas, 
 J. B. Foresman, and D. J. Fox, Gaussian, Inc., Wallingford CT, 2016.
 
 ******************************************
 Gaussian 16:  ES64L-G16RevA.03 25-Dec-2016
                17-Sep-2021 
 ******************************************
 %chk=geometry.chk
 %mem=2GB
 %nprocshared=1
 Will use up to    1 processors via shared memory.
 --------------------------------------------------------------------
 #p B3LYP/6-311+G** #p TD=(singlets,nstates=30)IOp(6/8=3) IOp(9/40=4)
 --------------------------------------------------------------------
 1/38=1,172=1/1;
 2/12=2,17=6,18=5,40=1/2;
 3/5=4,6=6,7=111,11=9,25=1,30=1,74=-5/1,2,3,8;
 4//1;
 5/5=2,38=5/2;
 8/6=1,10=2,108=30/1;
 9/40=4,41=30,42=1,48=1,70=2/14;
 6/7=2,8=3,9=2,10=2/1;
 99/5=1,9=1/99;
 Leave Link    1 at Fri Sep 17 10:51:48 2021, MaxMem=   268435456 cpu:               0.1 elap:               0.2
 (Enter /software/gaussian/g16-a03/l101.exe)
 ------------------------------
 Scan Step 7, Bond Length 0.535
 ------------------------------
 Symbolic Z-matrix:
 Charge =  0 Multiplicity = 1
 C                     0.        0.       -0.52736 
 H                     0.        0.93726  -1.11871 
 H                     0.       -0.93726  -1.11871 
 O                     0.        0.        0.00764 
 
 ITRead=  0  0  0  0
 MicOpt= -1 -1 -1 -1
 NAtoms=      4 NQM=        4 NQMF=       0 NMMI=      0 NMMIF=      0
                NMic=       0 NMicF=      0.
                    Isotopes and Nuclear Properties:
 (Nuclear quadrupole moments (NQMom) in fm**2, nuclear magnetic moments (NMagM)
  in nuclear magnetons)

  Atom         1           2           3           4
 IAtWgt=          12           1           1          16
 AtmWgt=  12.0000000   1.0078250   1.0078250  15.9949146
 NucSpn=           0           1           1           0
 AtZEff=  -0.0000000  -0.0000000  -0.0000000  -0.0000000
 NQMom=    0.0000000   0.0000000   0.0000000   0.0000000
 NMagM=    0.0000000   2.7928460   2.7928460   0.0000000
 AtZNuc=   6.0000000   1.0000000   1.0000000   8.0000000
 Leave Link  101 at Fri Sep 17 10:51:48 2021, MaxMem=   268435456 cpu:               0.1 elap:               0.1
 (Enter /software/gaussian/g16-a03/l202.exe)
                          Input orientation:                          
 ---------------------------------------------------------------------
 Center     Atomic      Atomic             Coordinates (Angstroms)
 Number     Number       Type             X           Y           Z
 ---------------------------------------------------------------------
      1          6           0        0.000000    0.000000   -0.527360
      2          1           0        0.000000    0.937260   -1.118710
      3          1           0        0.000000   -0.937260   -1.118710
      4          8           0        0.000000    0.000000    0.007640
 ---------------------------------------------------------------------
                    Distance matrix (angstroms):
                    1          2          3          4
     1  C    0.000000
     2  H    1.108220   0.000000
     3  H    1.108220   1.874520   0.000000
     4  O    0.535000   1.465306   1.465306   0.000000
 Stoichiometry    CH2O
 Framework group  C2V[C2(CO),SGV(H2)]
 Deg. of freedom     3
 Full point group                 C2V     NOp   4
 Largest Abelian subgroup         C2V     NOp   4
 Largest concise Abelian subgroup C2      NOp   2
                         Standard orientation:                         
 ---------------------------------------------------------------------
 Center     Atomic      Atomic             Coordinates (Angstroms)
 Number     Number       Type             X           Y           Z
 ---------------------------------------------------------------------
      1          6           0        0.000000    0.000000   -0.193581
      2          1           0        0.000000    0.937260   -0.784931
      3          1           0       -0.000000   -0.937260   -0.784931
      4          8           0        0.000000   -0.000000    0.341419
 ---------------------------------------------------------------------
 Rotational constants (GHZ):         285.4183527         145.4170533          96.3353876
 Leave Link  202 at Fri Sep 17 10:51:48 2021, MaxMem=   268435456 cpu:               0.0 elap:               0.0
 (Enter /software/gaussian/g16-a03/l301.exe)
 Standard basis: 6-311+G(d,p) (5D, 7F)
 Ernie: Thresh=  0.10000D-02 Tol=  0.10000D-05 Strict=F.
 There are    29 symmetry adapted cartesian basis functions of A1  symmetry.
 There are     3 symmetry adapted cartesian basis functions of A2  symmetry.
 There are    11 symmetry adapted cartesian basis functions of B1  symmetry.
 There are    15 symmetry adapted cartesian basis functions of B2  symmetry.
 There are    27 symmetry adapted basis functions of A1  symmetry.
 There are     3 symmetry adapted basis functions of A2  symmetry.
 There are    11 symmetry adapted basis functions of B1  symmetry.
 There are    15 symmetry adapted basis functions of B2  symmetry.
    56 basis functions,    88 primitive gaussians,    58 cartesian basis functions
     8 alpha electrons        8 beta electrons
       nuclear repulsion energy        59.2681103779 Hartrees.
 IExCor=  402 DFT=T Ex+Corr=B3LYP ExCW=0 ScaHFX=  0.200000
 ScaDFX=  0.800000  0.720000  1.000000  0.810000 ScalE2=  1.000000  1.000000
 IRadAn=      5 IRanWt=     -1 IRanGd=            0 ICorTp=0 IEmpDi=  4
 NAtoms=    4 NActive=    4 NUniq=    3 SFac= 1.78D+00 NAtFMM=   60 NAOKFM=F Big=F
 Integral buffers will be    131072 words long.
 Regular integral format.
 Two-electron integral symmetry is turned on.
 Leave Link  301 at Fri Sep 17 10:51:48 2021, MaxMem=   268435456 cpu:               0.1 elap:               0.1
 (Enter /software/gaussian/g16-a03/l302.exe)
 NPDir=0 NMtPBC=     1 NCelOv=     1 NCel=       1 NClECP=     1 NCelD=      1
         NCelK=      1 NCelE2=     1 NClLst=     1 CellRange=     0.0.
 One-electron integrals computed using PRISM.
 One-electron integral symmetry used in STVInt
 NBasis=    56 RedAO= T EigKep=  2.86D-04  NBF=    27     3    11    15
 NBsUse=    56 1.00D-06 EigRej= -1.00D+00 NBFU=    27     3    11    15
 Precomputing XC quadrature grid using
 IXCGrd= 4 IRadAn=           5 IRanWt=          -1 IRanGd=           0 AccXCQ= 0.00D+00.
 Generated NRdTot=       0 NPtTot=           0 NUsed=           0 NTot=          32
 NSgBfM=    58    58    58    58    58 MxSgAt=     4 MxSgA2=     4.
 Leave Link  302 at Fri Sep 17 10:51:48 2021, MaxMem=   268435456 cpu:               0.3 elap:               0.3
 (Enter /software/gaussian/g16-a03/l303.exe)
 DipDrv:  MaxL=1.
 Leave Link  303 at Fri Sep 17 10:51:48 2021, MaxMem=   268435456 cpu:               0.1 elap:               0.1
 (Enter /software/gaussian/g16-a03/l308.exe)
 Leave Link  308 at Fri Sep 17 10:51:49 2021, MaxMem=   268435456 cpu:               0.1 elap:               0.1
 (Enter /software/gaussian/g16-a03/l401.exe)
 ExpMin= 4.38D-02 ExpMax= 8.59D+03 ExpMxC= 1.30D+03 IAcc=3 IRadAn=         5 AccDes= 0.00D+00
 Harris functional with IExCor=  402 and IRadAn=       5 diagonalized for initial guess.
 HarFok:  IExCor=  402 AccDes= 0.00D+00 IRadAn=         5 IDoV= 1 UseB2=F ITyADJ=14
 ICtDFT=  3500011 ScaDFX=  1.000000  1.000000  1.000000  1.000000
 FoFCou: FMM=F IPFlag=           0 FMFlag=      100000 FMFlg1=           0
         NFxFlg=           0 DoJE=T BraDBF=F KetDBF=T FulRan=T
         wScrn=  0.000000 ICntrl=       500 IOpCl=  0 I1Cent=   200000004 NGrid=           0
         NMat0=    1 NMatS0=      1 NMatT0=    0 NMatD0=    1 NMtDS0=    0 NMtDT0=    0
 Petite list used in FoFCou.
 Harris En= -110.678546418080    
 JPrj=0 DoOrth=F DoCkMO=F.
 Initial guess orbital symmetries:
       Occupied  (A1) (A1) (A1) (B2) (B1) (A1) (A1) (B2)
       Virtual   (A1) (B1) (A1) (B2) (A1) (B1) (B2) (A1) (B1) (A1)
                 (B2) (A1) (A1) (B1) (B2) (B2) (A1) (A2) (B1) (A1)
                 (B2) (A1) (A1) (B2) (A1) (B1) (A2) (B1) (B2) (A1)
                 (B2) (A1) (B1) (A1) (B2) (A1) (A2) (B2) (A1) (B1)
                 (A1) (B2) (A1) (B1) (A1) (B2) (A1) (A1)
 The electronic state of the initial guess is 1-A1.
 Leave Link  401 at Fri Sep 17 10:51:49 2021, MaxMem=   268435456 cpu:               0.6 elap:               0.6
 (Enter /software/gaussian/g16-a03/l502.exe)
 Keep R1 ints in memory in symmetry-blocked form, NReq=2159909.
 FoFCou: FMM=F IPFlag=           0 FMFlag=           0 FMFlg1=           0
         NFxFlg=           0 DoJE=F BraDBF=F KetDBF=F FulRan=T
         wScrn=  0.000000 ICntrl=       600 IOpCl=  0 I1Cent=           0 NGrid=           0
         NMat0=    1 NMatS0=   1596 NMatT0=    0 NMatD0=    1 NMtDS0=    0 NMtDT0=    0
 Petite list used in FoFCou.
 Closed shell SCF:
 Using DIIS extrapolation, IDIIS=  1040.
 NGot=   268435456 LenX=   268074384 LenY=   268070579
 Requested convergence on RMS density matrix=1.00D-08 within 128 cycles.
 Requested convergence on MAX density matrix=1.00D-06.
 Requested convergence on             energy=1.00D-06.
 No special actions if energy rises.

 Cycle   1  Pass 1  IDiag  1:
 E= -109.295649326185    
 DIIS: error= 1.69D-01 at cycle   1 NSaved=   1.
 NSaved= 1 IEnMin= 1 EnMin= -109.295649326185     IErMin= 1 ErrMin= 1.69D-01
 ErrMax= 1.69D-01  0.00D+00 EMaxC= 1.00D-01 BMatC= 1.34D+00 BMatP= 1.34D+00
 IDIUse=3 WtCom= 0.00D+00 WtEn= 1.00D+00
 Coeff-Com:  0.100D+01
 Coeff-En:   0.100D+01
 Coeff:      0.100D+01
 Gap=     0.099 Goal=   None    Shift=    0.000
 GapD=    0.099 DampG=0.500 DampE=0.250 DampFc=0.2500 IDamp=-1.
 Damping current iteration by 2.50D-01
 RMSDP=1.44D-01 MaxDP=3.27D+00              OVMax= 7.78D-01

 Cycle   2  Pass 1  IDiag  1:
 E= -109.476509938621     Delta-E=       -0.180860612436 Rises=F Damp=T
 DIIS: error= 7.23D-02 at cycle   2 NSaved=   2.
 NSaved= 2 IEnMin= 2 EnMin= -109.476509938621     IErMin= 2 ErrMin= 7.23D-02
 ErrMax= 7.23D-02  0.00D+00 EMaxC= 1.00D-01 BMatC= 2.75D-01 BMatP= 1.34D+00
 IDIUse=3 WtCom= 2.77D-01 WtEn= 7.23D-01
 Coeff-Com: -0.763D+00 0.176D+01
 Coeff-En:   0.000D+00 0.100D+01
 Coeff:     -0.211D+00 0.121D+01
 Gap=     0.133 Goal=   None    Shift=    0.000
 RMSDP=3.97D-02 MaxDP=8.31D-01 DE=-1.81D-01 OVMax= 6.69D-01

 Cycle   3  Pass 1  IDiag  1:
 E= -109.953224093909     Delta-E=       -0.476714155288 Rises=F Damp=F
 DIIS: error= 1.98D-02 at cycle   3 NSaved=   3.
 NSaved= 3 IEnMin= 3 EnMin= -109.953224093909     IErMin= 3 ErrMin= 1.98D-02
 ErrMax= 1.98D-02  0.00D+00 EMaxC= 1.00D-01 BMatC= 1.47D-02 BMatP= 2.75D-01
 IDIUse=3 WtCom= 8.02D-01 WtEn= 1.98D-01
 Coeff-Com: -0.197D-01 0.217D+00 0.803D+00
 Coeff-En:   0.000D+00 0.000D+00 0.100D+01
 Coeff:     -0.158D-01 0.174D+00 0.842D+00
 Gap=     0.194 Goal=   None    Shift=    0.000
 RMSDP=2.78D-03 MaxDP=4.03D-02 DE=-4.77D-01 OVMax= 3.00D-02

 Cycle   4  Pass 1  IDiag  1:
 E= -109.958541202691     Delta-E=       -0.005317108782 Rises=F Damp=F
 DIIS: error= 6.57D-03 at cycle   4 NSaved=   4.
 NSaved= 4 IEnMin= 4 EnMin= -109.958541202691     IErMin= 4 ErrMin= 6.57D-03
 ErrMax= 6.57D-03  0.00D+00 EMaxC= 1.00D-01 BMatC= 1.96D-03 BMatP= 1.47D-02
 IDIUse=3 WtCom= 9.34D-01 WtEn= 6.57D-02
 Coeff-Com: -0.444D-01 0.693D-01 0.164D+00 0.811D+00
 Coeff-En:   0.000D+00 0.000D+00 0.000D+00 0.100D+01
 Coeff:     -0.414D-01 0.648D-01 0.153D+00 0.824D+00
 Gap=     0.190 Goal=   None    Shift=    0.000
 RMSDP=5.57D-04 MaxDP=6.08D-03 DE=-5.32D-03 OVMax= 1.04D-02

 Cycle   5  Pass 1  IDiag  1:
 E= -109.959692010695     Delta-E=       -0.001150808004 Rises=F Damp=F
 DIIS: error= 1.03D-03 at cycle   5 NSaved=   5.
 NSaved= 5 IEnMin= 5 EnMin= -109.959692010695     IErMin= 5 ErrMin= 1.03D-03
 ErrMax= 1.03D-03  0.00D+00 EMaxC= 1.00D-01 BMatC= 5.26D-05 BMatP= 1.96D-03
 IDIUse=3 WtCom= 9.90D-01 WtEn= 1.03D-02
 Coeff-Com: -0.246D-01 0.303D-01-0.740D-03 0.227D+00 0.768D+00
 Coeff-En:   0.000D+00 0.000D+00 0.000D+00 0.000D+00 0.100D+01
 Coeff:     -0.243D-01 0.300D-01-0.732D-03 0.225D+00 0.770D+00
 Gap=     0.192 Goal=   None    Shift=    0.000
 RMSDP=1.21D-04 MaxDP=1.45D-03 DE=-1.15D-03 OVMax= 1.61D-03

 Cycle   6  Pass 1  IDiag  1:
 E= -109.959702232726     Delta-E=       -0.000010222031 Rises=F Damp=F
 DIIS: error= 7.00D-04 at cycle   6 NSaved=   6.
 NSaved= 6 IEnMin= 6 EnMin= -109.959702232726     IErMin= 6 ErrMin= 7.00D-04
 ErrMax= 7.00D-04  0.00D+00 EMaxC= 1.00D-01 BMatC= 2.13D-05 BMatP= 5.26D-05
 IDIUse=3 WtCom= 9.93D-01 WtEn= 7.00D-03
 Coeff-Com: -0.517D-02 0.761D-02-0.102D-01-0.894D-01 0.436D-01 0.105D+01
 Coeff-En:   0.000D+00 0.000D+00 0.000D+00 0.000D+00 0.000D+00 0.100D+01
 Coeff:     -0.514D-02 0.755D-02-0.101D-01-0.888D-01 0.433D-01 0.105D+01
 Gap=     0.191 Goal=   None    Shift=    0.000
 RMSDP=6.49D-05 MaxDP=7.63D-04 DE=-1.02D-05 OVMax= 1.54D-03

 Cycle   7  Pass 1  IDiag  1:
 E= -109.959717353988     Delta-E=       -0.000015121263 Rises=F Damp=F
 DIIS: error= 1.41D-04 at cycle   7 NSaved=   7.
 NSaved= 7 IEnMin= 7 EnMin= -109.959717353988     IErMin= 7 ErrMin= 1.41D-04
 ErrMax= 1.41D-04  0.00D+00 EMaxC= 1.00D-01 BMatC= 9.73D-07 BMatP= 2.13D-05
 IDIUse=3 WtCom= 9.99D-01 WtEn= 1.41D-03
 Coeff-Com: -0.190D-03 0.526D-03-0.108D-02-0.172D-01-0.559D-01-0.567D-01
 Coeff-Com:  0.113D+01
 Coeff-En:   0.000D+00 0.000D+00 0.000D+00 0.000D+00 0.000D+00 0.000D+00
 Coeff-En:   0.100D+01
 Coeff:     -0.190D-03 0.525D-03-0.108D-02-0.171D-01-0.558D-01-0.566D-01
 Coeff:      0.113D+01
 Gap=     0.191 Goal=   None    Shift=    0.000
 RMSDP=1.61D-05 MaxDP=1.64D-04 DE=-1.51D-05 OVMax= 2.60D-04

 Cycle   8  Pass 1  IDiag  1:
 E= -109.959717978336     Delta-E=       -0.000000624348 Rises=F Damp=F
 DIIS: error= 8.80D-06 at cycle   8 NSaved=   8.
 NSaved= 8 IEnMin= 8 EnMin= -109.959717978336     IErMin= 8 ErrMin= 8.80D-06
 ErrMax= 8.80D-06  0.00D+00 EMaxC= 1.00D-01 BMatC= 3.52D-09 BMatP= 9.73D-07
 IDIUse=1 WtCom= 1.00D+00 WtEn= 0.00D+00
 Coeff-Com:  0.134D-04-0.150D-04 0.965D-04 0.137D-02-0.395D-03-0.306D-01
 Coeff-Com:  0.302D-01 0.999D+00
 Coeff:      0.134D-04-0.150D-04 0.965D-04 0.137D-02-0.395D-03-0.306D-01
 Coeff:      0.302D-01 0.999D+00
 Gap=     0.191 Goal=   None    Shift=    0.000
 RMSDP=1.52D-06 MaxDP=2.28D-05 DE=-6.24D-07 OVMax= 2.67D-05

 Cycle   9  Pass 1  IDiag  1:
 E= -109.959717981556     Delta-E=       -0.000000003220 Rises=F Damp=F
 DIIS: error= 7.86D-07 at cycle   9 NSaved=   9.
 NSaved= 9 IEnMin= 9 EnMin= -109.959717981556     IErMin= 9 ErrMin= 7.86D-07
 ErrMax= 7.86D-07  0.00D+00 EMaxC= 1.00D-01 BMatC= 2.35D-11 BMatP= 3.52D-09
 IDIUse=1 WtCom= 1.00D+00 WtEn= 0.00D+00
 Coeff-Com: -0.156D-05 0.299D-05-0.230D-05 0.174D-04 0.581D-03 0.163D-02
 Coeff-Com: -0.717D-02 0.147D-01 0.990D+00
 Coeff:     -0.156D-05 0.299D-05-0.230D-05 0.174D-04 0.581D-03 0.163D-02
 Coeff:     -0.717D-02 0.147D-01 0.990D+00
 Gap=     0.191 Goal=   None    Shift=    0.000
 RMSDP=1.19D-07 MaxDP=1.40D-06 DE=-3.22D-09 OVMax= 3.78D-06

 Cycle  10  Pass 1  IDiag  1:
 E= -109.959717981576     Delta-E=       -0.000000000020 Rises=F Damp=F
 DIIS: error= 6.62D-08 at cycle  10 NSaved=  10.
 NSaved=10 IEnMin=10 EnMin= -109.959717981576     IErMin=10 ErrMin= 6.62D-08
 ErrMax= 6.62D-08  0.00D+00 EMaxC= 1.00D-01 BMatC= 1.91D-13 BMatP= 2.35D-11
 IDIUse=1 WtCom= 1.00D+00 WtEn= 0.00D+00
 Coeff-Com:  0.968D-07-0.274D-06-0.856D-06-0.168D-04 0.107D-04 0.294D-03
 Coeff-Com: -0.278D-03-0.135D-01 0.214D-01 0.992D+00
 Coeff:      0.968D-07-0.274D-06-0.856D-06-0.168D-04 0.107D-04 0.294D-03
 Coeff:     -0.278D-03-0.135D-01 0.214D-01 0.992D+00
 Gap=     0.191 Goal=   None    Shift=    0.000
 RMSDP=1.98D-08 MaxDP=3.30D-07 DE=-1.96D-11 OVMax= 2.44D-07

 Cycle  11  Pass 1  IDiag  1:
 E= -109.959717981576     Delta-E=        0.000000000000 Rises=F Damp=F
 DIIS: error= 5.44D-09 at cycle  11 NSaved=  11.
 NSaved=11 IEnMin=10 EnMin= -109.959717981576     IErMin=11 ErrMin= 5.44D-09
 ErrMax= 5.44D-09  0.00D+00 EMaxC= 1.00D-01 BMatC= 1.58D-15 BMatP= 1.91D-13
 IDIUse=1 WtCom= 1.00D+00 WtEn= 0.00D+00
 Coeff-Com:  0.620D-08-0.117D-07-0.344D-07-0.108D-05-0.361D-05-0.412D-05
 Coeff-Com:  0.104D-03-0.517D-03-0.518D-02 0.374D-01 0.968D+00
 Coeff:      0.620D-08-0.117D-07-0.344D-07-0.108D-05-0.361D-05-0.412D-05
 Coeff:      0.104D-03-0.517D-03-0.518D-02 0.374D-01 0.968D+00
 Gap=     0.191 Goal=   None    Shift=    0.000
 RMSDP=9.89D-10 MaxDP=8.34D-09 DE= 1.14D-13 OVMax= 2.60D-08

 SCF Done:  E(RB3LYP) =  -109.959717982     A.U. after   11 cycles
            NFock= 11  Conv=0.99D-09     -V/T= 1.8745
 KE= 1.257444805248D+02 PE=-3.860137401594D+02 EE= 9.104143127507D+01
 Leave Link  502 at Fri Sep 17 10:51:52 2021, MaxMem=   268435456 cpu:               2.7 elap:               3.0
 (Enter /software/gaussian/g16-a03/l801.exe)
 DoSCS=F DFT=T ScalE2(SS,OS)=  1.000000  1.000000
 ExpMin= 4.38D-02 ExpMax= 8.59D+03 ExpMxC= 1.30D+03 IAcc=3 IRadAn=         5 AccDes= 0.00D+00
 HarFok:  IExCor=  205 AccDes= 0.00D+00 IRadAn=         5 IDoV=-2 UseB2=F ITyADJ=14
 ICtDFT= 12500011 ScaDFX=  1.000000  1.000000  1.000000  1.000000
 Largest valence mixing into a core orbital is  2.01D-03
 Largest core mixing into a valence orbital is  6.97D-04
 Range of M.O.s used for correlation:     3    56
 NBasis=    56 NAE=     8 NBE=     8 NFC=     2 NFV=     0
 NROrb=     54 NOA=     6 NOB=     6 NVA=    48 NVB=    48

 **** Warning!!: The largest alpha MO coefficient is  0.20889004D+02

 Leave Link  801 at Fri Sep 17 10:51:53 2021, MaxMem=   268435456 cpu:               0.4 elap:               0.4
 (Enter /software/gaussian/g16-a03/l914.exe)
 RHF ground state
 Keep R1, R2, and R3 ints in memory in symmetry-blocked form, NReq=6042848.
 FoFCou: FMM=F IPFlag=           0 FMFlag=           0 FMFlg1=           0
         NFxFlg=           0 DoJE=F BraDBF=F KetDBF=F FulRan=T
         wScrn=  0.000000 ICntrl=       600 IOpCl=  0 I1Cent=           0 NGrid=           0
         NMat0=    1 NMatS0=   1596 NMatT0=    0 NMatD0=    1 NMtDS0=    0 NMtDT0=    0
 Petite list used in FoFCou.
 MDV=   268435456 DFT=T DoStab=F Mixed=T DoRPA=T DoScal=F NonHer=T
 Making orbital integer symmetry assigments:
 Orbital symmetries:
       Occupied  (A1) (A1) (A1) (B2) (B1) (A1) (A1) (B2)
       Virtual   (A1) (B1) (B2) (A1) (A1) (B1) (B2) (A1) (A1) (B1)
                 (B2) (A1) (A1) (B2) (B1) (A1) (B2) (A1) (B1) (A2)
                 (B2) (A1) (B2) (A1) (A1) (B1) (A2) (B1) (A1) (B2)
                 (A1) (B2) (B1) (A1) (B2) (A1) (A2) (B2) (A1) (A1)
                 (B1) (B2) (A1) (B1) (B2) (A1) (A1) (A1)
   120 initial guesses have been made.
 Convergence on wavefunction:    0.001000000000000
 Davidson Disk Diagonalization:  ConvIn= 1.00D-03 SkipCon=T Conv= 1.00D-03.
 Max sub-space:  1728 roots to seek:   120 dimension of matrix:          576
 Iteration     1 Dimension   120 NMult     0 NNew    120
 CISAX will form   120 AO SS matrices at one time.
 NMat=   120 NSing=   120 JSym2X=-1.
 New state      3 was old state      4
 New state      4 was old state      3
 New state      5 was old state      6
 New state      6 was old state      5
 New state      9 was old state     10
 New state     10 was old state      9
 New state     12 was old state     13
 New state     13 was old state     12
 New state     25 was old state     26
 New state     26 was old state     25
 New state     27 was old state     28
 New state     28 was old state     30
 New state     30 was old state     27
 Excitation Energies [eV] at current iteration:
 Root      1 :     4.337975511680879
 Root      2 :     4.735481281353760
 Root      3 :     5.493018232860200
 Root      4 :     5.791159601995952
 Root      5 :     8.592050553557108
 Root      6 :     8.756581329257680
 Root      7 :     8.782184340894835
 Root      8 :     9.426361350471749
 Root      9 :     9.977130667783898
 Root     10 :    10.049994064012770
 Root     11 :    11.553804244342180
 Root     12 :    12.142531253494640
 Root     13 :    12.613514385105470
 Root     14 :    12.880947359337420
 Root     15 :    13.207331370224470
 Root     16 :    13.804152128495520
 Root     17 :    14.681744086598900
 Root     18 :    15.008694003567420
 Root     19 :    15.221968717184300
 Root     20 :    15.834859479915900
 Root     21 :    15.848256999385180
 Root     22 :    15.932069662961340
 Root     23 :    16.039072970483190
 Root     24 :    16.426459995763330
 Root     25 :    17.278707721945560
 Root     26 :    17.803016245663630
 Root     27 :    18.447716333892560
 Root     28 :    18.871176238937410
 Root     29 :    18.886431681765810
 Root     30 :    19.175508314848550
 Root     31 :    19.466537811854700
 Root     32 :    19.623638783966110
 Root     33 :    19.647593008514210
 Root     34 :    20.246204330213820
 Root     35 :    20.695654963237400
 Root     36 :    20.921525667605130
 Root     37 :    21.452999249049790
 Root     38 :    22.708598409933530
 Root     39 :    22.898000919825740
 Root     40 :    24.266470290357000
 Root     41 :    24.665189398194600
 Root     42 :    25.011716997603420
 Root     43 :    25.119087861367570
 Root     44 :    25.644966648675520
 Root     45 :    25.990424351651740
 Root     46 :    26.330534718747130
 Root     47 :    26.392189776087810
 Root     48 :    26.548655690103970
 Root     49 :    26.583978992761000
 Root     50 :    27.191630401137960
 Root     51 :    27.207616217971040
 Root     52 :    28.256762567092600
 Root     53 :    28.528103291383850
 Root     54 :    28.865270387039460
 Root     55 :    29.333420411781260
 Root     56 :    29.530994040974550
 Root     57 :    29.594313961412310
 Root     58 :    29.629488911935110
 Root     59 :    29.671127148909860
 Root     60 :    29.750431251457310
 Root     61 :    29.912322394615150
 Root     62 :    29.982581536004770
 Root     63 :    30.145268958627280
 Root     64 :    30.217124262989130
 Root     65 :    30.497632065671680
 Root     66 :    30.662490129965800
 Root     67 :    30.797624814949700
 Root     68 :    31.059431802232810
 Root     69 :    31.238810201069900
 Root     70 :    31.344670174245540
 Root     71 :    31.361061579265390
 Root     72 :    31.361939660603180
 Root     73 :    31.752631309853260
 Root     74 :    31.858214947288510
 Root     75 :    32.558409083186520
 Root     76 :    32.613615173568500
 Root     77 :    32.884112089914810
 Root     78 :    32.963299358529130
 Root     79 :    33.919032566188480
 Root     80 :    34.130306130774470
 Root     81 :    34.570755540188150
 Root     82 :    34.769475873206980
 Root     83 :    34.793787733548580
 Root     84 :    35.474223084145390
 Root     85 :    35.615309801810420
 Root     86 :    35.735064002929540
 Root     87 :    36.099982334348600
 Root     88 :    36.402975483340460
 Root     89 :    36.653489671314500
 Root     90 :    36.890823993364690
 Root     91 :    37.136012805352870
 Root     92 :    38.513298083396320
 Root     93 :    38.717632410945200
 Root     94 :    38.957471619925850
 Root     95 :    38.964747377851520
 Root     96 :    39.042155956504050
 Root     97 :    39.338162118240850
 Root     98 :    39.696030712330230
 Root     99 :    40.115866965036740
 Root    100 :    40.129936587268760
 Root    101 :    40.384339281203370
 Root    102 :    40.890785408935470
 Root    103 :    41.893262241713860
 Root    104 :    42.189383545426950
 Root    105 :    42.822700320129470
 Root    106 :    42.864182314887170
 Root    107 :    43.644230269016990
 Root    108 :    43.721917395789570
 Root    109 :    44.384072826833290
 Root    110 :    44.434557167383590
 Root    111 :    44.609387850442490
 Root    112 :    44.683896703444570
 Root    113 :    45.530525826436850
 Root    114 :    45.815849698578420
 Root    115 :    46.276819219098290
 Root    116 :    47.202500097000920
 Root    117 :    47.775965878487780
 Root    118 :    48.191409429990810
 Root    119 :    48.679758063582490
 Root    120 :    50.234608402266520
 Iteration     2 Dimension   180 NMult   120 NNew     60
 CISAX will form    60 AO SS matrices at one time.
 NMat=    60 NSing=    60 JSym2X=-1.
 Root      1 not converged, maximum delta is    0.004087905954961
 Root      2 not converged, maximum delta is    0.003942503986086
 Root      3 not converged, maximum delta is    0.003283272988567
 Root      4 not converged, maximum delta is    0.006783721503174
 Root      5 not converged, maximum delta is    0.002729782153715
 Root      6 not converged, maximum delta is    0.010559720874659
 Root      7 not converged, maximum delta is    0.003303305221111
 Root      8 not converged, maximum delta is    0.009897878506392
 Root      9 not converged, maximum delta is    0.006968909310149
 Root     10 not converged, maximum delta is    0.004227388411017
 Root     11 not converged, maximum delta is    0.009776183057017
 Root     12 not converged, maximum delta is    0.001137759541484
 Root     13 not converged, maximum delta is    0.007796727789796
 Root     14 not converged, maximum delta is    0.012316202251359
 Root     15 not converged, maximum delta is    0.010755300949600
 Root     16 not converged, maximum delta is    0.011345588266831
 Root     17 not converged, maximum delta is    0.007291090482075
 Root     18 not converged, maximum delta is    0.011209513067359
 Root     19 not converged, maximum delta is    0.006606944261616
 Root     20 not converged, maximum delta is    0.026425313391616
 Root     21 not converged, maximum delta is    0.008270270878593
 Root     22 not converged, maximum delta is    0.015552031978158
 Root     23 not converged, maximum delta is    0.024070925354454
 Root     24 not converged, maximum delta is    0.009063355755817
 Root     25 not converged, maximum delta is    0.012031915109386
 Root     26 not converged, maximum delta is    0.023738684912744
 Root     27 not converged, maximum delta is    0.013874248642376
 Root     28 not converged, maximum delta is    0.067703460300536
 Root     29 not converged, maximum delta is    0.016072933503378
 Root     30 not converged, maximum delta is    0.080077741472126
 Excitation Energies [eV] at current iteration:
 Root      1 :     4.333267243962927   Change is   -0.004708267717953
 Root      2 :     4.732666699712317   Change is   -0.002814581641443
 Root      3 :     5.489609363567636   Change is   -0.003408869292564
 Root      4 :     5.780087261806584   Change is   -0.011072340189368
 Root      5 :     8.590657711496865   Change is   -0.001392842060244
 Root      6 :     8.744424305500310   Change is   -0.012157023757369
 Root      7 :     8.777261846422691   Change is   -0.004922494472143
 Root      8 :     9.405919409289101   Change is   -0.020441941182649
 Root      9 :     9.968840145941229   Change is   -0.008290521842669
 Root     10 :    10.046121516948720   Change is   -0.003872547064054
 Root     11 :    11.525569417013510   Change is   -0.028234827328671
 Root     12 :    12.141399599283700   Change is   -0.001131654210939
 Root     13 :    12.600617202133040   Change is   -0.012897182972432
 Root     14 :    12.866903720146810   Change is   -0.014043639190603
 Root     15 :    13.176894156588750   Change is   -0.030437213635722
 Root     16 :    13.778885456732840   Change is   -0.025266671762680
 Root     17 :    14.663664692041000   Change is   -0.018079394557900
 Root     18 :    14.997704459959080   Change is   -0.010989543608339
 Root     19 :    15.216102025496260   Change is   -0.005866691688036
 Root     20 :    15.823148261899280   Change is   -0.011711218016625
 Root     21 :    15.837184840069160   Change is   -0.011072159316025
 Root     22 :    15.883769438011590   Change is   -0.048300224949748
 Root     23 :    16.019891217445910   Change is   -0.019181753037286
 Root     24 :    16.413994665614100   Change is   -0.012465330149228
 Root     25 :    17.261602402638890   Change is   -0.017105319306669
 Root     26 :    17.679728686669820   Change is   -0.123287558993809
 Root     27 :    18.412525869581130   Change is   -0.035190464311437
 Root     28 :    18.847144239731300   Change is   -0.024031999206113
 Root     29 :    18.872359349095970   Change is   -0.014072332669842
 Root     30 :    19.116191092068750   Change is   -0.059317222779798
 Iteration     3 Dimension   240 NMult   180 NNew     60
 CISAX will form    60 AO SS matrices at one time.
 NMat=    60 NSing=    60 JSym2X=-1.
 Root      1 has converged.
 Root      2 has converged.
 Root      3 has converged.
 Root      4 has converged.
 Root      5 has converged.
 Root      6 has converged.
 Root      7 has converged.
 Root      8 has converged.
 Root      9 has converged.
 Root     10 has converged.
 Root     11 has converged.
 Root     12 has converged.
 Root     13 has converged.
 Root     14 has converged.
 Root     15 has converged.
 Root     16 has converged.
 Root     17 has converged.
 Root     18 has converged.
 Root     19 has converged.
 Root     20 has converged.
 Root     21 has converged.
 Root     22 has converged.
 Root     23 has converged.
 Root     24 has converged.
 Root     25 has converged.
 Root     26 has converged.
 Root     27 has converged.
 Root     28 has converged.
 Root     29 has converged.
 Root     30 has converged.
 Excitation Energies [eV] at current iteration:
 Root      1 :     4.333266627528201   Change is   -0.000000616434725
 Root      2 :     4.732664986394800   Change is   -0.000001713317517
 Root      3 :     5.489608416830707   Change is   -0.000000946736929
 Root      4 :     5.780084523129365   Change is   -0.000002738677219
 Root      5 :     8.590656532922345   Change is   -0.000001178574520
 Root      6 :     8.744420728497689   Change is   -0.000003577002621
 Root      7 :     8.777259400191808   Change is   -0.000002446230885
 Root      8 :     9.405911531682595   Change is   -0.000007877606506
 Root      9 :     9.968827827509127   Change is   -0.000012318432102
 Root     10 :    10.046119571499190   Change is   -0.000001945449530
 Root     11 :    11.525546285186570   Change is   -0.000023131826944
 Root     12 :    12.141396361246420   Change is   -0.000003238037276
 Root     13 :    12.600603396895570   Change is   -0.000013805237470
 Root     14 :    12.866888027812380   Change is   -0.000015692334430
 Root     15 :    13.176873151824620   Change is   -0.000021004764128
 Root     16 :    13.778859031055910   Change is   -0.000026425676929
 Root     17 :    14.663638994671620   Change is   -0.000025697369384
 Root     18 :    14.997685211776270   Change is   -0.000019248182811
 Root     19 :    15.216094094455300   Change is   -0.000007931040965
 Root     20 :    15.823135756907020   Change is   -0.000012504992253
 Root     21 :    15.837171381167700   Change is   -0.000013458901455
 Root     22 :    15.883565031813300   Change is   -0.000204406198299
 Root     23 :    16.019856691250020   Change is   -0.000034526195886
 Root     24 :    16.413971333455990   Change is   -0.000023332158117
 Root     25 :    17.261522796827950   Change is   -0.000079605810947
 Root     26 :    17.679529878917260   Change is   -0.000198807752554
 Root     27 :    18.412460628346600   Change is   -0.000065241234528
 Root     28 :    18.847104102659110   Change is   -0.000040137072191
 Root     29 :    18.872322482086980   Change is   -0.000036867008995
 Root     30 :    19.116121212601160   Change is   -0.000069879467589
 Convergence achieved on expansion vectors.
 ***********************************************************************
 Excited states from <AA,BB:AA,BB> singles matrix:
 ***********************************************************************
 
 1PDM for each excited state written to RWF  633
 Ground to excited state transition densities written to RWF  633
 Ground to excited state transition electric dipole moments (Au):
       state          X           Y           Z        Dip. S.      Osc.
         1         0.0000      1.2091     -0.0000      1.4619      0.1552
         2         0.0000      0.0000      0.0000      0.0000      0.0000
         3         0.0000      0.5430      0.0000      0.2949      0.0397
         4         0.0000      0.0000     -0.0400      0.0016      0.0002
         5        -0.0000     -0.0000      0.0000      0.0000      0.0000
         6        -0.0000     -0.8953     -0.0000      0.8016      0.1717
         7         0.0000     -0.0000     -0.4216      0.1777      0.0382
         8        -0.0000     -1.0776      0.0000      1.1613      0.2676
         9         0.0000      0.0000     -0.0000      0.0000      0.0000
        10         0.0000      0.8239     -0.0000      0.6789      0.1671
        11         0.0000      0.0000      0.4998      0.2498      0.0705
        12        -0.0702     -0.0000      0.0000      0.0049      0.0015
        13         0.0000      0.0000      0.7722      0.5963      0.1841
        14         0.0000     -0.3204     -0.0000      0.1027      0.0324
        15         0.0000      0.0000      0.1658      0.0275      0.0089
        16         0.0000     -0.2943      0.0000      0.0866      0.0292
        17         0.0000      0.0000      0.2193      0.0481      0.0173
        18         0.4618     -0.0000     -0.0000      0.2133      0.0784
        19        -0.0000      0.0000     -0.1466      0.0215      0.0080
        20         0.0000     -0.0131      0.0000      0.0002      0.0001
        21        -0.0000      0.0000      0.5908      0.3490      0.1354
        22        -0.5532     -0.0000     -0.0000      0.3060      0.1191
        23         0.0000     -0.3886      0.0000      0.1510      0.0593
        24         0.0000      0.0000      0.1945      0.0378      0.0152
        25         0.1646     -0.0000      0.0000      0.0271      0.0115
        26         0.0000      0.0000     -0.4311      0.1859      0.0805
        27        -0.0000     -0.0000     -0.1046      0.0109      0.0049
        28         0.0000     -0.0951     -0.0000      0.0090      0.0042
        29        -0.2371     -0.0000      0.0000      0.0562      0.0260
        30        -0.0000     -0.2802     -0.0000      0.0785      0.0368
 Ground to excited state transition velocity dipole moments (Au):
       state          X           Y           Z        Dip. S.      Osc.
         1        -0.0000     -0.1803      0.0000      0.0325      0.1361
         2        -0.0000     -0.0000     -0.0000      0.0000      0.0000
         3        -0.0000     -0.1022     -0.0000      0.0104      0.0345
         4        -0.0000     -0.0000      0.0044      0.0000      0.0001
         5        -0.0000      0.0000     -0.0000      0.0000      0.0000
         6         0.0000      0.2953      0.0000      0.0872      0.1809
         7        -0.0000      0.0000      0.1254      0.0157      0.0325
         8         0.0000      0.3484     -0.0000      0.1214      0.2341
         9         0.0000     -0.0000      0.0000      0.0000      0.0000
        10        -0.0000     -0.2821     -0.0000      0.0796      0.1437
        11        -0.0000     -0.0000     -0.2022      0.0409      0.0644
        12         0.0166      0.0000     -0.0000      0.0003      0.0004
        13        -0.0000      0.0000     -0.3369      0.1135      0.1634
        14        -0.0000      0.1587      0.0000      0.0252      0.0355
        15         0.0000      0.0000     -0.0695      0.0048      0.0066
        16         0.0000      0.0974      0.0000      0.0095      0.0125
        17         0.0000      0.0000     -0.1175      0.0138      0.0171
        18        -0.2425      0.0000      0.0000      0.0588      0.0711
        19        -0.0000     -0.0000      0.0805      0.0065      0.0077
        20         0.0000     -0.0035     -0.0000      0.0000      0.0000
        21         0.0000      0.0000     -0.3349      0.1122      0.1285
        22         0.3240     -0.0000      0.0000      0.1050      0.1199
        23         0.0000      0.2178     -0.0000      0.0474      0.0537
        24         0.0000     -0.0000     -0.1192      0.0142      0.0157
        25        -0.1039      0.0000     -0.0000      0.0108      0.0113
        26        -0.0000     -0.0000      0.2796      0.0782      0.0802
        27         0.0000      0.0000      0.0757      0.0057      0.0056
        28         0.0000      0.0908      0.0000      0.0082      0.0079
        29         0.1774      0.0000     -0.0000      0.0315      0.0303
        30         0.0000      0.2135     -0.0000      0.0456      0.0433
 Ground to excited state transition magnetic dipole moments (Au):
       state          X           Y           Z
         1        -0.4373     -0.0000     -0.0000
         2        -0.0000     -0.0000     -0.9248
         3         0.7871     -0.0000     -0.0000
         4         0.0000     -0.0000     -0.0000
         5         0.0000     -0.0000      0.5082
         6         0.0759      0.0000     -0.0000
         7        -0.0000     -0.0000      0.0000
         8         0.9640      0.0000     -0.0000
         9        -0.0000      0.0000     -0.9059
        10        -0.3573     -0.0000      0.0000
        11         0.0000     -0.0000     -0.0000
        12        -0.0000      0.0977     -0.0000
        13        -0.0000     -0.0000      0.0000
        14        -0.6634      0.0000      0.0000
        15        -0.0000     -0.0000     -0.0000
        16         1.4089     -0.0000     -0.0000
        17         0.0000      0.0000     -0.0000
        18         0.0000      0.5545     -0.0000
        19         0.0000     -0.0000      0.0000
        20         0.2125     -0.0000      0.0000
        21        -0.0000      0.0000      0.0000
        22        -0.0000      0.7594     -0.0000
        23        -0.3377      0.0000     -0.0000
        24         0.0000     -0.0000      0.0000
        25         0.0000     -0.4635      0.0000
        26         0.0000     -0.0000      0.0000
        27        -0.0000      0.0000     -0.0000
        28        -0.0256      0.0000      0.0000
        29        -0.0000     -0.2364     -0.0000
        30         0.4272     -0.0000     -0.0000
 Ground to excited state transition velocity quadrupole moments (Au):
       state          XX          YY          ZZ          XY          XZ          YZ
         1         0.0000     -0.0000      0.0000     -0.0000     -0.0000      0.2709
         2        -0.0000     -0.0000     -0.0000      0.3763      0.0000      0.0000
         3        -0.0000      0.0000     -0.0000     -0.0000     -0.0000      0.5215
         4         0.3419      0.8902      0.0777      0.0000     -0.0000     -0.0000
         5        -0.0000     -0.0000     -0.0000     -0.1696      0.0000     -0.0000
         6         0.0000     -0.0000      0.0000      0.0000      0.0000     -0.8531
         7        -0.2584     -0.6884     -0.5557     -0.0000      0.0000     -0.0000
         8         0.0000      0.0000     -0.0000     -0.0000      0.0000     -0.4396
         9        -0.0000     -0.0000      0.0000     -0.0714     -0.0000      0.0000
        10         0.0000      0.0000     -0.0000     -0.0000     -0.0000      0.3381
        11        -0.1050      0.0950     -0.2126     -0.0000     -0.0000     -0.0000
        12        -0.0000      0.0000      0.0000      0.0000      0.2441      0.0000
        13        -0.0051      0.9655      0.6672     -0.0000     -0.0000      0.0000
        14        -0.0000     -0.0000      0.0000     -0.0000     -0.0000      0.2395
        15         0.1660      0.5254      0.7419     -0.0000     -0.0000      0.0000
        16        -0.0000     -0.0000      0.0000      0.0000     -0.0000     -0.1260
        17         0.3562      0.7982      0.2839      0.0000     -0.0000      0.0000
        18        -0.0000     -0.0000      0.0000      0.0000      0.5096     -0.0000
        19         0.0101     -0.1633      0.1797     -0.0000     -0.0000     -0.0000
        20         0.0000      0.0000      0.0000      0.0000     -0.0000     -0.2646
        21         0.2278      0.3788      0.8493     -0.0000      0.0000      0.0000
        22         0.0000     -0.0000     -0.0000      0.0000      0.4977     -0.0000
        23        -0.0000     -0.0000     -0.0000      0.0000      0.0000      0.3847
        24        -0.0658     -0.0763     -0.8526      0.0000     -0.0000     -0.0000
        25        -0.0000     -0.0000     -0.0000     -0.0000     -0.0242     -0.0000
        26         0.3210      0.0718      0.8918     -0.0000     -0.0000      0.0000
        27         0.4050     -1.2632     -0.6526     -0.0000     -0.0000     -0.0000
        28        -0.0000      0.0000     -0.0000     -0.0000      0.0000     -0.4505
        29        -0.0000      0.0000      0.0000      0.0000     -0.4302     -0.0000
        30         0.0000      0.0000     -0.0000     -0.0000     -0.0000     -0.2135
 <0|del|b> * <b|rxdel|0> + <0|del|b> * <b|delr+rdel|0>
 Rotatory Strengths (R) in cgs (10**-40 erg-esu-cm/Gauss)
       state          XX          YY          ZZ    R(velocity)    E-M Angle
         1        -0.0000      0.0000      0.0000      0.0000       90.00
         2         0.0000      0.0000      0.0000      0.0000       90.00
         3        -0.0000     -0.0000     -0.0000     -0.0000       90.00
         4        -0.0000     -0.0000     -0.0000     -0.0000       90.00
         5        -0.0000     -0.0000     -0.0000     -0.0000       90.00
         6        -0.0000     -0.0000      0.0000      0.0000       90.00
         7         0.0000      0.0000     -0.0000      0.0000       90.00
         8        -0.0000      0.0000      0.0000      0.0000       90.00
         9        -0.0000     -0.0000     -0.0000     -0.0000       90.00
        10        -0.0000      0.0000      0.0000      0.0000       90.00
        11         0.0000      0.0000      0.0000      0.0000       90.00
        12        -0.0000      0.0000      0.0000      0.0000       90.00
        13         0.0000     -0.0000     -0.0000     -0.0000       90.00
        14         0.0000      0.0000      0.0000      0.0000       90.00
        15         0.0000     -0.0000     -0.0000      0.0000       90.00
        16         0.0000      0.0000      0.0000      0.0000       90.00
        17         0.0000      0.0000      0.0000      0.0000       90.00
        18         0.0000     -0.0000      0.0000      0.0000       90.00
        19        -0.0000      0.0000     -0.0000      0.0000       90.00
        20         0.0000     -0.0000      0.0000      0.0000       90.00
        21         0.0000     -0.0000     -0.0000     -0.0000       90.00
        22        -0.0000     -0.0000      0.0000     -0.0000       90.00
        23        -0.0000      0.0000     -0.0000     -0.0000       90.00
        24        -0.0000      0.0000      0.0000     -0.0000       90.00
        25        -0.0000      0.0000     -0.0000     -0.0000       90.00
        26        -0.0000      0.0000      0.0000      0.0000       90.00
        27        -0.0000      0.0000      0.0000     -0.0000       90.00
        28        -0.0000     -0.0000      0.0000      0.0000       90.00
        29         0.0000     -0.0000      0.0000     -0.0000       90.00
        30         0.0000      0.0000      0.0000      0.0000       90.00
 1/2[<0|r|b>*<b|rxdel|0> + (<0|rxdel|b>*<b|r|0>)*]
 Rotatory Strengths (R) in cgs (10**-40 erg-esu-cm/Gauss)
       state          XX          YY          ZZ     R(length)
         1         0.0000      0.0000     -0.0000      0.0000
         2         0.0000      0.0000      0.0000      0.0000
         3        -0.0000      0.0000      0.0000      0.0000
         4        -0.0000      0.0000     -0.0000     -0.0000
         5         0.0000     -0.0000     -0.0000     -0.0000
         6         0.0000      0.0000     -0.0000      0.0000
         7         0.0000     -0.0000      0.0000      0.0000
         8         0.0000      0.0000      0.0000      0.0000
         9         0.0000     -0.0000     -0.0000     -0.0000
        10         0.0000      0.0000      0.0000      0.0000
        11        -0.0000      0.0000      0.0000      0.0000
        12        -0.0000      0.0000      0.0000      0.0000
        13         0.0000      0.0000     -0.0000     -0.0000
        14         0.0000      0.0000      0.0000      0.0000
        15         0.0000      0.0000      0.0000      0.0000
        16        -0.0000     -0.0000      0.0000     -0.0000
        17        -0.0000     -0.0000      0.0000      0.0000
        18        -0.0000      0.0000     -0.0000     -0.0000
        19         0.0000      0.0000      0.0000      0.0000
        20        -0.0000     -0.0000     -0.0000     -0.0000
        21        -0.0000     -0.0000     -0.0000     -0.0000
        22        -0.0000      0.0000     -0.0000      0.0000
        23         0.0000      0.0000      0.0000      0.0000
        24        -0.0000      0.0000     -0.0000     -0.0000
        25        -0.0000     -0.0000     -0.0000     -0.0000
        26        -0.0000      0.0000      0.0000      0.0000
        27        -0.0000      0.0000     -0.0000     -0.0000
        28         0.0000      0.0000      0.0000      0.0000
        29        -0.0000     -0.0000      0.0000     -0.0000
        30         0.0000     -0.0000     -0.0000      0.0000
  1/2[<0|del|b>*<b|r|0> + (<0|r|b>*<b|del|0>)*] (Au)
       state          X           Y           Z        Dip. S.   Osc.(frdel)
         1        -0.0000     -0.2180     -0.0000      0.2180      0.1453
         2        -0.0000     -0.0000     -0.0000      0.0000      0.0000
         3        -0.0000     -0.0555     -0.0000      0.0555      0.0370
         4        -0.0000     -0.0000     -0.0002      0.0002      0.0001
         5         0.0000     -0.0000     -0.0000     -0.0000     -0.0000
         6        -0.0000     -0.2644     -0.0000      0.2644      0.1763
         7        -0.0000     -0.0000     -0.0529      0.0529      0.0353
         8        -0.0000     -0.3754     -0.0000      0.3754      0.2503
         9         0.0000     -0.0000     -0.0000      0.0000      0.0000
        10        -0.0000     -0.2324      0.0000      0.2324      0.1549
        11        -0.0000     -0.0000     -0.1011      0.1011      0.0674
        12        -0.0012     -0.0000     -0.0000      0.0012      0.0008
        13        -0.0000      0.0000     -0.2602      0.2602      0.1735
        14        -0.0000     -0.0509     -0.0000      0.0509      0.0339
        15         0.0000      0.0000     -0.0115      0.0115      0.0077
        16         0.0000     -0.0287      0.0000      0.0287      0.0191
        17         0.0000      0.0000     -0.0258      0.0258      0.0172
        18        -0.1120     -0.0000     -0.0000      0.1120      0.0747
        19         0.0000     -0.0000     -0.0118      0.0118      0.0079
        20         0.0000      0.0000     -0.0000     -0.0000     -0.0000
        21        -0.0000      0.0000     -0.1978      0.1978      0.1319
        22        -0.1792      0.0000     -0.0000      0.1792      0.1195
        23         0.0000     -0.0846     -0.0000      0.0846      0.0564
        24         0.0000     -0.0000     -0.0232      0.0232      0.0155
        25        -0.0171     -0.0000     -0.0000      0.0171      0.0114
        26        -0.0000     -0.0000     -0.1205      0.1205      0.0804
        27        -0.0000     -0.0000     -0.0079      0.0079      0.0053
        28         0.0000     -0.0086     -0.0000      0.0086      0.0058
        29        -0.0421     -0.0000     -0.0000      0.0421      0.0280
        30        -0.0000     -0.0598      0.0000      0.0598      0.0399

 Excitation energies and oscillator strengths:
 
 Excited State   1:      Singlet-B2     4.3333 eV  286.12 nm  f=0.1552  <S**2>=0.000
       3 -> 11         0.00070
       3 -> 15         0.00145
       3 -> 19         0.00072
       3 -> 22         0.00128
       3 -> 25         0.00158
       3 -> 31        -0.00036
       3 -> 38         0.00015
       3 -> 40         0.00059
       3 -> 43         0.00025
       3 -> 53         0.00015
       4 ->  9        -0.00234
       4 -> 12         0.00152
       4 -> 13         0.00281
       4 -> 16         0.00115
       4 -> 17         0.00150
       4 -> 20         0.00200
       4 -> 21         0.00153
       4 -> 24         0.00101
       4 -> 26         0.00066
       4 -> 30         0.00162
       4 -> 32         0.00039
       4 -> 33         0.00090
       4 -> 37        -0.00048
       4 -> 42         0.00042
       4 -> 44        -0.00023
       4 -> 47        -0.00064
       4 -> 48        -0.00012
       4 -> 51        -0.00013
       4 -> 54        -0.00014
       5 -> 28         0.00218
       5 -> 35         0.00097
       5 -> 45         0.00063
       6 -> 11         0.00989
       6 -> 15        -0.00144
       6 -> 19         0.00268
       6 -> 22         0.00027
       6 -> 25        -0.00330
       6 -> 29        -0.00112
       6 -> 31         0.00080
       6 -> 40        -0.00013
       6 -> 43        -0.00019
       6 -> 46        -0.00017
       6 -> 50         0.00011
       7 -> 11         0.00790
       7 -> 15         0.00552
       7 -> 19         0.00391
       7 -> 22         0.00079
       7 -> 25         0.00277
       7 -> 29        -0.00079
       7 -> 31         0.00107
       7 -> 38        -0.00062
       7 -> 43        -0.00031
       7 -> 46         0.00048
       7 -> 50         0.00039
       7 -> 53        -0.00017
       8 ->  9         0.70397
       8 -> 12        -0.00758
       8 -> 13         0.06706
       8 -> 16        -0.00774
       8 -> 17        -0.02433
       8 -> 20         0.00639
       8 -> 21         0.01196
       8 -> 24        -0.00075
       8 -> 26         0.00122
       8 -> 30        -0.00359
       8 -> 32        -0.00153
       8 -> 33        -0.00145
       8 -> 37        -0.00089
       8 -> 39        -0.00030
       8 -> 42         0.00073
       8 -> 44         0.00061
       8 -> 47         0.00049
       8 -> 48         0.00025
       3 <- 11         0.00037
       3 <- 15         0.00104
       3 <- 19         0.00042
       3 <- 22         0.00109
       3 <- 25         0.00122
       3 <- 31        -0.00037
       3 <- 38         0.00018
       3 <- 40         0.00058
       3 <- 43         0.00026
       3 <- 46         0.00012
       3 <- 53         0.00017
       4 <-  9        -0.00091
       4 <- 13         0.00229
       4 <- 16         0.00115
       4 <- 20         0.00137
       4 <- 21         0.00128
       4 <- 24         0.00052
       4 <- 26         0.00119
       4 <- 30         0.00128
       4 <- 32         0.00023
       4 <- 33         0.00036
       4 <- 37        -0.00032
       4 <- 39         0.00015
       4 <- 42         0.00033
       4 <- 44        -0.00020
       4 <- 47        -0.00059
       5 <- 28         0.00190
       5 <- 35         0.00081
       5 <- 45         0.00054
       6 <- 11         0.00338
       6 <- 15        -0.00218
       6 <- 19         0.00118
       6 <- 22        -0.00034
       6 <- 25        -0.00262
       6 <- 29        -0.00088
       6 <- 31         0.00073
       6 <- 40        -0.00014
       6 <- 43        -0.00015
       6 <- 46        -0.00013
       7 <- 11         0.00181
       7 <- 15         0.00287
       7 <- 19         0.00099
       7 <- 22         0.00047
       7 <- 25         0.00187
       7 <- 29        -0.00156
       7 <- 31         0.00095
       7 <- 38        -0.00038
       7 <- 43        -0.00020
       7 <- 46         0.00051
       7 <- 50         0.00050
       8 <-  9        -0.01555
       8 <- 12        -0.00802
       8 <- 13         0.02773
       8 <- 16         0.00754
       8 <- 17        -0.00142
       8 <- 20         0.00182
       8 <- 21         0.00660
       8 <- 24         0.00252
       8 <- 26         0.00106
       8 <- 30        -0.00248
       8 <- 32        -0.00173
       8 <- 33        -0.00087
       8 <- 37        -0.00088
       8 <- 39        -0.00033
       8 <- 42         0.00070
       8 <- 44         0.00029
       8 <- 47         0.00045
       8 <- 48         0.00015
 This state for optimization and/or second-order correction.
 Total Energy, E(TD-HF/TD-DFT) =  -109.800473363    
 Copying the excited state density for this state as the 1-particle RhoCI density.
 
 Excited State   2:      Singlet-A2     4.7327 eV  261.98 nm  f=0.0000  <S**2>=0.000
       3 -> 28        -0.00212
       3 -> 35        -0.00102
       3 -> 45        -0.00028
       4 -> 10        -0.00077
       4 -> 14        -0.00098
       4 -> 18        -0.00177
       4 -> 23        -0.00035
       4 -> 27        -0.00180
       4 -> 34         0.00028
       4 -> 36        -0.00093
       4 -> 49        -0.00015
       4 -> 52        -0.00019
       5 -> 11         0.00016
       5 -> 15        -0.00021
       5 -> 19         0.00029
       5 -> 22        -0.00061
       5 -> 25         0.00022
       5 -> 29         0.00038
       5 -> 38        -0.00033
       5 -> 40        -0.00014
       5 -> 43        -0.00035
       5 -> 46        -0.00024
       5 -> 50         0.00015
       6 -> 28         0.00323
       6 -> 35        -0.00087
       6 -> 45        -0.00023
       7 -> 28         0.00122
       7 -> 45        -0.00019
       8 -> 10         0.70674
       8 -> 14         0.00178
       8 -> 18         0.02382
       8 -> 23        -0.00346
       8 -> 27        -0.00042
       8 -> 34         0.00361
       8 -> 36        -0.00123
       8 -> 41         0.00075
       8 -> 49         0.00015
       8 -> 52         0.00024
       3 <- 28        -0.00178
       3 <- 35        -0.00088
       3 <- 45        -0.00027
       4 <- 10        -0.00022
       4 <- 14         0.00014
       4 <- 18        -0.00077
       4 <- 23        -0.00011
       4 <- 27        -0.00052
       4 <- 34         0.00059
       4 <- 36        -0.00057
       5 <- 11         0.00039
       5 <- 15        -0.00042
       5 <- 19         0.00089
       5 <- 22        -0.00072
       5 <- 25         0.00053
       5 <- 29         0.00112
       5 <- 38        -0.00053
       5 <- 40        -0.00010
       5 <- 43        -0.00039
       5 <- 46        -0.00027
       5 <- 53        -0.00016
       6 <- 28         0.00320
       6 <- 35        -0.00101
       6 <- 45        -0.00022
       7 <- 28         0.00118
       7 <- 35        -0.00014
       7 <- 45        -0.00022
       8 <- 10         0.00299
       8 <- 14         0.00098
       8 <- 18        -0.00773
       8 <- 27        -0.00098
       8 <- 34         0.00341
       8 <- 36        -0.00102
       8 <- 41         0.00042
       8 <- 52         0.00011
 
 Excited State   3:      Singlet-B2     5.4896 eV  225.85 nm  f=0.0397  <S**2>=0.000
       3 -> 11        -0.00030
       3 -> 15         0.00038
       3 -> 19        -0.00058
       3 -> 22         0.00017
       3 -> 31         0.00013
       3 -> 38        -0.00015
       3 -> 40        -0.00027
       3 -> 43        -0.00016
       3 -> 53        -0.00019
       4 ->  9         0.00061
       4 -> 13         0.00076
       4 -> 16         0.00143
       4 -> 17        -0.00080
       4 -> 20        -0.00052
       4 -> 21         0.00079
       4 -> 24         0.00088
       4 -> 30        -0.00193
       4 -> 32        -0.00012
       4 -> 37         0.00050
       4 -> 39        -0.00083
       4 -> 42        -0.00030
       4 -> 47         0.00035
       5 -> 28        -0.00099
       5 -> 35        -0.00105
       5 -> 45        -0.00055
       6 -> 11         0.00101
       6 -> 15        -0.00445
       6 -> 19         0.00195
       6 -> 22         0.00033
       6 -> 25        -0.00184
       6 -> 29        -0.00244
       6 -> 31        -0.00062
       6 -> 38        -0.00033
       6 -> 40         0.00034
       6 -> 43        -0.00028
       6 -> 46         0.00011
       6 -> 50         0.00015
       6 -> 53        -0.00012
       7 -> 11        -0.00097
       7 -> 15        -0.00324
       7 -> 19        -0.00142
       7 -> 22        -0.00050
       7 -> 25        -0.00251
       7 -> 29        -0.00070
       7 -> 31        -0.00037
       7 -> 38         0.00059
       7 -> 40        -0.00022
       7 -> 43         0.00013
       7 -> 46        -0.00059
       7 -> 50        -0.00027
       7 -> 53         0.00022
       8 ->  9         0.00410
       8 -> 12         0.70528
       8 -> 13         0.04481
       8 -> 16         0.02235
       8 -> 20         0.01558
       8 -> 21         0.00513
       8 -> 24        -0.00106
       8 -> 26        -0.00201
       8 -> 30        -0.00333
       8 -> 32         0.00036
       8 -> 33         0.00036
       8 -> 37        -0.00093
       8 -> 39         0.00122
       8 -> 42         0.00098
       8 -> 44        -0.00018
       8 -> 47        -0.00014
       8 -> 51        -0.00011
       8 -> 54        -0.00011
       3 <- 11        -0.00014
       3 <- 15         0.00025
       3 <- 19        -0.00022
       3 <- 25         0.00011
       3 <- 29         0.00011
       3 <- 31         0.00017
       3 <- 38        -0.00019
       3 <- 40        -0.00022
       3 <- 43        -0.00016
       3 <- 53        -0.00023
       4 <-  9        -0.00090
       4 <- 12        -0.00021
       4 <- 13         0.00086
       4 <- 16         0.00065
       4 <- 17         0.00035
       4 <- 20        -0.00032
       4 <- 21         0.00056
       4 <- 24         0.00090
       4 <- 26        -0.00015
       4 <- 30        -0.00135
       4 <- 32        -0.00042
       4 <- 33         0.00029
       4 <- 37         0.00032
       4 <- 39        -0.00059
       4 <- 42        -0.00034
       4 <- 44         0.00011
       4 <- 47         0.00032
       5 <- 28        -0.00065
       5 <- 35        -0.00093
       5 <- 45        -0.00050
       6 <- 11         0.00098
       6 <- 15        -0.00093
       6 <- 19        -0.00010
       6 <- 22         0.00050
       6 <- 25        -0.00169
       6 <- 29        -0.00183
       6 <- 31        -0.00077
       6 <- 38        -0.00038
       6 <- 40         0.00026
       6 <- 43        -0.00024
       6 <- 53        -0.00012
       7 <- 11         0.00034
       7 <- 15        -0.00116
       7 <- 19        -0.00051
       7 <- 22        -0.00041
       7 <- 25        -0.00151
       7 <- 31        -0.00023
       7 <- 38         0.00028
       7 <- 40        -0.00013
       7 <- 46        -0.00051
       7 <- 50        -0.00034
       7 <- 53         0.00014
       8 <-  9        -0.00735
       8 <- 12         0.00056
       8 <- 13         0.01306
       8 <- 16         0.00444
       8 <- 17        -0.00247
       8 <- 20        -0.00328
       8 <- 21         0.00312
       8 <- 24         0.00048
       8 <- 30        -0.00257
       8 <- 32         0.00024
       8 <- 33         0.00044
       8 <- 37        -0.00080
       8 <- 39         0.00118
       8 <- 42         0.00084
       8 <- 44        -0.00012
       8 <- 47        -0.00013
 
 Excited State   4:      Singlet-A1     5.7801 eV  214.50 nm  f=0.0002  <S**2>=0.000
       3 ->  9         0.00190
       3 -> 12        -0.00014
       3 -> 16        -0.00146
       3 -> 17        -0.00190
       3 -> 21         0.00110
       3 -> 24        -0.00147
       3 -> 26         0.00037
       3 -> 30         0.00068
       3 -> 32         0.00023
       3 -> 33        -0.00104
       3 -> 37         0.00066
       3 -> 39         0.00033
       3 -> 44        -0.00022
       3 -> 54         0.00018
       4 -> 11        -0.00506
       4 -> 15        -0.00423
       4 -> 19        -0.00479
       4 -> 22        -0.00277
       4 -> 25        -0.00311
       4 -> 29        -0.00131
       4 -> 38        -0.00073
       4 -> 40         0.00013
       4 -> 43         0.00013
       4 -> 46        -0.00013
       5 -> 10        -0.00173
       5 -> 14        -0.00371
       5 -> 18         0.00047
       5 -> 23         0.00384
       5 -> 27         0.00026
       5 -> 34        -0.00054
       5 -> 36        -0.00052
       6 ->  9        -0.00907
       6 -> 12        -0.00948
       6 -> 13         0.00258
       6 -> 16         0.00802
       6 -> 17         0.00274
       6 -> 20        -0.00389
       6 -> 21        -0.00366
       6 -> 24         0.00433
       6 -> 26         0.00295
       6 -> 30         0.00037
       6 -> 32        -0.00337
       6 -> 33        -0.00212
       6 -> 37        -0.00209
       6 -> 39         0.00109
       6 -> 42         0.00043
       6 -> 44        -0.00103
       6 -> 47         0.00023
       6 -> 48         0.00039
       6 -> 51         0.00019
       7 ->  9         0.01660
       7 -> 12        -0.01102
       7 -> 13        -0.00340
       7 -> 16         0.00454
       7 -> 17        -0.01245
       7 -> 20        -0.00235
       7 -> 21        -0.00257
       7 -> 24        -0.00156
       7 -> 26         0.00394
       7 -> 30        -0.00120
       7 -> 32         0.00062
       7 -> 33        -0.00084
       7 -> 37        -0.00090
       7 -> 54        -0.00015
       8 -> 11         0.70414
       8 -> 15         0.05751
       8 -> 19        -0.02520
       8 -> 22        -0.00176
       8 -> 25         0.01123
       8 -> 29        -0.00162
       8 -> 31         0.00237
       8 -> 38        -0.00372
       8 -> 40         0.00132
       8 -> 43         0.00186
       8 -> 46        -0.00125
       8 -> 50         0.00023
       3 <-  9         0.00127
       3 <- 16        -0.00101
       3 <- 17        -0.00123
       3 <- 21         0.00085
       3 <- 24        -0.00110
       3 <- 26         0.00030
       3 <- 30         0.00057
       3 <- 32         0.00019
       3 <- 33        -0.00081
       3 <- 37         0.00055
       3 <- 39         0.00028
       3 <- 44        -0.00018
       3 <- 54         0.00016
       4 <- 11        -0.00242
       4 <- 15        -0.00189
       4 <- 19        -0.00297
       4 <- 22        -0.00193
       4 <- 25        -0.00187
       4 <- 29        -0.00096
       4 <- 38        -0.00061
       4 <- 40         0.00013
       4 <- 43         0.00014
       4 <- 46        -0.00010
       5 <- 10        -0.00110
       5 <- 14        -0.00243
       5 <- 18         0.00032
       5 <- 23         0.00285
       5 <- 27         0.00022
       5 <- 34        -0.00046
       5 <- 36        -0.00045
       6 <-  9        -0.00785
       6 <- 12        -0.00460
       6 <- 13         0.00254
       6 <- 16         0.00558
       6 <- 17         0.00117
       6 <- 20        -0.00178
       6 <- 21        -0.00347
       6 <- 24         0.00300
       6 <- 26         0.00215
       6 <- 32        -0.00250
       6 <- 33        -0.00168
       6 <- 37        -0.00190
       6 <- 39         0.00072
       6 <- 42         0.00039
       6 <- 44        -0.00097
       6 <- 47         0.00017
       6 <- 48         0.00035
       6 <- 51         0.00017
       7 <-  9         0.00341
       7 <- 12        -0.00396
       7 <- 13        -0.00068
       7 <- 16         0.00287
       7 <- 17        -0.00579
       7 <- 20        -0.00083
       7 <- 21        -0.00182
       7 <- 24        -0.00086
       7 <- 26         0.00272
       7 <- 30        -0.00092
       7 <- 32         0.00044
       7 <- 33        -0.00062
       7 <- 37        -0.00074
       7 <- 54        -0.00013
       8 <- 11        -0.01672
       8 <- 15         0.00466
       8 <- 19        -0.01754
       8 <- 22        -0.00476
       8 <- 25         0.00662
       8 <- 29        -0.00146
       8 <- 31         0.00217
       8 <- 38        -0.00305
       8 <- 40         0.00084
       8 <- 43         0.00153
       8 <- 46        -0.00113
       8 <- 50         0.00024
 
 Excited State   5:      Singlet-A2     8.5907 eV  144.32 nm  f=0.0000  <S**2>=0.000
       3 -> 28         0.00146
       3 -> 35         0.00068
       3 -> 45         0.00012
       4 -> 10        -0.00115
       4 -> 14        -0.00325
       4 -> 18         0.00138
       4 -> 23         0.00214
       4 -> 34         0.00018
       4 -> 36         0.00103
       4 -> 41        -0.00037
       5 -> 15         0.00012
       5 -> 19        -0.00032
       5 -> 22         0.00058
       5 -> 25        -0.00051
       5 -> 29        -0.00017
       5 -> 38         0.00021
       5 -> 40         0.00010
       5 -> 43         0.00030
       5 -> 46         0.00017
       6 -> 28        -0.00166
       6 -> 35         0.00050
       7 -> 28        -0.00091
       7 -> 35        -0.00011
       8 -> 10         0.00024
       8 -> 14         0.70418
       8 -> 18        -0.06264
       8 -> 23        -0.01423
       8 -> 27        -0.00067
       8 -> 34        -0.00186
       8 -> 36         0.00199
       8 -> 41        -0.00027
       8 -> 52        -0.00018
       3 <- 28         0.00108
       3 <- 35         0.00052
       3 <- 45         0.00013
       4 <- 10         0.00022
       4 <- 18         0.00052
       4 <- 23         0.00016
       4 <- 27         0.00025
       4 <- 34        -0.00033
       4 <- 36         0.00041
       5 <- 11         0.00044
       5 <- 19         0.00017
       5 <- 22         0.00057
       5 <- 25        -0.00075
       5 <- 31        -0.00026
       5 <- 38         0.00044
       5 <- 43         0.00030
       6 <- 28        -0.00162
       6 <- 35         0.00049
       6 <- 45         0.00011
       7 <- 28        -0.00050
       7 <- 35        -0.00022
       8 <- 10         0.00153
       8 <- 14         0.00164
       8 <- 18         0.00392
       8 <- 23         0.00083
       8 <- 27         0.00014
       8 <- 34        -0.00207
       8 <- 36         0.00075
       8 <- 41        -0.00021
 
 Excited State   6:      Singlet-B2     8.7444 eV  141.79 nm  f=0.1717  <S**2>=0.000
       3 -> 11         0.00090
       3 -> 15        -0.00171
       3 -> 19         0.00188
       3 -> 22        -0.00138
       3 -> 25        -0.00061
       3 -> 29         0.00119
       3 -> 31         0.00074
       3 -> 40        -0.00077
       3 -> 43        -0.00032
       4 ->  9         0.00197
       4 -> 12        -0.00202
       4 -> 13        -0.00509
       4 -> 16        -0.00052
       4 -> 17        -0.00082
       4 -> 20        -0.00408
       4 -> 21        -0.00494
       4 -> 24        -0.00074
       4 -> 26        -0.00049
       4 -> 30        -0.00289
       4 -> 32         0.00019
       4 -> 33         0.00016
       4 -> 37        -0.00103
       4 -> 39         0.00013
       4 -> 42         0.00023
       4 -> 51         0.00026
       5 -> 28        -0.00337
       5 -> 45         0.00040
       6 -> 11        -0.02436
       6 -> 15         0.00574
       6 -> 19        -0.01655
       6 -> 22        -0.00105
       6 -> 25         0.00616
       6 -> 29         0.00149
       6 -> 31         0.00293
       6 -> 38        -0.00313
       6 -> 40         0.00059
       6 -> 43         0.00085
       6 -> 46        -0.00023
       6 -> 50        -0.00014
       7 -> 11        -0.01354
       7 -> 15        -0.00193
       7 -> 19        -0.00583
       7 -> 22         0.00021
       7 -> 29         0.00086
       7 -> 31        -0.00072
       7 -> 38        -0.00058
       7 -> 40         0.00054
       7 -> 43         0.00049
       8 ->  9        -0.05820
       8 -> 12        -0.02273
       8 -> 13         0.56553
       8 -> 16        -0.41680
       8 -> 17         0.03509
       8 -> 20        -0.01155
       8 -> 21        -0.04729
       8 -> 24        -0.00822
       8 -> 26        -0.00534
       8 -> 30         0.00717
       8 -> 32         0.00301
       8 -> 33         0.00046
       8 -> 37        -0.00339
       8 -> 39        -0.00015
       8 -> 42        -0.00138
       8 -> 44        -0.00280
       8 -> 47         0.00033
       8 -> 48         0.00045
       8 -> 54         0.00018
       3 <- 11         0.00049
       3 <- 15        -0.00089
       3 <- 19         0.00092
       3 <- 22        -0.00087
       3 <- 25        -0.00052
       3 <- 29         0.00062
       3 <- 31         0.00056
       3 <- 40        -0.00063
       3 <- 43        -0.00029
       4 <-  9         0.00074
       4 <- 12        -0.00054
       4 <- 13        -0.00272
       4 <- 16        -0.00095
       4 <- 20        -0.00249
       4 <- 21        -0.00281
       4 <- 24        -0.00035
       4 <- 26        -0.00083
       4 <- 30        -0.00179
       4 <- 32         0.00038
       4 <- 33        -0.00012
       4 <- 37        -0.00073
       4 <- 39        -0.00013
       4 <- 42         0.00029
       4 <- 44        -0.00017
       4 <- 51         0.00018
       5 <- 28        -0.00268
       5 <- 35         0.00014
       5 <- 45         0.00044
       6 <- 11        -0.00743
       6 <- 15         0.00223
       6 <- 19        -0.00607
       6 <- 22        -0.00178
       6 <- 25         0.00460
       6 <- 29         0.00085
       6 <- 31         0.00147
       6 <- 38        -0.00226
       6 <- 40         0.00037
       6 <- 43         0.00074
       6 <- 46        -0.00030
       7 <- 11        -0.00208
       7 <- 15        -0.00064
       7 <- 19        -0.00116
       7 <- 22        -0.00031
       7 <- 25         0.00031
       7 <- 29         0.00110
       7 <- 31        -0.00073
       7 <- 38        -0.00043
       7 <- 40         0.00033
       7 <- 43         0.00036
       8 <-  9         0.02235
       8 <- 12         0.01063
       8 <- 13        -0.03290
       8 <- 16        -0.01102
       8 <- 17         0.00352
       8 <- 20        -0.00154
       8 <- 21        -0.02180
       8 <- 24        -0.00247
       8 <- 26        -0.00144
       8 <- 30         0.00398
       8 <- 32         0.00159
       8 <- 33        -0.00031
       8 <- 37        -0.00208
       8 <- 39        -0.00020
       8 <- 42        -0.00115
       8 <- 44        -0.00194
       8 <- 47         0.00026
       8 <- 48         0.00035
       8 <- 51        -0.00013
 
 Excited State   7:      Singlet-A1     8.7773 eV  141.26 nm  f=0.0382  <S**2>=0.000
       3 ->  9        -0.00053
       3 -> 12         0.00015
       3 -> 13        -0.00056
       3 -> 16         0.00095
       3 -> 17         0.00055
       3 -> 20        -0.00013
       3 -> 21        -0.00065
       3 -> 24         0.00093
       3 -> 26        -0.00020
       3 -> 30        -0.00078
       3 -> 32        -0.00081
       3 -> 33         0.00024
       3 -> 39        -0.00012
       3 -> 42        -0.00030
       3 -> 47         0.00025
       3 -> 48        -0.00028
       3 -> 51        -0.00028
       3 -> 54         0.00013
       4 -> 11        -0.00076
       4 -> 15        -0.00027
       4 -> 19        -0.00016
       4 -> 22         0.00062
       4 -> 25        -0.00032
       4 -> 29         0.00038
       4 -> 31         0.00077
       4 -> 40        -0.00031
       4 -> 43        -0.00023
       4 -> 46         0.00058
       4 -> 50         0.00043
       5 -> 10         0.00265
       5 -> 14         0.00129
       5 -> 18         0.00270
       5 -> 23        -0.00115
       5 -> 27         0.00194
       5 -> 34         0.00023
       5 -> 36        -0.00028
       5 -> 41         0.00039
       5 -> 49         0.00080
       5 -> 52         0.00013
       6 ->  9         0.01054
       6 -> 12         0.00207
       6 -> 13        -0.00111
       6 -> 16        -0.00418
       6 -> 17        -0.00672
       6 -> 20         0.00797
       6 -> 21         0.00210
       6 -> 24        -0.00201
       6 -> 26         0.00075
       6 -> 30         0.00163
       6 -> 32        -0.00200
       6 -> 33        -0.00047
       6 -> 37         0.00150
       6 -> 39         0.00065
       6 -> 42        -0.00035
       6 -> 44         0.00044
       6 -> 47        -0.00017
       6 -> 51        -0.00017
       6 -> 54         0.00021
       7 ->  9        -0.01232
       7 -> 12         0.00661
       7 -> 13         0.00107
       7 -> 16        -0.00755
       7 -> 17         0.00597
       7 -> 20        -0.00061
       7 -> 21         0.00288
       7 -> 24         0.00018
       7 -> 26        -0.00471
       7 -> 30         0.00081
       7 -> 32        -0.00050
       7 -> 33        -0.00022
       7 -> 37         0.00049
       7 -> 39        -0.00065
       7 -> 42         0.00024
       7 -> 44        -0.00026
       7 -> 47         0.00080
       7 -> 48        -0.00055
       7 -> 54        -0.00051
       8 -> 11        -0.05578
       8 -> 15         0.70361
       8 -> 19         0.03447
       8 -> 22         0.01248
       8 -> 25         0.00281
       8 -> 29         0.00376
       8 -> 31         0.00253
       8 -> 38         0.00163
       8 -> 43        -0.00052
       8 -> 50        -0.00030
       3 <-  9        -0.00058
       3 <- 13        -0.00012
       3 <- 16         0.00067
       3 <- 17         0.00043
       3 <- 21        -0.00047
       3 <- 24         0.00072
       3 <- 26        -0.00019
       3 <- 30        -0.00059
       3 <- 32        -0.00063
       3 <- 33         0.00029
       3 <- 39        -0.00012
       3 <- 42        -0.00025
       3 <- 47         0.00022
       3 <- 48        -0.00025
       3 <- 51        -0.00026
       3 <- 54         0.00011
       4 <- 11         0.00090
       4 <- 15         0.00084
       4 <- 19         0.00095
       4 <- 22         0.00059
       4 <- 25         0.00053
       4 <- 31         0.00065
       4 <- 40        -0.00028
       4 <- 43        -0.00019
       4 <- 46         0.00053
       4 <- 50         0.00041
       5 <- 10         0.00131
       5 <- 14         0.00070
       5 <- 18         0.00146
       5 <- 23        -0.00077
       5 <- 27         0.00135
       5 <- 34         0.00017
       5 <- 36        -0.00023
       5 <- 41         0.00031
       5 <- 49         0.00070
       5 <- 52         0.00011
       6 <-  9         0.00202
       6 <- 12         0.00229
       6 <- 13         0.00033
       6 <- 17        -0.00106
       6 <- 20         0.00436
       6 <- 21         0.00145
       6 <- 24        -0.00054
       6 <- 26         0.00088
       6 <- 30         0.00117
       6 <- 32        -0.00128
       6 <- 33        -0.00021
       6 <- 37         0.00101
       6 <- 39         0.00021
       6 <- 42        -0.00029
       6 <- 44         0.00033
       6 <- 47        -0.00016
       6 <- 51        -0.00014
       6 <- 54         0.00017
       7 <-  9        -0.00241
       7 <- 12         0.00187
       7 <- 13         0.00098
       7 <- 16        -0.00149
       7 <- 17         0.00246
       7 <- 20         0.00031
       7 <- 21         0.00152
       7 <- 24         0.00031
       7 <- 26        -0.00274
       7 <- 30         0.00055
       7 <- 32        -0.00042
       7 <- 33        -0.00017
       7 <- 37         0.00039
       7 <- 39        -0.00065
       7 <- 42         0.00011
       7 <- 44        -0.00020
       7 <- 47         0.00081
       7 <- 48        -0.00044
       7 <- 54        -0.00045
       8 <- 11         0.00515
       8 <- 15         0.00056
       8 <- 19         0.00648
       8 <- 22        -0.00054
       8 <- 25        -0.00245
       8 <- 29         0.00221
       8 <- 31         0.00222
       8 <- 38         0.00123
       8 <- 43        -0.00041
       8 <- 46         0.00010
       8 <- 50        -0.00025
 
 Excited State   8:      Singlet-B2     9.4059 eV  131.82 nm  f=0.2676  <S**2>=0.000
       3 -> 11        -0.00021
       3 -> 15        -0.00270
       3 -> 19         0.00070
       3 -> 22        -0.00261
       3 -> 25        -0.00189
       3 -> 29         0.00133
       3 -> 31         0.00125
       3 -> 38        -0.00068
       3 -> 40        -0.00125
       3 -> 43        -0.00073
       3 -> 46         0.00015
       3 -> 53        -0.00027
       4 ->  9         0.00275
       4 -> 12        -0.00108
       4 -> 13        -0.00676
       4 -> 16        -0.00366
       4 -> 17        -0.00061
       4 -> 20        -0.00674
       4 -> 21        -0.00479
       4 -> 24        -0.00137
       4 -> 26        -0.00242
       4 -> 30        -0.00507
       4 -> 32        -0.00030
       4 -> 33        -0.00129
       4 -> 37        -0.00015
       4 -> 39        -0.00026
       4 -> 42        -0.00029
       4 -> 44         0.00031
       4 -> 47         0.00052
       4 -> 51         0.00028
       4 -> 54        -0.00014
       5 -> 28        -0.00574
       5 -> 35        -0.00171
       5 -> 45        -0.00042
       6 -> 11        -0.02865
       6 -> 15         0.00187
       6 -> 19        -0.01690
       6 -> 22        -0.00425
       6 -> 25         0.00862
       6 -> 29         0.00018
       6 -> 31         0.00023
       6 -> 38        -0.00230
[...]
  47        4PZ         0.00700   0.00000  -0.00793   0.00326  -0.03506
  48        5S          0.00443   0.00000  -0.02046  -0.02141  -0.02259
  49        5PX         0.00000  -0.00000   0.00000   0.00000   0.00000
  50        5PY        -0.00000  -0.00000  -0.05586  -0.08992  -0.11155
  51        5PZ         0.00047   0.00000  -0.00032   0.00069  -0.00210
  52        6D 0        0.00025   0.00000  -0.00101  -0.00083  -0.00105
  53        6D+1       -0.00000  -0.00000   0.00000   0.00000   0.00000
  54        6D-1        0.00000   0.00000   0.00182   0.00196   0.01848
  55        6D+2       -0.00002   0.00000  -0.00050  -0.00081   0.00008
  56        6D-2        0.00000  -0.00000   0.00000   0.00000   0.00000
                          26        27        28        29        30
  26        4PX         0.00010
  27        4PY         0.00000   0.00255
  28        4PZ         0.00000  -0.00144   0.00114
  29 3   H  1S          0.00000  -0.00598   0.00036   0.08775
  30        2S          0.00000  -0.00823  -0.00033   0.13270   0.20392
  31        3S          0.00000  -0.00628   0.00188   0.11845   0.18558
  32        4PX         0.00010   0.00000   0.00000   0.00000   0.00000
  33        4PY         0.00000  -0.00008  -0.00070   0.00512   0.00752
  34        4PZ         0.00000   0.00070  -0.00085   0.00360   0.00549
  35 4   O  1S          0.00000  -0.00177  -0.00071   0.00659   0.01195
  36        2S          0.00000  -0.00366  -0.00063   0.01125   0.02099
  37        2PX         0.00430   0.00000   0.00000   0.00000   0.00000
  38        2PY         0.00000  -0.01646   0.01362   0.02553   0.03670
  39        2PZ         0.00000  -0.01037   0.00071   0.00789   0.02869
  40        3S          0.00000   0.00393   0.00084  -0.01699  -0.02929
  41        3PX         0.00516   0.00000   0.00000   0.00000   0.00000
  42        3PY         0.00000  -0.01996   0.01603   0.04499   0.06718
  43        3PZ         0.00000  -0.00648  -0.00030  -0.00728   0.00637
  44        4S          0.00000  -0.00102   0.00001  -0.02810  -0.02871
  45        4PX         0.00212   0.00000   0.00000   0.00000   0.00000
  46        4PY         0.00000  -0.01120   0.00731   0.07442   0.11721
  47        4PZ         0.00000  -0.00536  -0.00026  -0.00793   0.00326
  48        5S          0.00000   0.00075  -0.00096  -0.02046  -0.02141
  49        5PX        -0.00055   0.00000   0.00000   0.00000   0.00000
  50        5PY         0.00000  -0.00146  -0.00063   0.05586   0.08992
  51        5PZ         0.00000  -0.00044  -0.00005  -0.00032   0.00069
  52        6D 0        0.00000  -0.00001  -0.00011  -0.00101  -0.00083
  53        6D+1       -0.00099   0.00000   0.00000   0.00000   0.00000
  54        6D-1        0.00000   0.00354  -0.00306  -0.00182  -0.00196
  55        6D+2        0.00000   0.00016  -0.00003  -0.00050  -0.00081
  56        6D-2       -0.00000   0.00000   0.00000   0.00000   0.00000
                          31        32        33        34        35
  31        3S          0.24260
  32        4PX         0.00000   0.00010
  33        4PY        -0.00579   0.00000   0.00255
  34        4PZ        -0.00108   0.00000   0.00144   0.00114
  35 4   O  1S          0.00372   0.00000   0.00177  -0.00071   0.64467
  36        2S          0.00442   0.00000   0.00366  -0.00063   0.58470
  37        2PX         0.00000   0.00430   0.00000   0.00000   0.00000
  38        2PY         0.11800   0.00000  -0.01646  -0.01362   0.00000
  39        2PZ        -0.03817   0.00000   0.01037   0.00071   0.01616
  40        3S         -0.02316   0.00000  -0.00393   0.00084  -0.08832
  41        3PX         0.00000   0.00516   0.00000   0.00000   0.00000
  42        3PY         0.16953   0.00000  -0.01996  -0.01603   0.00000
  43        3PZ        -0.03890   0.00000   0.00648  -0.00030   0.01312
  44        4S         -0.05459   0.00000   0.00102   0.00001  -0.06037
  45        4PX         0.00000   0.00212   0.00000   0.00000   0.00000
  46        4PY         0.18787   0.00000  -0.01120  -0.00731  -0.00000
  47        4PZ        -0.03506   0.00000   0.00536  -0.00026  -0.00675
  48        5S         -0.02259   0.00000  -0.00075  -0.00096  -0.00050
  49        5PX         0.00000  -0.00055   0.00000   0.00000   0.00000
  50        5PY         0.11155   0.00000  -0.00146   0.00063   0.00000
  51        5PZ        -0.00210   0.00000   0.00044  -0.00005   0.00291
  52        6D 0       -0.00105   0.00000   0.00001  -0.00011   0.00481
  53        6D+1        0.00000  -0.00099   0.00000   0.00000   0.00000
  54        6D-1       -0.01848   0.00000   0.00354   0.00306   0.00000
  55        6D+2        0.00008   0.00000  -0.00016  -0.00003  -0.00034
  56        6D-2        0.00000   0.00000   0.00000   0.00000   0.00000
                          36        37        38        39        40
  36        2S          0.55455
  37        2PX         0.00000   0.19111
  38        2PY         0.00000   0.00000   0.22703
  39        2PZ         0.03560  -0.00000   0.00000   0.32105
  40        3S         -0.18711   0.00000   0.00000   0.05431   0.56109
  41        3PX         0.00000   0.22924   0.00000   0.00000   0.00000
  42        3PY         0.00000   0.00000   0.28006   0.00000   0.00000
  43        3PZ         0.02295  -0.00000   0.00000   0.29133   0.08334
  44        4S         -0.13658   0.00000   0.00000   0.29141   0.54834
  45        4PX         0.00000   0.09445   0.00000   0.00000   0.00000
  46        4PY        -0.00000   0.00000   0.17396   0.00000   0.00000
  47        4PZ        -0.00022  -0.00000   0.00000   0.25550   0.09449
  48        5S         -0.01578   0.00000   0.00000   0.11932   0.13000
  49        5PX         0.00000  -0.02461   0.00000   0.00000   0.00000
  50        5PY         0.00000   0.00000   0.03847   0.00000  -0.00000
  51        5PZ         0.00524  -0.00000   0.00000   0.01779  -0.00491
  52        6D 0        0.00603   0.00000  -0.00000   0.00807  -0.00578
  53        6D+1        0.00000  -0.04394   0.00000   0.00000  -0.00000
  54        6D-1        0.00000   0.00000  -0.04762   0.00000  -0.00000
  55        6D+2       -0.00098  -0.00000   0.00000  -0.00206   0.00218
  56        6D-2        0.00000  -0.00000   0.00000   0.00000   0.00000
                          41        42        43        44        45
  41        3PX         0.27498
  42        3PY         0.00000   0.34878
  43        3PZ        -0.00000   0.00000   0.27567
  44        4S          0.00000   0.00000   0.30321   0.72817
  45        4PX         0.11329   0.00000   0.00000   0.00000   0.04668
  46        4PY         0.00000   0.22800   0.00000   0.00000   0.00000
  47        4PZ        -0.00000   0.00000   0.24279   0.28572  -0.00000
  48        5S          0.00000   0.00000   0.12396   0.22067   0.00000
  49        5PX        -0.02952   0.00000   0.00000   0.00000  -0.01216
  50        5PY         0.00000   0.06005   0.00000   0.00000   0.00000
  51        5PZ        -0.00000   0.00000   0.01667   0.00953  -0.00000
  52        6D 0        0.00000  -0.00000   0.00843   0.00165   0.00000
  53        6D+1       -0.05270   0.00000   0.00000   0.00000  -0.02171
  54        6D-1        0.00000  -0.05788   0.00000   0.00000   0.00000
  55        6D+2       -0.00000   0.00000  -0.00148   0.00064  -0.00000
  56        6D-2       -0.00000   0.00000   0.00000   0.00000  -0.00000
                          46        47        48        49        50
  46        4PY         0.18778
  47        4PZ         0.00000   0.21512
  48        5S          0.00000   0.11327   0.08004
  49        5PX         0.00000   0.00000   0.00000   0.00317
  50        5PY         0.08067   0.00000   0.00000   0.00000   0.05462
  51        5PZ         0.00000   0.01422   0.00569  -0.00000   0.00000
  52        6D 0       -0.00000   0.00692   0.00255  -0.00000  -0.00000
  53        6D+1        0.00000   0.00000   0.00000   0.00566   0.00000
  54        6D-1       -0.03298   0.00000   0.00000   0.00000  -0.00477
  55        6D+2        0.00000  -0.00121  -0.00002  -0.00000   0.00000
  56        6D-2        0.00000   0.00000   0.00000   0.00000   0.00000
                          51        52        53        54        55
  51        5PZ         0.00123
  52        6D 0        0.00076   0.00063
  53        6D+1        0.00000  -0.00000   0.01010
  54        6D-1        0.00000   0.00000   0.00000   0.01021
  55        6D+2       -0.00013  -0.00005   0.00000  -0.00000   0.00003
  56        6D-2        0.00000   0.00000   0.00000  -0.00000   0.00000
                          56
  56        6D-2        0.00000
          Condensed to atoms (all electrons):
               1          2          3          4
     1  C    5.220781   0.563516   0.563516  -0.476532
     2  H    0.563516   1.106877  -0.257771  -0.269653
     3  H    0.563516  -0.257771   1.106877  -0.269653
     4  O   -0.476532  -0.269653  -0.269653   8.858619
 Mulliken charges:
               1
     1  C    0.128719
     2  H   -0.142969
     3  H   -0.142969
     4  O    0.157219
 Sum of Mulliken charges =  -0.00000
 Mulliken charges with hydrogens summed into heavy atoms:
               1
     1  C   -0.157219
     4  O    0.157219
 Electronic spatial extent (au):  <R**2>=             43.2779
 Charge=              0.0000 electrons
 Dipole moment (field-independent basis, Debye):
    X=              0.0000    Y=              0.0000    Z=              1.7833  Tot=              1.7833
 Quadrupole moment (field-independent basis, Debye-Ang):
   XX=             -9.9192   YY=            -14.5686   ZZ=            -13.8058
   XY=             -0.0000   XZ=             -0.0000   YZ=              0.0000
 Traceless Quadrupole moment (field-independent basis, Debye-Ang):
   XX=              2.8453   YY=             -1.8041   ZZ=             -1.0413
   XY=             -0.0000   XZ=             -0.0000   YZ=              0.0000
 Octapole moment (field-independent basis, Debye-Ang**2):
  XXX=              0.0000  YYY=             -0.0000  ZZZ=              6.6085  XYY=              0.0000
  XXY=             -0.0000  XXZ=              2.1763  XZZ=              0.0000  YZZ=              0.0000
  YYZ=              6.1302  XYZ=              0.0000
 Hexadecapole moment (field-independent basis, Debye-Ang**3):
 XXXX=             -9.1596 YYYY=            -41.8249 ZZZZ=            -31.1618 XXXY=             -0.0000
 XXXZ=             -0.0000 YYYX=             -0.0000 YYYZ=              0.0000 ZZZX=             -0.0000
 ZZZY=             -0.0000 XXYY=             -8.0133 XXZZ=             -6.4177 YYZZ=            -14.0395
 XXYZ=             -0.0000 YYXZ=             -0.0000 ZZXY=             -0.0000
 N-N= 5.926811037793D+01 E-N=-3.860137405191D+02  KE= 1.257444805248D+02
 Symmetry A1   KE= 1.116789789304D+02
 Symmetry A2   KE= 2.398409428401D-35
 Symmetry B1   KE= 6.037101135450D+00
 Symmetry B2   KE= 8.028400458989D+00
 Leave Link  601 at Fri Sep 17 10:52:18 2021, MaxMem=   268435456 cpu:               0.1 elap:               0.1
 (Enter /software/gaussian/g16-a03/l9999.exe)
 Electronic transition elements 
                 1             2             3             4             5 
      1  -0.109800D+03 -0.109786D+03 -0.109758D+03 -0.109747D+03 -0.109644D+03
      2   0.000000D+00  0.000000D+00  0.000000D+00  0.000000D+00  0.000000D+00
      3   0.120911D+01  0.000000D+00  0.543033D+00  0.000000D+00  0.000000D+00
      4   0.000000D+00  0.000000D+00  0.000000D+00 -0.400279D-01  0.000000D+00
      5   0.000000D+00  0.000000D+00  0.000000D+00  0.000000D+00  0.000000D+00
      6  -0.180301D+00  0.000000D+00 -0.102174D+00  0.000000D+00  0.000000D+00
      7   0.000000D+00  0.000000D+00  0.000000D+00  0.444050D-02  0.000000D+00
      8  -0.437287D+00  0.000000D+00  0.787062D+00  0.000000D+00  0.000000D+00
      9   0.000000D+00  0.000000D+00  0.000000D+00  0.000000D+00  0.000000D+00
     10   0.000000D+00 -0.924819D+00  0.000000D+00  0.000000D+00  0.508154D+00
     11   0.000000D+00  0.000000D+00  0.000000D+00  0.341892D+00  0.000000D+00
     12   0.000000D+00  0.000000D+00  0.000000D+00  0.890244D+00  0.000000D+00
     13   0.000000D+00  0.000000D+00  0.000000D+00  0.777305D-01  0.000000D+00
     14   0.000000D+00  0.376281D+00  0.000000D+00  0.000000D+00 -0.169563D+00
     15   0.000000D+00  0.000000D+00  0.000000D+00  0.000000D+00  0.000000D+00
     16   0.270913D+00  0.000000D+00  0.521529D+00  0.000000D+00  0.000000D+00
                 6             7             8             9            10 
      1  -0.109638D+03 -0.109637D+03 -0.109614D+03 -0.109593D+03 -0.109591D+03
      2   0.000000D+00  0.000000D+00  0.000000D+00  0.000000D+00  0.000000D+00
      3  -0.895314D+00  0.000000D+00 -0.107763D+01  0.000000D+00  0.823932D+00
      4   0.000000D+00 -0.421596D+00  0.000000D+00  0.000000D+00  0.000000D+00
      5   0.000000D+00  0.000000D+00  0.000000D+00  0.000000D+00  0.000000D+00
      6   0.295294D+00  0.000000D+00  0.348374D+00  0.000000D+00 -0.282080D+00
      7   0.000000D+00  0.125439D+00  0.000000D+00  0.000000D+00  0.000000D+00
      8   0.759335D-01  0.000000D+00  0.964046D+00  0.000000D+00 -0.357261D+00
      9   0.000000D+00  0.000000D+00  0.000000D+00  0.000000D+00  0.000000D+00
     10   0.000000D+00  0.000000D+00  0.000000D+00 -0.905884D+00  0.000000D+00
     11   0.000000D+00 -0.258372D+00  0.000000D+00  0.000000D+00  0.000000D+00
     12   0.000000D+00 -0.688413D+00  0.000000D+00  0.000000D+00  0.000000D+00
     13   0.000000D+00 -0.555696D+00  0.000000D+00  0.000000D+00  0.000000D+00
     14   0.000000D+00  0.000000D+00  0.000000D+00 -0.713544D-01  0.000000D+00
     15   0.000000D+00  0.000000D+00  0.000000D+00  0.000000D+00  0.000000D+00
     16  -0.853083D+00  0.000000D+00 -0.439611D+00  0.000000D+00  0.338147D+00
                11            12            13            14            15 
      1  -0.109536D+03 -0.109514D+03 -0.109497D+03 -0.109487D+03 -0.109475D+03
      2   0.000000D+00 -0.701800D-01  0.000000D+00  0.000000D+00  0.000000D+00
      3   0.000000D+00  0.000000D+00  0.000000D+00 -0.320405D+00  0.000000D+00
      4   0.499814D+00  0.000000D+00  0.772182D+00  0.000000D+00  0.165850D+00
      5   0.000000D+00  0.166489D-01  0.000000D+00  0.000000D+00  0.000000D+00
      6   0.000000D+00  0.000000D+00  0.000000D+00  0.158748D+00  0.000000D+00
      7  -0.202208D+00  0.000000D+00 -0.336943D+00  0.000000D+00 -0.694815D-01
      8   0.000000D+00  0.000000D+00  0.000000D+00 -0.663449D+00  0.000000D+00
      9   0.000000D+00  0.977076D-01  0.000000D+00  0.000000D+00  0.000000D+00
     10   0.000000D+00  0.000000D+00  0.000000D+00  0.000000D+00  0.000000D+00
     11  -0.104954D+00  0.000000D+00 -0.507435D-02  0.000000D+00  0.166041D+00
     12   0.949936D-01  0.000000D+00  0.965457D+00  0.000000D+00  0.525447D+00
     13  -0.212648D+00  0.000000D+00  0.667180D+00  0.000000D+00  0.741946D+00
     14   0.000000D+00  0.000000D+00  0.000000D+00  0.000000D+00  0.000000D+00
     15   0.000000D+00  0.244085D+00  0.000000D+00  0.000000D+00  0.000000D+00
     16   0.000000D+00  0.000000D+00  0.000000D+00  0.239528D+00  0.000000D+00
                16            17            18            19            20 
      1  -0.109453D+03 -0.109421D+03 -0.109409D+03 -0.109401D+03 -0.109378D+03
      2   0.000000D+00  0.000000D+00  0.461831D+00  0.000000D+00  0.000000D+00
      3  -0.294298D+00  0.000000D+00  0.000000D+00  0.000000D+00 -0.131252D-01
      4   0.000000D+00  0.219321D+00  0.000000D+00 -0.146584D+00  0.000000D+00
      5   0.000000D+00  0.000000D+00 -0.242501D+00  0.000000D+00  0.000000D+00
      6   0.974344D-01  0.000000D+00  0.000000D+00  0.000000D+00 -0.345663D-02
      7   0.000000D+00 -0.117520D+00  0.000000D+00  0.804619D-01  0.000000D+00
      8   0.140885D+01  0.000000D+00  0.000000D+00  0.000000D+00  0.212515D+00
      9   0.000000D+00  0.000000D+00  0.554512D+00  0.000000D+00  0.000000D+00
     10   0.000000D+00  0.000000D+00  0.000000D+00  0.000000D+00  0.000000D+00
     11   0.000000D+00  0.356234D+00  0.000000D+00  0.101285D-01  0.000000D+00
     12   0.000000D+00  0.798218D+00  0.000000D+00 -0.163274D+00  0.000000D+00
     13   0.000000D+00  0.283899D+00  0.000000D+00  0.179663D+00  0.000000D+00
     14   0.000000D+00  0.000000D+00  0.000000D+00  0.000000D+00  0.000000D+00
     15   0.000000D+00  0.000000D+00  0.509639D+00  0.000000D+00  0.000000D+00
     16  -0.126023D+00  0.000000D+00  0.000000D+00  0.000000D+00 -0.264586D+00
                21            22            23            24            25 
      1  -0.109378D+03 -0.109376D+03 -0.109371D+03 -0.109357D+03 -0.109325D+03
      2   0.000000D+00 -0.553178D+00  0.000000D+00  0.000000D+00  0.164564D+00
      3   0.000000D+00  0.000000D+00 -0.388614D+00  0.000000D+00  0.000000D+00
      4   0.590763D+00  0.000000D+00  0.000000D+00  0.194532D+00  0.000000D+00
      5   0.000000D+00  0.324011D+00  0.000000D+00  0.000000D+00 -0.103903D+00
      6   0.000000D+00  0.000000D+00  0.217809D+00  0.000000D+00  0.000000D+00
      7  -0.334904D+00  0.000000D+00  0.000000D+00 -0.119190D+00  0.000000D+00
      8   0.000000D+00  0.000000D+00 -0.337662D+00  0.000000D+00  0.000000D+00
      9   0.000000D+00  0.759413D+00  0.000000D+00  0.000000D+00 -0.463526D+00
     10   0.000000D+00  0.000000D+00  0.000000D+00  0.000000D+00  0.000000D+00
     11   0.227799D+00  0.000000D+00  0.000000D+00 -0.657802D-01  0.000000D+00
     12   0.378791D+00  0.000000D+00  0.000000D+00 -0.762781D-01  0.000000D+00
     13   0.849309D+00  0.000000D+00  0.000000D+00 -0.852629D+00  0.000000D+00
     14   0.000000D+00  0.000000D+00  0.000000D+00  0.000000D+00  0.000000D+00
     15   0.000000D+00  0.497672D+00  0.000000D+00  0.000000D+00 -0.241648D-01
     16   0.000000D+00  0.000000D+00  0.384688D+00  0.000000D+00  0.000000D+00
                26            27            28            29            30 
      1  -0.109310D+03 -0.109283D+03 -0.109267D+03 -0.109266D+03 -0.109257D+03
      2   0.000000D+00  0.000000D+00  0.000000D+00 -0.237089D+00  0.000000D+00
      3   0.000000D+00  0.000000D+00 -0.950503D-01  0.000000D+00 -0.280227D+00
      4  -0.431138D+00 -0.104560D+00  0.000000D+00  0.000000D+00  0.000000D+00
      5   0.000000D+00  0.000000D+00  0.000000D+00  0.177412D+00  0.000000D+00
      6   0.000000D+00  0.000000D+00  0.907867D-01  0.000000D+00  0.213500D+00
      7   0.279586D+00  0.757262D-01  0.000000D+00  0.000000D+00  0.000000D+00
      8   0.000000D+00  0.000000D+00 -0.256262D-01  0.000000D+00  0.427158D+00
      9   0.000000D+00  0.000000D+00  0.000000D+00 -0.236405D+00  0.000000D+00
     10   0.000000D+00  0.000000D+00  0.000000D+00  0.000000D+00  0.000000D+00
     11   0.320951D+00  0.404972D+00  0.000000D+00  0.000000D+00  0.000000D+00
     12   0.718106D-01 -0.126322D+01  0.000000D+00  0.000000D+00  0.000000D+00
     13   0.891786D+00 -0.652585D+00  0.000000D+00  0.000000D+00  0.000000D+00
     14   0.000000D+00  0.000000D+00  0.000000D+00  0.000000D+00  0.000000D+00
     15   0.000000D+00  0.000000D+00  0.000000D+00 -0.430242D+00  0.000000D+00
     16   0.000000D+00  0.000000D+00 -0.450461D+00  0.000000D+00 -0.213512D+00

 Test job not archived.
 1\1\GINC-BHD0001\SP\RB3LYP TD-FC\6-311+G(d,p)\C1H2O1\BWEIGHT\17-Sep-20
 21\0\\#p B3LYP/6-311+G** #p TD=(singlets,nstates=30)IOp(6/8=3) IOp(9/4
 0=4)\\Scan Step 7, Bond Length 0.535\\0,1\C,0,0.,0.,-0.52736\H,0,0.,0.
 93726,-1.11871\H,0,0.,-0.93726,-1.11871\O,0,0.,0.,0.00764\\Version=ES6
 4L-G16RevA.03\State=1-A1\HF=-109.959718\RMSD=9.886e-10\PG=C02V [C2(C1O
 1),SGV(H2)]\\@


 The theorems and results in mathematical physics are
 not theorems and results about Nature, but about our
 description of it.
                   --Gerard 't Hooft
 Job cpu time:       0 days  0 hours  0 minutes 29.6 seconds.
 Elapsed time:       0 days  0 hours  0 minutes 30.2 seconds.
 File lengths (MBytes):  RWF=     79 Int=      0 D2E=      0 Chk=     32 Scr=      1
 Normal termination of Gaussian 16 at Fri Sep 17 10:52:18 2021.
