 Entering Gaussian System, Link 0=g16
 Initial command:
 /software/gaussian/g16-c01/sse4/g16/l1.exe "/local_scratch/24657430/Gau-28518.inp" -scrdir="/local_scratch/24657430/"
 Entering Link 1 = /software/gaussian/g16-c01/sse4/g16/l1.exe PID=     28520.
  
 Copyright (c) 1988-2019, Gaussian, Inc.  All Rights Reserved.
  
 This is part of the Gaussian(R) 16 program.  It is based on
 the Gaussian(R) 09 system (copyright 2009, Gaussian, Inc.),
 the Gaussian(R) 03 system (copyright 2003, Gaussian, Inc.),
 the Gaussian(R) 98 system (copyright 1998, Gaussian, Inc.),
 the Gaussian(R) 94 system (copyright 1995, Gaussian, Inc.),
 the Gaussian 92(TM) system (copyright 1992, Gaussian, Inc.),
 the Gaussian 90(TM) system (copyright 1990, Gaussian, Inc.),
 the Gaussian 88(TM) system (copyright 1988, Gaussian, Inc.),
 the Gaussian 86(TM) system (copyright 1986, Carnegie Mellon
 University), and the Gaussian 82(TM) system (copyright 1983,
 Carnegie Mellon University). Gaussian is a federally registered
 trademark of Gaussian, Inc.
  
 This software contains proprietary and confidential information,
 including trade secrets, belonging to Gaussian, Inc.
  
 This software is provided under written license and may be
 used, copied, transmitted, or stored only in accord with that
 written license.
  
 The following legend is applicable only to US Government
 contracts under FAR:
  
                    RESTRICTED RIGHTS LEGEND
  
 Use, reproduction and disclosure by the US Government is
 subject to restrictions as set forth in subparagraphs (a)
 and (c) of the Commercial Computer Software - Restricted
 Rights clause in FAR 52.227-19.
  
 Gaussian, Inc.
 340 Quinnipiac St., Bldg. 40, Wallingford CT 06492
  
  
 ---------------------------------------------------------------
 Warning -- This program may not be used in any manner that
 competes with the business of Gaussian, Inc. or will provide
 assistance to any competitor of Gaussian, Inc.  The licensee
 of this program is prohibited from giving any competitor of
 Gaussian, Inc. access to this program.  By using this program,
 the user acknowledges that Gaussian, Inc. is engaged in the
 business of creating and licensing software in the field of
 computational chemistry and represents and warrants to the
 licensee that it is not a competitor of Gaussian, Inc. and that
 it will not use this program in any manner prohibited above.
 ---------------------------------------------------------------
  

 Cite this work as:
 Gaussian 16, Revision C.01,
 M. J. Frisch, G. W. Trucks, H. B. Schlegel, G. E. Scuseria, 
 M. A. Robb, J. R. Cheeseman, G. Scalmani, V. Barone, 
 G. A. Petersson, H. Nakatsuji, X. Li, M. Caricato, A. V. Marenich, 
 J. Bloino, B. G. Janesko, R. Gomperts, B. Mennucci, H. P. Hratchian, 
 J. V. Ortiz, A. F. Izmaylov, J. L. Sonnenberg, D. Williams-Young, 
 F. Ding, F. Lipparini, F. Egidi, J. Goings, B. Peng, A. Petrone, 
 T. Henderson, D. Ranasinghe, V. G. Zakrzewski, J. Gao, N. Rega, 
 G. Zheng, W. Liang, M. Hada, M. Ehara, K. Toyota, R. Fukuda, 
 J. Hasegawa, M. Ishida, T. Nakajima, Y. Honda, O. Kitao, H. Nakai, 
 T. Vreven, K. Throssell, J. A. Montgomery, Jr., J. E. Peralta, 
 F. Ogliaro, M. J. Bearpark, J. J. Heyd, E. N. Brothers, K. N. Kudin, 
 V. N. Staroverov, T. A. Keith, R. Kobayashi, J. Normand, 
 K. Raghavachari, A. P. Rendell, J. C. Burant, S. S. Iyengar, 
 J. Tomasi, M. Cossi, J. M. Millam, M. Klene, C. Adamo, R. Cammi, 
 J. W. Ochterski, R. L. Martin, K. Morokuma, O. Farkas, 
 J. B. Foresman, and D. J. Fox, Gaussian, Inc., Wallingford CT, 2019.
 
 ******************************************
 Gaussian 16:  ES64L-G16RevC.01  3-Jul-2019
                 1-May-2024 
 ******************************************
 %chk=geometry.chk
 %mem=9GB
 %nprocshared=12
 Will use up to   12 processors via shared memory.
 ----------------------------------------
 #P wB97XD/6-311+G* NoSymm #P Field=X-107
 ----------------------------------------
 1/38=1,172=1/1;
 2/12=2,15=1,17=6,18=5,40=1/2;
 3/5=4,6=6,7=11,11=2,14=1,15=-107,25=1,30=1,74=-58/1,2,3;
 4//1;
 5/5=2,38=5/2;
 6/7=2,8=2,9=2,10=2,28=1/1;
 99/5=1,9=1/99;
 Leave Link    1 at Wed May  1 14:27:44 2024, MaxMem=  1207959552 cpu:               1.6 elap:               1.6
 (Enter /software/gaussian/g16-c01/sse4/g16/l101.exe)
 -------
 TitleMe
 -------
 Symbolic Z-matrix:
 Charge =  1 Multiplicity = 1
 C                     0.0295    1.3397    0.0682 
 C                     1.4348    1.2867    0.0064 
 C                     2.1118    0.0511   -0.0054 
 C                     1.4451   -1.1372    0.0312 
 C                    -0.6879    0.1682    0.11 
 H                    -0.4713    2.2984    0.0781 
 H                     2.0273    2.1965   -0.0322 
 H                     1.9897   -2.0764    0.0232 
 H                    -1.7716    0.1804    0.1582 
 N                     3.5864    0.051    -0.0675 
 O                     4.1471   -1.0597   -0.0881 
 O                     4.145     1.1639   -0.0901 
 C                    -0.0236   -1.1458    0.0835 
 H                    -0.4367   -1.8725    0.7889 
 Br                   -0.5359   -1.8697   -1.7408 
 
 ITRead=  0  0  0  0  0  0  0  0  0  0  0  0  0  0  0
 MicOpt= -1 -1 -1 -1 -1 -1 -1 -1 -1 -1 -1 -1 -1 -1 -1
 NAtoms=     15 NQM=       15 NQMF=       0 NMMI=      0 NMMIF=      0
                NMic=       0 NMicF=      0.
                    Isotopes and Nuclear Properties:
 (Nuclear quadrupole moments (NQMom) in fm**2, nuclear magnetic moments (NMagM)
  in nuclear magnetons)

  Atom         1           2           3           4           5           6           7           8           9          10
 IAtWgt=          12          12          12          12          12           1           1           1           1          14
 AtmWgt=  12.0000000  12.0000000  12.0000000  12.0000000  12.0000000   1.0078250   1.0078250   1.0078250   1.0078250  14.0030740
 NucSpn=           0           0           0           0           0           1           1           1           1           2
 AtZEff=  -0.0000000  -0.0000000  -0.0000000  -0.0000000  -0.0000000  -0.0000000  -0.0000000  -0.0000000  -0.0000000  -0.0000000
 NQMom=    0.0000000   0.0000000   0.0000000   0.0000000   0.0000000   0.0000000   0.0000000   0.0000000   0.0000000   2.0440000
 NMagM=    0.0000000   0.0000000   0.0000000   0.0000000   0.0000000   2.7928460   2.7928460   2.7928460   2.7928460   0.4037610
 AtZNuc=   6.0000000   6.0000000   6.0000000   6.0000000   6.0000000   1.0000000   1.0000000   1.0000000   1.0000000   7.0000000

  Atom        11          12          13          14          15
 IAtWgt=          16          16          12           1          79
 AtmWgt=  15.9949146  15.9949146  12.0000000   1.0078250  78.9183361
 NucSpn=           0           0           0           1           3
 AtZEff=  -0.0000000  -0.0000000  -0.0000000  -0.0000000  -0.0000000
 NQMom=    0.0000000   0.0000000   0.0000000   0.0000000  31.3000000
 NMagM=    0.0000000   0.0000000   0.0000000   2.7928460   2.1063990
 AtZNuc=   8.0000000   8.0000000   6.0000000   1.0000000  35.0000000
 Leave Link  101 at Wed May  1 14:27:45 2024, MaxMem=  1207959552 cpu:               1.3 elap:               1.3
 (Enter /software/gaussian/g16-c01/sse4/g16/l202.exe)
                          Input orientation:                          
 ---------------------------------------------------------------------
 Center     Atomic      Atomic             Coordinates (Angstroms)
 Number     Number       Type             X           Y           Z
 ---------------------------------------------------------------------
      1          6           0        0.029500    1.339700    0.068200
      2          6           0        1.434800    1.286700    0.006400
      3          6           0        2.111800    0.051100   -0.005400
      4          6           0        1.445100   -1.137200    0.031200
      5          6           0       -0.687900    0.168200    0.110000
      6          1           0       -0.471300    2.298400    0.078100
      7          1           0        2.027300    2.196500   -0.032200
      8          1           0        1.989700   -2.076400    0.023200
      9          1           0       -1.771600    0.180400    0.158200
     10          7           0        3.586400    0.051000   -0.067500
     11          8           0        4.147100   -1.059700   -0.088100
     12          8           0        4.145000    1.163900   -0.090100
     13          6           0       -0.023600   -1.145800    0.083500
     14          1           0       -0.436700   -1.872500    0.788900
     15         35           0       -0.535900   -1.869700   -1.740800
 ---------------------------------------------------------------------
                    Distance matrix (angstroms):
                    1          2          3          4          5
     1  C    0.000000
     2  C    1.407656   0.000000
     3  C    2.449874   1.408963   0.000000
     4  C    2.853126   2.424049   1.363043   0.000000
     5  C    1.374344   2.401589   2.804523   2.501993   0.000000
     6  H    1.081667   2.159142   3.424870   3.934226   2.141421
     7  H    2.176095   1.086408   2.147231   3.384750   3.392128
     8  H    3.938800   3.408612   2.131193   1.085702   3.495040
     9  H    2.143837   3.395283   3.888995   3.478413   1.084840
    10  N    3.785591   2.482297   1.475907   2.450862   4.279589
    11  O    4.768247   3.587631   2.320164   2.705743   4.992415
    12  O    4.122294   2.714696   2.319353   3.549540   4.938459
    13  C    2.486114   2.837240   2.449573   1.469656   1.472614
    14  H    3.324903   3.754379   3.290289   2.157764   2.165286
    15  Br   3.727252   4.110867   3.702891   2.756973   2.757100
                    6          7          8          9         10
     6  H    0.000000
     7  H    2.503108   0.000000
     8  H    5.019802   4.273425   0.000000
     9  H    2.486588   4.304945   4.388479   0.000000
    10  N    4.640790   2.652397   2.661486   5.364313   0.000000
    11  O    5.712624   3.885809   2.387560   6.052233   1.244373
    12  O    4.756638   2.356750   3.893289   6.002923   1.245428
    13  C    3.473180   3.923079   2.218790   2.195425   3.806210
    14  H    4.231175   4.827242   2.552506   2.528663   4.540772
    15  Br   4.548146   5.101303   3.087568   3.055498   4.845862
                   11         12         13         14         15
    11  O    0.000000
    12  O    2.223602   0.000000
    13  C    4.175117   4.768865   0.000000
    14  H    4.737193   5.566358   1.093770   0.000000
    15  Br   5.031700   5.817075   2.028436   2.531646   0.000000
 Symmetry turned off by external request.
 Stoichiometry    C6H5BrNO2(1+)
 Framework group  C1[X(C6H5BrNO2)]
 Deg. of freedom    39
 Full point group                 C1      NOp   1
 Rotational constants (GHZ):           1.8252210           0.5518633           0.4576002
 Leave Link  202 at Wed May  1 14:27:47 2024, MaxMem=  1207959552 cpu:               1.1 elap:               1.1
 (Enter /software/gaussian/g16-c01/sse4/g16/l301.exe)
 Standard basis: 6-311+G(d) (5D, 7F)
 Ernie: Thresh=  0.10000D-02 Tol=  0.10000D-05 Strict=F.
 The following finite field(s) will be applied:
 An electric field of             -0.0107  0.0000  0.0000
   261 basis functions,   443 primitive gaussians,   273 cartesian basis functions
    49 alpha electrons       49 beta electrons
       nuclear repulsion energy       739.2122215416 Hartrees.
 IExCor= 4639 DFT=T Ex+Corr=wB97XD ExCW=0 ScaHFX=  1.000000
 ScaDFX=  1.000000  1.000000  1.000000  1.000000 ScalE2=  1.000000  1.000000
 IRadAn=      5 IRanWt=     -1 IRanGd=            0 ICorTp=0 IEmpDi=121
 HFx  wShort=  0.000000 wLong=  0.200000 cFull=  0.222036 cShort=  0.000000 cLong=  0.777964
 DFx  wShort=  0.000000 wLong=  0.200000 cFull=  0.000000 cShort=  0.000000 cLong=  1.000000
 NAtoms=   15 NActive=   15 NUniq=   15 SFac= 1.00D+00 NAtFMM=   60 NAOKFM=F Big=F
 Integral buffers will be    131072 words long.
 Raffenetti 2 integral format.
 Two-electron integral symmetry is turned off.
 R6Disp:  Grimme-D2 Dispersion energy=       -0.0077368520 Hartrees.
 Nuclear repulsion after empirical dispersion term =      739.2044846896 Hartrees.
 Leave Link  301 at Wed May  1 14:27:48 2024, MaxMem=  1207959552 cpu:               0.9 elap:               0.9
 (Enter /software/gaussian/g16-c01/sse4/g16/l302.exe)
 NPDir=0 NMtPBC=     1 NCelOv=     1 NCel=       1 NClECP=     1 NCelD=      1
         NCelK=      1 NCelE2=     1 NClLst=     1 CellRange=     0.0.
 One-electron integrals computed using PRISM.
 NBasis=   261 RedAO= T EigKep=  2.35D-06  NBF=   261
 NBsUse=   261 1.00D-06 EigRej= -1.00D+00 NBFU=   261
 Precomputing XC quadrature grid using
 IXCGrd= 4 IRadAn=           5 IRanWt=          -1 IRanGd=           0 AccXCQ= 0.00D+00.
 Generated NRdTot=       0 NPtTot=           0 NUsed=           0 NTot=          32
 NSgBfM=   273   273   273   273   273 MxSgAt=    15 MxSgA2=    15.
 Leave Link  302 at Wed May  1 14:28:09 2024, MaxMem=  1207959552 cpu:              20.7 elap:              20.8
 (Enter /software/gaussian/g16-c01/sse4/g16/l303.exe)
 DipDrv:  MaxL=1.
 The nuclear repulsion energy is now       737.1848899906 hartrees.
 Leave Link  303 at Wed May  1 14:28:12 2024, MaxMem=  1207959552 cpu:               3.3 elap:               3.3
 (Enter /software/gaussian/g16-c01/sse4/g16/l401.exe)
 ExpMin= 3.50D-02 ExpMax= 4.40D+05 ExpMxC= 1.51D+04 IAcc=3 IRadAn=         5 AccDes= 0.00D+00
 Harris functional with IExCor= 4639 and IRadAn=       5 diagonalized for initial guess.
 HarFok:  IExCor= 4639 AccDes= 0.00D+00 IRadAn=         5 IDoV= 1 UseB2=F ITyADJ=14
 ICtDFT=  3500011 ScaDFX=  1.000000  1.000000  1.000000  1.000000
 FoFCou: FMM=F IPFlag=           0 FMFlag=      100000 FMFlg1=           0
         NFxFlg=           0 DoJE=T BraDBF=F KetDBF=T FulRan=T
         wScrn=  0.000000 ICntrl=       500 IOpCl=  0 I1Cent=   200000004 NGrid=           0
         NMat0=    1 NMatS0=      1 NMatT0=    0 NMatD0=    1 NMtDS0=    0 NMtDT0=    0
 Symmetry not used in FoFCou.
 Harris En= -2970.69472387280    
 JPrj=0 DoOrth=F DoCkMO=F.
 Leave Link  401 at Wed May  1 14:28:42 2024, MaxMem=  1207959552 cpu:              29.2 elap:              29.2
 (Enter /software/gaussian/g16-c01/sse4/g16/l502.exe)
 Two-electron integral symmetry not used.
 Closed shell SCF:
 Using DIIS extrapolation, IDIIS=  1040.
 NGot=  1207959552 LenX=  1207804877 LenY=  1207729907
 Requested convergence on RMS density matrix=1.00D-08 within 128 cycles.
 Requested convergence on MAX density matrix=1.00D-06.
 Requested convergence on             energy=1.00D-06.
 No special actions if energy rises.
 Fock matrices will be formed incrementally for  20 cycles.

 Cycle   1  Pass 1  IDiag  1:
 FoFJK:  IHMeth= 1 ICntrl=       0 DoSepK=T KAlg= 0 I1Cent=           0 FoldK=F
 IRaf=         1 NMat=       1 IRICut=       1 DoRegI=T DoRafI=F ISym2E= 0 IDoP0=0 IntGTp=1.
 FoFCou: FMM=F IPFlag=           0 FMFlag=      100000 FMFlg1=           0
         NFxFlg=           0 DoJE=T BraDBF=F KetDBF=F FulRan=T
         wScrn=  0.000000 ICntrl=       500 IOpCl=  0 I1Cent=           0 NGrid=           0
         NMat0=    1 NMatS0=      1 NMatT0=    0 NMatD0=    1 NMtDS0=    0 NMtDT0=    0
 Symmetry not used in FoFCou.
 E= -3008.64336699457    
 DIIS: error= 3.21D-01 at cycle   1 NSaved=   1.
 NSaved= 1 IEnMin= 1 EnMin= -3008.64336699457     IErMin= 1 ErrMin= 3.21D-01
 ErrMax= 3.21D-01  0.00D+00 EMaxC= 1.00D-01 BMatC= 1.23D+01 BMatP= 1.23D+01
 IDIUse=3 WtCom= 0.00D+00 WtEn= 1.00D+00
 Coeff-Com:  0.100D+01
 Coeff-En:   0.100D+01
 Coeff:      0.100D+01
 Gap=     0.164 Goal=   None    Shift=    0.000
 GapD=    0.164 DampG=1.000 DampE=0.250 DampFc=0.2500 IDamp=-1.
 Damping current iteration by 2.50D-01
 RMSDP=6.85D-02 MaxDP=4.21D+00              OVMax= 9.61D-01

 Cycle   2  Pass 1  IDiag  1:
 RMSU=  1.65D-02    CP:  9.55D-01
 E= -3008.61306054600     Delta-E=        0.030306448570 Rises=F Damp=T
 DIIS: error= 2.26D-01 at cycle   2 NSaved=   2.
 NSaved= 2 IEnMin= 1 EnMin= -3008.64336699457     IErMin= 2 ErrMin= 2.26D-01
 ErrMax= 2.26D-01  0.00D+00 EMaxC= 1.00D-01 BMatC= 5.54D+00 BMatP= 1.23D+01
 IDIUse=3 WtCom= 0.00D+00 WtEn= 1.00D+00
 Coeff-Com: -0.103D+01 0.203D+01
 Coeff-En:   0.510D+00 0.490D+00
 Coeff:      0.510D+00 0.490D+00
 Gap=     0.047 Goal=   None    Shift=    0.000
 RMSDP=4.63D-02 MaxDP=3.64D+00 DE= 3.03D-02 OVMax= 9.77D-01

 Cycle   3  Pass 1  IDiag  1:
 RMSU=  1.78D-02    CP:  5.44D-01  1.49D+00
 E= -3009.10423867092     Delta-E=       -0.491178124916 Rises=F Damp=F
 DIIS: error= 1.38D-01 at cycle   3 NSaved=   3.
 NSaved= 3 IEnMin= 3 EnMin= -3009.10423867092     IErMin= 3 ErrMin= 1.38D-01
 ErrMax= 1.38D-01  0.00D+00 EMaxC= 1.00D-01 BMatC= 2.46D+00 BMatP= 5.54D+00
 IDIUse=3 WtCom= 0.00D+00 WtEn= 1.00D+00
 EnCoef did   100 forward-backward iterations
 Coeff-Com:  0.454D+00-0.262D+00 0.808D+00
 Coeff-En:   0.438D+00 0.376D-02 0.558D+00
 Coeff:      0.438D+00 0.376D-02 0.558D+00
 Gap=     0.132 Goal=   None    Shift=    0.000
 RMSDP=2.15D-02 MaxDP=9.58D-01 DE=-4.91D-01 OVMax= 5.23D-01

 Cycle   4  Pass 1  IDiag  1:
 RMSU=  1.59D-02    CP:  5.59D-01  6.16D-01  1.02D+00
 E= -3010.47622924670     Delta-E=       -1.371990575783 Rises=F Damp=F
 DIIS: error= 1.63D-02 at cycle   4 NSaved=   4.
 NSaved= 4 IEnMin= 4 EnMin= -3010.47622924670     IErMin= 4 ErrMin= 1.63D-02
 ErrMax= 1.63D-02  0.00D+00 EMaxC= 1.00D-01 BMatC= 6.07D-02 BMatP= 2.46D+00
 IDIUse=3 WtCom= 8.37D-01 WtEn= 1.63D-01
 Coeff-Com:  0.806D-01-0.563D-01 0.855D-01 0.890D+00
 Coeff-En:   0.000D+00 0.000D+00 0.000D+00 0.100D+01
 Coeff:      0.674D-01-0.471D-01 0.716D-01 0.908D+00
 Gap=     0.215 Goal=   None    Shift=    0.000
 RMSDP=1.16D-02 MaxDP=7.14D-01 DE=-1.37D+00 OVMax= 8.84D-02

 Cycle   5  Pass 1  IDiag  1:
 RMSU=  6.17D-03    CP:  4.83D-01  6.99D-01  9.79D-01  6.36D-01
 E= -3010.50187793606     Delta-E=       -0.025648689359 Rises=F Damp=F
 DIIS: error= 1.81D-02 at cycle   5 NSaved=   5.
 NSaved= 5 IEnMin= 5 EnMin= -3010.50187793606     IErMin= 4 ErrMin= 1.63D-02
 ErrMax= 1.81D-02  0.00D+00 EMaxC= 1.00D-01 BMatC= 4.23D-02 BMatP= 6.07D-02
 IDIUse=3 WtCom= 8.19D-01 WtEn= 1.81D-01
 Coeff-Com: -0.176D-02 0.882D-02-0.194D-01 0.456D+00 0.557D+00
 Coeff-En:   0.000D+00 0.000D+00 0.000D+00 0.342D+00 0.658D+00
 Coeff:     -0.144D-02 0.722D-02-0.159D-01 0.435D+00 0.575D+00
 Gap=     0.193 Goal=   None    Shift=    0.000
 RMSDP=4.35D-03 MaxDP=2.25D-01 DE=-2.56D-02 OVMax= 4.90D-02

 Cycle   6  Pass 1  IDiag  1:
 RMSU=  1.72D-03    CP:  4.97D-01  5.97D-01  9.61D-01  8.30D-01  8.03D-01
 E= -3010.53647282747     Delta-E=       -0.034594891411 Rises=F Damp=F
 DIIS: error= 4.16D-03 at cycle   6 NSaved=   6.
 NSaved= 6 IEnMin= 6 EnMin= -3010.53647282747     IErMin= 6 ErrMin= 4.16D-03
 ErrMax= 4.16D-03  0.00D+00 EMaxC= 1.00D-01 BMatC= 2.48D-03 BMatP= 4.23D-02
 IDIUse=3 WtCom= 9.58D-01 WtEn= 4.16D-02
 Coeff-Com: -0.523D-02 0.928D-02-0.112D-01 0.163D+00 0.284D+00 0.561D+00
 Coeff-En:   0.000D+00 0.000D+00 0.000D+00 0.000D+00 0.000D+00 0.100D+01
 Coeff:     -0.501D-02 0.890D-02-0.108D-01 0.156D+00 0.272D+00 0.579D+00
 Gap=     0.209 Goal=   None    Shift=    0.000
 RMSDP=9.61D-04 MaxDP=4.12D-02 DE=-3.46D-02 OVMax= 9.43D-03

 Cycle   7  Pass 1  IDiag  1:
 RMSU=  5.95D-04    CP:  4.93D-01  5.98D-01  9.49D-01  7.97D-01  8.55D-01
                    CP:  1.07D+00
 E= -3010.53822164385     Delta-E=       -0.001748816379 Rises=F Damp=F
 DIIS: error= 1.46D-03 at cycle   7 NSaved=   7.
 NSaved= 7 IEnMin= 7 EnMin= -3010.53822164385     IErMin= 7 ErrMin= 1.46D-03
 ErrMax= 1.46D-03  0.00D+00 EMaxC= 1.00D-01 BMatC= 2.29D-04 BMatP= 2.48D-03
 IDIUse=3 WtCom= 9.85D-01 WtEn= 1.46D-02
 Coeff-Com: -0.767D-02 0.101D-01-0.363D-02-0.861D-02 0.147D-01 0.211D+00
 Coeff-Com:  0.784D+00
 Coeff-En:   0.000D+00 0.000D+00 0.000D+00 0.000D+00 0.000D+00 0.000D+00
 Coeff-En:   0.100D+01
 Coeff:     -0.756D-02 0.994D-02-0.358D-02-0.848D-02 0.144D-01 0.208D+00
 Coeff:      0.787D+00
 Gap=     0.214 Goal=   None    Shift=    0.000
 RMSDP=4.21D-04 MaxDP=2.86D-02 DE=-1.75D-03 OVMax= 9.56D-03

 Cycle   8  Pass 1  IDiag  1:
 RMSU=  2.84D-04    CP:  4.94D-01  6.13D-01  9.48D-01  7.90D-01  8.74D-01
                    CP:  1.08D+00  1.02D+00
 E= -3010.53845466043     Delta-E=       -0.000233016578 Rises=F Damp=F
 DIIS: error= 1.13D-03 at cycle   8 NSaved=   8.
 NSaved= 8 IEnMin= 8 EnMin= -3010.53845466043     IErMin= 8 ErrMin= 1.13D-03
 ErrMax= 1.13D-03  0.00D+00 EMaxC= 1.00D-01 BMatC= 1.15D-04 BMatP= 2.29D-04
 IDIUse=3 WtCom= 9.89D-01 WtEn= 1.13D-02
 Coeff-Com: -0.640D-02 0.837D-02-0.180D-02-0.171D-01-0.152D-01 0.660D-01
 Coeff-Com:  0.478D+00 0.489D+00
 Coeff-En:   0.000D+00 0.000D+00 0.000D+00 0.000D+00 0.000D+00 0.000D+00
 Coeff-En:   0.000D+00 0.100D+01
 Coeff:     -0.632D-02 0.828D-02-0.178D-02-0.169D-01-0.150D-01 0.653D-01
 Coeff:      0.472D+00 0.494D+00
 Gap=     0.215 Goal=   None    Shift=    0.000
 RMSDP=1.48D-04 MaxDP=1.14D-02 DE=-2.33D-04 OVMax= 4.79D-03

 Cycle   9  Pass 1  IDiag  1:
 RMSU=  1.07D-04    CP:  4.94D-01  6.17D-01  9.49D-01  7.87D-01  8.73D-01
                    CP:  1.08D+00  1.07D+00  9.12D-01
 E= -3010.53854151203     Delta-E=       -0.000086851600 Rises=F Damp=F
 DIIS: error= 3.78D-04 at cycle   9 NSaved=   9.
 NSaved= 9 IEnMin= 9 EnMin= -3010.53854151203     IErMin= 9 ErrMin= 3.78D-04
 ErrMax= 3.78D-04  0.00D+00 EMaxC= 1.00D-01 BMatC= 2.82D-05 BMatP= 1.15D-04
 IDIUse=3 WtCom= 9.96D-01 WtEn= 3.78D-03
 Coeff-Com: -0.356D-02 0.493D-02-0.426D-03-0.273D-02-0.995D-02-0.380D-01
 Coeff-Com: -0.377D-02 0.283D+00 0.771D+00
 Coeff-En:   0.000D+00 0.000D+00 0.000D+00 0.000D+00 0.000D+00 0.000D+00
 Coeff-En:   0.000D+00 0.000D+00 0.100D+01
 Coeff:     -0.355D-02 0.491D-02-0.425D-03-0.272D-02-0.991D-02-0.378D-01
 Coeff:     -0.376D-02 0.281D+00 0.772D+00
 Gap=     0.216 Goal=   None    Shift=    0.000
 RMSDP=1.40D-04 MaxDP=7.33D-03 DE=-8.69D-05 OVMax= 2.20D-03

 Cycle  10  Pass 1  IDiag  1:
 RMSU=  5.21D-05    CP:  4.95D-01  6.21D-01  9.49D-01  7.82D-01  8.73D-01
                    CP:  1.08D+00  1.12D+00  1.15D+00  1.09D+00
 E= -3010.53857222815     Delta-E=       -0.000030716125 Rises=F Damp=F
 DIIS: error= 1.20D-04 at cycle  10 NSaved=  10.
 NSaved=10 IEnMin=10 EnMin= -3010.53857222815     IErMin=10 ErrMin= 1.20D-04
 ErrMax= 1.20D-04  0.00D+00 EMaxC= 1.00D-01 BMatC= 6.10D-06 BMatP= 2.82D-05
 IDIUse=3 WtCom= 9.99D-01 WtEn= 1.20D-03
 Coeff-Com: -0.142D-02 0.211D-02-0.204D-03 0.675D-02 0.414D-02-0.277D-01
 Coeff-Com: -0.110D+00-0.389D-01 0.233D+00 0.932D+00
 Coeff-En:   0.000D+00 0.000D+00 0.000D+00 0.000D+00 0.000D+00 0.000D+00
 Coeff-En:   0.000D+00 0.000D+00 0.000D+00 0.100D+01
 Coeff:     -0.142D-02 0.211D-02-0.204D-03 0.674D-02 0.414D-02-0.277D-01
 Coeff:     -0.110D+00-0.388D-01 0.233D+00 0.933D+00
 Gap=     0.216 Goal=   None    Shift=    0.000
 RMSDP=8.45D-05 MaxDP=4.59D-03 DE=-3.07D-05 OVMax= 1.62D-03

 Cycle  11  Pass 1  IDiag  1:
 RMSU=  2.29D-05    CP:  4.95D-01  6.24D-01  9.50D-01  7.79D-01  8.73D-01
                    CP:  1.07D+00  1.15D+00  1.23D+00  1.31D+00  1.44D+00
 E= -3010.53858053872     Delta-E=       -0.000008310570 Rises=F Damp=F
 DIIS: error= 6.03D-05 at cycle  11 NSaved=  11.
 NSaved=11 IEnMin=11 EnMin= -3010.53858053872     IErMin=11 ErrMin= 6.03D-05
 ErrMax= 6.03D-05  0.00D+00 EMaxC= 1.00D-01 BMatC= 9.98D-07 BMatP= 6.10D-06
 IDIUse=1 WtCom= 1.00D+00 WtEn= 0.00D+00
 Coeff-Com: -0.340D-03 0.535D-03-0.598D-04 0.297D-02 0.340D-02 0.411D-03
 Coeff-Com: -0.212D-01-0.628D-01-0.103D+00 0.240D+00 0.941D+00
 Coeff:     -0.340D-03 0.535D-03-0.598D-04 0.297D-02 0.340D-02 0.411D-03
 Coeff:     -0.212D-01-0.628D-01-0.103D+00 0.240D+00 0.941D+00
 Gap=     0.217 Goal=   None    Shift=    0.000
 RMSDP=3.27D-05 MaxDP=1.58D-03 DE=-8.31D-06 OVMax= 9.24D-04

 Cycle  12  Pass 1  IDiag  1:
 RMSU=  1.26D-05    CP:  4.95D-01  6.25D-01  9.50D-01  7.78D-01  8.72D-01
                    CP:  1.07D+00  1.15D+00  1.26D+00  1.37D+00  1.73D+00
                    CP:  1.13D+00
 E= -3010.53858237252     Delta-E=       -0.000001833796 Rises=F Damp=F
 DIIS: error= 2.57D-05 at cycle  12 NSaved=  12.
 NSaved=12 IEnMin=12 EnMin= -3010.53858237252     IErMin=12 ErrMin= 2.57D-05
 ErrMax= 2.57D-05  0.00D+00 EMaxC= 1.00D-01 BMatC= 1.04D-07 BMatP= 9.98D-07
 IDIUse=1 WtCom= 1.00D+00 WtEn= 0.00D+00
 Coeff-Com: -0.581D-04 0.775D-04 0.285D-04-0.132D-03 0.174D-03 0.492D-02
 Coeff-Com:  0.135D-01-0.401D-02-0.510D-01-0.926D-01 0.242D+00 0.887D+00
 Coeff:     -0.581D-04 0.775D-04 0.285D-04-0.132D-03 0.174D-03 0.492D-02
 Coeff:      0.135D-01-0.401D-02-0.510D-01-0.926D-01 0.242D+00 0.887D+00
 Gap=     0.217 Goal=   None    Shift=    0.000
 RMSDP=9.05D-06 MaxDP=4.90D-04 DE=-1.83D-06 OVMax= 3.90D-04

 Cycle  13  Pass 1  IDiag  1:
 RMSU=  5.72D-06    CP:  4.95D-01  6.25D-01  9.50D-01  7.78D-01  8.72D-01
                    CP:  1.07D+00  1.15D+00  1.26D+00  1.38D+00  1.79D+00
                    CP:  1.31D+00  1.18D+00
 E= -3010.53858264848     Delta-E=       -0.000000275962 Rises=F Damp=F
 DIIS: error= 9.72D-06 at cycle  13 NSaved=  13.
 NSaved=13 IEnMin=13 EnMin= -3010.53858264848     IErMin=13 ErrMin= 9.72D-06
 ErrMax= 9.72D-06  0.00D+00 EMaxC= 1.00D-01 BMatC= 1.65D-08 BMatP= 1.04D-07
 IDIUse=1 WtCom= 1.00D+00 WtEn= 0.00D+00
 Coeff-Com:  0.489D-05-0.180D-04-0.201D-05-0.394D-03-0.290D-03 0.216D-02
 Coeff-Com:  0.760D-02 0.759D-02-0.363D-02-0.712D-01-0.472D-01 0.322D+00
 Coeff-Com:  0.783D+00
 Coeff:      0.489D-05-0.180D-04-0.201D-05-0.394D-03-0.290D-03 0.216D-02
 Coeff:      0.760D-02 0.759D-02-0.363D-02-0.712D-01-0.472D-01 0.322D+00
 Coeff:      0.783D+00
 Gap=     0.217 Goal=   None    Shift=    0.000
 RMSDP=4.25D-06 MaxDP=2.41D-04 DE=-2.76D-07 OVMax= 2.12D-04

 Cycle  14  Pass 1  IDiag  1:
 RMSU=  1.71D-06    CP:  4.95D-01  6.25D-01  9.50D-01  7.78D-01  8.72D-01
                    CP:  1.07D+00  1.15D+00  1.26D+00  1.38D+00  1.82D+00
                    CP:  1.33D+00  1.39D+00  1.26D+00
 E= -3010.53858270983     Delta-E=       -0.000000061348 Rises=F Damp=F
 DIIS: error= 5.18D-06 at cycle  14 NSaved=  14.
 NSaved=14 IEnMin=14 EnMin= -3010.53858270983     IErMin=14 ErrMin= 5.18D-06
 ErrMax= 5.18D-06  0.00D+00 EMaxC= 1.00D-01 BMatC= 2.94D-09 BMatP= 1.65D-08
 IDIUse=1 WtCom= 1.00D+00 WtEn= 0.00D+00
 Coeff-Com:  0.207D-04-0.319D-04-0.170D-04-0.113D-03-0.135D-03-0.308D-03
 Coeff-Com: -0.856D-03 0.237D-02 0.892D-02-0.287D-02-0.551D-01-0.886D-01
 Coeff-Com:  0.190D+00 0.947D+00
 Coeff:      0.207D-04-0.319D-04-0.170D-04-0.113D-03-0.135D-03-0.308D-03
 Coeff:     -0.856D-03 0.237D-02 0.892D-02-0.287D-02-0.551D-01-0.886D-01
 Coeff:      0.190D+00 0.947D+00
 Gap=     0.217 Goal=   None    Shift=    0.000
 RMSDP=3.46D-06 MaxDP=2.42D-04 DE=-6.13D-08 OVMax= 1.58D-04

 Cycle  15  Pass 1  IDiag  1:
 RMSU=  1.28D-06    CP:  4.95D-01  6.25D-01  9.50D-01  7.78D-01  8.73D-01
                    CP:  1.07D+00  1.15D+00  1.27D+00  1.39D+00  1.83D+00
                    CP:  1.36D+00  1.47D+00  1.67D+00  1.18D+00
 E= -3010.53858272965     Delta-E=       -0.000000019817 Rises=F Damp=F
 DIIS: error= 2.29D-06 at cycle  15 NSaved=  15.
 NSaved=15 IEnMin=15 EnMin= -3010.53858272965     IErMin=15 ErrMin= 2.29D-06
 ErrMax= 2.29D-06  0.00D+00 EMaxC= 1.00D-01 BMatC= 1.22D-09 BMatP= 2.94D-09
 IDIUse=1 WtCom= 1.00D+00 WtEn= 0.00D+00
 Coeff-Com:  0.129D-04-0.164D-04-0.531D-06 0.549D-04-0.132D-04-0.701D-03
 Coeff-Com: -0.208D-02-0.243D-03 0.566D-02 0.163D-01-0.310D-02-0.947D-01
 Coeff-Com: -0.109D+00 0.255D+00 0.933D+00
 Coeff:      0.129D-04-0.164D-04-0.531D-06 0.549D-04-0.132D-04-0.701D-03
 Coeff:     -0.208D-02-0.243D-03 0.566D-02 0.163D-01-0.310D-02-0.947D-01
 Coeff:     -0.109D+00 0.255D+00 0.933D+00
 Gap=     0.217 Goal=   None    Shift=    0.000
 RMSDP=1.64D-06 MaxDP=8.38D-05 DE=-1.98D-08 OVMax= 7.66D-05

 Cycle  16  Pass 1  IDiag  1:
 RMSU=  5.73D-07    CP:  4.95D-01  6.25D-01  9.50D-01  7.78D-01  8.73D-01
                    CP:  1.07D+00  1.15D+00  1.27D+00  1.39D+00  1.83D+00
                    CP:  1.38D+00  1.50D+00  1.83D+00  1.44D+00  1.39D+00
 E= -3010.53858273512     Delta-E=       -0.000000005477 Rises=F Damp=F
 DIIS: error= 1.11D-06 at cycle  16 NSaved=  16.
 NSaved=16 IEnMin=16 EnMin= -3010.53858273512     IErMin=16 ErrMin= 1.11D-06
 ErrMax= 1.11D-06  0.00D+00 EMaxC= 1.00D-01 BMatC= 2.39D-10 BMatP= 1.22D-09
 IDIUse=1 WtCom= 1.00D+00 WtEn= 0.00D+00
 Coeff-Com:  0.650D-05-0.784D-05 0.876D-05 0.403D-04 0.130D-04-0.162D-03
 Coeff-Com: -0.491D-03-0.865D-03-0.107D-02 0.555D-02 0.171D-01 0.147D-03
 Coeff-Com: -0.796D-01-0.228D+00 0.273D+00 0.101D+01
 Coeff:      0.650D-05-0.784D-05 0.876D-05 0.403D-04 0.130D-04-0.162D-03
 Coeff:     -0.491D-03-0.865D-03-0.107D-02 0.555D-02 0.171D-01 0.147D-03
 Coeff:     -0.796D-01-0.228D+00 0.273D+00 0.101D+01
 Gap=     0.217 Goal=   None    Shift=    0.000
 RMSDP=1.14D-06 MaxDP=6.35D-05 DE=-5.48D-09 OVMax= 5.59D-05

 Cycle  17  Pass 1  IDiag  1:
 RMSU=  2.56D-07    CP:  4.95D-01  6.25D-01  9.50D-01  7.78D-01  8.73D-01
                    CP:  1.07D+00  1.15D+00  1.27D+00  1.39D+00  1.84D+00
                    CP:  1.39D+00  1.52D+00  1.95D+00  1.53D+00  1.75D+00
                    CP:  1.29D+00
 E= -3010.53858273672     Delta-E=       -0.000000001598 Rises=F Damp=F
 DIIS: error= 3.10D-07 at cycle  17 NSaved=  17.
 NSaved=17 IEnMin=17 EnMin= -3010.53858273672     IErMin=17 ErrMin= 3.10D-07
 ErrMax= 3.10D-07  0.00D+00 EMaxC= 1.00D-01 BMatC= 2.73D-11 BMatP= 2.39D-10
 IDIUse=1 WtCom= 1.00D+00 WtEn= 0.00D+00
 Coeff-Com:  0.751D-06-0.103D-05 0.123D-05-0.590D-05 0.114D-04 0.129D-03
 Coeff-Com:  0.327D-03-0.234D-03-0.157D-02-0.170D-02 0.319D-02 0.154D-01
 Coeff-Com:  0.727D-02-0.945D-01-0.115D+00 0.223D+00 0.963D+00
 Coeff:      0.751D-06-0.103D-05 0.123D-05-0.590D-05 0.114D-04 0.129D-03
 Coeff:      0.327D-03-0.234D-03-0.157D-02-0.170D-02 0.319D-02 0.154D-01
 Coeff:      0.727D-02-0.945D-01-0.115D+00 0.223D+00 0.963D+00
 Gap=     0.217 Goal=   None    Shift=    0.000
 RMSDP=4.26D-07 MaxDP=1.84D-05 DE=-1.60D-09 OVMax= 2.30D-05

 Cycle  18  Pass 1  IDiag  1:
 RMSU=  9.10D-08    CP:  4.95D-01  6.25D-01  9.50D-01  7.78D-01  8.73D-01
                    CP:  1.07D+00  1.15D+00  1.27D+00  1.39D+00  1.84D+00
                    CP:  1.40D+00  1.52D+00  1.99D+00  1.53D+00  1.87D+00
                    CP:  1.50D+00  1.26D+00
 E= -3010.53858273697     Delta-E=       -0.000000000254 Rises=F Damp=F
 DIIS: error= 1.13D-07 at cycle  18 NSaved=  18.
 NSaved=18 IEnMin=18 EnMin= -3010.53858273697     IErMin=18 ErrMin= 1.13D-07
 ErrMax= 1.13D-07  0.00D+00 EMaxC= 1.00D-01 BMatC= 5.96D-12 BMatP= 2.73D-11
 IDIUse=1 WtCom= 1.00D+00 WtEn= 0.00D+00
 Coeff-Com:  0.212D-06-0.376D-06-0.362D-06-0.599D-05 0.461D-05 0.672D-04
 Coeff-Com:  0.169D-03-0.224D-04-0.529D-03-0.115D-02-0.127D-02 0.509D-02
 Coeff-Com:  0.133D-01-0.907D-02-0.678D-01-0.354D-01 0.366D+00 0.731D+00
 Coeff:      0.212D-06-0.376D-06-0.362D-06-0.599D-05 0.461D-05 0.672D-04
 Coeff:      0.169D-03-0.224D-04-0.529D-03-0.115D-02-0.127D-02 0.509D-02
 Coeff:      0.133D-01-0.907D-02-0.678D-01-0.354D-01 0.366D+00 0.731D+00
 Gap=     0.217 Goal=   None    Shift=    0.000
 RMSDP=1.16D-07 MaxDP=6.58D-06 DE=-2.54D-10 OVMax= 5.06D-06

 Cycle  19  Pass 1  IDiag  1:
 RMSU=  2.47D-08    CP:  4.95D-01  6.25D-01  9.50D-01  7.78D-01  8.73D-01
                    CP:  1.07D+00  1.15D+00  1.27D+00  1.39D+00  1.84D+00
                    CP:  1.40D+00  1.53D+00  1.99D+00  1.54D+00  1.87D+00
                    CP:  1.53D+00  1.37D+00  1.09D+00
 E= -3010.53858273695     Delta-E=        0.000000000025 Rises=F Damp=F
 DIIS: error= 7.07D-08 at cycle  19 NSaved=  19.
 NSaved=19 IEnMin=18 EnMin= -3010.53858273697     IErMin=19 ErrMin= 7.07D-08
 ErrMax= 7.07D-08  0.00D+00 EMaxC= 1.00D-01 BMatC= 6.50D-13 BMatP= 5.96D-12
 IDIUse=1 WtCom= 1.00D+00 WtEn= 0.00D+00
 Coeff-Com: -0.350D-07 0.492D-07-0.122D-06 0.905D-06-0.101D-05-0.154D-04
 Coeff-Com: -0.349D-04 0.246D-04 0.185D-03 0.273D-03-0.869D-03-0.174D-02
 Coeff-Com:  0.181D-02 0.125D-01 0.935D-02-0.487D-01-0.110D+00 0.118D+00
 Coeff-Com:  0.102D+01
 Coeff:     -0.350D-07 0.492D-07-0.122D-06 0.905D-06-0.101D-05-0.154D-04
 Coeff:     -0.349D-04 0.246D-04 0.185D-03 0.273D-03-0.869D-03-0.174D-02
 Coeff:      0.181D-02 0.125D-01 0.935D-02-0.487D-01-0.110D+00 0.118D+00
 Coeff:      0.102D+01
 Gap=     0.217 Goal=   None    Shift=    0.000
 RMSDP=6.47D-08 MaxDP=3.47D-06 DE= 2.55D-11 OVMax= 2.53D-06

 Cycle  20  Pass 1  IDiag  1:
 RMSU=  1.28D-08    CP:  4.95D-01  6.25D-01  9.50D-01  7.78D-01  8.73D-01
                    CP:  1.07D+00  1.15D+00  1.27D+00  1.39D+00  1.84D+00
                    CP:  1.40D+00  1.53D+00  1.99D+00  1.53D+00  1.87D+00
                    CP:  1.56D+00  1.41D+00  1.25D+00  1.53D+00
 E= -3010.53858273696     Delta-E=       -0.000000000015 Rises=F Damp=F
 DIIS: error= 2.80D-08 at cycle  20 NSaved=  20.
 NSaved=20 IEnMin=18 EnMin= -3010.53858273697     IErMin=20 ErrMin= 2.80D-08
 ErrMax= 2.80D-08  0.00D+00 EMaxC= 1.00D-01 BMatC= 7.69D-14 BMatP= 6.50D-13
 IDIUse=1 WtCom= 1.00D+00 WtEn= 0.00D+00
 Coeff-Com: -0.205D-07 0.369D-07 0.191D-07 0.616D-06-0.411D-06-0.707D-05
 Coeff-Com: -0.180D-04 0.337D-06 0.496D-04 0.126D-03 0.390D-04-0.598D-03
 Coeff-Com: -0.101D-02 0.164D-02 0.583D-02 0.302D-02-0.347D-01-0.861D-01
 Coeff-Com:  0.498D-01 0.106D+01
 Coeff:     -0.205D-07 0.369D-07 0.191D-07 0.616D-06-0.411D-06-0.707D-05
 Coeff:     -0.180D-04 0.337D-06 0.496D-04 0.126D-03 0.390D-04-0.598D-03
 Coeff:     -0.101D-02 0.164D-02 0.583D-02 0.302D-02-0.347D-01-0.861D-01
 Coeff:      0.498D-01 0.106D+01
 Gap=     0.217 Goal=   None    Shift=    0.000
 RMSDP=2.20D-08 MaxDP=9.05D-07 DE=-1.46D-11 OVMax= 7.74D-07

 Cycle  21  Pass 1  IDiag  1:
 Restarting incremental Fock formation.
 E= -3010.53858273698     Delta-E=       -0.000000000021 Rises=F Damp=F
 DIIS: error= 1.27D-08 at cycle  21 NSaved=  20.
 NSaved=20 IEnMin=20 EnMin= -3010.53858273698     IErMin=20 ErrMin= 1.27D-08
 ErrMax= 1.27D-08  0.00D+00 EMaxC= 1.00D-01 BMatC= 1.80D-14 BMatP= 7.69D-14
 IDIUse=1 WtCom= 1.00D+00 WtEn= 0.00D+00
 Large coefficients: NSaved= 20 BigCof=    0.00 CofMax=   10.00 Det=-3.70D-14
 Inversion failed.  Reducing to 19 matrices.
 Coeff-Com:  0.109D-07-0.141D-06 0.240D-06 0.226D-05 0.397D-05-0.635D-05
 Coeff-Com: -0.323D-04-0.395D-04 0.164D-03 0.188D-03-0.545D-03-0.177D-02
 Coeff-Com: -0.129D-02 0.111D-01 0.165D-01-0.406D-01-0.193D+00 0.164D+00
 Coeff-Com:  0.105D+01
 Coeff:      0.109D-07-0.141D-06 0.240D-06 0.226D-05 0.397D-05-0.635D-05
 Coeff:     -0.323D-04-0.395D-04 0.164D-03 0.188D-03-0.545D-03-0.177D-02
 Coeff:     -0.129D-02 0.111D-01 0.165D-01-0.406D-01-0.193D+00 0.164D+00
 Coeff:      0.105D+01
 Gap=     0.217 Goal=   None    Shift=    0.000
 RMSDP=1.11D-08 MaxDP=4.60D-07 DE=-2.09D-11 OVMax= 4.78D-07

 Cycle  22  Pass 1  IDiag  1:
 RMSU=  1.11D-08    CP:  1.00D+00
 E= -3010.53858273698     Delta-E=        0.000000000004 Rises=F Damp=F
 DIIS: error= 4.50D-09 at cycle  22 NSaved=  20.
 NSaved=20 IEnMin=19 EnMin= -3010.53858273698     IErMin=20 ErrMin= 4.50D-09
 ErrMax= 4.50D-09  0.00D+00 EMaxC= 1.00D-01 BMatC= 2.38D-15 BMatP= 1.80D-14
 IDIUse=1 WtCom= 1.00D+00 WtEn= 0.00D+00
 Large coefficients: NSaved= 20 BigCof=    0.00 CofMax=   10.00 Det=-4.02D-15
 Inversion failed.  Reducing to 19 matrices.
 Large coefficients: NSaved= 19 BigCof=    0.00 CofMax=   10.00 Det=-4.19D-15
 Inversion failed.  Reducing to 18 matrices.
 Large coefficients: NSaved= 18 BigCof=    0.00 CofMax=   10.00 Det=-4.27D-15
 Inversion failed.  Reducing to 17 matrices.
 Large coefficients: NSaved= 17 BigCof=    0.00 CofMax=   10.00 Det=-4.69D-15
 Inversion failed.  Reducing to 16 matrices.
 Large coefficients: NSaved= 16 BigCof=    0.00 CofMax=   10.00 Det=-4.69D-15
 Inversion failed.  Reducing to 15 matrices.
 Coeff-Com:  0.410D-06 0.227D-05-0.263D-05-0.126D-04-0.718D-05 0.806D-04
 Coeff-Com:  0.260D-03-0.255D-03-0.783D-03-0.215D-02 0.153D-01 0.132D-01
 Coeff-Com: -0.139D+00-0.131D+00 0.124D+01
 Coeff:      0.410D-06 0.227D-05-0.263D-05-0.126D-04-0.718D-05 0.806D-04
 Coeff:      0.260D-03-0.255D-03-0.783D-03-0.215D-02 0.153D-01 0.132D-01
 Coeff:     -0.139D+00-0.131D+00 0.124D+01
 Gap=     0.217 Goal=   None    Shift=    0.000
 RMSDP=4.53D-09 MaxDP=1.76D-07 DE= 3.64D-12 OVMax= 2.04D-07

 SCF Done:  E(RwB97XD) =  -3010.53858274     A.U. after   22 cycles
            NFock= 22  Conv=0.45D-08     -V/T= 2.0016
 KE= 3.005858810014D+03 PE=-8.630196659672D+03 EE= 1.876614376930D+03
 Leave Link  502 at Wed May  1 14:49:12 2024, MaxMem=  1207959552 cpu:            1230.2 elap:            1230.4
 (Enter /software/gaussian/g16-c01/sse4/g16/l601.exe)
 Copying SCF densities to generalized density rwf, IOpCl= 0 IROHF=0.

 **********************************************************************

            Population analysis using the SCF Density.

 **********************************************************************

 Alpha  occ. eigenvalues -- -483.30475 -62.85515 -56.65186 -56.64644 -56.64642
 Alpha  occ. eigenvalues --  -19.40249 -19.40179 -14.79855 -10.57290 -10.55458
 Alpha  occ. eigenvalues --  -10.55454 -10.54657 -10.54352 -10.51811  -9.01333
 Alpha  occ. eigenvalues --   -6.83951  -6.82171  -6.82158  -2.93870  -2.93395
 Alpha  occ. eigenvalues --   -2.93383  -2.91959  -2.91959  -1.44016  -1.26924
 Alpha  occ. eigenvalues --   -1.20791  -1.12119  -1.09889  -1.03200  -0.97942
 Alpha  occ. eigenvalues --   -0.93699  -0.88677  -0.82699  -0.78505  -0.77205
 Alpha  occ. eigenvalues --   -0.76141  -0.74947  -0.73972  -0.70892  -0.70192
 Alpha  occ. eigenvalues --   -0.67763  -0.65673  -0.61897  -0.58670  -0.55937
 Alpha  occ. eigenvalues --   -0.54147  -0.51258  -0.50037  -0.49757
 Alpha virt. eigenvalues --   -0.28086  -0.17650  -0.14558  -0.11019  -0.10124
 Alpha virt. eigenvalues --   -0.07568  -0.06061  -0.05781  -0.03379  -0.02257
 Alpha virt. eigenvalues --   -0.01941  -0.00859  -0.00712  -0.00336   0.00246
 Alpha virt. eigenvalues --    0.02025   0.02394   0.03062   0.03688   0.03930
 Alpha virt. eigenvalues --    0.05193   0.06515   0.06959   0.07593   0.08277
 Alpha virt. eigenvalues --    0.08852   0.09197   0.09945   0.10881   0.11080
 Alpha virt. eigenvalues --    0.11814   0.13167   0.13931   0.14175   0.14623
 Alpha virt. eigenvalues --    0.15367   0.16531   0.17619   0.18799   0.19239
 Alpha virt. eigenvalues --    0.19335   0.20390   0.21043   0.21962   0.22512
 Alpha virt. eigenvalues --    0.22988   0.25606   0.26464   0.27777   0.28377
 Alpha virt. eigenvalues --    0.29484   0.31275   0.31789   0.32149   0.34406
 Alpha virt. eigenvalues --    0.34751   0.35278   0.37819   0.38100   0.39787
 Alpha virt. eigenvalues --    0.40234   0.41252   0.42417   0.42707   0.43231
 Alpha virt. eigenvalues --    0.44734   0.46456   0.47276   0.48453   0.49730
 Alpha virt. eigenvalues --    0.50990   0.51625   0.52767   0.53823   0.55596
 Alpha virt. eigenvalues --    0.57052   0.57888   0.59000   0.59400   0.61494
 Alpha virt. eigenvalues --    0.62319   0.64577   0.65230   0.67759   0.69675
 Alpha virt. eigenvalues --    0.71907   0.72833   0.74452   0.75125   0.76146
 Alpha virt. eigenvalues --    0.77653   0.82369   0.83115   0.85287   0.87221
 Alpha virt. eigenvalues --    0.88217   0.91896   0.94920   0.95856   1.02474
 Alpha virt. eigenvalues --    1.03509   1.05405   1.07047   1.08358   1.09011
 Alpha virt. eigenvalues --    1.12310   1.14912   1.17371   1.18115   1.20441
 Alpha virt. eigenvalues --    1.27589   1.27982   1.30461   1.34815   1.38481
 Alpha virt. eigenvalues --    1.38877   1.39783   1.46851   1.56752   1.59476
 Alpha virt. eigenvalues --    1.61188   1.61338   1.64008   1.66130   1.68025
 Alpha virt. eigenvalues --    1.71662   1.72734   1.75137   1.79641   1.81153
 Alpha virt. eigenvalues --    1.82481   1.88095   1.90049   1.94181   1.96513
 Alpha virt. eigenvalues --    2.00588   2.05427   2.06968   2.08492   2.09847
 Alpha virt. eigenvalues --    2.11634   2.16562   2.22331   2.26028   2.30932
 Alpha virt. eigenvalues --    2.40169   2.44386   2.45162   2.46487   2.54305
 Alpha virt. eigenvalues --    2.58396   2.65140   2.68148   2.70402   2.76213
 Alpha virt. eigenvalues --    2.77976   2.80875   2.81621   2.83580   2.86841
 Alpha virt. eigenvalues --    2.95093   2.98268   3.05946   3.07357   3.11418
 Alpha virt. eigenvalues --    3.15052   3.17229   3.21135   3.26204   3.28893
 Alpha virt. eigenvalues --    3.33156   3.42575   3.49255   3.54447   3.57888
 Alpha virt. eigenvalues --    3.61493   3.75313   3.79690   3.84084   3.89188
 Alpha virt. eigenvalues --    4.09506   4.09745   4.17377   4.22540   4.43407
 Alpha virt. eigenvalues --    4.50184   4.59254   4.64781   4.99098   5.01819
 Alpha virt. eigenvalues --    5.10442   5.14606   5.68441   6.21611   6.65243
 Alpha virt. eigenvalues --    7.48175   7.49753   7.59604  23.23005  23.63071
 Alpha virt. eigenvalues --   23.70714  23.81356  23.97614  24.03544  35.38091
 Alpha virt. eigenvalues --   47.91904  49.91205  50.00017 289.81250 289.82918
 Alpha virt. eigenvalues --  289.953761020.92351
          Condensed to atoms (all electrons):
               1          2          3          4          5          6
     1  C    9.678993  -2.833543   0.180512  -1.940428  -0.725001   0.308704
     2  C   -2.833543  13.478408  -1.949914  -2.062505   0.511077   0.000193
     3  C    0.180512  -1.949914  13.755637  -3.935494  -1.256703   0.027178
     4  C   -1.940428  -2.062505  -3.935494  16.500376   1.200082   0.011606
     5  C   -0.725001   0.511077  -1.256703   1.200082   7.968101  -0.002997
     6  H    0.308704   0.000193   0.027178   0.011606  -0.002997   0.357819
     7  H    0.090570   0.201975   0.074407  -0.035812  -0.017848  -0.001762
     8  H    0.008644  -0.017373   0.089562   0.202058  -0.030203  -0.000001
     9  H    0.052153  -0.033406   0.011867  -0.013428   0.274875  -0.003022
    10  N   -0.215689   0.400371  -0.946082   0.394217  -0.001398  -0.000693
    11  O    0.003278  -0.120602  -0.262293   0.019023  -0.066406  -0.000028
    12  O    0.402041  -0.034985  -0.269838  -0.156940  -0.043919   0.000066
    13  C    1.536658  -2.044918   1.151390  -4.454549  -1.836527  -0.008145
    14  H   -0.025136   0.012005  -0.005804  -0.081491   0.040482  -0.000039
    15  Br   0.024439   0.025736   0.010071   0.031519   0.009118  -0.000332
               7          8          9         10         11         12
     1  C    0.090570   0.008644   0.052153  -0.215689   0.003278   0.402041
     2  C    0.201975  -0.017373  -0.033406   0.400371  -0.120602  -0.034985
     3  C    0.074407   0.089562   0.011867  -0.946082  -0.262293  -0.269838
     4  C   -0.035812   0.202058  -0.013428   0.394217   0.019023  -0.156940
     5  C   -0.017848  -0.030203   0.274875  -0.001398  -0.066406  -0.043919
     6  H   -0.001762  -0.000001  -0.003022  -0.000693  -0.000028   0.000066
     7  H    0.284918  -0.000001   0.000024  -0.026676  -0.001543   0.028733
     8  H   -0.000001   0.278194   0.000097  -0.024762   0.028179  -0.000773
     9  H    0.000024   0.000097   0.377003   0.000301   0.000012   0.000010
    10  N   -0.026676  -0.024762   0.000301   7.575254   0.101815   0.067158
    11  O   -0.001543   0.028179   0.000012   0.101815   7.839254   0.013216
    12  O    0.028733  -0.000773   0.000010   0.067158   0.013216   7.876279
    13  C    0.018030   0.074282   0.037952  -0.219349   0.366393   0.039411
    14  H   -0.000023  -0.003222  -0.006813   0.000828  -0.000389  -0.000079
    15  Br   0.000046   0.005984   0.001465   0.007671  -0.000124   0.002121
              13         14         15
     1  C    1.536658  -0.025136   0.024439
     2  C   -2.044918   0.012005   0.025736
     3  C    1.151390  -0.005804   0.010071
     4  C   -4.454549  -0.081491   0.031519
     5  C   -1.836527   0.040482   0.009118
     6  H   -0.008145  -0.000039  -0.000332
     7  H    0.018030  -0.000023   0.000046
     8  H    0.074282  -0.003222   0.005984
     9  H    0.037952  -0.006813   0.001465
    10  N   -0.219349   0.000828   0.007671
    11  O    0.366393  -0.000389  -0.000124
    12  O    0.039411  -0.000079   0.002121
    13  C   11.405481   0.369135   0.047016
    14  H    0.369135   0.360669  -0.046649
    15  Br   0.047016  -0.046649  34.763423
 Mulliken charges:
               1
     1  C   -0.546194
     2  C    0.467480
     3  C   -0.674493
     4  C    0.321767
     5  C   -0.022731
     6  H    0.311453
     7  H    0.384963
     8  H    0.389336
     9  H    0.300909
    10  N   -0.112965
    11  O    0.080215
    12  O    0.077501
    13  C   -0.482261
    14  H    0.386527
    15  Br   0.118494
 Sum of Mulliken charges =   1.00000
 Mulliken charges with hydrogens summed into heavy atoms:
               1
     1  C   -0.234741
     2  C    0.852444
     3  C   -0.674493
     4  C    0.711103
     5  C    0.278178
    10  N   -0.112965
    11  O    0.080215
    12  O    0.077501
    13  C   -0.095735
    15  Br   0.118494
 Electronic spatial extent (au):  <R**2>=           2793.7805
 Charge=              1.0000 electrons
 Dipole moment (field-independent basis, Debye):
    X=              2.3775    Y=             -0.2314    Z=              0.2363  Tot=              2.4004
 Quadrupole moment (field-independent basis, Debye-Ang):
   XX=            -63.8855   YY=            -52.3613   ZZ=            -63.4303
   XY=              0.7556   XZ=              0.2840   YZ=              0.9320
 Traceless Quadrupole moment (field-independent basis, Debye-Ang):
   XX=             -3.9931   YY=              7.5311   ZZ=             -3.5379
   XY=              0.7556   XZ=              0.2840   YZ=              0.9320
 Octapole moment (field-independent basis, Debye-Ang**2):
  XXX=           -255.7713  YYY=             90.2404  ZZZ=             79.3365  XYY=            -68.6234
  XXY=             31.5553  XXZ=             32.5402  XZZ=            -74.6229  YZZ=             18.0506
  YYZ=             27.0122  XYZ=             -1.8548
 Hexadecapole moment (field-independent basis, Debye-Ang**3):
 XXXX=          -2095.0457 YYYY=           -682.9848 ZZZZ=           -353.8189 XXXY=            -68.9585
 XXXZ=            -27.0239 YYYX=            -63.4001 YYYZ=           -160.1625 ZZZX=            -22.5180
 ZZZY=           -139.9352 XXYY=           -442.5720 XXZZ=           -368.2002 YYZZ=           -167.4142
 XXYZ=            -56.6430 YYXZ=             -5.7236 ZZXY=            -11.6949
 N-N= 7.371848899906D+02 E-N=-8.630196659322D+03  KE= 3.005858810014D+03
 No NMR shielding tensors so no spin-rotation constants.
 Leave Link  601 at Wed May  1 14:49:20 2024, MaxMem=  1207959552 cpu:               7.6 elap:               7.6
 (Enter /software/gaussian/g16-c01/sse4/g16/l9999.exe)
 Unable to Open any file for archive entry.
 1\1\GINC-BHX0010\SP\RwB97XD\6-311+G(d)\C6H5Br1N1O2(1+)\BWEIGHT\01-May-
 2024\0\\#P wB97XD/6-311+G* NoSymm #P Field=X-107\\TitleMe\\1,1\C,0,0.0
 295,1.3397,0.0682\C,0,1.4348,1.2867,0.0064\C,0,2.1118,0.0511,-0.0054\C
 ,0,1.4451,-1.1372,0.0312\C,0,-0.6879,0.1682,0.11\H,0,-0.4713,2.2984,0.
 0781\H,0,2.0273,2.1965,-0.0322\H,0,1.9897,-2.0764,0.0232\H,0,-1.7716,0
 .1804,0.1582\N,0,3.5864,0.051,-0.0675\O,0,4.1471,-1.0597,-0.0881\O,0,4
 .145,1.1639,-0.0901\C,0,-0.0236,-1.1458,0.0835\H,0,-0.4367,-1.8725,0.7
 889\Br,0,-0.5359,-1.8697,-1.7408\\Version=ES64L-G16RevC.01\HF=-3010.53
 85827\RMSD=4.525e-09\Dipole=-0.9711544,1.0570439,1.2391472\Quadrupole=
 -2.9687985,5.5991574,-2.6303589,0.5617726,0.2111179,0.6929448\PG=C01 [
 X(C6H5Br1N1O2)]\\@
 The archive entry for this job was punched.


      LET US REMEMBER, PLEASE, THAT THE SEARCH FOR THE CONSTITUTION
      OF THE WORLD IS ONE OF THE GREATEST AND NOBLEST PROBLEMS PRESENTED 
      BY NATURE.

                                                  -- GALILEO
 Job cpu time:       0 days  0 hours 21 minutes 36.9 seconds.
 Elapsed time:       0 days  0 hours 21 minutes 37.0 seconds.
 File lengths (MBytes):  RWF=     40 Int=      0 D2E=      0 Chk=     32 Scr=      1
 Normal termination of Gaussian 16 at Wed May  1 14:49:21 2024.
