 Entering Gaussian System, Link 0=g16
 Initial command:
 /software/gaussian/g16-c01/sse4/g16/l1.exe "/local_scratch/24657433/Gau-17363.inp" -scrdir="/local_scratch/24657433/"
 Entering Link 1 = /software/gaussian/g16-c01/sse4/g16/l1.exe PID=     17372.
  
 Copyright (c) 1988-2019, Gaussian, Inc.  All Rights Reserved.
  
 This is part of the Gaussian(R) 16 program.  It is based on
 the Gaussian(R) 09 system (copyright 2009, Gaussian, Inc.),
 the Gaussian(R) 03 system (copyright 2003, Gaussian, Inc.),
 the Gaussian(R) 98 system (copyright 1998, Gaussian, Inc.),
 the Gaussian(R) 94 system (copyright 1995, Gaussian, Inc.),
 the Gaussian 92(TM) system (copyright 1992, Gaussian, Inc.),
 the Gaussian 90(TM) system (copyright 1990, Gaussian, Inc.),
 the Gaussian 88(TM) system (copyright 1988, Gaussian, Inc.),
 the Gaussian 86(TM) system (copyright 1986, Carnegie Mellon
 University), and the Gaussian 82(TM) system (copyright 1983,
 Carnegie Mellon University). Gaussian is a federally registered
 trademark of Gaussian, Inc.
  
 This software contains proprietary and confidential information,
 including trade secrets, belonging to Gaussian, Inc.
  
 This software is provided under written license and may be
 used, copied, transmitted, or stored only in accord with that
 written license.
  
 The following legend is applicable only to US Government
 contracts under FAR:
  
                    RESTRICTED RIGHTS LEGEND
  
 Use, reproduction and disclosure by the US Government is
 subject to restrictions as set forth in subparagraphs (a)
 and (c) of the Commercial Computer Software - Restricted
 Rights clause in FAR 52.227-19.
  
 Gaussian, Inc.
 340 Quinnipiac St., Bldg. 40, Wallingford CT 06492
  
  
 ---------------------------------------------------------------
 Warning -- This program may not be used in any manner that
 competes with the business of Gaussian, Inc. or will provide
 assistance to any competitor of Gaussian, Inc.  The licensee
 of this program is prohibited from giving any competitor of
 Gaussian, Inc. access to this program.  By using this program,
 the user acknowledges that Gaussian, Inc. is engaged in the
 business of creating and licensing software in the field of
 computational chemistry and represents and warrants to the
 licensee that it is not a competitor of Gaussian, Inc. and that
 it will not use this program in any manner prohibited above.
 ---------------------------------------------------------------
  

 Cite this work as:
 Gaussian 16, Revision C.01,
 M. J. Frisch, G. W. Trucks, H. B. Schlegel, G. E. Scuseria, 
 M. A. Robb, J. R. Cheeseman, G. Scalmani, V. Barone, 
 G. A. Petersson, H. Nakatsuji, X. Li, M. Caricato, A. V. Marenich, 
 J. Bloino, B. G. Janesko, R. Gomperts, B. Mennucci, H. P. Hratchian, 
 J. V. Ortiz, A. F. Izmaylov, J. L. Sonnenberg, D. Williams-Young, 
 F. Ding, F. Lipparini, F. Egidi, J. Goings, B. Peng, A. Petrone, 
 T. Henderson, D. Ranasinghe, V. G. Zakrzewski, J. Gao, N. Rega, 
 G. Zheng, W. Liang, M. Hada, M. Ehara, K. Toyota, R. Fukuda, 
 J. Hasegawa, M. Ishida, T. Nakajima, Y. Honda, O. Kitao, H. Nakai, 
 T. Vreven, K. Throssell, J. A. Montgomery, Jr., J. E. Peralta, 
 F. Ogliaro, M. J. Bearpark, J. J. Heyd, E. N. Brothers, K. N. Kudin, 
 V. N. Staroverov, T. A. Keith, R. Kobayashi, J. Normand, 
 K. Raghavachari, A. P. Rendell, J. C. Burant, S. S. Iyengar, 
 J. Tomasi, M. Cossi, J. M. Millam, M. Klene, C. Adamo, R. Cammi, 
 J. W. Ochterski, R. L. Martin, K. Morokuma, O. Farkas, 
 J. B. Foresman, and D. J. Fox, Gaussian, Inc., Wallingford CT, 2019.
 
 ******************************************
 Gaussian 16:  ES64L-G16RevC.01  3-Jul-2019
                 1-May-2024 
 ******************************************
 %chk=geometry.chk
 %mem=9GB
 %nprocshared=12
 Will use up to   12 processors via shared memory.
 ---------------------------------------
 #P wB97XD/6-311+G* NoSymm #P Field=X-77
 ---------------------------------------
 1/38=1,172=1/1;
 2/12=2,15=1,17=6,18=5,40=1/2;
 3/5=4,6=6,7=11,11=2,14=1,15=-77,25=1,30=1,74=-58/1,2,3;
 4//1;
 5/5=2,38=5/2;
 6/7=2,8=2,9=2,10=2,28=1/1;
 99/5=1,9=1/99;
 Leave Link    1 at Wed May  1 14:27:44 2024, MaxMem=  1207959552 cpu:               1.5 elap:               1.5
 (Enter /software/gaussian/g16-c01/sse4/g16/l101.exe)
 -------
 TitleMe
 -------
 Symbolic Z-matrix:
 Charge =  1 Multiplicity = 1
 C                     0.0295    1.3397    0.0682 
 C                     1.4348    1.2867    0.0064 
 C                     2.1118    0.0511   -0.0054 
 C                     1.4451   -1.1372    0.0312 
 C                    -0.6879    0.1682    0.11 
 H                    -0.4713    2.2984    0.0781 
 H                     2.0273    2.1965   -0.0322 
 H                     1.9897   -2.0764    0.0232 
 H                    -1.7716    0.1804    0.1582 
 N                     3.5864    0.051    -0.0675 
 O                     4.1471   -1.0597   -0.0881 
 O                     4.145     1.1639   -0.0901 
 C                    -0.0236   -1.1458    0.0835 
 H                    -0.4367   -1.8725    0.7889 
 Br                   -0.5359   -1.8697   -1.7408 
 
 ITRead=  0  0  0  0  0  0  0  0  0  0  0  0  0  0  0
 MicOpt= -1 -1 -1 -1 -1 -1 -1 -1 -1 -1 -1 -1 -1 -1 -1
 NAtoms=     15 NQM=       15 NQMF=       0 NMMI=      0 NMMIF=      0
                NMic=       0 NMicF=      0.
                    Isotopes and Nuclear Properties:
 (Nuclear quadrupole moments (NQMom) in fm**2, nuclear magnetic moments (NMagM)
  in nuclear magnetons)

  Atom         1           2           3           4           5           6           7           8           9          10
 IAtWgt=          12          12          12          12          12           1           1           1           1          14
 AtmWgt=  12.0000000  12.0000000  12.0000000  12.0000000  12.0000000   1.0078250   1.0078250   1.0078250   1.0078250  14.0030740
 NucSpn=           0           0           0           0           0           1           1           1           1           2
 AtZEff=  -0.0000000  -0.0000000  -0.0000000  -0.0000000  -0.0000000  -0.0000000  -0.0000000  -0.0000000  -0.0000000  -0.0000000
 NQMom=    0.0000000   0.0000000   0.0000000   0.0000000   0.0000000   0.0000000   0.0000000   0.0000000   0.0000000   2.0440000
 NMagM=    0.0000000   0.0000000   0.0000000   0.0000000   0.0000000   2.7928460   2.7928460   2.7928460   2.7928460   0.4037610
 AtZNuc=   6.0000000   6.0000000   6.0000000   6.0000000   6.0000000   1.0000000   1.0000000   1.0000000   1.0000000   7.0000000

  Atom        11          12          13          14          15
 IAtWgt=          16          16          12           1          79
 AtmWgt=  15.9949146  15.9949146  12.0000000   1.0078250  78.9183361
 NucSpn=           0           0           0           1           3
 AtZEff=  -0.0000000  -0.0000000  -0.0000000  -0.0000000  -0.0000000
 NQMom=    0.0000000   0.0000000   0.0000000   0.0000000  31.3000000
 NMagM=    0.0000000   0.0000000   0.0000000   2.7928460   2.1063990
 AtZNuc=   8.0000000   8.0000000   6.0000000   1.0000000  35.0000000
 Leave Link  101 at Wed May  1 14:27:45 2024, MaxMem=  1207959552 cpu:               1.4 elap:               1.4
 (Enter /software/gaussian/g16-c01/sse4/g16/l202.exe)
                          Input orientation:                          
 ---------------------------------------------------------------------
 Center     Atomic      Atomic             Coordinates (Angstroms)
 Number     Number       Type             X           Y           Z
 ---------------------------------------------------------------------
      1          6           0        0.029500    1.339700    0.068200
      2          6           0        1.434800    1.286700    0.006400
      3          6           0        2.111800    0.051100   -0.005400
      4          6           0        1.445100   -1.137200    0.031200
      5          6           0       -0.687900    0.168200    0.110000
      6          1           0       -0.471300    2.298400    0.078100
      7          1           0        2.027300    2.196500   -0.032200
      8          1           0        1.989700   -2.076400    0.023200
      9          1           0       -1.771600    0.180400    0.158200
     10          7           0        3.586400    0.051000   -0.067500
     11          8           0        4.147100   -1.059700   -0.088100
     12          8           0        4.145000    1.163900   -0.090100
     13          6           0       -0.023600   -1.145800    0.083500
     14          1           0       -0.436700   -1.872500    0.788900
     15         35           0       -0.535900   -1.869700   -1.740800
 ---------------------------------------------------------------------
                    Distance matrix (angstroms):
                    1          2          3          4          5
     1  C    0.000000
     2  C    1.407656   0.000000
     3  C    2.449874   1.408963   0.000000
     4  C    2.853126   2.424049   1.363043   0.000000
     5  C    1.374344   2.401589   2.804523   2.501993   0.000000
     6  H    1.081667   2.159142   3.424870   3.934226   2.141421
     7  H    2.176095   1.086408   2.147231   3.384750   3.392128
     8  H    3.938800   3.408612   2.131193   1.085702   3.495040
     9  H    2.143837   3.395283   3.888995   3.478413   1.084840
    10  N    3.785591   2.482297   1.475907   2.450862   4.279589
    11  O    4.768247   3.587631   2.320164   2.705743   4.992415
    12  O    4.122294   2.714696   2.319353   3.549540   4.938459
    13  C    2.486114   2.837240   2.449573   1.469656   1.472614
    14  H    3.324903   3.754379   3.290289   2.157764   2.165286
    15  Br   3.727252   4.110867   3.702891   2.756973   2.757100
                    6          7          8          9         10
     6  H    0.000000
     7  H    2.503108   0.000000
     8  H    5.019802   4.273425   0.000000
     9  H    2.486588   4.304945   4.388479   0.000000
    10  N    4.640790   2.652397   2.661486   5.364313   0.000000
    11  O    5.712624   3.885809   2.387560   6.052233   1.244373
    12  O    4.756638   2.356750   3.893289   6.002923   1.245428
    13  C    3.473180   3.923079   2.218790   2.195425   3.806210
    14  H    4.231175   4.827242   2.552506   2.528663   4.540772
    15  Br   4.548146   5.101303   3.087568   3.055498   4.845862
                   11         12         13         14         15
    11  O    0.000000
    12  O    2.223602   0.000000
    13  C    4.175117   4.768865   0.000000
    14  H    4.737193   5.566358   1.093770   0.000000
    15  Br   5.031700   5.817075   2.028436   2.531646   0.000000
 Symmetry turned off by external request.
 Stoichiometry    C6H5BrNO2(1+)
 Framework group  C1[X(C6H5BrNO2)]
 Deg. of freedom    39
 Full point group                 C1      NOp   1
 Rotational constants (GHZ):           1.8252210           0.5518633           0.4576002
 Leave Link  202 at Wed May  1 14:27:47 2024, MaxMem=  1207959552 cpu:               1.2 elap:               1.2
 (Enter /software/gaussian/g16-c01/sse4/g16/l301.exe)
 Standard basis: 6-311+G(d) (5D, 7F)
 Ernie: Thresh=  0.10000D-02 Tol=  0.10000D-05 Strict=F.
 The following finite field(s) will be applied:
 An electric field of             -0.0077  0.0000  0.0000
   261 basis functions,   443 primitive gaussians,   273 cartesian basis functions
    49 alpha electrons       49 beta electrons
       nuclear repulsion energy       739.2122215416 Hartrees.
 IExCor= 4639 DFT=T Ex+Corr=wB97XD ExCW=0 ScaHFX=  1.000000
 ScaDFX=  1.000000  1.000000  1.000000  1.000000 ScalE2=  1.000000  1.000000
 IRadAn=      5 IRanWt=     -1 IRanGd=            0 ICorTp=0 IEmpDi=121
 HFx  wShort=  0.000000 wLong=  0.200000 cFull=  0.222036 cShort=  0.000000 cLong=  0.777964
 DFx  wShort=  0.000000 wLong=  0.200000 cFull=  0.000000 cShort=  0.000000 cLong=  1.000000
 NAtoms=   15 NActive=   15 NUniq=   15 SFac= 1.00D+00 NAtFMM=   60 NAOKFM=F Big=F
 Integral buffers will be    131072 words long.
 Raffenetti 2 integral format.
 Two-electron integral symmetry is turned off.
 R6Disp:  Grimme-D2 Dispersion energy=       -0.0077368520 Hartrees.
 Nuclear repulsion after empirical dispersion term =      739.2044846896 Hartrees.
 Leave Link  301 at Wed May  1 14:27:48 2024, MaxMem=  1207959552 cpu:               0.9 elap:               0.9
 (Enter /software/gaussian/g16-c01/sse4/g16/l302.exe)
 NPDir=0 NMtPBC=     1 NCelOv=     1 NCel=       1 NClECP=     1 NCelD=      1
         NCelK=      1 NCelE2=     1 NClLst=     1 CellRange=     0.0.
 One-electron integrals computed using PRISM.
 NBasis=   261 RedAO= T EigKep=  2.35D-06  NBF=   261
 NBsUse=   261 1.00D-06 EigRej= -1.00D+00 NBFU=   261
 Precomputing XC quadrature grid using
 IXCGrd= 4 IRadAn=           5 IRanWt=          -1 IRanGd=           0 AccXCQ= 0.00D+00.
 Generated NRdTot=       0 NPtTot=           0 NUsed=           0 NTot=          32
 NSgBfM=   273   273   273   273   273 MxSgAt=    15 MxSgA2=    15.
 Leave Link  302 at Wed May  1 14:28:09 2024, MaxMem=  1207959552 cpu:              21.4 elap:              21.4
 (Enter /software/gaussian/g16-c01/sse4/g16/l303.exe)
 DipDrv:  MaxL=1.
 The nuclear repulsion energy is now       737.7511314950 hartrees.
 Leave Link  303 at Wed May  1 14:28:13 2024, MaxMem=  1207959552 cpu:               3.2 elap:               3.2
 (Enter /software/gaussian/g16-c01/sse4/g16/l401.exe)
 ExpMin= 3.50D-02 ExpMax= 4.40D+05 ExpMxC= 1.51D+04 IAcc=3 IRadAn=         5 AccDes= 0.00D+00
 Harris functional with IExCor= 4639 and IRadAn=       5 diagonalized for initial guess.
 HarFok:  IExCor= 4639 AccDes= 0.00D+00 IRadAn=         5 IDoV= 1 UseB2=F ITyADJ=14
 ICtDFT=  3500011 ScaDFX=  1.000000  1.000000  1.000000  1.000000
 FoFCou: FMM=F IPFlag=           0 FMFlag=      100000 FMFlg1=           0
         NFxFlg=           0 DoJE=T BraDBF=F KetDBF=T FulRan=T
         wScrn=  0.000000 ICntrl=       500 IOpCl=  0 I1Cent=   200000004 NGrid=           0
         NMat0=    1 NMatS0=      1 NMatT0=    0 NMatD0=    1 NMtDS0=    0 NMtDT0=    0
 Symmetry not used in FoFCou.
 Harris En= -2970.64620048788    
 JPrj=0 DoOrth=F DoCkMO=F.
 Leave Link  401 at Wed May  1 14:28:43 2024, MaxMem=  1207959552 cpu:              30.0 elap:              30.0
 (Enter /software/gaussian/g16-c01/sse4/g16/l502.exe)
 Two-electron integral symmetry not used.
 Closed shell SCF:
 Using DIIS extrapolation, IDIIS=  1040.
 NGot=  1207959552 LenX=  1207804877 LenY=  1207729907
 Requested convergence on RMS density matrix=1.00D-08 within 128 cycles.
 Requested convergence on MAX density matrix=1.00D-06.
 Requested convergence on             energy=1.00D-06.
 No special actions if energy rises.
 Fock matrices will be formed incrementally for  20 cycles.

 Cycle   1  Pass 1  IDiag  1:
 FoFJK:  IHMeth= 1 ICntrl=       0 DoSepK=T KAlg= 0 I1Cent=           0 FoldK=F
 IRaf=         1 NMat=       1 IRICut=       1 DoRegI=T DoRafI=F ISym2E= 0 IDoP0=0 IntGTp=1.
 FoFCou: FMM=F IPFlag=           0 FMFlag=      100000 FMFlg1=           0
         NFxFlg=           0 DoJE=T BraDBF=F KetDBF=F FulRan=T
         wScrn=  0.000000 ICntrl=       500 IOpCl=  0 I1Cent=           0 NGrid=           0
         NMat0=    1 NMatS0=      1 NMatT0=    0 NMatD0=    1 NMtDS0=    0 NMtDT0=    0
 Symmetry not used in FoFCou.
 E= -3008.66987560129    
 DIIS: error= 3.21D-01 at cycle   1 NSaved=   1.
 NSaved= 1 IEnMin= 1 EnMin= -3008.66987560129     IErMin= 1 ErrMin= 3.21D-01
 ErrMax= 3.21D-01  0.00D+00 EMaxC= 1.00D-01 BMatC= 1.23D+01 BMatP= 1.23D+01
 IDIUse=3 WtCom= 0.00D+00 WtEn= 1.00D+00
 Coeff-Com:  0.100D+01
 Coeff-En:   0.100D+01
 Coeff:      0.100D+01
 Gap=    -0.078 Goal=   None    Shift=    0.000
 GapD=   -0.078 DampG=0.250 DampE=0.250 DampFc=0.2500 IDamp=-1.
 Damping current iteration by 2.50D-01
 RMSDP=6.27D-02 MaxDP=3.82D+00              OVMax= 9.57D-01

 Cycle   2  Pass 1  IDiag  1:
 RMSU=  1.56D-02    CP:  9.86D-01
 E= -3008.63021093622     Delta-E=        0.039664665064 Rises=F Damp=T
 DIIS: error= 2.26D-01 at cycle   2 NSaved=   2.
 NSaved= 2 IEnMin= 1 EnMin= -3008.66987560129     IErMin= 2 ErrMin= 2.26D-01
 ErrMax= 2.26D-01  0.00D+00 EMaxC= 1.00D-01 BMatC= 5.55D+00 BMatP= 1.23D+01
 IDIUse=3 WtCom= 0.00D+00 WtEn= 1.00D+00
 Coeff-Com: -0.104D+01 0.204D+01
 Coeff-En:   0.514D+00 0.486D+00
 Coeff:      0.514D+00 0.486D+00
 Gap=     0.045 Goal=   None    Shift=    0.000
 RMSDP=3.90D-02 MaxDP=3.23D+00 DE= 3.97D-02 OVMax= 9.87D-01

 Cycle   3  Pass 1  IDiag  1:
 RMSU=  1.71D-02    CP:  6.10D-01  1.40D+00
 E= -3009.04648896675     Delta-E=       -0.416278030527 Rises=F Damp=F
 DIIS: error= 1.38D-01 at cycle   3 NSaved=   3.
 NSaved= 3 IEnMin= 3 EnMin= -3009.04648896675     IErMin= 3 ErrMin= 1.38D-01
 ErrMax= 1.38D-01  0.00D+00 EMaxC= 1.00D-01 BMatC= 2.53D+00 BMatP= 5.55D+00
 IDIUse=3 WtCom= 0.00D+00 WtEn= 1.00D+00
 EnCoef did   100 forward-backward iterations
 Coeff-Com:  0.461D+00-0.266D+00 0.805D+00
 Coeff-En:   0.450D+00 0.409D-02 0.546D+00
 Coeff:      0.450D+00 0.409D-02 0.546D+00
 Gap=     0.118 Goal=   None    Shift=    0.000
 RMSDP=2.09D-02 MaxDP=9.52D-01 DE=-4.16D-01 OVMax= 5.65D-01

 Cycle   4  Pass 1  IDiag  1:
 RMSU=  1.50D-02    CP:  6.09D-01  4.70D-01  9.59D-01
 E= -3010.47217959330     Delta-E=       -1.425690626547 Rises=F Damp=F
 DIIS: error= 1.48D-02 at cycle   4 NSaved=   4.
 NSaved= 4 IEnMin= 4 EnMin= -3010.47217959330     IErMin= 4 ErrMin= 1.48D-02
 ErrMax= 1.48D-02  0.00D+00 EMaxC= 1.00D-01 BMatC= 6.17D-02 BMatP= 2.53D+00
 IDIUse=3 WtCom= 8.52D-01 WtEn= 1.48D-01
 Coeff-Com:  0.818D-01-0.561D-01 0.776D-01 0.897D+00
 Coeff-En:   0.000D+00 0.000D+00 0.000D+00 0.100D+01
 Coeff:      0.697D-01-0.478D-01 0.661D-01 0.912D+00
 Gap=     0.226 Goal=   None    Shift=    0.000
 RMSDP=1.10D-02 MaxDP=6.81D-01 DE=-1.43D+00 OVMax= 9.15D-02

 Cycle   5  Pass 1  IDiag  1:
 RMSU=  5.89D-03    CP:  5.29D-01  5.90D-01  9.39D-01  6.33D-01
 E= -3010.50159162813     Delta-E=       -0.029412034831 Rises=F Damp=F
 DIIS: error= 1.73D-02 at cycle   5 NSaved=   5.
 NSaved= 5 IEnMin= 5 EnMin= -3010.50159162813     IErMin= 4 ErrMin= 1.48D-02
 ErrMax= 1.73D-02  0.00D+00 EMaxC= 1.00D-01 BMatC= 3.80D-02 BMatP= 6.17D-02
 IDIUse=3 WtCom= 8.27D-01 WtEn= 1.73D-01
 Coeff-Com:  0.541D-03 0.589D-02-0.218D-01 0.443D+00 0.573D+00
 Coeff-En:   0.000D+00 0.000D+00 0.000D+00 0.311D+00 0.689D+00
 Coeff:      0.447D-03 0.487D-02-0.180D-01 0.420D+00 0.593D+00
 Gap=     0.205 Goal=   None    Shift=    0.000
 RMSDP=4.24D-03 MaxDP=2.12D-01 DE=-2.94D-02 OVMax= 4.77D-02

 Cycle   6  Pass 1  IDiag  1:
 RMSU=  1.72D-03    CP:  5.43D-01  4.67D-01  9.08D-01  8.21D-01  7.93D-01
 E= -3010.53428918468     Delta-E=       -0.032697556549 Rises=F Damp=F
 DIIS: error= 4.23D-03 at cycle   6 NSaved=   6.
 NSaved= 6 IEnMin= 6 EnMin= -3010.53428918468     IErMin= 6 ErrMin= 4.23D-03
 ErrMax= 4.23D-03  0.00D+00 EMaxC= 1.00D-01 BMatC= 2.33D-03 BMatP= 3.80D-02
 IDIUse=3 WtCom= 9.58D-01 WtEn= 4.23D-02
 Coeff-Com: -0.278D-02 0.606D-02-0.110D-01 0.160D+00 0.290D+00 0.558D+00
 Coeff-En:   0.000D+00 0.000D+00 0.000D+00 0.000D+00 0.000D+00 0.100D+01
 Coeff:     -0.266D-02 0.581D-02-0.106D-01 0.153D+00 0.277D+00 0.577D+00
 Gap=     0.221 Goal=   None    Shift=    0.000
 RMSDP=9.38D-04 MaxDP=4.18D-02 DE=-3.27D-02 OVMax= 9.58D-03

 Cycle   7  Pass 1  IDiag  1:
 RMSU=  5.73D-04    CP:  5.39D-01  4.73D-01  8.98D-01  7.85D-01  8.42D-01
                    CP:  1.06D+00
 E= -3010.53596857905     Delta-E=       -0.001679394373 Rises=F Damp=F
 DIIS: error= 1.64D-03 at cycle   7 NSaved=   7.
 NSaved= 7 IEnMin= 7 EnMin= -3010.53596857905     IErMin= 7 ErrMin= 1.64D-03
 ErrMax= 1.64D-03  0.00D+00 EMaxC= 1.00D-01 BMatC= 1.98D-04 BMatP= 2.33D-03
 IDIUse=3 WtCom= 9.84D-01 WtEn= 1.64D-02
 Coeff-Com: -0.676D-02 0.863D-02-0.311D-02-0.156D-01 0.563D-03 0.200D+00
 Coeff-Com:  0.816D+00
 Coeff-En:   0.000D+00 0.000D+00 0.000D+00 0.000D+00 0.000D+00 0.000D+00
 Coeff-En:   0.100D+01
 Coeff:     -0.665D-02 0.848D-02-0.306D-02-0.153D-01 0.554D-03 0.197D+00
 Coeff:      0.819D+00
 Gap=     0.225 Goal=   None    Shift=    0.000
 RMSDP=3.72D-04 MaxDP=2.76D-02 DE=-1.68D-03 OVMax= 1.05D-02

 Cycle   8  Pass 1  IDiag  1:
 RMSU=  2.32D-04    CP:  5.41D-01  4.87D-01  8.98D-01  7.79D-01  8.60D-01
                    CP:  1.06D+00  1.05D+00
 E= -3010.53623567759     Delta-E=       -0.000267098537 Rises=F Damp=F
 DIIS: error= 5.74D-04 at cycle   8 NSaved=   8.
 NSaved= 8 IEnMin= 8 EnMin= -3010.53623567759     IErMin= 8 ErrMin= 5.74D-04
 ErrMax= 5.74D-04  0.00D+00 EMaxC= 1.00D-01 BMatC= 5.00D-05 BMatP= 1.98D-04
 IDIUse=3 WtCom= 9.94D-01 WtEn= 5.74D-03
 Coeff-Com: -0.525D-02 0.686D-02-0.129D-02-0.157D-01-0.186D-01 0.358D-01
 Coeff-Com:  0.356D+00 0.642D+00
 Coeff-En:   0.000D+00 0.000D+00 0.000D+00 0.000D+00 0.000D+00 0.000D+00
 Coeff-En:   0.000D+00 0.100D+01
 Coeff:     -0.522D-02 0.682D-02-0.128D-02-0.156D-01-0.185D-01 0.356D-01
 Coeff:      0.354D+00 0.644D+00
 Gap=     0.227 Goal=   None    Shift=    0.000
 RMSDP=1.40D-04 MaxDP=9.08D-03 DE=-2.67D-04 OVMax= 3.27D-03

 Cycle   9  Pass 1  IDiag  1:
 RMSU=  8.86D-05    CP:  5.41D-01  4.91D-01  8.99D-01  7.74D-01  8.59D-01
                    CP:  1.07D+00  1.12D+00  1.06D+00
 E= -3010.53627903184     Delta-E=       -0.000043354255 Rises=F Damp=F
 DIIS: error= 4.40D-04 at cycle   9 NSaved=   9.
 NSaved= 9 IEnMin= 9 EnMin= -3010.53627903184     IErMin= 9 ErrMin= 4.40D-04
 ErrMax= 4.40D-04  0.00D+00 EMaxC= 1.00D-01 BMatC= 2.58D-05 BMatP= 5.00D-05
 IDIUse=3 WtCom= 9.96D-01 WtEn= 4.40D-03
 Coeff-Com: -0.347D-02 0.476D-02-0.545D-03-0.370D-02-0.981D-02-0.315D-01
 Coeff-Com:  0.208D-01 0.425D+00 0.599D+00
 Coeff-En:   0.000D+00 0.000D+00 0.000D+00 0.000D+00 0.000D+00 0.000D+00
 Coeff-En:   0.000D+00 0.000D+00 0.100D+01
 Coeff:     -0.346D-02 0.474D-02-0.543D-03-0.368D-02-0.976D-02-0.313D-01
 Coeff:      0.207D-01 0.423D+00 0.600D+00
 Gap=     0.228 Goal=   None    Shift=    0.000
 RMSDP=1.08D-04 MaxDP=5.55D-03 DE=-4.34D-05 OVMax= 1.85D-03

 Cycle  10  Pass 1  IDiag  1:
 RMSU=  4.78D-05    CP:  5.41D-01  4.94D-01  8.99D-01  7.70D-01  8.59D-01
                    CP:  1.07D+00  1.17D+00  1.28D+00  9.55D-01
 E= -3010.53630193648     Delta-E=       -0.000022904640 Rises=F Damp=F
 DIIS: error= 1.60D-04 at cycle  10 NSaved=  10.
 NSaved=10 IEnMin=10 EnMin= -3010.53630193648     IErMin=10 ErrMin= 1.60D-04
 ErrMax= 1.60D-04  0.00D+00 EMaxC= 1.00D-01 BMatC= 6.83D-06 BMatP= 2.58D-05
 IDIUse=3 WtCom= 9.98D-01 WtEn= 1.60D-03
 Coeff-Com: -0.160D-02 0.236D-02-0.329D-03 0.624D-02 0.473D-02-0.258D-01
 Coeff-Com: -0.101D+00-0.373D-01 0.293D+00 0.860D+00
 Coeff-En:   0.000D+00 0.000D+00 0.000D+00 0.000D+00 0.000D+00 0.000D+00
 Coeff-En:   0.000D+00 0.000D+00 0.000D+00 0.100D+01
 Coeff:     -0.160D-02 0.235D-02-0.328D-03 0.623D-02 0.472D-02-0.258D-01
 Coeff:     -0.101D+00-0.373D-01 0.293D+00 0.860D+00
 Gap=     0.228 Goal=   None    Shift=    0.000
 RMSDP=8.15D-05 MaxDP=4.40D-03 DE=-2.29D-05 OVMax= 1.59D-03

 Cycle  11  Pass 1  IDiag  1:
 RMSU=  2.22D-05    CP:  5.42D-01  4.97D-01  9.00D-01  7.68D-01  8.59D-01
                    CP:  1.07D+00  1.20D+00  1.37D+00  1.27D+00  1.33D+00
 E= -3010.53631021552     Delta-E=       -0.000008279036 Rises=F Damp=F
 DIIS: error= 6.12D-05 at cycle  11 NSaved=  11.
 NSaved=11 IEnMin=11 EnMin= -3010.53631021552     IErMin=11 ErrMin= 6.12D-05
 ErrMax= 6.12D-05  0.00D+00 EMaxC= 1.00D-01 BMatC= 1.17D-06 BMatP= 6.83D-06
 IDIUse=1 WtCom= 1.00D+00 WtEn= 0.00D+00
 Coeff-Com: -0.461D-03 0.708D-03-0.100D-03 0.315D-02 0.382D-02 0.676D-03
 Coeff-Com: -0.225D-01-0.104D+00-0.638D-01 0.223D+00 0.959D+00
 Coeff:     -0.461D-03 0.708D-03-0.100D-03 0.315D-02 0.382D-02 0.676D-03
 Coeff:     -0.225D-01-0.104D+00-0.638D-01 0.223D+00 0.959D+00
 Gap=     0.229 Goal=   None    Shift=    0.000
 RMSDP=3.62D-05 MaxDP=1.78D-03 DE=-8.28D-06 OVMax= 9.20D-04

 Cycle  12  Pass 1  IDiag  1:
 RMSU=  1.17D-05    CP:  5.42D-01  4.98D-01  9.00D-01  7.66D-01  8.59D-01
                    CP:  1.06D+00  1.21D+00  1.41D+00  1.37D+00  1.63D+00
                    CP:  1.18D+00
 E= -3010.53631211024     Delta-E=       -0.000001894720 Rises=F Damp=F
 DIIS: error= 2.90D-05 at cycle  12 NSaved=  12.
 NSaved=12 IEnMin=12 EnMin= -3010.53631211024     IErMin=12 ErrMin= 2.90D-05
 ErrMax= 2.90D-05  0.00D+00 EMaxC= 1.00D-01 BMatC= 1.45D-07 BMatP= 1.17D-06
 IDIUse=1 WtCom= 1.00D+00 WtEn= 0.00D+00
 Coeff-Com: -0.925D-04 0.127D-03 0.329D-04-0.555D-04 0.182D-03 0.518D-02
 Coeff-Com:  0.139D-01-0.954D-02-0.597D-01-0.103D+00 0.244D+00 0.909D+00
 Coeff:     -0.925D-04 0.127D-03 0.329D-04-0.555D-04 0.182D-03 0.518D-02
 Coeff:      0.139D-01-0.954D-02-0.597D-01-0.103D+00 0.244D+00 0.909D+00
 Gap=     0.229 Goal=   None    Shift=    0.000
 RMSDP=9.29D-06 MaxDP=5.06D-04 DE=-1.89D-06 OVMax= 3.52D-04

 Cycle  13  Pass 1  IDiag  1:
 RMSU=  4.67D-06    CP:  5.42D-01  4.98D-01  9.00D-01  7.66D-01  8.59D-01
                    CP:  1.06D+00  1.21D+00  1.41D+00  1.40D+00  1.70D+00
                    CP:  1.34D+00  1.14D+00
 E= -3010.53631238920     Delta-E=       -0.000000278963 Rises=F Damp=F
 DIIS: error= 7.67D-06 at cycle  13 NSaved=  13.
 NSaved=13 IEnMin=13 EnMin= -3010.53631238920     IErMin=13 ErrMin= 7.67D-06
 ErrMax= 7.67D-06  0.00D+00 EMaxC= 1.00D-01 BMatC= 1.81D-08 BMatP= 1.45D-07
 IDIUse=1 WtCom= 1.00D+00 WtEn= 0.00D+00
 Coeff-Com: -0.130D-04 0.687D-05-0.637D-06-0.371D-03-0.271D-03 0.240D-02
 Coeff-Com:  0.825D-02 0.108D-01-0.155D-01-0.729D-01-0.374D-01 0.340D+00
 Coeff-Com:  0.765D+00
 Coeff:     -0.130D-04 0.687D-05-0.637D-06-0.371D-03-0.271D-03 0.240D-02
 Coeff:      0.825D-02 0.108D-01-0.155D-01-0.729D-01-0.374D-01 0.340D+00
 Coeff:      0.765D+00
 Gap=     0.229 Goal=   None    Shift=    0.000
 RMSDP=3.57D-06 MaxDP=2.07D-04 DE=-2.79D-07 OVMax= 1.53D-04

 Cycle  14  Pass 1  IDiag  1:
 RMSU=  1.66D-06    CP:  5.42D-01  4.98D-01  9.00D-01  7.66D-01  8.59D-01
                    CP:  1.06D+00  1.21D+00  1.41D+00  1.39D+00  1.72D+00
                    CP:  1.36D+00  1.32D+00  1.20D+00
 E= -3010.53631243356     Delta-E=       -0.000000044361 Rises=F Damp=F
 DIIS: error= 3.63D-06 at cycle  14 NSaved=  14.
 NSaved=14 IEnMin=14 EnMin= -3010.53631243356     IErMin=14 ErrMin= 3.63D-06
 ErrMax= 3.63D-06  0.00D+00 EMaxC= 1.00D-01 BMatC= 2.13D-09 BMatP= 1.81D-08
 IDIUse=1 WtCom= 1.00D+00 WtEn= 0.00D+00
 Coeff-Com:  0.109D-04-0.190D-04-0.170D-04-0.128D-03-0.114D-03-0.637D-04
 Coeff-Com: -0.471D-04 0.467D-02 0.503D-02-0.681D-02-0.492D-01-0.569D-01
 Coeff-Com:  0.208D+00 0.895D+00
 Coeff:      0.109D-04-0.190D-04-0.170D-04-0.128D-03-0.114D-03-0.637D-04
 Coeff:     -0.471D-04 0.467D-02 0.503D-02-0.681D-02-0.492D-01-0.569D-01
 Coeff:      0.208D+00 0.895D+00
 Gap=     0.229 Goal=   None    Shift=    0.000
 RMSDP=2.35D-06 MaxDP=1.73D-04 DE=-4.44D-08 OVMax= 9.85D-05

 Cycle  15  Pass 1  IDiag  1:
 RMSU=  1.16D-06    CP:  5.42D-01  4.98D-01  9.00D-01  7.66D-01  8.59D-01
                    CP:  1.06D+00  1.21D+00  1.41D+00  1.40D+00  1.73D+00
                    CP:  1.37D+00  1.37D+00  1.51D+00  1.06D+00
 E= -3010.53631244326     Delta-E=       -0.000000009699 Rises=F Damp=F
 DIIS: error= 1.51D-06 at cycle  15 NSaved=  15.
 NSaved=15 IEnMin=15 EnMin= -3010.53631244326     IErMin=15 ErrMin= 1.51D-06
 ErrMax= 1.51D-06  0.00D+00 EMaxC= 1.00D-01 BMatC= 7.53D-10 BMatP= 2.13D-09
 IDIUse=1 WtCom= 1.00D+00 WtEn= 0.00D+00
 Coeff-Com:  0.949D-05-0.126D-04-0.327D-05 0.220D-04-0.194D-04-0.515D-03
 Coeff-Com: -0.147D-02 0.804D-03 0.540D-02 0.101D-01-0.714D-02-0.700D-01
 Coeff-Com: -0.509D-01 0.285D+00 0.829D+00
 Coeff:      0.949D-05-0.126D-04-0.327D-05 0.220D-04-0.194D-04-0.515D-03
 Coeff:     -0.147D-02 0.804D-03 0.540D-02 0.101D-01-0.714D-02-0.700D-01
 Coeff:     -0.509D-01 0.285D+00 0.829D+00
 Gap=     0.229 Goal=   None    Shift=    0.000
 RMSDP=9.36D-07 MaxDP=6.58D-05 DE=-9.70D-09 OVMax= 3.45D-05

 Cycle  16  Pass 1  IDiag  1:
 RMSU=  4.23D-07    CP:  5.42D-01  4.98D-01  9.00D-01  7.66D-01  8.59D-01
                    CP:  1.06D+00  1.21D+00  1.42D+00  1.40D+00  1.73D+00
                    CP:  1.37D+00  1.38D+00  1.60D+00  1.20D+00  1.24D+00
 E= -3010.53631244541     Delta-E=       -0.000000002146 Rises=F Damp=F
 DIIS: error= 8.43D-07 at cycle  16 NSaved=  16.
 NSaved=16 IEnMin=16 EnMin= -3010.53631244541     IErMin=16 ErrMin= 8.43D-07
 ErrMax= 8.43D-07  0.00D+00 EMaxC= 1.00D-01 BMatC= 1.49D-10 BMatP= 7.53D-10
 IDIUse=1 WtCom= 1.00D+00 WtEn= 0.00D+00
 Coeff-Com:  0.615D-05-0.764D-05 0.576D-05 0.309D-04 0.226D-05-0.176D-03
 Coeff-Com: -0.517D-03-0.778D-03 0.359D-03 0.411D-02 0.114D-01-0.384D-02
 Coeff-Com: -0.575D-01-0.142D+00 0.207D+00 0.982D+00
 Coeff:      0.615D-05-0.764D-05 0.576D-05 0.309D-04 0.226D-05-0.176D-03
 Coeff:     -0.517D-03-0.778D-03 0.359D-03 0.411D-02 0.114D-01-0.384D-02
 Coeff:     -0.575D-01-0.142D+00 0.207D+00 0.982D+00
 Gap=     0.229 Goal=   None    Shift=    0.000
 RMSDP=6.89D-07 MaxDP=4.20D-05 DE=-2.15D-09 OVMax= 2.80D-05

 Cycle  17  Pass 1  IDiag  1:
 RMSU=  1.91D-07    CP:  5.42D-01  4.98D-01  9.00D-01  7.66D-01  8.59D-01
                    CP:  1.06D+00  1.21D+00  1.42D+00  1.41D+00  1.73D+00
                    CP:  1.37D+00  1.38D+00  1.68D+00  1.23D+00  1.52D+00
                    CP:  1.28D+00
 E= -3010.53631244615     Delta-E=       -0.000000000743 Rises=F Damp=F
 DIIS: error= 3.57D-07 at cycle  17 NSaved=  17.
 NSaved=17 IEnMin=17 EnMin= -3010.53631244615     IErMin=17 ErrMin= 3.57D-07
 ErrMax= 3.57D-07  0.00D+00 EMaxC= 1.00D-01 BMatC= 2.02D-11 BMatP= 1.49D-10
 IDIUse=1 WtCom= 1.00D+00 WtEn= 0.00D+00
 Coeff-Com:  0.103D-05-0.144D-05 0.117D-05-0.532D-05 0.731D-05 0.107D-03
 Coeff-Com:  0.266D-03-0.359D-03-0.120D-02-0.156D-02 0.240D-02 0.125D-01
 Coeff-Com:  0.580D-02-0.780D-01-0.165D+00 0.131D+00 0.109D+01
 Coeff:      0.103D-05-0.144D-05 0.117D-05-0.532D-05 0.731D-05 0.107D-03
 Coeff:      0.266D-03-0.359D-03-0.120D-02-0.156D-02 0.240D-02 0.125D-01
 Coeff:      0.580D-02-0.780D-01-0.165D+00 0.131D+00 0.109D+01
 Gap=     0.229 Goal=   None    Shift=    0.000
 RMSDP=3.51D-07 MaxDP=1.56D-05 DE=-7.43D-10 OVMax= 1.84D-05

 Cycle  18  Pass 1  IDiag  1:
 RMSU=  7.93D-08    CP:  5.42D-01  4.98D-01  9.00D-01  7.66D-01  8.59D-01
                    CP:  1.06D+00  1.21D+00  1.42D+00  1.41D+00  1.73D+00
                    CP:  1.37D+00  1.38D+00  1.72D+00  1.22D+00  1.65D+00
                    CP:  1.56D+00  1.42D+00
 E= -3010.53631244627     Delta-E=       -0.000000000123 Rises=F Damp=F
 DIIS: error= 1.04D-07 at cycle  18 NSaved=  18.
 NSaved=18 IEnMin=18 EnMin= -3010.53631244627     IErMin=18 ErrMin= 1.04D-07
 ErrMax= 1.04D-07  0.00D+00 EMaxC= 1.00D-01 BMatC= 4.30D-12 BMatP= 2.02D-11
 IDIUse=1 WtCom= 1.00D+00 WtEn= 0.00D+00
 Coeff-Com:  0.416D-06-0.671D-06-0.181D-06-0.588D-05 0.346D-05 0.628D-04
 Coeff-Com:  0.154D-03-0.621D-04-0.491D-03-0.104D-02-0.111D-02 0.443D-02
 Coeff-Com:  0.109D-01-0.821D-02-0.799D-01-0.825D-01 0.427D+00 0.731D+00
 Coeff:      0.416D-06-0.671D-06-0.181D-06-0.588D-05 0.346D-05 0.628D-04
 Coeff:      0.154D-03-0.621D-04-0.491D-03-0.104D-02-0.111D-02 0.443D-02
 Coeff:      0.109D-01-0.821D-02-0.799D-01-0.825D-01 0.427D+00 0.731D+00
 Gap=     0.229 Goal=   None    Shift=    0.000
 RMSDP=9.14D-08 MaxDP=5.97D-06 DE=-1.23D-10 OVMax= 4.28D-06

 Cycle  19  Pass 1  IDiag  1:
 RMSU=  1.98D-08    CP:  5.42D-01  4.98D-01  9.00D-01  7.66D-01  8.59D-01
                    CP:  1.06D+00  1.21D+00  1.42D+00  1.41D+00  1.73D+00
                    CP:  1.37D+00  1.38D+00  1.72D+00  1.22D+00  1.65D+00
                    CP:  1.58D+00  1.57D+00  1.04D+00
 E= -3010.53631244628     Delta-E=       -0.000000000012 Rises=F Damp=F
 DIIS: error= 5.44D-08 at cycle  19 NSaved=  19.
 NSaved=19 IEnMin=19 EnMin= -3010.53631244628     IErMin=19 ErrMin= 5.44D-08
 ErrMax= 5.44D-08  0.00D+00 EMaxC= 1.00D-01 BMatC= 5.08D-13 BMatP= 4.30D-12
 IDIUse=1 WtCom= 1.00D+00 WtEn= 0.00D+00
 Coeff-Com:  0.229D-07-0.372D-07-0.126D-06 0.290D-06-0.584D-06-0.889D-05
 Coeff-Com: -0.197D-04 0.333D-04 0.133D-03 0.178D-03-0.735D-03-0.111D-02
 Coeff-Com:  0.182D-02 0.100D-01 0.138D-01-0.487D-01-0.108D+00 0.138D+00
 Coeff-Com:  0.994D+00
 Coeff:      0.229D-07-0.372D-07-0.126D-06 0.290D-06-0.584D-06-0.889D-05
 Coeff:     -0.197D-04 0.333D-04 0.133D-03 0.178D-03-0.735D-03-0.111D-02
 Coeff:      0.182D-02 0.100D-01 0.138D-01-0.487D-01-0.108D+00 0.138D+00
 Coeff:      0.994D+00
 Gap=     0.229 Goal=   None    Shift=    0.000
 RMSDP=4.83D-08 MaxDP=2.84D-06 DE=-1.18D-11 OVMax= 1.97D-06

 Cycle  20  Pass 1  IDiag  1:
 RMSU=  9.72D-09    CP:  5.42D-01  4.98D-01  9.00D-01  7.66D-01  8.59D-01
                    CP:  1.06D+00  1.21D+00  1.42D+00  1.41D+00  1.73D+00
                    CP:  1.37D+00  1.38D+00  1.73D+00  1.22D+00  1.66D+00
                    CP:  1.60D+00  1.62D+00  1.18D+00  1.32D+00
 E= -3010.53631244630     Delta-E=       -0.000000000020 Rises=F Damp=F
 DIIS: error= 1.36D-08 at cycle  20 NSaved=  20.
 NSaved=20 IEnMin=20 EnMin= -3010.53631244630     IErMin=20 ErrMin= 1.36D-08
 ErrMax= 1.36D-08  0.00D+00 EMaxC= 1.00D-01 BMatC= 5.17D-14 BMatP= 5.08D-13
 IDIUse=1 WtCom= 1.00D+00 WtEn= 0.00D+00
 Coeff-Com: -0.286D-08 0.114D-07-0.610D-08 0.555D-06-0.527D-06-0.729D-05
 Coeff-Com: -0.172D-04 0.992D-05 0.668D-04 0.129D-03-0.958D-04-0.559D-03
 Coeff-Com: -0.438D-03 0.263D-02 0.906D-02-0.274D-02-0.494D-01-0.612D-01
 Coeff-Com:  0.200D+00 0.903D+00
 Coeff:     -0.286D-08 0.114D-07-0.610D-08 0.555D-06-0.527D-06-0.729D-05
 Coeff:     -0.172D-04 0.992D-05 0.668D-04 0.129D-03-0.958D-04-0.559D-03
 Coeff:     -0.438D-03 0.263D-02 0.906D-02-0.274D-02-0.494D-01-0.612D-01
 Coeff:      0.200D+00 0.903D+00
 Gap=     0.229 Goal=   None    Shift=    0.000
 RMSDP=1.22D-08 MaxDP=5.36D-07 DE=-2.00D-11 OVMax= 4.11D-07

 Cycle  21  Pass 1  IDiag  1:
 Restarting incremental Fock formation.
 E= -3010.53631244628     Delta-E=        0.000000000026 Rises=F Damp=F
 DIIS: error= 6.31D-09 at cycle  21 NSaved=  20.
 NSaved=20 IEnMin=19 EnMin= -3010.53631244630     IErMin=20 ErrMin= 6.31D-09
 ErrMax= 6.31D-09  0.00D+00 EMaxC= 1.00D-01 BMatC= 7.13D-15 BMatP= 5.17D-14
 IDIUse=1 WtCom= 1.00D+00 WtEn= 0.00D+00
 Large coefficients: NSaved= 20 BigCof=    0.00 CofMax=   10.00 Det=-2.57D-14
 Inversion failed.  Reducing to 19 matrices.
 Coeff-Com:  0.371D-08-0.427D-07 0.190D-07 0.702D-06 0.908D-06-0.496D-05
 Coeff-Com: -0.132D-04-0.128D-04 0.746D-04 0.782D-04-0.347D-03-0.881D-03
 Coeff-Com: -0.108D-02 0.692D-02 0.141D-01-0.391D-01-0.115D+00 0.858D-01
 Coeff-Com:  0.105D+01
 Coeff:      0.371D-08-0.427D-07 0.190D-07 0.702D-06 0.908D-06-0.496D-05
 Coeff:     -0.132D-04-0.128D-04 0.746D-04 0.782D-04-0.347D-03-0.881D-03
 Coeff:     -0.108D-02 0.692D-02 0.141D-01-0.391D-01-0.115D+00 0.858D-01
 Coeff:      0.105D+01
 Gap=     0.229 Goal=   None    Shift=    0.000
 RMSDP=5.64D-09 MaxDP=2.23D-07 DE= 2.59D-11 OVMax= 2.26D-07

 SCF Done:  E(RwB97XD) =  -3010.53631245     A.U. after   21 cycles
            NFock= 21  Conv=0.56D-08     -V/T= 2.0016
 KE= 3.005858112260D+03 PE=-8.630749163452D+03 EE= 1.876603607251D+03
 Leave Link  502 at Wed May  1 14:48:28 2024, MaxMem=  1207959552 cpu:            1185.3 elap:            1185.7
 (Enter /software/gaussian/g16-c01/sse4/g16/l601.exe)
 Copying SCF densities to generalized density rwf, IOpCl= 0 IROHF=0.

 **********************************************************************

            Population analysis using the SCF Density.

 **********************************************************************

 Alpha  occ. eigenvalues -- -483.30630 -62.85667 -56.65344 -56.64794 -56.64792
 Alpha  occ. eigenvalues --  -19.41743 -19.41673 -14.81330 -10.57508 -10.55980
 Alpha  occ. eigenvalues --  -10.55750 -10.55252 -10.55075 -10.52053  -9.01482
 Alpha  occ. eigenvalues --   -6.84115  -6.82312  -6.82299  -2.94030  -2.93550
 Alpha  occ. eigenvalues --   -2.93538  -2.92095  -2.92095  -1.45515  -1.28442
 Alpha  occ. eigenvalues --   -1.21225  -1.12569  -1.10355  -1.03469  -0.98729
 Alpha  occ. eigenvalues --   -0.94127  -0.89249  -0.83249  -0.79004  -0.77849
 Alpha  occ. eigenvalues --   -0.77152  -0.75987  -0.74595  -0.72103  -0.70908
 Alpha  occ. eigenvalues --   -0.68170  -0.66169  -0.62318  -0.59011  -0.56034
 Alpha  occ. eigenvalues --   -0.54449  -0.52789  -0.51671  -0.51322
 Alpha virt. eigenvalues --   -0.28450  -0.18506  -0.14759  -0.11247  -0.09764
 Alpha virt. eigenvalues --   -0.06869  -0.05567  -0.05322  -0.03541  -0.02168
 Alpha virt. eigenvalues --   -0.01930  -0.01117  -0.00995  -0.00512   0.00275
 Alpha virt. eigenvalues --    0.01787   0.02249   0.02813   0.03529   0.03622
 Alpha virt. eigenvalues --    0.05209   0.06271   0.06645   0.07155   0.07977
 Alpha virt. eigenvalues --    0.08188   0.08945   0.09353   0.10326   0.10550
 Alpha virt. eigenvalues --    0.11470   0.12850   0.13075   0.13627   0.14126
 Alpha virt. eigenvalues --    0.14353   0.15878   0.17069   0.17718   0.18116
 Alpha virt. eigenvalues --    0.18332   0.19156   0.20227   0.20890   0.21212
 Alpha virt. eigenvalues --    0.21768   0.24003   0.25057   0.26004   0.27402
 Alpha virt. eigenvalues --    0.29283   0.30301   0.30796   0.31443   0.32826
 Alpha virt. eigenvalues --    0.34101   0.34894   0.37270   0.37849   0.38521
 Alpha virt. eigenvalues --    0.39091   0.40522   0.41448   0.41788   0.42756
 Alpha virt. eigenvalues --    0.44062   0.45558   0.46534   0.47849   0.49051
 Alpha virt. eigenvalues --    0.50321   0.51186   0.52581   0.52976   0.55171
 Alpha virt. eigenvalues --    0.56512   0.57239   0.58051   0.58548   0.61009
 Alpha virt. eigenvalues --    0.61939   0.63941   0.64923   0.67515   0.69518
 Alpha virt. eigenvalues --    0.71400   0.72788   0.74030   0.74688   0.75622
 Alpha virt. eigenvalues --    0.76579   0.81810   0.82104   0.84579   0.86721
 Alpha virt. eigenvalues --    0.87741   0.91011   0.94040   0.94983   1.01466
 Alpha virt. eigenvalues --    1.02821   1.04033   1.06447   1.07471   1.08355
 Alpha virt. eigenvalues --    1.11465   1.13848   1.15875   1.16522   1.18713
 Alpha virt. eigenvalues --    1.26204   1.26984   1.29401   1.34322   1.37970
 Alpha virt. eigenvalues --    1.38331   1.39335   1.46409   1.56146   1.58876
 Alpha virt. eigenvalues --    1.60640   1.60775   1.63010   1.65082   1.67575
 Alpha virt. eigenvalues --    1.71127   1.71683   1.74733   1.78604   1.80588
 Alpha virt. eigenvalues --    1.82094   1.87314   1.89355   1.94022   1.96286
 Alpha virt. eigenvalues --    1.99841   2.04860   2.06219   2.07938   2.09359
 Alpha virt. eigenvalues --    2.11088   2.16089   2.21852   2.25154   2.30500
 Alpha virt. eigenvalues --    2.39614   2.43558   2.44381   2.45600   2.53851
 Alpha virt. eigenvalues --    2.57947   2.64601   2.67627   2.69848   2.75216
 Alpha virt. eigenvalues --    2.76668   2.79808   2.80336   2.82953   2.85338
 Alpha virt. eigenvalues --    2.94689   2.97759   3.04585   3.06830   3.10784
 Alpha virt. eigenvalues --    3.14575   3.16620   3.20566   3.25681   3.27498
 Alpha virt. eigenvalues --    3.31596   3.41701   3.48833   3.53625   3.57023
 Alpha virt. eigenvalues --    3.60148   3.73865   3.78189   3.83585   3.88655
 Alpha virt. eigenvalues --    4.09385   4.09623   4.17216   4.22393   4.43248
 Alpha virt. eigenvalues --    4.48616   4.58802   4.63451   4.97514   5.00219
 Alpha virt. eigenvalues --    5.08848   5.13014   5.66934   6.20042   6.65115
 Alpha virt. eigenvalues --    7.48055   7.49633   7.59463  23.22574  23.62620
 Alpha virt. eigenvalues --   23.70439  23.80861  23.97235  24.02973  35.36619
 Alpha virt. eigenvalues --   47.91755  49.89702  49.98514 289.81097 289.82766
 Alpha virt. eigenvalues --  289.952191020.92196
          Condensed to atoms (all electrons):
               1          2          3          4          5          6
     1  C    9.390323  -2.628458   0.168728  -1.820014  -0.664982   0.309794
     2  C   -2.628458  13.153034  -1.837071  -2.237772   0.552732  -0.005312
     3  C    0.168728  -1.837071  13.511963  -3.696043  -1.243489   0.026301
     4  C   -1.820014  -2.237772  -3.696043  15.935228   1.225639   0.011037
     5  C   -0.664982   0.552732  -1.243489   1.225639   7.710096   0.002522
     6  H    0.309794  -0.005312   0.026301   0.011037   0.002522   0.351476
     7  H    0.083303   0.211236   0.074948  -0.034661  -0.018377  -0.001779
     8  H    0.007156  -0.014655   0.084634   0.216377  -0.027233  -0.000000
     9  H    0.045141  -0.026741   0.009075  -0.010921   0.287184  -0.002808
    10  N   -0.193434   0.380552  -0.933954   0.372177   0.003035  -0.000679
    11  O    0.006332  -0.106071  -0.263088   0.010076  -0.062912  -0.000027
    12  O    0.379580  -0.035010  -0.274128  -0.136059  -0.043495   0.000051
    13  C    1.463803  -1.916199   1.040524  -4.104567  -1.752150  -0.007956
    14  H   -0.020743   0.007784  -0.002650  -0.076827   0.021724  -0.000044
    15  Br   0.028846   0.018758   0.022373   0.031852   0.026020  -0.000357
               7          8          9         10         11         12
     1  C    0.083303   0.007156   0.045141  -0.193434   0.006332   0.379580
     2  C    0.211236  -0.014655  -0.026741   0.380552  -0.106071  -0.035010
     3  C    0.074948   0.084634   0.009075  -0.933954  -0.263088  -0.274128
     4  C   -0.034661   0.216377  -0.010921   0.372177   0.010076  -0.136059
     5  C   -0.018377  -0.027233   0.287184   0.003035  -0.062912  -0.043495
     6  H   -0.001779  -0.000000  -0.002808  -0.000679  -0.000027   0.000051
     7  H    0.289250  -0.000003   0.000020  -0.026160  -0.001522   0.026848
     8  H   -0.000003   0.282438   0.000097  -0.024363   0.026616  -0.000812
     9  H    0.000020   0.000097   0.361760   0.000330   0.000010   0.000008
    10  N   -0.026160  -0.024363   0.000330   7.506128   0.128305   0.093139
    11  O   -0.001522   0.026616   0.000010   0.128305   7.837243   0.010111
    12  O    0.026848  -0.000812   0.000008   0.093139   0.010111   7.874521
    13  C    0.017060   0.063204   0.026738  -0.201230   0.349203   0.039999
    14  H   -0.000022  -0.003464  -0.006413   0.000551  -0.000355  -0.000076
    15  Br   0.000012   0.005011   0.001253   0.006665  -0.000035   0.002091
              13         14         15
     1  C    1.463803  -0.020743   0.028846
     2  C   -1.916199   0.007784   0.018758
     3  C    1.040524  -0.002650   0.022373
     4  C   -4.104567  -0.076827   0.031852
     5  C   -1.752150   0.021724   0.026020
     6  H   -0.007956  -0.000044  -0.000357
     7  H    0.017060  -0.000022   0.000012
     8  H    0.063204  -0.003464   0.005011
     9  H    0.026738  -0.006413   0.001253
    10  N   -0.201230   0.000551   0.006665
    11  O    0.349203  -0.000355  -0.000035
    12  O    0.039999  -0.000076   0.002091
    13  C   11.055580   0.378693   0.026924
    14  H    0.378693   0.355346  -0.044897
    15  Br   0.026924  -0.044897  34.741281
 Mulliken charges:
               1
     1  C   -0.555376
     2  C    0.483193
     3  C   -0.688122
     4  C    0.314479
     5  C   -0.016315
     6  H    0.317779
     7  H    0.379846
     8  H    0.384997
     9  H    0.315270
    10  N   -0.111062
    11  O    0.066114
    12  O    0.063233
    13  C   -0.479628
    14  H    0.391391
    15  Br   0.134202
 Sum of Mulliken charges =   1.00000
 Mulliken charges with hydrogens summed into heavy atoms:
               1
     1  C   -0.237597
     2  C    0.863038
     3  C   -0.688122
     4  C    0.699477
     5  C    0.298955
    10  N   -0.111062
    11  O    0.066114
    12  O    0.063233
    13  C   -0.088237
    15  Br   0.134202
 Electronic spatial extent (au):  <R**2>=           2795.0577
 Charge=              1.0000 electrons
 Dipole moment (field-independent basis, Debye):
    X=              1.4713    Y=             -0.3303    Z=              0.1650  Tot=              1.5169
 Quadrupole moment (field-independent basis, Debye-Ang):
   XX=            -65.9498   YY=            -52.2496   ZZ=            -63.1955
   XY=              0.9152   XZ=              0.5188   YZ=              1.1359
 Traceless Quadrupole moment (field-independent basis, Debye-Ang):
   XX=             -5.4848   YY=              8.2154   ZZ=             -2.7305
   XY=              0.9152   XZ=              0.5188   YZ=              1.1359
 Octapole moment (field-independent basis, Debye-Ang**2):
  XXX=           -268.1380  YYY=             89.4851  ZZZ=             78.7549  XYY=            -70.7319
  XXY=             31.1170  XXZ=             32.4423  XZZ=            -75.6165  YZZ=             17.5296
  YYZ=             26.5433  XYZ=             -2.2895
 Hexadecapole moment (field-independent basis, Debye-Ang**3):
 XXXX=          -2146.6000 YYYY=           -681.0498 ZZZZ=           -351.9543 XXXY=            -68.7626
 XXXZ=            -25.4549 YYYX=            -62.2837 YYYZ=           -158.7628 ZZZX=            -21.2741
 ZZZY=           -138.6194 XXYY=           -446.2995 XXZZ=           -368.7124 YYZZ=           -166.1658
 XXYZ=            -56.0260 YYXZ=             -4.6703 ZZXY=            -10.7759
 N-N= 7.377511314950D+02 E-N=-8.630749164005D+03  KE= 3.005858112260D+03
 No NMR shielding tensors so no spin-rotation constants.
 Leave Link  601 at Wed May  1 14:48:36 2024, MaxMem=  1207959552 cpu:               7.2 elap:               7.3
 (Enter /software/gaussian/g16-c01/sse4/g16/l9999.exe)
 Unable to Open any file for archive entry.
 1\1\GINC-BHX0012\SP\RwB97XD\6-311+G(d)\C6H5Br1N1O2(1+)\BWEIGHT\01-May-
 2024\0\\#P wB97XD/6-311+G* NoSymm #P Field=X-77\\TitleMe\\1,1\C,0,0.02
 95,1.3397,0.0682\C,0,1.4348,1.2867,0.0064\C,0,2.1118,0.0511,-0.0054\C,
 0,1.4451,-1.1372,0.0312\C,0,-0.6879,0.1682,0.11\H,0,-0.4713,2.2984,0.0
 781\H,0,2.0273,2.1965,-0.0322\H,0,1.9897,-2.0764,0.0232\H,0,-1.7716,0.
 1804,0.1582\N,0,3.5864,0.051,-0.0675\O,0,4.1471,-1.0597,-0.0881\O,0,4.
 145,1.1639,-0.0901\C,0,-0.0236,-1.1458,0.0835\H,0,-0.4367,-1.8725,0.78
 89\Br,0,-0.5359,-1.8697,-1.7408\\Version=ES64L-G16RevC.01\HF=-3010.536
 3124\RMSD=5.639e-09\Dipole=-1.3276791,1.0181333,1.2111089\Quadrupole=-
 4.0778475,6.1079292,-2.0300817,0.6804455,0.3856974,0.8445456\PG=C01 [X
 (C6H5Br1N1O2)]\\@
 The archive entry for this job was punched.


 TELEVISION IS CALLED A MEDIUM BECAUSE IT ISN'T
 RARE, AND IT ISN'T WELL DONE.
 Job cpu time:       0 days  0 hours 20 minutes 53.1 seconds.
 Elapsed time:       0 days  0 hours 20 minutes 53.4 seconds.
 File lengths (MBytes):  RWF=     40 Int=      0 D2E=      0 Chk=     32 Scr=      1
 Normal termination of Gaussian 16 at Wed May  1 14:48:37 2024.
