 Entering Gaussian System, Link 0=g16
 Initial command:
 /software/gaussian/g16-c01/sse4/g16/l1.exe "/local_scratch/24657502/Gau-10892.inp" -scrdir="/local_scratch/24657502/"
 Entering Link 1 = /software/gaussian/g16-c01/sse4/g16/l1.exe PID=     10897.
  
 Copyright (c) 1988-2019, Gaussian, Inc.  All Rights Reserved.
  
 This is part of the Gaussian(R) 16 program.  It is based on
 the Gaussian(R) 09 system (copyright 2009, Gaussian, Inc.),
 the Gaussian(R) 03 system (copyright 2003, Gaussian, Inc.),
 the Gaussian(R) 98 system (copyright 1998, Gaussian, Inc.),
 the Gaussian(R) 94 system (copyright 1995, Gaussian, Inc.),
 the Gaussian 92(TM) system (copyright 1992, Gaussian, Inc.),
 the Gaussian 90(TM) system (copyright 1990, Gaussian, Inc.),
 the Gaussian 88(TM) system (copyright 1988, Gaussian, Inc.),
 the Gaussian 86(TM) system (copyright 1986, Carnegie Mellon
 University), and the Gaussian 82(TM) system (copyright 1983,
 Carnegie Mellon University). Gaussian is a federally registered
 trademark of Gaussian, Inc.
  
 This software contains proprietary and confidential information,
 including trade secrets, belonging to Gaussian, Inc.
  
 This software is provided under written license and may be
 used, copied, transmitted, or stored only in accord with that
 written license.
  
 The following legend is applicable only to US Government
 contracts under FAR:
  
                    RESTRICTED RIGHTS LEGEND
  
 Use, reproduction and disclosure by the US Government is
 subject to restrictions as set forth in subparagraphs (a)
 and (c) of the Commercial Computer Software - Restricted
 Rights clause in FAR 52.227-19.
  
 Gaussian, Inc.
 340 Quinnipiac St., Bldg. 40, Wallingford CT 06492
  
  
 ---------------------------------------------------------------
 Warning -- This program may not be used in any manner that
 competes with the business of Gaussian, Inc. or will provide
 assistance to any competitor of Gaussian, Inc.  The licensee
 of this program is prohibited from giving any competitor of
 Gaussian, Inc. access to this program.  By using this program,
 the user acknowledges that Gaussian, Inc. is engaged in the
 business of creating and licensing software in the field of
 computational chemistry and represents and warrants to the
 licensee that it is not a competitor of Gaussian, Inc. and that
 it will not use this program in any manner prohibited above.
 ---------------------------------------------------------------
  

 Cite this work as:
 Gaussian 16, Revision C.01,
 M. J. Frisch, G. W. Trucks, H. B. Schlegel, G. E. Scuseria, 
 M. A. Robb, J. R. Cheeseman, G. Scalmani, V. Barone, 
 G. A. Petersson, H. Nakatsuji, X. Li, M. Caricato, A. V. Marenich, 
 J. Bloino, B. G. Janesko, R. Gomperts, B. Mennucci, H. P. Hratchian, 
 J. V. Ortiz, A. F. Izmaylov, J. L. Sonnenberg, D. Williams-Young, 
 F. Ding, F. Lipparini, F. Egidi, J. Goings, B. Peng, A. Petrone, 
 T. Henderson, D. Ranasinghe, V. G. Zakrzewski, J. Gao, N. Rega, 
 G. Zheng, W. Liang, M. Hada, M. Ehara, K. Toyota, R. Fukuda, 
 J. Hasegawa, M. Ishida, T. Nakajima, Y. Honda, O. Kitao, H. Nakai, 
 T. Vreven, K. Throssell, J. A. Montgomery, Jr., J. E. Peralta, 
 F. Ogliaro, M. J. Bearpark, J. J. Heyd, E. N. Brothers, K. N. Kudin, 
 V. N. Staroverov, T. A. Keith, R. Kobayashi, J. Normand, 
 K. Raghavachari, A. P. Rendell, J. C. Burant, S. S. Iyengar, 
 J. Tomasi, M. Cossi, J. M. Millam, M. Klene, C. Adamo, R. Cammi, 
 J. W. Ochterski, R. L. Martin, K. Morokuma, O. Farkas, 
 J. B. Foresman, and D. J. Fox, Gaussian, Inc., Wallingford CT, 2019.
 
 ******************************************
 Gaussian 16:  ES64L-G16RevC.01  3-Jul-2019
                 1-May-2024 
 ******************************************
 %chk=geometry.chk
 %mem=9GB
 %nprocshared=12
 Will use up to   12 processors via shared memory.
 --------------------------------------
 #P wB97XD/6-311+G* NoSymm #P Field=Y+9
 --------------------------------------
 1/38=1,172=1/1;
 2/12=2,15=1,17=6,18=5,40=1/2;
 3/5=4,6=6,7=11,11=2,14=2,15=9,25=1,30=1,74=-58/1,2,3;
 4//1;
 5/5=2,38=5/2;
 6/7=2,8=2,9=2,10=2,28=1/1;
 99/5=1,9=1/99;
 Leave Link    1 at Wed May  1 14:47:55 2024, MaxMem=  1207959552 cpu:               2.3 elap:               2.3
 (Enter /software/gaussian/g16-c01/sse4/g16/l101.exe)
 -------
 TitleMe
 -------
 Symbolic Z-matrix:
 Charge =  1 Multiplicity = 1
 C                     0.0295    1.3397    0.0682 
 C                     1.4348    1.2867    0.0064 
 C                     2.1118    0.0511   -0.0054 
 C                     1.4451   -1.1372    0.0312 
 C                    -0.6879    0.1682    0.11 
 H                    -0.4713    2.2984    0.0781 
 H                     2.0273    2.1965   -0.0322 
 H                     1.9897   -2.0764    0.0232 
 H                    -1.7716    0.1804    0.1582 
 N                     3.5864    0.051    -0.0675 
 O                     4.1471   -1.0597   -0.0881 
 O                     4.145     1.1639   -0.0901 
 C                    -0.0236   -1.1458    0.0835 
 H                    -0.4367   -1.8725    0.7889 
 Br                   -0.5359   -1.8697   -1.7408 
 
 ITRead=  0  0  0  0  0  0  0  0  0  0  0  0  0  0  0
 MicOpt= -1 -1 -1 -1 -1 -1 -1 -1 -1 -1 -1 -1 -1 -1 -1
 NAtoms=     15 NQM=       15 NQMF=       0 NMMI=      0 NMMIF=      0
                NMic=       0 NMicF=      0.
                    Isotopes and Nuclear Properties:
 (Nuclear quadrupole moments (NQMom) in fm**2, nuclear magnetic moments (NMagM)
  in nuclear magnetons)

  Atom         1           2           3           4           5           6           7           8           9          10
 IAtWgt=          12          12          12          12          12           1           1           1           1          14
 AtmWgt=  12.0000000  12.0000000  12.0000000  12.0000000  12.0000000   1.0078250   1.0078250   1.0078250   1.0078250  14.0030740
 NucSpn=           0           0           0           0           0           1           1           1           1           2
 AtZEff=  -0.0000000  -0.0000000  -0.0000000  -0.0000000  -0.0000000  -0.0000000  -0.0000000  -0.0000000  -0.0000000  -0.0000000
 NQMom=    0.0000000   0.0000000   0.0000000   0.0000000   0.0000000   0.0000000   0.0000000   0.0000000   0.0000000   2.0440000
 NMagM=    0.0000000   0.0000000   0.0000000   0.0000000   0.0000000   2.7928460   2.7928460   2.7928460   2.7928460   0.4037610
 AtZNuc=   6.0000000   6.0000000   6.0000000   6.0000000   6.0000000   1.0000000   1.0000000   1.0000000   1.0000000   7.0000000

  Atom        11          12          13          14          15
 IAtWgt=          16          16          12           1          79
 AtmWgt=  15.9949146  15.9949146  12.0000000   1.0078250  78.9183361
 NucSpn=           0           0           0           1           3
 AtZEff=  -0.0000000  -0.0000000  -0.0000000  -0.0000000  -0.0000000
 NQMom=    0.0000000   0.0000000   0.0000000   0.0000000  31.3000000
 NMagM=    0.0000000   0.0000000   0.0000000   2.7928460   2.1063990
 AtZNuc=   8.0000000   8.0000000   6.0000000   1.0000000  35.0000000
 Leave Link  101 at Wed May  1 14:47:57 2024, MaxMem=  1207959552 cpu:               1.5 elap:               1.5
 (Enter /software/gaussian/g16-c01/sse4/g16/l202.exe)
                          Input orientation:                          
 ---------------------------------------------------------------------
 Center     Atomic      Atomic             Coordinates (Angstroms)
 Number     Number       Type             X           Y           Z
 ---------------------------------------------------------------------
      1          6           0        0.029500    1.339700    0.068200
      2          6           0        1.434800    1.286700    0.006400
      3          6           0        2.111800    0.051100   -0.005400
      4          6           0        1.445100   -1.137200    0.031200
      5          6           0       -0.687900    0.168200    0.110000
      6          1           0       -0.471300    2.298400    0.078100
      7          1           0        2.027300    2.196500   -0.032200
      8          1           0        1.989700   -2.076400    0.023200
      9          1           0       -1.771600    0.180400    0.158200
     10          7           0        3.586400    0.051000   -0.067500
     11          8           0        4.147100   -1.059700   -0.088100
     12          8           0        4.145000    1.163900   -0.090100
     13          6           0       -0.023600   -1.145800    0.083500
     14          1           0       -0.436700   -1.872500    0.788900
     15         35           0       -0.535900   -1.869700   -1.740800
 ---------------------------------------------------------------------
                    Distance matrix (angstroms):
                    1          2          3          4          5
     1  C    0.000000
     2  C    1.407656   0.000000
     3  C    2.449874   1.408963   0.000000
     4  C    2.853126   2.424049   1.363043   0.000000
     5  C    1.374344   2.401589   2.804523   2.501993   0.000000
     6  H    1.081667   2.159142   3.424870   3.934226   2.141421
     7  H    2.176095   1.086408   2.147231   3.384750   3.392128
     8  H    3.938800   3.408612   2.131193   1.085702   3.495040
     9  H    2.143837   3.395283   3.888995   3.478413   1.084840
    10  N    3.785591   2.482297   1.475907   2.450862   4.279589
    11  O    4.768247   3.587631   2.320164   2.705743   4.992415
    12  O    4.122294   2.714696   2.319353   3.549540   4.938459
    13  C    2.486114   2.837240   2.449573   1.469656   1.472614
    14  H    3.324903   3.754379   3.290289   2.157764   2.165286
    15  Br   3.727252   4.110867   3.702891   2.756973   2.757100
                    6          7          8          9         10
     6  H    0.000000
     7  H    2.503108   0.000000
     8  H    5.019802   4.273425   0.000000
     9  H    2.486588   4.304945   4.388479   0.000000
    10  N    4.640790   2.652397   2.661486   5.364313   0.000000
    11  O    5.712624   3.885809   2.387560   6.052233   1.244373
    12  O    4.756638   2.356750   3.893289   6.002923   1.245428
    13  C    3.473180   3.923079   2.218790   2.195425   3.806210
    14  H    4.231175   4.827242   2.552506   2.528663   4.540772
    15  Br   4.548146   5.101303   3.087568   3.055498   4.845862
                   11         12         13         14         15
    11  O    0.000000
    12  O    2.223602   0.000000
    13  C    4.175117   4.768865   0.000000
    14  H    4.737193   5.566358   1.093770   0.000000
    15  Br   5.031700   5.817075   2.028436   2.531646   0.000000
 Symmetry turned off by external request.
 Stoichiometry    C6H5BrNO2(1+)
 Framework group  C1[X(C6H5BrNO2)]
 Deg. of freedom    39
 Full point group                 C1      NOp   1
 Rotational constants (GHZ):           1.8252210           0.5518633           0.4576002
 Leave Link  202 at Wed May  1 14:47:58 2024, MaxMem=  1207959552 cpu:               1.2 elap:               1.2
 (Enter /software/gaussian/g16-c01/sse4/g16/l301.exe)
 Standard basis: 6-311+G(d) (5D, 7F)
 Ernie: Thresh=  0.10000D-02 Tol=  0.10000D-05 Strict=F.
 The following finite field(s) will be applied:
 An electric field of              0.0000  0.0009  0.0000
   261 basis functions,   443 primitive gaussians,   273 cartesian basis functions
    49 alpha electrons       49 beta electrons
       nuclear repulsion energy       739.2122215416 Hartrees.
 IExCor= 4639 DFT=T Ex+Corr=wB97XD ExCW=0 ScaHFX=  1.000000
 ScaDFX=  1.000000  1.000000  1.000000  1.000000 ScalE2=  1.000000  1.000000
 IRadAn=      5 IRanWt=     -1 IRanGd=            0 ICorTp=0 IEmpDi=121
 HFx  wShort=  0.000000 wLong=  0.200000 cFull=  0.222036 cShort=  0.000000 cLong=  0.777964
 DFx  wShort=  0.000000 wLong=  0.200000 cFull=  0.000000 cShort=  0.000000 cLong=  1.000000
 NAtoms=   15 NActive=   15 NUniq=   15 SFac= 1.00D+00 NAtFMM=   60 NAOKFM=F Big=F
 Integral buffers will be    131072 words long.
 Raffenetti 2 integral format.
 Two-electron integral symmetry is turned off.
 R6Disp:  Grimme-D2 Dispersion energy=       -0.0077368520 Hartrees.
 Nuclear repulsion after empirical dispersion term =      739.2044846896 Hartrees.
 Leave Link  301 at Wed May  1 14:47:59 2024, MaxMem=  1207959552 cpu:               1.0 elap:               1.0
 (Enter /software/gaussian/g16-c01/sse4/g16/l302.exe)
 NPDir=0 NMtPBC=     1 NCelOv=     1 NCel=       1 NClECP=     1 NCelD=      1
         NCelK=      1 NCelE2=     1 NClLst=     1 CellRange=     0.0.
 One-electron integrals computed using PRISM.
 NBasis=   261 RedAO= T EigKep=  2.35D-06  NBF=   261
 NBsUse=   261 1.00D-06 EigRej= -1.00D+00 NBFU=   261
 Precomputing XC quadrature grid using
 IXCGrd= 4 IRadAn=           5 IRanWt=          -1 IRanGd=           0 AccXCQ= 0.00D+00.
 Generated NRdTot=       0 NPtTot=           0 NUsed=           0 NTot=          32
 NSgBfM=   273   273   273   273   273 MxSgAt=    15 MxSgA2=    15.
 Leave Link  302 at Wed May  1 14:48:21 2024, MaxMem=  1207959552 cpu:              21.7 elap:              21.7
 (Enter /software/gaussian/g16-c01/sse4/g16/l303.exe)
 DipDrv:  MaxL=1.
 The nuclear repulsion energy is now       739.1021906586 hartrees.
 Leave Link  303 at Wed May  1 14:48:24 2024, MaxMem=  1207959552 cpu:               3.3 elap:               3.3
 (Enter /software/gaussian/g16-c01/sse4/g16/l401.exe)
 ExpMin= 3.50D-02 ExpMax= 4.40D+05 ExpMxC= 1.51D+04 IAcc=3 IRadAn=         5 AccDes= 0.00D+00
 Harris functional with IExCor= 4639 and IRadAn=       5 diagonalized for initial guess.
 HarFok:  IExCor= 4639 AccDes= 0.00D+00 IRadAn=         5 IDoV= 1 UseB2=F ITyADJ=14
 ICtDFT=  3500011 ScaDFX=  1.000000  1.000000  1.000000  1.000000
 FoFCou: FMM=F IPFlag=           0 FMFlag=      100000 FMFlg1=           0
         NFxFlg=           0 DoJE=T BraDBF=F KetDBF=T FulRan=T
         wScrn=  0.000000 ICntrl=       500 IOpCl=  0 I1Cent=   200000004 NGrid=           0
         NMat0=    1 NMatS0=      1 NMatT0=    0 NMatD0=    1 NMtDS0=    0 NMtDT0=    0
 Symmetry not used in FoFCou.
 Harris En= -2970.59619409418    
 JPrj=0 DoOrth=F DoCkMO=F.
 Leave Link  401 at Wed May  1 14:48:55 2024, MaxMem=  1207959552 cpu:              31.0 elap:              31.0
 (Enter /software/gaussian/g16-c01/sse4/g16/l502.exe)
 Two-electron integral symmetry not used.
 Closed shell SCF:
 Using DIIS extrapolation, IDIIS=  1040.
 NGot=  1207959552 LenX=  1207804877 LenY=  1207729907
 Requested convergence on RMS density matrix=1.00D-08 within 128 cycles.
 Requested convergence on MAX density matrix=1.00D-06.
 Requested convergence on             energy=1.00D-06.
 No special actions if energy rises.
 Fock matrices will be formed incrementally for  20 cycles.

 Cycle   1  Pass 1  IDiag  1:
 FoFJK:  IHMeth= 1 ICntrl=       0 DoSepK=T KAlg= 0 I1Cent=           0 FoldK=F
 IRaf=         1 NMat=       1 IRICut=       1 DoRegI=T DoRafI=F ISym2E= 0 IDoP0=0 IntGTp=1.
 FoFCou: FMM=F IPFlag=           0 FMFlag=      100000 FMFlg1=           0
         NFxFlg=           0 DoJE=T BraDBF=F KetDBF=F FulRan=T
         wScrn=  0.000000 ICntrl=       500 IOpCl=  0 I1Cent=           0 NGrid=           0
         NMat0=    1 NMatS0=      1 NMatT0=    0 NMatD0=    1 NMtDS0=    0 NMtDT0=    0
 Symmetry not used in FoFCou.
 E= -3009.72570313054    
 DIIS: error= 3.20D-01 at cycle   1 NSaved=   1.
 NSaved= 1 IEnMin= 1 EnMin= -3009.72570313054     IErMin= 1 ErrMin= 3.20D-01
 ErrMax= 3.20D-01  0.00D+00 EMaxC= 1.00D-01 BMatC= 1.19D+01 BMatP= 1.19D+01
 IDIUse=3 WtCom= 0.00D+00 WtEn= 1.00D+00
 Coeff-Com:  0.100D+01
 Coeff-En:   0.100D+01
 Coeff:      0.100D+01
 Gap=     0.324 Goal=   None    Shift=    0.000
 GapD=    0.324 DampG=1.000 DampE=0.250 DampFc=0.2500 IDamp=-1.
 Damping current iteration by 2.50D-01
 RMSDP=4.01D-02 MaxDP=4.04D+00              OVMax= 2.55D-01

 Cycle   2  Pass 1  IDiag  1:
 RMSU=  3.96D-03    CP:  8.97D-01
 E= -3010.00834935193     Delta-E=       -0.282646221391 Rises=F Damp=T
 DIIS: error= 2.25D-01 at cycle   2 NSaved=   2.
 NSaved= 2 IEnMin= 2 EnMin= -3010.00834935193     IErMin= 2 ErrMin= 2.25D-01
 ErrMax= 2.25D-01  0.00D+00 EMaxC= 1.00D-01 BMatC= 5.45D+00 BMatP= 1.19D+01
 IDIUse=3 WtCom= 0.00D+00 WtEn= 1.00D+00
 Coeff-Com: -0.184D+01 0.284D+01
 Coeff-En:   0.000D+00 0.100D+01
 Coeff:      0.000D+00 0.100D+01
 Gap=     0.295 Goal=   None    Shift=    0.000
 RMSDP=3.14D-02 MaxDP=3.16D+00 DE=-2.83D-01 OVMax= 7.49D-02

 Cycle   3  Pass 1  IDiag  1:
 RMSU=  4.20D-03    CP:  5.67D-01  3.00D+00
 E= -3010.38644786609     Delta-E=       -0.378098514151 Rises=F Damp=F
 DIIS: error= 6.56D-02 at cycle   3 NSaved=   3.
 NSaved= 3 IEnMin= 3 EnMin= -3010.38644786609     IErMin= 3 ErrMin= 6.56D-02
 ErrMax= 6.56D-02  0.00D+00 EMaxC= 1.00D-01 BMatC= 7.31D-01 BMatP= 5.45D+00
 IDIUse=3 WtCom= 3.44D-01 WtEn= 6.56D-01
 Coeff-Com:  0.277D+01-0.364D+01 0.187D+01
 Coeff-En:   0.254D-01 0.000D+00 0.975D+00
 Coeff:      0.970D+00-0.125D+01 0.128D+01
 Gap=     0.262 Goal=   None    Shift=    0.000
 RMSDP=8.17D-03 MaxDP=4.40D-01 DE=-3.78D-01 OVMax= 6.53D-02

 Cycle   4  Pass 1  IDiag  1:
 RMSU=  4.51D-03    CP:  5.84D-01  2.14D+00  2.10D+00
 E= -3010.48968779695     Delta-E=       -0.103239930866 Rises=F Damp=F
 DIIS: error= 3.82D-02 at cycle   4 NSaved=   4.
 NSaved= 4 IEnMin= 4 EnMin= -3010.48968779695     IErMin= 4 ErrMin= 3.82D-02
 ErrMax= 3.82D-02  0.00D+00 EMaxC= 1.00D-01 BMatC= 2.29D-01 BMatP= 7.31D-01
 IDIUse=3 WtCom= 6.18D-01 WtEn= 3.82D-01
 Coeff-Com: -0.187D+00 0.263D+00 0.269D+00 0.656D+00
 Coeff-En:   0.000D+00 0.000D+00 0.195D+00 0.805D+00
 Coeff:     -0.116D+00 0.162D+00 0.240D+00 0.713D+00
 Gap=     0.264 Goal=   None    Shift=    0.000
 RMSDP=3.37D-03 MaxDP=2.82D-01 DE=-1.03D-01 OVMax= 2.76D-02

 Cycle   5  Pass 1  IDiag  1:
 RMSU=  1.16D-03    CP:  5.55D-01  2.55D+00  1.93D+00  8.91D-01
 E= -3010.53400116395     Delta-E=       -0.044313366993 Rises=F Damp=F
 DIIS: error= 6.83D-03 at cycle   5 NSaved=   5.
 NSaved= 5 IEnMin= 5 EnMin= -3010.53400116395     IErMin= 5 ErrMin= 6.83D-03
 ErrMax= 6.83D-03  0.00D+00 EMaxC= 1.00D-01 BMatC= 7.30D-03 BMatP= 2.29D-01
 IDIUse=3 WtCom= 9.32D-01 WtEn= 6.83D-02
 Coeff-Com: -0.137D+00 0.185D+00 0.379D-01 0.316D+00 0.598D+00
 Coeff-En:   0.000D+00 0.000D+00 0.000D+00 0.000D+00 0.100D+01
 Coeff:     -0.127D+00 0.173D+00 0.354D-01 0.294D+00 0.625D+00
 Gap=     0.255 Goal=   None    Shift=    0.000
 RMSDP=5.16D-04 MaxDP=2.69D-02 DE=-4.43D-02 OVMax= 9.29D-03

 Cycle   6  Pass 1  IDiag  1:
 RMSU=  4.04D-04    CP:  5.54D-01  2.52D+00  1.95D+00  8.85D-01  7.61D-01
 E= -3010.53547599831     Delta-E=       -0.001474834360 Rises=F Damp=F
 DIIS: error= 1.09D-03 at cycle   6 NSaved=   6.
 NSaved= 6 IEnMin= 6 EnMin= -3010.53547599831     IErMin= 6 ErrMin= 1.09D-03
 ErrMax= 1.09D-03  0.00D+00 EMaxC= 1.00D-01 BMatC= 1.35D-04 BMatP= 7.30D-03
 IDIUse=3 WtCom= 9.89D-01 WtEn= 1.09D-02
 Coeff-Com: -0.847D-01 0.114D+00-0.629D-02 0.137D+00 0.345D+00 0.495D+00
 Coeff-En:   0.000D+00 0.000D+00 0.000D+00 0.000D+00 0.000D+00 0.100D+01
 Coeff:     -0.837D-01 0.113D+00-0.622D-02 0.136D+00 0.342D+00 0.500D+00
 Gap=     0.255 Goal=   None    Shift=    0.000
 RMSDP=1.41D-04 MaxDP=8.22D-03 DE=-1.47D-03 OVMax= 4.03D-03

 Cycle   7  Pass 1  IDiag  1:
 RMSU=  1.00D-04    CP:  5.54D-01  2.51D+00  1.95D+00  8.91D-01  8.29D-01
                    CP:  9.18D-01
 E= -3010.53556941803     Delta-E=       -0.000093419725 Rises=F Damp=F
 DIIS: error= 4.91D-04 at cycle   7 NSaved=   7.
 NSaved= 7 IEnMin= 7 EnMin= -3010.53556941803     IErMin= 7 ErrMin= 4.91D-04
 ErrMax= 4.91D-04  0.00D+00 EMaxC= 1.00D-01 BMatC= 2.37D-05 BMatP= 1.35D-04
 IDIUse=3 WtCom= 9.95D-01 WtEn= 4.91D-03
 Coeff-Com: -0.353D-01 0.471D-01-0.130D-01 0.344D-01 0.106D+00 0.308D+00
 Coeff-Com:  0.553D+00
 Coeff-En:   0.000D+00 0.000D+00 0.000D+00 0.000D+00 0.000D+00 0.315D-01
 Coeff-En:   0.969D+00
 Coeff:     -0.352D-01 0.468D-01-0.130D-01 0.342D-01 0.105D+00 0.307D+00
 Coeff:      0.555D+00
 Gap=     0.256 Goal=   None    Shift=    0.000
 RMSDP=9.56D-05 MaxDP=7.28D-03 DE=-9.34D-05 OVMax= 2.33D-03

 Cycle   8  Pass 1  IDiag  1:
 RMSU=  5.40D-05    CP:  5.54D-01  2.50D+00  1.96D+00  8.97D-01  8.64D-01
                    CP:  9.61D-01  8.40D-01
 E= -3010.53559057882     Delta-E=       -0.000021160789 Rises=F Damp=F
 DIIS: error= 1.07D-04 at cycle   8 NSaved=   8.
 NSaved= 8 IEnMin= 8 EnMin= -3010.53559057882     IErMin= 8 ErrMin= 1.07D-04
 ErrMax= 1.07D-04  0.00D+00 EMaxC= 1.00D-01 BMatC= 2.43D-06 BMatP= 2.37D-05
 IDIUse=3 WtCom= 9.99D-01 WtEn= 1.07D-03
 Coeff-Com:  0.623D-02-0.853D-02-0.288D-02-0.161D-01-0.410D-01-0.236D-01
 Coeff-Com:  0.183D+00 0.903D+00
 Coeff-En:   0.000D+00 0.000D+00 0.000D+00 0.000D+00 0.000D+00 0.000D+00
 Coeff-En:   0.000D+00 0.100D+01
 Coeff:      0.622D-02-0.852D-02-0.287D-02-0.161D-01-0.410D-01-0.235D-01
 Coeff:      0.183D+00 0.903D+00
 Gap=     0.256 Goal=   None    Shift=    0.000
 RMSDP=5.77D-05 MaxDP=5.10D-03 DE=-2.12D-05 OVMax= 1.84D-03

 Cycle   9  Pass 1  IDiag  1:
 RMSU=  2.33D-05    CP:  5.54D-01  2.50D+00  1.96D+00  8.98D-01  8.69D-01
                    CP:  1.05D+00  1.10D+00  1.17D+00
 E= -3010.53559566260     Delta-E=       -0.000005083783 Rises=F Damp=F
 DIIS: error= 4.58D-05 at cycle   9 NSaved=   9.
 NSaved= 9 IEnMin= 9 EnMin= -3010.53559566260     IErMin= 9 ErrMin= 4.58D-05
 ErrMax= 4.58D-05  0.00D+00 EMaxC= 1.00D-01 BMatC= 2.42D-07 BMatP= 2.43D-06
 IDIUse=1 WtCom= 1.00D+00 WtEn= 0.00D+00
 Coeff-Com:  0.659D-02-0.885D-02 0.807D-03-0.967D-02-0.252D-01-0.496D-01
 Coeff-Com: -0.313D-01 0.278D+00 0.839D+00
 Coeff:      0.659D-02-0.885D-02 0.807D-03-0.967D-02-0.252D-01-0.496D-01
 Coeff:     -0.313D-01 0.278D+00 0.839D+00
 Gap=     0.256 Goal=   None    Shift=    0.000
 RMSDP=1.68D-05 MaxDP=9.64D-04 DE=-5.08D-06 OVMax= 8.16D-04

 Cycle  10  Pass 1  IDiag  1:
 RMSU=  7.06D-06    CP:  5.54D-01  2.50D+00  1.96D+00  8.98D-01  8.73D-01
                    CP:  1.07D+00  1.14D+00  1.29D+00  1.08D+00
 E= -3010.53559645726     Delta-E=       -0.000000794654 Rises=F Damp=F
 DIIS: error= 1.59D-05 at cycle  10 NSaved=  10.
 NSaved=10 IEnMin=10 EnMin= -3010.53559645726     IErMin=10 ErrMin= 1.59D-05
 ErrMax= 1.59D-05  0.00D+00 EMaxC= 1.00D-01 BMatC= 5.30D-08 BMatP= 2.42D-07
 IDIUse=1 WtCom= 1.00D+00 WtEn= 0.00D+00
 Coeff-Com:  0.423D-03-0.543D-03 0.353D-03-0.241D-03 0.104D-02-0.657D-02
 Coeff-Com: -0.351D-01-0.519D-01 0.237D+00 0.855D+00
 Coeff:      0.423D-03-0.543D-03 0.353D-03-0.241D-03 0.104D-02-0.657D-02
 Coeff:     -0.351D-01-0.519D-01 0.237D+00 0.855D+00
 Gap=     0.256 Goal=   None    Shift=    0.000
 RMSDP=8.20D-06 MaxDP=5.98D-04 DE=-7.95D-07 OVMax= 3.18D-04

 Cycle  11  Pass 1  IDiag  1:
 RMSU=  3.87D-06    CP:  5.54D-01  2.50D+00  1.96D+00  8.97D-01  8.72D-01
                    CP:  1.08D+00  1.16D+00  1.29D+00  1.21D+00  1.10D+00
 E= -3010.53559657827     Delta-E=       -0.000000121015 Rises=F Damp=F
 DIIS: error= 6.89D-06 at cycle  11 NSaved=  11.
 NSaved=11 IEnMin=11 EnMin= -3010.53559657827     IErMin=11 ErrMin= 6.89D-06
 ErrMax= 6.89D-06  0.00D+00 EMaxC= 1.00D-01 BMatC= 3.43D-09 BMatP= 5.30D-08
 IDIUse=1 WtCom= 1.00D+00 WtEn= 0.00D+00
 Coeff-Com: -0.299D-03 0.401D-03 0.363D-04 0.786D-03 0.263D-02 0.543D-02
 Coeff-Com:  0.333D-02-0.288D-01-0.104D+00 0.927D-02 0.111D+01
 Coeff:     -0.299D-03 0.401D-03 0.363D-04 0.786D-03 0.263D-02 0.543D-02
 Coeff:      0.333D-02-0.288D-01-0.104D+00 0.927D-02 0.111D+01
 Gap=     0.256 Goal=   None    Shift=    0.000
 RMSDP=3.11D-06 MaxDP=1.53D-04 DE=-1.21D-07 OVMax= 1.54D-04

 Cycle  12  Pass 1  IDiag  1:
 RMSU=  1.16D-06    CP:  5.54D-01  2.50D+00  1.96D+00  8.97D-01  8.72D-01
                    CP:  1.08D+00  1.16D+00  1.29D+00  1.24D+00  1.30D+00
                    CP:  1.30D+00
 E= -3010.53559659792     Delta-E=       -0.000000019653 Rises=F Damp=F
 DIIS: error= 1.96D-06 at cycle  12 NSaved=  12.
 NSaved=12 IEnMin=12 EnMin= -3010.53559659792     IErMin=12 ErrMin= 1.96D-06
 ErrMax= 1.96D-06  0.00D+00 EMaxC= 1.00D-01 BMatC= 1.02D-09 BMatP= 3.43D-09
 IDIUse=1 WtCom= 1.00D+00 WtEn= 0.00D+00
 Coeff-Com: -0.175D-03 0.232D-03-0.175D-04 0.366D-03 0.804D-03 0.288D-02
 Coeff-Com:  0.596D-02-0.463D-02-0.771D-01-0.114D+00 0.495D+00 0.691D+00
 Coeff:     -0.175D-03 0.232D-03-0.175D-04 0.366D-03 0.804D-03 0.288D-02
 Coeff:      0.596D-02-0.463D-02-0.771D-01-0.114D+00 0.495D+00 0.691D+00
 Gap=     0.256 Goal=   None    Shift=    0.000
 RMSDP=1.10D-06 MaxDP=7.88D-05 DE=-1.97D-08 OVMax= 3.92D-05

 Cycle  13  Pass 1  IDiag  1:
 RMSU=  3.16D-07    CP:  5.54D-01  2.50D+00  1.96D+00  8.97D-01  8.72D-01
                    CP:  1.08D+00  1.16D+00  1.29D+00  1.25D+00  1.32D+00
                    CP:  1.44D+00  8.69D-01
 E= -3010.53559660036     Delta-E=       -0.000000002441 Rises=F Damp=F
 DIIS: error= 6.96D-07 at cycle  13 NSaved=  13.
 NSaved=13 IEnMin=13 EnMin= -3010.53559660036     IErMin=13 ErrMin= 6.96D-07
 ErrMax= 6.96D-07  0.00D+00 EMaxC= 1.00D-01 BMatC= 1.30D-10 BMatP= 1.02D-09
 IDIUse=1 WtCom= 1.00D+00 WtEn= 0.00D+00
 Coeff-Com: -0.254D-04 0.340D-04-0.877D-05-0.245D-04-0.352D-03-0.624D-03
 Coeff-Com: -0.140D-04 0.319D-02 0.345D-02-0.158D-01-0.743D-01 0.173D+00
 Coeff-Com:  0.912D+00
 Coeff:     -0.254D-04 0.340D-04-0.877D-05-0.245D-04-0.352D-03-0.624D-03
 Coeff:     -0.140D-04 0.319D-02 0.345D-02-0.158D-01-0.743D-01 0.173D+00
 Coeff:      0.912D+00
 Gap=     0.256 Goal=   None    Shift=    0.000
 RMSDP=3.32D-07 MaxDP=1.39D-05 DE=-2.44D-09 OVMax= 1.36D-05

 Cycle  14  Pass 1  IDiag  1:
 RMSU=  1.85D-07    CP:  5.54D-01  2.50D+00  1.96D+00  8.97D-01  8.72D-01
                    CP:  1.08D+00  1.16D+00  1.29D+00  1.25D+00  1.32D+00
                    CP:  1.47D+00  1.06D+00  1.14D+00
 E= -3010.53559660065     Delta-E=       -0.000000000286 Rises=F Damp=F
 DIIS: error= 2.25D-07 at cycle  14 NSaved=  14.
 NSaved=14 IEnMin=14 EnMin= -3010.53559660065     IErMin=14 ErrMin= 2.25D-07
 ErrMax= 2.25D-07  0.00D+00 EMaxC= 1.00D-01 BMatC= 1.69D-11 BMatP= 1.30D-10
 IDIUse=1 WtCom= 1.00D+00 WtEn= 0.00D+00
 Coeff-Com:  0.382D-05-0.487D-05-0.357D-05-0.481D-04-0.218D-03-0.596D-03
 Coeff-Com: -0.728D-03 0.197D-02 0.113D-01 0.912D-02-0.102D+00-0.936D-02
 Coeff-Com:  0.286D+00 0.805D+00
 Coeff:      0.382D-05-0.487D-05-0.357D-05-0.481D-04-0.218D-03-0.596D-03
 Coeff:     -0.728D-03 0.197D-02 0.113D-01 0.912D-02-0.102D+00-0.936D-02
 Coeff:      0.286D+00 0.805D+00
 Gap=     0.256 Goal=   None    Shift=    0.000
 RMSDP=1.25D-07 MaxDP=6.47D-06 DE=-2.86D-10 OVMax= 7.22D-06

 Cycle  15  Pass 1  IDiag  1:
 RMSU=  6.25D-08    CP:  5.54D-01  2.50D+00  1.96D+00  8.97D-01  8.72D-01
                    CP:  1.08D+00  1.16D+00  1.29D+00  1.25D+00  1.33D+00
                    CP:  1.47D+00  1.13D+00  1.23D+00  1.20D+00
 E= -3010.53559660072     Delta-E=       -0.000000000067 Rises=F Damp=F
 DIIS: error= 1.28D-07 at cycle  15 NSaved=  15.
 NSaved=15 IEnMin=15 EnMin= -3010.53559660072     IErMin=15 ErrMin= 1.28D-07
 ErrMax= 1.28D-07  0.00D+00 EMaxC= 1.00D-01 BMatC= 3.91D-12 BMatP= 1.69D-11
 IDIUse=1 WtCom= 1.00D+00 WtEn= 0.00D+00
 Coeff-Com:  0.678D-05-0.908D-05 0.797D-06-0.329D-05 0.439D-04 0.344D-04
 Coeff-Com: -0.103D-03-0.249D-03 0.963D-03 0.553D-02-0.624D-02-0.205D-01
 Coeff-Com: -0.168D+00 0.209D+00 0.980D+00
 Coeff:      0.678D-05-0.908D-05 0.797D-06-0.329D-05 0.439D-04 0.344D-04
 Coeff:     -0.103D-03-0.249D-03 0.963D-03 0.553D-02-0.624D-02-0.205D-01
 Coeff:     -0.168D+00 0.209D+00 0.980D+00
 Gap=     0.256 Goal=   None    Shift=    0.000
 RMSDP=8.82D-08 MaxDP=7.07D-06 DE=-6.73D-11 OVMax= 5.43D-06

 Cycle  16  Pass 1  IDiag  1:
 RMSU=  3.13D-08    CP:  5.54D-01  2.50D+00  1.96D+00  8.97D-01  8.72D-01
                    CP:  1.08D+00  1.16D+00  1.29D+00  1.25D+00  1.33D+00
                    CP:  1.47D+00  1.17D+00  1.25D+00  1.43D+00  1.51D+00
 E= -3010.53559660076     Delta-E=       -0.000000000042 Rises=F Damp=F
 DIIS: error= 4.84D-08 at cycle  16 NSaved=  16.
 NSaved=16 IEnMin=16 EnMin= -3010.53559660076     IErMin=16 ErrMin= 4.84D-08
 ErrMax= 4.84D-08  0.00D+00 EMaxC= 1.00D-01 BMatC= 9.73D-13 BMatP= 3.91D-12
 IDIUse=1 WtCom= 1.00D+00 WtEn= 0.00D+00
 Coeff-Com:  0.162D-05-0.221D-05 0.102D-05 0.787D-05 0.545D-04 0.121D-03
 Coeff-Com:  0.102D-03-0.503D-03-0.193D-02 0.569D-03 0.156D-01 0.590D-03
 Coeff-Com: -0.115D+00-0.945D-01 0.286D+00 0.908D+00
 Coeff:      0.162D-05-0.221D-05 0.102D-05 0.787D-05 0.545D-04 0.121D-03
 Coeff:      0.102D-03-0.503D-03-0.193D-02 0.569D-03 0.156D-01 0.590D-03
 Coeff:     -0.115D+00-0.945D-01 0.286D+00 0.908D+00
 Gap=     0.256 Goal=   None    Shift=    0.000
 RMSDP=5.60D-08 MaxDP=4.25D-06 DE=-4.23D-11 OVMax= 2.71D-06

 Cycle  17  Pass 1  IDiag  1:
 RMSU=  1.01D-08    CP:  5.54D-01  2.50D+00  1.96D+00  8.97D-01  8.72D-01
                    CP:  1.08D+00  1.16D+00  1.29D+00  1.25D+00  1.33D+00
                    CP:  1.47D+00  1.19D+00  1.24D+00  1.53D+00  1.96D+00
                    CP:  1.27D+00
 E= -3010.53559660074     Delta-E=        0.000000000016 Rises=F Damp=F
 DIIS: error= 3.12D-08 at cycle  17 NSaved=  17.
 NSaved=17 IEnMin=16 EnMin= -3010.53559660076     IErMin=17 ErrMin= 3.12D-08
 ErrMax= 3.12D-08  0.00D+00 EMaxC= 1.00D-01 BMatC= 1.45D-13 BMatP= 9.73D-13
 IDIUse=1 WtCom= 1.00D+00 WtEn= 0.00D+00
 Coeff-Com: -0.608D-06 0.810D-06 0.134D-06 0.157D-05 0.117D-06 0.145D-04
 Coeff-Com:  0.465D-04-0.196D-04-0.594D-03-0.820D-03 0.393D-02 0.647D-02
 Coeff-Com:  0.990D-02-0.718D-01-0.163D+00 0.174D+00 0.104D+01
 Coeff:     -0.608D-06 0.810D-06 0.134D-06 0.157D-05 0.117D-06 0.145D-04
 Coeff:      0.465D-04-0.196D-04-0.594D-03-0.820D-03 0.393D-02 0.647D-02
 Coeff:      0.990D-02-0.718D-01-0.163D+00 0.174D+00 0.104D+01
 Gap=     0.256 Goal=   None    Shift=    0.000
 RMSDP=3.06D-08 MaxDP=2.66D-06 DE= 1.59D-11 OVMax= 1.61D-06

 Cycle  18  Pass 1  IDiag  1:
 RMSU=  5.49D-09    CP:  5.54D-01  2.50D+00  1.96D+00  8.97D-01  8.72D-01
                    CP:  1.08D+00  1.16D+00  1.29D+00  1.25D+00  1.33D+00
                    CP:  1.47D+00  1.21D+00  1.23D+00  1.58D+00  2.16D+00
                    CP:  1.60D+00  1.38D+00
 E= -3010.53559660071     Delta-E=        0.000000000036 Rises=F Damp=F
 DIIS: error= 8.59D-09 at cycle  18 NSaved=  18.
 NSaved=18 IEnMin=16 EnMin= -3010.53559660076     IErMin=18 ErrMin= 8.59D-09
 ErrMax= 8.59D-09  0.00D+00 EMaxC= 1.00D-01 BMatC= 3.76D-14 BMatP= 1.45D-13
 IDIUse=1 WtCom= 1.00D+00 WtEn= 0.00D+00
 Coeff-Com: -0.795D-07 0.108D-06-0.123D-06-0.156D-05-0.113D-04-0.206D-04
 Coeff-Com: -0.127D-05 0.104D-03 0.182D-03-0.427D-03-0.224D-02 0.221D-02
 Coeff-Com:  0.273D-01 0.155D-02-0.102D+00-0.170D+00 0.333D+00 0.909D+00
 Coeff:     -0.795D-07 0.108D-06-0.123D-06-0.156D-05-0.113D-04-0.206D-04
 Coeff:     -0.127D-05 0.104D-03 0.182D-03-0.427D-03-0.224D-02 0.221D-02
 Coeff:      0.273D-01 0.155D-02-0.102D+00-0.170D+00 0.333D+00 0.909D+00
 Gap=     0.256 Goal=   None    Shift=    0.000
 RMSDP=1.04D-08 MaxDP=4.83D-07 DE= 3.59D-11 OVMax= 5.30D-07

 Cycle  19  Pass 1  IDiag  1:
 RMSU=  1.65D-09    CP:  5.54D-01  2.50D+00  1.96D+00  8.97D-01  8.72D-01
                    CP:  1.08D+00  1.16D+00  1.29D+00  1.25D+00  1.33D+00
                    CP:  1.47D+00  1.21D+00  1.22D+00  1.58D+00  2.25D+00
                    CP:  1.68D+00  1.67D+00  1.25D+00
 E= -3010.53559660072     Delta-E=       -0.000000000012 Rises=F Damp=F
 DIIS: error= 3.81D-09 at cycle  19 NSaved=  19.
 NSaved=19 IEnMin=16 EnMin= -3010.53559660076     IErMin=19 ErrMin= 3.81D-09
 ErrMax= 3.81D-09  0.00D+00 EMaxC= 1.00D-01 BMatC= 1.61D-15 BMatP= 3.76D-14
 IDIUse=1 WtCom= 1.00D+00 WtEn= 0.00D+00
 Large coefficients: NSaved= 19 BigCof=    0.00 CofMax=   10.00 Det=-8.86D-15
 Inversion failed.  Reducing to 18 matrices.
 Large coefficients: NSaved= 18 BigCof=    0.00 CofMax=   10.00 Det=-8.78D-15
 Inversion failed.  Reducing to 17 matrices.
 Large coefficients: NSaved= 17 BigCof=    0.00 CofMax=   10.00 Det=-8.81D-15
 Inversion failed.  Reducing to 16 matrices.
 Large coefficients: NSaved= 16 BigCof=    0.00 CofMax=   10.00 Det=-9.02D-15
 Inversion failed.  Reducing to 15 matrices.
 Coeff-Com:  0.272D-07-0.703D-06-0.118D-05-0.324D-05 0.264D-04 0.881D-05
 Coeff-Com: -0.154D-03-0.226D-03 0.131D-02 0.412D-02 0.144D-02-0.344D-01
 Coeff-Com: -0.192D-01 0.101D+00 0.946D+00
 Coeff:      0.272D-07-0.703D-06-0.118D-05-0.324D-05 0.264D-04 0.881D-05
 Coeff:     -0.154D-03-0.226D-03 0.131D-02 0.412D-02 0.144D-02-0.344D-01
 Coeff:     -0.192D-01 0.101D+00 0.946D+00
 Gap=     0.256 Goal=   None    Shift=    0.000
 RMSDP=2.38D-09 MaxDP=1.82D-07 DE=-1.23D-11 OVMax= 7.80D-08

 SCF Done:  E(RwB97XD) =  -3010.53559660     A.U. after   19 cycles
            NFock= 19  Conv=0.24D-08     -V/T= 2.0016
 KE= 3.005852609571D+03 PE=-8.632001117423D+03 EE= 1.876510720593D+03
 Leave Link  502 at Wed May  1 15:07:26 2024, MaxMem=  1207959552 cpu:            1110.7 elap:            1110.7
 (Enter /software/gaussian/g16-c01/sse4/g16/l601.exe)
 Copying SCF densities to generalized density rwf, IOpCl= 0 IROHF=0.

 **********************************************************************

            Population analysis using the SCF Density.

 **********************************************************************

 Alpha  occ. eigenvalues -- -483.30937 -62.85962 -56.65654 -56.65083 -56.65080
 Alpha  occ. eigenvalues --  -19.45631 -19.45575 -14.85143 -10.57972 -10.57301
 Alpha  occ. eigenvalues --  -10.56922 -10.56713 -10.56511 -10.52762  -9.01768
 Alpha  occ. eigenvalues --   -6.84443  -6.82574  -6.82559  -2.94348  -2.93852
 Alpha  occ. eigenvalues --   -2.93838  -2.92344  -2.92343  -1.49404  -1.32380
 Alpha  occ. eigenvalues --   -1.22373  -1.13779  -1.11509  -1.04099  -1.00791
 Alpha  occ. eigenvalues --   -0.95187  -0.90692  -0.85036  -0.80507  -0.80388
 Alpha  occ. eigenvalues --   -0.79741  -0.78022  -0.75852  -0.75665  -0.72015
 Alpha  occ. eigenvalues --   -0.69089  -0.67306  -0.63417  -0.59850  -0.56903
 Alpha  occ. eigenvalues --   -0.56094  -0.55889  -0.55374  -0.54922
 Alpha virt. eigenvalues --   -0.29348  -0.21055  -0.15359  -0.13098  -0.08488
 Alpha virt. eigenvalues --   -0.06020  -0.05480  -0.04580  -0.04402  -0.02871
 Alpha virt. eigenvalues --   -0.02212  -0.02174  -0.01075  -0.00728   0.00709
 Alpha virt. eigenvalues --    0.01190   0.01769   0.02051   0.02832   0.03060
 Alpha virt. eigenvalues --    0.04714   0.05016   0.05280   0.06112   0.06985
 Alpha virt. eigenvalues --    0.07259   0.07414   0.07767   0.08949   0.09459
 Alpha virt. eigenvalues --    0.10725   0.11243   0.11333   0.12007   0.12737
 Alpha virt. eigenvalues --    0.12877   0.13249   0.13733   0.15283   0.16254
 Alpha virt. eigenvalues --    0.16705   0.17272   0.17879   0.18554   0.19078
 Alpha virt. eigenvalues --    0.19556   0.21165   0.21573   0.21925   0.24561
 Alpha virt. eigenvalues --    0.25421   0.27897   0.28318   0.29621   0.31718
 Alpha virt. eigenvalues --    0.33203   0.33879   0.34242   0.34944   0.36218
 Alpha virt. eigenvalues --    0.37360   0.38064   0.39307   0.40826   0.41918
 Alpha virt. eigenvalues --    0.42739   0.43865   0.44439   0.46546   0.47573
 Alpha virt. eigenvalues --    0.47892   0.50365   0.51032   0.52381   0.53690
 Alpha virt. eigenvalues --    0.54421   0.55370   0.56892   0.57155   0.59495
 Alpha virt. eigenvalues --    0.61400   0.62497   0.64350   0.67023   0.68797
 Alpha virt. eigenvalues --    0.70404   0.72252   0.72652   0.73429   0.74330
 Alpha virt. eigenvalues --    0.74704   0.79454   0.80114   0.83291   0.85307
 Alpha virt. eigenvalues --    0.86557   0.88138   0.92003   0.93246   0.98752
 Alpha virt. eigenvalues --    0.99778   1.01209   1.04859   1.05516   1.06738
 Alpha virt. eigenvalues --    1.09326   1.11129   1.12181   1.12639   1.14422
 Alpha virt. eigenvalues --    1.22214   1.24685   1.26915   1.33126   1.36669
 Alpha virt. eigenvalues --    1.37042   1.38224   1.45340   1.54554   1.57283
 Alpha virt. eigenvalues --    1.58664   1.58960   1.60780   1.62576   1.66494
 Alpha virt. eigenvalues --    1.69315   1.69905   1.73701   1.75467   1.79202
 Alpha virt. eigenvalues --    1.81301   1.85611   1.87529   1.93674   1.95782
 Alpha virt. eigenvalues --    1.98033   2.03094   2.03997   2.07064   2.08239
 Alpha virt. eigenvalues --    2.09823   2.14905   2.20534   2.22819   2.29424
 Alpha virt. eigenvalues --    2.37769   2.41351   2.42753   2.43690   2.52639
 Alpha virt. eigenvalues --    2.56836   2.63197   2.66253   2.68371   2.71897
 Alpha virt. eigenvalues --    2.73592   2.76698   2.77522   2.81217   2.81947
 Alpha virt. eigenvalues --    2.93694   2.96527   3.00853   3.05797   3.09106
 Alpha virt. eigenvalues --    3.13156   3.15059   3.19193   3.23849   3.24477
 Alpha virt. eigenvalues --    3.27554   3.39304   3.47757   3.51403   3.54676
 Alpha virt. eigenvalues --    3.57042   3.70137   3.74313   3.82331   3.87341
 Alpha virt. eigenvalues --    4.09188   4.09420   4.16905   4.22125   4.42944
 Alpha virt. eigenvalues --    4.44554   4.57615   4.60083   4.93400   4.96069
 Alpha virt. eigenvalues --    5.04716   5.08883   5.63033   6.15972   6.64897
 Alpha virt. eigenvalues --    7.47863   7.49438   7.59212  23.21474  23.61457
 Alpha virt. eigenvalues --   23.69824  23.79615  23.96188  24.01567  35.32815
 Alpha virt. eigenvalues --   47.91472  49.85785  49.94595 289.80801 289.82469
 Alpha virt. eigenvalues --  289.949091020.91893
          Condensed to atoms (all electrons):
               1          2          3          4          5          6
     1  C    8.869665  -2.346488   0.233476  -1.594223  -0.611484   0.309008
     2  C   -2.346488  12.829259  -1.793317  -2.535157   0.716482  -0.014260
     3  C    0.233476  -1.793317  13.101444  -3.198426  -1.269418   0.023335
     4  C   -1.594223  -2.535157  -3.198426  14.725267   1.284043   0.010500
     5  C   -0.611484   0.716482  -1.269418   1.284043   7.363692   0.015546
     6  H    0.309008  -0.014260   0.023335   0.010500   0.015546   0.339454
     7  H    0.069594   0.229129   0.079531  -0.033786  -0.020166  -0.001868
     8  H    0.003577  -0.009437   0.070660   0.250226  -0.018479   0.000001
     9  H    0.030152  -0.013015   0.003386  -0.005725   0.309403  -0.002348
    10  N   -0.149567   0.347951  -0.921629   0.323149   0.017346  -0.000630
    11  O    0.012400  -0.068211  -0.262641  -0.009222  -0.055684  -0.000023
    12  O    0.328341  -0.041788  -0.280167  -0.087902  -0.043307   0.000016
    13  C    1.391061  -1.822879   0.879152  -3.397202  -1.725912  -0.008420
    14  H   -0.010108  -0.004014   0.005345  -0.070407  -0.022181  -0.000054
    15  Br   0.043634   0.003945   0.050786   0.048887   0.059032  -0.000394
               7          8          9         10         11         12
     1  C    0.069594   0.003577   0.030152  -0.149567   0.012400   0.328341
     2  C    0.229129  -0.009437  -0.013015   0.347951  -0.068211  -0.041788
     3  C    0.079531   0.070660   0.003386  -0.921629  -0.262641  -0.280167
     4  C   -0.033786   0.250226  -0.005725   0.323149  -0.009222  -0.087902
     5  C   -0.020166  -0.018479   0.309403   0.017346  -0.055684  -0.043307
     6  H   -0.001868   0.000001  -0.002348  -0.000630  -0.000023   0.000016
     7  H    0.304244  -0.000003   0.000012  -0.026122  -0.001520   0.022612
     8  H   -0.000003   0.292205   0.000104  -0.023386   0.022431  -0.000857
     9  H    0.000012   0.000104   0.326959   0.000394   0.000006   0.000006
    10  N   -0.026122  -0.023386   0.000394   7.350517   0.193317   0.150969
    11  O   -0.001520   0.022431   0.000006   0.193317   7.829167   0.000746
    12  O    0.022612  -0.000857   0.000006   0.150969   0.000746   7.883454
    13  C    0.015467   0.037859   0.004975  -0.159170   0.303536   0.043177
    14  H   -0.000018  -0.004027  -0.005528  -0.000173  -0.000276  -0.000070
    15  Br  -0.000088   0.002418   0.000681   0.003865   0.000326   0.002015
              13         14         15
     1  C    1.391061  -0.010108   0.043634
     2  C   -1.822879  -0.004014   0.003945
     3  C    0.879152   0.005345   0.050786
     4  C   -3.397202  -0.070407   0.048887
     5  C   -1.725912  -0.022181   0.059032
     6  H   -0.008420  -0.000054  -0.000394
     7  H    0.015467  -0.000018  -0.000088
     8  H    0.037859  -0.004027   0.002418
     9  H    0.004975  -0.005528   0.000681
    10  N   -0.159170  -0.000173   0.003865
    11  O    0.303536  -0.000276   0.000326
    12  O    0.043177  -0.000070   0.002015
    13  C   10.540035   0.405491  -0.035481
    14  H    0.405491   0.340026  -0.040265
    15  Br  -0.035481  -0.040265  34.679449
 Mulliken charges:
               1
     1  C   -0.579038
     2  C    0.521800
     3  C   -0.721517
     4  C    0.289977
     5  C    0.001089
     6  H    0.330137
     7  H    0.362980
     8  H    0.376706
     9  H    0.350540
    10  N   -0.106832
    11  O    0.035647
    12  O    0.022754
    13  C   -0.471690
    14  H    0.406258
    15  Br   0.181188
 Sum of Mulliken charges =   1.00000
 Mulliken charges with hydrogens summed into heavy atoms:
               1
     1  C   -0.248901
     2  C    0.884780
     3  C   -0.721517
     4  C    0.666684
     5  C    0.351629
    10  N   -0.106832
    11  O    0.035647
    12  O    0.022754
    13  C   -0.065433
    15  Br   0.181188
 Electronic spatial extent (au):  <R**2>=           2798.2721
 Charge=              1.0000 electrons
 Dipole moment (field-independent basis, Debye):
    X=             -0.8590    Y=             -0.8453    Z=             -0.0540  Tot=              1.2064
 Quadrupole moment (field-independent basis, Debye-Ang):
   XX=            -71.2978   YY=            -51.8760   ZZ=            -62.5446
   XY=              1.0108   XZ=              1.1401   YZ=              1.7800
 Traceless Quadrupole moment (field-independent basis, Debye-Ang):
   XX=             -9.3917   YY=             10.0301   ZZ=             -0.6384
   XY=              1.0108   XZ=              1.1401   YZ=              1.7800
 Octapole moment (field-independent basis, Debye-Ang**2):
  XXX=           -299.8052  YYY=             86.0382  ZZZ=             77.0734  XYY=            -76.3033
  XXY=             28.6509  XXZ=             32.1880  XZZ=            -78.2321  YZZ=             15.7797
  YYZ=             24.9942  XYZ=             -3.4438
 Hexadecapole moment (field-independent basis, Debye-Ang**3):
 XXXX=          -2280.3008 YYYY=           -675.1365 ZZZZ=           -346.8371 XXXY=            -73.1813
 XXXZ=            -21.4451 YYYX=            -60.4943 YYYZ=           -154.1686 ZZZX=            -18.0055
 ZZZY=           -134.6170 XXYY=           -456.1957 XXZZ=           -370.2294 YYZZ=           -162.2959
 XXYZ=            -54.3125 YYXZ=             -1.7999 ZZXY=             -8.5106
 N-N= 7.391021906586D+02 E-N=-8.632001116984D+03  KE= 3.005852609571D+03
 No NMR shielding tensors so no spin-rotation constants.
 Leave Link  601 at Wed May  1 15:07:33 2024, MaxMem=  1207959552 cpu:               7.3 elap:               7.3
 (Enter /software/gaussian/g16-c01/sse4/g16/l9999.exe)
 Unable to Open any file for archive entry.
 1\1\GINC-BHX0027\SP\RwB97XD\6-311+G(d)\C6H5Br1N1O2(1+)\BWEIGHT\01-May-
 2024\0\\#P wB97XD/6-311+G* NoSymm #P Field=Y+9\\TitleMe\\1,1\C,0,0.029
 5,1.3397,0.0682\C,0,1.4348,1.2867,0.0064\C,0,2.1118,0.0511,-0.0054\C,0
 ,1.4451,-1.1372,0.0312\C,0,-0.6879,0.1682,0.11\H,0,-0.4713,2.2984,0.07
 81\H,0,2.0273,2.1965,-0.0322\H,0,1.9897,-2.0764,0.0232\H,0,-1.7716,0.1
 804,0.1582\N,0,3.5864,0.051,-0.0675\O,0,4.1471,-1.0597,-0.0881\O,0,4.1
 45,1.1639,-0.0901\C,0,-0.0236,-1.1458,0.0835\H,0,-0.4367,-1.8725,0.788
 9\Br,0,-0.5359,-1.8697,-1.7408\\Version=ES64L-G16RevC.01\HF=-3010.5355
 966\RMSD=2.380e-09\Dipole=-2.2444896,0.8155123,1.1249482\Quadrupole=-6
 .9824887,7.4571487,-0.47466,0.7515304,0.8476585,1.3233824\PG=C01 [X(C6
 H5Br1N1O2)]\\@
 The archive entry for this job was punched.


 Time has a wonderful way of weeding out the trivial.
                                -- Richard Ben Sapir
 Job cpu time:       0 days  0 hours 19 minutes 40.9 seconds.
 Elapsed time:       0 days  0 hours 19 minutes 40.9 seconds.
 File lengths (MBytes):  RWF=     40 Int=      0 D2E=      0 Chk=     32 Scr=      1
 Normal termination of Gaussian 16 at Wed May  1 15:07:34 2024.
