 Entering Gaussian System, Link 0=g16
 Initial command:
 /software/gaussian/g16-a03/l1.exe "/local_scratch/6484964/Gau-28856.inp" -scrdir="/local_scratch/6484964/"
 Entering Link 1 = /software/gaussian/g16-a03/l1.exe PID=     28882.
  
 Copyright (c) 1988,1990,1992,1993,1995,1998,2003,2009,2016,
            Gaussian, Inc.  All Rights Reserved.
  
 This is part of the Gaussian(R) 16 program.  It is based on
 the Gaussian(R) 09 system (copyright 2009, Gaussian, Inc.),
 the Gaussian(R) 03 system (copyright 2003, Gaussian, Inc.),
 the Gaussian(R) 98 system (copyright 1998, Gaussian, Inc.),
 the Gaussian(R) 94 system (copyright 1995, Gaussian, Inc.),
 the Gaussian 92(TM) system (copyright 1992, Gaussian, Inc.),
 the Gaussian 90(TM) system (copyright 1990, Gaussian, Inc.),
 the Gaussian 88(TM) system (copyright 1988, Gaussian, Inc.),
 the Gaussian 86(TM) system (copyright 1986, Carnegie Mellon
 University), and the Gaussian 82(TM) system (copyright 1983,
 Carnegie Mellon University). Gaussian is a federally registered
 trademark of Gaussian, Inc.
  
 This software contains proprietary and confidential information,
 including trade secrets, belonging to Gaussian, Inc.
  
 This software is provided under written license and may be
 used, copied, transmitted, or stored only in accord with that
 written license.
  
 The following legend is applicable only to US Government
 contracts under FAR:
  
                    RESTRICTED RIGHTS LEGEND
  
 Use, reproduction and disclosure by the US Government is
 subject to restrictions as set forth in subparagraphs (a)
 and (c) of the Commercial Computer Software - Restricted
 Rights clause in FAR 52.227-19.
  
 Gaussian, Inc.
 340 Quinnipiac St., Bldg. 40, Wallingford CT 06492
  
  
 ---------------------------------------------------------------
 Warning -- This program may not be used in any manner that
 competes with the business of Gaussian, Inc. or will provide
 assistance to any competitor of Gaussian, Inc.  The licensee
 of this program is prohibited from giving any competitor of
 Gaussian, Inc. access to this program.  By using this program,
 the user acknowledges that Gaussian, Inc. is engaged in the
 business of creating and licensing software in the field of
 computational chemistry and represents and warrants to the
 licensee that it is not a competitor of Gaussian, Inc. and that
 it will not use this program in any manner prohibited above.
 ---------------------------------------------------------------
  

 Cite this work as:
 Gaussian 16, Revision A.03,
 M. J. Frisch, G. W. Trucks, H. B. Schlegel, G. E. Scuseria, 
 M. A. Robb, J. R. Cheeseman, G. Scalmani, V. Barone, 
 G. A. Petersson, H. Nakatsuji, X. Li, M. Caricato, A. V. Marenich, 
 J. Bloino, B. G. Janesko, R. Gomperts, B. Mennucci, H. P. Hratchian, 
 J. V. Ortiz, A. F. Izmaylov, J. L. Sonnenberg, D. Williams-Young, 
 F. Ding, F. Lipparini, F. Egidi, J. Goings, B. Peng, A. Petrone, 
 T. Henderson, D. Ranasinghe, V. G. Zakrzewski, J. Gao, N. Rega, 
 G. Zheng, W. Liang, M. Hada, M. Ehara, K. Toyota, R. Fukuda, 
 J. Hasegawa, M. Ishida, T. Nakajima, Y. Honda, O. Kitao, H. Nakai, 
 T. Vreven, K. Throssell, J. A. Montgomery, Jr., J. E. Peralta, 
 F. Ogliaro, M. J. Bearpark, J. J. Heyd, E. N. Brothers, K. N. Kudin, 
 V. N. Staroverov, T. A. Keith, R. Kobayashi, J. Normand, 
 K. Raghavachari, A. P. Rendell, J. C. Burant, S. S. Iyengar, 
 J. Tomasi, M. Cossi, J. M. Millam, M. Klene, C. Adamo, R. Cammi, 
 J. W. Ochterski, R. L. Martin, K. Morokuma, O. Farkas, 
 J. B. Foresman, and D. J. Fox, Gaussian, Inc., Wallingford CT, 2016.
 
 ******************************************
 Gaussian 16:  ES64L-G16RevA.03 25-Dec-2016
                17-Sep-2021 
 ******************************************
 %chk=geometry.chk
 %mem=2GB
 %nprocshared=1
 Will use up to    1 processors via shared memory.
 --------------------------------------------------------------------
 #p B3LYP/6-311+G** #p TD=(singlets,nstates=30)IOp(6/8=3) IOp(9/40=4)
 --------------------------------------------------------------------
 1/38=1,172=1/1;
 2/12=2,17=6,18=5,40=1/2;
 3/5=4,6=6,7=111,11=9,25=1,30=1,74=-5/1,2,3,8;
 4//1;
 5/5=2,38=5/2;
 8/6=1,10=2,108=30/1;
 9/40=4,41=30,42=1,48=1,70=2/14;
 6/7=2,8=3,9=2,10=2/1;
 99/5=1,9=1/99;
 Leave Link    1 at Fri Sep 17 10:52:35 2021, MaxMem=   268435456 cpu:               0.0 elap:               0.3
 (Enter /software/gaussian/g16-a03/l101.exe)
 --------------------------------
 Scan Step 233, Bond Length 1.665
 --------------------------------
 Symbolic Z-matrix:
 Charge =  0 Multiplicity = 1
 C                     0.        0.       -0.52736 
 H                     0.        0.93726  -1.11871 
 H                     0.       -0.93726  -1.11871 
 O                     0.        0.        1.13764 
 
 ITRead=  0  0  0  0
 MicOpt= -1 -1 -1 -1
 NAtoms=      4 NQM=        4 NQMF=       0 NMMI=      0 NMMIF=      0
                NMic=       0 NMicF=      0.
                    Isotopes and Nuclear Properties:
 (Nuclear quadrupole moments (NQMom) in fm**2, nuclear magnetic moments (NMagM)
  in nuclear magnetons)

  Atom         1           2           3           4
 IAtWgt=          12           1           1          16
 AtmWgt=  12.0000000   1.0078250   1.0078250  15.9949146
 NucSpn=           0           1           1           0
 AtZEff=  -0.0000000  -0.0000000  -0.0000000  -0.0000000
 NQMom=    0.0000000   0.0000000   0.0000000   0.0000000
 NMagM=    0.0000000   2.7928460   2.7928460   0.0000000
 AtZNuc=   6.0000000   1.0000000   1.0000000   8.0000000
 Leave Link  101 at Fri Sep 17 10:52:35 2021, MaxMem=   268435456 cpu:               0.1 elap:               0.2
 (Enter /software/gaussian/g16-a03/l202.exe)
                          Input orientation:                          
 ---------------------------------------------------------------------
 Center     Atomic      Atomic             Coordinates (Angstroms)
 Number     Number       Type             X           Y           Z
 ---------------------------------------------------------------------
      1          6           0        0.000000    0.000000   -0.527360
      2          1           0        0.000000    0.937260   -1.118710
      3          1           0        0.000000   -0.937260   -1.118710
      4          8           0        0.000000    0.000000    1.137640
 ---------------------------------------------------------------------
                    Distance matrix (angstroms):
                    1          2          3          4
     1  C    0.000000
     2  H    1.108220   0.000000
     3  H    1.108220   1.874520   0.000000
     4  O    1.665000   2.443271   2.443271   0.000000
 Stoichiometry    CH2O
 Framework group  C2V[C2(CO),SGV(H2)]
 Deg. of freedom     3
 Full point group                 C2V     NOp   4
 Largest Abelian subgroup         C2V     NOp   4
 Largest concise Abelian subgroup C2      NOp   2
                         Standard orientation:                         
 ---------------------------------------------------------------------
 Center     Atomic      Atomic             Coordinates (Angstroms)
 Number     Number       Type             X           Y           Z
 ---------------------------------------------------------------------
      1          6           0        0.000000   -0.000000   -0.758581
      2          1           0        0.000000    0.937260   -1.349931
      3          1           0       -0.000000   -0.937260   -1.349931
      4          8           0        0.000000    0.000000    0.906419
 ---------------------------------------------------------------------
 Rotational constants (GHZ):         285.4183527          21.5223833          20.0132549
 Leave Link  202 at Fri Sep 17 10:52:35 2021, MaxMem=   268435456 cpu:               0.0 elap:               0.1
 (Enter /software/gaussian/g16-a03/l301.exe)
 Standard basis: 6-311+G(d,p) (5D, 7F)
 Ernie: Thresh=  0.10000D-02 Tol=  0.10000D-05 Strict=F.
 There are    29 symmetry adapted cartesian basis functions of A1  symmetry.
 There are     3 symmetry adapted cartesian basis functions of A2  symmetry.
 There are    11 symmetry adapted cartesian basis functions of B1  symmetry.
 There are    15 symmetry adapted cartesian basis functions of B2  symmetry.
 There are    27 symmetry adapted basis functions of A1  symmetry.
 There are     3 symmetry adapted basis functions of A2  symmetry.
 There are    11 symmetry adapted basis functions of B1  symmetry.
 There are    15 symmetry adapted basis functions of B2  symmetry.
    56 basis functions,    88 primitive gaussians,    58 cartesian basis functions
     8 alpha electrons        8 beta electrons
       nuclear repulsion energy        24.7332531345 Hartrees.
 IExCor=  402 DFT=T Ex+Corr=B3LYP ExCW=0 ScaHFX=  0.200000
 ScaDFX=  0.800000  0.720000  1.000000  0.810000 ScalE2=  1.000000  1.000000
 IRadAn=      5 IRanWt=     -1 IRanGd=            0 ICorTp=0 IEmpDi=  4
 NAtoms=    4 NActive=    4 NUniq=    3 SFac= 1.78D+00 NAtFMM=   60 NAOKFM=F Big=F
 Integral buffers will be    131072 words long.
 Regular integral format.
 Two-electron integral symmetry is turned on.
 Leave Link  301 at Fri Sep 17 10:52:36 2021, MaxMem=   268435456 cpu:               0.1 elap:               0.1
 (Enter /software/gaussian/g16-a03/l302.exe)
 NPDir=0 NMtPBC=     1 NCelOv=     1 NCel=       1 NClECP=     1 NCelD=      1
         NCelK=      1 NCelE2=     1 NClLst=     1 CellRange=     0.0.
 One-electron integrals computed using PRISM.
 One-electron integral symmetry used in STVInt
 NBasis=    56 RedAO= T EigKep=  1.07D-02  NBF=    27     3    11    15
 NBsUse=    56 1.00D-06 EigRej= -1.00D+00 NBFU=    27     3    11    15
 Precomputing XC quadrature grid using
 IXCGrd= 4 IRadAn=           5 IRanWt=          -1 IRanGd=           0 AccXCQ= 0.00D+00.
 Generated NRdTot=       0 NPtTot=           0 NUsed=           0 NTot=          32
 NSgBfM=    58    58    58    58    58 MxSgAt=     4 MxSgA2=     4.
 Leave Link  302 at Fri Sep 17 10:52:36 2021, MaxMem=   268435456 cpu:               0.3 elap:               0.3
 (Enter /software/gaussian/g16-a03/l303.exe)
 DipDrv:  MaxL=1.
 Leave Link  303 at Fri Sep 17 10:52:36 2021, MaxMem=   268435456 cpu:               0.1 elap:               0.1
 (Enter /software/gaussian/g16-a03/l308.exe)
 Leave Link  308 at Fri Sep 17 10:52:36 2021, MaxMem=   268435456 cpu:               0.1 elap:               0.1
 (Enter /software/gaussian/g16-a03/l401.exe)
 ExpMin= 4.38D-02 ExpMax= 8.59D+03 ExpMxC= 1.30D+03 IAcc=3 IRadAn=         5 AccDes= 0.00D+00
 Harris functional with IExCor=  402 and IRadAn=       5 diagonalized for initial guess.
 HarFok:  IExCor=  402 AccDes= 0.00D+00 IRadAn=         5 IDoV= 1 UseB2=F ITyADJ=14
 ICtDFT=  3500011 ScaDFX=  1.000000  1.000000  1.000000  1.000000
 FoFCou: FMM=F IPFlag=           0 FMFlag=      100000 FMFlg1=           0
         NFxFlg=           0 DoJE=T BraDBF=F KetDBF=T FulRan=T
         wScrn=  0.000000 ICntrl=       500 IOpCl=  0 I1Cent=   200000004 NGrid=           0
         NMat0=    1 NMatS0=      1 NMatT0=    0 NMatD0=    1 NMtDS0=    0 NMtDT0=    0
 Petite list used in FoFCou.
 Harris En= -114.430284444074    
 JPrj=0 DoOrth=F DoCkMO=F.
 Initial guess orbital symmetries:
       Occupied  (A1) (A1) (A1) (A1) (B2) (A1) (B1) (B2)
       Virtual   (B1) (A1) (A1) (B2) (A1) (B1) (A1) (B2) (A1) (B1)
                 (B2) (A1) (B2) (A1) (B1) (A1) (B2) (A1) (B1) (A2)
                 (A1) (B2) (B1) (A1) (B2) (A1) (A1) (B2) (B1) (A2)
                 (A1) (B2) (A1) (B2) (A1) (B1) (A1) (A2) (A1) (B1)
                 (B2) (B2) (A1) (B1) (B2) (A1) (A1) (A1)
 The electronic state of the initial guess is 1-A1.
 Leave Link  401 at Fri Sep 17 10:52:37 2021, MaxMem=   268435456 cpu:               0.5 elap:               0.5
 (Enter /software/gaussian/g16-a03/l502.exe)
 Keep R1 ints in memory in symmetry-blocked form, NReq=2159909.
 FoFCou: FMM=F IPFlag=           0 FMFlag=           0 FMFlg1=           0
         NFxFlg=           0 DoJE=F BraDBF=F KetDBF=F FulRan=T
         wScrn=  0.000000 ICntrl=       600 IOpCl=  0 I1Cent=           0 NGrid=           0
         NMat0=    1 NMatS0=   1596 NMatT0=    0 NMatD0=    1 NMtDS0=    0 NMtDT0=    0
 Petite list used in FoFCou.
 Closed shell SCF:
 Using DIIS extrapolation, IDIIS=  1040.
 NGot=   268435456 LenX=   268074384 LenY=   268070579
 Requested convergence on RMS density matrix=1.00D-08 within 128 cycles.
 Requested convergence on MAX density matrix=1.00D-06.
 Requested convergence on             energy=1.00D-06.
 No special actions if energy rises.

 Cycle   1  Pass 1  IDiag  1:
 E= -114.294437512124    
 DIIS: error= 6.76D-02 at cycle   1 NSaved=   1.
 NSaved= 1 IEnMin= 1 EnMin= -114.294437512124     IErMin= 1 ErrMin= 6.76D-02
 ErrMax= 6.76D-02  0.00D+00 EMaxC= 1.00D-01 BMatC= 1.21D-01 BMatP= 1.21D-01
 IDIUse=3 WtCom= 3.24D-01 WtEn= 6.76D-01
 Coeff-Com:  0.100D+01
 Coeff-En:   0.100D+01
 Coeff:      0.100D+01
 Gap=     0.121 Goal=   None    Shift=    0.000
 GapD=    0.121 DampG=1.000 DampE=0.500 DampFc=0.5000 IDamp=-1.
 Damping current iteration by 5.00D-01
 RMSDP=1.90D-02 MaxDP=1.58D-01              OVMax= 3.77D-01

 Cycle   2  Pass 1  IDiag  1:
 E= -114.029795084992     Delta-E=        0.264642427132 Rises=F Damp=T
 DIIS: error= 8.69D-02 at cycle   2 NSaved=   2.
 NSaved= 2 IEnMin= 1 EnMin= -114.294437512124     IErMin= 1 ErrMin= 6.76D-02
 ErrMax= 8.69D-02  0.00D+00 EMaxC= 1.00D-01 BMatC= 2.39D-01 BMatP= 1.21D-01
 IDIUse=2 WtCom= 0.00D+00 WtEn= 1.00D+00
 Coeff-En:   0.738D+00 0.262D+00
 Coeff:      0.738D+00 0.262D+00
 Gap=     0.053 Goal=   None    Shift=    0.000
 RMSDP=4.40D-03 MaxDP=5.32D-02 DE= 2.65D-01 OVMax= 3.81D-01

 Cycle   3  Pass 1  IDiag  1:
 E= -114.126985460885     Delta-E=       -0.097190375892 Rises=F Damp=F
 DIIS: error= 1.29D-01 at cycle   3 NSaved=   3.
 NSaved= 3 IEnMin= 1 EnMin= -114.294437512124     IErMin= 1 ErrMin= 6.76D-02
 ErrMax= 1.29D-01  0.00D+00 EMaxC= 1.00D-01 BMatC= 3.10D-01 BMatP= 1.21D-01
 IDIUse=2 WtCom= 0.00D+00 WtEn= 1.00D+00
 Coeff-En:   0.641D+00 0.000D+00 0.359D+00
 Coeff:      0.641D+00 0.000D+00 0.359D+00
 Gap=     0.115 Goal=   None    Shift=    0.000
 RMSDP=4.29D-03 MaxDP=5.29D-02 DE=-9.72D-02 OVMax= 2.49D-01

 Cycle   4  Pass 1  IDiag  1:
 E= -114.399181332425     Delta-E=       -0.272195871540 Rises=F Damp=F
 DIIS: error= 1.55D-02 at cycle   4 NSaved=   4.
 NSaved= 4 IEnMin= 4 EnMin= -114.399181332425     IErMin= 4 ErrMin= 1.55D-02
 ErrMax= 1.55D-02  0.00D+00 EMaxC= 1.00D-01 BMatC= 5.91D-03 BMatP= 1.21D-01
 IDIUse=3 WtCom= 8.45D-01 WtEn= 1.55D-01
 Coeff-Com:  0.130D+00 0.312D-01-0.692D-01 0.908D+00
 Coeff-En:   0.704D-01 0.000D+00 0.000D+00 0.930D+00
 Coeff:      0.121D+00 0.264D-01-0.585D-01 0.911D+00
 Gap=     0.135 Goal=   None    Shift=    0.000
 RMSDP=8.58D-04 MaxDP=9.99D-03 DE=-2.72D-01 OVMax= 3.66D-02

 Cycle   5  Pass 1  IDiag  1:
 E= -114.403575580349     Delta-E=       -0.004394247924 Rises=F Damp=F
 DIIS: error= 2.63D-03 at cycle   5 NSaved=   5.
 NSaved= 5 IEnMin= 5 EnMin= -114.403575580349     IErMin= 5 ErrMin= 2.63D-03
 ErrMax= 2.63D-03  0.00D+00 EMaxC= 1.00D-01 BMatC= 2.60D-04 BMatP= 5.91D-03
 IDIUse=3 WtCom= 9.74D-01 WtEn= 2.63D-02
 Coeff-Com:  0.163D-01-0.342D-02-0.151D-01 0.324D+00 0.679D+00
 Coeff-En:   0.000D+00 0.000D+00 0.000D+00 0.522D-01 0.948D+00
 Coeff:      0.159D-01-0.333D-02-0.147D-01 0.316D+00 0.686D+00
 Gap=     0.135 Goal=   None    Shift=    0.000
 RMSDP=1.82D-04 MaxDP=2.65D-03 DE=-4.39D-03 OVMax= 8.68D-03

 Cycle   6  Pass 1  IDiag  1:
 E= -114.403744410946     Delta-E=       -0.000168830597 Rises=F Damp=F
 DIIS: error= 1.30D-03 at cycle   6 NSaved=   6.
 NSaved= 6 IEnMin= 6 EnMin= -114.403744410946     IErMin= 6 ErrMin= 1.30D-03
 ErrMax= 1.30D-03  0.00D+00 EMaxC= 1.00D-01 BMatC= 3.46D-05 BMatP= 2.60D-04
 IDIUse=3 WtCom= 9.87D-01 WtEn= 1.30D-02
 Coeff-Com:  0.356D-02-0.160D-02-0.949D-02 0.883D-01 0.246D+00 0.673D+00
 Coeff-En:   0.000D+00 0.000D+00 0.000D+00 0.000D+00 0.155D+00 0.845D+00
 Coeff:      0.351D-02-0.157D-02-0.936D-02 0.871D-01 0.245D+00 0.675D+00
 Gap=     0.135 Goal=   None    Shift=    0.000
 RMSDP=3.95D-05 MaxDP=5.20D-04 DE=-1.69D-04 OVMax= 2.19D-03

 Cycle   7  Pass 1  IDiag  1:
 E= -114.403772804873     Delta-E=       -0.000028393927 Rises=F Damp=F
 DIIS: error= 2.56D-04 at cycle   7 NSaved=   7.
 NSaved= 7 IEnMin= 7 EnMin= -114.403772804873     IErMin= 7 ErrMin= 2.56D-04
 ErrMax= 2.56D-04  0.00D+00 EMaxC= 1.00D-01 BMatC= 1.35D-06 BMatP= 3.46D-05
 IDIUse=3 WtCom= 9.97D-01 WtEn= 2.56D-03
 Coeff-Com:  0.693D-03-0.723D-04-0.690D-03-0.725D-02-0.162D-01-0.463D-01
 Coeff-Com:  0.107D+01
 Coeff-En:   0.000D+00 0.000D+00 0.000D+00 0.000D+00 0.000D+00 0.000D+00
 Coeff-En:   0.100D+01
 Coeff:      0.691D-03-0.722D-04-0.688D-03-0.723D-02-0.161D-01-0.462D-01
 Coeff:      0.107D+01
 Gap=     0.135 Goal=   None    Shift=    0.000
 RMSDP=1.03D-05 MaxDP=9.85D-05 DE=-2.84D-05 OVMax= 4.44D-04

 Cycle   8  Pass 1  IDiag  1:
 E= -114.403773954991     Delta-E=       -0.000001150118 Rises=F Damp=F
 DIIS: error= 2.02D-05 at cycle   8 NSaved=   8.
 NSaved= 8 IEnMin= 8 EnMin= -114.403773954991     IErMin= 8 ErrMin= 2.02D-05
 ErrMax= 2.02D-05  0.00D+00 EMaxC= 1.00D-01 BMatC= 1.01D-08 BMatP= 1.35D-06
 IDIUse=1 WtCom= 1.00D+00 WtEn= 0.00D+00
 Coeff-Com:  0.489D-04-0.215D-04 0.270D-04 0.816D-04 0.577D-03-0.519D-02
 Coeff-Com: -0.546D-01 0.106D+01
 Coeff:      0.489D-04-0.215D-04 0.270D-04 0.816D-04 0.577D-03-0.519D-02
 Coeff:     -0.546D-01 0.106D+01
 Gap=     0.135 Goal=   None    Shift=    0.000
 RMSDP=7.55D-07 MaxDP=8.05D-06 DE=-1.15D-06 OVMax= 3.00D-05

 Cycle   9  Pass 1  IDiag  1:
 E= -114.403773962707     Delta-E=       -0.000000007716 Rises=F Damp=F
 DIIS: error= 5.87D-06 at cycle   9 NSaved=   9.
 NSaved= 9 IEnMin= 9 EnMin= -114.403773962707     IErMin= 9 ErrMin= 5.87D-06
 ErrMax= 5.87D-06  0.00D+00 EMaxC= 1.00D-01 BMatC= 7.00D-10 BMatP= 1.01D-08
 IDIUse=1 WtCom= 1.00D+00 WtEn= 0.00D+00
 Coeff-Com:  0.186D-05 0.125D-06 0.532D-05 0.175D-04-0.474D-03-0.112D-02
 Coeff-Com: -0.244D-01-0.263D-01 0.105D+01
 Coeff:      0.186D-05 0.125D-06 0.532D-05 0.175D-04-0.474D-03-0.112D-02
 Coeff:     -0.244D-01-0.263D-01 0.105D+01
 Gap=     0.135 Goal=   None    Shift=    0.000
 RMSDP=2.52D-07 MaxDP=2.46D-06 DE=-7.72D-09 OVMax= 9.85D-06

 Cycle  10  Pass 1  IDiag  1:
 E= -114.403773963341     Delta-E=       -0.000000000634 Rises=F Damp=F
 DIIS: error= 7.61D-08 at cycle  10 NSaved=  10.
 NSaved=10 IEnMin=10 EnMin= -114.403773963341     IErMin=10 ErrMin= 7.61D-08
 ErrMax= 7.61D-08  0.00D+00 EMaxC= 1.00D-01 BMatC= 2.19D-13 BMatP= 7.00D-10
 IDIUse=1 WtCom= 1.00D+00 WtEn= 0.00D+00
 Coeff-Com:  0.206D-06 0.288D-06-0.392D-06 0.235D-05 0.194D-04 0.441D-04
 Coeff-Com:  0.212D-02-0.124D-01-0.646D-01 0.107D+01
 Coeff:      0.206D-06 0.288D-06-0.392D-06 0.235D-05 0.194D-04 0.441D-04
 Coeff:      0.212D-02-0.124D-01-0.646D-01 0.107D+01
 Gap=     0.135 Goal=   None    Shift=    0.000
 RMSDP=9.86D-09 MaxDP=1.20D-07 DE=-6.34D-10 OVMax= 4.33D-07

 SCF Done:  E(RB3LYP) =  -114.403773963     A.U. after   10 cycles
            NFock= 10  Conv=0.99D-08     -V/T= 2.0092
 KE= 1.133553852218D+02 PE=-3.179437308756D+02 EE= 6.545131855597D+01
 Leave Link  502 at Fri Sep 17 10:52:39 2021, MaxMem=   268435456 cpu:               2.4 elap:               2.6
 (Enter /software/gaussian/g16-a03/l801.exe)
 DoSCS=F DFT=T ScalE2(SS,OS)=  1.000000  1.000000
 ExpMin= 4.38D-02 ExpMax= 8.59D+03 ExpMxC= 1.30D+03 IAcc=3 IRadAn=         5 AccDes= 0.00D+00
 HarFok:  IExCor=  205 AccDes= 0.00D+00 IRadAn=         5 IDoV=-2 UseB2=F ITyADJ=14
 ICtDFT= 12500011 ScaDFX=  1.000000  1.000000  1.000000  1.000000
 Largest valence mixing into a core orbital is  5.39D-05
 Largest core mixing into a valence orbital is  1.26D-05
 Range of M.O.s used for correlation:     3    56
 NBasis=    56 NAE=     8 NBE=     8 NFC=     2 NFV=     0
 NROrb=     54 NOA=     6 NOB=     6 NVA=    48 NVB=    48
 Leave Link  801 at Fri Sep 17 10:52:39 2021, MaxMem=   268435456 cpu:               0.2 elap:               0.2
 (Enter /software/gaussian/g16-a03/l914.exe)
 RHF ground state
 Keep R1, R2, and R3 ints in memory in symmetry-blocked form, NReq=6042848.
 FoFCou: FMM=F IPFlag=           0 FMFlag=           0 FMFlg1=           0
         NFxFlg=           0 DoJE=F BraDBF=F KetDBF=F FulRan=T
         wScrn=  0.000000 ICntrl=       600 IOpCl=  0 I1Cent=           0 NGrid=           0
         NMat0=    1 NMatS0=   1596 NMatT0=    0 NMatD0=    1 NMtDS0=    0 NMtDT0=    0
 Petite list used in FoFCou.
 MDV=   268435456 DFT=T DoStab=F Mixed=T DoRPA=T DoScal=F NonHer=T
 Making orbital integer symmetry assigments:
 Orbital symmetries:
       Occupied  (A1) (A1) (A1) (A1) (B2) (A1) (B1) (B2)
       Virtual   (B1) (A1) (A1) (B2) (B1) (A1) (A1) (B2) (A1) (B1)
                 (B2) (A1) (A1) (B2) (B1) (A1) (B2) (A1) (A2) (B1)
                 (A1) (B2) (B1) (A1) (B2) (A1) (A1) (B2) (B1) (A2)
                 (A1) (B2) (A1) (B2) (A1) (B1) (A1) (A2) (A1) (B1)
                 (B2) (B2) (A1) (B1) (B2) (A1) (A1) (A1)
   120 initial guesses have been made.
 Convergence on wavefunction:    0.001000000000000
 Davidson Disk Diagonalization:  ConvIn= 1.00D-03 SkipCon=T Conv= 1.00D-03.
 Max sub-space:  1728 roots to seek:   120 dimension of matrix:          576
 Iteration     1 Dimension   120 NMult     0 NNew    120
 CISAX will form   120 AO SS matrices at one time.
 NMat=   120 NSing=   120 JSym2X=-1.
 New state      5 was old state      6
 New state      6 was old state      5
 New state      7 was old state      9
 New state      8 was old state      7
 New state      9 was old state      8
 New state     11 was old state     12
 New state     12 was old state     11
 New state     13 was old state     14
 New state     14 was old state     15
 New state     15 was old state     13
 New state     18 was old state     19
 New state     19 was old state     20
 New state     20 was old state     18
 New state     21 was old state     22
 New state     22 was old state     21
 New state     23 was old state     24
 New state     24 was old state     23
 New state     25 was old state     27
 New state     27 was old state     28
 New state     28 was old state     25
 New state     30 was old state     31
 Excitation Energies [eV] at current iteration:
 Root      1 :     1.763960319704395
 Root      2 :     4.574758594799553
 Root      3 :     4.979360341673863
 Root      4 :     5.443495188686755
 Root      5 :     6.478746485885076
 Root      6 :     6.990523239680891
 Root      7 :     7.320628340441997
 Root      8 :     7.865433948344649
 Root      9 :     8.040346552030671
 Root     10 :     8.597998813810472
 Root     11 :     8.800097886541003
 Root     12 :     8.882373397674868
 Root     13 :     9.493545770474562
 Root     14 :     9.712874623778415
 Root     15 :     9.891151546904236
 Root     16 :    10.170894503510330
 Root     17 :    10.421650822700060
 Root     18 :    10.958500801124850
 Root     19 :    11.185535438788950
 Root     20 :    11.266461274800690
 Root     21 :    11.308989585355610
 Root     22 :    11.356143948417120
 Root     23 :    11.600437923790400
 Root     24 :    11.778360380949540
 Root     25 :    12.169140063163050
 Root     26 :    12.288858728966650
 Root     27 :    12.630525804267640
 Root     28 :    12.811651977149700
 Root     29 :    13.101195571437870
 Root     30 :    13.289327090034060
 Root     31 :    13.765660296857010
 Root     32 :    13.840311433177950
 Root     33 :    13.843364730890170
 Root     34 :    14.030140245469650
 Root     35 :    14.347079393059650
 Root     36 :    14.599426471699320
 Root     37 :    14.671087595570240
 Root     38 :    14.786886787532000
 Root     39 :    15.559913228705780
 Root     40 :    15.832324803214770
 Root     41 :    15.899174003969410
 Root     42 :    15.962358880322420
 Root     43 :    16.215893617691530
 Root     44 :    16.477635696712590
 Root     45 :    17.428451900162340
 Root     46 :    17.547357424308120
 Root     47 :    17.643864254496840
 Root     48 :    17.899626336014230
 Root     49 :    18.100729910808680
 Root     50 :    18.191862797704900
 Root     51 :    18.422866479973690
 Root     52 :    18.439568487166690
 Root     53 :    18.985599160750050
 Root     54 :    19.101317721273880
 Root     55 :    19.233334948881640
 Root     56 :    19.771218009669600
 Root     57 :    20.158288008154940
 Root     58 :    20.214434691786380
 Root     59 :    20.374632461887870
 Root     60 :    20.438261111863250
 Root     61 :    20.798091647596240
 Root     62 :    21.012053600721010
 Root     63 :    21.244985878505570
 Root     64 :    21.437863358966040
 Root     65 :    21.876841657945210
 Root     66 :    21.942618162099300
 Root     67 :    21.956252304609930
 Root     68 :    22.539766617326770
 Root     69 :    23.146178694566120
 Root     70 :    23.216202426128000
 Root     71 :    23.344267394692710
 Root     72 :    23.358842583410150
 Root     73 :    23.652695359742180
 Root     74 :    23.909967819264310
 Root     75 :    24.028214738767420
 Root     76 :    24.506106067476150
 Root     77 :    24.646635559570430
 Root     78 :    24.904119921664240
 Root     79 :    25.124750423563600
 Root     80 :    25.221928730647330
 Root     81 :    25.442180348923400
 Root     82 :    25.541492413354510
 Root     83 :    25.669652785820010
 Root     84 :    26.231465750561810
 Root     85 :    26.313925367946280
 Root     86 :    26.383827509991460
 Root     87 :    26.538960395842270
 Root     88 :    27.263316273540800
 Root     89 :    27.724229008858060
 Root     90 :    28.465089557507100
 Root     91 :    28.617394242609630
 Root     92 :    28.901880088684190
 Root     93 :    29.240788155568260
 Root     94 :    29.581620225871490
 Root     95 :    29.873725400794280
 Root     96 :    30.319633768628610
 Root     97 :    30.783063021967560
 Root     98 :    31.284141307469750
 Root     99 :    31.932000639446990
 Root    100 :    32.794018013678810
 Root    101 :    33.061836743849820
 Root    102 :    33.277120598072710
 Root    103 :    33.563295883926730
 Root    104 :    34.363469978419200
 Root    105 :    34.473404046279800
 Root    106 :    34.476428101800740
 Root    107 :    34.760683927838270
 Root    108 :    34.851687346751910
 Root    109 :    36.008183106538600
 Root    110 :    36.022194122476790
 Root    111 :    36.073613238655010
 Root    112 :    36.454010315654600
 Root    113 :    37.120607364375670
 Root    114 :    37.346950201714040
 Root    115 :    37.949183337259570
 Root    116 :    38.387933067515010
 Root    117 :    38.407035252322630
 Root    118 :    38.974353946389660
 Root    119 :    39.833253368321010
 Root    120 :    43.788650448671330
 Iteration     2 Dimension   180 NMult   120 NNew     60
 CISAX will form    60 AO SS matrices at one time.
 NMat=    60 NSing=    60 JSym2X=-1.
 Root      1 not converged, maximum delta is    0.006738551336774
 Root      2 not converged, maximum delta is    0.005285371944523
 Root      3 not converged, maximum delta is    0.009696967207858
 Root      4 not converged, maximum delta is    0.008083199743332
 Root      5 not converged, maximum delta is    0.007723463926010
 Root      6 not converged, maximum delta is    0.003529856088701
 Root      7 not converged, maximum delta is    0.011293018387955
 Root      8 not converged, maximum delta is    0.003634732309542
 Root      9 not converged, maximum delta is    0.001986418951802
 Root     10 not converged, maximum delta is    0.001920732903768
 Root     11 not converged, maximum delta is    0.003207000471914
 Root     12 not converged, maximum delta is    0.001575368629855
 Root     13 not converged, maximum delta is    0.003228984461121
 Root     14 not converged, maximum delta is    0.002648515084773
 Root     15 not converged, maximum delta is    0.005004648157854
 Root     16 not converged, maximum delta is    0.002564559787381
 Root     17 not converged, maximum delta is    0.005777194780230
 Root     18 not converged, maximum delta is    0.004823677495487
 Root     19 not converged, maximum delta is    0.032113047771102
 Root     20 not converged, maximum delta is    0.009064984322870
 Root     21 not converged, maximum delta is    0.004098337785513
 Root     22 not converged, maximum delta is    0.032897704952492
 Root     23 not converged, maximum delta is    0.004439468612313
 Root     24 not converged, maximum delta is    0.001564698921910
 Root     25 not converged, maximum delta is    0.006993461953306
 Root     26 not converged, maximum delta is    0.004779602511575
 Root     27 not converged, maximum delta is    0.002842148926430
 Root     28 not converged, maximum delta is    0.006925518581101
 Root     29 not converged, maximum delta is    0.006631960931829
 Root     30 not converged, maximum delta is    0.005779651416403
 Excitation Energies [eV] at current iteration:
 Root      1 :     1.755683219844861   Change is   -0.008277099859534
 Root      2 :     4.556222313590961   Change is   -0.018536281208591
 Root      3 :     4.949558327017436   Change is   -0.029802014656427
 Root      4 :     5.411951528760565   Change is   -0.031543659926190
 Root      5 :     6.460552330499016   Change is   -0.018194155386060
 Root      6 :     6.986821569650264   Change is   -0.003701670030628
 Root      7 :     7.305336398930278   Change is   -0.015291941511718
 Root      8 :     7.863147553040098   Change is   -0.002286395304552
 Root      9 :     8.039317495064500   Change is   -0.001029056966172
 Root     10 :     8.597624861907095   Change is   -0.000373951903378
 Root     11 :     8.793528745652543   Change is   -0.006569140888460
 Root     12 :     8.881847459513967   Change is   -0.000525938160900
 Root     13 :     9.490932055755211   Change is   -0.002613714719350
 Root     14 :     9.709957879859230   Change is   -0.002916743919185
 Root     15 :     9.883156768361347   Change is   -0.007994778542889
 Root     16 :    10.168946651074960   Change is   -0.001947852435370
 Root     17 :    10.412779665780590   Change is   -0.008871156919470
 Root     18 :    10.955814456710520   Change is   -0.002686344414332
 Root     19 :    11.180896682096940   Change is   -0.004638756692009
 Root     20 :    11.253158083034150   Change is   -0.013303191766536
 Root     21 :    11.306666522955900   Change is   -0.002323062399710
 Root     22 :    11.331573176377100   Change is   -0.024570772040022
 Root     23 :    11.593413032634190   Change is   -0.007024891156209
 Root     24 :    11.777540888804190   Change is   -0.000819492145348
 Root     25 :    12.165223192329100   Change is   -0.003916870833957
 Root     26 :    12.283841504647520   Change is   -0.005017224319132
 Root     27 :    12.628142637865710   Change is   -0.002383166401922
 Root     28 :    12.795113386701900   Change is   -0.016538590447794
 Root     29 :    13.096450906435240   Change is   -0.004744665002622
 Root     30 :    13.282026355725510   Change is   -0.007300734308546
 Iteration     3 Dimension   240 NMult   180 NNew     60
 CISAX will form    60 AO SS matrices at one time.
 NMat=    60 NSing=    60 JSym2X=-1.
 Root      1 has converged.
 Root      2 has converged.
 Root      3 has converged.
 Root      4 has converged.
 Root      5 has converged.
 Root      6 has converged.
 Root      7 has converged.
 Root      8 has converged.
 Root      9 has converged.
 Root     10 has converged.
 Root     11 has converged.
 Root     12 has converged.
 Root     13 has converged.
 Root     14 has converged.
 Root     15 has converged.
 Root     16 has converged.
 Root     17 has converged.
 Root     18 has converged.
 Root     19 has converged.
 Root     20 has converged.
 Root     21 has converged.
 Root     22 has converged.
 Root     23 has converged.
 Root     24 has converged.
 Root     25 has converged.
 Root     26 has converged.
 Root     27 has converged.
 Root     28 has converged.
 Root     29 has converged.
 Root     30 has converged.
 Excitation Energies [eV] at current iteration:
 Root      1 :     1.755682114800262   Change is   -0.000001105044599
 Root      2 :     4.556206767765756   Change is   -0.000015545825205
 Root      3 :     4.949541621530669   Change is   -0.000016705486767
 Root      4 :     5.411936007412639   Change is   -0.000015521347926
 Root      5 :     6.460545398862775   Change is   -0.000006931636241
 Root      6 :     6.986819526622599   Change is   -0.000002043027664
 Root      7 :     7.305330581754936   Change is   -0.000005817175342
 Root      8 :     7.863146548850234   Change is   -0.000001004189864
 Root      9 :     8.039316472221081   Change is   -0.000001022843419
 Root     10 :     8.597624802503107   Change is   -0.000000059403987
 Root     11 :     8.793523111422127   Change is   -0.000005634230415
 Root     12 :     8.881847159154038   Change is   -0.000000300359928
 Root     13 :     9.490927417306986   Change is   -0.000004638448225
 Root     14 :     9.709955819259257   Change is   -0.000002060599974
 Root     15 :     9.883140468974428   Change is   -0.000016299386920
 Root     16 :    10.168945124333930   Change is   -0.000001526741023
 Root     17 :    10.412764880215940   Change is   -0.000014785564643
 Root     18 :    10.955811313364050   Change is   -0.000003143346465
 Root     19 :    11.180889461785430   Change is   -0.000007220311507
 Root     20 :    11.253124165506100   Change is   -0.000033917528056
 Root     21 :    11.306662999164780   Change is   -0.000003523791118
 Root     22 :    11.331544339324880   Change is   -0.000028837052220
 Root     23 :    11.593406027502570   Change is   -0.000007005131616
 Root     24 :    11.777540431445580   Change is   -0.000000457358614
 Root     25 :    12.165221608128730   Change is   -0.000001584200366
 Root     26 :    12.283834454076710   Change is   -0.000007050570813
 Root     27 :    12.628138151920430   Change is   -0.000004485945287
 Root     28 :    12.795071657342050   Change is   -0.000041729359852
 Root     29 :    13.096444059479220   Change is   -0.000006846956023
 Root     30 :    13.282006644386430   Change is   -0.000019711339081
 Convergence achieved on expansion vectors.
 ***********************************************************************
 Excited states from <AA,BB:AA,BB> singles matrix:
 ***********************************************************************
 
 1PDM for each excited state written to RWF  633
 Ground to excited state transition densities written to RWF  633
 Ground to excited state transition electric dipole moments (Au):
       state          X           Y           Z        Dip. S.      Osc.
         1        -0.0000      0.0000     -0.0000      0.0000      0.0000
         2        -0.0000     -0.0000      0.7329      0.5372      0.0600
         3         0.1009      0.0000      0.0000      0.0102      0.0012
         4         0.0000     -0.2556     -0.0000      0.0654      0.0087
         5        -0.2197     -0.0000      0.0000      0.0483      0.0076
         6         0.0000     -0.0911      0.0000      0.0083      0.0014
         7         0.0000     -0.0000      0.0000      0.0000      0.0000
         8        -0.6601     -0.0000      0.0000      0.4357      0.0839
         9        -0.0000      0.0000     -0.2955      0.0873      0.0172
        10        -0.0000      0.0000      0.0000      0.0000      0.0000
        11         0.0000     -0.3433     -0.0000      0.1179      0.0254
        12         0.0000     -0.0000     -0.0000      0.0000      0.0000
        13         0.0000     -0.0000      0.2923      0.0855      0.0199
        14        -0.2762      0.0000     -0.0000      0.0763      0.0181
        15        -0.0000     -0.0000     -0.8996      0.8094      0.1960
        16        -0.0000     -0.3175     -0.0000      0.1008      0.0251
        17         0.0000      0.0000     -0.4253      0.1809      0.0461
        18        -0.4158     -0.0000     -0.0000      0.1729      0.0464
        19         0.0000     -0.3325      0.0000      0.1105      0.0303
        20         0.0000     -0.0000     -1.0261      1.0528      0.2903
        21        -0.0000      0.0000      0.0000      0.0000      0.0000
        22         0.0000      0.0327     -0.0000      0.0011      0.0003
        23        -0.0000     -0.0598      0.0000      0.0036      0.0010
        24        -0.1104      0.0000     -0.0000      0.0122      0.0035
        25         0.0000     -0.0000     -0.0000      0.0000      0.0000
        26         0.0000     -0.6806     -0.0000      0.4632      0.1394
        27         0.1181     -0.0000     -0.0000      0.0140      0.0043
        28        -0.0000      0.0000      1.0555      1.1141      0.3493
        29         0.0000      0.0000     -0.3204      0.1027      0.0329
        30         0.0000      0.0000      0.5248      0.2754      0.0896
 Ground to excited state transition velocity dipole moments (Au):
       state          X           Y           Z        Dip. S.      Osc.
         1         0.0000      0.0000      0.0000      0.0000      0.0000
         2        -0.0000      0.0000     -0.1103      0.0122      0.0484
         3        -0.0374      0.0000      0.0000      0.0014      0.0051
         4        -0.0000      0.0491      0.0000      0.0024      0.0081
         5         0.0430      0.0000     -0.0000      0.0018      0.0052
         6        -0.0000      0.0194     -0.0000      0.0004      0.0010
         7         0.0000      0.0000     -0.0000      0.0000      0.0000
         8         0.1934      0.0000     -0.0000      0.0374      0.0863
         9        -0.0000     -0.0000      0.0851      0.0072      0.0163
        10         0.0000     -0.0000     -0.0000      0.0000      0.0000
        11         0.0000      0.1156      0.0000      0.0134      0.0275
        12        -0.0000      0.0000      0.0000      0.0000      0.0000
        13        -0.0000     -0.0000     -0.0995      0.0099      0.0189
        14         0.1139     -0.0000     -0.0000      0.0130      0.0242
        15        -0.0000      0.0000      0.3313      0.1098      0.2015
        16         0.0000      0.1218      0.0000      0.0148      0.0264
        17         0.0000     -0.0000      0.1735      0.0301      0.0525
        18         0.1515      0.0000      0.0000      0.0229      0.0380
        19        -0.0000      0.1391     -0.0000      0.0193      0.0314
        20        -0.0000     -0.0000      0.4263      0.1818      0.2930
        21         0.0000     -0.0000     -0.0000      0.0000      0.0000
        22        -0.0000     -0.0182      0.0000      0.0003      0.0005
        23         0.0000      0.0170      0.0000      0.0003      0.0004
        24         0.0429     -0.0000      0.0000      0.0018      0.0028
        25        -0.0000      0.0000      0.0000      0.0000      0.0000
        26        -0.0000      0.3022      0.0000      0.0913      0.1349
        27        -0.0458      0.0000      0.0000      0.0021      0.0030
        28         0.0000     -0.0000     -0.4817      0.2321      0.3290
        29         0.0000     -0.0000      0.1436      0.0206      0.0286
        30        -0.0000     -0.0000     -0.2458      0.0604      0.0825
 Ground to excited state transition magnetic dipole moments (Au):
       state          X           Y           Z
         1         0.0000      0.0000      1.0123
         2         0.0000     -0.0000      0.0000
         3         0.0000     -1.7656      0.0000
         4         0.2961      0.0000      0.0000
         5         0.0000     -0.5758      0.0000
         6        -0.3756      0.0000      0.0000
         7         0.0000     -0.0000     -1.0090
         8        -0.0000     -0.1960     -0.0000
         9         0.0000     -0.0000     -0.0000
        10         0.0000     -0.0000      0.0052
        11        -0.5653      0.0000     -0.0000
        12        -0.0000      0.0000      0.0260
        13         0.0000     -0.0000      0.0000
        14         0.0000      0.3506     -0.0000
        15        -0.0000     -0.0000      0.0000
        16         0.4011      0.0000     -0.0000
        17         0.0000      0.0000     -0.0000
        18         0.0000      0.2263     -0.0000
        19        -0.4186     -0.0000      0.0000
        20         0.0000      0.0000     -0.0000
        21         0.0000      0.0000     -0.0608
        22         0.4986     -0.0000      0.0000
        23         0.1323     -0.0000      0.0000
        24        -0.0000      0.1087      0.0000
        25         0.0000     -0.0000     -0.0333
        26         0.8860      0.0000     -0.0000
        27         0.0000      0.0210      0.0000
        28        -0.0000     -0.0000      0.0000
        29        -0.0000     -0.0000      0.0000
        30        -0.0000     -0.0000      0.0000
 Ground to excited state transition velocity quadrupole moments (Au):
       state          XX          YY          ZZ          XY          XZ          YZ
         1         0.0000     -0.0000     -0.0000     -0.0334     -0.0000      0.0000
         2         0.0733     -0.0057     -0.0396      0.0000     -0.0000      0.0000
         3        -0.0000     -0.0000     -0.0000     -0.0000     -0.1246     -0.0000
         4        -0.0000     -0.0000     -0.0000     -0.0000     -0.0000     -0.0073
         5        -0.0000      0.0000      0.0000     -0.0000      0.1965      0.0000
         6         0.0000     -0.0000      0.0000     -0.0000      0.0000      0.2997
         7         0.0000     -0.0000     -0.0000      0.1773      0.0000     -0.0000
         8         0.0000     -0.0000      0.0000      0.0000     -0.1137     -0.0000
         9         0.0355      0.0428     -0.2194      0.0000     -0.0000     -0.0000
        10         0.0000     -0.0000      0.0000      0.0663     -0.0000      0.0000
        11        -0.0000      0.0000      0.0000     -0.0000     -0.0000      0.1981
        12        -0.0000      0.0000     -0.0000      0.2828      0.0000      0.0000
        13         0.8032      0.0491     -0.0667      0.0000     -0.0000     -0.0000
        14         0.0000      0.0000     -0.0000      0.0000      0.3163     -0.0000
        15         0.1303      0.0483     -0.3333     -0.0000     -0.0000      0.0000
        16         0.0000      0.0000     -0.0000      0.0000      0.0000     -0.0805
        17         0.2694      0.3138      0.5522      0.0000      0.0000     -0.0000
        18         0.0000      0.0000     -0.0000      0.0000     -0.0459     -0.0000
        19        -0.0000     -0.0000      0.0000      0.0000      0.0000     -0.5976
        20        -0.0526     -0.4013     -0.1795     -0.0000      0.0000     -0.0000
        21         0.0000      0.0000     -0.0000     -0.2702     -0.0000      0.0000
        22         0.0000     -0.0000     -0.0000      0.0000     -0.0000      0.3317
        23        -0.0000     -0.0000      0.0000     -0.0000     -0.0000      0.4406
        24         0.0000      0.0000     -0.0000     -0.0000     -0.1411     -0.0000
        25         0.0000     -0.0000     -0.0000      0.3786     -0.0000     -0.0000
        26         0.0000     -0.0000     -0.0000     -0.0000      0.0000     -0.6384
        27         0.0000     -0.0000     -0.0000      0.0000      0.3137     -0.0000
        28        -0.2801      0.5460     -0.1931      0.0000     -0.0000      0.0000
        29        -0.2397      0.3407      0.2073     -0.0000     -0.0000      0.0000
        30        -0.0334      0.3149      0.2557      0.0000     -0.0000      0.0000
 <0|del|b> * <b|rxdel|0> + <0|del|b> * <b|delr+rdel|0>
 Rotatory Strengths (R) in cgs (10**-40 erg-esu-cm/Gauss)
       state          XX          YY          ZZ    R(velocity)    E-M Angle
         1         0.0000      0.0000     -0.0000      0.0000       90.00
         2        -0.0000      0.0000     -0.0000     -0.0000       90.00
         3        -0.0000     -0.0000     -0.0000     -0.0000       90.00
         4         0.0000     -0.0000      0.0000      0.0000       90.00
         5        -0.0000      0.0000     -0.0000     -0.0000       90.00
         6        -0.0000      0.0000      0.0000      0.0000       90.00
         7         0.0000      0.0000     -0.0000      0.0000       90.00
         8        -0.0000     -0.0000     -0.0000     -0.0000       90.00
         9         0.0000     -0.0000      0.0000     -0.0000       90.00
        10        -0.0000      0.0000      0.0000     -0.0000       90.00
        11         0.0000     -0.0000     -0.0000     -0.0000       90.00
        12         0.0000     -0.0000      0.0000      0.0000       90.00
        13        -0.0000     -0.0000     -0.0000     -0.0000       90.00
        14        -0.0000     -0.0000     -0.0000     -0.0000       90.00
        15        -0.0000      0.0000      0.0000      0.0000       90.00
        16         0.0000      0.0000      0.0000      0.0000       90.00
        17         0.0000     -0.0000      0.0000     -0.0000       90.00
        18         0.0000     -0.0000      0.0000      0.0000       90.00
        19        -0.0000      0.0000     -0.0000      0.0000       90.00
        20        -0.0000      0.0000     -0.0000     -0.0000       90.00
        21         0.0000     -0.0000      0.0000      0.0000       90.00
        22         0.0000     -0.0000      0.0000     -0.0000       90.00
        23         0.0000      0.0000     -0.0000      0.0000       90.00
        24        -0.0000     -0.0000      0.0000     -0.0000       90.00
        25         0.0000     -0.0000     -0.0000     -0.0000       90.00
        26         0.0000     -0.0000     -0.0000      0.0000       90.00
        27        -0.0000     -0.0000      0.0000     -0.0000       90.00
        28        -0.0000      0.0000      0.0000     -0.0000       90.00
        29         0.0000      0.0000      0.0000      0.0000       90.00
        30        -0.0000     -0.0000      0.0000     -0.0000       90.00
 1/2[<0|r|b>*<b|rxdel|0> + (<0|rxdel|b>*<b|r|0>)*]
 Rotatory Strengths (R) in cgs (10**-40 erg-esu-cm/Gauss)
       state          XX          YY          ZZ     R(length)
         1         0.0000     -0.0000      0.0000      0.0000
         2         0.0000     -0.0000     -0.0000     -0.0000
         3        -0.0000      0.0000     -0.0000      0.0000
         4        -0.0000      0.0000      0.0000      0.0000
         5         0.0000     -0.0000     -0.0000     -0.0000
         6         0.0000      0.0000     -0.0000      0.0000
         7        -0.0000     -0.0000      0.0000      0.0000
         8        -0.0000     -0.0000      0.0000     -0.0000
         9         0.0000      0.0000     -0.0000     -0.0000
        10         0.0000      0.0000     -0.0000     -0.0000
        11         0.0000      0.0000     -0.0000      0.0000
        12         0.0000      0.0000      0.0000      0.0000
        13        -0.0000     -0.0000     -0.0000     -0.0000
        14         0.0000     -0.0000     -0.0000      0.0000
        15        -0.0000     -0.0000      0.0000      0.0000
        16         0.0000      0.0000     -0.0000      0.0000
        17        -0.0000     -0.0000     -0.0000     -0.0000
        18         0.0000      0.0000     -0.0000      0.0000
        19         0.0000     -0.0000     -0.0000      0.0000
        20        -0.0000      0.0000     -0.0000     -0.0000
        21         0.0000     -0.0000      0.0000      0.0000
        22        -0.0000      0.0000      0.0000     -0.0000
        23         0.0000     -0.0000     -0.0000     -0.0000
        24        -0.0000     -0.0000      0.0000     -0.0000
        25        -0.0000     -0.0000     -0.0000     -0.0000
        26        -0.0000      0.0000     -0.0000      0.0000
        27        -0.0000      0.0000      0.0000     -0.0000
        28        -0.0000      0.0000     -0.0000     -0.0000
        29         0.0000      0.0000      0.0000      0.0000
        30         0.0000      0.0000     -0.0000     -0.0000
  1/2[<0|del|b>*<b|r|0> + (<0|r|b>*<b|del|0>)*] (Au)
       state          X           Y           Z        Dip. S.   Osc.(frdel)
         1        -0.0000      0.0000     -0.0000     -0.0000     -0.0000
         2         0.0000     -0.0000     -0.0808      0.0808      0.0539
         3        -0.0038      0.0000      0.0000      0.0038      0.0025
         4        -0.0000     -0.0125     -0.0000      0.0125      0.0084
         5        -0.0094     -0.0000     -0.0000      0.0094      0.0063
         6        -0.0000     -0.0018     -0.0000      0.0018      0.0012
         7         0.0000     -0.0000     -0.0000      0.0000      0.0000
         8        -0.1276     -0.0000     -0.0000      0.1276      0.0851
         9         0.0000     -0.0000     -0.0251      0.0251      0.0168
        10        -0.0000     -0.0000     -0.0000      0.0000      0.0000
        11         0.0000     -0.0397     -0.0000      0.0397      0.0264
        12        -0.0000     -0.0000     -0.0000      0.0000      0.0000
        13        -0.0000      0.0000     -0.0291      0.0291      0.0194
        14        -0.0315     -0.0000      0.0000      0.0315      0.0210
        15         0.0000     -0.0000     -0.2980      0.2980      0.1987
        16        -0.0000     -0.0387     -0.0000      0.0387      0.0258
        17         0.0000     -0.0000     -0.0738      0.0738      0.0492
        18        -0.0630     -0.0000     -0.0000      0.0630      0.0420
        19        -0.0000     -0.0462     -0.0000      0.0462      0.0308
        20        -0.0000      0.0000     -0.4374      0.4374      0.2916
        21        -0.0000     -0.0000     -0.0000      0.0000      0.0000
        22        -0.0000     -0.0006     -0.0000      0.0006      0.0004
        23        -0.0000     -0.0010      0.0000      0.0010      0.0007
        24        -0.0047     -0.0000     -0.0000      0.0047      0.0032
        25        -0.0000     -0.0000     -0.0000      0.0000      0.0000
        26        -0.0000     -0.2057     -0.0000      0.2057      0.1371
        27        -0.0054     -0.0000     -0.0000      0.0054      0.0036
        28        -0.0000     -0.0000     -0.5085      0.5085      0.3390
        29         0.0000     -0.0000     -0.0460      0.0460      0.0307
        30        -0.0000     -0.0000     -0.1290      0.1290      0.0860

 Excitation energies and oscillator strengths:
 
 Excited State   1:      Singlet-A2     1.7557 eV  706.19 nm  f=0.0000  <S**2>=0.000
       3 -> 27         0.00103
       3 -> 38         0.00073
       3 -> 46         0.00333
       4 -> 27         0.00059
       4 -> 46        -0.00121
       5 ->  9         0.00544
       5 -> 13         0.00105
       5 -> 18         0.00250
       5 -> 23         0.00159
       5 -> 28         0.00212
       5 -> 31        -0.00010
       5 -> 37         0.00116
       5 -> 44         0.00029
       5 -> 52         0.00029
       6 -> 27        -0.00062
       6 -> 38        -0.00071
       6 -> 46         0.00122
       7 -> 12        -0.00101
       7 -> 16         0.00494
       7 -> 19        -0.00422
       7 -> 22        -0.00092
       7 -> 25         0.00083
       7 -> 30        -0.00165
       7 -> 33         0.00034
       7 -> 49         0.00012
       7 -> 50         0.00013
       7 -> 53         0.00043
       8 ->  9         0.70909
       8 -> 13        -0.01099
       8 -> 18         0.02143
       8 -> 23        -0.00258
       8 -> 28         0.01090
       8 -> 31         0.00131
       8 -> 37         0.00059
       8 -> 48        -0.00031
       8 -> 52         0.00192
       3 <- 27         0.00042
       3 <- 38         0.00047
       3 <- 46         0.00338
       4 <- 27         0.00106
       4 <- 38         0.00023
       4 <- 46        -0.00097
       5 <- 13        -0.00046
       5 <- 18        -0.00059
       5 <- 23         0.00024
       5 <- 28        -0.00041
       5 <- 31         0.00031
       5 <- 37         0.00066
       6 <- 38        -0.00057
       6 <- 46         0.00093
       7 <- 12         0.00098
       7 <- 16        -0.01028
       7 <- 19         0.00429
       7 <- 22         0.00662
       7 <- 25         0.00058
       7 <- 30         0.00541
       7 <- 33        -0.00044
       7 <- 36         0.00058
       7 <- 40        -0.00037
       7 <- 42         0.00016
       7 <- 49        -0.00044
       7 <- 53         0.00146
       8 <-  9        -0.05800
       8 <- 13         0.00019
       8 <- 18        -0.00695
       8 <- 28        -0.00252
       8 <- 31        -0.00069
       8 <- 37        -0.00037
       8 <- 48         0.00011
       8 <- 52         0.00049
 This state for optimization and/or second-order correction.
 Total Energy, E(TD-HF/TD-DFT) =  -114.339253833    
 Copying the excited state density for this state as the 1-particle RhoCI density.
 
 Excited State   2:      Singlet-A1     4.5562 eV  272.12 nm  f=0.0600  <S**2>=0.000
       3 -> 10        -0.01793
       3 -> 11        -0.00934
       3 -> 14         0.00770
       3 -> 15         0.00325
       3 -> 17        -0.00341
       3 -> 20        -0.00398
       3 -> 21        -0.00053
       3 -> 24         0.00181
       3 -> 26         0.00309
       3 -> 29        -0.00129
       3 -> 32         0.00276
       3 -> 34         0.00189
       3 -> 35        -0.00119
       3 -> 39         0.00070
       3 -> 43         0.00048
       3 -> 45         0.00037
       3 -> 47         0.00229
       3 -> 51         0.00121
       3 -> 54         0.00011
       4 -> 10        -0.00757
       4 -> 11         0.01301
       4 -> 14         0.00410
       4 -> 15        -0.00951
       4 -> 17         0.00291
       4 -> 20         0.00423
       4 -> 21         0.00040
       4 -> 24        -0.00462
       4 -> 26         0.00459
       4 -> 29         0.00097
       4 -> 32        -0.00136
       4 -> 34        -0.00138
       4 -> 35         0.00041
       4 -> 41         0.00012
       4 -> 43        -0.00050
       4 -> 45        -0.00083
       4 -> 47        -0.00108
       4 -> 51        -0.00033
       4 -> 54         0.00013
       5 -> 12         0.01480
       5 -> 16         0.00804
       5 -> 19         0.00142
       5 -> 22         0.00752
       5 -> 25         0.00716
       5 -> 33        -0.00288
       5 -> 36         0.00278
       5 -> 40        -0.00139
       5 -> 42         0.00072
       5 -> 49         0.00038
       5 -> 50        -0.00073
       5 -> 53        -0.00010
       6 -> 10         0.18896
       6 -> 11         0.08373
       6 -> 14        -0.08348
       6 -> 15        -0.04672
       6 -> 17        -0.01904
       6 -> 20        -0.00762
       6 -> 21         0.01096
       6 -> 24        -0.01211
       6 -> 26        -0.00566
       6 -> 29        -0.00719
       6 -> 32         0.00148
       6 -> 34         0.00142
       6 -> 35        -0.00033
       6 -> 39         0.00098
       6 -> 41        -0.00031
       6 -> 43         0.00085
       6 -> 45         0.00082
       6 -> 47         0.00109
       6 -> 51         0.00078
       6 -> 54        -0.00077
       7 ->  9         0.68210
       7 -> 13        -0.00211
       7 -> 18        -0.01599
       7 -> 23        -0.00090
       7 -> 28        -0.00053
       7 -> 31        -0.00314
       7 -> 37         0.00105
       7 -> 44        -0.00103
       7 -> 48         0.00031
       7 -> 52         0.00105
       8 -> 12        -0.00781
       8 -> 16         0.05876
       8 -> 19        -0.02276
       8 -> 22        -0.02209
       8 -> 25         0.00034
       8 -> 30        -0.01089
       8 -> 33         0.00178
       8 -> 36        -0.00198
       8 -> 40         0.00096
       8 -> 42        -0.00036
       8 -> 49         0.00047
       8 -> 50         0.00021
       8 -> 53        -0.00064
       3 <- 10        -0.01264
       3 <- 11        -0.00699
       3 <- 14         0.00591
       3 <- 15         0.00204
       3 <- 17        -0.00181
       3 <- 20        -0.00303
       3 <- 21        -0.00094
       3 <- 24         0.00104
       3 <- 26         0.00173
       3 <- 29        -0.00078
       3 <- 32         0.00251
       3 <- 34         0.00115
       3 <- 35        -0.00104
       3 <- 39         0.00065
       3 <- 43         0.00057
       3 <- 45         0.00056
       3 <- 47         0.00235
       3 <- 51         0.00119
       3 <- 54         0.00023
       4 <- 10        -0.00347
       4 <- 11         0.00849
       4 <- 14         0.00228
       4 <- 15        -0.00587
       4 <- 17         0.00156
       4 <- 20         0.00389
       4 <- 21         0.00026
       4 <- 24        -0.00326
       4 <- 26         0.00374
       4 <- 29         0.00022
       4 <- 32        -0.00163
       4 <- 34        -0.00119
       4 <- 35         0.00067
       4 <- 43        -0.00048
       4 <- 45        -0.00087
       4 <- 47        -0.00070
       4 <- 51        -0.00018
       5 <- 12         0.00726
       5 <- 16         0.00443
       5 <- 19         0.00102
       5 <- 22         0.00487
       5 <- 25         0.00507
       5 <- 30         0.00015
       5 <- 33        -0.00228
       5 <- 36         0.00230
       5 <- 40        -0.00122
       5 <- 42         0.00060
       5 <- 49         0.00034
       5 <- 50        -0.00067
       6 <- 10         0.05920
       6 <- 11         0.02864
       6 <- 14        -0.03455
       6 <- 15        -0.02121
       6 <- 17        -0.00986
       6 <- 20        -0.00544
       6 <- 21         0.00668
       6 <- 24        -0.00756
       6 <- 26        -0.00326
       6 <- 29        -0.00500
       6 <- 32         0.00186
       6 <- 34         0.00169
       6 <- 35        -0.00068
       6 <- 39         0.00100
       6 <- 41        -0.00023
       6 <- 43         0.00072
       6 <- 45         0.00069
       6 <- 47         0.00066
       6 <- 51         0.00062
       6 <- 54        -0.00067
       7 <-  9        -0.12742
       7 <- 13         0.00626
       7 <- 18        -0.01325
       7 <- 23         0.00267
       7 <- 28        -0.00324
       7 <- 31        -0.00150
       7 <- 37         0.00043
       7 <- 44        -0.00067
       7 <- 48        -0.00025
       7 <- 52         0.00094
       8 <- 12        -0.00219
       8 <- 16         0.02311
       8 <- 19        -0.01070
       8 <- 22        -0.01271
       8 <- 30        -0.00811
       8 <- 33         0.00135
       8 <- 36        -0.00154
       8 <- 40         0.00077
       8 <- 42        -0.00029
       8 <- 49         0.00030
       8 <- 50         0.00017
       8 <- 53        -0.00059
 
 Excited State   3:      Singlet-B1     4.9495 eV  250.50 nm  f=0.0012  <S**2>=0.000
       3 ->  9        -0.02728
       3 -> 13         0.00143
       3 -> 18        -0.00432
       3 -> 23         0.00158
       3 -> 28        -0.00082
       3 -> 31        -0.00049
       3 -> 44         0.00024
       3 -> 48         0.00098
       3 -> 52         0.00091
       4 ->  9         0.01262
       4 -> 13        -0.00259
       4 -> 18         0.00018
       4 -> 23        -0.00233
       4 -> 28         0.00028
       4 -> 31        -0.00144
       4 -> 37        -0.00038
       4 -> 44         0.00012
       4 -> 48        -0.00097
       4 -> 52        -0.00051
       5 -> 38         0.00200
       5 -> 46         0.00075
       6 ->  9         0.70298
       6 -> 13        -0.01907
       6 -> 18         0.01599
       6 -> 23        -0.01074
       6 -> 28         0.00394
       6 -> 31         0.00303
       6 -> 37        -0.00203
       6 -> 44        -0.00259
       6 -> 48         0.00394
       6 -> 52         0.00134
       7 -> 10         0.07020
       7 -> 11         0.02629
       7 -> 14        -0.02015
       7 -> 15        -0.00620
       7 -> 17        -0.00896
       7 -> 20         0.00319
       7 -> 21         0.00058
       7 -> 24        -0.00099
       7 -> 26        -0.00181
       7 -> 29        -0.00385
       7 -> 32        -0.00041
       7 -> 34         0.00091
       7 -> 35         0.00170
       7 -> 39         0.00016
       7 -> 41        -0.00041
       7 -> 43         0.00051
       7 -> 47         0.00404
       7 -> 51         0.00120
       7 -> 54         0.00031
       8 -> 27         0.00034
       8 -> 46         0.00503
       3 <-  9        -0.00920
       3 <- 13        -0.00075
       3 <- 18        -0.00278
       3 <- 23        -0.00060
       3 <- 28        -0.00050
       3 <- 31        -0.00070
       3 <- 37         0.00011
       3 <- 44        -0.00021
       3 <- 48         0.00114
       3 <- 52         0.00074
       4 <-  9         0.00668
       4 <- 13        -0.00036
       4 <- 18         0.00179
       4 <- 23        -0.00070
       4 <- 28         0.00152
       4 <- 31        -0.00096
       4 <- 37        -0.00023
       4 <- 48        -0.00084
       4 <- 52        -0.00029
       5 <- 27        -0.00049
       5 <- 38         0.00165
       5 <- 46         0.00066
       6 <-  9        -0.02761
       6 <- 13         0.00175
       6 <- 18        -0.00351
       6 <- 23        -0.00023
       6 <- 28        -0.00352
       6 <- 31         0.00098
       6 <- 37        -0.00174
       6 <- 44        -0.00129
       6 <- 48         0.00352
       6 <- 52         0.00040
       7 <- 10        -0.02438
       7 <- 11        -0.01170
       7 <- 14         0.01509
       7 <- 15         0.01071
       7 <- 17         0.00191
       7 <- 20         0.00454
       7 <- 21        -0.00398
       7 <- 24         0.00439
       7 <- 26         0.00170
       7 <- 29         0.00135
       7 <- 32         0.00013
       7 <- 34         0.00101
       7 <- 35         0.00238
       7 <- 39         0.00049
       7 <- 43         0.00035
       7 <- 45        -0.00018
       7 <- 47         0.00372
       7 <- 51         0.00113
       7 <- 54         0.00103
       8 <- 27         0.00082
       8 <- 38         0.00021
       8 <- 46         0.00470
 
 Excited State   4:      Singlet-B2     5.4119 eV  229.09 nm  f=0.0087  <S**2>=0.000
       3 -> 12        -0.00148
       3 -> 16         0.00196
       3 -> 19        -0.00462
       3 -> 22         0.00070
       3 -> 25         0.00063
       3 -> 30        -0.00332
       3 -> 33        -0.00013
       3 -> 36         0.00209
       3 -> 40        -0.00179
       3 -> 42         0.00034
       3 -> 49        -0.00312
       3 -> 50         0.00022
       3 -> 53         0.00031
       4 -> 12         0.00046
       4 -> 16        -0.00240
       4 -> 19         0.00034
       4 -> 22         0.00273
       4 -> 25        -0.00147
       4 -> 30         0.00140
       4 -> 33        -0.00046
       4 -> 36         0.00053
       4 -> 40         0.00047
       4 -> 49         0.00055
       4 -> 50        -0.00012
       5 -> 10         0.00990
       5 -> 11         0.00438
       5 -> 14        -0.00917
       5 -> 15         0.00427
       5 -> 20         0.00216
       5 -> 21         0.00533
       5 -> 24         0.00181
       5 -> 26        -0.00142
       5 -> 29        -0.00198
       5 -> 32        -0.00191
       5 -> 34        -0.00096
       5 -> 35        -0.00028
       5 -> 39        -0.00100
       5 -> 41         0.00065
       5 -> 45         0.00012
       5 -> 47        -0.00075
       5 -> 51         0.00046
       5 -> 54        -0.00024
       6 -> 12         0.00299
       6 -> 16        -0.00207
       6 -> 19         0.00349
       6 -> 22        -0.00035
       6 -> 25        -0.00093
       6 -> 30        -0.00041
       6 -> 33         0.00019
       6 -> 36        -0.00195
       6 -> 40         0.00160
       6 -> 42        -0.00052
       6 -> 49         0.00163
       6 -> 53        -0.00040
       7 -> 27        -0.00068
       7 -> 38         0.00070
       7 -> 46         0.00374
       8 -> 10         0.67128
       8 -> 11         0.18619
       8 -> 14        -0.11218
       8 -> 15        -0.04681
       8 -> 17        -0.01536
       8 -> 20         0.00036
       8 -> 21         0.00753
       8 -> 24        -0.00691
       8 -> 26        -0.00553
       8 -> 29        -0.01091
       8 -> 32        -0.00358
       8 -> 34        -0.00194
       8 -> 35         0.00013
       8 -> 39        -0.00073
       8 -> 43        -0.00027
       8 -> 45         0.00142
       8 -> 47        -0.00455
       8 -> 51         0.00215
       8 -> 54        -0.00196
       3 <- 12        -0.00054
       3 <- 16         0.00057
       3 <- 19        -0.00219
       3 <- 22         0.00094
       3 <- 25         0.00057
       3 <- 30        -0.00132
       3 <- 36         0.00157
       3 <- 40        -0.00158
       3 <- 42         0.00028
       3 <- 49        -0.00320
       3 <- 50         0.00019
       3 <- 53         0.00086
       4 <- 16        -0.00220
       4 <- 22         0.00263
       4 <- 25        -0.00092
       4 <- 30         0.00134
       4 <- 33        -0.00052
       4 <- 36         0.00075
       4 <- 40         0.00017
       4 <- 49         0.00041
       5 <- 10        -0.00036
       5 <- 11        -0.00140
       5 <- 14        -0.00104
       5 <- 15         0.00362
       5 <- 17         0.00021
       5 <- 20         0.00067
       5 <- 21         0.00207
       5 <- 24         0.00232
       5 <- 26        -0.00039
       5 <- 29        -0.00047
       5 <- 32        -0.00017
       5 <- 34        -0.00020
       5 <- 39        -0.00036
       5 <- 41         0.00067
       5 <- 43         0.00011
       5 <- 45         0.00039
       5 <- 47        -0.00066
       5 <- 51         0.00025
       6 <- 12        -0.00014
       6 <- 16         0.00622
       6 <- 19        -0.00287
       6 <- 22        -0.00449
       6 <- 25        -0.00071
       6 <- 30        -0.00523
       6 <- 33         0.00050
       6 <- 36        -0.00192
       6 <- 40         0.00162
       6 <- 42        -0.00059
       6 <- 49         0.00187
       6 <- 53        -0.00119
       7 <- 27        -0.00066
       7 <- 38         0.00055
       7 <- 46         0.00312
       8 <- 10        -0.02224
       8 <- 11        -0.01106
       8 <- 14         0.01117
       8 <- 15         0.00349
       8 <- 17         0.00067
       8 <- 20        -0.00268
       8 <- 21        -0.00213
       8 <- 24         0.00154
       8 <- 26         0.00185
       8 <- 29        -0.00054
       8 <- 32         0.00278
       8 <- 34         0.00127
       8 <- 35        -0.00043
       8 <- 39         0.00151
       8 <- 41         0.00047
       8 <- 43         0.00043
       8 <- 45         0.00215
       8 <- 47        -0.00350
       8 <- 51         0.00138
       8 <- 54        -0.00051
 
 Excited State   5:      Singlet-B1     6.4605 eV  191.91 nm  f=0.0076  <S**2>=0.000
       3 ->  9        -0.01427
       3 -> 13         0.00087
       3 -> 18        -0.00312
       3 -> 23         0.00101
       3 -> 28        -0.00340
       3 -> 31        -0.00159
       3 -> 44         0.00050
       3 -> 48        -0.00223
       4 ->  9        -0.03493
       4 -> 13         0.00639
       4 -> 18         0.00149
       4 -> 23         0.00465
       4 -> 28         0.00201
       4 -> 31        -0.00022
       4 -> 37         0.00036
       4 -> 44        -0.00046
       4 -> 48         0.00054
       4 -> 52         0.00011
       5 -> 27        -0.00736
       5 -> 38        -0.00310
       5 -> 46         0.00055
       6 ->  9        -0.07515
       6 -> 13        -0.00338
       6 -> 18         0.00230
       6 -> 23        -0.00115
       6 -> 28         0.00332
       6 -> 31        -0.00363
       6 -> 37         0.00187
       6 -> 48         0.00092
       6 -> 52        -0.00050
       7 -> 10         0.67515
       7 -> 11         0.15900
       7 -> 14        -0.09984
       7 -> 15        -0.05026
       7 -> 17        -0.00951
       7 -> 20        -0.00504
       7 -> 21         0.00356
       7 -> 24        -0.00963
       7 -> 26        -0.00762
       7 -> 29        -0.00657
       7 -> 32        -0.00158
       7 -> 34        -0.00397
       7 -> 35        -0.00198
       7 -> 39        -0.00068
       7 -> 43         0.00059
       7 -> 45         0.00083
       7 -> 47         0.00204
       7 -> 51         0.00104
       7 -> 54        -0.00131
       8 -> 27         0.00119
       8 -> 38         0.00033
       8 -> 46         0.00237
       3 <-  9        -0.00300
       3 <- 13         0.00066
       3 <- 18        -0.00127
       3 <- 23         0.00063
       3 <- 28        -0.00209
       3 <- 31        -0.00031
       3 <- 37        -0.00021
       3 <- 44         0.00022
       3 <- 48        -0.00242
       3 <- 52         0.00043
       4 <-  9        -0.01076
       4 <- 13         0.00236
       4 <- 18         0.00055
       4 <- 23         0.00225
       4 <- 28         0.00179
       4 <- 31        -0.00035
       4 <- 37         0.00043
       4 <- 44        -0.00069
       4 <- 48         0.00013
       5 <- 27        -0.00483
       5 <- 38        -0.00234
       5 <- 46         0.00050
       6 <-  9        -0.02393
       6 <- 18        -0.00359
       6 <- 23         0.00019
       6 <- 28        -0.00065
       6 <- 31        -0.00404
       6 <- 37         0.00157
       6 <- 44         0.00021
       6 <- 48         0.00125
       6 <- 52        -0.00104
       7 <- 10        -0.01666
       7 <- 11        -0.00815
       7 <- 14         0.00856
       7 <- 15        -0.00043
       7 <- 17         0.00104
       7 <- 20        -0.00327
       7 <- 21        -0.00229
       7 <- 24        -0.00105
       7 <- 26         0.00065
       7 <- 32         0.00176
       7 <- 34        -0.00150
       7 <- 35        -0.00198
       7 <- 39         0.00045
       7 <- 41         0.00021
       7 <- 43         0.00067
       7 <- 45         0.00080
       7 <- 47         0.00159
       7 <- 51         0.00049
       7 <- 54        -0.00051
       8 <- 27         0.00074
       8 <- 38         0.00015
       8 <- 46         0.00173
 
 Excited State   6:      Singlet-B2     6.9868 eV  177.45 nm  f=0.0014  <S**2>=0.000
       3 -> 12         0.00159
       3 -> 16         0.00117
       3 -> 19        -0.00045
       3 -> 22        -0.00031
       3 -> 25         0.00083
       3 -> 30        -0.00189
       3 -> 33         0.00016
       3 -> 36         0.00024
       3 -> 40        -0.00025
       3 -> 49        -0.00043
       4 -> 12        -0.00100
       4 -> 16         0.00091
       4 -> 19         0.00091
       4 -> 22        -0.00118
       4 -> 25         0.00090
       4 -> 30         0.00093
       4 -> 36         0.00018
       5 -> 10         0.00361
       5 -> 11        -0.00653
       5 -> 14         0.00441
       5 -> 15         0.00418
       5 -> 17         0.00046
       5 -> 20         0.00109
       5 -> 21        -0.00047
       5 -> 24        -0.00050
       5 -> 26        -0.00014
       5 -> 29        -0.00026
       5 -> 32        -0.00126
       5 -> 34         0.00054
       5 -> 35        -0.00024
       5 -> 39        -0.00040
       5 -> 41        -0.00024
       5 -> 43        -0.00026
       5 -> 45         0.00023
       5 -> 47        -0.00023
       5 -> 51         0.00017
       6 -> 12        -0.00259
       6 -> 16        -0.00069
       6 -> 19        -0.00011
       6 -> 22        -0.00061
       6 -> 25         0.00013
       6 -> 30        -0.00054
       6 -> 36         0.00027
       6 -> 40         0.00024
       6 -> 42        -0.00014
       6 -> 49         0.00094
       7 -> 27        -0.00054
       7 -> 38        -0.00034
       7 -> 46         0.00120
       8 -> 10        -0.18724
       8 -> 11         0.68089
       8 -> 14         0.01966
       8 -> 15        -0.02506
       8 -> 17        -0.00394
       8 -> 20         0.01383
       8 -> 21         0.00327
       8 -> 24        -0.00279
       8 -> 26         0.00218
       8 -> 29        -0.00190
       8 -> 32        -0.00050
       8 -> 34        -0.00057
       8 -> 35        -0.00049
       8 -> 39         0.00012
       8 -> 41        -0.00016
       8 -> 43         0.00031
       8 -> 45         0.00077
       8 -> 47        -0.00147
       8 -> 51         0.00067
       8 -> 54        -0.00024
       3 <- 16         0.00062
       3 <- 19        -0.00045
       3 <- 22        -0.00035
       3 <- 25         0.00034
       3 <- 30        -0.00102
       3 <- 36         0.00017
       3 <- 40        -0.00020
       3 <- 49        -0.00042
       3 <- 53         0.00018
       4 <- 12         0.00052
       4 <- 16         0.00074
       4 <- 19         0.00089
       4 <- 22        -0.00065
       4 <- 25         0.00065
       4 <- 30         0.00065
       4 <- 36         0.00010
       4 <- 42        -0.00013
       4 <- 50        -0.00013
       5 <- 10        -0.00176
       5 <- 11        -0.00034
       5 <- 14         0.00118
       5 <- 20         0.00020
       5 <- 21         0.00025
       5 <- 24        -0.00082
       5 <- 26         0.00046
       5 <- 29        -0.00014
       5 <- 32        -0.00045
       5 <- 34         0.00064
       5 <- 39        -0.00017
       5 <- 41        -0.00013
       5 <- 43        -0.00018
       5 <- 45         0.00023
       5 <- 47        -0.00026
       5 <- 51         0.00013
       6 <- 12        -0.00041
       6 <- 16         0.00069
       6 <- 19        -0.00047
       6 <- 22        -0.00066
       6 <- 30        -0.00088
       6 <- 36         0.00013
       6 <- 40         0.00027
       6 <- 42        -0.00016
       6 <- 49         0.00084
       6 <- 53        -0.00013
       7 <- 27        -0.00039
       7 <- 38        -0.00024
       7 <- 46         0.00103
       8 <- 10        -0.00382
       8 <- 11        -0.00246
       8 <- 14         0.00146
       8 <- 15         0.00111
       8 <- 17        -0.00100
       8 <- 20        -0.00223
       8 <- 24         0.00068
       8 <- 26         0.00019
       8 <- 29        -0.00062
       8 <- 32         0.00146
       8 <- 34         0.00066
       8 <- 35        -0.00101
       8 <- 39         0.00048
       8 <- 41         0.00017
       8 <- 43         0.00020
       8 <- 45         0.00064
       8 <- 47        -0.00115
       8 <- 51         0.00055
 
 Excited State   7:      Singlet-A2     7.3053 eV  169.72 nm  f=0.0000  <S**2>=0.000
       3 -> 27        -0.00125
       3 -> 38        -0.00042
       3 -> 46         0.00026
       4 -> 27        -0.00592
       4 -> 38         0.00044
       4 -> 46        -0.00031
       5 ->  9         0.70613
       5 -> 13        -0.02647
       5 -> 18         0.00522
       5 -> 23        -0.01546
       5 -> 28         0.00106
       5 -> 31        -0.00155
       5 -> 37        -0.00579
       5 -> 44        -0.00215
       6 -> 27        -0.00097
       6 -> 38         0.00223
       6 -> 46         0.00025
       7 -> 12         0.01424
       7 -> 16         0.01357
       7 -> 19         0.00105
       7 -> 22        -0.00479
       7 -> 25         0.00025
       7 -> 30        -0.00066
       7 -> 33        -0.00047
       7 -> 36        -0.00027
       7 -> 42        -0.00028
       7 -> 49        -0.00013
       7 -> 50        -0.00080
       8 ->  9        -0.00545
       8 -> 13         0.01178
       8 -> 18         0.00451
       8 -> 23         0.00230
       8 -> 28         0.00095
       8 -> 31         0.00090
       8 -> 37         0.00157
       8 -> 44         0.00019
       8 -> 52         0.00029
       3 <- 27        -0.00141
       3 <- 38        -0.00054
       3 <- 46         0.00033
       4 <- 27        -0.00533
       5 <-  9        -0.01332
       5 <- 13         0.00202
       5 <- 28         0.00200
       5 <- 31        -0.00302
       5 <- 37        -0.00345
       5 <- 44        -0.00043
       5 <- 48        -0.00021
       6 <- 27        -0.00143
       6 <- 38         0.00164
       6 <- 46         0.00013
       7 <- 12        -0.00280
       7 <- 16        -0.00068
       7 <- 19        -0.00051
       7 <- 22        -0.00374
       7 <- 25        -0.00326
       7 <- 33         0.00038
       7 <- 36        -0.00083
       7 <- 40         0.00050
       7 <- 42        -0.00072
       7 <- 49        -0.00029
       7 <- 50        -0.00091
       7 <- 53         0.00016
       8 <-  9         0.00025
       8 <- 13        -0.00045
       8 <- 18        -0.00134
       8 <- 23        -0.00026
       8 <- 28        -0.00166
       8 <- 31         0.00102
       8 <- 37         0.00079
 
 Excited State   8:      Singlet-B1     7.8631 eV  157.68 nm  f=0.0839  <S**2>=0.000
       3 ->  9        -0.00319
       3 -> 13         0.00211
       3 -> 18        -0.00098
       3 -> 28        -0.00220
       3 -> 31        -0.00102
       3 -> 44        -0.00021
       3 -> 48        -0.00031
       3 -> 52        -0.00020
       4 ->  9        -0.00458
       4 -> 13         0.00259
       4 -> 18         0.00040
       4 -> 23        -0.00091
       4 -> 28         0.00059
       4 -> 31         0.00057
       4 -> 37        -0.00037
       4 -> 44        -0.00045
       4 -> 48        -0.00014
       5 -> 27        -0.00149
       5 -> 46         0.00010
       6 ->  9        -0.00937
       6 -> 13        -0.00266
       6 -> 18        -0.00057
       6 -> 23        -0.00020
       6 -> 28         0.00051
       6 -> 31        -0.00097
       6 -> 37         0.00016
       6 -> 44         0.00031
       6 -> 48         0.00042
       6 -> 52        -0.00013
       7 -> 10        -0.16657
       7 -> 11         0.68562
       7 -> 14        -0.00432
       7 -> 15        -0.04474
       7 -> 17        -0.00436
       7 -> 20         0.00422
       7 -> 21         0.00427
       7 -> 24        -0.00808
       7 -> 26         0.00087
       7 -> 29        -0.00087
       7 -> 34        -0.00078
       7 -> 35        -0.00121
       7 -> 41        -0.00026
       7 -> 43         0.00045
       7 -> 45         0.00056
       7 -> 47         0.00055
       7 -> 51         0.00024
       7 -> 54        -0.00028
       8 -> 27         0.00013
       8 -> 38        -0.00024
       8 -> 46         0.00069
       3 <- 13         0.00013
       3 <- 18        -0.00062
       3 <- 23        -0.00040
       3 <- 28        -0.00142
       3 <- 31        -0.00039
       3 <- 37        -0.00012
       3 <- 48        -0.00032
       4 <-  9        -0.00495
       4 <- 13         0.00106
       4 <- 18         0.00024
       4 <- 23        -0.00017
       4 <- 28         0.00036
       4 <- 31         0.00055
       4 <- 37        -0.00028
       5 <- 27        -0.00081
       5 <- 46         0.00015
       6 <-  9        -0.00542
       6 <- 13         0.00070
       6 <- 18        -0.00086
       6 <- 23         0.00110
       6 <- 31        -0.00093
       6 <- 37         0.00023
       6 <- 44         0.00041
       6 <- 48         0.00048
       6 <- 52        -0.00020
       7 <- 10        -0.00376
       7 <- 11        -0.00337
       7 <- 14         0.00065
       7 <- 15         0.00046
       7 <- 20        -0.00404
       7 <- 21        -0.00053
       7 <- 24        -0.00012
       7 <- 26        -0.00123
       7 <- 29         0.00015
       7 <- 32         0.00128
       7 <- 34         0.00033
       7 <- 35        -0.00114
       7 <- 39         0.00020
       7 <- 41         0.00016
       7 <- 43         0.00017
       7 <- 45         0.00035
       7 <- 47         0.00045
       7 <- 51         0.00019
       7 <- 54        -0.00011
       8 <- 38        -0.00016
       8 <- 46         0.00049
 
 Excited State   9:      Singlet-A1     8.0393 eV  154.22 nm  f=0.0172  <S**2>=0.000
       3 -> 10        -0.00364
       3 -> 11         0.00027
       3 -> 14         0.00264
       3 -> 15         0.00035
       3 -> 17        -0.00041
       3 -> 20        -0.00045
       3 -> 21         0.00018
       3 -> 32         0.00026
       3 -> 34         0.00053
       3 -> 35        -0.00077
       3 -> 41        -0.00017
       3 -> 45        -0.00013
[...]
  48        5S         -0.00234   0.00000   0.00825   0.01215   0.00980
  49        5PX         0.00000   0.00000   0.00000   0.00000   0.00000
  50        5PY        -0.00000  -0.00000  -0.00934  -0.01855  -0.01899
  51        5PZ        -0.00001   0.00000   0.00175   0.00224  -0.00028
  52        6D 0        0.00025   0.00000  -0.00044  -0.00078  -0.00121
  53        6D+1        0.00000  -0.00000   0.00000   0.00000   0.00000
  54        6D-1        0.00000  -0.00000  -0.00097  -0.00092   0.00110
  55        6D+2        0.00002   0.00000  -0.00003  -0.00001   0.00000
  56        6D-2        0.00000   0.00000   0.00000   0.00000   0.00000
                          26        27        28        29        30
  26        4PX         0.00027
  27        4PY         0.00000   0.00105
  28        4PZ         0.00000  -0.00046   0.00064
  29 3   H  1S          0.00000  -0.00178  -0.00291   0.07759
  30        2S          0.00000  -0.00159  -0.00463   0.10974   0.15811
  31        3S          0.00000   0.00083  -0.00249   0.03237   0.05301
  32        4PX         0.00027   0.00000   0.00000   0.00000   0.00000
  33        4PY         0.00000  -0.00058  -0.00007   0.00811   0.01084
  34        4PZ         0.00000   0.00007   0.00003   0.00444   0.00621
  35 4   O  1S          0.00000   0.00006  -0.00040   0.00120   0.00025
  36        2S          0.00000   0.00013  -0.00053   0.00193   0.00045
  37        2PX         0.00569   0.00000   0.00000   0.00000   0.00000
  38        2PY         0.00000  -0.00120   0.00081   0.01215   0.03518
  39        2PZ         0.00000  -0.00155  -0.00473   0.01602   0.02361
  40        3S          0.00000  -0.00038   0.00103  -0.00635  -0.00211
  41        3PX         0.00824   0.00000   0.00000   0.00000   0.00000
  42        3PY         0.00000  -0.00173   0.00118   0.01710   0.04986
  43        3PZ         0.00000  -0.00223  -0.00709   0.02349   0.03465
  44        4S          0.00000  -0.00061  -0.00036  -0.00159   0.00358
  45        4PX         0.00741   0.00000   0.00000   0.00000   0.00000
  46        4PY         0.00000  -0.00141   0.00089   0.01779   0.04863
  47        4PZ         0.00000  -0.00183  -0.00506   0.01831   0.02673
  48        5S          0.00000  -0.00064  -0.00290   0.00825   0.01215
  49        5PX         0.00121   0.00000   0.00000   0.00000   0.00000
  50        5PY         0.00000   0.00010  -0.00027   0.00934   0.01855
  51        5PZ         0.00000  -0.00037   0.00028   0.00175   0.00224
  52        6D 0        0.00000  -0.00002   0.00041  -0.00044  -0.00078
  53        6D+1       -0.00030   0.00000   0.00000   0.00000   0.00000
  54        6D-1        0.00000   0.00013  -0.00013   0.00097   0.00092
  55        6D+2        0.00000  -0.00000   0.00001  -0.00003  -0.00001
  56        6D-2        0.00000   0.00000   0.00000   0.00000   0.00000
                          31        32        33        34        35
  31        3S          0.03368
  32        4PX         0.00000   0.00027
  33        4PY         0.00186   0.00000   0.00105
  34        4PZ         0.00096   0.00000   0.00046   0.00064
  35 4   O  1S         -0.00010   0.00000  -0.00006  -0.00040   0.64161
  36        2S         -0.00023   0.00000  -0.00013  -0.00053   0.57219
  37        2PX         0.00000   0.00569   0.00000   0.00000   0.00000
  38        2PY         0.05851   0.00000  -0.00120  -0.00081  -0.00000
  39        2PZ         0.01693   0.00000   0.00155  -0.00473  -0.00969
  40        3S          0.00127   0.00000   0.00038   0.00103  -0.14744
  41        3PX         0.00000   0.00824   0.00000   0.00000   0.00000
  42        3PY         0.08341   0.00000  -0.00173  -0.00118  -0.00000
  43        3PZ         0.02522   0.00000   0.00223  -0.00709  -0.01113
  44        4S          0.00518   0.00000   0.00061  -0.00036  -0.14012
  45        4PX         0.00000   0.00741   0.00000   0.00000   0.00000
  46        4PY         0.07684   0.00000  -0.00141  -0.00089  -0.00000
  47        4PZ         0.01835   0.00000   0.00183  -0.00506  -0.00801
  48        5S          0.00980   0.00000   0.00064  -0.00290   0.00829
  49        5PX         0.00000   0.00121   0.00000   0.00000   0.00000
  50        5PY         0.01899   0.00000   0.00010   0.00027  -0.00000
  51        5PZ        -0.00028   0.00000   0.00037   0.00028  -0.00523
  52        6D 0       -0.00121   0.00000   0.00002   0.00041  -0.00086
  53        6D+1        0.00000  -0.00030   0.00000   0.00000   0.00000
  54        6D-1       -0.00110   0.00000   0.00013   0.00013   0.00000
  55        6D+2        0.00000   0.00000   0.00000   0.00001  -0.00083
  56        6D-2        0.00000  -0.00000   0.00000   0.00000   0.00000
                          36        37        38        39        40
  36        2S          0.52840
  37        2PX         0.00000   0.11910
  38        2PY        -0.00000   0.00000   0.19244
  39        2PZ        -0.01508  -0.00000  -0.00000   0.09812
  40        3S         -0.24732   0.00000   0.00000   0.04545   0.77412
  41        3PX         0.00000   0.17234   0.00000   0.00000   0.00000
  42        3PY        -0.00000   0.00000   0.27481   0.00000   0.00000
  43        3PZ        -0.01844  -0.00000  -0.00000   0.14592   0.06012
  44        4S         -0.21881   0.00000   0.00000   0.06081   0.63246
  45        4PX         0.00000   0.15489   0.00000   0.00000   0.00000
  46        4PY        -0.00000   0.00000   0.24918   0.00000   0.00000
  47        4PZ        -0.01381  -0.00000  -0.00000   0.10593   0.04666
  48        5S          0.00824   0.00000   0.00000   0.05551  -0.00602
  49        5PX         0.00000   0.02537   0.00000   0.00000   0.00000
  50        5PY        -0.00000   0.00000   0.05192  -0.00000   0.00000
  51        5PZ        -0.00748  -0.00000  -0.00000  -0.00128   0.01902
  52        6D 0       -0.00128   0.00000   0.00000  -0.00695   0.00328
  53        6D+1       -0.00000  -0.00618   0.00000  -0.00000   0.00000
  54        6D-1       -0.00000   0.00000  -0.00596  -0.00000   0.00000
  55        6D+2       -0.00132   0.00000   0.00000   0.00019   0.00392
  56        6D-2        0.00000  -0.00000  -0.00000   0.00000   0.00000
                          41        42        43        44        45
  41        3PX         0.24939
  42        3PY         0.00000   0.39242
  43        3PZ        -0.00000  -0.00000   0.21708
  44        4S          0.00000   0.00000   0.08439   0.52323
  45        4PX         0.22414   0.00000   0.00000   0.00000   0.20144
  46        4PY         0.00000   0.35582   0.00000   0.00000   0.00000
  47        4PZ        -0.00000  -0.00000   0.15754   0.06364  -0.00000
  48        5S          0.00000   0.00000   0.08290   0.00871   0.00000
  49        5PX         0.03671   0.00000   0.00000   0.00000   0.03299
  50        5PY         0.00000   0.07411  -0.00000   0.00000   0.00000
  51        5PZ        -0.00000  -0.00000  -0.00215   0.01495  -0.00000
  52        6D 0        0.00000   0.00000  -0.01041   0.00090   0.00000
  53        6D+1       -0.00895   0.00000  -0.00000   0.00000  -0.00804
  54        6D-1        0.00000  -0.00852  -0.00000   0.00000   0.00000
  55        6D+2        0.00000   0.00000   0.00025   0.00320   0.00000
  56        6D-2       -0.00000  -0.00000   0.00000   0.00000  -0.00000
                          46        47        48        49        50
  46        4PY         0.32274
  47        4PZ        -0.00000   0.11441
  48        5S          0.00000   0.06000   0.03292
  49        5PX         0.00000   0.00000   0.00000   0.00540
  50        5PY         0.06750  -0.00000  -0.00000   0.00000   0.01481
  51        5PZ        -0.00000  -0.00137  -0.00170  -0.00000  -0.00000
  52        6D 0        0.00000  -0.00750  -0.00425   0.00000   0.00000
  53        6D+1        0.00000  -0.00000  -0.00000  -0.00132   0.00000
  54        6D-1       -0.00766  -0.00000  -0.00000   0.00000  -0.00143
  55        6D+2        0.00000   0.00019  -0.00005  -0.00000   0.00000
  56        6D-2       -0.00000   0.00000   0.00000  -0.00000   0.00000
                          51        52        53        54        55
  51        5PZ         0.00073
  52        6D 0        0.00033   0.00057
  53        6D+1        0.00000  -0.00000   0.00032
  54        6D-1        0.00000  -0.00000   0.00000   0.00022
  55        6D+2        0.00010   0.00002  -0.00000  -0.00000   0.00002
  56        6D-2        0.00000   0.00000   0.00000   0.00000   0.00000
                          56
  56        6D-2        0.00000
          Condensed to atoms (all electrons):
               1          2          3          4
     1  C    5.070694   0.356983   0.356983   0.287706
     2  H    0.356983   0.534224  -0.053386  -0.021912
     3  H    0.356983  -0.053386   0.534224  -0.021912
     4  O    0.287706  -0.021912  -0.021912   8.051934
 Mulliken charges:
               1
     1  C   -0.072367
     2  H    0.184091
     3  H    0.184091
     4  O   -0.295815
 Sum of Mulliken charges =  -0.00000
 Mulliken charges with hydrogens summed into heavy atoms:
               1
     1  C    0.295815
     4  O   -0.295815
 Electronic spatial extent (au):  <R**2>=             81.7748
 Charge=             -0.0000 electrons
 Dipole moment (field-independent basis, Debye):
    X=             -0.0000    Y=              0.0000    Z=             -3.8865  Tot=              3.8865
 Quadrupole moment (field-independent basis, Debye-Ang):
   XX=            -12.8380   YY=            -11.9317   ZZ=            -11.1213
   XY=              0.0000   XZ=              0.0000   YZ=             -0.0000
 Traceless Quadrupole moment (field-independent basis, Debye-Ang):
   XX=             -0.8743   YY=              0.0320   ZZ=              0.8423
   XY=              0.0000   XZ=              0.0000   YZ=             -0.0000
 Octapole moment (field-independent basis, Debye-Ang**2):
  XXX=              0.0000  YYY=              0.0000  ZZZ=             -2.4783  XYY=             -0.0000
  XXY=              0.0000  XXZ=              0.5104  XZZ=             -0.0000  YZZ=             -0.0000
  YYZ=             -2.3689  XYZ=             -0.0000
 Hexadecapole moment (field-independent basis, Debye-Ang**3):
 XXXX=            -13.5646 YYYY=            -18.4170 ZZZZ=            -68.2466 XXXY=             -0.0000
 XXXZ=             -0.0000 YYYX=             -0.0000 YYYZ=              0.0000 ZZZX=             -0.0000
 ZZZY=             -0.0000 XXYY=             -5.7715 XXZZ=            -14.4524 YYZZ=            -13.0447
 XXYZ=             -0.0000 YYXZ=              0.0000 ZZXY=              0.0000
 N-N= 2.473325313453D+01 E-N=-3.179437331935D+02  KE= 1.133553852218D+02
 Symmetry A1   KE= 1.028490446725D+02
 Symmetry A2   KE= 2.828836324579D-35
 Symmetry B1   KE= 3.650616451418D+00
 Symmetry B2   KE= 6.855724097886D+00
 Leave Link  601 at Fri Sep 17 10:53:04 2021, MaxMem=   268435456 cpu:               0.0 elap:               0.0
 (Enter /software/gaussian/g16-a03/l9999.exe)
 Electronic transition elements 
                 1             2             3             4             5 
      1  -0.114339D+03 -0.114236D+03 -0.114222D+03 -0.114205D+03 -0.114166D+03
      2   0.000000D+00  0.000000D+00  0.100939D+00  0.000000D+00 -0.219671D+00
      3   0.000000D+00  0.000000D+00  0.000000D+00 -0.255639D+00  0.000000D+00
      4   0.000000D+00  0.732908D+00  0.000000D+00  0.000000D+00  0.000000D+00
      5   0.000000D+00  0.000000D+00 -0.374239D-01  0.000000D+00  0.430097D-01
      6   0.000000D+00  0.000000D+00  0.000000D+00  0.490840D-01  0.000000D+00
      7   0.000000D+00 -0.110258D+00  0.000000D+00  0.000000D+00  0.000000D+00
      8   0.000000D+00  0.000000D+00  0.000000D+00  0.296116D+00  0.000000D+00
      9   0.000000D+00  0.000000D+00 -0.176565D+01  0.000000D+00 -0.575806D+00
     10   0.101231D+01  0.000000D+00  0.000000D+00  0.000000D+00  0.000000D+00
     11   0.000000D+00  0.733345D-01  0.000000D+00  0.000000D+00  0.000000D+00
     12   0.000000D+00 -0.569499D-02  0.000000D+00  0.000000D+00  0.000000D+00
     13   0.000000D+00 -0.396047D-01  0.000000D+00  0.000000D+00  0.000000D+00
     14  -0.334390D-01  0.000000D+00  0.000000D+00  0.000000D+00  0.000000D+00
     15   0.000000D+00  0.000000D+00 -0.124602D+00  0.000000D+00  0.196477D+00
     16   0.000000D+00  0.000000D+00  0.000000D+00 -0.729856D-02  0.000000D+00
                 6             7             8             9            10 
      1  -0.114147D+03 -0.114135D+03 -0.114115D+03 -0.114108D+03 -0.114088D+03
      2   0.000000D+00  0.000000D+00 -0.660080D+00  0.000000D+00  0.000000D+00
      3  -0.911356D-01  0.000000D+00  0.000000D+00  0.000000D+00  0.000000D+00
      4   0.000000D+00  0.000000D+00  0.000000D+00 -0.295505D+00  0.000000D+00
      5   0.000000D+00  0.000000D+00  0.193362D+00  0.000000D+00  0.000000D+00
      6   0.193613D-01  0.000000D+00  0.000000D+00  0.000000D+00  0.000000D+00
      7   0.000000D+00  0.000000D+00  0.000000D+00  0.850758D-01  0.000000D+00
      8  -0.375551D+00  0.000000D+00  0.000000D+00  0.000000D+00  0.000000D+00
      9   0.000000D+00  0.000000D+00 -0.195965D+00  0.000000D+00  0.000000D+00
     10   0.000000D+00 -0.100898D+01  0.000000D+00  0.000000D+00  0.521593D-02
     11   0.000000D+00  0.000000D+00  0.000000D+00  0.355459D-01  0.000000D+00
     12   0.000000D+00  0.000000D+00  0.000000D+00  0.428168D-01  0.000000D+00
     13   0.000000D+00  0.000000D+00  0.000000D+00 -0.219435D+00  0.000000D+00
     14   0.000000D+00  0.177267D+00  0.000000D+00  0.000000D+00  0.662665D-01
     15   0.000000D+00  0.000000D+00 -0.113728D+00  0.000000D+00  0.000000D+00
     16   0.299650D+00  0.000000D+00  0.000000D+00  0.000000D+00  0.000000D+00
                11            12            13            14            15 
      1  -0.114081D+03 -0.114077D+03 -0.114055D+03 -0.114047D+03 -0.114041D+03
      2   0.000000D+00  0.000000D+00  0.000000D+00 -0.276155D+00  0.000000D+00
      3  -0.343303D+00  0.000000D+00  0.000000D+00  0.000000D+00  0.000000D+00
      4   0.000000D+00  0.000000D+00  0.292320D+00  0.000000D+00 -0.899644D+00
      5   0.000000D+00  0.000000D+00  0.000000D+00  0.113908D+00  0.000000D+00
      6   0.115554D+00  0.000000D+00  0.000000D+00  0.000000D+00  0.000000D+00
      7   0.000000D+00  0.000000D+00 -0.994673D-01  0.000000D+00  0.331293D+00
      8  -0.565307D+00  0.000000D+00  0.000000D+00  0.000000D+00  0.000000D+00
      9   0.000000D+00  0.000000D+00  0.000000D+00  0.350620D+00  0.000000D+00
     10   0.000000D+00  0.260277D-01  0.000000D+00  0.000000D+00  0.000000D+00
     11   0.000000D+00  0.000000D+00  0.803225D+00  0.000000D+00  0.130349D+00
     12   0.000000D+00  0.000000D+00  0.491296D-01  0.000000D+00  0.482617D-01
     13   0.000000D+00  0.000000D+00 -0.667294D-01  0.000000D+00 -0.333312D+00
     14   0.000000D+00  0.282765D+00  0.000000D+00  0.000000D+00  0.000000D+00
     15   0.000000D+00  0.000000D+00  0.000000D+00  0.316288D+00  0.000000D+00
     16   0.198102D+00  0.000000D+00  0.000000D+00  0.000000D+00  0.000000D+00
                16            17            18            19            20 
      1  -0.114030D+03 -0.114021D+03 -0.114001D+03 -0.113993D+03 -0.113990D+03
      2   0.000000D+00  0.000000D+00 -0.415848D+00  0.000000D+00  0.000000D+00
      3  -0.317456D+00  0.000000D+00  0.000000D+00 -0.332474D+00  0.000000D+00
      4   0.000000D+00 -0.425285D+00  0.000000D+00  0.000000D+00 -0.102606D+01
      5   0.000000D+00  0.000000D+00  0.151451D+00  0.000000D+00  0.000000D+00
      6   0.121752D+00  0.000000D+00  0.000000D+00  0.139081D+00  0.000000D+00
      7   0.000000D+00  0.173539D+00  0.000000D+00  0.000000D+00  0.426326D+00
      8   0.401086D+00  0.000000D+00  0.000000D+00 -0.418563D+00  0.000000D+00
      9   0.000000D+00  0.000000D+00  0.226317D+00  0.000000D+00  0.000000D+00
     10   0.000000D+00  0.000000D+00  0.000000D+00  0.000000D+00  0.000000D+00
     11   0.000000D+00  0.269426D+00  0.000000D+00  0.000000D+00 -0.525857D-01
     12   0.000000D+00  0.313771D+00  0.000000D+00  0.000000D+00 -0.401335D+00
     13   0.000000D+00  0.552179D+00  0.000000D+00  0.000000D+00 -0.179519D+00
     14   0.000000D+00  0.000000D+00  0.000000D+00  0.000000D+00  0.000000D+00
     15   0.000000D+00  0.000000D+00 -0.458563D-01  0.000000D+00  0.000000D+00
     16  -0.805164D-01  0.000000D+00  0.000000D+00 -0.597632D+00  0.000000D+00
                21            22            23            24            25 
      1  -0.113988D+03 -0.113987D+03 -0.113978D+03 -0.113971D+03 -0.113957D+03
      2   0.000000D+00  0.000000D+00  0.000000D+00 -0.110399D+00  0.000000D+00
      3   0.000000D+00  0.327100D-01 -0.597968D-01  0.000000D+00  0.000000D+00
      4   0.000000D+00  0.000000D+00  0.000000D+00  0.000000D+00  0.000000D+00
      5   0.000000D+00  0.000000D+00  0.000000D+00  0.429014D-01  0.000000D+00
      6   0.000000D+00 -0.181816D-01  0.169555D-01  0.000000D+00  0.000000D+00
      7   0.000000D+00  0.000000D+00  0.000000D+00  0.000000D+00  0.000000D+00
      8   0.000000D+00  0.498612D+00  0.132251D+00  0.000000D+00  0.000000D+00
      9   0.000000D+00  0.000000D+00  0.000000D+00  0.108702D+00  0.000000D+00
     10  -0.607689D-01  0.000000D+00  0.000000D+00  0.000000D+00 -0.332657D-01
     11   0.000000D+00  0.000000D+00  0.000000D+00  0.000000D+00  0.000000D+00
     12   0.000000D+00  0.000000D+00  0.000000D+00  0.000000D+00  0.000000D+00
     13   0.000000D+00  0.000000D+00  0.000000D+00  0.000000D+00  0.000000D+00
     14  -0.270159D+00  0.000000D+00  0.000000D+00  0.000000D+00  0.378629D+00
     15   0.000000D+00  0.000000D+00  0.000000D+00 -0.141150D+00  0.000000D+00
     16   0.000000D+00  0.331695D+00  0.440581D+00  0.000000D+00  0.000000D+00
                26            27            28            29            30 
      1  -0.113952D+03 -0.113940D+03 -0.113934D+03 -0.113922D+03 -0.113916D+03
      2   0.000000D+00  0.118140D+00  0.000000D+00  0.000000D+00  0.000000D+00
      3  -0.680553D+00  0.000000D+00  0.000000D+00  0.000000D+00  0.000000D+00
      4   0.000000D+00  0.000000D+00  0.105553D+01 -0.320442D+00  0.524793D+00
      5   0.000000D+00 -0.457828D-01  0.000000D+00  0.000000D+00  0.000000D+00
      6   0.302191D+00  0.000000D+00  0.000000D+00  0.000000D+00  0.000000D+00
      7   0.000000D+00  0.000000D+00 -0.481736D+00  0.143649D+00 -0.245794D+00
      8   0.886027D+00  0.000000D+00  0.000000D+00  0.000000D+00  0.000000D+00
      9   0.000000D+00  0.209834D-01  0.000000D+00  0.000000D+00  0.000000D+00
     10   0.000000D+00  0.000000D+00  0.000000D+00  0.000000D+00  0.000000D+00
     11   0.000000D+00  0.000000D+00 -0.280108D+00 -0.239701D+00 -0.333810D-01
     12   0.000000D+00  0.000000D+00  0.546019D+00  0.340741D+00  0.314878D+00
     13   0.000000D+00  0.000000D+00 -0.193138D+00  0.207264D+00  0.255715D+00
     14   0.000000D+00  0.000000D+00  0.000000D+00  0.000000D+00  0.000000D+00
     15   0.000000D+00  0.313698D+00  0.000000D+00  0.000000D+00  0.000000D+00
     16  -0.638436D+00  0.000000D+00  0.000000D+00  0.000000D+00  0.000000D+00

 Test job not archived.
 1\1\GINC-BHD0003\SP\RB3LYP TD-FC\6-311+G(d,p)\C1H2O1\BWEIGHT\17-Sep-20
 21\0\\#p B3LYP/6-311+G** #p TD=(singlets,nstates=30)IOp(6/8=3) IOp(9/4
 0=4)\\Scan Step 233, Bond Length 1.665\\0,1\C,0,0.,0.,-0.52736\H,0,0.,
 0.93726,-1.11871\H,0,0.,-0.93726,-1.11871\O,0,0.,0.,1.13764\\Version=E
 S64L-G16RevA.03\State=1-A1\HF=-114.403774\RMSD=9.859e-09\PG=C02V [C2(C
 1O1),SGV(H2)]\\@


 LET US PLACE AT THE END OF EVERY CHAPTER.....THE
 TWO LETTERS USED BY THE ROMAN JUDGES WHEN THEY DID
 NOT UNDERSTAND A PLEADING.
 N. L. -NON LIQUET- IT IS NOT CLEAR.
                                              -- VOLTAIRE
 Job cpu time:       0 days  0 hours  0 minutes 28.3 seconds.
 Elapsed time:       0 days  0 hours  0 minutes 28.8 seconds.
 File lengths (MBytes):  RWF=     79 Int=      0 D2E=      0 Chk=     32 Scr=      1
 Normal termination of Gaussian 16 at Fri Sep 17 10:53:04 2021.
