 Entering Gaussian System, Link 0=g16
 Initial command:
 /software/gaussian/g16-c01/sse4/g16/l1.exe "/local_scratch/24657583/Gau-979.inp" -scrdir="/local_scratch/24657583/"
 Entering Link 1 = /software/gaussian/g16-c01/sse4/g16/l1.exe PID=       985.
  
 Copyright (c) 1988-2019, Gaussian, Inc.  All Rights Reserved.
  
 This is part of the Gaussian(R) 16 program.  It is based on
 the Gaussian(R) 09 system (copyright 2009, Gaussian, Inc.),
 the Gaussian(R) 03 system (copyright 2003, Gaussian, Inc.),
 the Gaussian(R) 98 system (copyright 1998, Gaussian, Inc.),
 the Gaussian(R) 94 system (copyright 1995, Gaussian, Inc.),
 the Gaussian 92(TM) system (copyright 1992, Gaussian, Inc.),
 the Gaussian 90(TM) system (copyright 1990, Gaussian, Inc.),
 the Gaussian 88(TM) system (copyright 1988, Gaussian, Inc.),
 the Gaussian 86(TM) system (copyright 1986, Carnegie Mellon
 University), and the Gaussian 82(TM) system (copyright 1983,
 Carnegie Mellon University). Gaussian is a federally registered
 trademark of Gaussian, Inc.
  
 This software contains proprietary and confidential information,
 including trade secrets, belonging to Gaussian, Inc.
  
 This software is provided under written license and may be
 used, copied, transmitted, or stored only in accord with that
 written license.
  
 The following legend is applicable only to US Government
 contracts under FAR:
  
                    RESTRICTED RIGHTS LEGEND
  
 Use, reproduction and disclosure by the US Government is
 subject to restrictions as set forth in subparagraphs (a)
 and (c) of the Commercial Computer Software - Restricted
 Rights clause in FAR 52.227-19.
  
 Gaussian, Inc.
 340 Quinnipiac St., Bldg. 40, Wallingford CT 06492
  
  
 ---------------------------------------------------------------
 Warning -- This program may not be used in any manner that
 competes with the business of Gaussian, Inc. or will provide
 assistance to any competitor of Gaussian, Inc.  The licensee
 of this program is prohibited from giving any competitor of
 Gaussian, Inc. access to this program.  By using this program,
 the user acknowledges that Gaussian, Inc. is engaged in the
 business of creating and licensing software in the field of
 computational chemistry and represents and warrants to the
 licensee that it is not a competitor of Gaussian, Inc. and that
 it will not use this program in any manner prohibited above.
 ---------------------------------------------------------------
  

 Cite this work as:
 Gaussian 16, Revision C.01,
 M. J. Frisch, G. W. Trucks, H. B. Schlegel, G. E. Scuseria, 
 M. A. Robb, J. R. Cheeseman, G. Scalmani, V. Barone, 
 G. A. Petersson, H. Nakatsuji, X. Li, M. Caricato, A. V. Marenich, 
 J. Bloino, B. G. Janesko, R. Gomperts, B. Mennucci, H. P. Hratchian, 
 J. V. Ortiz, A. F. Izmaylov, J. L. Sonnenberg, D. Williams-Young, 
 F. Ding, F. Lipparini, F. Egidi, J. Goings, B. Peng, A. Petrone, 
 T. Henderson, D. Ranasinghe, V. G. Zakrzewski, J. Gao, N. Rega, 
 G. Zheng, W. Liang, M. Hada, M. Ehara, K. Toyota, R. Fukuda, 
 J. Hasegawa, M. Ishida, T. Nakajima, Y. Honda, O. Kitao, H. Nakai, 
 T. Vreven, K. Throssell, J. A. Montgomery, Jr., J. E. Peralta, 
 F. Ogliaro, M. J. Bearpark, J. J. Heyd, E. N. Brothers, K. N. Kudin, 
 V. N. Staroverov, T. A. Keith, R. Kobayashi, J. Normand, 
 K. Raghavachari, A. P. Rendell, J. C. Burant, S. S. Iyengar, 
 J. Tomasi, M. Cossi, J. M. Millam, M. Klene, C. Adamo, R. Cammi, 
 J. W. Ochterski, R. L. Martin, K. Morokuma, O. Farkas, 
 J. B. Foresman, and D. J. Fox, Gaussian, Inc., Wallingford CT, 2019.
 
 ******************************************
 Gaussian 16:  ES64L-G16RevC.01  3-Jul-2019
                 1-May-2024 
 ******************************************
 %chk=geometry.chk
 %mem=9GB
 %nprocshared=12
 Will use up to   12 processors via shared memory.
 ----------------------------------------
 #P wB97XD/6-311+G* NoSymm #P Field=Z+214
 ----------------------------------------
 1/38=1,172=1/1;
 2/12=2,15=1,17=6,18=5,40=1/2;
 3/5=4,6=6,7=11,11=2,14=3,15=214,25=1,30=1,74=-58/1,2,3;
 4//1;
 5/5=2,38=5/2;
 6/7=2,8=2,9=2,10=2,28=1/1;
 99/5=1,9=1/99;
 Leave Link    1 at Wed May  1 15:10:05 2024, MaxMem=  1207959552 cpu:               1.1 elap:               1.1
 (Enter /software/gaussian/g16-c01/sse4/g16/l101.exe)
 -------
 TitleMe
 -------
 Symbolic Z-matrix:
 Charge =  1 Multiplicity = 1
 C                     0.0295    1.3397    0.0682 
 C                     1.4348    1.2867    0.0064 
 C                     2.1118    0.0511   -0.0054 
 C                     1.4451   -1.1372    0.0312 
 C                    -0.6879    0.1682    0.11 
 H                    -0.4713    2.2984    0.0781 
 H                     2.0273    2.1965   -0.0322 
 H                     1.9897   -2.0764    0.0232 
 H                    -1.7716    0.1804    0.1582 
 N                     3.5864    0.051    -0.0675 
 O                     4.1471   -1.0597   -0.0881 
 O                     4.145     1.1639   -0.0901 
 C                    -0.0236   -1.1458    0.0835 
 H                    -0.4367   -1.8725    0.7889 
 Br                   -0.5359   -1.8697   -1.7408 
 
 ITRead=  0  0  0  0  0  0  0  0  0  0  0  0  0  0  0
 MicOpt= -1 -1 -1 -1 -1 -1 -1 -1 -1 -1 -1 -1 -1 -1 -1
 NAtoms=     15 NQM=       15 NQMF=       0 NMMI=      0 NMMIF=      0
                NMic=       0 NMicF=      0.
                    Isotopes and Nuclear Properties:
 (Nuclear quadrupole moments (NQMom) in fm**2, nuclear magnetic moments (NMagM)
  in nuclear magnetons)

  Atom         1           2           3           4           5           6           7           8           9          10
 IAtWgt=          12          12          12          12          12           1           1           1           1          14
 AtmWgt=  12.0000000  12.0000000  12.0000000  12.0000000  12.0000000   1.0078250   1.0078250   1.0078250   1.0078250  14.0030740
 NucSpn=           0           0           0           0           0           1           1           1           1           2
 AtZEff=  -0.0000000  -0.0000000  -0.0000000  -0.0000000  -0.0000000  -0.0000000  -0.0000000  -0.0000000  -0.0000000  -0.0000000
 NQMom=    0.0000000   0.0000000   0.0000000   0.0000000   0.0000000   0.0000000   0.0000000   0.0000000   0.0000000   2.0440000
 NMagM=    0.0000000   0.0000000   0.0000000   0.0000000   0.0000000   2.7928460   2.7928460   2.7928460   2.7928460   0.4037610
 AtZNuc=   6.0000000   6.0000000   6.0000000   6.0000000   6.0000000   1.0000000   1.0000000   1.0000000   1.0000000   7.0000000

  Atom        11          12          13          14          15
 IAtWgt=          16          16          12           1          79
 AtmWgt=  15.9949146  15.9949146  12.0000000   1.0078250  78.9183361
 NucSpn=           0           0           0           1           3
 AtZEff=  -0.0000000  -0.0000000  -0.0000000  -0.0000000  -0.0000000
 NQMom=    0.0000000   0.0000000   0.0000000   0.0000000  31.3000000
 NMagM=    0.0000000   0.0000000   0.0000000   2.7928460   2.1063990
 AtZNuc=   8.0000000   8.0000000   6.0000000   1.0000000  35.0000000
 Leave Link  101 at Wed May  1 15:10:07 2024, MaxMem=  1207959552 cpu:               1.3 elap:               1.3
 (Enter /software/gaussian/g16-c01/sse4/g16/l202.exe)
                          Input orientation:                          
 ---------------------------------------------------------------------
 Center     Atomic      Atomic             Coordinates (Angstroms)
 Number     Number       Type             X           Y           Z
 ---------------------------------------------------------------------
      1          6           0        0.029500    1.339700    0.068200
      2          6           0        1.434800    1.286700    0.006400
      3          6           0        2.111800    0.051100   -0.005400
      4          6           0        1.445100   -1.137200    0.031200
      5          6           0       -0.687900    0.168200    0.110000
      6          1           0       -0.471300    2.298400    0.078100
      7          1           0        2.027300    2.196500   -0.032200
      8          1           0        1.989700   -2.076400    0.023200
      9          1           0       -1.771600    0.180400    0.158200
     10          7           0        3.586400    0.051000   -0.067500
     11          8           0        4.147100   -1.059700   -0.088100
     12          8           0        4.145000    1.163900   -0.090100
     13          6           0       -0.023600   -1.145800    0.083500
     14          1           0       -0.436700   -1.872500    0.788900
     15         35           0       -0.535900   -1.869700   -1.740800
 ---------------------------------------------------------------------
                    Distance matrix (angstroms):
                    1          2          3          4          5
     1  C    0.000000
     2  C    1.407656   0.000000
     3  C    2.449874   1.408963   0.000000
     4  C    2.853126   2.424049   1.363043   0.000000
     5  C    1.374344   2.401589   2.804523   2.501993   0.000000
     6  H    1.081667   2.159142   3.424870   3.934226   2.141421
     7  H    2.176095   1.086408   2.147231   3.384750   3.392128
     8  H    3.938800   3.408612   2.131193   1.085702   3.495040
     9  H    2.143837   3.395283   3.888995   3.478413   1.084840
    10  N    3.785591   2.482297   1.475907   2.450862   4.279589
    11  O    4.768247   3.587631   2.320164   2.705743   4.992415
    12  O    4.122294   2.714696   2.319353   3.549540   4.938459
    13  C    2.486114   2.837240   2.449573   1.469656   1.472614
    14  H    3.324903   3.754379   3.290289   2.157764   2.165286
    15  Br   3.727252   4.110867   3.702891   2.756973   2.757100
                    6          7          8          9         10
     6  H    0.000000
     7  H    2.503108   0.000000
     8  H    5.019802   4.273425   0.000000
     9  H    2.486588   4.304945   4.388479   0.000000
    10  N    4.640790   2.652397   2.661486   5.364313   0.000000
    11  O    5.712624   3.885809   2.387560   6.052233   1.244373
    12  O    4.756638   2.356750   3.893289   6.002923   1.245428
    13  C    3.473180   3.923079   2.218790   2.195425   3.806210
    14  H    4.231175   4.827242   2.552506   2.528663   4.540772
    15  Br   4.548146   5.101303   3.087568   3.055498   4.845862
                   11         12         13         14         15
    11  O    0.000000
    12  O    2.223602   0.000000
    13  C    4.175117   4.768865   0.000000
    14  H    4.737193   5.566358   1.093770   0.000000
    15  Br   5.031700   5.817075   2.028436   2.531646   0.000000
 Symmetry turned off by external request.
 Stoichiometry    C6H5BrNO2(1+)
 Framework group  C1[X(C6H5BrNO2)]
 Deg. of freedom    39
 Full point group                 C1      NOp   1
 Rotational constants (GHZ):           1.8252210           0.5518633           0.4576002
 Leave Link  202 at Wed May  1 15:10:08 2024, MaxMem=  1207959552 cpu:               1.2 elap:               1.2
 (Enter /software/gaussian/g16-c01/sse4/g16/l301.exe)
 Standard basis: 6-311+G(d) (5D, 7F)
 Ernie: Thresh=  0.10000D-02 Tol=  0.10000D-05 Strict=F.
 The following finite field(s) will be applied:
 An electric field of              0.0000  0.0000  0.0214
   261 basis functions,   443 primitive gaussians,   273 cartesian basis functions
    49 alpha electrons       49 beta electrons
       nuclear repulsion energy       739.2122215416 Hartrees.
 IExCor= 4639 DFT=T Ex+Corr=wB97XD ExCW=0 ScaHFX=  1.000000
 ScaDFX=  1.000000  1.000000  1.000000  1.000000 ScalE2=  1.000000  1.000000
 IRadAn=      5 IRanWt=     -1 IRanGd=            0 ICorTp=0 IEmpDi=121
 HFx  wShort=  0.000000 wLong=  0.200000 cFull=  0.222036 cShort=  0.000000 cLong=  0.777964
 DFx  wShort=  0.000000 wLong=  0.200000 cFull=  0.000000 cShort=  0.000000 cLong=  1.000000
 NAtoms=   15 NActive=   15 NUniq=   15 SFac= 1.00D+00 NAtFMM=   60 NAOKFM=F Big=F
 Integral buffers will be    131072 words long.
 Raffenetti 2 integral format.
 Two-electron integral symmetry is turned off.
 R6Disp:  Grimme-D2 Dispersion energy=       -0.0077368520 Hartrees.
 Nuclear repulsion after empirical dispersion term =      739.2044846896 Hartrees.
 Leave Link  301 at Wed May  1 15:10:09 2024, MaxMem=  1207959552 cpu:               1.0 elap:               0.9
 (Enter /software/gaussian/g16-c01/sse4/g16/l302.exe)
 NPDir=0 NMtPBC=     1 NCelOv=     1 NCel=       1 NClECP=     1 NCelD=      1
         NCelK=      1 NCelE2=     1 NClLst=     1 CellRange=     0.0.
 One-electron integrals computed using PRISM.
 NBasis=   261 RedAO= T EigKep=  2.35D-06  NBF=   261
 NBsUse=   261 1.00D-06 EigRej= -1.00D+00 NBFU=   261
 Precomputing XC quadrature grid using
 IXCGrd= 4 IRadAn=           5 IRanWt=          -1 IRanGd=           0 AccXCQ= 0.00D+00.
 Generated NRdTot=       0 NPtTot=           0 NUsed=           0 NTot=          32
 NSgBfM=   273   273   273   273   273 MxSgAt=    15 MxSgA2=    15.
 Leave Link  302 at Wed May  1 15:10:30 2024, MaxMem=  1207959552 cpu:              20.8 elap:              20.8
 (Enter /software/gaussian/g16-c01/sse4/g16/l303.exe)
 DipDrv:  MaxL=1.
 The nuclear repulsion energy is now       736.7761958792 hartrees.
 Leave Link  303 at Wed May  1 15:10:33 2024, MaxMem=  1207959552 cpu:               3.1 elap:               3.1
 (Enter /software/gaussian/g16-c01/sse4/g16/l401.exe)
 ExpMin= 3.50D-02 ExpMax= 4.40D+05 ExpMxC= 1.51D+04 IAcc=3 IRadAn=         5 AccDes= 0.00D+00
 Harris functional with IExCor= 4639 and IRadAn=       5 diagonalized for initial guess.
 HarFok:  IExCor= 4639 AccDes= 0.00D+00 IRadAn=         5 IDoV= 1 UseB2=F ITyADJ=14
 ICtDFT=  3500011 ScaDFX=  1.000000  1.000000  1.000000  1.000000
 FoFCou: FMM=F IPFlag=           0 FMFlag=      100000 FMFlg1=           0
         NFxFlg=           0 DoJE=T BraDBF=F KetDBF=T FulRan=T
         wScrn=  0.000000 ICntrl=       500 IOpCl=  0 I1Cent=   200000004 NGrid=           0
         NMat0=    1 NMatS0=      1 NMatT0=    0 NMatD0=    1 NMtDS0=    0 NMtDT0=    0
 Symmetry not used in FoFCou.
 Harris En= -2970.62770361681    
 JPrj=0 DoOrth=F DoCkMO=F.
 Leave Link  401 at Wed May  1 15:11:02 2024, MaxMem=  1207959552 cpu:              29.1 elap:              29.1
 (Enter /software/gaussian/g16-c01/sse4/g16/l502.exe)
 Two-electron integral symmetry not used.
 Closed shell SCF:
 Using DIIS extrapolation, IDIIS=  1040.
 NGot=  1207959552 LenX=  1207804877 LenY=  1207729907
 Requested convergence on RMS density matrix=1.00D-08 within 128 cycles.
 Requested convergence on MAX density matrix=1.00D-06.
 Requested convergence on             energy=1.00D-06.
 No special actions if energy rises.
 Fock matrices will be formed incrementally for  20 cycles.

 Cycle   1  Pass 1  IDiag  1:
 FoFJK:  IHMeth= 1 ICntrl=       0 DoSepK=T KAlg= 0 I1Cent=           0 FoldK=F
 IRaf=         1 NMat=       1 IRICut=       1 DoRegI=T DoRafI=F ISym2E= 0 IDoP0=0 IntGTp=1.
 FoFCou: FMM=F IPFlag=           0 FMFlag=      100000 FMFlg1=           0
         NFxFlg=           0 DoJE=T BraDBF=F KetDBF=F FulRan=T
         wScrn=  0.000000 ICntrl=       500 IOpCl=  0 I1Cent=           0 NGrid=           0
         NMat0=    1 NMatS0=      1 NMatT0=    0 NMatD0=    1 NMtDS0=    0 NMtDT0=    0
 Symmetry not used in FoFCou.
 E= -3009.67140762518    
 DIIS: error= 3.21D-01 at cycle   1 NSaved=   1.
 NSaved= 1 IEnMin= 1 EnMin= -3009.67140762518     IErMin= 1 ErrMin= 3.21D-01
 ErrMax= 3.21D-01  0.00D+00 EMaxC= 1.00D-01 BMatC= 1.21D+01 BMatP= 1.21D+01
 IDIUse=3 WtCom= 0.00D+00 WtEn= 1.00D+00
 Coeff-Com:  0.100D+01
 Coeff-En:   0.100D+01
 Coeff:      0.100D+01
 Gap=     0.330 Goal=   None    Shift=    0.000
 GapD=    0.330 DampG=1.000 DampE=0.250 DampFc=0.2500 IDamp=-1.
 Damping current iteration by 2.50D-01
 RMSDP=1.49D-01 MaxDP=2.09D+01              OVMax= 2.54D-01

 Cycle   2  Pass 1  IDiag  1:
 RMSU=  7.10D-03    CP:  8.17D-01
 E= -3009.98139693252     Delta-E=       -0.309989307339 Rises=F Damp=T
 DIIS: error= 2.25D-01 at cycle   2 NSaved=   2.
 NSaved= 2 IEnMin= 2 EnMin= -3009.98139693252     IErMin= 2 ErrMin= 2.25D-01
 ErrMax= 2.25D-01  0.00D+00 EMaxC= 1.00D-01 BMatC= 5.46D+00 BMatP= 1.21D+01
 IDIUse=3 WtCom= 0.00D+00 WtEn= 1.00D+00
 Coeff-Com: -0.180D+01 0.280D+01
 Coeff-En:   0.000D+00 0.100D+01
 Coeff:      0.000D+00 0.100D+01
 Gap=     0.288 Goal=   None    Shift=    0.000
 RMSDP=1.12D-01 MaxDP=1.57D+01 DE=-3.10D-01 OVMax= 6.00D-02

 Cycle   3  Pass 1  IDiag  1:
 RMSU=  5.87D-03    CP:  2.66D-01  3.00D+00
 E= -3010.37813488827     Delta-E=       -0.396737955756 Rises=F Damp=F
 DIIS: error= 6.69D-02 at cycle   3 NSaved=   3.
 NSaved= 3 IEnMin= 3 EnMin= -3010.37813488827     IErMin= 3 ErrMin= 6.69D-02
 ErrMax= 6.69D-02  0.00D+00 EMaxC= 1.00D-01 BMatC= 7.83D-01 BMatP= 5.46D+00
 IDIUse=3 WtCom= 3.31D-01 WtEn= 6.69D-01
 Coeff-Com:  0.265D+01-0.349D+01 0.183D+01
 Coeff-En:   0.554D-01 0.000D+00 0.945D+00
 Coeff:      0.916D+00-0.115D+01 0.124D+01
 Gap=     0.285 Goal=   None    Shift=    0.000
 RMSDP=9.08D-03 MaxDP=7.21D-01 DE=-3.97D-01 OVMax= 1.07D-01

 Cycle   4  Pass 1  IDiag  1:
 RMSU=  7.21D-03    CP:  2.93D-01  3.00D+00  1.25D+00
 E= -3010.50211091198     Delta-E=       -0.123976023709 Rises=F Damp=F
 DIIS: error= 3.70D-02 at cycle   4 NSaved=   4.
 NSaved= 4 IEnMin= 4 EnMin= -3010.50211091198     IErMin= 4 ErrMin= 3.70D-02
 ErrMax= 3.70D-02  0.00D+00 EMaxC= 1.00D-01 BMatC= 2.22D-01 BMatP= 7.83D-01
 IDIUse=3 WtCom= 6.30D-01 WtEn= 3.70D-01
 Coeff-Com: -0.299D+00 0.412D+00 0.195D+00 0.692D+00
 Coeff-En:   0.000D+00 0.000D+00 0.180D+00 0.820D+00
 Coeff:     -0.189D+00 0.260D+00 0.190D+00 0.739D+00
 Gap=     0.251 Goal=   None    Shift=    0.000
 RMSDP=6.69D-03 MaxDP=9.12D-01 DE=-1.24D-01 OVMax= 4.60D-02

 Cycle   5  Pass 1  IDiag  1:
 RMSU=  1.96D-03    CP:  2.63D-01  3.00D+00  1.22D+00  7.24D-01
 E= -3010.54917924398     Delta-E=       -0.047068331998 Rises=F Damp=F
 DIIS: error= 7.00D-03 at cycle   5 NSaved=   5.
 NSaved= 5 IEnMin= 5 EnMin= -3010.54917924398     IErMin= 5 ErrMin= 7.00D-03
 ErrMax= 7.00D-03  0.00D+00 EMaxC= 1.00D-01 BMatC= 7.98D-03 BMatP= 2.22D-01
 IDIUse=3 WtCom= 9.30D-01 WtEn= 7.00D-02
 Coeff-Com: -0.179D+00 0.242D+00 0.158D-01 0.342D+00 0.580D+00
 Coeff-En:   0.000D+00 0.000D+00 0.000D+00 0.000D+00 0.100D+01
 Coeff:     -0.167D+00 0.225D+00 0.147D-01 0.318D+00 0.609D+00
 Gap=     0.237 Goal=   None    Shift=    0.000
 RMSDP=6.63D-04 MaxDP=4.36D-02 DE=-4.71D-02 OVMax= 1.37D-02

 Cycle   6  Pass 1  IDiag  1:
 RMSU=  4.57D-04    CP:  2.61D-01  3.00D+00  1.24D+00  7.62D-01  8.77D-01
 E= -3010.55104701015     Delta-E=       -0.001867766169 Rises=F Damp=F
 DIIS: error= 7.83D-04 at cycle   6 NSaved=   6.
 NSaved= 6 IEnMin= 6 EnMin= -3010.55104701015     IErMin= 6 ErrMin= 7.83D-04
 ErrMax= 7.83D-04  0.00D+00 EMaxC= 1.00D-01 BMatC= 9.82D-05 BMatP= 7.98D-03
 IDIUse=3 WtCom= 9.92D-01 WtEn= 7.83D-03
 Coeff-Com: -0.904D-01 0.121D+00-0.150D-01 0.128D+00 0.291D+00 0.565D+00
 Coeff-En:   0.000D+00 0.000D+00 0.000D+00 0.000D+00 0.000D+00 0.100D+01
 Coeff:     -0.897D-01 0.120D+00-0.148D-01 0.127D+00 0.289D+00 0.568D+00
 Gap=     0.238 Goal=   None    Shift=    0.000
 RMSDP=2.57D-04 MaxDP=3.32D-02 DE=-1.87D-03 OVMax= 4.99D-03

 Cycle   7  Pass 1  IDiag  1:
 RMSU=  1.43D-04    CP:  2.60D-01  3.00D+00  1.24D+00  7.60D-01  9.51D-01
                    CP:  9.99D-01
 E= -3010.55114959608     Delta-E=       -0.000102585928 Rises=F Damp=F
 DIIS: error= 4.78D-04 at cycle   7 NSaved=   7.
 NSaved= 7 IEnMin= 7 EnMin= -3010.55114959608     IErMin= 7 ErrMin= 4.78D-04
 ErrMax= 4.78D-04  0.00D+00 EMaxC= 1.00D-01 BMatC= 2.75D-05 BMatP= 9.82D-05
 IDIUse=3 WtCom= 9.95D-01 WtEn= 4.78D-03
 Coeff-Com: -0.305D-01 0.404D-01-0.147D-01 0.221D-01 0.685D-01 0.340D+00
 Coeff-Com:  0.574D+00
 Coeff-En:   0.000D+00 0.000D+00 0.000D+00 0.000D+00 0.000D+00 0.000D+00
 Coeff-En:   0.100D+01
 Coeff:     -0.303D-01 0.403D-01-0.147D-01 0.220D-01 0.682D-01 0.339D+00
 Coeff:      0.576D+00
 Gap=     0.239 Goal=   None    Shift=    0.000
 RMSDP=1.28D-04 MaxDP=1.42D-02 DE=-1.03D-04 OVMax= 3.61D-03

 Cycle   8  Pass 1  IDiag  1:
 RMSU=  6.43D-05    CP:  2.60D-01  3.00D+00  1.25D+00  7.63D-01  9.84D-01
                    CP:  1.14D+00  1.16D+00
 E= -3010.55118713419     Delta-E=       -0.000037538111 Rises=F Damp=F
 DIIS: error= 2.02D-04 at cycle   8 NSaved=   8.
 NSaved= 8 IEnMin= 8 EnMin= -3010.55118713419     IErMin= 8 ErrMin= 2.02D-04
 ErrMax= 2.02D-04  0.00D+00 EMaxC= 1.00D-01 BMatC= 5.66D-06 BMatP= 2.75D-05
 IDIUse=3 WtCom= 9.98D-01 WtEn= 2.02D-03
 Coeff-Com:  0.112D-01-0.152D-01-0.357D-02-0.268D-01-0.593D-01-0.235D-01
 Coeff-Com:  0.298D+00 0.819D+00
 Coeff-En:   0.000D+00 0.000D+00 0.000D+00 0.000D+00 0.000D+00 0.000D+00
 Coeff-En:   0.000D+00 0.100D+01
 Coeff:      0.111D-01-0.152D-01-0.356D-02-0.267D-01-0.592D-01-0.234D-01
 Coeff:      0.298D+00 0.819D+00
 Gap=     0.238 Goal=   None    Shift=    0.000
 RMSDP=1.15D-04 MaxDP=1.10D-02 DE=-3.75D-05 OVMax= 3.85D-03

 Cycle   9  Pass 1  IDiag  1:
 RMSU=  3.29D-05    CP:  2.60D-01  3.00D+00  1.25D+00  7.63D-01  1.00D+00
                    CP:  1.30D+00  1.61D+00  1.33D+00
 E= -3010.55120672771     Delta-E=       -0.000019593525 Rises=F Damp=F
 DIIS: error= 4.61D-05 at cycle   9 NSaved=   9.
 NSaved= 9 IEnMin= 9 EnMin= -3010.55120672771     IErMin= 9 ErrMin= 4.61D-05
 ErrMax= 4.61D-05  0.00D+00 EMaxC= 1.00D-01 BMatC= 8.33D-07 BMatP= 5.66D-06
 IDIUse=1 WtCom= 1.00D+00 WtEn= 0.00D+00
 Coeff-Com:  0.825D-02-0.110D-01 0.204D-02-0.112D-01-0.283D-01-0.821D-01
 Coeff-Com: -0.789D-01 0.206D+00 0.995D+00
 Coeff:      0.825D-02-0.110D-01 0.204D-02-0.112D-01-0.283D-01-0.821D-01
 Coeff:     -0.789D-01 0.206D+00 0.995D+00
 Gap=     0.238 Goal=   None    Shift=    0.000
 RMSDP=5.03D-05 MaxDP=3.74D-03 DE=-1.96D-05 OVMax= 3.15D-03

 Cycle  10  Pass 1  IDiag  1:
 RMSU=  2.15D-05    CP:  2.60D-01  3.00D+00  1.25D+00  7.63D-01  1.01D+00
                    CP:  1.37D+00  1.73D+00  1.54D+00  1.46D+00
 E= -3010.55121295560     Delta-E=       -0.000006227882 Rises=F Damp=F
 DIIS: error= 1.99D-05 at cycle  10 NSaved=  10.
 NSaved=10 IEnMin=10 EnMin= -3010.55121295560     IErMin=10 ErrMin= 1.99D-05
 ErrMax= 1.99D-05  0.00D+00 EMaxC= 1.00D-01 BMatC= 2.11D-07 BMatP= 8.33D-07
 IDIUse=1 WtCom= 1.00D+00 WtEn= 0.00D+00
 Coeff-Com: -0.136D-02 0.189D-02 0.719D-03 0.303D-02 0.712D-02-0.674D-02
 Coeff-Com: -0.728D-01-0.109D+00 0.236D+00 0.941D+00
 Coeff:     -0.136D-02 0.189D-02 0.719D-03 0.303D-02 0.712D-02-0.674D-02
 Coeff:     -0.728D-01-0.109D+00 0.236D+00 0.941D+00
 Gap=     0.238 Goal=   None    Shift=    0.000
 RMSDP=3.68D-05 MaxDP=4.51D-03 DE=-6.23D-06 OVMax= 1.49D-03

 Cycle  11  Pass 1  IDiag  1:
 RMSU=  8.26D-06    CP:  2.60D-01  3.00D+00  1.25D+00  7.62D-01  1.01D+00
                    CP:  1.38D+00  1.72D+00  1.58D+00  1.82D+00  1.49D+00
 E= -3010.55121433095     Delta-E=       -0.000001375357 Rises=F Damp=F
 DIIS: error= 1.16D-05 at cycle  11 NSaved=  11.
 NSaved=11 IEnMin=11 EnMin= -3010.55121433095     IErMin=11 ErrMin= 1.16D-05
 ErrMax= 1.16D-05  0.00D+00 EMaxC= 1.00D-01 BMatC= 4.70D-08 BMatP= 2.11D-07
 IDIUse=1 WtCom= 1.00D+00 WtEn= 0.00D+00
 Coeff-Com: -0.147D-02 0.195D-02-0.199D-03 0.293D-02 0.843D-02 0.245D-01
 Coeff-Com:  0.196D-01-0.809D-01-0.299D+00 0.135D+00 0.119D+01
 Coeff:     -0.147D-02 0.195D-02-0.199D-03 0.293D-02 0.843D-02 0.245D-01
 Coeff:      0.196D-01-0.809D-01-0.299D+00 0.135D+00 0.119D+01
 Gap=     0.238 Goal=   None    Shift=    0.000
 RMSDP=2.14D-05 MaxDP=2.43D-03 DE=-1.38D-06 OVMax= 1.18D-03

 Cycle  12  Pass 1  IDiag  1:
 RMSU=  3.77D-06    CP:  2.60D-01  3.00D+00  1.25D+00  7.62D-01  1.01D+00
                    CP:  1.39D+00  1.70D+00  1.57D+00  2.07D+00  1.95D+00
                    CP:  1.40D+00
 E= -3010.55121477823     Delta-E=       -0.000000447278 Rises=F Damp=F
 DIIS: error= 4.19D-06 at cycle  12 NSaved=  12.
 NSaved=12 IEnMin=12 EnMin= -3010.55121477823     IErMin=12 ErrMin= 4.19D-06
 ErrMax= 4.19D-06  0.00D+00 EMaxC= 1.00D-01 BMatC= 1.17D-08 BMatP= 4.70D-08
 IDIUse=1 WtCom= 1.00D+00 WtEn= 0.00D+00
 Coeff-Com: -0.467D-03 0.614D-03-0.150D-03 0.864D-03 0.201D-02 0.986D-02
 Coeff-Com:  0.160D-01-0.208D-01-0.150D+00-0.568D-01 0.524D+00 0.675D+00
 Coeff:     -0.467D-03 0.614D-03-0.150D-03 0.864D-03 0.201D-02 0.986D-02
 Coeff:      0.160D-01-0.208D-01-0.150D+00-0.568D-01 0.524D+00 0.675D+00
 Gap=     0.238 Goal=   None    Shift=    0.000
 RMSDP=3.60D-06 MaxDP=3.61D-04 DE=-4.47D-07 OVMax= 2.33D-04

 Cycle  13  Pass 1  IDiag  1:
 RMSU=  2.20D-06    CP:  2.60D-01  3.00D+00  1.25D+00  7.62D-01  1.01D+00
                    CP:  1.38D+00  1.70D+00  1.57D+00  2.08D+00  2.01D+00
                    CP:  1.59D+00  1.12D+00
 E= -3010.55121481071     Delta-E=       -0.000000032484 Rises=F Damp=F
 DIIS: error= 2.32D-06 at cycle  13 NSaved=  13.
 NSaved=13 IEnMin=13 EnMin= -3010.55121481071     IErMin=13 ErrMin= 2.32D-06
 ErrMax= 2.32D-06  0.00D+00 EMaxC= 1.00D-01 BMatC= 1.29D-09 BMatP= 1.17D-08
 IDIUse=1 WtCom= 1.00D+00 WtEn= 0.00D+00
 Coeff-Com:  0.854D-04-0.114D-03-0.186D-04-0.420D-03-0.182D-02-0.445D-02
 Coeff-Com: -0.219D-02 0.142D-01 0.478D-01-0.500D-01-0.184D+00 0.112D+00
 Coeff-Com:  0.107D+01
 Coeff:      0.854D-04-0.114D-03-0.186D-04-0.420D-03-0.182D-02-0.445D-02
 Coeff:     -0.219D-02 0.142D-01 0.478D-01-0.500D-01-0.184D+00 0.112D+00
 Coeff:      0.107D+01
 Gap=     0.238 Goal=   None    Shift=    0.000
 RMSDP=2.02D-06 MaxDP=1.00D-04 DE=-3.25D-08 OVMax= 1.23D-04

 Cycle  14  Pass 1  IDiag  1:
 RMSU=  5.54D-07    CP:  2.60D-01  3.00D+00  1.25D+00  7.62D-01  1.01D+00
                    CP:  1.39D+00  1.70D+00  1.57D+00  2.08D+00  2.03D+00
                    CP:  1.66D+00  1.41D+00  1.34D+00
 E= -3010.55121481785     Delta-E=       -0.000000007136 Rises=F Damp=F
 DIIS: error= 9.96D-07 at cycle  14 NSaved=  14.
 NSaved=14 IEnMin=14 EnMin= -3010.55121481785     IErMin=14 ErrMin= 9.96D-07
 ErrMax= 9.96D-07  0.00D+00 EMaxC= 1.00D-01 BMatC= 1.70D-10 BMatP= 1.29D-09
 IDIUse=1 WtCom= 1.00D+00 WtEn= 0.00D+00
 Coeff-Com:  0.795D-04-0.106D-03 0.895D-05-0.179D-03-0.444D-03-0.161D-02
 Coeff-Com: -0.183D-02 0.479D-02 0.252D-01-0.565D-02-0.937D-01-0.537D-01
 Coeff-Com:  0.265D+00 0.862D+00
 Coeff:      0.795D-04-0.106D-03 0.895D-05-0.179D-03-0.444D-03-0.161D-02
 Coeff:     -0.183D-02 0.479D-02 0.252D-01-0.565D-02-0.937D-01-0.537D-01
 Coeff:      0.265D+00 0.862D+00
 Gap=     0.238 Goal=   None    Shift=    0.000
 RMSDP=6.67D-07 MaxDP=5.82D-05 DE=-7.14D-09 OVMax= 2.10D-05

 Cycle  15  Pass 1  IDiag  1:
 RMSU=  2.55D-07    CP:  2.60D-01  3.00D+00  1.25D+00  7.62D-01  1.01D+00
                    CP:  1.39D+00  1.70D+00  1.57D+00  2.08D+00  2.03D+00
                    CP:  1.66D+00  1.49D+00  1.52D+00  1.26D+00
 E= -3010.55121481837     Delta-E=       -0.000000000518 Rises=F Damp=F
 DIIS: error= 3.86D-07 at cycle  15 NSaved=  15.
 NSaved=15 IEnMin=15 EnMin= -3010.55121481837     IErMin=15 ErrMin= 3.86D-07
 ErrMax= 3.86D-07  0.00D+00 EMaxC= 1.00D-01 BMatC= 3.69D-11 BMatP= 1.70D-10
 IDIUse=1 WtCom= 1.00D+00 WtEn= 0.00D+00
 Coeff-Com:  0.253D-04-0.338D-04 0.629D-05-0.106D-04 0.134D-03 0.158D-03
 Coeff-Com: -0.309D-03-0.528D-03 0.226D-02 0.568D-02-0.929D-02-0.395D-01
 Coeff-Com: -0.497D-01 0.352D+00 0.739D+00
 Coeff:      0.253D-04-0.338D-04 0.629D-05-0.106D-04 0.134D-03 0.158D-03
 Coeff:     -0.309D-03-0.528D-03 0.226D-02 0.568D-02-0.929D-02-0.395D-01
 Coeff:     -0.497D-01 0.352D+00 0.739D+00
 Gap=     0.238 Goal=   None    Shift=    0.000
 RMSDP=2.06D-07 MaxDP=1.37D-05 DE=-5.18D-10 OVMax= 7.32D-06

 Cycle  16  Pass 1  IDiag  1:
 RMSU=  8.09D-08    CP:  2.60D-01  3.00D+00  1.25D+00  7.62D-01  1.01D+00
                    CP:  1.39D+00  1.70D+00  1.57D+00  2.08D+00  2.03D+00
                    CP:  1.66D+00  1.50D+00  1.57D+00  1.44D+00  1.06D+00
 E= -3010.55121481853     Delta-E=       -0.000000000161 Rises=F Damp=F
 DIIS: error= 1.36D-07 at cycle  16 NSaved=  16.
 NSaved=16 IEnMin=16 EnMin= -3010.55121481853     IErMin=16 ErrMin= 1.36D-07
 ErrMax= 1.36D-07  0.00D+00 EMaxC= 1.00D-01 BMatC= 3.19D-12 BMatP= 3.69D-11
 IDIUse=1 WtCom= 1.00D+00 WtEn= 0.00D+00
 Coeff-Com: -0.203D-05 0.266D-05 0.101D-05 0.190D-04 0.924D-04 0.281D-03
 Coeff-Com:  0.167D-03-0.930D-03-0.300D-02 0.323D-02 0.105D-01-0.439D-02
 Coeff-Com: -0.556D-01-0.386D-01 0.167D+00 0.922D+00
 Coeff:     -0.203D-05 0.266D-05 0.101D-05 0.190D-04 0.924D-04 0.281D-03
 Coeff:      0.167D-03-0.930D-03-0.300D-02 0.323D-02 0.105D-01-0.439D-02
 Coeff:     -0.556D-01-0.386D-01 0.167D+00 0.922D+00
 Gap=     0.238 Goal=   None    Shift=    0.000
 RMSDP=1.01D-07 MaxDP=5.75D-06 DE=-1.61D-10 OVMax= 3.54D-06

 Cycle  17  Pass 1  IDiag  1:
 RMSU=  2.62D-08    CP:  2.60D-01  3.00D+00  1.25D+00  7.62D-01  1.01D+00
                    CP:  1.38D+00  1.70D+00  1.57D+00  2.08D+00  2.03D+00
                    CP:  1.66D+00  1.51D+00  1.59D+00  1.51D+00  1.25D+00
                    CP:  1.14D+00
 E= -3010.55121481855     Delta-E=       -0.000000000019 Rises=F Damp=F
 DIIS: error= 5.32D-08 at cycle  17 NSaved=  17.
 NSaved=17 IEnMin=17 EnMin= -3010.55121481855     IErMin=17 ErrMin= 5.32D-08
 ErrMax= 5.32D-08  0.00D+00 EMaxC= 1.00D-01 BMatC= 3.79D-13 BMatP= 3.19D-12
 IDIUse=1 WtCom= 1.00D+00 WtEn= 0.00D+00
 Coeff-Com: -0.238D-05 0.317D-05-0.335D-06 0.327D-05 0.719D-07 0.335D-04
 Coeff-Com:  0.710D-04-0.755D-04-0.675D-03 0.404D-04 0.234D-02 0.320D-02
 Coeff-Com: -0.362D-02-0.365D-01-0.604D-01 0.177D+00 0.918D+00
 Coeff:     -0.238D-05 0.317D-05-0.335D-06 0.327D-05 0.719D-07 0.335D-04
 Coeff:      0.710D-04-0.755D-04-0.675D-03 0.404D-04 0.234D-02 0.320D-02
 Coeff:     -0.362D-02-0.365D-01-0.604D-01 0.177D+00 0.918D+00
 Gap=     0.238 Goal=   None    Shift=    0.000
 RMSDP=3.56D-08 MaxDP=3.10D-06 DE=-1.91D-11 OVMax= 9.49D-07

 Cycle  18  Pass 1  IDiag  1:
 RMSU=  9.81D-09    CP:  2.60D-01  3.00D+00  1.25D+00  7.62D-01  1.01D+00
                    CP:  1.38D+00  1.70D+00  1.57D+00  2.08D+00  2.03D+00
                    CP:  1.66D+00  1.51D+00  1.59D+00  1.52D+00  1.30D+00
                    CP:  1.28D+00  1.35D+00
 E= -3010.55121481853     Delta-E=        0.000000000019 Rises=F Damp=F
 DIIS: error= 1.35D-08 at cycle  18 NSaved=  18.
 NSaved=18 IEnMin=17 EnMin= -3010.55121481855     IErMin=18 ErrMin= 1.35D-08
 ErrMax= 1.35D-08  0.00D+00 EMaxC= 1.00D-01 BMatC= 9.74D-14 BMatP= 3.79D-13
 IDIUse=1 WtCom= 1.00D+00 WtEn= 0.00D+00
 Coeff-Com:  0.113D-06-0.153D-06-0.116D-06-0.236D-05-0.156D-04-0.317D-04
 Coeff-Com:  0.544D-05 0.107D-03 0.172D-03-0.484D-03-0.628D-03 0.213D-02
 Coeff-Com:  0.692D-02-0.786D-02-0.541D-01-0.761D-01 0.360D+00 0.770D+00
 Coeff:      0.113D-06-0.153D-06-0.116D-06-0.236D-05-0.156D-04-0.317D-04
 Coeff:      0.544D-05 0.107D-03 0.172D-03-0.484D-03-0.628D-03 0.213D-02
 Coeff:      0.692D-02-0.786D-02-0.541D-01-0.761D-01 0.360D+00 0.770D+00
 Gap=     0.238 Goal=   None    Shift=    0.000
 RMSDP=9.87D-09 MaxDP=5.04D-07 DE= 1.91D-11 OVMax= 2.28D-07

 SCF Done:  E(RwB97XD) =  -3010.55121482     A.U. after   18 cycles
            NFock= 18  Conv=0.99D-08     -V/T= 2.0016
 KE= 3.005815796805D+03 PE=-8.628933425736D+03 EE= 1.875790218233D+03
 Leave Link  502 at Wed May  1 15:27:39 2024, MaxMem=  1207959552 cpu:             996.8 elap:             997.0
 (Enter /software/gaussian/g16-c01/sse4/g16/l601.exe)
 Copying SCF densities to generalized density rwf, IOpCl= 0 IROHF=0.

 **********************************************************************

            Population analysis using the SCF Density.

 **********************************************************************

 Alpha  occ. eigenvalues -- -483.28098 -62.83065 -56.62816 -56.62163 -56.62162
 Alpha  occ. eigenvalues --  -19.44912 -19.44857 -14.84406 -10.56642 -10.56193
 Alpha  occ. eigenvalues --  -10.56064 -10.55827 -10.55658 -10.51965  -8.98830
 Alpha  occ. eigenvalues --   -6.81661  -6.79541  -6.79532  -2.91528  -2.90967
 Alpha  occ. eigenvalues --   -2.90958  -2.89264  -2.89264  -1.48669  -1.31651
 Alpha  occ. eigenvalues --   -1.21371  -1.12530  -1.10497  -1.01683  -0.99970
 Alpha  occ. eigenvalues --   -0.94110  -0.89819  -0.84286  -0.79789  -0.79504
 Alpha  occ. eigenvalues --   -0.78954  -0.77329  -0.75086  -0.74832  -0.70609
 Alpha  occ. eigenvalues --   -0.68170  -0.66441  -0.61755  -0.58499  -0.56086
 Alpha  occ. eigenvalues --   -0.55191  -0.54645  -0.52520  -0.51901
 Alpha virt. eigenvalues --   -0.28079  -0.20388  -0.14675  -0.13458  -0.11100
 Alpha virt. eigenvalues --   -0.09830  -0.09367  -0.06409  -0.05489  -0.04829
 Alpha virt. eigenvalues --   -0.02728  -0.01448  -0.00522   0.00603   0.00888
 Alpha virt. eigenvalues --    0.02255   0.02613   0.03791   0.03919   0.04864
 Alpha virt. eigenvalues --    0.05573   0.06295   0.07106   0.07292   0.07588
 Alpha virt. eigenvalues --    0.08475   0.08839   0.09493   0.11025   0.11354
 Alpha virt. eigenvalues --    0.11778   0.12290   0.12782   0.13499   0.13853
 Alpha virt. eigenvalues --    0.15281   0.15955   0.16321   0.16928   0.17060
 Alpha virt. eigenvalues --    0.17699   0.18450   0.18664   0.19366   0.20434
 Alpha virt. eigenvalues --    0.20872   0.22426   0.22700   0.23446   0.26148
 Alpha virt. eigenvalues --    0.26438   0.28788   0.29688   0.31966   0.34376
 Alpha virt. eigenvalues --    0.34936   0.35175   0.36016   0.38126   0.38261
 Alpha virt. eigenvalues --    0.39179   0.39753   0.41074   0.41854   0.43538
 Alpha virt. eigenvalues --    0.44482   0.45004   0.45596   0.46984   0.48484
 Alpha virt. eigenvalues --    0.49163   0.51575   0.52525   0.53712   0.54323
 Alpha virt. eigenvalues --    0.55461   0.56699   0.57276   0.58496   0.60454
 Alpha virt. eigenvalues --    0.62429   0.63489   0.65643   0.68439   0.69971
 Alpha virt. eigenvalues --    0.71152   0.73229   0.73664   0.74484   0.75202
 Alpha virt. eigenvalues --    0.76139   0.80218   0.81005   0.85683   0.86334
 Alpha virt. eigenvalues --    0.88048   0.89127   0.92725   0.94524   0.99759
 Alpha virt. eigenvalues --    1.00681   1.02166   1.05803   1.06323   1.07663
 Alpha virt. eigenvalues --    1.10622   1.11688   1.13114   1.13546   1.15181
 Alpha virt. eigenvalues --    1.22946   1.25386   1.27627   1.33993   1.37474
 Alpha virt. eigenvalues --    1.37825   1.39180   1.46537   1.55384   1.58098
 Alpha virt. eigenvalues --    1.59497   1.59804   1.61593   1.63371   1.67437
 Alpha virt. eigenvalues --    1.70114   1.70930   1.74541   1.76214   1.80056
 Alpha virt. eigenvalues --    1.82080   1.86382   1.88505   1.96435   1.98662
 Alpha virt. eigenvalues --    2.00165   2.03926   2.04999   2.08524   2.09566
 Alpha virt. eigenvalues --    2.11306   2.15884   2.21299   2.23564   2.30150
 Alpha virt. eigenvalues --    2.38385   2.42084   2.43203   2.44395   2.53464
 Alpha virt. eigenvalues --    2.57516   2.63992   2.67076   2.69162   2.72665
 Alpha virt. eigenvalues --    2.74336   2.77456   2.78296   2.82010   2.82940
 Alpha virt. eigenvalues --    2.94752   2.97420   3.01585   3.06673   3.10004
 Alpha virt. eigenvalues --    3.13899   3.15931   3.19971   3.24644   3.25214
 Alpha virt. eigenvalues --    3.28289   3.40071   3.48568   3.52213   3.55477
 Alpha virt. eigenvalues --    3.57831   3.70879   3.75074   3.83214   3.88269
 Alpha virt. eigenvalues --    4.12463   4.12669   4.19854   4.25130   4.45282
 Alpha virt. eigenvalues --    4.45866   4.58578   4.60873   4.94133   4.96792
 Alpha virt. eigenvalues --    5.05445   5.09613   5.63773   6.16699   6.68008
 Alpha virt. eigenvalues --    7.51195   7.52742   7.62324  23.22425  23.62315
 Alpha virt. eigenvalues --   23.71073  23.80639  23.97027  24.02439  35.33553
 Alpha virt. eigenvalues --   47.94408  49.86504  49.95314 289.83681 289.85349
 Alpha virt. eigenvalues --  289.977441020.94747
          Condensed to atoms (all electrons):
               1          2          3          4          5          6
     1  C    8.911991  -1.826775  -0.424658  -1.188944  -0.720725   0.306158
     2  C   -1.826775  13.225243  -1.302304  -4.275778   0.686940  -0.020711
     3  C   -0.424658  -1.302304  13.905198  -4.092698  -0.845919   0.034105
     4  C   -1.188944  -4.275778  -4.092698  18.243324   0.752643   0.002114
     5  C   -0.720725   0.686940  -0.845919   0.752643   7.880972   0.011098
     6  H    0.306158  -0.020711   0.034105   0.002114   0.011098   0.339971
     7  H    0.063462   0.226446   0.080624  -0.030065  -0.024461  -0.001617
     8  H    0.007038  -0.008708   0.081063   0.207981  -0.023726   0.000003
     9  H    0.038300  -0.027329   0.003212  -0.005542   0.290982  -0.002322
    10  N   -0.110614   0.363618  -1.041652   0.317104  -0.008838  -0.000756
    11  O    0.023809  -0.007862  -0.226185  -0.124818  -0.058855  -0.000025
    12  O    0.297037  -0.163845  -0.246475   0.038273  -0.047709   0.000097
    13  C    1.162113  -1.321519   0.720231  -4.069679  -1.819958   0.001258
    14  H   -0.033071   0.008282  -0.003535   0.016496   0.029697  -0.000020
    15  Br   0.037026   0.011189   0.047571  -0.044629  -0.032150   0.000012
               7          8          9         10         11         12
     1  C    0.063462   0.007038   0.038300  -0.110614   0.023809   0.297037
     2  C    0.226446  -0.008708  -0.027329   0.363618  -0.007862  -0.163845
     3  C    0.080624   0.081063   0.003212  -1.041652  -0.226185  -0.246475
     4  C   -0.030065   0.207981  -0.005542   0.317104  -0.124818   0.038273
     5  C   -0.024461  -0.023726   0.290982  -0.008838  -0.058855  -0.047709
     6  H   -0.001617   0.000003  -0.002322  -0.000756  -0.000025   0.000097
     7  H    0.301378   0.000027   0.000071  -0.026764  -0.001487   0.021670
     8  H    0.000027   0.304167   0.000189  -0.025212   0.023928  -0.000901
     9  H    0.000071   0.000189   0.341066   0.000574  -0.000023   0.000016
    10  N   -0.026764  -0.025212   0.000574   7.436934   0.179323   0.128522
    11  O   -0.001487   0.023928  -0.000023   0.179323   7.848924  -0.006986
    12  O    0.021670  -0.000901   0.000016   0.128522  -0.006986   7.900035
    13  C    0.022412   0.065034   0.018899  -0.100185   0.314242   0.044945
    14  H   -0.000064  -0.008591  -0.009815  -0.001321  -0.000041   0.000014
    15  Br   0.000411   0.007075   0.006007   0.003364   0.001827   0.003406
              13         14         15
     1  C    1.162113  -0.033071   0.037026
     2  C   -1.321519   0.008282   0.011189
     3  C    0.720231  -0.003535   0.047571
     4  C   -4.069679   0.016496  -0.044629
     5  C   -1.819958   0.029697  -0.032150
     6  H    0.001258  -0.000020   0.000012
     7  H    0.022412  -0.000064   0.000411
     8  H    0.065034  -0.008591   0.007075
     9  H    0.018899  -0.009815   0.006007
    10  N   -0.100185  -0.001321   0.003364
    11  O    0.314242  -0.000041   0.001827
    12  O    0.044945   0.000014   0.003406
    13  C   10.970306   0.259493   0.186659
    14  H    0.259493   0.471382  -0.057177
    15  Br   0.186659  -0.057177  34.457027
 Mulliken charges:
               1
     1  C   -0.542146
     2  C    0.433113
     3  C   -0.688579
     4  C    0.254219
     5  C   -0.069991
     6  H    0.330636
     7  H    0.367957
     8  H    0.370637
     9  H    0.345715
    10  N   -0.114097
    11  O    0.034229
    12  O    0.031902
    13  C   -0.454251
    14  H    0.328272
    15  Br   0.372383
 Sum of Mulliken charges =   1.00000
 Mulliken charges with hydrogens summed into heavy atoms:
               1
     1  C   -0.211509
     2  C    0.801070
     3  C   -0.688579
     4  C    0.624855
     5  C    0.275725
    10  N   -0.114097
    11  O    0.034229
    12  O    0.031902
    13  C   -0.125979
    15  Br   0.372383
 Electronic spatial extent (au):  <R**2>=           2795.4580
 Charge=              1.0000 electrons
 Dipole moment (field-independent basis, Debye):
    X=             -1.3563    Y=             -1.4247    Z=             -3.7711  Tot=              4.2533
 Quadrupole moment (field-independent basis, Debye-Ang):
   XX=            -72.0223   YY=            -50.9060   ZZ=            -59.0050
   XY=              1.9205   XZ=             -0.6235   YZ=              4.8291
 Traceless Quadrupole moment (field-independent basis, Debye-Ang):
   XX=            -11.3779   YY=              9.7384   ZZ=              1.6395
   XY=              1.9205   XZ=             -0.6235   YZ=              4.8291
 Octapole moment (field-independent basis, Debye-Ang**2):
  XXX=           -303.5063  YYY=             81.8349  ZZZ=             60.6877  XYY=            -78.3042
  XXY=             29.0643  XXZ=             19.6929  XZZ=            -80.7810  YZZ=              7.9065
  YYZ=             13.9312  XYZ=             -5.5629
 Hexadecapole moment (field-independent basis, Debye-Ang**3):
 XXXX=          -2293.5827 YYYY=           -665.4594 ZZZZ=           -314.5372 XXXY=            -65.9869
 XXXZ=            -56.1972 YYYX=            -55.7098 YYYZ=           -136.1316 ZZZX=            -15.9018
 ZZZY=           -111.9514 XXYY=           -456.5749 XXZZ=           -366.7946 YYZZ=           -145.6368
 XXYZ=            -51.6854 YYXZ=             -1.7972 ZZXY=             -3.6797
 N-N= 7.367761958792D+02 E-N=-8.628933426811D+03  KE= 3.005815796805D+03
 No NMR shielding tensors so no spin-rotation constants.
 Leave Link  601 at Wed May  1 15:27:46 2024, MaxMem=  1207959552 cpu:               7.0 elap:               7.0
 (Enter /software/gaussian/g16-c01/sse4/g16/l9999.exe)
 Unable to Open any file for archive entry.
 1\1\GINC-BHX0010\SP\RwB97XD\6-311+G(d)\C6H5Br1N1O2(1+)\BWEIGHT\01-May-
 2024\0\\#P wB97XD/6-311+G* NoSymm #P Field=Z+214\\TitleMe\\1,1\C,0,0.0
 295,1.3397,0.0682\C,0,1.4348,1.2867,0.0064\C,0,2.1118,0.0511,-0.0054\C
 ,0,1.4451,-1.1372,0.0312\C,0,-0.6879,0.1682,0.11\H,0,-0.4713,2.2984,0.
 0781\H,0,2.0273,2.1965,-0.0322\H,0,1.9897,-2.0764,0.0232\H,0,-1.7716,0
 .1804,0.1582\N,0,3.5864,0.051,-0.0675\O,0,4.1471,-1.0597,-0.0881\O,0,4
 .145,1.1639,-0.0901\C,0,-0.0236,-1.1458,0.0835\H,0,-0.4367,-1.8725,0.7
 889\Br,0,-0.5359,-1.8697,-1.7408\\Version=ES64L-G16RevC.01\HF=-3010.55
 12148\RMSD=9.874e-09\Dipole=-2.440156,0.5875496,-0.3374785\Quadrupole=
 -8.4591809,7.2402881,1.2188928,1.4278498,-0.4635523,3.5903078\PG=C01 [
 X(C6H5Br1N1O2)]\\@
 The archive entry for this job was punched.


 IT IS THE BEHAVIOR AND DISTRIBUTION OF THE ELECTRONS 
 AROUND THE NUCLEUS THAT GIVES THE FUNDAMENTAL 
 CHARACTER OF AN ATOM:  IT MUST BE THE SAME FOR MOLECULES.

                               -- C. A. COULSON, 1951
 Job cpu time:       0 days  0 hours 17 minutes 42.1 seconds.
 Elapsed time:       0 days  0 hours 17 minutes 42.2 seconds.
 File lengths (MBytes):  RWF=     40 Int=      0 D2E=      0 Chk=     32 Scr=      1
 Normal termination of Gaussian 16 at Wed May  1 15:27:47 2024.
