 Entering Gaussian System, Link 0=g16
 Initial command:
 /software/gaussian/g16-c01/sse4/g16/l1.exe "/local_scratch/24657563/Gau-16649.inp" -scrdir="/local_scratch/24657563/"
 Entering Link 1 = /software/gaussian/g16-c01/sse4/g16/l1.exe PID=     16670.
  
 Copyright (c) 1988-2019, Gaussian, Inc.  All Rights Reserved.
  
 This is part of the Gaussian(R) 16 program.  It is based on
 the Gaussian(R) 09 system (copyright 2009, Gaussian, Inc.),
 the Gaussian(R) 03 system (copyright 2003, Gaussian, Inc.),
 the Gaussian(R) 98 system (copyright 1998, Gaussian, Inc.),
 the Gaussian(R) 94 system (copyright 1995, Gaussian, Inc.),
 the Gaussian 92(TM) system (copyright 1992, Gaussian, Inc.),
 the Gaussian 90(TM) system (copyright 1990, Gaussian, Inc.),
 the Gaussian 88(TM) system (copyright 1988, Gaussian, Inc.),
 the Gaussian 86(TM) system (copyright 1986, Carnegie Mellon
 University), and the Gaussian 82(TM) system (copyright 1983,
 Carnegie Mellon University). Gaussian is a federally registered
 trademark of Gaussian, Inc.
  
 This software contains proprietary and confidential information,
 including trade secrets, belonging to Gaussian, Inc.
  
 This software is provided under written license and may be
 used, copied, transmitted, or stored only in accord with that
 written license.
  
 The following legend is applicable only to US Government
 contracts under FAR:
  
                    RESTRICTED RIGHTS LEGEND
  
 Use, reproduction and disclosure by the US Government is
 subject to restrictions as set forth in subparagraphs (a)
 and (c) of the Commercial Computer Software - Restricted
 Rights clause in FAR 52.227-19.
  
 Gaussian, Inc.
 340 Quinnipiac St., Bldg. 40, Wallingford CT 06492
  
  
 ---------------------------------------------------------------
 Warning -- This program may not be used in any manner that
 competes with the business of Gaussian, Inc. or will provide
 assistance to any competitor of Gaussian, Inc.  The licensee
 of this program is prohibited from giving any competitor of
 Gaussian, Inc. access to this program.  By using this program,
 the user acknowledges that Gaussian, Inc. is engaged in the
 business of creating and licensing software in the field of
 computational chemistry and represents and warrants to the
 licensee that it is not a competitor of Gaussian, Inc. and that
 it will not use this program in any manner prohibited above.
 ---------------------------------------------------------------
  

 Cite this work as:
 Gaussian 16, Revision C.01,
 M. J. Frisch, G. W. Trucks, H. B. Schlegel, G. E. Scuseria, 
 M. A. Robb, J. R. Cheeseman, G. Scalmani, V. Barone, 
 G. A. Petersson, H. Nakatsuji, X. Li, M. Caricato, A. V. Marenich, 
 J. Bloino, B. G. Janesko, R. Gomperts, B. Mennucci, H. P. Hratchian, 
 J. V. Ortiz, A. F. Izmaylov, J. L. Sonnenberg, D. Williams-Young, 
 F. Ding, F. Lipparini, F. Egidi, J. Goings, B. Peng, A. Petrone, 
 T. Henderson, D. Ranasinghe, V. G. Zakrzewski, J. Gao, N. Rega, 
 G. Zheng, W. Liang, M. Hada, M. Ehara, K. Toyota, R. Fukuda, 
 J. Hasegawa, M. Ishida, T. Nakajima, Y. Honda, O. Kitao, H. Nakai, 
 T. Vreven, K. Throssell, J. A. Montgomery, Jr., J. E. Peralta, 
 F. Ogliaro, M. J. Bearpark, J. J. Heyd, E. N. Brothers, K. N. Kudin, 
 V. N. Staroverov, T. A. Keith, R. Kobayashi, J. Normand, 
 K. Raghavachari, A. P. Rendell, J. C. Burant, S. S. Iyengar, 
 J. Tomasi, M. Cossi, J. M. Millam, M. Klene, C. Adamo, R. Cammi, 
 J. W. Ochterski, R. L. Martin, K. Morokuma, O. Farkas, 
 J. B. Foresman, and D. J. Fox, Gaussian, Inc., Wallingford CT, 2019.
 
 ******************************************
 Gaussian 16:  ES64L-G16RevC.01  3-Jul-2019
                 1-May-2024 
 ******************************************
 %chk=geometry.chk
 %mem=9GB
 %nprocshared=12
 Will use up to   12 processors via shared memory.
 ---------------------------------------
 #P wB97XD/6-311+G* NoSymm #P Field=Z+19
 ---------------------------------------
 1/38=1,172=1/1;
 2/12=2,15=1,17=6,18=5,40=1/2;
 3/5=4,6=6,7=11,11=2,14=3,15=19,25=1,30=1,74=-58/1,2,3;
 4//1;
 5/5=2,38=5/2;
 6/7=2,8=2,9=2,10=2,28=1/1;
 99/5=1,9=1/99;
 Leave Link    1 at Wed May  1 15:07:01 2024, MaxMem=  1207959552 cpu:               1.2 elap:               1.3
 (Enter /software/gaussian/g16-c01/sse4/g16/l101.exe)
 -------
 TitleMe
 -------
 Symbolic Z-matrix:
 Charge =  1 Multiplicity = 1
 C                     0.0295    1.3397    0.0682 
 C                     1.4348    1.2867    0.0064 
 C                     2.1118    0.0511   -0.0054 
 C                     1.4451   -1.1372    0.0312 
 C                    -0.6879    0.1682    0.11 
 H                    -0.4713    2.2984    0.0781 
 H                     2.0273    2.1965   -0.0322 
 H                     1.9897   -2.0764    0.0232 
 H                    -1.7716    0.1804    0.1582 
 N                     3.5864    0.051    -0.0675 
 O                     4.1471   -1.0597   -0.0881 
 O                     4.145     1.1639   -0.0901 
 C                    -0.0236   -1.1458    0.0835 
 H                    -0.4367   -1.8725    0.7889 
 Br                   -0.5359   -1.8697   -1.7408 
 
 ITRead=  0  0  0  0  0  0  0  0  0  0  0  0  0  0  0
 MicOpt= -1 -1 -1 -1 -1 -1 -1 -1 -1 -1 -1 -1 -1 -1 -1
 NAtoms=     15 NQM=       15 NQMF=       0 NMMI=      0 NMMIF=      0
                NMic=       0 NMicF=      0.
                    Isotopes and Nuclear Properties:
 (Nuclear quadrupole moments (NQMom) in fm**2, nuclear magnetic moments (NMagM)
  in nuclear magnetons)

  Atom         1           2           3           4           5           6           7           8           9          10
 IAtWgt=          12          12          12          12          12           1           1           1           1          14
 AtmWgt=  12.0000000  12.0000000  12.0000000  12.0000000  12.0000000   1.0078250   1.0078250   1.0078250   1.0078250  14.0030740
 NucSpn=           0           0           0           0           0           1           1           1           1           2
 AtZEff=  -0.0000000  -0.0000000  -0.0000000  -0.0000000  -0.0000000  -0.0000000  -0.0000000  -0.0000000  -0.0000000  -0.0000000
 NQMom=    0.0000000   0.0000000   0.0000000   0.0000000   0.0000000   0.0000000   0.0000000   0.0000000   0.0000000   2.0440000
 NMagM=    0.0000000   0.0000000   0.0000000   0.0000000   0.0000000   2.7928460   2.7928460   2.7928460   2.7928460   0.4037610
 AtZNuc=   6.0000000   6.0000000   6.0000000   6.0000000   6.0000000   1.0000000   1.0000000   1.0000000   1.0000000   7.0000000

  Atom        11          12          13          14          15
 IAtWgt=          16          16          12           1          79
 AtmWgt=  15.9949146  15.9949146  12.0000000   1.0078250  78.9183361
 NucSpn=           0           0           0           1           3
 AtZEff=  -0.0000000  -0.0000000  -0.0000000  -0.0000000  -0.0000000
 NQMom=    0.0000000   0.0000000   0.0000000   0.0000000  31.3000000
 NMagM=    0.0000000   0.0000000   0.0000000   2.7928460   2.1063990
 AtZNuc=   8.0000000   8.0000000   6.0000000   1.0000000  35.0000000
 Leave Link  101 at Wed May  1 15:07:03 2024, MaxMem=  1207959552 cpu:               1.3 elap:               1.3
 (Enter /software/gaussian/g16-c01/sse4/g16/l202.exe)
                          Input orientation:                          
 ---------------------------------------------------------------------
 Center     Atomic      Atomic             Coordinates (Angstroms)
 Number     Number       Type             X           Y           Z
 ---------------------------------------------------------------------
      1          6           0        0.029500    1.339700    0.068200
      2          6           0        1.434800    1.286700    0.006400
      3          6           0        2.111800    0.051100   -0.005400
      4          6           0        1.445100   -1.137200    0.031200
      5          6           0       -0.687900    0.168200    0.110000
      6          1           0       -0.471300    2.298400    0.078100
      7          1           0        2.027300    2.196500   -0.032200
      8          1           0        1.989700   -2.076400    0.023200
      9          1           0       -1.771600    0.180400    0.158200
     10          7           0        3.586400    0.051000   -0.067500
     11          8           0        4.147100   -1.059700   -0.088100
     12          8           0        4.145000    1.163900   -0.090100
     13          6           0       -0.023600   -1.145800    0.083500
     14          1           0       -0.436700   -1.872500    0.788900
     15         35           0       -0.535900   -1.869700   -1.740800
 ---------------------------------------------------------------------
                    Distance matrix (angstroms):
                    1          2          3          4          5
     1  C    0.000000
     2  C    1.407656   0.000000
     3  C    2.449874   1.408963   0.000000
     4  C    2.853126   2.424049   1.363043   0.000000
     5  C    1.374344   2.401589   2.804523   2.501993   0.000000
     6  H    1.081667   2.159142   3.424870   3.934226   2.141421
     7  H    2.176095   1.086408   2.147231   3.384750   3.392128
     8  H    3.938800   3.408612   2.131193   1.085702   3.495040
     9  H    2.143837   3.395283   3.888995   3.478413   1.084840
    10  N    3.785591   2.482297   1.475907   2.450862   4.279589
    11  O    4.768247   3.587631   2.320164   2.705743   4.992415
    12  O    4.122294   2.714696   2.319353   3.549540   4.938459
    13  C    2.486114   2.837240   2.449573   1.469656   1.472614
    14  H    3.324903   3.754379   3.290289   2.157764   2.165286
    15  Br   3.727252   4.110867   3.702891   2.756973   2.757100
                    6          7          8          9         10
     6  H    0.000000
     7  H    2.503108   0.000000
     8  H    5.019802   4.273425   0.000000
     9  H    2.486588   4.304945   4.388479   0.000000
    10  N    4.640790   2.652397   2.661486   5.364313   0.000000
    11  O    5.712624   3.885809   2.387560   6.052233   1.244373
    12  O    4.756638   2.356750   3.893289   6.002923   1.245428
    13  C    3.473180   3.923079   2.218790   2.195425   3.806210
    14  H    4.231175   4.827242   2.552506   2.528663   4.540772
    15  Br   4.548146   5.101303   3.087568   3.055498   4.845862
                   11         12         13         14         15
    11  O    0.000000
    12  O    2.223602   0.000000
    13  C    4.175117   4.768865   0.000000
    14  H    4.737193   5.566358   1.093770   0.000000
    15  Br   5.031700   5.817075   2.028436   2.531646   0.000000
 Symmetry turned off by external request.
 Stoichiometry    C6H5BrNO2(1+)
 Framework group  C1[X(C6H5BrNO2)]
 Deg. of freedom    39
 Full point group                 C1      NOp   1
 Rotational constants (GHZ):           1.8252210           0.5518633           0.4576002
 Leave Link  202 at Wed May  1 15:07:04 2024, MaxMem=  1207959552 cpu:               1.1 elap:               1.1
 (Enter /software/gaussian/g16-c01/sse4/g16/l301.exe)
 Standard basis: 6-311+G(d) (5D, 7F)
 Ernie: Thresh=  0.10000D-02 Tol=  0.10000D-05 Strict=F.
 The following finite field(s) will be applied:
 An electric field of              0.0000  0.0000  0.0019
   261 basis functions,   443 primitive gaussians,   273 cartesian basis functions
    49 alpha electrons       49 beta electrons
       nuclear repulsion energy       739.2122215416 Hartrees.
 IExCor= 4639 DFT=T Ex+Corr=wB97XD ExCW=0 ScaHFX=  1.000000
 ScaDFX=  1.000000  1.000000  1.000000  1.000000 ScalE2=  1.000000  1.000000
 IRadAn=      5 IRanWt=     -1 IRanGd=            0 ICorTp=0 IEmpDi=121
 HFx  wShort=  0.000000 wLong=  0.200000 cFull=  0.222036 cShort=  0.000000 cLong=  0.777964
 DFx  wShort=  0.000000 wLong=  0.200000 cFull=  0.000000 cShort=  0.000000 cLong=  1.000000
 NAtoms=   15 NActive=   15 NUniq=   15 SFac= 1.00D+00 NAtFMM=   60 NAOKFM=F Big=F
 Integral buffers will be    131072 words long.
 Raffenetti 2 integral format.
 Two-electron integral symmetry is turned off.
 R6Disp:  Grimme-D2 Dispersion energy=       -0.0077368520 Hartrees.
 Nuclear repulsion after empirical dispersion term =      739.2044846896 Hartrees.
 Leave Link  301 at Wed May  1 15:07:05 2024, MaxMem=  1207959552 cpu:               0.9 elap:               0.9
 (Enter /software/gaussian/g16-c01/sse4/g16/l302.exe)
 NPDir=0 NMtPBC=     1 NCelOv=     1 NCel=       1 NClECP=     1 NCelD=      1
         NCelK=      1 NCelE2=     1 NClLst=     1 CellRange=     0.0.
 One-electron integrals computed using PRISM.
 NBasis=   261 RedAO= T EigKep=  2.35D-06  NBF=   261
 NBsUse=   261 1.00D-06 EigRej= -1.00D+00 NBFU=   261
 Precomputing XC quadrature grid using
 IXCGrd= 4 IRadAn=           5 IRanWt=          -1 IRanGd=           0 AccXCQ= 0.00D+00.
 Generated NRdTot=       0 NPtTot=           0 NUsed=           0 NTot=          32
 NSgBfM=   273   273   273   273   273 MxSgAt=    15 MxSgA2=    15.
 Leave Link  302 at Wed May  1 15:07:26 2024, MaxMem=  1207959552 cpu:              21.0 elap:              21.0
 (Enter /software/gaussian/g16-c01/sse4/g16/l303.exe)
 DipDrv:  MaxL=1.
 The nuclear repulsion energy is now       738.9888889541 hartrees.
 Leave Link  303 at Wed May  1 15:07:29 2024, MaxMem=  1207959552 cpu:               3.2 elap:               3.2
 (Enter /software/gaussian/g16-c01/sse4/g16/l401.exe)
 ExpMin= 3.50D-02 ExpMax= 4.40D+05 ExpMxC= 1.51D+04 IAcc=3 IRadAn=         5 AccDes= 0.00D+00
 Harris functional with IExCor= 4639 and IRadAn=       5 diagonalized for initial guess.
 HarFok:  IExCor= 4639 AccDes= 0.00D+00 IRadAn=         5 IDoV= 1 UseB2=F ITyADJ=14
 ICtDFT=  3500011 ScaDFX=  1.000000  1.000000  1.000000  1.000000
 FoFCou: FMM=F IPFlag=           0 FMFlag=      100000 FMFlg1=           0
         NFxFlg=           0 DoJE=T BraDBF=F KetDBF=T FulRan=T
         wScrn=  0.000000 ICntrl=       500 IOpCl=  0 I1Cent=   200000004 NGrid=           0
         NMat0=    1 NMatS0=      1 NMatT0=    0 NMatD0=    1 NMtDS0=    0 NMtDT0=    0
 Symmetry not used in FoFCou.
 Harris En= -2970.59545905042    
 JPrj=0 DoOrth=F DoCkMO=F.
 Leave Link  401 at Wed May  1 15:07:59 2024, MaxMem=  1207959552 cpu:              29.7 elap:              29.7
 (Enter /software/gaussian/g16-c01/sse4/g16/l502.exe)
 Two-electron integral symmetry not used.
 Closed shell SCF:
 Using DIIS extrapolation, IDIIS=  1040.
 NGot=  1207959552 LenX=  1207804877 LenY=  1207729907
 Requested convergence on RMS density matrix=1.00D-08 within 128 cycles.
 Requested convergence on MAX density matrix=1.00D-06.
 Requested convergence on             energy=1.00D-06.
 No special actions if energy rises.
 Fock matrices will be formed incrementally for  20 cycles.

 Cycle   1  Pass 1  IDiag  1:
 FoFJK:  IHMeth= 1 ICntrl=       0 DoSepK=T KAlg= 0 I1Cent=           0 FoldK=F
 IRaf=         1 NMat=       1 IRICut=       1 DoRegI=T DoRafI=F ISym2E= 0 IDoP0=0 IntGTp=1.
 FoFCou: FMM=F IPFlag=           0 FMFlag=      100000 FMFlg1=           0
         NFxFlg=           0 DoJE=T BraDBF=F KetDBF=F FulRan=T
         wScrn=  0.000000 ICntrl=       500 IOpCl=  0 I1Cent=           0 NGrid=           0
         NMat0=    1 NMatS0=      1 NMatT0=    0 NMatD0=    1 NMtDS0=    0 NMtDT0=    0
 Symmetry not used in FoFCou.
 E= -3009.72568980943    
 DIIS: error= 3.20D-01 at cycle   1 NSaved=   1.
 NSaved= 1 IEnMin= 1 EnMin= -3009.72568980943     IErMin= 1 ErrMin= 3.20D-01
 ErrMax= 3.20D-01  0.00D+00 EMaxC= 1.00D-01 BMatC= 1.19D+01 BMatP= 1.19D+01
 IDIUse=3 WtCom= 0.00D+00 WtEn= 1.00D+00
 Coeff-Com:  0.100D+01
 Coeff-En:   0.100D+01
 Coeff:      0.100D+01
 Gap=     0.324 Goal=   None    Shift=    0.000
 GapD=    0.324 DampG=1.000 DampE=0.250 DampFc=0.2500 IDamp=-1.
 Damping current iteration by 2.50D-01
 RMSDP=4.20D-02 MaxDP=4.57D+00              OVMax= 2.55D-01

 Cycle   2  Pass 1  IDiag  1:
 RMSU=  4.06D-03    CP:  8.94D-01
 E= -3010.00840788561     Delta-E=       -0.282718076171 Rises=F Damp=T
 DIIS: error= 2.25D-01 at cycle   2 NSaved=   2.
 NSaved= 2 IEnMin= 2 EnMin= -3010.00840788561     IErMin= 2 ErrMin= 2.25D-01
 ErrMax= 2.25D-01  0.00D+00 EMaxC= 1.00D-01 BMatC= 5.45D+00 BMatP= 1.19D+01
 IDIUse=3 WtCom= 0.00D+00 WtEn= 1.00D+00
 Coeff-Com: -0.184D+01 0.284D+01
 Coeff-En:   0.000D+00 0.100D+01
 Coeff:      0.000D+00 0.100D+01
 Gap=     0.295 Goal=   None    Shift=    0.000
 RMSDP=3.28D-02 MaxDP=3.54D+00 DE=-2.83D-01 OVMax= 7.44D-02

 Cycle   3  Pass 1  IDiag  1:
 RMSU=  4.23D-03    CP:  5.54D-01  3.00D+00
 E= -3010.38601396399     Delta-E=       -0.377606078383 Rises=F Damp=F
 DIIS: error= 6.56D-02 at cycle   3 NSaved=   3.
 NSaved= 3 IEnMin= 3 EnMin= -3010.38601396399     IErMin= 3 ErrMin= 6.56D-02
 ErrMax= 6.56D-02  0.00D+00 EMaxC= 1.00D-01 BMatC= 7.32D-01 BMatP= 5.45D+00
 IDIUse=3 WtCom= 3.44D-01 WtEn= 6.56D-01
 Coeff-Com:  0.277D+01-0.364D+01 0.187D+01
 Coeff-En:   0.266D-01 0.000D+00 0.973D+00
 Coeff:      0.968D+00-0.125D+01 0.128D+01
 Gap=     0.261 Goal=   None    Shift=    0.000
 RMSDP=8.22D-03 MaxDP=4.42D-01 DE=-3.78D-01 OVMax= 6.58D-02

 Cycle   4  Pass 1  IDiag  1:
 RMSU=  4.48D-03    CP:  5.71D-01  2.14D+00  2.08D+00
 E= -3010.48966694309     Delta-E=       -0.103652979099 Rises=F Damp=F
 DIIS: error= 3.82D-02 at cycle   4 NSaved=   4.
 NSaved= 4 IEnMin= 4 EnMin= -3010.48966694309     IErMin= 4 ErrMin= 3.82D-02
 ErrMax= 3.82D-02  0.00D+00 EMaxC= 1.00D-01 BMatC= 2.29D-01 BMatP= 7.32D-01
 IDIUse=3 WtCom= 6.18D-01 WtEn= 3.82D-01
 Coeff-Com: -0.191D+00 0.268D+00 0.266D+00 0.657D+00
 Coeff-En:   0.000D+00 0.000D+00 0.194D+00 0.806D+00
 Coeff:     -0.118D+00 0.166D+00 0.238D+00 0.714D+00
 Gap=     0.264 Goal=   None    Shift=    0.000
 RMSDP=3.41D-03 MaxDP=2.97D-01 DE=-1.04D-01 OVMax= 2.83D-02

 Cycle   5  Pass 1  IDiag  1:
 RMSU=  1.18D-03    CP:  5.42D-01  2.53D+00  1.93D+00  8.89D-01
 E= -3010.53388562606     Delta-E=       -0.044218682971 Rises=F Damp=F
 DIIS: error= 6.85D-03 at cycle   5 NSaved=   5.
 NSaved= 5 IEnMin= 5 EnMin= -3010.53388562606     IErMin= 5 ErrMin= 6.85D-03
 ErrMax= 6.85D-03  0.00D+00 EMaxC= 1.00D-01 BMatC= 7.30D-03 BMatP= 2.29D-01
 IDIUse=3 WtCom= 9.32D-01 WtEn= 6.85D-02
 Coeff-Com: -0.137D+00 0.186D+00 0.365D-01 0.315D+00 0.600D+00
 Coeff-En:   0.000D+00 0.000D+00 0.000D+00 0.000D+00 0.100D+01
 Coeff:     -0.128D+00 0.173D+00 0.340D-01 0.293D+00 0.628D+00
 Gap=     0.254 Goal=   None    Shift=    0.000
 RMSDP=5.25D-04 MaxDP=3.38D-02 DE=-4.42D-02 OVMax= 1.05D-02

 Cycle   6  Pass 1  IDiag  1:
 RMSU=  4.09D-04    CP:  5.40D-01  2.51D+00  1.94D+00  8.84D-01  7.44D-01
 E= -3010.53535893582     Delta-E=       -0.001473309759 Rises=F Damp=F
 DIIS: error= 1.06D-03 at cycle   6 NSaved=   6.
 NSaved= 6 IEnMin= 6 EnMin= -3010.53535893582     IErMin= 6 ErrMin= 1.06D-03
 ErrMax= 1.06D-03  0.00D+00 EMaxC= 1.00D-01 BMatC= 1.33D-04 BMatP= 7.30D-03
 IDIUse=3 WtCom= 9.89D-01 WtEn= 1.06D-02
 Coeff-Com: -0.845D-01 0.113D+00-0.632D-02 0.138D+00 0.347D+00 0.493D+00
 Coeff-En:   0.000D+00 0.000D+00 0.000D+00 0.000D+00 0.000D+00 0.100D+01
 Coeff:     -0.836D-01 0.112D+00-0.625D-02 0.136D+00 0.343D+00 0.498D+00
 Gap=     0.255 Goal=   None    Shift=    0.000
 RMSDP=1.74D-04 MaxDP=1.15D-02 DE=-1.47D-03 OVMax= 4.51D-03

 Cycle   7  Pass 1  IDiag  1:
 RMSU=  1.01D-04    CP:  5.40D-01  2.50D+00  1.95D+00  8.91D-01  8.33D-01
                    CP:  8.89D-01
 E= -3010.53545369864     Delta-E=       -0.000094762819 Rises=F Damp=F
 DIIS: error= 5.36D-04 at cycle   7 NSaved=   7.
 NSaved= 7 IEnMin= 7 EnMin= -3010.53545369864     IErMin= 7 ErrMin= 5.36D-04
 ErrMax= 5.36D-04  0.00D+00 EMaxC= 1.00D-01 BMatC= 2.41D-05 BMatP= 1.33D-04
 IDIUse=3 WtCom= 9.95D-01 WtEn= 5.36D-03
 Coeff-Com: -0.355D-01 0.473D-01-0.131D-01 0.350D-01 0.108D+00 0.311D+00
 Coeff-Com:  0.547D+00
 Coeff-En:   0.000D+00 0.000D+00 0.000D+00 0.000D+00 0.000D+00 0.337D-01
 Coeff-En:   0.966D+00
 Coeff:     -0.353D-01 0.470D-01-0.130D-01 0.348D-01 0.108D+00 0.309D+00
 Coeff:      0.550D+00
 Gap=     0.255 Goal=   None    Shift=    0.000
 RMSDP=8.04D-05 MaxDP=5.28D-03 DE=-9.48D-05 OVMax= 1.92D-03

 Cycle   8  Pass 1  IDiag  1:
 RMSU=  4.88D-05    CP:  5.40D-01  2.49D+00  1.96D+00  8.96D-01  8.56D-01
                    CP:  9.52D-01  8.48D-01
 E= -3010.53547502350     Delta-E=       -0.000021324859 Rises=F Damp=F
 DIIS: error= 1.13D-04 at cycle   8 NSaved=   8.
 NSaved= 8 IEnMin= 8 EnMin= -3010.53547502350     IErMin= 8 ErrMin= 1.13D-04
 ErrMax= 1.13D-04  0.00D+00 EMaxC= 1.00D-01 BMatC= 2.42D-06 BMatP= 2.41D-05
 IDIUse=3 WtCom= 9.99D-01 WtEn= 1.13D-03
 Coeff-Com:  0.607D-02-0.832D-02-0.289D-02-0.159D-01-0.408D-01-0.222D-01
 Coeff-Com:  0.179D+00 0.905D+00
 Coeff-En:   0.000D+00 0.000D+00 0.000D+00 0.000D+00 0.000D+00 0.000D+00
 Coeff-En:   0.000D+00 0.100D+01
 Coeff:      0.606D-02-0.832D-02-0.289D-02-0.159D-01-0.407D-01-0.222D-01
 Coeff:      0.179D+00 0.905D+00
 Gap=     0.255 Goal=   None    Shift=    0.000
 RMSDP=5.71D-05 MaxDP=4.77D-03 DE=-2.13D-05 OVMax= 1.50D-03

 Cycle   9  Pass 1  IDiag  1:
 RMSU=  2.23D-05    CP:  5.40D-01  2.49D+00  1.96D+00  8.97D-01  8.61D-01
                    CP:  1.04D+00  1.05D+00  1.32D+00
 E= -3010.53548003777     Delta-E=       -0.000005014271 Rises=F Damp=F
 DIIS: error= 4.54D-05 at cycle   9 NSaved=   9.
 NSaved= 9 IEnMin= 9 EnMin= -3010.53548003777     IErMin= 9 ErrMin= 4.54D-05
 ErrMax= 4.54D-05  0.00D+00 EMaxC= 1.00D-01 BMatC= 2.34D-07 BMatP= 2.42D-06
 IDIUse=1 WtCom= 1.00D+00 WtEn= 0.00D+00
 Coeff-Com:  0.664D-02-0.891D-02 0.806D-03-0.975D-02-0.254D-01-0.509D-01
 Coeff-Com: -0.262D-01 0.275D+00 0.839D+00
 Coeff:      0.664D-02-0.891D-02 0.806D-03-0.975D-02-0.254D-01-0.509D-01
 Coeff:     -0.262D-01 0.275D+00 0.839D+00
 Gap=     0.255 Goal=   None    Shift=    0.000
 RMSDP=1.68D-05 MaxDP=1.13D-03 DE=-5.01D-06 OVMax= 7.26D-04

 Cycle  10  Pass 1  IDiag  1:
 RMSU=  6.93D-06    CP:  5.40D-01  2.49D+00  1.96D+00  8.97D-01  8.65D-01
                    CP:  1.07D+00  1.11D+00  1.44D+00  1.11D+00
 E= -3010.53548082165     Delta-E=       -0.000000783879 Rises=F Damp=F
 DIIS: error= 1.57D-05 at cycle  10 NSaved=  10.
 NSaved=10 IEnMin=10 EnMin= -3010.53548082165     IErMin=10 ErrMin= 1.57D-05
 ErrMax= 1.57D-05  0.00D+00 EMaxC= 1.00D-01 BMatC= 5.22D-08 BMatP= 2.34D-07
 IDIUse=1 WtCom= 1.00D+00 WtEn= 0.00D+00
 Coeff-Com:  0.425D-03-0.547D-03 0.346D-03-0.225D-03 0.114D-02-0.735D-02
 Coeff-Com: -0.310D-01-0.573D-01 0.234D+00 0.860D+00
 Coeff:      0.425D-03-0.547D-03 0.346D-03-0.225D-03 0.114D-02-0.735D-02
 Coeff:     -0.310D-01-0.573D-01 0.234D+00 0.860D+00
 Gap=     0.255 Goal=   None    Shift=    0.000
 RMSDP=8.17D-06 MaxDP=6.30D-04 DE=-7.84D-07 OVMax= 2.78D-04

 Cycle  11  Pass 1  IDiag  1:
 RMSU=  3.81D-06    CP:  5.41D-01  2.49D+00  1.96D+00  8.96D-01  8.65D-01
                    CP:  1.07D+00  1.12D+00  1.47D+00  1.23D+00  1.11D+00
 E= -3010.53548094094     Delta-E=       -0.000000119292 Rises=F Damp=F
 DIIS: error= 6.87D-06 at cycle  11 NSaved=  11.
 NSaved=11 IEnMin=11 EnMin= -3010.53548094094     IErMin=11 ErrMin= 6.87D-06
 ErrMax= 6.87D-06  0.00D+00 EMaxC= 1.00D-01 BMatC= 3.11D-09 BMatP= 5.22D-08
 IDIUse=1 WtCom= 1.00D+00 WtEn= 0.00D+00
 Coeff-Com: -0.302D-03 0.405D-03 0.244D-04 0.787D-03 0.261D-02 0.571D-02
 Coeff-Com:  0.482D-02-0.268D-01-0.111D+00-0.256D-01 0.115D+01
 Coeff:     -0.302D-03 0.405D-03 0.244D-04 0.787D-03 0.261D-02 0.571D-02
 Coeff:      0.482D-02-0.268D-01-0.111D+00-0.256D-01 0.115D+01
 Gap=     0.255 Goal=   None    Shift=    0.000
 RMSDP=3.09D-06 MaxDP=1.64D-04 DE=-1.19D-07 OVMax= 1.47D-04

 Cycle  12  Pass 1  IDiag  1:
 RMSU=  1.07D-06    CP:  5.41D-01  2.49D+00  1.96D+00  8.96D-01  8.64D-01
                    CP:  1.08D+00  1.12D+00  1.47D+00  1.27D+00  1.29D+00
                    CP:  1.31D+00
 E= -3010.53548095990     Delta-E=       -0.000000018962 Rises=F Damp=F
 DIIS: error= 1.72D-06 at cycle  12 NSaved=  12.
 NSaved=12 IEnMin=12 EnMin= -3010.53548095990     IErMin=12 ErrMin= 1.72D-06
 ErrMax= 1.72D-06  0.00D+00 EMaxC= 1.00D-01 BMatC= 8.64D-10 BMatP= 3.11D-09
 IDIUse=1 WtCom= 1.00D+00 WtEn= 0.00D+00
 Coeff-Com: -0.163D-03 0.216D-03-0.172D-04 0.339D-03 0.726D-03 0.275D-02
 Coeff-Com:  0.547D-02-0.394D-02-0.721D-01-0.114D+00 0.492D+00 0.688D+00
 Coeff:     -0.163D-03 0.216D-03-0.172D-04 0.339D-03 0.726D-03 0.275D-02
 Coeff:      0.547D-02-0.394D-02-0.721D-01-0.114D+00 0.492D+00 0.688D+00
 Gap=     0.255 Goal=   None    Shift=    0.000
 RMSDP=9.63D-07 MaxDP=5.77D-05 DE=-1.90D-08 OVMax= 3.54D-05

 Cycle  13  Pass 1  IDiag  1:
 RMSU=  3.20D-07    CP:  5.41D-01  2.49D+00  1.96D+00  8.96D-01  8.64D-01
                    CP:  1.08D+00  1.12D+00  1.47D+00  1.27D+00  1.31D+00
                    CP:  1.44D+00  8.11D-01
 E= -3010.53548096183     Delta-E=       -0.000000001935 Rises=F Damp=F
 DIIS: error= 6.01D-07 at cycle  13 NSaved=  13.
 NSaved=13 IEnMin=13 EnMin= -3010.53548096183     IErMin=13 ErrMin= 6.01D-07
 ErrMax= 6.01D-07  0.00D+00 EMaxC= 1.00D-01 BMatC= 9.95D-11 BMatP= 8.64D-10
 IDIUse=1 WtCom= 1.00D+00 WtEn= 0.00D+00
 Coeff-Com: -0.204D-04 0.274D-04-0.803D-05-0.340D-04-0.367D-03-0.696D-03
 Coeff-Com: -0.155D-03 0.308D-02 0.596D-02-0.128D-01-0.829D-01 0.152D+00
 Coeff-Com:  0.936D+00
 Coeff:     -0.204D-04 0.274D-04-0.803D-05-0.340D-04-0.367D-03-0.696D-03
 Coeff:     -0.155D-03 0.308D-02 0.596D-02-0.128D-01-0.829D-01 0.152D+00
 Coeff:      0.936D+00
 Gap=     0.255 Goal=   None    Shift=    0.000
 RMSDP=2.81D-07 MaxDP=1.17D-05 DE=-1.93D-09 OVMax= 1.30D-05

 Cycle  14  Pass 1  IDiag  1:
 RMSU=  1.55D-07    CP:  5.41D-01  2.49D+00  1.96D+00  8.96D-01  8.64D-01
                    CP:  1.08D+00  1.12D+00  1.47D+00  1.27D+00  1.31D+00
                    CP:  1.47D+00  9.81D-01  1.15D+00
 E= -3010.53548096208     Delta-E=       -0.000000000250 Rises=F Damp=F
 DIIS: error= 1.80D-07 at cycle  14 NSaved=  14.
 NSaved=14 IEnMin=14 EnMin= -3010.53548096208     IErMin=14 ErrMin= 1.80D-07
 ErrMax= 1.80D-07  0.00D+00 EMaxC= 1.00D-01 BMatC= 9.32D-12 BMatP= 9.95D-11
 IDIUse=1 WtCom= 1.00D+00 WtEn= 0.00D+00
 Coeff-Com:  0.296D-05-0.378D-05-0.298D-05-0.372D-04-0.162D-03-0.463D-03
 Coeff-Com: -0.540D-03 0.147D-02 0.913D-02 0.765D-02-0.811D-01-0.156D-01
 Coeff-Com:  0.223D+00 0.857D+00
 Coeff:      0.296D-05-0.378D-05-0.298D-05-0.372D-04-0.162D-03-0.463D-03
 Coeff:     -0.540D-03 0.147D-02 0.913D-02 0.765D-02-0.811D-01-0.156D-01
 Coeff:      0.223D+00 0.857D+00
 Gap=     0.255 Goal=   None    Shift=    0.000
 RMSDP=7.44D-08 MaxDP=3.28D-06 DE=-2.50D-10 OVMax= 4.51D-06

 Cycle  15  Pass 1  IDiag  1:
 RMSU=  4.61D-08    CP:  5.41D-01  2.49D+00  1.96D+00  8.96D-01  8.64D-01
                    CP:  1.08D+00  1.12D+00  1.47D+00  1.27D+00  1.31D+00
                    CP:  1.47D+00  1.02D+00  1.22D+00  1.19D+00
 E= -3010.53548096212     Delta-E=       -0.000000000036 Rises=F Damp=F
 DIIS: error= 9.95D-08 at cycle  15 NSaved=  15.
 NSaved=15 IEnMin=15 EnMin= -3010.53548096212     IErMin=15 ErrMin= 9.95D-08
 ErrMax= 9.95D-08  0.00D+00 EMaxC= 1.00D-01 BMatC= 3.03D-12 BMatP= 9.32D-12
 IDIUse=1 WtCom= 1.00D+00 WtEn= 0.00D+00
 Coeff-Com:  0.597D-05-0.800D-05 0.654D-06-0.304D-05 0.367D-04 0.296D-04
 Coeff-Com: -0.790D-04-0.229D-03 0.778D-03 0.451D-02-0.477D-02-0.226D-01
 Coeff-Com: -0.155D+00 0.308D+00 0.869D+00
 Coeff:      0.597D-05-0.800D-05 0.654D-06-0.304D-05 0.367D-04 0.296D-04
 Coeff:     -0.790D-04-0.229D-03 0.778D-03 0.451D-02-0.477D-02-0.226D-01
 Coeff:     -0.155D+00 0.308D+00 0.869D+00
 Gap=     0.255 Goal=   None    Shift=    0.000
 RMSDP=5.93D-08 MaxDP=4.81D-06 DE=-3.64D-11 OVMax= 2.77D-06

 Cycle  16  Pass 1  IDiag  1:
 RMSU=  2.13D-08    CP:  5.41D-01  2.49D+00  1.96D+00  8.96D-01  8.64D-01
                    CP:  1.08D+00  1.12D+00  1.47D+00  1.27D+00  1.31D+00
                    CP:  1.47D+00  1.04D+00  1.22D+00  1.38D+00  1.51D+00
 E= -3010.53548096210     Delta-E=        0.000000000021 Rises=F Damp=F
 DIIS: error= 3.69D-08 at cycle  16 NSaved=  16.
 NSaved=16 IEnMin=15 EnMin= -3010.53548096212     IErMin=16 ErrMin= 3.69D-08
 ErrMax= 3.69D-08  0.00D+00 EMaxC= 1.00D-01 BMatC= 5.62D-13 BMatP= 3.03D-12
 IDIUse=1 WtCom= 1.00D+00 WtEn= 0.00D+00
 Coeff-Com:  0.101D-05-0.138D-05 0.706D-06 0.629D-05 0.431D-04 0.995D-04
 Coeff-Com:  0.687D-04-0.374D-03-0.151D-02 0.480D-03 0.124D-01-0.809D-03
 Coeff-Com: -0.103D+00-0.333D-01 0.238D+00 0.888D+00
 Coeff:      0.101D-05-0.138D-05 0.706D-06 0.629D-05 0.431D-04 0.995D-04
 Coeff:      0.687D-04-0.374D-03-0.151D-02 0.480D-03 0.124D-01-0.809D-03
 Coeff:     -0.103D+00-0.333D-01 0.238D+00 0.888D+00
 Gap=     0.255 Goal=   None    Shift=    0.000
 RMSDP=3.64D-08 MaxDP=2.43D-06 DE= 2.09D-11 OVMax= 1.52D-06

 Cycle  17  Pass 1  IDiag  1:
 RMSU=  8.73D-09    CP:  5.41D-01  2.49D+00  1.96D+00  8.96D-01  8.64D-01
                    CP:  1.08D+00  1.12D+00  1.47D+00  1.27D+00  1.31D+00
                    CP:  1.47D+00  1.05D+00  1.21D+00  1.47D+00  1.91D+00
                    CP:  1.28D+00
 E= -3010.53548096208     Delta-E=        0.000000000022 Rises=F Damp=F
 DIIS: error= 2.33D-08 at cycle  17 NSaved=  17.
 NSaved=17 IEnMin=15 EnMin= -3010.53548096212     IErMin=17 ErrMin= 2.33D-08
 ErrMax= 2.33D-08  0.00D+00 EMaxC= 1.00D-01 BMatC= 1.26D-13 BMatP= 5.62D-13
 IDIUse=1 WtCom= 1.00D+00 WtEn= 0.00D+00
 Coeff-Com: -0.463D-06 0.615D-06 0.129D-06 0.133D-05 0.444D-06 0.154D-04
 Coeff-Com:  0.347D-04-0.980D-05-0.537D-03-0.692D-03 0.363D-02 0.631D-02
 Coeff-Com:  0.395D-02-0.746D-01-0.177D+00 0.225D+00 0.101D+01
 Coeff:     -0.463D-06 0.615D-06 0.129D-06 0.133D-05 0.444D-06 0.154D-04
 Coeff:      0.347D-04-0.980D-05-0.537D-03-0.692D-03 0.363D-02 0.631D-02
 Coeff:      0.395D-02-0.746D-01-0.177D+00 0.225D+00 0.101D+01
 Gap=     0.255 Goal=   None    Shift=    0.000
 RMSDP=2.41D-08 MaxDP=2.16D-06 DE= 2.18D-11 OVMax= 1.08D-06

 Cycle  18  Pass 1  IDiag  1:
 RMSU=  5.40D-09    CP:  5.41D-01  2.49D+00  1.96D+00  8.96D-01  8.64D-01
                    CP:  1.08D+00  1.12D+00  1.47D+00  1.27D+00  1.31D+00
                    CP:  1.47D+00  1.06D+00  1.19D+00  1.52D+00  2.13D+00
                    CP:  1.70D+00  1.29D+00
 E= -3010.53548096217     Delta-E=       -0.000000000092 Rises=F Damp=F
 DIIS: error= 7.48D-09 at cycle  18 NSaved=  18.
 NSaved=18 IEnMin=18 EnMin= -3010.53548096217     IErMin=18 ErrMin= 7.48D-09
 ErrMax= 7.48D-09  0.00D+00 EMaxC= 1.00D-01 BMatC= 3.10D-14 BMatP= 1.26D-13
 IDIUse=1 WtCom= 1.00D+00 WtEn= 0.00D+00
 Coeff-Com: -0.883D-07 0.120D-06-0.107D-06-0.142D-05-0.104D-04-0.179D-04
 Coeff-Com: -0.373D-05 0.100D-03 0.157D-03-0.388D-03-0.208D-02 0.287D-02
 Coeff-Com:  0.260D-01-0.484D-02-0.111D+00-0.174D+00 0.349D+00 0.914D+00
 Coeff:     -0.883D-07 0.120D-06-0.107D-06-0.142D-05-0.104D-04-0.179D-04
 Coeff:     -0.373D-05 0.100D-03 0.157D-03-0.388D-03-0.208D-02 0.287D-02
 Coeff:      0.260D-01-0.484D-02-0.111D+00-0.174D+00 0.349D+00 0.914D+00
 Gap=     0.255 Goal=   None    Shift=    0.000
 RMSDP=9.00D-09 MaxDP=4.19D-07 DE=-9.23D-11 OVMax= 4.09D-07

 SCF Done:  E(RwB97XD) =  -3010.53548096     A.U. after   18 cycles
            NFock= 18  Conv=0.90D-08     -V/T= 2.0016
 KE= 3.005852136951D+03 PE=-8.631867311985D+03 EE= 1.876490805118D+03
 Leave Link  502 at Wed May  1 15:24:49 2024, MaxMem=  1207959552 cpu:            1009.8 elap:            1009.9
 (Enter /software/gaussian/g16-c01/sse4/g16/l601.exe)
 Copying SCF densities to generalized density rwf, IOpCl= 0 IROHF=0.

 **********************************************************************

            Population analysis using the SCF Density.

 **********************************************************************

 Alpha  occ. eigenvalues -- -483.30786 -62.85808 -56.65504 -56.64928 -56.64925
 Alpha  occ. eigenvalues --  -19.45586 -19.45515 -14.85090 -10.57948 -10.57188
 Alpha  occ. eigenvalues --  -10.56875 -10.56680 -10.56433 -10.52647  -9.01612
 Alpha  occ. eigenvalues --   -6.84297  -6.82413  -6.82398  -2.94200  -2.93700
 Alpha  occ. eigenvalues --   -2.93686  -2.92180  -2.92179  -1.49352  -1.32328
 Alpha  occ. eigenvalues --   -1.22312  -1.13709  -1.11426  -1.03972  -1.00730
 Alpha  occ. eigenvalues --   -0.95124  -0.90632  -0.84977  -0.80453  -0.80328
 Alpha  occ. eigenvalues --   -0.79688  -0.77994  -0.75796  -0.75601  -0.71919
 Alpha  occ. eigenvalues --   -0.69023  -0.67232  -0.63299  -0.59756  -0.56837
 Alpha  occ. eigenvalues --   -0.55960  -0.55804  -0.55316  -0.54775
 Alpha virt. eigenvalues --   -0.29267  -0.21011  -0.15251  -0.13033  -0.08598
 Alpha virt. eigenvalues --   -0.06008  -0.05530  -0.04783  -0.03985  -0.02940
 Alpha virt. eigenvalues --   -0.02152  -0.02108  -0.00843  -0.00575   0.00940
 Alpha virt. eigenvalues --    0.01252   0.01936   0.02233   0.02901   0.03324
 Alpha virt. eigenvalues --    0.04687   0.04926   0.05225   0.06209   0.06873
 Alpha virt. eigenvalues --    0.07288   0.07603   0.07853   0.09054   0.09519
 Alpha virt. eigenvalues --    0.10764   0.11239   0.11351   0.12086   0.12816
 Alpha virt. eigenvalues --    0.12945   0.13289   0.13735   0.15247   0.16344
 Alpha virt. eigenvalues --    0.16690   0.17392   0.17902   0.18690   0.19072
 Alpha virt. eigenvalues --    0.19500   0.21230   0.21593   0.21952   0.24613
 Alpha virt. eigenvalues --    0.25464   0.27947   0.28413   0.29707   0.32021
 Alpha virt. eigenvalues --    0.33385   0.33890   0.34408   0.35017   0.36227
 Alpha virt. eigenvalues --    0.37420   0.38201   0.39379   0.40823   0.42053
 Alpha virt. eigenvalues --    0.42791   0.43932   0.44459   0.46542   0.47660
 Alpha virt. eigenvalues --    0.47939   0.50435   0.51157   0.52432   0.53753
 Alpha virt. eigenvalues --    0.54435   0.55407   0.56862   0.57170   0.59683
 Alpha virt. eigenvalues --    0.61468   0.62513   0.64363   0.67098   0.68850
 Alpha virt. eigenvalues --    0.70415   0.72354   0.72784   0.73488   0.74471
 Alpha virt. eigenvalues --    0.74761   0.79530   0.80160   0.83404   0.85372
 Alpha virt. eigenvalues --    0.86646   0.88211   0.92030   0.93323   0.98813
 Alpha virt. eigenvalues --    0.99836   1.01297   1.04907   1.05574   1.06791
 Alpha virt. eigenvalues --    1.09393   1.11174   1.12262   1.12701   1.14465
 Alpha virt. eigenvalues --    1.22271   1.24727   1.26956   1.33201   1.36724
 Alpha virt. eigenvalues --    1.37097   1.38251   1.45405   1.54608   1.57340
 Alpha virt. eigenvalues --    1.58722   1.59003   1.60840   1.62614   1.66552
 Alpha virt. eigenvalues --    1.69366   1.69962   1.73774   1.75519   1.79267
 Alpha virt. eigenvalues --    1.81343   1.85682   1.87617   1.93840   1.95937
 Alpha virt. eigenvalues --    1.98125   2.03150   2.04063   2.07147   2.08304
 Alpha virt. eigenvalues --    2.09860   2.14976   2.20610   2.22887   2.29561
 Alpha virt. eigenvalues --    2.37807   2.41385   2.42740   2.43715   2.52704
 Alpha virt. eigenvalues --    2.56887   2.63262   2.66313   2.68425   2.71965
 Alpha virt. eigenvalues --    2.73626   2.76747   2.77583   2.81278   2.82005
 Alpha virt. eigenvalues --    2.93752   2.96566   3.00903   3.05810   3.09166
 Alpha virt. eigenvalues --    3.13214   3.15164   3.19281   3.23922   3.24517
 Alpha virt. eigenvalues --    3.27607   3.39359   3.47856   3.51465   3.54720
 Alpha virt. eigenvalues --    3.57089   3.70188   3.74366   3.82399   3.87402
 Alpha virt. eigenvalues --    4.09360   4.09591   4.17060   4.22280   4.43095
 Alpha virt. eigenvalues --    4.44606   4.57678   4.60139   4.93454   4.96120
 Alpha virt. eigenvalues --    5.04769   5.08937   5.63086   6.16025   6.65056
 Alpha virt. eigenvalues --    7.48040   7.49612   7.59374  23.21545  23.61520
 Alpha virt. eigenvalues --   23.69855  23.79710  23.96268  24.01633  35.32867
 Alpha virt. eigenvalues --   47.91627  49.85837  49.94648 289.80954 289.82621
 Alpha virt. eigenvalues --  289.950591020.92044
          Condensed to atoms (all electrons):
               1          2          3          4          5          6
     1  C    8.820665  -2.245734   0.169667  -1.538550  -0.613367   0.308222
     2  C   -2.245734  12.674289  -1.697610  -2.660965   0.690906  -0.013769
     3  C    0.169667  -1.697610  13.057223  -3.185532  -1.217002   0.023779
     4  C   -1.538550  -2.660965  -3.185532  14.833353   1.219332   0.009373
     5  C   -0.613367   0.690906  -1.217002   1.219332   7.351224   0.015153
     6  H    0.308222  -0.013769   0.023779   0.009373   0.015153   0.336454
     7  H    0.068104   0.231590   0.076955  -0.033090  -0.020015  -0.001811
     8  H    0.003897  -0.010260   0.072868   0.245367  -0.019094   0.000002
     9  H    0.032299  -0.014176   0.003409  -0.006507   0.307938  -0.002344
    10  N   -0.141491   0.341597  -0.914835   0.313089   0.014602  -0.000625
    11  O    0.014238  -0.070684  -0.262673  -0.013721  -0.056691  -0.000022
    12  O    0.323407  -0.040277  -0.281867  -0.081673  -0.042844   0.000018
    13  C    1.342962  -1.704021   0.821190  -3.363446  -1.659896  -0.007333
    14  H   -0.011595  -0.002611   0.004144  -0.060220  -0.018550  -0.000053
    15  Br   0.041059   0.011121   0.044705   0.038924   0.050445  -0.000363
               7          8          9         10         11         12
     1  C    0.068104   0.003897   0.032299  -0.141491   0.014238   0.323407
     2  C    0.231590  -0.010260  -0.014176   0.341597  -0.070684  -0.040277
     3  C    0.076955   0.072868   0.003409  -0.914835  -0.262673  -0.281867
     4  C   -0.033090   0.245367  -0.006507   0.313089  -0.013721  -0.081673
     5  C   -0.020015  -0.019094   0.307938   0.014602  -0.056691  -0.042844
     6  H   -0.001811   0.000002  -0.002344  -0.000625  -0.000022   0.000018
     7  H    0.301497  -0.000000   0.000016  -0.025635  -0.001491   0.022256
     8  H   -0.000000   0.295537   0.000109  -0.023623   0.022823  -0.000902
     9  H    0.000016   0.000109   0.327704   0.000406   0.000004   0.000006
    10  N   -0.025635  -0.023623   0.000406   7.348194   0.191902   0.154842
    11  O   -0.001491   0.022823   0.000004   0.191902   7.836296   0.000562
    12  O    0.022256  -0.000902   0.000006   0.154842   0.000562   7.874617
    13  C    0.015510   0.041451   0.005408  -0.155038   0.308181   0.041868
    14  H   -0.000020  -0.004412  -0.005799  -0.000289  -0.000250  -0.000064
    15  Br  -0.000052   0.003004   0.001427   0.004281   0.000466   0.002068
              13         14         15
     1  C    1.342962  -0.011595   0.041059
     2  C   -1.704021  -0.002611   0.011121
     3  C    0.821190   0.004144   0.044705
     4  C   -3.363446  -0.060220   0.038924
     5  C   -1.659896  -0.018550   0.050445
     6  H   -0.007333  -0.000053  -0.000363
     7  H    0.015510  -0.000020  -0.000052
     8  H    0.041451  -0.004412   0.003004
     9  H    0.005408  -0.005799   0.001427
    10  N   -0.155038  -0.000289   0.004281
    11  O    0.308181  -0.000250   0.000466
    12  O    0.041868  -0.000064   0.002068
    13  C   10.401340   0.392967  -0.012130
    14  H    0.392967   0.352294  -0.042857
    15  Br  -0.012130  -0.042857  34.665236
 Mulliken charges:
               1
     1  C   -0.573782
     2  C    0.510605
     3  C   -0.714419
     4  C    0.284265
     5  C   -0.002142
     6  H    0.333319
     7  H    0.366186
     8  H    0.373235
     9  H    0.350099
    10  N   -0.107377
    11  O    0.031059
    12  O    0.027983
    13  C   -0.469014
    14  H    0.397316
    15  Br   0.192667
 Sum of Mulliken charges =   1.00000
 Mulliken charges with hydrogens summed into heavy atoms:
               1
     1  C   -0.240463
     2  C    0.876791
     3  C   -0.714419
     4  C    0.657499
     5  C    0.347957
    10  N   -0.107377
    11  O    0.031059
    12  O    0.027983
    13  C   -0.071698
    15  Br   0.192667
 Electronic spatial extent (au):  <R**2>=           2798.0910
 Charge=              1.0000 electrons
 Dipole moment (field-independent basis, Debye):
    X=             -0.8750    Y=             -0.6584    Z=             -0.3490  Tot=              1.1494
 Quadrupole moment (field-independent basis, Debye-Ang):
   XX=            -71.3143   YY=            -51.8919   ZZ=            -62.2686
   XY=              1.3523   XZ=              0.9593   YZ=              1.9422
 Traceless Quadrupole moment (field-independent basis, Debye-Ang):
   XX=             -9.4893   YY=              9.9330   ZZ=             -0.4437
   XY=              1.3523   XZ=              0.9593   YZ=              1.9422
 Octapole moment (field-independent basis, Debye-Ang**2):
  XXX=           -299.8773  YYY=             87.0759  ZZZ=             75.7927  XYY=            -76.3050
  XXY=             29.9449  XXZ=             31.1185  XZZ=            -78.3708  YZZ=             15.4516
  YYZ=             24.3452  XYZ=             -3.5780
 Hexadecapole moment (field-independent basis, Debye-Ang**3):
 XXXX=          -2280.4568 YYYY=           -675.4503 ZZZZ=           -344.1782 XXXY=            -68.1739
 XXXZ=            -24.5890 YYYX=            -59.2640 YYYZ=           -153.5185 ZZZX=            -17.9347
 ZZZY=           -133.1518 XXYY=           -456.1279 XXZZ=           -369.8644 YYZZ=           -161.4326
 XXYZ=            -54.2678 YYXZ=             -1.9981 ZZXY=             -8.0521
 N-N= 7.389888889541D+02 E-N=-8.631867313763D+03  KE= 3.005852136951D+03
 No NMR shielding tensors so no spin-rotation constants.
 Leave Link  601 at Wed May  1 15:24:56 2024, MaxMem=  1207959552 cpu:               7.3 elap:               7.3
 (Enter /software/gaussian/g16-c01/sse4/g16/l9999.exe)
 Unable to Open any file for archive entry.
 1\1\GINC-BHX0016\SP\RwB97XD\6-311+G(d)\C6H5Br1N1O2(1+)\BWEIGHT\01-May-
 2024\0\\#P wB97XD/6-311+G* NoSymm #P Field=Z+19\\TitleMe\\1,1\C,0,0.02
 95,1.3397,0.0682\C,0,1.4348,1.2867,0.0064\C,0,2.1118,0.0511,-0.0054\C,
 0,1.4451,-1.1372,0.0312\C,0,-0.6879,0.1682,0.11\H,0,-0.4713,2.2984,0.0
 781\H,0,2.0273,2.1965,-0.0322\H,0,1.9897,-2.0764,0.0232\H,0,-1.7716,0.
 1804,0.1582\N,0,3.5864,0.051,-0.0675\O,0,4.1471,-1.0597,-0.0881\O,0,4.
 145,1.1639,-0.0901\C,0,-0.0236,-1.1458,0.0835\H,0,-0.4367,-1.8725,0.78
 89\Br,0,-0.5359,-1.8697,-1.7408\\Version=ES64L-G16RevC.01\HF=-3010.535
 481\RMSD=9.004e-09\Dipole=-2.250804,0.8890319,1.0088824\Quadrupole=-7.
 0550883,7.3849756,-0.3298873,1.0053818,0.7132434,1.4439641\PG=C01 [X(C
 6H5Br1N1O2)]\\@
 The archive entry for this job was punched.


 IF AT FIRST YOU DON'T SUCCEED, TRY, TRY AGAIN.
 THEN GIVE UP;
 THERE'S NO USE BEING A DAMN FOOL ABOUT IT.

                                 -- W. C. FIELDS
 Job cpu time:       0 days  0 hours 17 minutes 56.5 seconds.
 Elapsed time:       0 days  0 hours 17 minutes 56.5 seconds.
 File lengths (MBytes):  RWF=     40 Int=      0 D2E=      0 Chk=     32 Scr=      1
 Normal termination of Gaussian 16 at Wed May  1 15:24:57 2024.
