 Entering Gaussian System, Link 0=g16
 Initial command:
 /software/gaussian/g16-c01/sse4/g16/l1.exe "/local_scratch/24657452/Gau-6038.inp" -scrdir="/local_scratch/24657452/"
 Entering Link 1 = /software/gaussian/g16-c01/sse4/g16/l1.exe PID=      6039.
  
 Copyright (c) 1988-2019, Gaussian, Inc.  All Rights Reserved.
  
 This is part of the Gaussian(R) 16 program.  It is based on
 the Gaussian(R) 09 system (copyright 2009, Gaussian, Inc.),
 the Gaussian(R) 03 system (copyright 2003, Gaussian, Inc.),
 the Gaussian(R) 98 system (copyright 1998, Gaussian, Inc.),
 the Gaussian(R) 94 system (copyright 1995, Gaussian, Inc.),
 the Gaussian 92(TM) system (copyright 1992, Gaussian, Inc.),
 the Gaussian 90(TM) system (copyright 1990, Gaussian, Inc.),
 the Gaussian 88(TM) system (copyright 1988, Gaussian, Inc.),
 the Gaussian 86(TM) system (copyright 1986, Carnegie Mellon
 University), and the Gaussian 82(TM) system (copyright 1983,
 Carnegie Mellon University). Gaussian is a federally registered
 trademark of Gaussian, Inc.
  
 This software contains proprietary and confidential information,
 including trade secrets, belonging to Gaussian, Inc.
  
 This software is provided under written license and may be
 used, copied, transmitted, or stored only in accord with that
 written license.
  
 The following legend is applicable only to US Government
 contracts under FAR:
  
                    RESTRICTED RIGHTS LEGEND
  
 Use, reproduction and disclosure by the US Government is
 subject to restrictions as set forth in subparagraphs (a)
 and (c) of the Commercial Computer Software - Restricted
 Rights clause in FAR 52.227-19.
  
 Gaussian, Inc.
 340 Quinnipiac St., Bldg. 40, Wallingford CT 06492
  
  
 ---------------------------------------------------------------
 Warning -- This program may not be used in any manner that
 competes with the business of Gaussian, Inc. or will provide
 assistance to any competitor of Gaussian, Inc.  The licensee
 of this program is prohibited from giving any competitor of
 Gaussian, Inc. access to this program.  By using this program,
 the user acknowledges that Gaussian, Inc. is engaged in the
 business of creating and licensing software in the field of
 computational chemistry and represents and warrants to the
 licensee that it is not a competitor of Gaussian, Inc. and that
 it will not use this program in any manner prohibited above.
 ---------------------------------------------------------------
  

 Cite this work as:
 Gaussian 16, Revision C.01,
 M. J. Frisch, G. W. Trucks, H. B. Schlegel, G. E. Scuseria, 
 M. A. Robb, J. R. Cheeseman, G. Scalmani, V. Barone, 
 G. A. Petersson, H. Nakatsuji, X. Li, M. Caricato, A. V. Marenich, 
 J. Bloino, B. G. Janesko, R. Gomperts, B. Mennucci, H. P. Hratchian, 
 J. V. Ortiz, A. F. Izmaylov, J. L. Sonnenberg, D. Williams-Young, 
 F. Ding, F. Lipparini, F. Egidi, J. Goings, B. Peng, A. Petrone, 
 T. Henderson, D. Ranasinghe, V. G. Zakrzewski, J. Gao, N. Rega, 
 G. Zheng, W. Liang, M. Hada, M. Ehara, K. Toyota, R. Fukuda, 
 J. Hasegawa, M. Ishida, T. Nakajima, Y. Honda, O. Kitao, H. Nakai, 
 T. Vreven, K. Throssell, J. A. Montgomery, Jr., J. E. Peralta, 
 F. Ogliaro, M. J. Bearpark, J. J. Heyd, E. N. Brothers, K. N. Kudin, 
 V. N. Staroverov, T. A. Keith, R. Kobayashi, J. Normand, 
 K. Raghavachari, A. P. Rendell, J. C. Burant, S. S. Iyengar, 
 J. Tomasi, M. Cossi, J. M. Millam, M. Klene, C. Adamo, R. Cammi, 
 J. W. Ochterski, R. L. Martin, K. Morokuma, O. Farkas, 
 J. B. Foresman, and D. J. Fox, Gaussian, Inc., Wallingford CT, 2019.
 
 ******************************************
 Gaussian 16:  ES64L-G16RevC.01  3-Jul-2019
                 1-May-2024 
 ******************************************
 %chk=geometry.chk
 %mem=9GB
 %nprocshared=12
 Will use up to   12 processors via shared memory.
 ----------------------------------------
 #P wB97XD/6-311+G* NoSymm #P Field=X+107
 ----------------------------------------
 1/38=1,172=1/1;
 2/12=2,15=1,17=6,18=5,40=1/2;
 3/5=4,6=6,7=11,11=2,14=1,15=107,25=1,30=1,74=-58/1,2,3;
 4//1;
 5/5=2,38=5/2;
 6/7=2,8=2,9=2,10=2,28=1/1;
 99/5=1,9=1/99;
 Leave Link    1 at Wed May  1 14:27:47 2024, MaxMem=  1207959552 cpu:               1.2 elap:               1.2
 (Enter /software/gaussian/g16-c01/sse4/g16/l101.exe)
 -------
 TitleMe
 -------
 Symbolic Z-matrix:
 Charge =  1 Multiplicity = 1
 C                     0.0295    1.3397    0.0682 
 C                     1.4348    1.2867    0.0064 
 C                     2.1118    0.0511   -0.0054 
 C                     1.4451   -1.1372    0.0312 
 C                    -0.6879    0.1682    0.11 
 H                    -0.4713    2.2984    0.0781 
 H                     2.0273    2.1965   -0.0322 
 H                     1.9897   -2.0764    0.0232 
 H                    -1.7716    0.1804    0.1582 
 N                     3.5864    0.051    -0.0675 
 O                     4.1471   -1.0597   -0.0881 
 O                     4.145     1.1639   -0.0901 
 C                    -0.0236   -1.1458    0.0835 
 H                    -0.4367   -1.8725    0.7889 
 Br                   -0.5359   -1.8697   -1.7408 
 
 ITRead=  0  0  0  0  0  0  0  0  0  0  0  0  0  0  0
 MicOpt= -1 -1 -1 -1 -1 -1 -1 -1 -1 -1 -1 -1 -1 -1 -1
 NAtoms=     15 NQM=       15 NQMF=       0 NMMI=      0 NMMIF=      0
                NMic=       0 NMicF=      0.
                    Isotopes and Nuclear Properties:
 (Nuclear quadrupole moments (NQMom) in fm**2, nuclear magnetic moments (NMagM)
  in nuclear magnetons)

  Atom         1           2           3           4           5           6           7           8           9          10
 IAtWgt=          12          12          12          12          12           1           1           1           1          14
 AtmWgt=  12.0000000  12.0000000  12.0000000  12.0000000  12.0000000   1.0078250   1.0078250   1.0078250   1.0078250  14.0030740
 NucSpn=           0           0           0           0           0           1           1           1           1           2
 AtZEff=  -0.0000000  -0.0000000  -0.0000000  -0.0000000  -0.0000000  -0.0000000  -0.0000000  -0.0000000  -0.0000000  -0.0000000
 NQMom=    0.0000000   0.0000000   0.0000000   0.0000000   0.0000000   0.0000000   0.0000000   0.0000000   0.0000000   2.0440000
 NMagM=    0.0000000   0.0000000   0.0000000   0.0000000   0.0000000   2.7928460   2.7928460   2.7928460   2.7928460   0.4037610
 AtZNuc=   6.0000000   6.0000000   6.0000000   6.0000000   6.0000000   1.0000000   1.0000000   1.0000000   1.0000000   7.0000000

  Atom        11          12          13          14          15
 IAtWgt=          16          16          12           1          79
 AtmWgt=  15.9949146  15.9949146  12.0000000   1.0078250  78.9183361
 NucSpn=           0           0           0           1           3
 AtZEff=  -0.0000000  -0.0000000  -0.0000000  -0.0000000  -0.0000000
 NQMom=    0.0000000   0.0000000   0.0000000   0.0000000  31.3000000
 NMagM=    0.0000000   0.0000000   0.0000000   2.7928460   2.1063990
 AtZNuc=   8.0000000   8.0000000   6.0000000   1.0000000  35.0000000
 Leave Link  101 at Wed May  1 14:27:48 2024, MaxMem=  1207959552 cpu:               1.3 elap:               1.3
 (Enter /software/gaussian/g16-c01/sse4/g16/l202.exe)
                          Input orientation:                          
 ---------------------------------------------------------------------
 Center     Atomic      Atomic             Coordinates (Angstroms)
 Number     Number       Type             X           Y           Z
 ---------------------------------------------------------------------
      1          6           0        0.029500    1.339700    0.068200
      2          6           0        1.434800    1.286700    0.006400
      3          6           0        2.111800    0.051100   -0.005400
      4          6           0        1.445100   -1.137200    0.031200
      5          6           0       -0.687900    0.168200    0.110000
      6          1           0       -0.471300    2.298400    0.078100
      7          1           0        2.027300    2.196500   -0.032200
      8          1           0        1.989700   -2.076400    0.023200
      9          1           0       -1.771600    0.180400    0.158200
     10          7           0        3.586400    0.051000   -0.067500
     11          8           0        4.147100   -1.059700   -0.088100
     12          8           0        4.145000    1.163900   -0.090100
     13          6           0       -0.023600   -1.145800    0.083500
     14          1           0       -0.436700   -1.872500    0.788900
     15         35           0       -0.535900   -1.869700   -1.740800
 ---------------------------------------------------------------------
                    Distance matrix (angstroms):
                    1          2          3          4          5
     1  C    0.000000
     2  C    1.407656   0.000000
     3  C    2.449874   1.408963   0.000000
     4  C    2.853126   2.424049   1.363043   0.000000
     5  C    1.374344   2.401589   2.804523   2.501993   0.000000
     6  H    1.081667   2.159142   3.424870   3.934226   2.141421
     7  H    2.176095   1.086408   2.147231   3.384750   3.392128
     8  H    3.938800   3.408612   2.131193   1.085702   3.495040
     9  H    2.143837   3.395283   3.888995   3.478413   1.084840
    10  N    3.785591   2.482297   1.475907   2.450862   4.279589
    11  O    4.768247   3.587631   2.320164   2.705743   4.992415
    12  O    4.122294   2.714696   2.319353   3.549540   4.938459
    13  C    2.486114   2.837240   2.449573   1.469656   1.472614
    14  H    3.324903   3.754379   3.290289   2.157764   2.165286
    15  Br   3.727252   4.110867   3.702891   2.756973   2.757100
                    6          7          8          9         10
     6  H    0.000000
     7  H    2.503108   0.000000
     8  H    5.019802   4.273425   0.000000
     9  H    2.486588   4.304945   4.388479   0.000000
    10  N    4.640790   2.652397   2.661486   5.364313   0.000000
    11  O    5.712624   3.885809   2.387560   6.052233   1.244373
    12  O    4.756638   2.356750   3.893289   6.002923   1.245428
    13  C    3.473180   3.923079   2.218790   2.195425   3.806210
    14  H    4.231175   4.827242   2.552506   2.528663   4.540772
    15  Br   4.548146   5.101303   3.087568   3.055498   4.845862
                   11         12         13         14         15
    11  O    0.000000
    12  O    2.223602   0.000000
    13  C    4.175117   4.768865   0.000000
    14  H    4.737193   5.566358   1.093770   0.000000
    15  Br   5.031700   5.817075   2.028436   2.531646   0.000000
 Symmetry turned off by external request.
 Stoichiometry    C6H5BrNO2(1+)
 Framework group  C1[X(C6H5BrNO2)]
 Deg. of freedom    39
 Full point group                 C1      NOp   1
 Rotational constants (GHZ):           1.8252210           0.5518633           0.4576002
 Leave Link  202 at Wed May  1 14:27:49 2024, MaxMem=  1207959552 cpu:               1.1 elap:               1.1
 (Enter /software/gaussian/g16-c01/sse4/g16/l301.exe)
 Standard basis: 6-311+G(d) (5D, 7F)
 Ernie: Thresh=  0.10000D-02 Tol=  0.10000D-05 Strict=F.
 The following finite field(s) will be applied:
 An electric field of              0.0107  0.0000  0.0000
   261 basis functions,   443 primitive gaussians,   273 cartesian basis functions
    49 alpha electrons       49 beta electrons
       nuclear repulsion energy       739.2122215416 Hartrees.
 IExCor= 4639 DFT=T Ex+Corr=wB97XD ExCW=0 ScaHFX=  1.000000
 ScaDFX=  1.000000  1.000000  1.000000  1.000000 ScalE2=  1.000000  1.000000
 IRadAn=      5 IRanWt=     -1 IRanGd=            0 ICorTp=0 IEmpDi=121
 HFx  wShort=  0.000000 wLong=  0.200000 cFull=  0.222036 cShort=  0.000000 cLong=  0.777964
 DFx  wShort=  0.000000 wLong=  0.200000 cFull=  0.000000 cShort=  0.000000 cLong=  1.000000
 NAtoms=   15 NActive=   15 NUniq=   15 SFac= 1.00D+00 NAtFMM=   60 NAOKFM=F Big=F
 Integral buffers will be    131072 words long.
 Raffenetti 2 integral format.
 Two-electron integral symmetry is turned off.
 R6Disp:  Grimme-D2 Dispersion energy=       -0.0077368520 Hartrees.
 Nuclear repulsion after empirical dispersion term =      739.2044846896 Hartrees.
 Leave Link  301 at Wed May  1 14:27:51 2024, MaxMem=  1207959552 cpu:               0.9 elap:               0.9
 (Enter /software/gaussian/g16-c01/sse4/g16/l302.exe)
 NPDir=0 NMtPBC=     1 NCelOv=     1 NCel=       1 NClECP=     1 NCelD=      1
         NCelK=      1 NCelE2=     1 NClLst=     1 CellRange=     0.0.
 One-electron integrals computed using PRISM.
 NBasis=   261 RedAO= T EigKep=  2.35D-06  NBF=   261
 NBsUse=   261 1.00D-06 EigRej= -1.00D+00 NBFU=   261
 Precomputing XC quadrature grid using
 IXCGrd= 4 IRadAn=           5 IRanWt=          -1 IRanGd=           0 AccXCQ= 0.00D+00.
 Generated NRdTot=       0 NPtTot=           0 NUsed=           0 NTot=          32
 NSgBfM=   273   273   273   273   273 MxSgAt=    15 MxSgA2=    15.
 Leave Link  302 at Wed May  1 14:28:12 2024, MaxMem=  1207959552 cpu:              20.9 elap:              20.9
 (Enter /software/gaussian/g16-c01/sse4/g16/l303.exe)
 DipDrv:  MaxL=1.
 The nuclear repulsion energy is now       741.2240793886 hartrees.
 Leave Link  303 at Wed May  1 14:28:15 2024, MaxMem=  1207959552 cpu:               3.3 elap:               3.3
 (Enter /software/gaussian/g16-c01/sse4/g16/l401.exe)
 ExpMin= 3.50D-02 ExpMax= 4.40D+05 ExpMxC= 1.51D+04 IAcc=3 IRadAn=         5 AccDes= 0.00D+00
 Harris functional with IExCor= 4639 and IRadAn=       5 diagonalized for initial guess.
 HarFok:  IExCor= 4639 AccDes= 0.00D+00 IRadAn=         5 IDoV= 1 UseB2=F ITyADJ=14
 ICtDFT=  3500011 ScaDFX=  1.000000  1.000000  1.000000  1.000000
 FoFCou: FMM=F IPFlag=           0 FMFlag=      100000 FMFlg1=           0
         NFxFlg=           0 DoJE=T BraDBF=F KetDBF=T FulRan=T
         wScrn=  0.000000 ICntrl=       500 IOpCl=  0 I1Cent=   200000004 NGrid=           0
         NMat0=    1 NMatS0=      1 NMatT0=    0 NMatD0=    1 NMtDS0=    0 NMtDT0=    0
 Symmetry not used in FoFCou.
 Harris En= -2970.61167802052    
 JPrj=0 DoOrth=F DoCkMO=F.
 Leave Link  401 at Wed May  1 14:28:45 2024, MaxMem=  1207959552 cpu:              29.6 elap:              29.7
 (Enter /software/gaussian/g16-c01/sse4/g16/l502.exe)
 Two-electron integral symmetry not used.
 Closed shell SCF:
 Using DIIS extrapolation, IDIIS=  1040.
 NGot=  1207959552 LenX=  1207804877 LenY=  1207729907
 Requested convergence on RMS density matrix=1.00D-08 within 128 cycles.
 Requested convergence on MAX density matrix=1.00D-06.
 Requested convergence on             energy=1.00D-06.
 No special actions if energy rises.
 Fock matrices will be formed incrementally for  20 cycles.

 Cycle   1  Pass 1  IDiag  1:
 FoFJK:  IHMeth= 1 ICntrl=       0 DoSepK=T KAlg= 0 I1Cent=           0 FoldK=F
 IRaf=         1 NMat=       1 IRICut=       1 DoRegI=T DoRafI=F ISym2E= 0 IDoP0=0 IntGTp=1.
 FoFCou: FMM=F IPFlag=           0 FMFlag=      100000 FMFlg1=           0
         NFxFlg=           0 DoJE=T BraDBF=F KetDBF=F FulRan=T
         wScrn=  0.000000 ICntrl=       500 IOpCl=  0 I1Cent=           0 NGrid=           0
         NMat0=    1 NMatS0=      1 NMatT0=    0 NMatD0=    1 NMtDS0=    0 NMtDT0=    0
 Symmetry not used in FoFCou.
 E= -3009.73356598418    
 DIIS: error= 3.20D-01 at cycle   1 NSaved=   1.
 NSaved= 1 IEnMin= 1 EnMin= -3009.73356598418     IErMin= 1 ErrMin= 3.20D-01
 ErrMax= 3.20D-01  0.00D+00 EMaxC= 1.00D-01 BMatC= 1.19D+01 BMatP= 1.19D+01
 IDIUse=3 WtCom= 0.00D+00 WtEn= 1.00D+00
 Coeff-Com:  0.100D+01
 Coeff-En:   0.100D+01
 Coeff:      0.100D+01
 Gap=     0.290 Goal=   None    Shift=    0.000
 GapD=    0.290 DampG=1.000 DampE=0.250 DampFc=0.2500 IDamp=-1.
 Damping current iteration by 2.50D-01
 RMSDP=5.07D-02 MaxDP=5.02D+00              OVMax= 2.62D-01

 Cycle   2  Pass 1  IDiag  1:
 RMSU=  4.21D-03    CP:  8.80D-01
 E= -3010.01711723627     Delta-E=       -0.283551252088 Rises=F Damp=T
 DIIS: error= 2.25D-01 at cycle   2 NSaved=   2.
 NSaved= 2 IEnMin= 2 EnMin= -3010.01711723627     IErMin= 2 ErrMin= 2.25D-01
 ErrMax= 2.25D-01  0.00D+00 EMaxC= 1.00D-01 BMatC= 5.45D+00 BMatP= 1.19D+01
 IDIUse=3 WtCom= 0.00D+00 WtEn= 1.00D+00
 Coeff-Com: -0.183D+01 0.283D+01
 Coeff-En:   0.000D+00 0.100D+01
 Coeff:      0.000D+00 0.100D+01
 Gap=     0.286 Goal=   None    Shift=    0.000
 RMSDP=3.94D-02 MaxDP=3.81D+00 DE=-2.84D-01 OVMax= 7.55D-02

 Cycle   3  Pass 1  IDiag  1:
 RMSU=  4.29D-03    CP:  5.01D-01  3.00D+00
 E= -3010.39420167878     Delta-E=       -0.377084442518 Rises=F Damp=F
 DIIS: error= 6.60D-02 at cycle   3 NSaved=   3.
 NSaved= 3 IEnMin= 3 EnMin= -3010.39420167878     IErMin= 3 ErrMin= 6.60D-02
 ErrMax= 6.60D-02  0.00D+00 EMaxC= 1.00D-01 BMatC= 7.42D-01 BMatP= 5.45D+00
 IDIUse=3 WtCom= 3.40D-01 WtEn= 6.60D-01
 Coeff-Com:  0.276D+01-0.363D+01 0.187D+01
 Coeff-En:   0.303D-01 0.000D+00 0.970D+00
 Coeff:      0.959D+00-0.124D+01 0.128D+01
 Gap=     0.261 Goal=   None    Shift=    0.000
 RMSDP=7.93D-03 MaxDP=4.49D-01 DE=-3.77D-01 OVMax= 7.72D-02

 Cycle   4  Pass 1  IDiag  1:
 RMSU=  5.30D-03    CP:  5.13D-01  2.43D+00  1.98D+00
 E= -3010.49864306347     Delta-E=       -0.104441384686 Rises=F Damp=F
 DIIS: error= 3.83D-02 at cycle   4 NSaved=   4.
 NSaved= 4 IEnMin= 4 EnMin= -3010.49864306347     IErMin= 4 ErrMin= 3.83D-02
 ErrMax= 3.83D-02  0.00D+00 EMaxC= 1.00D-01 BMatC= 2.32D-01 BMatP= 7.42D-01
 IDIUse=3 WtCom= 6.17D-01 WtEn= 3.83D-01
 Coeff-Com: -0.243D+00 0.336D+00 0.239D+00 0.668D+00
 Coeff-En:   0.000D+00 0.000D+00 0.200D+00 0.800D+00
 Coeff:     -0.150D+00 0.207D+00 0.224D+00 0.718D+00
 Gap=     0.262 Goal=   None    Shift=    0.000
 RMSDP=3.40D-03 MaxDP=2.82D-01 DE=-1.04D-01 OVMax= 3.06D-02

 Cycle   5  Pass 1  IDiag  1:
 RMSU=  1.37D-03    CP:  4.87D-01  2.79D+00  1.85D+00  9.12D-01
 E= -3010.54407371219     Delta-E=       -0.045430648723 Rises=F Damp=F
 DIIS: error= 6.71D-03 at cycle   5 NSaved=   5.
 NSaved= 5 IEnMin= 5 EnMin= -3010.54407371219     IErMin= 5 ErrMin= 6.71D-03
 ErrMax= 6.71D-03  0.00D+00 EMaxC= 1.00D-01 BMatC= 6.99D-03 BMatP= 2.32D-01
 IDIUse=3 WtCom= 9.33D-01 WtEn= 6.71D-02
 Coeff-Com: -0.139D+00 0.188D+00 0.298D-01 0.306D+00 0.615D+00
 Coeff-En:   0.000D+00 0.000D+00 0.000D+00 0.000D+00 0.100D+01
 Coeff:     -0.129D+00 0.175D+00 0.278D-01 0.286D+00 0.641D+00
 Gap=     0.250 Goal=   None    Shift=    0.000
 RMSDP=6.25D-04 MaxDP=4.99D-02 DE=-4.54D-02 OVMax= 1.06D-02

 Cycle   6  Pass 1  IDiag  1:
 RMSU=  4.60D-04    CP:  4.87D-01  2.75D+00  1.87D+00  9.08D-01  7.20D-01
 E= -3010.54549212342     Delta-E=       -0.001418411225 Rises=F Damp=F
 DIIS: error= 8.15D-04 at cycle   6 NSaved=   6.
 NSaved= 6 IEnMin= 6 EnMin= -3010.54549212342     IErMin= 6 ErrMin= 8.15D-04
 ErrMax= 8.15D-04  0.00D+00 EMaxC= 1.00D-01 BMatC= 9.82D-05 BMatP= 6.99D-03
 IDIUse=3 WtCom= 9.92D-01 WtEn= 8.15D-03
 Coeff-Com: -0.766D-01 0.103D+00-0.907D-02 0.120D+00 0.328D+00 0.535D+00
 Coeff-En:   0.000D+00 0.000D+00 0.000D+00 0.000D+00 0.000D+00 0.100D+01
 Coeff:     -0.760D-01 0.102D+00-0.899D-02 0.119D+00 0.325D+00 0.539D+00
 Gap=     0.251 Goal=   None    Shift=    0.000
 RMSDP=2.18D-04 MaxDP=1.31D-02 DE=-1.42D-03 OVMax= 4.01D-03

 Cycle   7  Pass 1  IDiag  1:
 RMSU=  9.17D-05    CP:  4.86D-01  2.75D+00  1.88D+00  9.21D-01  8.18D-01
                    CP:  7.96D-01
 E= -3010.54556518576     Delta-E=       -0.000073062338 Rises=F Damp=F
 DIIS: error= 4.79D-04 at cycle   7 NSaved=   7.
 NSaved= 7 IEnMin= 7 EnMin= -3010.54556518576     IErMin= 7 ErrMin= 4.79D-04
 ErrMax= 4.79D-04  0.00D+00 EMaxC= 1.00D-01 BMatC= 2.07D-05 BMatP= 9.82D-05
 IDIUse=3 WtCom= 9.95D-01 WtEn= 4.79D-03
 Coeff-Com: -0.292D-01 0.389D-01-0.122D-01 0.278D-01 0.989D-01 0.330D+00
 Coeff-Com:  0.546D+00
 Coeff-En:   0.000D+00 0.000D+00 0.000D+00 0.000D+00 0.000D+00 0.265D-01
 Coeff-En:   0.974D+00
 Coeff:     -0.291D-01 0.387D-01-0.121D-01 0.277D-01 0.984D-01 0.328D+00
 Coeff:      0.548D+00
 Gap=     0.252 Goal=   None    Shift=    0.000
 RMSDP=7.96D-05 MaxDP=4.12D-03 DE=-7.31D-05 OVMax= 1.62D-03

 Cycle   8  Pass 1  IDiag  1:
 RMSU=  5.10D-05    CP:  4.86D-01  2.75D+00  1.89D+00  9.27D-01  8.40D-01
                    CP:  8.09D-01  1.02D+00
 E= -3010.54558148502     Delta-E=       -0.000016299266 Rises=F Damp=F
 DIIS: error= 1.36D-04 at cycle   8 NSaved=   8.
 NSaved= 8 IEnMin= 8 EnMin= -3010.54558148502     IErMin= 8 ErrMin= 1.36D-04
 ErrMax= 1.36D-04  0.00D+00 EMaxC= 1.00D-01 BMatC= 2.57D-06 BMatP= 2.07D-05
 IDIUse=3 WtCom= 9.99D-01 WtEn= 1.36D-03
 Coeff-Com:  0.742D-02-0.101D-01-0.278D-02-0.174D-01-0.409D-01-0.172D-04
 Coeff-Com:  0.236D+00 0.828D+00
 Coeff-En:   0.000D+00 0.000D+00 0.000D+00 0.000D+00 0.000D+00 0.000D+00
 Coeff-En:   0.000D+00 0.100D+01
 Coeff:      0.741D-02-0.101D-01-0.277D-02-0.174D-01-0.409D-01-0.171D-04
 Coeff:      0.236D+00 0.828D+00
 Gap=     0.252 Goal=   None    Shift=    0.000
 RMSDP=4.96D-05 MaxDP=3.01D-03 DE=-1.63D-05 OVMax= 8.48D-04

 Cycle   9  Pass 1  IDiag  1:
 RMSU=  1.94D-05    CP:  4.86D-01  2.74D+00  1.89D+00  9.29D-01  8.42D-01
                    CP:  8.67D-01  1.23D+00  1.15D+00
 E= -3010.54558525693     Delta-E=       -0.000003771908 Rises=F Damp=F
 DIIS: error= 2.38D-05 at cycle   9 NSaved=   9.
 NSaved= 9 IEnMin= 9 EnMin= -3010.54558525693     IErMin= 9 ErrMin= 2.38D-05
 ErrMax= 2.38D-05  0.00D+00 EMaxC= 1.00D-01 BMatC= 2.34D-07 BMatP= 2.57D-06
 IDIUse=1 WtCom= 1.00D+00 WtEn= 0.00D+00
 Coeff-Com:  0.720D-02-0.967D-02 0.736D-03-0.104D-01-0.251D-01-0.398D-01
 Coeff-Com:  0.253D-02 0.264D+00 0.810D+00
 Coeff:      0.720D-02-0.967D-02 0.736D-03-0.104D-01-0.251D-01-0.398D-01
 Coeff:      0.253D-02 0.264D+00 0.810D+00
 Gap=     0.252 Goal=   None    Shift=    0.000
 RMSDP=1.69D-05 MaxDP=7.90D-04 DE=-3.77D-06 OVMax= 4.84D-04

 Cycle  10  Pass 1  IDiag  1:
 RMSU=  7.94D-06    CP:  4.86D-01  2.74D+00  1.90D+00  9.30D-01  8.47D-01
                    CP:  8.77D-01  1.30D+00  1.26D+00  1.15D+00
 E= -3010.54558580668     Delta-E=       -0.000000549746 Rises=F Damp=F
 DIIS: error= 1.85D-05 at cycle  10 NSaved=  10.
 NSaved=10 IEnMin=10 EnMin= -3010.54558580668     IErMin=10 ErrMin= 1.85D-05
 ErrMax= 1.85D-05  0.00D+00 EMaxC= 1.00D-01 BMatC= 6.26D-08 BMatP= 2.34D-07
 IDIUse=1 WtCom= 1.00D+00 WtEn= 0.00D+00
 Coeff-Com:  0.901D-03-0.119D-02 0.373D-03-0.837D-03 0.383D-03-0.613D-02
 Coeff-Com: -0.317D-01-0.519D-01 0.263D+00 0.827D+00
 Coeff:      0.901D-03-0.119D-02 0.373D-03-0.837D-03 0.383D-03-0.613D-02
 Coeff:     -0.317D-01-0.519D-01 0.263D+00 0.827D+00
 Gap=     0.252 Goal=   None    Shift=    0.000
 RMSDP=9.07D-06 MaxDP=5.85D-04 DE=-5.50D-07 OVMax= 2.07D-04

 Cycle  11  Pass 1  IDiag  1:
 RMSU=  3.81D-06    CP:  4.86D-01  2.74D+00  1.90D+00  9.29D-01  8.46D-01
                    CP:  8.86D-01  1.30D+00  1.26D+00  1.31D+00  1.13D+00
 E= -3010.54558592307     Delta-E=       -0.000000116397 Rises=F Damp=F
 DIIS: error= 5.99D-06 at cycle  11 NSaved=  11.
 NSaved=11 IEnMin=11 EnMin= -3010.54558592307     IErMin=11 ErrMin= 5.99D-06
 ErrMax= 5.99D-06  0.00D+00 EMaxC= 1.00D-01 BMatC= 4.64D-09 BMatP= 6.26D-08
 IDIUse=1 WtCom= 1.00D+00 WtEn= 0.00D+00
 Coeff-Com: -0.301D-03 0.404D-03 0.144D-04 0.813D-03 0.302D-02 0.694D-02
 Coeff-Com:  0.324D-02-0.315D-01-0.103D+00-0.419D-01 0.116D+01
 Coeff:     -0.301D-03 0.404D-03 0.144D-04 0.813D-03 0.302D-02 0.694D-02
 Coeff:      0.324D-02-0.315D-01-0.103D+00-0.419D-01 0.116D+01
 Gap=     0.252 Goal=   None    Shift=    0.000
 RMSDP=5.35D-06 MaxDP=2.73D-04 DE=-1.16D-07 OVMax= 1.67D-04

 Cycle  12  Pass 1  IDiag  1:
 RMSU=  1.25D-06    CP:  4.86D-01  2.74D+00  1.90D+00  9.29D-01  8.45D-01
                    CP:  8.91D-01  1.29D+00  1.25D+00  1.40D+00  1.39D+00
                    CP:  1.40D+00
 E= -3010.54558595563     Delta-E=       -0.000000032554 Rises=F Damp=F
 DIIS: error= 1.95D-06 at cycle  12 NSaved=  12.
 NSaved=12 IEnMin=12 EnMin= -3010.54558595563     IErMin=12 ErrMin= 1.95D-06
 ErrMax= 1.95D-06  0.00D+00 EMaxC= 1.00D-01 BMatC= 2.32D-09 BMatP= 4.64D-09
 IDIUse=1 WtCom= 1.00D+00 WtEn= 0.00D+00
 Coeff-Com: -0.278D-03 0.369D-03-0.409D-04 0.526D-03 0.110D-02 0.423D-02
 Coeff-Com:  0.747D-02-0.738D-02-0.105D+00-0.216D+00 0.585D+00 0.729D+00
 Coeff:     -0.278D-03 0.369D-03-0.409D-04 0.526D-03 0.110D-02 0.423D-02
 Coeff:      0.747D-02-0.738D-02-0.105D+00-0.216D+00 0.585D+00 0.729D+00
 Gap=     0.252 Goal=   None    Shift=    0.000
 RMSDP=2.73D-06 MaxDP=1.27D-04 DE=-3.26D-08 OVMax= 7.41D-05

 Cycle  13  Pass 1  IDiag  1:
 RMSU=  6.64D-07    CP:  4.86D-01  2.74D+00  1.89D+00  9.29D-01  8.44D-01
                    CP:  8.94D-01  1.29D+00  1.24D+00  1.44D+00  1.49D+00
                    CP:  1.74D+00  1.24D+00
 E= -3010.54558596396     Delta-E=       -0.000000008335 Rises=F Damp=F
 DIIS: error= 6.92D-07 at cycle  13 NSaved=  13.
 NSaved=13 IEnMin=13 EnMin= -3010.54558596396     IErMin=13 ErrMin= 6.92D-07
 ErrMax= 6.92D-07  0.00D+00 EMaxC= 1.00D-01 BMatC= 2.52D-10 BMatP= 2.32D-09
 IDIUse=1 WtCom= 1.00D+00 WtEn= 0.00D+00
 Coeff-Com:  0.606D-05-0.782D-05-0.113D-04-0.141D-03-0.833D-03-0.174D-02
 Coeff-Com: -0.787D-03 0.695D-02 0.281D-01-0.255D-02-0.195D+00-0.354D-01
 Coeff-Com:  0.120D+01
 Coeff:      0.606D-05-0.782D-05-0.113D-04-0.141D-03-0.833D-03-0.174D-02
 Coeff:     -0.787D-03 0.695D-02 0.281D-01-0.255D-02-0.195D+00-0.354D-01
 Coeff:      0.120D+01
 Gap=     0.252 Goal=   None    Shift=    0.000
 RMSDP=7.44D-07 MaxDP=2.33D-05 DE=-8.33D-09 OVMax= 4.79D-05

 Cycle  14  Pass 1  IDiag  1:
 RMSU=  3.19D-07    CP:  4.86D-01  2.74D+00  1.89D+00  9.29D-01  8.44D-01
                    CP:  8.95D-01  1.29D+00  1.24D+00  1.45D+00  1.51D+00
                    CP:  1.85D+00  1.46D+00  1.43D+00
 E= -3010.54558596576     Delta-E=       -0.000000001796 Rises=F Damp=F
 DIIS: error= 4.59D-07 at cycle  14 NSaved=  14.
 NSaved=14 IEnMin=14 EnMin= -3010.54558596576     IErMin=14 ErrMin= 4.59D-07
 ErrMax= 4.59D-07  0.00D+00 EMaxC= 1.00D-01 BMatC= 5.40D-11 BMatP= 2.52D-10
 IDIUse=1 WtCom= 1.00D+00 WtEn= 0.00D+00
 Coeff-Com:  0.259D-04-0.342D-04-0.211D-05-0.995D-04-0.347D-03-0.102D-02
 Coeff-Com: -0.125D-02 0.303D-02 0.239D-01 0.264D-01-0.146D+00-0.142D+00
 Coeff-Com:  0.391D+00 0.846D+00
 Coeff:      0.259D-04-0.342D-04-0.211D-05-0.995D-04-0.347D-03-0.102D-02
 Coeff:     -0.125D-02 0.303D-02 0.239D-01 0.264D-01-0.146D+00-0.142D+00
 Coeff:      0.391D+00 0.846D+00
 Gap=     0.252 Goal=   None    Shift=    0.000
 RMSDP=4.03D-07 MaxDP=1.93D-05 DE=-1.80D-09 OVMax= 2.01D-05

 Cycle  15  Pass 1  IDiag  1:
 RMSU=  1.12D-07    CP:  4.86D-01  2.74D+00  1.89D+00  9.29D-01  8.44D-01
                    CP:  8.95D-01  1.29D+00  1.24D+00  1.45D+00  1.52D+00
                    CP:  1.90D+00  1.53D+00  1.65D+00  1.20D+00
 E= -3010.54558596610     Delta-E=       -0.000000000341 Rises=F Damp=F
 DIIS: error= 1.84D-07 at cycle  15 NSaved=  15.
 NSaved=15 IEnMin=15 EnMin= -3010.54558596610     IErMin=15 ErrMin= 1.84D-07
 ErrMax= 1.84D-07  0.00D+00 EMaxC= 1.00D-01 BMatC= 1.41D-11 BMatP= 5.40D-11
 IDIUse=1 WtCom= 1.00D+00 WtEn= 0.00D+00
 Coeff-Com:  0.123D-04-0.165D-04 0.221D-05 0.750D-06 0.119D-03 0.158D-03
 Coeff-Com: -0.162D-03-0.910D-03 0.513D-03 0.816D-02 0.369D-02-0.445D-01
 Coeff-Com: -0.178D+00 0.336D+00 0.875D+00
 Coeff:      0.123D-04-0.165D-04 0.221D-05 0.750D-06 0.119D-03 0.158D-03
 Coeff:     -0.162D-03-0.910D-03 0.513D-03 0.816D-02 0.369D-02-0.445D-01
 Coeff:     -0.178D+00 0.336D+00 0.875D+00
 Gap=     0.252 Goal=   None    Shift=    0.000
 RMSDP=2.00D-07 MaxDP=7.55D-06 DE=-3.41D-10 OVMax= 9.88D-06

 Cycle  16  Pass 1  IDiag  1:
 RMSU=  5.37D-08    CP:  4.86D-01  2.74D+00  1.89D+00  9.29D-01  8.44D-01
                    CP:  8.95D-01  1.29D+00  1.24D+00  1.46D+00  1.52D+00
                    CP:  1.92D+00  1.53D+00  1.79D+00  1.44D+00  1.28D+00
 E= -3010.54558596616     Delta-E=       -0.000000000065 Rises=F Damp=F
 DIIS: error= 7.14D-08 at cycle  16 NSaved=  16.
 NSaved=16 IEnMin=16 EnMin= -3010.54558596616     IErMin=16 ErrMin= 7.14D-08
 ErrMax= 7.14D-08  0.00D+00 EMaxC= 1.00D-01 BMatC= 1.27D-12 BMatP= 1.41D-11
 IDIUse=1 WtCom= 1.00D+00 WtEn= 0.00D+00
 Coeff-Com:  0.816D-07-0.152D-06 0.113D-05 0.127D-04 0.738D-04 0.175D-03
 Coeff-Com:  0.999D-04-0.706D-03-0.296D-02-0.856D-03 0.209D-01 0.800D-02
 Coeff-Com: -0.994D-01-0.182D-01 0.190D+00 0.902D+00
 Coeff:      0.816D-07-0.152D-06 0.113D-05 0.127D-04 0.738D-04 0.175D-03
 Coeff:      0.999D-04-0.706D-03-0.296D-02-0.856D-03 0.209D-01 0.800D-02
 Coeff:     -0.994D-01-0.182D-01 0.190D+00 0.902D+00
 Gap=     0.252 Goal=   None    Shift=    0.000
 RMSDP=5.54D-08 MaxDP=2.13D-06 DE=-6.46D-11 OVMax= 3.02D-06

 Cycle  17  Pass 1  IDiag  1:
 RMSU=  1.48D-08    CP:  4.86D-01  2.74D+00  1.89D+00  9.29D-01  8.44D-01
                    CP:  8.95D-01  1.29D+00  1.24D+00  1.46D+00  1.52D+00
                    CP:  1.92D+00  1.52D+00  1.81D+00  1.51D+00  1.51D+00
                    CP:  1.23D+00
 E= -3010.54558596615     Delta-E=        0.000000000017 Rises=F Damp=F
 DIIS: error= 2.71D-08 at cycle  17 NSaved=  17.
 NSaved=17 IEnMin=16 EnMin= -3010.54558596616     IErMin=17 ErrMin= 2.71D-08
 ErrMax= 2.71D-08  0.00D+00 EMaxC= 1.00D-01 BMatC= 2.42D-13 BMatP= 1.27D-12
 IDIUse=1 WtCom= 1.00D+00 WtEn= 0.00D+00
 Coeff-Com: -0.929D-06 0.124D-05 0.506D-07 0.410D-06-0.110D-04-0.368D-05
 Coeff-Com:  0.455D-04 0.729D-04-0.477D-03-0.127D-02 0.210D-02 0.820D-02
 Coeff-Com:  0.922D-02-0.583D-01-0.122D+00 0.205D+00 0.957D+00
 Coeff:     -0.929D-06 0.124D-05 0.506D-07 0.410D-06-0.110D-04-0.368D-05
 Coeff:      0.455D-04 0.729D-04-0.477D-03-0.127D-02 0.210D-02 0.820D-02
 Coeff:      0.922D-02-0.583D-01-0.122D+00 0.205D+00 0.957D+00
 Gap=     0.252 Goal=   None    Shift=    0.000
 RMSDP=3.19D-08 MaxDP=1.37D-06 DE= 1.73D-11 OVMax= 1.51D-06

 Cycle  18  Pass 1  IDiag  1:
 RMSU=  6.94D-09    CP:  4.86D-01  2.74D+00  1.89D+00  9.29D-01  8.44D-01
                    CP:  8.95D-01  1.29D+00  1.24D+00  1.46D+00  1.52D+00
                    CP:  1.92D+00  1.52D+00  1.83D+00  1.53D+00  1.59D+00
                    CP:  1.48D+00  1.41D+00
 E= -3010.54558596611     Delta-E=        0.000000000033 Rises=F Damp=F
 DIIS: error= 1.05D-08 at cycle  18 NSaved=  18.
 NSaved=18 IEnMin=16 EnMin= -3010.54558596616     IErMin=18 ErrMin= 1.05D-08
 ErrMax= 1.05D-08  0.00D+00 EMaxC= 1.00D-01 BMatC= 5.20D-14 BMatP= 2.42D-13
 IDIUse=1 WtCom= 1.00D+00 WtEn= 0.00D+00
 Coeff-Com:  0.663D-07-0.855D-07-0.123D-06-0.239D-05-0.164D-04-0.318D-04
 Coeff-Com: -0.202D-05 0.150D-03 0.362D-03-0.348D-03-0.300D-02 0.137D-02
 Coeff-Com:  0.226D-01-0.130D-01-0.706D-01-0.116D+00 0.263D+00 0.915D+00
 Coeff:      0.663D-07-0.855D-07-0.123D-06-0.239D-05-0.164D-04-0.318D-04
 Coeff:     -0.202D-05 0.150D-03 0.362D-03-0.348D-03-0.300D-02 0.137D-02
 Coeff:      0.226D-01-0.130D-01-0.706D-01-0.116D+00 0.263D+00 0.915D+00
 Gap=     0.252 Goal=   None    Shift=    0.000
 RMSDP=1.24D-08 MaxDP=6.47D-07 DE= 3.32D-11 OVMax= 4.48D-07

 Cycle  19  Pass 1  IDiag  1:
 RMSU=  2.56D-09    CP:  4.86D-01  2.74D+00  1.89D+00  9.29D-01  8.44D-01
                    CP:  8.95D-01  1.29D+00  1.24D+00  1.46D+00  1.52D+00
                    CP:  1.93D+00  1.52D+00  1.84D+00  1.53D+00  1.62D+00
                    CP:  1.56D+00  1.71D+00  1.39D+00
 E= -3010.54558596616     Delta-E=       -0.000000000045 Rises=F Damp=F
 DIIS: error= 4.47D-09 at cycle  19 NSaved=  19.
 NSaved=19 IEnMin=16 EnMin= -3010.54558596616     IErMin=19 ErrMin= 4.47D-09
 ErrMax= 4.47D-09  0.00D+00 EMaxC= 1.00D-01 BMatC= 5.02D-15 BMatP= 5.20D-14
 IDIUse=1 WtCom= 1.00D+00 WtEn= 0.00D+00
 Coeff-Com:  0.537D-07-0.704D-07-0.285D-07-0.182D-06 0.218D-06-0.253D-05
 Coeff-Com: -0.952D-05-0.587D-05 0.119D-03 0.197D-03-0.595D-03-0.999D-03
 Coeff-Com:  0.938D-03 0.407D-02 0.873D-02-0.303D-01-0.955D-01 0.618D-01
 Coeff-Com:  0.105D+01
 Coeff:      0.537D-07-0.704D-07-0.285D-07-0.182D-06 0.218D-06-0.253D-05
 Coeff:     -0.952D-05-0.587D-05 0.119D-03 0.197D-03-0.595D-03-0.999D-03
 Coeff:      0.938D-03 0.407D-02 0.873D-02-0.303D-01-0.955D-01 0.618D-01
 Coeff:      0.105D+01
 Gap=     0.252 Goal=   None    Shift=    0.000
 RMSDP=4.57D-09 MaxDP=2.14D-07 DE=-4.46D-11 OVMax= 2.16D-07

 SCF Done:  E(RwB97XD) =  -3010.54558597     A.U. after   19 cycles
            NFock= 19  Conv=0.46D-08     -V/T= 2.0016
 KE= 3.005844314864D+03 PE=-8.633999832634D+03 EE= 1.876385852416D+03
 Leave Link  502 at Wed May  1 14:46:25 2024, MaxMem=  1207959552 cpu:            1059.5 elap:            1059.7
 (Enter /software/gaussian/g16-c01/sse4/g16/l601.exe)
 Copying SCF densities to generalized density rwf, IOpCl= 0 IROHF=0.

 **********************************************************************

            Population analysis using the SCF Density.

 **********************************************************************

 Alpha  occ. eigenvalues -- -483.31857 -62.86865 -56.66572 -56.65982 -56.65977
 Alpha  occ. eigenvalues --  -19.51182 -19.51102 -14.90522 -10.59621 -10.59070
 Alpha  occ. eigenvalues --  -10.59023 -10.58987 -10.57677 -10.53813  -9.02659
 Alpha  occ. eigenvalues --   -6.85374  -6.83445  -6.83422  -2.95270  -2.94760
 Alpha  occ. eigenvalues --   -2.94740  -2.93197  -2.93197  -1.54918  -1.37956
 Alpha  occ. eigenvalues --   -1.24304  -1.15915  -1.13137  -1.05511  -1.03675
 Alpha  occ. eigenvalues --   -0.96819  -0.92909  -0.88758  -0.84927  -0.83615
 Alpha  occ. eigenvalues --   -0.83420  -0.80184  -0.79428  -0.77254  -0.73636
 Alpha  occ. eigenvalues --   -0.70346  -0.68812  -0.65145  -0.62457  -0.62020
 Alpha  occ. eigenvalues --   -0.61180  -0.61005  -0.56737  -0.55948
 Alpha virt. eigenvalues --   -0.30778  -0.25422  -0.16800  -0.15263  -0.10882
 Alpha virt. eigenvalues --   -0.08256  -0.07817  -0.06552  -0.06378  -0.04713
 Alpha virt. eigenvalues --   -0.03492  -0.03183  -0.02794  -0.01193  -0.00845
 Alpha virt. eigenvalues --   -0.00593  -0.00114   0.00702   0.01227   0.01677
 Alpha virt. eigenvalues --    0.02797   0.03313   0.03725   0.03790   0.04044
 Alpha virt. eigenvalues --    0.04839   0.05490   0.06004   0.07488   0.07901
 Alpha virt. eigenvalues --    0.08284   0.08660   0.08907   0.09588   0.10267
 Alpha virt. eigenvalues --    0.10344   0.10675   0.11861   0.13095   0.13843
 Alpha virt. eigenvalues --    0.14642   0.15046   0.15739   0.16058   0.16709
 Alpha virt. eigenvalues --    0.18278   0.18702   0.19151   0.19497   0.20083
 Alpha virt. eigenvalues --    0.21077   0.22043   0.24975   0.26855   0.28833
 Alpha virt. eigenvalues --    0.29250   0.30849   0.31859   0.32552   0.33606
 Alpha virt. eigenvalues --    0.35519   0.36335   0.37604   0.39039   0.40722
 Alpha virt. eigenvalues --    0.40992   0.41604   0.42119   0.44043   0.45027
 Alpha virt. eigenvalues --    0.45827   0.48955   0.49171   0.50037   0.51725
 Alpha virt. eigenvalues --    0.52360   0.53439   0.55169   0.55792   0.57397
 Alpha virt. eigenvalues --    0.60443   0.61295   0.63352   0.66038   0.66852
 Alpha virt. eigenvalues --    0.68151   0.69300   0.71861   0.72430   0.72994
 Alpha virt. eigenvalues --    0.73499   0.75822   0.77321   0.81102   0.82220
 Alpha virt. eigenvalues --    0.84602   0.85132   0.89499   0.90761   0.93789
 Alpha virt. eigenvalues --    0.94601   0.98414   1.01796   1.02767   1.04573
 Alpha virt. eigenvalues --    1.05382   1.06845   1.07719   1.07848   1.09853
 Alpha virt. eigenvalues --    1.16672   1.21270   1.23813   1.31450   1.34751
 Alpha virt. eigenvalues --    1.35303   1.36387   1.43709   1.52115   1.53844
 Alpha virt. eigenvalues --    1.54980   1.55136   1.58798   1.59993   1.64845
 Alpha virt. eigenvalues --    1.66525   1.68205   1.70579   1.72193   1.77266
 Alpha virt. eigenvalues --    1.80076   1.83632   1.84967   1.92290   1.94344
 Alpha virt. eigenvalues --    1.95986   1.99442   2.01404   2.05644   2.06587
 Alpha virt. eigenvalues --    2.08054   2.13176   2.18127   2.19944   2.28108
 Alpha virt. eigenvalues --    2.34371   2.37960   2.40631   2.41849   2.50724
 Alpha virt. eigenvalues --    2.55269   2.61046   2.63836   2.65499   2.67580
 Alpha virt. eigenvalues --    2.68913   2.71674   2.74813   2.75884   2.80252
 Alpha virt. eigenvalues --    2.92014   2.94652   2.95712   3.04138   3.06528
 Alpha virt. eigenvalues --    3.10533   3.13017   3.17411   3.19299   3.21839
 Alpha virt. eigenvalues --    3.22510   3.35596   3.46216   3.48158   3.50344
 Alpha virt. eigenvalues --    3.53919   3.64964   3.68858   3.80514   3.85440
 Alpha virt. eigenvalues --    4.08399   4.08622   4.15995   4.21270   4.38824
 Alpha virt. eigenvalues --    4.42048   4.54714   4.56454   4.87592   4.90206
 Alpha virt. eigenvalues --    4.98881   5.03047   5.57525   6.10224   6.64091
 Alpha virt. eigenvalues --    7.47090   7.48653   7.58375  23.19796  23.59685
 Alpha virt. eigenvalues --   23.68642  23.77877  23.94493  23.99620  35.27449
 Alpha virt. eigenvalues --   47.90584  49.80217  49.89027 289.79894 289.81559
 Alpha virt. eigenvalues --  289.939891020.90978
          Condensed to atoms (all electrons):
               1          2          3          4          5          6
     1  C    8.458028  -2.320000   0.531935  -1.411645  -0.775949   0.301812
     2  C   -2.320000  13.164730  -2.264279  -2.721320   1.140380  -0.015669
     3  C    0.531935  -2.264279  12.842762  -2.610557  -1.380728   0.017853
     4  C   -1.411645  -2.721320  -2.610557  13.552396   1.246402   0.010139
     5  C   -0.775949   1.140380  -1.380728   1.246402   7.385031   0.027913
     6  H    0.301812  -0.015669   0.017853   0.010139   0.027913   0.315696
     7  H    0.056837   0.249519   0.082092  -0.033634  -0.021589  -0.001834
     8  H    0.000745  -0.011480   0.059430   0.273331  -0.005954   0.000002
     9  H    0.020522  -0.002745  -0.000823  -0.004168   0.322151  -0.001791
    10  N   -0.099406   0.319980  -0.927085   0.263747   0.044113  -0.000492
    11  O    0.022542  -0.022915  -0.254623  -0.042933  -0.051634  -0.000016
    12  O    0.257965  -0.044802  -0.278038  -0.034201  -0.043382  -0.000032
    13  C    1.494874  -2.006592   0.853419  -2.766995  -1.929188  -0.009261
    14  H    0.001619  -0.016100   0.011421  -0.048602  -0.070160  -0.000059
    15  Br   0.063768  -0.000891   0.059147   0.097521   0.073128  -0.000386
               7          8          9         10         11         12
     1  C    0.056837   0.000745   0.020522  -0.099406   0.022542   0.257965
     2  C    0.249519  -0.011480  -0.002745   0.319980  -0.022915  -0.044802
     3  C    0.082092   0.059430  -0.000823  -0.927085  -0.254623  -0.278038
     4  C   -0.033634   0.273331  -0.004168   0.263747  -0.042933  -0.034201
     5  C   -0.021589  -0.005954   0.322151   0.044113  -0.051634  -0.043382
     6  H   -0.001834   0.000002  -0.001791  -0.000492  -0.000016  -0.000032
     7  H    0.320522   0.000015   0.000016  -0.027303  -0.001544   0.016877
     8  H    0.000015   0.314639   0.000123  -0.023480   0.017520  -0.000936
     9  H    0.000016   0.000123   0.284843   0.000447   0.000002   0.000005
    10  N   -0.027303  -0.023480   0.000447   7.191447   0.256807   0.224425
    11  O   -0.001544   0.017520   0.000002   0.256807   7.855958  -0.015602
    12  O    0.016877  -0.000936   0.000005   0.224425  -0.015602   7.889925
    13  C    0.013546   0.023734  -0.012176  -0.119674   0.252547   0.046017
    14  H   -0.000013  -0.005004  -0.004479  -0.001185  -0.000158  -0.000070
    15  Br  -0.000222  -0.000823   0.000974   0.001424   0.000913   0.001939
              13         14         15
     1  C    1.494874   0.001619   0.063768
     2  C   -2.006592  -0.016100  -0.000891
     3  C    0.853419   0.011421   0.059147
     4  C   -2.766995  -0.048602   0.097521
     5  C   -1.929188  -0.070160   0.073128
     6  H   -0.009261  -0.000059  -0.000386
     7  H    0.013546  -0.000013  -0.000222
     8  H    0.023734  -0.005004  -0.000823
     9  H   -0.012176  -0.004479   0.000974
    10  N   -0.119674  -0.001185   0.001424
    11  O    0.252547  -0.000158   0.000913
    12  O    0.046017  -0.000070   0.001939
    13  C   10.296857   0.421561  -0.107994
    14  H    0.421561   0.326586  -0.037082
    15  Br  -0.107994  -0.037082  34.613588
 Mulliken charges:
               1
     1  C   -0.603649
     2  C    0.552185
     3  C   -0.741925
     4  C    0.230518
     5  C    0.039465
     6  H    0.356125
     7  H    0.346715
     8  H    0.358136
     9  H    0.397100
    10  N   -0.103767
    11  O   -0.016863
    12  O   -0.020090
    13  C   -0.450673
    14  H    0.421726
    15  Br   0.234996
 Sum of Mulliken charges =   1.00000
 Mulliken charges with hydrogens summed into heavy atoms:
               1
     1  C   -0.247524
     2  C    0.898900
     3  C   -0.741925
     4  C    0.588654
     5  C    0.436565
    10  N   -0.103767
    11  O   -0.016863
    12  O   -0.020090
    13  C   -0.028947
    15  Br   0.234996
 Electronic spatial extent (au):  <R**2>=           2803.2905
 Charge=              1.0000 electrons
 Dipole moment (field-independent basis, Debye):
    X=             -4.0507    Y=             -0.9576    Z=             -0.2877  Tot=              4.1723
 Quadrupole moment (field-independent basis, Debye-Ang):
   XX=            -78.9538   YY=            -51.6626   ZZ=            -61.8519
   XY=              1.7914   XZ=              1.9355   YZ=              2.4153
 Traceless Quadrupole moment (field-independent basis, Debye-Ang):
   XX=            -14.7977   YY=             12.4935   ZZ=              2.3042
   XY=              1.7914   XZ=              1.9355   YZ=              2.4153
 Octapole moment (field-independent basis, Debye-Ang**2):
  XXX=           -344.1755  YYY=             84.9572  ZZZ=             75.2853  XYY=            -83.7160
  XXY=             28.5735  XXZ=             31.9930  XZZ=            -81.7428  YZZ=             14.3217
  YYZ=             23.6688  XYZ=             -4.9018
 Hexadecapole moment (field-independent basis, Debye-Ang**3):
 XXXX=          -2472.4011 YYYY=           -670.8248 ZZZZ=           -341.5224 XXXY=            -68.0779
 XXXZ=            -16.1760 YYYX=            -56.1693 YYYZ=           -150.3368 ZZZX=            -13.9147
 ZZZY=           -130.7499 XXYY=           -470.8275 XXZZ=           -373.2368 YYZZ=           -158.9222
 XXYZ=            -52.5868 YYXZ=              1.6158 ZZXY=             -5.3881
 N-N= 7.412240793886D+02 E-N=-8.633999831612D+03  KE= 3.005844314864D+03
 No NMR shielding tensors so no spin-rotation constants.
 Leave Link  601 at Wed May  1 14:46:32 2024, MaxMem=  1207959552 cpu:               7.5 elap:               7.5
 (Enter /software/gaussian/g16-c01/sse4/g16/l9999.exe)
 Unable to Open any file for archive entry.
 1\1\GINC-BHX0023\SP\RwB97XD\6-311+G(d)\C6H5Br1N1O2(1+)\BWEIGHT\01-May-
 2024\0\\#P wB97XD/6-311+G* NoSymm #P Field=X+107\\TitleMe\\1,1\C,0,0.0
 295,1.3397,0.0682\C,0,1.4348,1.2867,0.0064\C,0,2.1118,0.0511,-0.0054\C
 ,0,1.4451,-1.1372,0.0312\C,0,-0.6879,0.1682,0.11\H,0,-0.4713,2.2984,0.
 0781\H,0,2.0273,2.1965,-0.0322\H,0,1.9897,-2.0764,0.0232\H,0,-1.7716,0
 .1804,0.1582\N,0,3.5864,0.051,-0.0675\O,0,4.1471,-1.0597,-0.0881\O,0,4
 .145,1.1639,-0.0901\C,0,-0.0236,-1.1458,0.0835\H,0,-0.4367,-1.8725,0.7
 889\Br,0,-0.5359,-1.8697,-1.7408\\Version=ES64L-G16RevC.01\HF=-3010.54
 5586\RMSD=4.572e-09\Dipole=-3.5001995,0.7713482,1.0330055\Quadrupole=-
 11.0017478,9.2886142,1.7131336,1.3318527,1.4389939,1.7957136\PG=C01 [X
 (C6H5Br1N1O2)]\\@
 The archive entry for this job was punched.


 THE POLHOLDE ROLLS WITHOUT SLIPPING ON THE HERPOLHOLDE LYING IN
 THE INVARIABLE PLANE.
 H.GOLDSTEIN, "CLASSICAL MECHANICS", PG 161
 Job cpu time:       0 days  0 hours 18 minutes 46.3 seconds.
 Elapsed time:       0 days  0 hours 18 minutes 46.4 seconds.
 File lengths (MBytes):  RWF=     40 Int=      0 D2E=      0 Chk=     32 Scr=      1
 Normal termination of Gaussian 16 at Wed May  1 14:46:33 2024.
