 Entering Gaussian System, Link 0=g16
 Initial command:
 /software/gaussian/g16-c01/sse4/g16/l1.exe "/local_scratch/24657504/Gau-23430.inp" -scrdir="/local_scratch/24657504/"
 Entering Link 1 = /software/gaussian/g16-c01/sse4/g16/l1.exe PID=     23437.
  
 Copyright (c) 1988-2019, Gaussian, Inc.  All Rights Reserved.
  
 This is part of the Gaussian(R) 16 program.  It is based on
 the Gaussian(R) 09 system (copyright 2009, Gaussian, Inc.),
 the Gaussian(R) 03 system (copyright 2003, Gaussian, Inc.),
 the Gaussian(R) 98 system (copyright 1998, Gaussian, Inc.),
 the Gaussian(R) 94 system (copyright 1995, Gaussian, Inc.),
 the Gaussian 92(TM) system (copyright 1992, Gaussian, Inc.),
 the Gaussian 90(TM) system (copyright 1990, Gaussian, Inc.),
 the Gaussian 88(TM) system (copyright 1988, Gaussian, Inc.),
 the Gaussian 86(TM) system (copyright 1986, Carnegie Mellon
 University), and the Gaussian 82(TM) system (copyright 1983,
 Carnegie Mellon University). Gaussian is a federally registered
 trademark of Gaussian, Inc.
  
 This software contains proprietary and confidential information,
 including trade secrets, belonging to Gaussian, Inc.
  
 This software is provided under written license and may be
 used, copied, transmitted, or stored only in accord with that
 written license.
  
 The following legend is applicable only to US Government
 contracts under FAR:
  
                    RESTRICTED RIGHTS LEGEND
  
 Use, reproduction and disclosure by the US Government is
 subject to restrictions as set forth in subparagraphs (a)
 and (c) of the Commercial Computer Software - Restricted
 Rights clause in FAR 52.227-19.
  
 Gaussian, Inc.
 340 Quinnipiac St., Bldg. 40, Wallingford CT 06492
  
  
 ---------------------------------------------------------------
 Warning -- This program may not be used in any manner that
 competes with the business of Gaussian, Inc. or will provide
 assistance to any competitor of Gaussian, Inc.  The licensee
 of this program is prohibited from giving any competitor of
 Gaussian, Inc. access to this program.  By using this program,
 the user acknowledges that Gaussian, Inc. is engaged in the
 business of creating and licensing software in the field of
 computational chemistry and represents and warrants to the
 licensee that it is not a competitor of Gaussian, Inc. and that
 it will not use this program in any manner prohibited above.
 ---------------------------------------------------------------
  

 Cite this work as:
 Gaussian 16, Revision C.01,
 M. J. Frisch, G. W. Trucks, H. B. Schlegel, G. E. Scuseria, 
 M. A. Robb, J. R. Cheeseman, G. Scalmani, V. Barone, 
 G. A. Petersson, H. Nakatsuji, X. Li, M. Caricato, A. V. Marenich, 
 J. Bloino, B. G. Janesko, R. Gomperts, B. Mennucci, H. P. Hratchian, 
 J. V. Ortiz, A. F. Izmaylov, J. L. Sonnenberg, D. Williams-Young, 
 F. Ding, F. Lipparini, F. Egidi, J. Goings, B. Peng, A. Petrone, 
 T. Henderson, D. Ranasinghe, V. G. Zakrzewski, J. Gao, N. Rega, 
 G. Zheng, W. Liang, M. Hada, M. Ehara, K. Toyota, R. Fukuda, 
 J. Hasegawa, M. Ishida, T. Nakajima, Y. Honda, O. Kitao, H. Nakai, 
 T. Vreven, K. Throssell, J. A. Montgomery, Jr., J. E. Peralta, 
 F. Ogliaro, M. J. Bearpark, J. J. Heyd, E. N. Brothers, K. N. Kudin, 
 V. N. Staroverov, T. A. Keith, R. Kobayashi, J. Normand, 
 K. Raghavachari, A. P. Rendell, J. C. Burant, S. S. Iyengar, 
 J. Tomasi, M. Cossi, J. M. Millam, M. Klene, C. Adamo, R. Cammi, 
 J. W. Ochterski, R. L. Martin, K. Morokuma, O. Farkas, 
 J. B. Foresman, and D. J. Fox, Gaussian, Inc., Wallingford CT, 2019.
 
 ******************************************
 Gaussian 16:  ES64L-G16RevC.01  3-Jul-2019
                 1-May-2024 
 ******************************************
 %chk=geometry.chk
 %mem=9GB
 %nprocshared=12
 Will use up to   12 processors via shared memory.
 ---------------------------------------
 #P wB97XD/6-311+G* NoSymm #P Field=Y+29
 ---------------------------------------
 1/38=1,172=1/1;
 2/12=2,15=1,17=6,18=5,40=1/2;
 3/5=4,6=6,7=11,11=2,14=2,15=29,25=1,30=1,74=-58/1,2,3;
 4//1;
 5/5=2,38=5/2;
 6/7=2,8=2,9=2,10=2,28=1/1;
 99/5=1,9=1/99;
 Leave Link    1 at Wed May  1 14:47:55 2024, MaxMem=  1207959552 cpu:               1.8 elap:               1.8
 (Enter /software/gaussian/g16-c01/sse4/g16/l101.exe)
 -------
 TitleMe
 -------
 Symbolic Z-matrix:
 Charge =  1 Multiplicity = 1
 C                     0.0295    1.3397    0.0682 
 C                     1.4348    1.2867    0.0064 
 C                     2.1118    0.0511   -0.0054 
 C                     1.4451   -1.1372    0.0312 
 C                    -0.6879    0.1682    0.11 
 H                    -0.4713    2.2984    0.0781 
 H                     2.0273    2.1965   -0.0322 
 H                     1.9897   -2.0764    0.0232 
 H                    -1.7716    0.1804    0.1582 
 N                     3.5864    0.051    -0.0675 
 O                     4.1471   -1.0597   -0.0881 
 O                     4.145     1.1639   -0.0901 
 C                    -0.0236   -1.1458    0.0835 
 H                    -0.4367   -1.8725    0.7889 
 Br                   -0.5359   -1.8697   -1.7408 
 
 ITRead=  0  0  0  0  0  0  0  0  0  0  0  0  0  0  0
 MicOpt= -1 -1 -1 -1 -1 -1 -1 -1 -1 -1 -1 -1 -1 -1 -1
 NAtoms=     15 NQM=       15 NQMF=       0 NMMI=      0 NMMIF=      0
                NMic=       0 NMicF=      0.
                    Isotopes and Nuclear Properties:
 (Nuclear quadrupole moments (NQMom) in fm**2, nuclear magnetic moments (NMagM)
  in nuclear magnetons)

  Atom         1           2           3           4           5           6           7           8           9          10
 IAtWgt=          12          12          12          12          12           1           1           1           1          14
 AtmWgt=  12.0000000  12.0000000  12.0000000  12.0000000  12.0000000   1.0078250   1.0078250   1.0078250   1.0078250  14.0030740
 NucSpn=           0           0           0           0           0           1           1           1           1           2
 AtZEff=  -0.0000000  -0.0000000  -0.0000000  -0.0000000  -0.0000000  -0.0000000  -0.0000000  -0.0000000  -0.0000000  -0.0000000
 NQMom=    0.0000000   0.0000000   0.0000000   0.0000000   0.0000000   0.0000000   0.0000000   0.0000000   0.0000000   2.0440000
 NMagM=    0.0000000   0.0000000   0.0000000   0.0000000   0.0000000   2.7928460   2.7928460   2.7928460   2.7928460   0.4037610
 AtZNuc=   6.0000000   6.0000000   6.0000000   6.0000000   6.0000000   1.0000000   1.0000000   1.0000000   1.0000000   7.0000000

  Atom        11          12          13          14          15
 IAtWgt=          16          16          12           1          79
 AtmWgt=  15.9949146  15.9949146  12.0000000   1.0078250  78.9183361
 NucSpn=           0           0           0           1           3
 AtZEff=  -0.0000000  -0.0000000  -0.0000000  -0.0000000  -0.0000000
 NQMom=    0.0000000   0.0000000   0.0000000   0.0000000  31.3000000
 NMagM=    0.0000000   0.0000000   0.0000000   2.7928460   2.1063990
 AtZNuc=   8.0000000   8.0000000   6.0000000   1.0000000  35.0000000
 Leave Link  101 at Wed May  1 14:47:56 2024, MaxMem=  1207959552 cpu:               1.4 elap:               1.4
 (Enter /software/gaussian/g16-c01/sse4/g16/l202.exe)
                          Input orientation:                          
 ---------------------------------------------------------------------
 Center     Atomic      Atomic             Coordinates (Angstroms)
 Number     Number       Type             X           Y           Z
 ---------------------------------------------------------------------
      1          6           0        0.029500    1.339700    0.068200
      2          6           0        1.434800    1.286700    0.006400
      3          6           0        2.111800    0.051100   -0.005400
      4          6           0        1.445100   -1.137200    0.031200
      5          6           0       -0.687900    0.168200    0.110000
      6          1           0       -0.471300    2.298400    0.078100
      7          1           0        2.027300    2.196500   -0.032200
      8          1           0        1.989700   -2.076400    0.023200
      9          1           0       -1.771600    0.180400    0.158200
     10          7           0        3.586400    0.051000   -0.067500
     11          8           0        4.147100   -1.059700   -0.088100
     12          8           0        4.145000    1.163900   -0.090100
     13          6           0       -0.023600   -1.145800    0.083500
     14          1           0       -0.436700   -1.872500    0.788900
     15         35           0       -0.535900   -1.869700   -1.740800
 ---------------------------------------------------------------------
                    Distance matrix (angstroms):
                    1          2          3          4          5
     1  C    0.000000
     2  C    1.407656   0.000000
     3  C    2.449874   1.408963   0.000000
     4  C    2.853126   2.424049   1.363043   0.000000
     5  C    1.374344   2.401589   2.804523   2.501993   0.000000
     6  H    1.081667   2.159142   3.424870   3.934226   2.141421
     7  H    2.176095   1.086408   2.147231   3.384750   3.392128
     8  H    3.938800   3.408612   2.131193   1.085702   3.495040
     9  H    2.143837   3.395283   3.888995   3.478413   1.084840
    10  N    3.785591   2.482297   1.475907   2.450862   4.279589
    11  O    4.768247   3.587631   2.320164   2.705743   4.992415
    12  O    4.122294   2.714696   2.319353   3.549540   4.938459
    13  C    2.486114   2.837240   2.449573   1.469656   1.472614
    14  H    3.324903   3.754379   3.290289   2.157764   2.165286
    15  Br   3.727252   4.110867   3.702891   2.756973   2.757100
                    6          7          8          9         10
     6  H    0.000000
     7  H    2.503108   0.000000
     8  H    5.019802   4.273425   0.000000
     9  H    2.486588   4.304945   4.388479   0.000000
    10  N    4.640790   2.652397   2.661486   5.364313   0.000000
    11  O    5.712624   3.885809   2.387560   6.052233   1.244373
    12  O    4.756638   2.356750   3.893289   6.002923   1.245428
    13  C    3.473180   3.923079   2.218790   2.195425   3.806210
    14  H    4.231175   4.827242   2.552506   2.528663   4.540772
    15  Br   4.548146   5.101303   3.087568   3.055498   4.845862
                   11         12         13         14         15
    11  O    0.000000
    12  O    2.223602   0.000000
    13  C    4.175117   4.768865   0.000000
    14  H    4.737193   5.566358   1.093770   0.000000
    15  Br   5.031700   5.817075   2.028436   2.531646   0.000000
 Symmetry turned off by external request.
 Stoichiometry    C6H5BrNO2(1+)
 Framework group  C1[X(C6H5BrNO2)]
 Deg. of freedom    39
 Full point group                 C1      NOp   1
 Rotational constants (GHZ):           1.8252210           0.5518633           0.4576002
 Leave Link  202 at Wed May  1 14:47:58 2024, MaxMem=  1207959552 cpu:               1.3 elap:               1.3
 (Enter /software/gaussian/g16-c01/sse4/g16/l301.exe)
 Standard basis: 6-311+G(d) (5D, 7F)
 Ernie: Thresh=  0.10000D-02 Tol=  0.10000D-05 Strict=F.
 The following finite field(s) will be applied:
 An electric field of              0.0000  0.0029  0.0000
   261 basis functions,   443 primitive gaussians,   273 cartesian basis functions
    49 alpha electrons       49 beta electrons
       nuclear repulsion energy       739.2122215416 Hartrees.
 IExCor= 4639 DFT=T Ex+Corr=wB97XD ExCW=0 ScaHFX=  1.000000
 ScaDFX=  1.000000  1.000000  1.000000  1.000000 ScalE2=  1.000000  1.000000
 IRadAn=      5 IRanWt=     -1 IRanGd=            0 ICorTp=0 IEmpDi=121
 HFx  wShort=  0.000000 wLong=  0.200000 cFull=  0.222036 cShort=  0.000000 cLong=  0.777964
 DFx  wShort=  0.000000 wLong=  0.200000 cFull=  0.000000 cShort=  0.000000 cLong=  1.000000
 NAtoms=   15 NActive=   15 NUniq=   15 SFac= 1.00D+00 NAtFMM=   60 NAOKFM=F Big=F
 Integral buffers will be    131072 words long.
 Raffenetti 2 integral format.
 Two-electron integral symmetry is turned off.
 R6Disp:  Grimme-D2 Dispersion energy=       -0.0077368520 Hartrees.
 Nuclear repulsion after empirical dispersion term =      739.2044846896 Hartrees.
 Leave Link  301 at Wed May  1 14:47:59 2024, MaxMem=  1207959552 cpu:               1.0 elap:               1.0
 (Enter /software/gaussian/g16-c01/sse4/g16/l302.exe)
 NPDir=0 NMtPBC=     1 NCelOv=     1 NCel=       1 NClECP=     1 NCelD=      1
         NCelK=      1 NCelE2=     1 NClLst=     1 CellRange=     0.0.
 One-electron integrals computed using PRISM.
 NBasis=   261 RedAO= T EigKep=  2.35D-06  NBF=   261
 NBsUse=   261 1.00D-06 EigRej= -1.00D+00 NBFU=   261
 Precomputing XC quadrature grid using
 IXCGrd= 4 IRadAn=           5 IRanWt=          -1 IRanGd=           0 AccXCQ= 0.00D+00.
 Generated NRdTot=       0 NPtTot=           0 NUsed=           0 NTot=          32
 NSgBfM=   273   273   273   273   273 MxSgAt=    15 MxSgA2=    15.
 Leave Link  302 at Wed May  1 14:48:20 2024, MaxMem=  1207959552 cpu:              21.2 elap:              21.2
 (Enter /software/gaussian/g16-c01/sse4/g16/l303.exe)
 DipDrv:  MaxL=1.
 The nuclear repulsion energy is now       738.8748705898 hartrees.
 Leave Link  303 at Wed May  1 14:48:23 2024, MaxMem=  1207959552 cpu:               3.2 elap:               3.2
 (Enter /software/gaussian/g16-c01/sse4/g16/l401.exe)
 ExpMin= 3.50D-02 ExpMax= 4.40D+05 ExpMxC= 1.51D+04 IAcc=3 IRadAn=         5 AccDes= 0.00D+00
 Harris functional with IExCor= 4639 and IRadAn=       5 diagonalized for initial guess.
 HarFok:  IExCor= 4639 AccDes= 0.00D+00 IRadAn=         5 IDoV= 1 UseB2=F ITyADJ=14
 ICtDFT=  3500011 ScaDFX=  1.000000  1.000000  1.000000  1.000000
 FoFCou: FMM=F IPFlag=           0 FMFlag=      100000 FMFlg1=           0
         NFxFlg=           0 DoJE=T BraDBF=F KetDBF=T FulRan=T
         wScrn=  0.000000 ICntrl=       500 IOpCl=  0 I1Cent=   200000004 NGrid=           0
         NMat0=    1 NMatS0=      1 NMatT0=    0 NMatD0=    1 NMtDS0=    0 NMtDT0=    0
 Symmetry not used in FoFCou.
 Harris En= -2970.59771120129    
 JPrj=0 DoOrth=F DoCkMO=F.
 Leave Link  401 at Wed May  1 14:48:52 2024, MaxMem=  1207959552 cpu:              29.2 elap:              29.2
 (Enter /software/gaussian/g16-c01/sse4/g16/l502.exe)
 Two-electron integral symmetry not used.
 Closed shell SCF:
 Using DIIS extrapolation, IDIIS=  1040.
 NGot=  1207959552 LenX=  1207804877 LenY=  1207729907
 Requested convergence on RMS density matrix=1.00D-08 within 128 cycles.
 Requested convergence on MAX density matrix=1.00D-06.
 Requested convergence on             energy=1.00D-06.
 No special actions if energy rises.
 Fock matrices will be formed incrementally for  20 cycles.

 Cycle   1  Pass 1  IDiag  1:
 FoFJK:  IHMeth= 1 ICntrl=       0 DoSepK=T KAlg= 0 I1Cent=           0 FoldK=F
 IRaf=         1 NMat=       1 IRICut=       1 DoRegI=T DoRafI=F ISym2E= 0 IDoP0=0 IntGTp=1.
 FoFCou: FMM=F IPFlag=           0 FMFlag=      100000 FMFlg1=           0
         NFxFlg=           0 DoJE=T BraDBF=F KetDBF=F FulRan=T
         wScrn=  0.000000 ICntrl=       500 IOpCl=  0 I1Cent=           0 NGrid=           0
         NMat0=    1 NMatS0=      1 NMatT0=    0 NMatD0=    1 NMtDS0=    0 NMtDT0=    0
 Symmetry not used in FoFCou.
 E= -3009.72231337619    
 DIIS: error= 3.20D-01 at cycle   1 NSaved=   1.
 NSaved= 1 IEnMin= 1 EnMin= -3009.72231337619     IErMin= 1 ErrMin= 3.20D-01
 ErrMax= 3.20D-01  0.00D+00 EMaxC= 1.00D-01 BMatC= 1.19D+01 BMatP= 1.19D+01
 IDIUse=3 WtCom= 0.00D+00 WtEn= 1.00D+00
 Coeff-Com:  0.100D+01
 Coeff-En:   0.100D+01
 Coeff:      0.100D+01
 Gap=     0.330 Goal=   None    Shift=    0.000
 GapD=    0.330 DampG=1.000 DampE=0.250 DampFc=0.2500 IDamp=-1.
 Damping current iteration by 2.50D-01
 RMSDP=4.13D-02 MaxDP=3.91D+00              OVMax= 2.54D-01

 Cycle   2  Pass 1  IDiag  1:
 RMSU=  3.97D-03    CP:  8.96D-01
 E= -3010.00667053145     Delta-E=       -0.284357155258 Rises=F Damp=T
 DIIS: error= 2.25D-01 at cycle   2 NSaved=   2.
 NSaved= 2 IEnMin= 2 EnMin= -3010.00667053145     IErMin= 2 ErrMin= 2.25D-01
 ErrMax= 2.25D-01  0.00D+00 EMaxC= 1.00D-01 BMatC= 5.45D+00 BMatP= 1.19D+01
 IDIUse=3 WtCom= 0.00D+00 WtEn= 1.00D+00
 Coeff-Com: -0.184D+01 0.284D+01
 Coeff-En:   0.000D+00 0.100D+01
 Coeff:      0.000D+00 0.100D+01
 Gap=     0.293 Goal=   None    Shift=    0.000
 RMSDP=3.22D-02 MaxDP=3.09D+00 DE=-2.84D-01 OVMax= 7.49D-02

 Cycle   3  Pass 1  IDiag  1:
 RMSU=  4.22D-03    CP:  5.62D-01  3.00D+00
 E= -3010.38586513329     Delta-E=       -0.379194601846 Rises=F Damp=F
 DIIS: error= 6.57D-02 at cycle   3 NSaved=   3.
 NSaved= 3 IEnMin= 3 EnMin= -3010.38586513329     IErMin= 3 ErrMin= 6.57D-02
 ErrMax= 6.57D-02  0.00D+00 EMaxC= 1.00D-01 BMatC= 7.34D-01 BMatP= 5.45D+00
 IDIUse=3 WtCom= 3.43D-01 WtEn= 6.57D-01
 Coeff-Com:  0.273D+01-0.359D+01 0.186D+01
 Coeff-En:   0.279D-01 0.000D+00 0.972D+00
 Coeff:      0.956D+00-0.123D+01 0.128D+01
 Gap=     0.266 Goal=   None    Shift=    0.000
 RMSDP=8.10D-03 MaxDP=4.40D-01 DE=-3.79D-01 OVMax= 6.59D-02

 Cycle   4  Pass 1  IDiag  1:
 RMSU=  4.80D-03    CP:  5.81D-01  2.23D+00  2.05D+00
 E= -3010.48930353608     Delta-E=       -0.103438402790 Rises=F Damp=F
 DIIS: error= 3.82D-02 at cycle   4 NSaved=   4.
 NSaved= 4 IEnMin= 4 EnMin= -3010.48930353608     IErMin= 4 ErrMin= 3.82D-02
 ErrMax= 3.82D-02  0.00D+00 EMaxC= 1.00D-01 BMatC= 2.31D-01 BMatP= 7.34D-01
 IDIUse=3 WtCom= 6.18D-01 WtEn= 3.82D-01
 Coeff-Com: -0.403D-01 0.676D-01 0.346D+00 0.627D+00
 Coeff-En:   0.000D+00 0.000D+00 0.198D+00 0.802D+00
 Coeff:     -0.249D-01 0.418D-01 0.290D+00 0.693D+00
 Gap=     0.267 Goal=   None    Shift=    0.000
 RMSDP=3.44D-03 MaxDP=2.92D-01 DE=-1.03D-01 OVMax= 3.44D-02

 Cycle   5  Pass 1  IDiag  1:
 RMSU=  1.38D-03    CP:  5.53D-01  2.63D+00  1.88D+00  8.56D-01
 E= -3010.53286974369     Delta-E=       -0.043566207611 Rises=F Damp=F
 DIIS: error= 6.50D-03 at cycle   5 NSaved=   5.
 NSaved= 5 IEnMin= 5 EnMin= -3010.53286974369     IErMin= 5 ErrMin= 6.50D-03
 ErrMax= 6.50D-03  0.00D+00 EMaxC= 1.00D-01 BMatC= 9.73D-03 BMatP= 2.31D-01
 IDIUse=3 WtCom= 9.35D-01 WtEn= 6.50D-02
 Coeff-Com: -0.155D+00 0.212D+00 0.960D-01 0.405D+00 0.442D+00
 Coeff-En:   0.000D+00 0.000D+00 0.000D+00 0.000D+00 0.100D+01
 Coeff:     -0.145D+00 0.198D+00 0.897D-01 0.379D+00 0.478D+00
 Gap=     0.267 Goal=   None    Shift=    0.000
 RMSDP=7.64D-04 MaxDP=3.08D-02 DE=-4.36D-02 OVMax= 2.66D-02

 Cycle   6  Pass 1  IDiag  1:
 RMSU=  4.95D-04    CP:  5.50D-01  2.59D+00  1.92D+00  8.84D-01  6.62D-01
 E= -3010.53605401533     Delta-E=       -0.003184271640 Rises=F Damp=F
 DIIS: error= 2.20D-03 at cycle   6 NSaved=   6.
 NSaved= 6 IEnMin= 6 EnMin= -3010.53605401533     IErMin= 6 ErrMin= 2.20D-03
 ErrMax= 2.20D-03  0.00D+00 EMaxC= 1.00D-01 BMatC= 5.84D-04 BMatP= 9.73D-03
 IDIUse=3 WtCom= 9.78D-01 WtEn= 2.20D-02
 Coeff-Com: -0.122D+00 0.164D+00-0.142D-02 0.181D+00 0.317D+00 0.461D+00
 Coeff-En:   0.000D+00 0.000D+00 0.000D+00 0.000D+00 0.477D-01 0.952D+00
 Coeff:     -0.119D+00 0.161D+00-0.139D-02 0.177D+00 0.311D+00 0.472D+00
 Gap=     0.253 Goal=   None    Shift=    0.000
 RMSDP=2.33D-04 MaxDP=1.16D-02 DE=-3.18D-03 OVMax= 7.68D-03

 Cycle   7  Pass 1  IDiag  1:
 RMSU=  1.89D-04    CP:  5.51D-01  2.60D+00  1.90D+00  8.73D-01  7.24D-01
                    CP:  8.56D-01
 E= -3010.53646302484     Delta-E=       -0.000409009502 Rises=F Damp=F
 DIIS: error= 2.27D-04 at cycle   7 NSaved=   7.
 NSaved= 7 IEnMin= 7 EnMin= -3010.53646302484     IErMin= 7 ErrMin= 2.27D-04
 ErrMax= 2.27D-04  0.00D+00 EMaxC= 1.00D-01 BMatC= 1.46D-05 BMatP= 5.84D-04
 IDIUse=3 WtCom= 9.98D-01 WtEn= 2.27D-03
 Coeff-Com: -0.333D-01 0.443D-01-0.124D-01 0.272D-01 0.539D-01 0.143D+00
 Coeff-Com:  0.777D+00
 Coeff-En:   0.000D+00 0.000D+00 0.000D+00 0.000D+00 0.000D+00 0.000D+00
 Coeff-En:   0.100D+01
 Coeff:     -0.332D-01 0.442D-01-0.124D-01 0.272D-01 0.537D-01 0.143D+00
 Coeff:      0.777D+00
 Gap=     0.254 Goal=   None    Shift=    0.000
 RMSDP=1.36D-04 MaxDP=1.07D-02 DE=-4.09D-04 OVMax= 2.73D-03

 Cycle   8  Pass 1  IDiag  1:
 RMSU=  7.47D-05    CP:  5.50D-01  2.59D+00  1.92D+00  8.84D-01  7.60D-01
                    CP:  9.39D-01  9.15D-01
 E= -3010.53648173591     Delta-E=       -0.000018711070 Rises=F Damp=F
 DIIS: error= 1.37D-04 at cycle   8 NSaved=   8.
 NSaved= 8 IEnMin= 8 EnMin= -3010.53648173591     IErMin= 8 ErrMin= 1.37D-04
 ErrMax= 1.37D-04  0.00D+00 EMaxC= 1.00D-01 BMatC= 2.62D-06 BMatP= 1.46D-05
 IDIUse=3 WtCom= 9.99D-01 WtEn= 1.37D-03
 Coeff-Com:  0.642D-02-0.885D-02-0.357D-02-0.148D-01-0.286D-01-0.360D-01
 Coeff-Com:  0.243D+00 0.843D+00
 Coeff-En:   0.000D+00 0.000D+00 0.000D+00 0.000D+00 0.000D+00 0.000D+00
 Coeff-En:   0.000D+00 0.100D+01
 Coeff:      0.642D-02-0.883D-02-0.357D-02-0.148D-01-0.285D-01-0.360D-01
 Coeff:      0.242D+00 0.843D+00
 Gap=     0.254 Goal=   None    Shift=    0.000
 RMSDP=6.02D-05 MaxDP=5.02D-03 DE=-1.87D-05 OVMax= 1.70D-03

 Cycle   9  Pass 1  IDiag  1:
 RMSU=  2.38D-05    CP:  5.51D-01  2.59D+00  1.92D+00  8.85D-01  7.61D-01
                    CP:  9.80D-01  1.13D+00  1.14D+00
 E= -3010.53648696267     Delta-E=       -0.000005226767 Rises=F Damp=F
 DIIS: error= 4.89D-05 at cycle   9 NSaved=   9.
 NSaved= 9 IEnMin= 9 EnMin= -3010.53648696267     IErMin= 9 ErrMin= 4.89D-05
 ErrMax= 4.89D-05  0.00D+00 EMaxC= 1.00D-01 BMatC= 2.25D-07 BMatP= 2.62D-06
 IDIUse=1 WtCom= 1.00D+00 WtEn= 0.00D+00
 Coeff-Com:  0.561D-02-0.753D-02 0.726D-03-0.723D-02-0.128D-01-0.272D-01
 Coeff-Com: -0.764D-01 0.183D+00 0.941D+00
 Coeff:      0.561D-02-0.753D-02 0.726D-03-0.723D-02-0.128D-01-0.272D-01
 Coeff:     -0.764D-01 0.183D+00 0.941D+00
 Gap=     0.254 Goal=   None    Shift=    0.000
 RMSDP=2.16D-05 MaxDP=1.40D-03 DE=-5.23D-06 OVMax= 1.05D-03

 Cycle  10  Pass 1  IDiag  1:
 RMSU=  8.24D-06    CP:  5.51D-01  2.58D+00  1.92D+00  8.85D-01  7.64D-01
                    CP:  9.97D-01  1.18D+00  1.26D+00  1.15D+00
 E= -3010.53648790977     Delta-E=       -0.000000947097 Rises=F Damp=F
 DIIS: error= 1.57D-05 at cycle  10 NSaved=  10.
 NSaved=10 IEnMin=10 EnMin= -3010.53648790977     IErMin=10 ErrMin= 1.57D-05
 ErrMax= 1.57D-05  0.00D+00 EMaxC= 1.00D-01 BMatC= 5.69D-08 BMatP= 2.25D-07
 IDIUse=1 WtCom= 1.00D+00 WtEn= 0.00D+00
 Coeff-Com:  0.492D-03-0.634D-03 0.347D-03-0.540D-03 0.524D-03-0.658D-03
 Coeff-Com: -0.510D-01-0.408D-01 0.292D+00 0.800D+00
 Coeff:      0.492D-03-0.634D-03 0.347D-03-0.540D-03 0.524D-03-0.658D-03
 Coeff:     -0.510D-01-0.408D-01 0.292D+00 0.800D+00
 Gap=     0.254 Goal=   None    Shift=    0.000
 RMSDP=7.36D-06 MaxDP=5.36D-04 DE=-9.47D-07 OVMax= 3.25D-04

 Cycle  11  Pass 1  IDiag  1:
 RMSU=  3.78D-06    CP:  5.51D-01  2.58D+00  1.92D+00  8.84D-01  7.64D-01
                    CP:  1.00D+00  1.20D+00  1.25D+00  1.25D+00  1.09D+00
 E= -3010.53648803849     Delta-E=       -0.000000128725 Rises=F Damp=F
 DIIS: error= 7.35D-06 at cycle  11 NSaved=  11.
 NSaved=11 IEnMin=11 EnMin= -3010.53648803849     IErMin=11 ErrMin= 7.35D-06
 ErrMax= 7.35D-06  0.00D+00 EMaxC= 1.00D-01 BMatC= 5.05D-09 BMatP= 5.69D-08
 IDIUse=1 WtCom= 1.00D+00 WtEn= 0.00D+00
 Coeff-Com: -0.350D-03 0.471D-03 0.584D-04 0.770D-03 0.167D-02 0.387D-02
 Coeff-Com:  0.955D-02-0.247D-01-0.143D+00 0.368D-01 0.112D+01
 Coeff:     -0.350D-03 0.471D-03 0.584D-04 0.770D-03 0.167D-02 0.387D-02
 Coeff:      0.955D-02-0.247D-01-0.143D+00 0.368D-01 0.112D+01
 Gap=     0.254 Goal=   None    Shift=    0.000
 RMSDP=4.50D-06 MaxDP=1.99D-04 DE=-1.29D-07 OVMax= 1.91D-04

 Cycle  12  Pass 1  IDiag  1:
 RMSU=  1.43D-06    CP:  5.51D-01  2.58D+00  1.92D+00  8.84D-01  7.63D-01
                    CP:  1.00D+00  1.20D+00  1.24D+00  1.28D+00  1.37D+00
                    CP:  1.39D+00
 E= -3010.53648806757     Delta-E=       -0.000000029077 Rises=F Damp=F
 DIIS: error= 2.14D-06 at cycle  12 NSaved=  12.
 NSaved=12 IEnMin=12 EnMin= -3010.53648806757     IErMin=12 ErrMin= 2.14D-06
 ErrMax= 2.14D-06  0.00D+00 EMaxC= 1.00D-01 BMatC= 1.33D-09 BMatP= 5.05D-09
 IDIUse=1 WtCom= 1.00D+00 WtEn= 0.00D+00
 Coeff-Com: -0.200D-03 0.265D-03-0.812D-05 0.405D-03 0.517D-03 0.137D-02
 Coeff-Com:  0.109D-01-0.412D-02-0.100D+00-0.891D-01 0.465D+00 0.715D+00
 Coeff:     -0.200D-03 0.265D-03-0.812D-05 0.405D-03 0.517D-03 0.137D-02
 Coeff:      0.109D-01-0.412D-02-0.100D+00-0.891D-01 0.465D+00 0.715D+00
 Gap=     0.254 Goal=   None    Shift=    0.000
 RMSDP=1.21D-06 MaxDP=6.50D-05 DE=-2.91D-08 OVMax= 5.46D-05

 Cycle  13  Pass 1  IDiag  1:
 RMSU=  4.10D-07    CP:  5.51D-01  2.58D+00  1.92D+00  8.84D-01  7.63D-01
                    CP:  1.00D+00  1.20D+00  1.24D+00  1.28D+00  1.41D+00
                    CP:  1.52D+00  9.97D-01
 E= -3010.53648807159     Delta-E=       -0.000000004023 Rises=F Damp=F
 DIIS: error= 7.66D-07 at cycle  13 NSaved=  13.
 NSaved=13 IEnMin=13 EnMin= -3010.53648807159     IErMin=13 ErrMin= 7.66D-07
 ErrMax= 7.66D-07  0.00D+00 EMaxC= 1.00D-01 BMatC= 2.54D-10 BMatP= 1.33D-09
 IDIUse=1 WtCom= 1.00D+00 WtEn= 0.00D+00
 Coeff-Com: -0.207D-04 0.275D-04-0.204D-04-0.371D-04-0.246D-03-0.670D-03
 Coeff-Com: -0.819D-03 0.291D-02 0.113D-01-0.751D-02-0.145D+00 0.173D+00
 Coeff-Com:  0.967D+00
 Coeff:     -0.207D-04 0.275D-04-0.204D-04-0.371D-04-0.246D-03-0.670D-03
 Coeff:     -0.819D-03 0.291D-02 0.113D-01-0.751D-02-0.145D+00 0.173D+00
 Coeff:      0.967D+00
 Gap=     0.254 Goal=   None    Shift=    0.000
 RMSDP=6.20D-07 MaxDP=4.00D-05 DE=-4.02D-09 OVMax= 3.14D-05

 Cycle  14  Pass 1  IDiag  1:
 RMSU=  2.18D-07    CP:  5.51D-01  2.58D+00  1.92D+00  8.84D-01  7.63D-01
                    CP:  1.00D+00  1.20D+00  1.24D+00  1.27D+00  1.44D+00
                    CP:  1.56D+00  1.31D+00  1.31D+00
 E= -3010.53648807253     Delta-E=       -0.000000000940 Rises=F Damp=F
 DIIS: error= 3.48D-07 at cycle  14 NSaved=  14.
 NSaved=14 IEnMin=14 EnMin= -3010.53648807253     IErMin=14 ErrMin= 3.48D-07
 ErrMax= 3.48D-07  0.00D+00 EMaxC= 1.00D-01 BMatC= 3.89D-11 BMatP= 2.54D-10
 IDIUse=1 WtCom= 1.00D+00 WtEn= 0.00D+00
 Coeff-Com:  0.146D-04-0.192D-04-0.843D-05-0.692D-04-0.143D-03-0.409D-03
 Coeff-Com: -0.193D-02 0.181D-02 0.200D-01 0.139D-01-0.140D+00-0.439D-01
 Coeff-Com:  0.245D+00 0.906D+00
 Coeff:      0.146D-04-0.192D-04-0.843D-05-0.692D-04-0.143D-03-0.409D-03
 Coeff:     -0.193D-02 0.181D-02 0.200D-01 0.139D-01-0.140D+00-0.439D-01
 Coeff:      0.245D+00 0.906D+00
 Gap=     0.254 Goal=   None    Shift=    0.000
 RMSDP=3.26D-07 MaxDP=2.02D-05 DE=-9.40D-10 OVMax= 1.73D-05

 Cycle  15  Pass 1  IDiag  1:
 RMSU=  1.03D-07    CP:  5.51D-01  2.58D+00  1.92D+00  8.84D-01  7.63D-01
                    CP:  1.00D+00  1.20D+00  1.24D+00  1.27D+00  1.45D+00
                    CP:  1.57D+00  1.46D+00  1.54D+00  1.30D+00
 E= -3010.53648807272     Delta-E=       -0.000000000185 Rises=F Damp=F
 DIIS: error= 2.20D-07 at cycle  15 NSaved=  15.
 NSaved=15 IEnMin=15 EnMin= -3010.53648807272     IErMin=15 ErrMin= 2.20D-07
 ErrMax= 2.20D-07  0.00D+00 EMaxC= 1.00D-01 BMatC= 1.04D-11 BMatP= 3.89D-11
 IDIUse=1 WtCom= 1.00D+00 WtEn= 0.00D+00
 Coeff-Com:  0.144D-04-0.192D-04 0.374D-05-0.131D-04 0.256D-04 0.718D-04
 Coeff-Com: -0.253D-03-0.839D-04 0.217D-02 0.718D-02-0.435D-02-0.401D-01
 Coeff-Com: -0.204D+00 0.294D+00 0.945D+00
 Coeff:      0.144D-04-0.192D-04 0.374D-05-0.131D-04 0.256D-04 0.718D-04
 Coeff:     -0.253D-03-0.839D-04 0.217D-02 0.718D-02-0.435D-02-0.401D-01
 Coeff:     -0.204D+00 0.294D+00 0.945D+00
 Gap=     0.254 Goal=   None    Shift=    0.000
 RMSDP=1.85D-07 MaxDP=1.52D-05 DE=-1.85D-10 OVMax= 1.00D-05

 Cycle  16  Pass 1  IDiag  1:
 RMSU=  4.75D-08    CP:  5.51D-01  2.58D+00  1.92D+00  8.84D-01  7.63D-01
                    CP:  1.00D+00  1.20D+00  1.24D+00  1.27D+00  1.46D+00
                    CP:  1.57D+00  1.53D+00  1.65D+00  1.62D+00  1.52D+00
 E= -3010.53648807281     Delta-E=       -0.000000000096 Rises=F Damp=F
 DIIS: error= 6.25D-08 at cycle  16 NSaved=  16.
 NSaved=16 IEnMin=16 EnMin= -3010.53648807281     IErMin=16 ErrMin= 6.25D-08
 ErrMax= 6.25D-08  0.00D+00 EMaxC= 1.00D-01 BMatC= 1.83D-12 BMatP= 1.04D-11
 IDIUse=1 WtCom= 1.00D+00 WtEn= 0.00D+00
 Coeff-Com:  0.189D-05-0.255D-05 0.251D-05 0.850D-05 0.361D-04 0.102D-03
 Coeff-Com:  0.258D-03-0.483D-03-0.324D-02 0.293D-03 0.228D-01-0.151D-02
 Coeff-Com: -0.104D+00-0.112D+00 0.211D+00 0.987D+00
 Coeff:      0.189D-05-0.255D-05 0.251D-05 0.850D-05 0.361D-04 0.102D-03
 Coeff:      0.258D-03-0.483D-03-0.324D-02 0.293D-03 0.228D-01-0.151D-02
 Coeff:     -0.104D+00-0.112D+00 0.211D+00 0.987D+00
 Gap=     0.254 Goal=   None    Shift=    0.000
 RMSDP=1.10D-07 MaxDP=9.35D-06 DE=-9.64D-11 OVMax= 4.85D-06

 Cycle  17  Pass 1  IDiag  1:
 RMSU=  1.74D-08    CP:  5.51D-01  2.58D+00  1.92D+00  8.84D-01  7.63D-01
                    CP:  1.00D+00  1.20D+00  1.24D+00  1.27D+00  1.47D+00
                    CP:  1.57D+00  1.57D+00  1.70D+00  1.74D+00  1.94D+00
                    CP:  1.15D+00
 E= -3010.53648807283     Delta-E=       -0.000000000020 Rises=F Damp=F
 DIIS: error= 4.17D-08 at cycle  17 NSaved=  17.
 NSaved=17 IEnMin=17 EnMin= -3010.53648807283     IErMin=17 ErrMin= 4.17D-08
 ErrMax= 4.17D-08  0.00D+00 EMaxC= 1.00D-01 BMatC= 2.52D-13 BMatP= 1.83D-12
 IDIUse=1 WtCom= 1.00D+00 WtEn= 0.00D+00
 Coeff-Com: -0.145D-05 0.193D-05 0.574D-07 0.374D-05 0.631D-05 0.180D-04
 Coeff-Com:  0.987D-04-0.930D-04-0.110D-02-0.671D-03 0.636D-02 0.568D-02
 Coeff-Com:  0.386D-02-0.739D-01-0.847D-01 0.286D+00 0.858D+00
 Coeff:     -0.145D-05 0.193D-05 0.574D-07 0.374D-05 0.631D-05 0.180D-04
 Coeff:      0.987D-04-0.930D-04-0.110D-02-0.671D-03 0.636D-02 0.568D-02
 Coeff:      0.386D-02-0.739D-01-0.847D-01 0.286D+00 0.858D+00
 Gap=     0.254 Goal=   None    Shift=    0.000
 RMSDP=2.84D-08 MaxDP=2.51D-06 DE=-1.96D-11 OVMax= 1.19D-06

 Cycle  18  Pass 1  IDiag  1:
 RMSU=  7.09D-09    CP:  5.51D-01  2.58D+00  1.92D+00  8.84D-01  7.63D-01
                    CP:  1.00D+00  1.20D+00  1.24D+00  1.27D+00  1.47D+00
                    CP:  1.57D+00  1.58D+00  1.71D+00  1.76D+00  2.04D+00
                    CP:  1.35D+00  1.13D+00
 E= -3010.53648807284     Delta-E=       -0.000000000009 Rises=F Damp=F
 DIIS: error= 1.01D-08 at cycle  18 NSaved=  18.
 NSaved=18 IEnMin=18 EnMin= -3010.53648807284     IErMin=18 ErrMin= 1.01D-08
 ErrMax= 1.01D-08  0.00D+00 EMaxC= 1.00D-01 BMatC= 5.80D-14 BMatP= 2.52D-13
 IDIUse=1 WtCom= 1.00D+00 WtEn= 0.00D+00
 Coeff-Com: -0.125D-07 0.136D-07-0.304D-06-0.126D-05-0.619D-05-0.167D-04
 Coeff-Com: -0.199D-04 0.787D-04 0.292D-03-0.364D-03-0.284D-02 0.188D-02
 Coeff-Com:  0.239D-01-0.106D-02-0.731D-01-0.118D+00 0.282D+00 0.887D+00
 Coeff:     -0.125D-07 0.136D-07-0.304D-06-0.126D-05-0.619D-05-0.167D-04
 Coeff:     -0.199D-04 0.787D-04 0.292D-03-0.364D-03-0.284D-02 0.188D-02
 Coeff:      0.239D-01-0.106D-02-0.731D-01-0.118D+00 0.282D+00 0.887D+00
 Gap=     0.254 Goal=   None    Shift=    0.000
 RMSDP=1.12D-08 MaxDP=4.85D-07 DE=-9.09D-12 OVMax= 5.03D-07

 Cycle  19  Pass 1  IDiag  1:
 RMSU=  1.96D-09    CP:  5.51D-01  2.58D+00  1.92D+00  8.84D-01  7.63D-01
                    CP:  1.00D+00  1.20D+00  1.24D+00  1.27D+00  1.47D+00
                    CP:  1.57D+00  1.58D+00  1.71D+00  1.77D+00  2.09D+00
                    CP:  1.38D+00  1.35D+00  1.22D+00
 E= -3010.53648807280     Delta-E=        0.000000000038 Rises=F Damp=F
 DIIS: error= 3.79D-09 at cycle  19 NSaved=  19.
 NSaved=19 IEnMin=18 EnMin= -3010.53648807284     IErMin=19 ErrMin= 3.79D-09
 ErrMax= 3.79D-09  0.00D+00 EMaxC= 1.00D-01 BMatC= 2.05D-15 BMatP= 5.80D-14
 IDIUse=1 WtCom= 1.00D+00 WtEn= 0.00D+00
 Large coefficients: NSaved= 19 BigCof=    0.00 CofMax=   10.00 Det=-1.11D-14
 Inversion failed.  Reducing to 18 matrices.
 Large coefficients: NSaved= 18 BigCof=    0.00 CofMax=   10.00 Det=-1.14D-14
 Inversion failed.  Reducing to 17 matrices.
 Coeff-Com: -0.584D-07-0.258D-06-0.691D-06-0.223D-05-0.857D-05 0.530D-05
 Coeff-Com:  0.104D-03 0.253D-04-0.637D-03-0.299D-03 0.252D-02 0.448D-02
 Coeff-Com: -0.306D-02-0.298D-01-0.186D-01 0.673D-01 0.978D+00
 Coeff:     -0.584D-07-0.258D-06-0.691D-06-0.223D-05-0.857D-05 0.530D-05
 Coeff:      0.104D-03 0.253D-04-0.637D-03-0.299D-03 0.252D-02 0.448D-02
 Coeff:     -0.306D-02-0.298D-01-0.186D-01 0.673D-01 0.978D+00
 Gap=     0.254 Goal=   None    Shift=    0.000
 RMSDP=2.33D-09 MaxDP=1.41D-07 DE= 3.82D-11 OVMax= 8.02D-08

 SCF Done:  E(RwB97XD) =  -3010.53648807     A.U. after   19 cycles
            NFock= 19  Conv=0.23D-08     -V/T= 2.0016
 KE= 3.005849102976D+03 PE=-8.631692294458D+03 EE= 1.876431832820D+03
 Leave Link  502 at Wed May  1 15:07:12 2024, MaxMem=  1207959552 cpu:            1099.5 elap:            1099.8
 (Enter /software/gaussian/g16-c01/sse4/g16/l601.exe)
 Copying SCF densities to generalized density rwf, IOpCl= 0 IROHF=0.

 **********************************************************************

            Population analysis using the SCF Density.

 **********************************************************************

 Alpha  occ. eigenvalues -- -483.30631 -62.85652 -56.65348 -56.64771 -56.64768
 Alpha  occ. eigenvalues --  -19.45567 -19.45545 -14.85094 -10.57701 -10.57318
 Alpha  occ. eigenvalues --  -10.56830 -10.56581 -10.56491 -10.52844  -9.01455
 Alpha  occ. eigenvalues --   -6.84141  -6.82254  -6.82239  -2.94044  -2.93543
 Alpha  occ. eigenvalues --   -2.93529  -2.92020  -2.92019  -1.49357  -1.32335
 Alpha  occ. eigenvalues --   -1.22280  -1.13633  -1.11472  -1.03856  -1.00742
 Alpha  occ. eigenvalues --   -0.95091  -0.90629  -0.85001  -0.80464  -0.80326
 Alpha  occ. eigenvalues --   -0.79686  -0.77922  -0.75801  -0.75612  -0.71900
 Alpha  occ. eigenvalues --   -0.69029  -0.67269  -0.63330  -0.59701  -0.56844
 Alpha  occ. eigenvalues --   -0.55909  -0.55678  -0.55313  -0.54663
 Alpha virt. eigenvalues --   -0.29236  -0.20984  -0.15222  -0.12974  -0.08697
 Alpha virt. eigenvalues --   -0.06183  -0.05676  -0.04534  -0.04367  -0.02663
 Alpha virt. eigenvalues --   -0.02308  -0.01965  -0.00853  -0.00486   0.00870
 Alpha virt. eigenvalues --    0.01387   0.01987   0.02336   0.02954   0.03344
 Alpha virt. eigenvalues --    0.04822   0.04989   0.05413   0.06041   0.07033
 Alpha virt. eigenvalues --    0.07247   0.07406   0.07734   0.09002   0.09492
 Alpha virt. eigenvalues --    0.10655   0.11208   0.11450   0.11984   0.12793
 Alpha virt. eigenvalues --    0.13004   0.13287   0.13857   0.15424   0.16133
 Alpha virt. eigenvalues --    0.16870   0.17099   0.17928   0.18428   0.19106
 Alpha virt. eigenvalues --    0.19859   0.21274   0.21620   0.22107   0.24623
 Alpha virt. eigenvalues --    0.25456   0.27941   0.28374   0.30026   0.32196
 Alpha virt. eigenvalues --    0.33324   0.33918   0.34467   0.35126   0.36309
 Alpha virt. eigenvalues --    0.37423   0.37955   0.39450   0.40992   0.42060
 Alpha virt. eigenvalues --    0.42856   0.43853   0.44504   0.46596   0.47574
 Alpha virt. eigenvalues --    0.47932   0.50552   0.51122   0.52508   0.53674
 Alpha virt. eigenvalues --    0.54615   0.55510   0.57067   0.57378   0.59266
 Alpha virt. eigenvalues --    0.61455   0.62675   0.64602   0.67181   0.68914
 Alpha virt. eigenvalues --    0.70504   0.72274   0.72470   0.73516   0.74189
 Alpha virt. eigenvalues --    0.74867   0.79425   0.80224   0.83538   0.85399
 Alpha virt. eigenvalues --    0.86664   0.88166   0.92093   0.93338   0.98817
 Alpha virt. eigenvalues --    0.99832   1.01213   1.04970   1.05551   1.06820
 Alpha virt. eigenvalues --    1.09448   1.11137   1.12196   1.12684   1.14497
 Alpha virt. eigenvalues --    1.22249   1.24746   1.26978   1.33151   1.36726
 Alpha virt. eigenvalues --    1.37093   1.38381   1.45458   1.54617   1.57336
 Alpha virt. eigenvalues --    1.58716   1.59054   1.60824   1.62674   1.66579
 Alpha virt. eigenvalues --    1.69378   1.70008   1.73726   1.75516   1.79245
 Alpha virt. eigenvalues --    1.81388   1.85612   1.87563   1.93982   1.96090
 Alpha virt. eigenvalues --    1.98182   2.03152   2.04072   2.07264   2.08368
 Alpha virt. eigenvalues --    2.10013   2.14962   2.20530   2.22831   2.29259
 Alpha virt. eigenvalues --    2.37823   2.41445   2.42880   2.43812   2.52675
 Alpha virt. eigenvalues --    2.56878   2.63228   2.66300   2.68427   2.71912
 Alpha virt. eigenvalues --    2.73687   2.76759   2.77556   2.81260   2.82039
 Alpha virt. eigenvalues --    2.93805   2.96647   3.00904   3.05977   3.09174
 Alpha virt. eigenvalues --    3.13193   3.15009   3.19165   3.23856   3.24561
 Alpha virt. eigenvalues --    3.27599   3.39350   3.47710   3.51443   3.54758
 Alpha virt. eigenvalues --    3.57115   3.70191   3.74361   3.82378   3.87413
 Alpha virt. eigenvalues --    4.09530   4.09759   4.17215   4.22447   4.43256
 Alpha virt. eigenvalues --    4.44598   4.57693   4.60131   4.93439   4.96115
 Alpha virt. eigenvalues --    5.04758   5.08927   5.63080   6.16016   6.65233
 Alpha virt. eigenvalues --    7.48205   7.49781   7.59539  23.21531  23.61512
 Alpha virt. eigenvalues --   23.70056  23.79624  23.96196  24.01619  35.32864
 Alpha virt. eigenvalues --   47.91786  49.85831  49.94641 289.81110 289.82778
 Alpha virt. eigenvalues --  289.952151020.92200
          Condensed to atoms (all electrons):
               1          2          3          4          5          6
     1  C    8.972241  -2.470596   0.273716  -1.651292  -0.601449   0.308324
     2  C   -2.470596  13.052271  -1.865966  -2.433239   0.703908  -0.014750
     3  C    0.273716  -1.865966  13.252399  -3.342874  -1.309668   0.023007
     4  C   -1.651292  -2.433239  -3.342874  14.821027   1.360697   0.011317
     5  C   -0.601449   0.703908  -1.309668   1.360697   7.398273   0.017708
     6  H    0.308324  -0.014750   0.023007   0.011317   0.017708   0.347564
     7  H    0.072886   0.223918   0.084970  -0.035714  -0.021220  -0.001998
     8  H    0.003100  -0.007282   0.066329   0.256498  -0.017716   0.000001
     9  H    0.027149  -0.011541   0.002814  -0.003679   0.309457  -0.002393
    10  N   -0.161019   0.360616  -0.929988   0.327789   0.017554  -0.000647
    11  O    0.009468  -0.064740  -0.264394  -0.001283  -0.054652  -0.000023
    12  O    0.336145  -0.052185  -0.279309  -0.089052  -0.044258   0.000018
    13  C    1.427850  -1.944629   0.951153  -3.485663  -1.797349  -0.009355
    14  H   -0.009262  -0.007241   0.008061  -0.083027  -0.024035  -0.000059
    15  Br   0.045375  -0.000852   0.062362   0.051369   0.068452  -0.000397
               7          8          9         10         11         12
     1  C    0.072886   0.003100   0.027149  -0.161019   0.009468   0.336145
     2  C    0.223918  -0.007282  -0.011541   0.360616  -0.064740  -0.052185
     3  C    0.084970   0.066329   0.002814  -0.929988  -0.264394  -0.279309
     4  C   -0.035714   0.256498  -0.003679   0.327789  -0.001283  -0.089052
     5  C   -0.021220  -0.017716   0.309457   0.017554  -0.054652  -0.044258
     6  H   -0.001998   0.000001  -0.002393  -0.000647  -0.000023   0.000018
     7  H    0.310732  -0.000003   0.000008  -0.027046  -0.001584   0.023281
     8  H   -0.000003   0.286847   0.000106  -0.022748   0.021857  -0.000802
     9  H    0.000008   0.000106   0.328393   0.000404   0.000006   0.000006
    10  N   -0.027046  -0.022748   0.000404   7.351621   0.200943   0.142667
    11  O   -0.001584   0.021857   0.000006   0.200943   7.810944   0.000634
    12  O    0.023281  -0.000802   0.000006   0.142667   0.000634   7.903932
    13  C    0.016327   0.032207   0.004762  -0.156504   0.296845   0.045645
    14  H   -0.000017  -0.003859  -0.005589  -0.000184  -0.000289  -0.000068
    15  Br  -0.000101   0.002201   0.000113   0.002908   0.000421   0.002007
              13         14         15
     1  C    1.427850  -0.009262   0.045375
     2  C   -1.944629  -0.007241  -0.000852
     3  C    0.951153   0.008061   0.062362
     4  C   -3.485663  -0.083027   0.051369
     5  C   -1.797349  -0.024035   0.068452
     6  H   -0.009355  -0.000059  -0.000397
     7  H    0.016327  -0.000017  -0.000101
     8  H    0.032207  -0.003859   0.002201
     9  H    0.004762  -0.005589   0.000113
    10  N   -0.156504  -0.000184   0.002908
    11  O    0.296845  -0.000289   0.000421
    12  O    0.045645  -0.000068   0.002007
    13  C   10.729220   0.418191  -0.052823
    14  H    0.418191   0.334594  -0.038569
    15  Br  -0.052823  -0.038569  34.662801
 Mulliken charges:
               1
     1  C   -0.582637
     2  C    0.532310
     3  C   -0.732614
     4  C    0.297126
     5  C   -0.005701
     6  H    0.321683
     7  H    0.355559
     8  H    0.383262
     9  H    0.349983
    10  N   -0.106366
    11  O    0.045847
    12  O    0.011339
    13  C   -0.475877
    14  H    0.411353
    15  Br   0.194731
 Sum of Mulliken charges =   1.00000
 Mulliken charges with hydrogens summed into heavy atoms:
               1
     1  C   -0.260953
     2  C    0.887870
     3  C   -0.732614
     4  C    0.680388
     5  C    0.344282
    10  N   -0.106366
    11  O    0.045847
    12  O    0.011339
    13  C   -0.064523
    15  Br   0.194731
 Electronic spatial extent (au):  <R**2>=           2798.0463
 Charge=              1.0000 electrons
 Dipole moment (field-independent basis, Debye):
    X=             -0.9255    Y=             -1.4207    Z=             -0.1300  Tot=              1.7005
 Quadrupole moment (field-independent basis, Debye-Ang):
   XX=            -71.4048   YY=            -51.6305   ZZ=            -62.3794
   XY=              0.3692   XZ=              1.2049   YZ=              2.0434
 Traceless Quadrupole moment (field-independent basis, Debye-Ang):
   XX=             -9.5999   YY=             10.1744   ZZ=             -0.5745
   XY=              0.3692   XZ=              1.2049   YZ=              2.0434
 Octapole moment (field-independent basis, Debye-Ang**2):
  XXX=           -300.4332  YYY=             82.6103  ZZZ=             76.5829  XYY=            -76.7192
  XXY=             25.5762  XXZ=             32.1138  XZZ=            -78.4090  YZZ=             14.8472
  YYZ=             24.2088  XYZ=             -3.5711
 Hexadecapole moment (field-independent basis, Debye-Ang**3):
 XXXX=          -2282.6648 YYYY=           -672.2330 ZZZZ=           -345.5380 XXXY=            -83.8515
 XXXZ=            -21.1968 YYYX=            -62.4848 YYYZ=           -151.8235 ZZZX=            -17.6484
 ZZZY=           -133.0829 XXYY=           -456.4040 XXZZ=           -370.1100 YYZZ=           -160.5794
 XXYZ=            -53.8349 YYXZ=             -1.3024 ZZXY=             -8.5657
 N-N= 7.388748705898D+02 E-N=-8.631692293871D+03  KE= 3.005849102976D+03
 No NMR shielding tensors so no spin-rotation constants.
 Leave Link  601 at Wed May  1 15:07:19 2024, MaxMem=  1207959552 cpu:               7.3 elap:               7.3
 (Enter /software/gaussian/g16-c01/sse4/g16/l9999.exe)
 Unable to Open any file for archive entry.
 1\1\GINC-BHX0029\SP\RwB97XD\6-311+G(d)\C6H5Br1N1O2(1+)\BWEIGHT\01-May-
 2024\0\\#P wB97XD/6-311+G* NoSymm #P Field=Y+29\\TitleMe\\1,1\C,0,0.02
 95,1.3397,0.0682\C,0,1.4348,1.2867,0.0064\C,0,2.1118,0.0511,-0.0054\C,
 0,1.4451,-1.1372,0.0312\C,0,-0.6879,0.1682,0.11\H,0,-0.4713,2.2984,0.0
 781\H,0,2.0273,2.1965,-0.0322\H,0,1.9897,-2.0764,0.0232\H,0,-1.7716,0.
 1804,0.1582\N,0,3.5864,0.051,-0.0675\O,0,4.1471,-1.0597,-0.0881\O,0,4.
 145,1.1639,-0.0901\C,0,-0.0236,-1.1458,0.0835\H,0,-0.4367,-1.8725,0.78
 89\Br,0,-0.5359,-1.8697,-1.7408\\Version=ES64L-G16RevC.01\HF=-3010.536
 4881\RMSD=2.330e-09\Dipole=-2.2706648,0.5891365,1.0950359\Quadrupole=-
 7.1373002,7.5643987,-0.4270984,0.2745132,0.8958475,1.5192184\PG=C01 [X
 (C6H5Br1N1O2)]\\@
 The archive entry for this job was punched.


 THE CHYMISTS ARE A STRANGE CLASS OF MORTALS IMPELLED
 BY AN ALMOST INSANE IMPULSE TO SEEK THEIR PLEASURE
 AMONG SMOKE AND VAPOR, SOOT AND FLAME, POISONS AND
 POVERTY; YET AMONG ALL THESE EVILS I SEEM TO LIVE
 SO SWEETLY, THAT I MAY DIE IF I WOULD CHANGE PLACES
 WITH THE PERSIAN KING.
   --  JOHANN JOACHIM BECHER, 1635-1682
 ACTA LABORATORII CHYMICA MONACENSIS, 1669
 Job cpu time:       0 days  0 hours 19 minutes 26.6 seconds.
 Elapsed time:       0 days  0 hours 19 minutes 27.0 seconds.
 File lengths (MBytes):  RWF=     40 Int=      0 D2E=      0 Chk=     32 Scr=      1
 Normal termination of Gaussian 16 at Wed May  1 15:07:20 2024.
