 Entering Gaussian System, Link 0=g16
 Initial command:
 /software/gaussian/g16-c01/sse4/g16/l1.exe "/local_scratch/24657582/Gau-986.inp" -scrdir="/local_scratch/24657582/"
 Entering Link 1 = /software/gaussian/g16-c01/sse4/g16/l1.exe PID=       998.
  
 Copyright (c) 1988-2019, Gaussian, Inc.  All Rights Reserved.
  
 This is part of the Gaussian(R) 16 program.  It is based on
 the Gaussian(R) 09 system (copyright 2009, Gaussian, Inc.),
 the Gaussian(R) 03 system (copyright 2003, Gaussian, Inc.),
 the Gaussian(R) 98 system (copyright 1998, Gaussian, Inc.),
 the Gaussian(R) 94 system (copyright 1995, Gaussian, Inc.),
 the Gaussian 92(TM) system (copyright 1992, Gaussian, Inc.),
 the Gaussian 90(TM) system (copyright 1990, Gaussian, Inc.),
 the Gaussian 88(TM) system (copyright 1988, Gaussian, Inc.),
 the Gaussian 86(TM) system (copyright 1986, Carnegie Mellon
 University), and the Gaussian 82(TM) system (copyright 1983,
 Carnegie Mellon University). Gaussian is a federally registered
 trademark of Gaussian, Inc.
  
 This software contains proprietary and confidential information,
 including trade secrets, belonging to Gaussian, Inc.
  
 This software is provided under written license and may be
 used, copied, transmitted, or stored only in accord with that
 written license.
  
 The following legend is applicable only to US Government
 contracts under FAR:
  
                    RESTRICTED RIGHTS LEGEND
  
 Use, reproduction and disclosure by the US Government is
 subject to restrictions as set forth in subparagraphs (a)
 and (c) of the Commercial Computer Software - Restricted
 Rights clause in FAR 52.227-19.
  
 Gaussian, Inc.
 340 Quinnipiac St., Bldg. 40, Wallingford CT 06492
  
  
 ---------------------------------------------------------------
 Warning -- This program may not be used in any manner that
 competes with the business of Gaussian, Inc. or will provide
 assistance to any competitor of Gaussian, Inc.  The licensee
 of this program is prohibited from giving any competitor of
 Gaussian, Inc. access to this program.  By using this program,
 the user acknowledges that Gaussian, Inc. is engaged in the
 business of creating and licensing software in the field of
 computational chemistry and represents and warrants to the
 licensee that it is not a competitor of Gaussian, Inc. and that
 it will not use this program in any manner prohibited above.
 ---------------------------------------------------------------
  

 Cite this work as:
 Gaussian 16, Revision C.01,
 M. J. Frisch, G. W. Trucks, H. B. Schlegel, G. E. Scuseria, 
 M. A. Robb, J. R. Cheeseman, G. Scalmani, V. Barone, 
 G. A. Petersson, H. Nakatsuji, X. Li, M. Caricato, A. V. Marenich, 
 J. Bloino, B. G. Janesko, R. Gomperts, B. Mennucci, H. P. Hratchian, 
 J. V. Ortiz, A. F. Izmaylov, J. L. Sonnenberg, D. Williams-Young, 
 F. Ding, F. Lipparini, F. Egidi, J. Goings, B. Peng, A. Petrone, 
 T. Henderson, D. Ranasinghe, V. G. Zakrzewski, J. Gao, N. Rega, 
 G. Zheng, W. Liang, M. Hada, M. Ehara, K. Toyota, R. Fukuda, 
 J. Hasegawa, M. Ishida, T. Nakajima, Y. Honda, O. Kitao, H. Nakai, 
 T. Vreven, K. Throssell, J. A. Montgomery, Jr., J. E. Peralta, 
 F. Ogliaro, M. J. Bearpark, J. J. Heyd, E. N. Brothers, K. N. Kudin, 
 V. N. Staroverov, T. A. Keith, R. Kobayashi, J. Normand, 
 K. Raghavachari, A. P. Rendell, J. C. Burant, S. S. Iyengar, 
 J. Tomasi, M. Cossi, J. M. Millam, M. Klene, C. Adamo, R. Cammi, 
 J. W. Ochterski, R. L. Martin, K. Morokuma, O. Farkas, 
 J. B. Foresman, and D. J. Fox, Gaussian, Inc., Wallingford CT, 2019.
 
 ******************************************
 Gaussian 16:  ES64L-G16RevC.01  3-Jul-2019
                 1-May-2024 
 ******************************************
 %chk=geometry.chk
 %mem=9GB
 %nprocshared=12
 Will use up to   12 processors via shared memory.
 ----------------------------------------
 #P wB97XD/6-311+G* NoSymm #P Field=Z+204
 ----------------------------------------
 1/38=1,172=1/1;
 2/12=2,15=1,17=6,18=5,40=1/2;
 3/5=4,6=6,7=11,11=2,14=3,15=204,25=1,30=1,74=-58/1,2,3;
 4//1;
 5/5=2,38=5/2;
 6/7=2,8=2,9=2,10=2,28=1/1;
 99/5=1,9=1/99;
 Leave Link    1 at Wed May  1 15:10:06 2024, MaxMem=  1207959552 cpu:               1.3 elap:               1.3
 (Enter /software/gaussian/g16-c01/sse4/g16/l101.exe)
 -------
 TitleMe
 -------
 Symbolic Z-matrix:
 Charge =  1 Multiplicity = 1
 C                     0.0295    1.3397    0.0682 
 C                     1.4348    1.2867    0.0064 
 C                     2.1118    0.0511   -0.0054 
 C                     1.4451   -1.1372    0.0312 
 C                    -0.6879    0.1682    0.11 
 H                    -0.4713    2.2984    0.0781 
 H                     2.0273    2.1965   -0.0322 
 H                     1.9897   -2.0764    0.0232 
 H                    -1.7716    0.1804    0.1582 
 N                     3.5864    0.051    -0.0675 
 O                     4.1471   -1.0597   -0.0881 
 O                     4.145     1.1639   -0.0901 
 C                    -0.0236   -1.1458    0.0835 
 H                    -0.4367   -1.8725    0.7889 
 Br                   -0.5359   -1.8697   -1.7408 
 
 ITRead=  0  0  0  0  0  0  0  0  0  0  0  0  0  0  0
 MicOpt= -1 -1 -1 -1 -1 -1 -1 -1 -1 -1 -1 -1 -1 -1 -1
 NAtoms=     15 NQM=       15 NQMF=       0 NMMI=      0 NMMIF=      0
                NMic=       0 NMicF=      0.
                    Isotopes and Nuclear Properties:
 (Nuclear quadrupole moments (NQMom) in fm**2, nuclear magnetic moments (NMagM)
  in nuclear magnetons)

  Atom         1           2           3           4           5           6           7           8           9          10
 IAtWgt=          12          12          12          12          12           1           1           1           1          14
 AtmWgt=  12.0000000  12.0000000  12.0000000  12.0000000  12.0000000   1.0078250   1.0078250   1.0078250   1.0078250  14.0030740
 NucSpn=           0           0           0           0           0           1           1           1           1           2
 AtZEff=  -0.0000000  -0.0000000  -0.0000000  -0.0000000  -0.0000000  -0.0000000  -0.0000000  -0.0000000  -0.0000000  -0.0000000
 NQMom=    0.0000000   0.0000000   0.0000000   0.0000000   0.0000000   0.0000000   0.0000000   0.0000000   0.0000000   2.0440000
 NMagM=    0.0000000   0.0000000   0.0000000   0.0000000   0.0000000   2.7928460   2.7928460   2.7928460   2.7928460   0.4037610
 AtZNuc=   6.0000000   6.0000000   6.0000000   6.0000000   6.0000000   1.0000000   1.0000000   1.0000000   1.0000000   7.0000000

  Atom        11          12          13          14          15
 IAtWgt=          16          16          12           1          79
 AtmWgt=  15.9949146  15.9949146  12.0000000   1.0078250  78.9183361
 NucSpn=           0           0           0           1           3
 AtZEff=  -0.0000000  -0.0000000  -0.0000000  -0.0000000  -0.0000000
 NQMom=    0.0000000   0.0000000   0.0000000   0.0000000  31.3000000
 NMagM=    0.0000000   0.0000000   0.0000000   2.7928460   2.1063990
 AtZNuc=   8.0000000   8.0000000   6.0000000   1.0000000  35.0000000
 Leave Link  101 at Wed May  1 15:10:07 2024, MaxMem=  1207959552 cpu:               1.3 elap:               1.3
 (Enter /software/gaussian/g16-c01/sse4/g16/l202.exe)
                          Input orientation:                          
 ---------------------------------------------------------------------
 Center     Atomic      Atomic             Coordinates (Angstroms)
 Number     Number       Type             X           Y           Z
 ---------------------------------------------------------------------
      1          6           0        0.029500    1.339700    0.068200
      2          6           0        1.434800    1.286700    0.006400
      3          6           0        2.111800    0.051100   -0.005400
      4          6           0        1.445100   -1.137200    0.031200
      5          6           0       -0.687900    0.168200    0.110000
      6          1           0       -0.471300    2.298400    0.078100
      7          1           0        2.027300    2.196500   -0.032200
      8          1           0        1.989700   -2.076400    0.023200
      9          1           0       -1.771600    0.180400    0.158200
     10          7           0        3.586400    0.051000   -0.067500
     11          8           0        4.147100   -1.059700   -0.088100
     12          8           0        4.145000    1.163900   -0.090100
     13          6           0       -0.023600   -1.145800    0.083500
     14          1           0       -0.436700   -1.872500    0.788900
     15         35           0       -0.535900   -1.869700   -1.740800
 ---------------------------------------------------------------------
                    Distance matrix (angstroms):
                    1          2          3          4          5
     1  C    0.000000
     2  C    1.407656   0.000000
     3  C    2.449874   1.408963   0.000000
     4  C    2.853126   2.424049   1.363043   0.000000
     5  C    1.374344   2.401589   2.804523   2.501993   0.000000
     6  H    1.081667   2.159142   3.424870   3.934226   2.141421
     7  H    2.176095   1.086408   2.147231   3.384750   3.392128
     8  H    3.938800   3.408612   2.131193   1.085702   3.495040
     9  H    2.143837   3.395283   3.888995   3.478413   1.084840
    10  N    3.785591   2.482297   1.475907   2.450862   4.279589
    11  O    4.768247   3.587631   2.320164   2.705743   4.992415
    12  O    4.122294   2.714696   2.319353   3.549540   4.938459
    13  C    2.486114   2.837240   2.449573   1.469656   1.472614
    14  H    3.324903   3.754379   3.290289   2.157764   2.165286
    15  Br   3.727252   4.110867   3.702891   2.756973   2.757100
                    6          7          8          9         10
     6  H    0.000000
     7  H    2.503108   0.000000
     8  H    5.019802   4.273425   0.000000
     9  H    2.486588   4.304945   4.388479   0.000000
    10  N    4.640790   2.652397   2.661486   5.364313   0.000000
    11  O    5.712624   3.885809   2.387560   6.052233   1.244373
    12  O    4.756638   2.356750   3.893289   6.002923   1.245428
    13  C    3.473180   3.923079   2.218790   2.195425   3.806210
    14  H    4.231175   4.827242   2.552506   2.528663   4.540772
    15  Br   4.548146   5.101303   3.087568   3.055498   4.845862
                   11         12         13         14         15
    11  O    0.000000
    12  O    2.223602   0.000000
    13  C    4.175117   4.768865   0.000000
    14  H    4.737193   5.566358   1.093770   0.000000
    15  Br   5.031700   5.817075   2.028436   2.531646   0.000000
 Symmetry turned off by external request.
 Stoichiometry    C6H5BrNO2(1+)
 Framework group  C1[X(C6H5BrNO2)]
 Deg. of freedom    39
 Full point group                 C1      NOp   1
 Rotational constants (GHZ):           1.8252210           0.5518633           0.4576002
 Leave Link  202 at Wed May  1 15:10:08 2024, MaxMem=  1207959552 cpu:               1.1 elap:               1.1
 (Enter /software/gaussian/g16-c01/sse4/g16/l301.exe)
 Standard basis: 6-311+G(d) (5D, 7F)
 Ernie: Thresh=  0.10000D-02 Tol=  0.10000D-05 Strict=F.
 The following finite field(s) will be applied:
 An electric field of              0.0000  0.0000  0.0204
   261 basis functions,   443 primitive gaussians,   273 cartesian basis functions
    49 alpha electrons       49 beta electrons
       nuclear repulsion energy       739.2122215416 Hartrees.
 IExCor= 4639 DFT=T Ex+Corr=wB97XD ExCW=0 ScaHFX=  1.000000
 ScaDFX=  1.000000  1.000000  1.000000  1.000000 ScalE2=  1.000000  1.000000
 IRadAn=      5 IRanWt=     -1 IRanGd=            0 ICorTp=0 IEmpDi=121
 HFx  wShort=  0.000000 wLong=  0.200000 cFull=  0.222036 cShort=  0.000000 cLong=  0.777964
 DFx  wShort=  0.000000 wLong=  0.200000 cFull=  0.000000 cShort=  0.000000 cLong=  1.000000
 NAtoms=   15 NActive=   15 NUniq=   15 SFac= 1.00D+00 NAtFMM=   60 NAOKFM=F Big=F
 Integral buffers will be    131072 words long.
 Raffenetti 2 integral format.
 Two-electron integral symmetry is turned off.
 R6Disp:  Grimme-D2 Dispersion energy=       -0.0077368520 Hartrees.
 Nuclear repulsion after empirical dispersion term =      739.2044846896 Hartrees.
 Leave Link  301 at Wed May  1 15:10:09 2024, MaxMem=  1207959552 cpu:               0.9 elap:               0.9
 (Enter /software/gaussian/g16-c01/sse4/g16/l302.exe)
 NPDir=0 NMtPBC=     1 NCelOv=     1 NCel=       1 NClECP=     1 NCelD=      1
         NCelK=      1 NCelE2=     1 NClLst=     1 CellRange=     0.0.
 One-electron integrals computed using PRISM.
 NBasis=   261 RedAO= T EigKep=  2.35D-06  NBF=   261
 NBsUse=   261 1.00D-06 EigRej= -1.00D+00 NBFU=   261
 Precomputing XC quadrature grid using
 IXCGrd= 4 IRadAn=           5 IRanWt=          -1 IRanGd=           0 AccXCQ= 0.00D+00.
 Generated NRdTot=       0 NPtTot=           0 NUsed=           0 NTot=          32
 NSgBfM=   273   273   273   273   273 MxSgAt=    15 MxSgA2=    15.
 Leave Link  302 at Wed May  1 15:10:30 2024, MaxMem=  1207959552 cpu:              20.9 elap:              20.9
 (Enter /software/gaussian/g16-c01/sse4/g16/l303.exe)
 DipDrv:  MaxL=1.
 The nuclear repulsion energy is now       736.8896673189 hartrees.
 Leave Link  303 at Wed May  1 15:10:33 2024, MaxMem=  1207959552 cpu:               3.2 elap:               3.2
 (Enter /software/gaussian/g16-c01/sse4/g16/l401.exe)
 ExpMin= 3.50D-02 ExpMax= 4.40D+05 ExpMxC= 1.51D+04 IAcc=3 IRadAn=         5 AccDes= 0.00D+00
 Harris functional with IExCor= 4639 and IRadAn=       5 diagonalized for initial guess.
 HarFok:  IExCor= 4639 AccDes= 0.00D+00 IRadAn=         5 IDoV= 1 UseB2=F ITyADJ=14
 ICtDFT=  3500011 ScaDFX=  1.000000  1.000000  1.000000  1.000000
 FoFCou: FMM=F IPFlag=           0 FMFlag=      100000 FMFlg1=           0
         NFxFlg=           0 DoJE=T BraDBF=F KetDBF=T FulRan=T
         wScrn=  0.000000 ICntrl=       500 IOpCl=  0 I1Cent=   200000004 NGrid=           0
         NMat0=    1 NMatS0=      1 NMatT0=    0 NMatD0=    1 NMtDS0=    0 NMtDT0=    0
 Symmetry not used in FoFCou.
 Harris En= -2970.62422712696    
 JPrj=0 DoOrth=F DoCkMO=F.
 Leave Link  401 at Wed May  1 15:11:02 2024, MaxMem=  1207959552 cpu:              29.0 elap:              29.0
 (Enter /software/gaussian/g16-c01/sse4/g16/l502.exe)
 Two-electron integral symmetry not used.
 Closed shell SCF:
 Using DIIS extrapolation, IDIIS=  1040.
 NGot=  1207959552 LenX=  1207804877 LenY=  1207729907
 Requested convergence on RMS density matrix=1.00D-08 within 128 cycles.
 Requested convergence on MAX density matrix=1.00D-06.
 Requested convergence on             energy=1.00D-06.
 No special actions if energy rises.
 Fock matrices will be formed incrementally for  20 cycles.

 Cycle   1  Pass 1  IDiag  1:
 FoFJK:  IHMeth= 1 ICntrl=       0 DoSepK=T KAlg= 0 I1Cent=           0 FoldK=F
 IRaf=         1 NMat=       1 IRICut=       1 DoRegI=T DoRafI=F ISym2E= 0 IDoP0=0 IntGTp=1.
 FoFCou: FMM=F IPFlag=           0 FMFlag=      100000 FMFlg1=           0
         NFxFlg=           0 DoJE=T BraDBF=F KetDBF=F FulRan=T
         wScrn=  0.000000 ICntrl=       500 IOpCl=  0 I1Cent=           0 NGrid=           0
         NMat0=    1 NMatS0=      1 NMatT0=    0 NMatD0=    1 NMtDS0=    0 NMtDT0=    0
 Symmetry not used in FoFCou.
 E= -3009.67783358814    
 DIIS: error= 3.21D-01 at cycle   1 NSaved=   1.
 NSaved= 1 IEnMin= 1 EnMin= -3009.67783358814     IErMin= 1 ErrMin= 3.21D-01
 ErrMax= 3.21D-01  0.00D+00 EMaxC= 1.00D-01 BMatC= 1.21D+01 BMatP= 1.21D+01
 IDIUse=3 WtCom= 0.00D+00 WtEn= 1.00D+00
 Coeff-Com:  0.100D+01
 Coeff-En:   0.100D+01
 Coeff:      0.100D+01
 Gap=     0.329 Goal=   None    Shift=    0.000
 GapD=    0.329 DampG=1.000 DampE=0.250 DampFc=0.2500 IDamp=-1.
 Damping current iteration by 2.50D-01
 RMSDP=1.37D-01 MaxDP=1.92D+01              OVMax= 2.54D-01

 Cycle   2  Pass 1  IDiag  1:
 RMSU=  6.90D-03    CP:  8.21D-01
 E= -3009.98486420315     Delta-E=       -0.307030615013 Rises=F Damp=T
 DIIS: error= 2.25D-01 at cycle   2 NSaved=   2.
 NSaved= 2 IEnMin= 2 EnMin= -3009.98486420315     IErMin= 2 ErrMin= 2.25D-01
 ErrMax= 2.25D-01  0.00D+00 EMaxC= 1.00D-01 BMatC= 5.46D+00 BMatP= 1.21D+01
 IDIUse=3 WtCom= 0.00D+00 WtEn= 1.00D+00
 Coeff-Com: -0.180D+01 0.280D+01
 Coeff-En:   0.000D+00 0.100D+01
 Coeff:      0.000D+00 0.100D+01
 Gap=     0.289 Goal=   None    Shift=    0.000
 RMSDP=1.03D-01 MaxDP=1.44D+01 DE=-3.07D-01 OVMax= 5.99D-02

 Cycle   3  Pass 1  IDiag  1:
 RMSU=  5.68D-03    CP:  2.82D-01  3.00D+00
 E= -3010.37913473263     Delta-E=       -0.394270529485 Rises=F Damp=F
 DIIS: error= 6.68D-02 at cycle   3 NSaved=   3.
 NSaved= 3 IEnMin= 3 EnMin= -3010.37913473263     IErMin= 3 ErrMin= 6.68D-02
 ErrMax= 6.68D-02  0.00D+00 EMaxC= 1.00D-01 BMatC= 7.78D-01 BMatP= 5.46D+00
 IDIUse=3 WtCom= 3.32D-01 WtEn= 6.68D-01
 Coeff-Com:  0.266D+01-0.350D+01 0.184D+01
 Coeff-En:   0.532D-01 0.000D+00 0.947D+00
 Coeff:      0.921D+00-0.116D+01 0.124D+01
 Gap=     0.282 Goal=   None    Shift=    0.000
 RMSDP=8.95D-03 MaxDP=6.97D-01 DE=-3.94D-01 OVMax= 1.03D-01

 Cycle   4  Pass 1  IDiag  1:
 RMSU=  7.20D-03    CP:  3.10D-01  3.00D+00  1.24D+00
 E= -3010.50111497094     Delta-E=       -0.121980238303 Rises=F Damp=F
 DIIS: error= 3.71D-02 at cycle   4 NSaved=   4.
 NSaved= 4 IEnMin= 4 EnMin= -3010.50111497094     IErMin= 4 ErrMin= 3.71D-02
 ErrMax= 3.71D-02  0.00D+00 EMaxC= 1.00D-01 BMatC= 2.22D-01 BMatP= 7.78D-01
 IDIUse=3 WtCom= 6.29D-01 WtEn= 3.71D-01
 Coeff-Com: -0.291D+00 0.401D+00 0.201D+00 0.689D+00
 Coeff-En:   0.000D+00 0.000D+00 0.181D+00 0.819D+00
 Coeff:     -0.183D+00 0.252D+00 0.193D+00 0.737D+00
 Gap=     0.252 Goal=   None    Shift=    0.000
 RMSDP=6.36D-03 MaxDP=8.58D-01 DE=-1.22D-01 OVMax= 4.40D-02

 Cycle   5  Pass 1  IDiag  1:
 RMSU=  1.88D-03    CP:  2.79D-01  3.00D+00  1.21D+00  7.32D-01
 E= -3010.54780581262     Delta-E=       -0.046690841684 Rises=F Damp=F
 DIIS: error= 6.99D-03 at cycle   5 NSaved=   5.
 NSaved= 5 IEnMin= 5 EnMin= -3010.54780581262     IErMin= 5 ErrMin= 6.99D-03
 ErrMax= 6.99D-03  0.00D+00 EMaxC= 1.00D-01 BMatC= 7.88D-03 BMatP= 2.22D-01
 IDIUse=3 WtCom= 9.30D-01 WtEn= 6.99D-02
 Coeff-Com: -0.175D+00 0.236D+00 0.164D-01 0.337D+00 0.585D+00
 Coeff-En:   0.000D+00 0.000D+00 0.000D+00 0.000D+00 0.100D+01
 Coeff:     -0.163D+00 0.220D+00 0.153D-01 0.314D+00 0.614D+00
 Gap=     0.238 Goal=   None    Shift=    0.000
 RMSDP=6.38D-04 MaxDP=4.19D-02 DE=-4.67D-02 OVMax= 1.33D-02

 Cycle   6  Pass 1  IDiag  1:
 RMSU=  4.43D-04    CP:  2.77D-01  3.00D+00  1.24D+00  7.67D-01  8.69D-01
 E= -3010.54962060467     Delta-E=       -0.001814792053 Rises=F Damp=F
 DIIS: error= 6.69D-04 at cycle   6 NSaved=   6.
 NSaved= 6 IEnMin= 6 EnMin= -3010.54962060467     IErMin= 6 ErrMin= 6.69D-04
 ErrMax= 6.69D-04  0.00D+00 EMaxC= 1.00D-01 BMatC= 8.62D-05 BMatP= 7.88D-03
 IDIUse=3 WtCom= 9.93D-01 WtEn= 6.69D-03
 Coeff-Com: -0.861D-01 0.115D+00-0.152D-01 0.120D+00 0.282D+00 0.585D+00
 Coeff-En:   0.000D+00 0.000D+00 0.000D+00 0.000D+00 0.000D+00 0.100D+01
 Coeff:     -0.855D-01 0.115D+00-0.151D-01 0.119D+00 0.280D+00 0.587D+00
 Gap=     0.239 Goal=   None    Shift=    0.000
 RMSDP=2.38D-04 MaxDP=3.00D-02 DE=-1.81D-03 OVMax= 4.72D-03

 Cycle   7  Pass 1  IDiag  1:
 RMSU=  1.32D-04    CP:  2.77D-01  3.00D+00  1.24D+00  7.66D-01  9.45D-01
                    CP:  1.00D+00
 E= -3010.54971215309     Delta-E=       -0.000091548416 Rises=F Damp=F
 DIIS: error= 4.41D-04 at cycle   7 NSaved=   7.
 NSaved= 7 IEnMin= 7 EnMin= -3010.54971215309     IErMin= 7 ErrMin= 4.41D-04
 ErrMax= 4.41D-04  0.00D+00 EMaxC= 1.00D-01 BMatC= 2.40D-05 BMatP= 8.62D-05
 IDIUse=3 WtCom= 9.96D-01 WtEn= 4.41D-03
 Coeff-Com: -0.296D-01 0.393D-01-0.142D-01 0.219D-01 0.686D-01 0.343D+00
 Coeff-Com:  0.571D+00
 Coeff-En:   0.000D+00 0.000D+00 0.000D+00 0.000D+00 0.000D+00 0.000D+00
 Coeff-En:   0.100D+01
 Coeff:     -0.295D-01 0.392D-01-0.141D-01 0.218D-01 0.683D-01 0.342D+00
 Coeff:      0.572D+00
 Gap=     0.240 Goal=   None    Shift=    0.000
 RMSDP=1.14D-04 MaxDP=1.18D-02 DE=-9.15D-05 OVMax= 3.11D-03

 Cycle   8  Pass 1  IDiag  1:
 RMSU=  6.00D-05    CP:  2.76D-01  3.00D+00  1.24D+00  7.69D-01  9.74D-01
                    CP:  1.14D+00  1.16D+00
 E= -3010.54974320317     Delta-E=       -0.000031050083 Rises=F Damp=F
 DIIS: error= 2.11D-04 at cycle   8 NSaved=   8.
 NSaved= 8 IEnMin= 8 EnMin= -3010.54974320317     IErMin= 8 ErrMin= 2.11D-04
 ErrMax= 2.11D-04  0.00D+00 EMaxC= 1.00D-01 BMatC= 5.42D-06 BMatP= 2.40D-05
 IDIUse=3 WtCom= 9.98D-01 WtEn= 2.11D-03
 Coeff-Com:  0.105D-01-0.144D-01-0.345D-02-0.253D-01-0.569D-01-0.198D-01
 Coeff-Com:  0.321D+00 0.788D+00
 Coeff-En:   0.000D+00 0.000D+00 0.000D+00 0.000D+00 0.000D+00 0.000D+00
 Coeff-En:   0.000D+00 0.100D+01
 Coeff:      0.105D-01-0.143D-01-0.344D-02-0.253D-01-0.568D-01-0.197D-01
 Coeff:      0.321D+00 0.789D+00
 Gap=     0.239 Goal=   None    Shift=    0.000
 RMSDP=1.06D-04 MaxDP=9.88D-03 DE=-3.11D-05 OVMax= 3.34D-03

 Cycle   9  Pass 1  IDiag  1:
 RMSU=  3.11D-05    CP:  2.76D-01  3.00D+00  1.25D+00  7.70D-01  9.89D-01
                    CP:  1.29D+00  1.61D+00  1.30D+00
 E= -3010.54975967894     Delta-E=       -0.000016475765 Rises=F Damp=F
 DIIS: error= 4.58D-05 at cycle   9 NSaved=   9.
 NSaved= 9 IEnMin= 9 EnMin= -3010.54975967894     IErMin= 9 ErrMin= 4.58D-05
 ErrMax= 4.58D-05  0.00D+00 EMaxC= 1.00D-01 BMatC= 7.39D-07 BMatP= 5.42D-06
 IDIUse=1 WtCom= 1.00D+00 WtEn= 0.00D+00
 Coeff-Com:  0.819D-02-0.110D-01 0.185D-02-0.113D-01-0.284D-01-0.802D-01
 Coeff-Com: -0.639D-01 0.214D+00 0.971D+00
 Coeff:      0.819D-02-0.110D-01 0.185D-02-0.113D-01-0.284D-01-0.802D-01
 Coeff:     -0.639D-01 0.214D+00 0.971D+00
 Gap=     0.239 Goal=   None    Shift=    0.000
 RMSDP=4.55D-05 MaxDP=3.47D-03 DE=-1.65D-05 OVMax= 2.73D-03

 Cycle  10  Pass 1  IDiag  1:
 RMSU=  1.92D-05    CP:  2.76D-01  3.00D+00  1.25D+00  7.69D-01  9.98D-01
                    CP:  1.36D+00  1.72D+00  1.51D+00  1.40D+00
 E= -3010.54976475332     Delta-E=       -0.000005074379 Rises=F Damp=F
 DIIS: error= 1.87D-05 at cycle  10 NSaved=  10.
 NSaved=10 IEnMin=10 EnMin= -3010.54976475332     IErMin=10 ErrMin= 1.87D-05
 ErrMax= 1.87D-05  0.00D+00 EMaxC= 1.00D-01 BMatC= 1.87D-07 BMatP= 7.39D-07
 IDIUse=1 WtCom= 1.00D+00 WtEn= 0.00D+00
 Coeff-Com: -0.113D-02 0.157D-02 0.671D-03 0.261D-02 0.648D-02-0.757D-02
 Coeff-Com: -0.743D-01-0.100D+00 0.236D+00 0.936D+00
 Coeff:     -0.113D-02 0.157D-02 0.671D-03 0.261D-02 0.648D-02-0.757D-02
 Coeff:     -0.743D-01-0.100D+00 0.236D+00 0.936D+00
 Gap=     0.239 Goal=   None    Shift=    0.000
 RMSDP=3.20D-05 MaxDP=3.77D-03 DE=-5.07D-06 OVMax= 1.35D-03

 Cycle  11  Pass 1  IDiag  1:
 RMSU=  7.72D-06    CP:  2.77D-01  3.00D+00  1.24D+00  7.68D-01  9.97D-01
                    CP:  1.37D+00  1.72D+00  1.55D+00  1.73D+00  1.49D+00
 E= -3010.54976591682     Delta-E=       -0.000001163499 Rises=F Damp=F
 DIIS: error= 1.05D-05 at cycle  11 NSaved=  11.
 NSaved=11 IEnMin=11 EnMin= -3010.54976591682     IErMin=11 ErrMin= 1.05D-05
 ErrMax= 1.05D-05  0.00D+00 EMaxC= 1.00D-01 BMatC= 3.91D-08 BMatP= 1.87D-07
 IDIUse=1 WtCom= 1.00D+00 WtEn= 0.00D+00
 Coeff-Com: -0.139D-02 0.186D-02-0.181D-03 0.276D-02 0.794D-02 0.236D-01
 Coeff-Com:  0.169D-01-0.762D-01-0.292D+00 0.101D+00 0.122D+01
 Coeff:     -0.139D-02 0.186D-02-0.181D-03 0.276D-02 0.794D-02 0.236D-01
 Coeff:      0.169D-01-0.762D-01-0.292D+00 0.101D+00 0.122D+01
 Gap=     0.239 Goal=   None    Shift=    0.000
 RMSDP=1.89D-05 MaxDP=2.08D-03 DE=-1.16D-06 OVMax= 1.08D-03

 Cycle  12  Pass 1  IDiag  1:
 RMSU=  3.51D-06    CP:  2.77D-01  3.00D+00  1.24D+00  7.68D-01  9.97D-01
                    CP:  1.38D+00  1.70D+00  1.54D+00  1.96D+00  1.95D+00
                    CP:  1.42D+00
 E= -3010.54976630068     Delta-E=       -0.000000383861 Rises=F Damp=F
 DIIS: error= 4.03D-06 at cycle  12 NSaved=  12.
 NSaved=12 IEnMin=12 EnMin= -3010.54976630068     IErMin=12 ErrMin= 4.03D-06
 ErrMax= 4.03D-06  0.00D+00 EMaxC= 1.00D-01 BMatC= 1.04D-08 BMatP= 3.91D-08
 IDIUse=1 WtCom= 1.00D+00 WtEn= 0.00D+00
 Coeff-Com: -0.468D-03 0.617D-03-0.142D-03 0.850D-03 0.193D-02 0.981D-02
 Coeff-Com:  0.155D-01-0.197D-01-0.150D+00-0.733D-01 0.543D+00 0.672D+00
 Coeff:     -0.468D-03 0.617D-03-0.142D-03 0.850D-03 0.193D-02 0.981D-02
 Coeff:      0.155D-01-0.197D-01-0.150D+00-0.733D-01 0.543D+00 0.672D+00
 Gap=     0.239 Goal=   None    Shift=    0.000
 RMSDP=3.27D-06 MaxDP=3.33D-04 DE=-3.84D-07 OVMax= 2.20D-04

 Cycle  13  Pass 1  IDiag  1:
 RMSU=  2.03D-06    CP:  2.77D-01  3.00D+00  1.24D+00  7.68D-01  9.98D-01
                    CP:  1.38D+00  1.70D+00  1.54D+00  1.97D+00  2.01D+00
                    CP:  1.59D+00  1.11D+00
 E= -3010.54976633000     Delta-E=       -0.000000029323 Rises=F Damp=F
 DIIS: error= 2.15D-06 at cycle  13 NSaved=  13.
 NSaved=13 IEnMin=13 EnMin= -3010.54976633000     IErMin=13 ErrMin= 2.15D-06
 ErrMax= 2.15D-06  0.00D+00 EMaxC= 1.00D-01 BMatC= 1.16D-09 BMatP= 1.04D-08
 IDIUse=1 WtCom= 1.00D+00 WtEn= 0.00D+00
 Coeff-Com:  0.745D-04-0.991D-04-0.185D-04-0.390D-03-0.173D-02-0.436D-02
 Coeff-Com: -0.186D-02 0.136D-01 0.475D-01-0.438D-01-0.194D+00 0.102D+00
 Coeff-Com:  0.108D+01
 Coeff:      0.745D-04-0.991D-04-0.185D-04-0.390D-03-0.173D-02-0.436D-02
 Coeff:     -0.186D-02 0.136D-01 0.475D-01-0.438D-01-0.194D+00 0.102D+00
 Coeff:      0.108D+01
 Gap=     0.239 Goal=   None    Shift=    0.000
 RMSDP=1.83D-06 MaxDP=8.31D-05 DE=-2.93D-08 OVMax= 1.20D-04

 Cycle  14  Pass 1  IDiag  1:
 RMSU=  5.15D-07    CP:  2.77D-01  3.00D+00  1.24D+00  7.69D-01  9.98D-01
                    CP:  1.38D+00  1.70D+00  1.54D+00  1.97D+00  2.03D+00
                    CP:  1.65D+00  1.40D+00  1.35D+00
 E= -3010.54976633669     Delta-E=       -0.000000006693 Rises=F Damp=F
 DIIS: error= 9.64D-07 at cycle  14 NSaved=  14.
 NSaved=14 IEnMin=14 EnMin= -3010.54976633669     IErMin=14 ErrMin= 9.64D-07
 ErrMax= 9.64D-07  0.00D+00 EMaxC= 1.00D-01 BMatC= 1.52D-10 BMatP= 1.16D-09
 IDIUse=1 WtCom= 1.00D+00 WtEn= 0.00D+00
 Coeff-Com:  0.750D-04-0.996D-04 0.759D-05-0.172D-03-0.439D-03-0.163D-02
 Coeff-Com: -0.177D-02 0.469D-02 0.257D-01-0.264D-02-0.999D-01-0.567D-01
 Coeff-Com:  0.273D+00 0.860D+00
 Coeff:      0.750D-04-0.996D-04 0.759D-05-0.172D-03-0.439D-03-0.163D-02
 Coeff:     -0.177D-02 0.469D-02 0.257D-01-0.264D-02-0.999D-01-0.567D-01
 Coeff:      0.273D+00 0.860D+00
 Gap=     0.239 Goal=   None    Shift=    0.000
 RMSDP=6.05D-07 MaxDP=5.02D-05 DE=-6.69D-09 OVMax= 2.03D-05

 Cycle  15  Pass 1  IDiag  1:
 RMSU=  2.39D-07    CP:  2.77D-01  3.00D+00  1.24D+00  7.69D-01  9.98D-01
                    CP:  1.38D+00  1.70D+00  1.54D+00  1.97D+00  2.02D+00
                    CP:  1.65D+00  1.48D+00  1.53D+00  1.25D+00
 E= -3010.54976633723     Delta-E=       -0.000000000540 Rises=F Damp=F
 DIIS: error= 3.65D-07 at cycle  15 NSaved=  15.
 NSaved=15 IEnMin=15 EnMin= -3010.54976633723     IErMin=15 ErrMin= 3.65D-07
 ErrMax= 3.65D-07  0.00D+00 EMaxC= 1.00D-01 BMatC= 3.44D-11 BMatP= 1.52D-10
 IDIUse=1 WtCom= 1.00D+00 WtEn= 0.00D+00
 Coeff-Com:  0.239D-04-0.319D-04 0.566D-05-0.895D-05 0.137D-03 0.173D-03
 Coeff-Com: -0.321D-03-0.575D-03 0.208D-02 0.619D-02-0.875D-02-0.398D-01
 Coeff-Com: -0.546D-01 0.354D+00 0.741D+00
 Coeff:      0.239D-04-0.319D-04 0.566D-05-0.895D-05 0.137D-03 0.173D-03
 Coeff:     -0.321D-03-0.575D-03 0.208D-02 0.619D-02-0.875D-02-0.398D-01
 Coeff:     -0.546D-01 0.354D+00 0.741D+00
 Gap=     0.239 Goal=   None    Shift=    0.000
 RMSDP=1.90D-07 MaxDP=1.24D-05 DE=-5.40D-10 OVMax= 7.27D-06

 Cycle  16  Pass 1  IDiag  1:
 RMSU=  7.64D-08    CP:  2.77D-01  3.00D+00  1.24D+00  7.69D-01  9.98D-01
                    CP:  1.38D+00  1.70D+00  1.54D+00  1.97D+00  2.02D+00
                    CP:  1.65D+00  1.49D+00  1.57D+00  1.43D+00  1.06D+00
 E= -3010.54976633731     Delta-E=       -0.000000000075 Rises=F Damp=F
 DIIS: error= 1.32D-07 at cycle  16 NSaved=  16.
 NSaved=16 IEnMin=16 EnMin= -3010.54976633731     IErMin=16 ErrMin= 1.32D-07
 ErrMax= 1.32D-07  0.00D+00 EMaxC= 1.00D-01 BMatC= 2.84D-12 BMatP= 3.44D-11
 IDIUse=1 WtCom= 1.00D+00 WtEn= 0.00D+00
 Coeff-Com: -0.161D-05 0.211D-05 0.104D-05 0.181D-04 0.904D-04 0.280D-03
 Coeff-Com:  0.146D-03-0.904D-03-0.303D-02 0.289D-02 0.112D-01-0.402D-02
 Coeff-Com: -0.566D-01-0.359D-01 0.160D+00 0.925D+00
 Coeff:     -0.161D-05 0.211D-05 0.104D-05 0.181D-04 0.904D-04 0.280D-03
 Coeff:      0.146D-03-0.904D-03-0.303D-02 0.289D-02 0.112D-01-0.402D-02
 Coeff:     -0.566D-01-0.359D-01 0.160D+00 0.925D+00
 Gap=     0.239 Goal=   None    Shift=    0.000
 RMSDP=9.30D-08 MaxDP=5.08D-06 DE=-7.46D-11 OVMax= 3.46D-06

 Cycle  17  Pass 1  IDiag  1:
 RMSU=  2.49D-08    CP:  2.77D-01  3.00D+00  1.24D+00  7.69D-01  9.98D-01
                    CP:  1.38D+00  1.70D+00  1.54D+00  1.97D+00  2.03D+00
                    CP:  1.65D+00  1.50D+00  1.59D+00  1.50D+00  1.25D+00
                    CP:  1.15D+00
 E= -3010.54976633734     Delta-E=       -0.000000000030 Rises=F Damp=F
 DIIS: error= 5.22D-08 at cycle  17 NSaved=  17.
 NSaved=17 IEnMin=17 EnMin= -3010.54976633734     IErMin=17 ErrMin= 5.22D-08
 ErrMax= 5.22D-08  0.00D+00 EMaxC= 1.00D-01 BMatC= 3.57D-13 BMatP= 2.84D-12
 IDIUse=1 WtCom= 1.00D+00 WtEn= 0.00D+00
 Coeff-Com: -0.236D-05 0.314D-05-0.298D-06 0.330D-05 0.316D-06 0.342D-04
 Coeff-Com:  0.708D-04-0.768D-04-0.693D-03-0.299D-04 0.251D-02 0.329D-02
 Coeff-Com: -0.388D-02-0.375D-01-0.605D-01 0.190D+00 0.907D+00
 Coeff:     -0.236D-05 0.314D-05-0.298D-06 0.330D-05 0.316D-06 0.342D-04
 Coeff:      0.708D-04-0.768D-04-0.693D-03-0.299D-04 0.251D-02 0.329D-02
 Coeff:     -0.388D-02-0.375D-01-0.605D-01 0.190D+00 0.907D+00
 Gap=     0.239 Goal=   None    Shift=    0.000
 RMSDP=3.28D-08 MaxDP=2.89D-06 DE=-3.00D-11 OVMax= 9.46D-07

 Cycle  18  Pass 1  IDiag  1:
 RMSU=  8.89D-09    CP:  2.77D-01  3.00D+00  1.24D+00  7.69D-01  9.98D-01
                    CP:  1.38D+00  1.70D+00  1.54D+00  1.97D+00  2.03D+00
                    CP:  1.65D+00  1.50D+00  1.60D+00  1.51D+00  1.30D+00
                    CP:  1.29D+00  1.34D+00
 E= -3010.54976633730     Delta-E=        0.000000000038 Rises=F Damp=F
 DIIS: error= 1.29D-08 at cycle  18 NSaved=  18.
 NSaved=18 IEnMin=17 EnMin= -3010.54976633734     IErMin=18 ErrMin= 1.29D-08
 ErrMax= 1.29D-08  0.00D+00 EMaxC= 1.00D-01 BMatC= 9.13D-14 BMatP= 3.57D-13
 IDIUse=1 WtCom= 1.00D+00 WtEn= 0.00D+00
 Coeff-Com:  0.730D-07-0.991D-07-0.115D-06-0.230D-05-0.156D-04-0.322D-04
 Coeff-Com:  0.843D-05 0.107D-03 0.182D-03-0.478D-03-0.723D-03 0.214D-02
 Coeff-Com:  0.727D-02-0.821D-02-0.536D-01-0.776D-01 0.355D+00 0.776D+00
 Coeff:      0.730D-07-0.991D-07-0.115D-06-0.230D-05-0.156D-04-0.322D-04
 Coeff:      0.843D-05 0.107D-03 0.182D-03-0.478D-03-0.723D-03 0.214D-02
 Coeff:      0.727D-02-0.821D-02-0.536D-01-0.776D-01 0.355D+00 0.776D+00
 Gap=     0.239 Goal=   None    Shift=    0.000
 RMSDP=9.90D-09 MaxDP=5.23D-07 DE= 3.82D-11 OVMax= 2.33D-07

 SCF Done:  E(RwB97XD) =  -3010.54976634     A.U. after   18 cycles
            NFock= 18  Conv=0.99D-08     -V/T= 2.0016
 KE= 3.005818410113D+03 PE=-8.629090623741D+03 EE= 1.875832779972D+03
 Leave Link  502 at Wed May  1 15:27:41 2024, MaxMem=  1207959552 cpu:             998.6 elap:             998.9
 (Enter /software/gaussian/g16-c01/sse4/g16/l601.exe)
 Copying SCF densities to generalized density rwf, IOpCl= 0 IROHF=0.

 **********************************************************************

            Population analysis using the SCF Density.

 **********************************************************************

 Alpha  occ. eigenvalues -- -483.28222 -62.83192 -56.62941 -56.62292 -56.62290
 Alpha  occ. eigenvalues --  -19.44942 -19.44886 -14.84437 -10.56699 -10.56240
 Alpha  occ. eigenvalues --  -10.56100 -10.55866 -10.55693 -10.51994  -8.98959
 Alpha  occ. eigenvalues --   -6.81784  -6.79675  -6.79665  -2.91652  -2.91094
 Alpha  occ. eigenvalues --   -2.91085  -2.89400  -2.89400  -1.48700  -1.31682
 Alpha  occ. eigenvalues --   -1.21413  -1.12581  -1.10540  -1.01792  -1.00005
 Alpha  occ. eigenvalues --   -0.94158  -0.89856  -0.84317  -0.79818  -0.79542
 Alpha  occ. eigenvalues --   -0.78988  -0.77358  -0.75118  -0.74867  -0.70667
 Alpha  occ. eigenvalues --   -0.68209  -0.66476  -0.61830  -0.58548  -0.56119
 Alpha  occ. eigenvalues --   -0.55222  -0.54677  -0.52684  -0.52050
 Alpha virt. eigenvalues --   -0.28132  -0.20412  -0.14549  -0.13346  -0.11069
 Alpha virt. eigenvalues --   -0.09581  -0.09096  -0.06296  -0.05273  -0.04657
 Alpha virt. eigenvalues --   -0.02642  -0.01394  -0.00494   0.00681   0.00984
 Alpha virt. eigenvalues --    0.02099   0.02660   0.03792   0.03946   0.04873
 Alpha virt. eigenvalues --    0.05558   0.06279   0.07007   0.07211   0.07558
 Alpha virt. eigenvalues --    0.08402   0.08808   0.09447   0.10860   0.11327
 Alpha virt. eigenvalues --    0.11734   0.12194   0.12729   0.13378   0.13724
 Alpha virt. eigenvalues --    0.14974   0.15860   0.16172   0.16741   0.16861
 Alpha virt. eigenvalues --    0.17603   0.18386   0.18653   0.19252   0.20255
 Alpha virt. eigenvalues --    0.20797   0.22342   0.22614   0.23338   0.26087
 Alpha virt. eigenvalues --    0.26328   0.28733   0.29613   0.31877   0.34339
 Alpha virt. eigenvalues --    0.34881   0.35132   0.35953   0.37972   0.38137
 Alpha virt. eigenvalues --    0.39132   0.39568   0.40955   0.41710   0.43506
 Alpha virt. eigenvalues --    0.44359   0.44959   0.45479   0.46939   0.48439
 Alpha virt. eigenvalues --    0.49079   0.51537   0.52466   0.53641   0.54294
 Alpha virt. eigenvalues --    0.55414   0.56622   0.57250   0.58425   0.60415
 Alpha virt. eigenvalues --    0.62382   0.63440   0.65577   0.68379   0.69912
 Alpha virt. eigenvalues --    0.71112   0.73197   0.73605   0.74428   0.75162
 Alpha virt. eigenvalues --    0.76068   0.80181   0.80963   0.85570   0.86289
 Alpha virt. eigenvalues --    0.87979   0.89077   0.92689   0.94464   0.99714
 Alpha virt. eigenvalues --    1.00636   1.02124   1.05763   1.06284   1.07620
 Alpha virt. eigenvalues --    1.10561   1.11662   1.13073   1.13503   1.15145
 Alpha virt. eigenvalues --    1.22913   1.25354   1.27594   1.33957   1.37439
 Alpha virt. eigenvalues --    1.37792   1.39136   1.46482   1.55348   1.58063
 Alpha virt. eigenvalues --    1.59460   1.59767   1.61558   1.63336   1.67396
 Alpha virt. eigenvalues --    1.70079   1.70885   1.74506   1.76182   1.80019
 Alpha virt. eigenvalues --    1.82047   1.86350   1.88464   1.96334   1.98530
 Alpha virt. eigenvalues --    2.00043   2.03890   2.04954   2.08471   2.09507
 Alpha virt. eigenvalues --    2.11221   2.15841   2.21268   2.23533   2.30123
 Alpha virt. eigenvalues --    2.38359   2.42052   2.43182   2.44363   2.53429
 Alpha virt. eigenvalues --    2.57488   2.63958   2.67041   2.69128   2.72632
 Alpha virt. eigenvalues --    2.74304   2.77424   2.78263   2.81977   2.82896
 Alpha virt. eigenvalues --    2.94705   2.97381   3.01554   3.06634   3.09966
 Alpha virt. eigenvalues --    3.13868   3.15896   3.19940   3.24611   3.25182
 Alpha virt. eigenvalues --    3.28258   3.40039   3.48536   3.52179   3.55442
 Alpha virt. eigenvalues --    3.57797   3.70848   3.75041   3.83177   3.88229
 Alpha virt. eigenvalues --    4.12316   4.12524   4.19722   4.24995   4.45250
 Alpha virt. eigenvalues --    4.45735   4.58536   4.60839   4.94102   4.96762
 Alpha virt. eigenvalues --    5.05414   5.09582   5.63742   6.16669   6.67868
 Alpha virt. eigenvalues --    7.51045   7.52593   7.62184  23.22386  23.62279
 Alpha virt. eigenvalues --   23.71019  23.80596  23.96993  24.02403  35.33522
 Alpha virt. eigenvalues --   47.94278  49.86474  49.95284 289.83555 289.85222
 Alpha virt. eigenvalues --  289.976191020.94622
          Condensed to atoms (all electrons):
               1          2          3          4          5          6
     1  C    8.897962  -1.843605  -0.389030  -1.208480  -0.709689   0.305978
     2  C   -1.843605  13.139761  -1.310360  -4.154758   0.672791  -0.019939
     3  C   -0.389030  -1.310360  13.826251  -4.020732  -0.865077   0.033242
     4  C   -1.208480  -4.154758  -4.020732  17.969087   0.786301   0.002455
     5  C   -0.709689   0.672791  -0.865077   0.786301   7.832039   0.011702
     6  H    0.305978  -0.019939   0.033242   0.002455   0.011702   0.339885
     7  H    0.063897   0.227084   0.080129  -0.030421  -0.024183  -0.001637
     8  H    0.006796  -0.008821   0.080330   0.210669  -0.023494   0.000003
     9  H    0.038182  -0.026329   0.003124  -0.005668   0.291786  -0.002334
    10  N   -0.111945   0.361172  -1.028090   0.312365  -0.007886  -0.000746
    11  O    0.023118  -0.014499  -0.230091  -0.114254  -0.058911  -0.000025
    12  O    0.298841  -0.153352  -0.250187   0.029156  -0.047231   0.000090
    13  C    1.165926  -1.326452   0.715893  -4.001832  -1.791279   0.000744
    14  H   -0.031511   0.007103  -0.002776   0.011368   0.026625  -0.000024
    15  Br   0.037008   0.012748   0.047157  -0.040892  -0.027137  -0.000012
               7          8          9         10         11         12
     1  C    0.063897   0.006796   0.038182  -0.111945   0.023118   0.298841
     2  C    0.227084  -0.008821  -0.026329   0.361172  -0.014499  -0.153352
     3  C    0.080129   0.080330   0.003124  -1.028090  -0.230091  -0.250187
     4  C   -0.030421   0.210669  -0.005668   0.312365  -0.114254   0.029156
     5  C   -0.024183  -0.023494   0.291786  -0.007886  -0.058911  -0.047231
     6  H   -0.001637   0.000003  -0.002334  -0.000746  -0.000025   0.000090
     7  H    0.301437   0.000025   0.000067  -0.026614  -0.001488   0.021699
     8  H    0.000025   0.303744   0.000184  -0.025021   0.023879  -0.000909
     9  H    0.000067   0.000184   0.340431   0.000566  -0.000022   0.000016
    10  N   -0.026614  -0.025021   0.000566   7.427861   0.181399   0.130992
    11  O   -0.001488   0.023879  -0.000022   0.181399   7.847222  -0.006336
    12  O    0.021699  -0.000909   0.000016   0.130992  -0.006336   7.897808
    13  C    0.021941   0.063370   0.017939  -0.102523   0.314352   0.044528
    14  H   -0.000061  -0.008334  -0.009570  -0.001283  -0.000052   0.000011
    15  Br   0.000384   0.006926   0.005821   0.003428   0.001778   0.003312
              13         14         15
     1  C    1.165926  -0.031511   0.037008
     2  C   -1.326452   0.007103   0.012748
     3  C    0.715893  -0.002776   0.047157
     4  C   -4.001832   0.011368  -0.040892
     5  C   -1.791279   0.026625  -0.027137
     6  H    0.000744  -0.000024  -0.000012
     7  H    0.021941  -0.000061   0.000384
     8  H    0.063370  -0.008334   0.006926
     9  H    0.017939  -0.009570   0.005821
    10  N   -0.102523  -0.001283   0.003428
    11  O    0.314352  -0.000052   0.001778
    12  O    0.044528   0.000011   0.003312
    13  C   10.887829   0.268912   0.175775
    14  H    0.268912   0.464456  -0.056705
    15  Br   0.175775  -0.056705  34.467264
 Mulliken charges:
               1
     1  C   -0.543449
     2  C    0.437453
     3  C   -0.689782
     4  C    0.255635
     5  C   -0.066354
     6  H    0.330617
     7  H    0.367739
     8  H    0.370655
     9  H    0.345807
    10  N   -0.113676
    11  O    0.033928
    12  O    0.031563
    13  C   -0.455123
    14  H    0.331841
    15  Br   0.363145
 Sum of Mulliken charges =   1.00000
 Mulliken charges with hydrogens summed into heavy atoms:
               1
     1  C   -0.212831
     2  C    0.805192
     3  C   -0.689782
     4  C    0.626290
     5  C    0.279453
    10  N   -0.113676
    11  O    0.033928
    12  O    0.031563
    13  C   -0.123282
    15  Br   0.363145
 Electronic spatial extent (au):  <R**2>=           2795.5801
 Charge=              1.0000 electrons
 Dipole moment (field-independent basis, Debye):
    X=             -1.3313    Y=             -1.3839    Z=             -3.5924  Tot=              4.0734
 Quadrupole moment (field-independent basis, Debye-Ang):
   XX=            -71.9843   YY=            -50.9560   ZZ=            -59.1573
   XY=              1.8899   XZ=             -0.5407   YZ=              4.6804
 Traceless Quadrupole moment (field-independent basis, Debye-Ang):
   XX=            -11.2851   YY=              9.7432   ZZ=              1.5419
   XY=              1.8899   XZ=             -0.5407   YZ=              4.6804
 Octapole moment (field-independent basis, Debye-Ang**2):
  XXX=           -303.3226  YYY=             82.1083  ZZZ=             61.4590  XYY=            -78.1970
  XXY=             29.1081  XXZ=             20.2877  XZZ=            -80.6485  YZZ=              8.2900
  YYZ=             14.4748  XYZ=             -5.4599
 Hexadecapole moment (field-independent basis, Debye-Ang**3):
 XXXX=          -2292.8887 YYYY=           -665.9445 ZZZZ=           -315.9015 XXXY=            -66.1031
 XXXZ=            -54.5465 YYYX=            -55.8979 YYYZ=           -137.0202 ZZZX=            -15.9888
 ZZZY=           -113.0023 XXYY=           -456.5371 XXZZ=           -366.8945 YYZZ=           -146.4012
 XXYZ=            -51.8150 YYXZ=             -1.8038 ZZXY=             -3.9012
 N-N= 7.368896673189D+02 E-N=-8.629090625084D+03  KE= 3.005818410113D+03
 No NMR shielding tensors so no spin-rotation constants.
 Leave Link  601 at Wed May  1 15:27:48 2024, MaxMem=  1207959552 cpu:               7.3 elap:               7.3
 (Enter /software/gaussian/g16-c01/sse4/g16/l9999.exe)
 Unable to Open any file for archive entry.
 1\1\GINC-BHX0010\SP\RwB97XD\6-311+G(d)\C6H5Br1N1O2(1+)\BWEIGHT\01-May-
 2024\0\\#P wB97XD/6-311+G* NoSymm #P Field=Z+204\\TitleMe\\1,1\C,0,0.0
 295,1.3397,0.0682\C,0,1.4348,1.2867,0.0064\C,0,2.1118,0.0511,-0.0054\C
 ,0,1.4451,-1.1372,0.0312\C,0,-0.6879,0.1682,0.11\H,0,-0.4713,2.2984,0.
 0781\H,0,2.0273,2.1965,-0.0322\H,0,1.9897,-2.0764,0.0232\H,0,-1.7716,0
 .1804,0.1582\N,0,3.5864,0.051,-0.0675\O,0,4.1471,-1.0597,-0.0881\O,0,4
 .145,1.1639,-0.0901\C,0,-0.0236,-1.1458,0.0835\H,0,-0.4367,-1.8725,0.7
 889\Br,0,-0.5359,-1.8697,-1.7408\\Version=ES64L-G16RevC.01\HF=-3010.54
 97663\RMSD=9.897e-09\Dipole=-2.4303043,0.6036209,-0.2671639\Quadrupole
 =-8.3901793,7.2438491,1.1463302,1.4050891,-0.4020054,3.4797321\PG=C01 
 [X(C6H5Br1N1O2)]\\@
 The archive entry for this job was punched.


 The juvenile sea squirt wanders through the sea searching
 for a suitable rock or hunk of coral to cling to and make
 its home for life.  For this task it has a rudimentary
 nervous system.  When it finds its spot and takes root, it
 doesn't need its brain any more so it eats it.
 It's rather like getting tenure.

                               -- source unknown
 Job cpu time:       0 days  0 hours 17 minutes 44.4 seconds.
 Elapsed time:       0 days  0 hours 17 minutes 44.7 seconds.
 File lengths (MBytes):  RWF=     40 Int=      0 D2E=      0 Chk=     32 Scr=      1
 Normal termination of Gaussian 16 at Wed May  1 15:27:49 2024.
