 Entering Gaussian System, Link 0=g16
 Initial command:
 /software/gaussian/g16-a03/l1.exe "/local_scratch/6484899/Gau-27861.inp" -scrdir="/local_scratch/6484899/"
 Entering Link 1 = /software/gaussian/g16-a03/l1.exe PID=     27862.
  
 Copyright (c) 1988,1990,1992,1993,1995,1998,2003,2009,2016,
            Gaussian, Inc.  All Rights Reserved.
  
 This is part of the Gaussian(R) 16 program.  It is based on
 the Gaussian(R) 09 system (copyright 2009, Gaussian, Inc.),
 the Gaussian(R) 03 system (copyright 2003, Gaussian, Inc.),
 the Gaussian(R) 98 system (copyright 1998, Gaussian, Inc.),
 the Gaussian(R) 94 system (copyright 1995, Gaussian, Inc.),
 the Gaussian 92(TM) system (copyright 1992, Gaussian, Inc.),
 the Gaussian 90(TM) system (copyright 1990, Gaussian, Inc.),
 the Gaussian 88(TM) system (copyright 1988, Gaussian, Inc.),
 the Gaussian 86(TM) system (copyright 1986, Carnegie Mellon
 University), and the Gaussian 82(TM) system (copyright 1983,
 Carnegie Mellon University). Gaussian is a federally registered
 trademark of Gaussian, Inc.
  
 This software contains proprietary and confidential information,
 including trade secrets, belonging to Gaussian, Inc.
  
 This software is provided under written license and may be
 used, copied, transmitted, or stored only in accord with that
 written license.
  
 The following legend is applicable only to US Government
 contracts under FAR:
  
                    RESTRICTED RIGHTS LEGEND
  
 Use, reproduction and disclosure by the US Government is
 subject to restrictions as set forth in subparagraphs (a)
 and (c) of the Commercial Computer Software - Restricted
 Rights clause in FAR 52.227-19.
  
 Gaussian, Inc.
 340 Quinnipiac St., Bldg. 40, Wallingford CT 06492
  
  
 ---------------------------------------------------------------
 Warning -- This program may not be used in any manner that
 competes with the business of Gaussian, Inc. or will provide
 assistance to any competitor of Gaussian, Inc.  The licensee
 of this program is prohibited from giving any competitor of
 Gaussian, Inc. access to this program.  By using this program,
 the user acknowledges that Gaussian, Inc. is engaged in the
 business of creating and licensing software in the field of
 computational chemistry and represents and warrants to the
 licensee that it is not a competitor of Gaussian, Inc. and that
 it will not use this program in any manner prohibited above.
 ---------------------------------------------------------------
  

 Cite this work as:
 Gaussian 16, Revision A.03,
 M. J. Frisch, G. W. Trucks, H. B. Schlegel, G. E. Scuseria, 
 M. A. Robb, J. R. Cheeseman, G. Scalmani, V. Barone, 
 G. A. Petersson, H. Nakatsuji, X. Li, M. Caricato, A. V. Marenich, 
 J. Bloino, B. G. Janesko, R. Gomperts, B. Mennucci, H. P. Hratchian, 
 J. V. Ortiz, A. F. Izmaylov, J. L. Sonnenberg, D. Williams-Young, 
 F. Ding, F. Lipparini, F. Egidi, J. Goings, B. Peng, A. Petrone, 
 T. Henderson, D. Ranasinghe, V. G. Zakrzewski, J. Gao, N. Rega, 
 G. Zheng, W. Liang, M. Hada, M. Ehara, K. Toyota, R. Fukuda, 
 J. Hasegawa, M. Ishida, T. Nakajima, Y. Honda, O. Kitao, H. Nakai, 
 T. Vreven, K. Throssell, J. A. Montgomery, Jr., J. E. Peralta, 
 F. Ogliaro, M. J. Bearpark, J. J. Heyd, E. N. Brothers, K. N. Kudin, 
 V. N. Staroverov, T. A. Keith, R. Kobayashi, J. Normand, 
 K. Raghavachari, A. P. Rendell, J. C. Burant, S. S. Iyengar, 
 J. Tomasi, M. Cossi, J. M. Millam, M. Klene, C. Adamo, R. Cammi, 
 J. W. Ochterski, R. L. Martin, K. Morokuma, O. Farkas, 
 J. B. Foresman, and D. J. Fox, Gaussian, Inc., Wallingford CT, 2016.
 
 ******************************************
 Gaussian 16:  ES64L-G16RevA.03 25-Dec-2016
                17-Sep-2021 
 ******************************************
 %chk=geometry.chk
 %mem=2GB
 %nprocshared=1
 Will use up to    1 processors via shared memory.
 --------------------------------------------------------------------
 #p B3LYP/6-311+G** #p TD=(singlets,nstates=30)IOp(6/8=3) IOp(9/40=4)
 --------------------------------------------------------------------
 1/38=1,172=1/1;
 2/12=2,17=6,18=5,40=1/2;
 3/5=4,6=6,7=111,11=9,25=1,30=1,74=-5/1,2,3,8;
 4//1;
 5/5=2,38=5/2;
 8/6=1,10=2,108=30/1;
 9/40=4,41=30,42=1,48=1,70=2/14;
 6/7=2,8=3,9=2,10=2/1;
 99/5=1,9=1/99;
 Leave Link    1 at Fri Sep 17 10:52:19 2021, MaxMem=   268435456 cpu:               0.0 elap:               0.5
 (Enter /software/gaussian/g16-a03/l101.exe)
 ---------------------------------------------
 Scan Step 168, Bond Length 1.3399999999999999
 ---------------------------------------------
 Symbolic Z-matrix:
 Charge =  0 Multiplicity = 1
 C                     0.        0.       -0.52736 
 H                     0.        0.93726  -1.11871 
 H                     0.       -0.93726  -1.11871 
 O                     0.        0.        0.81264 
 
 ITRead=  0  0  0  0
 MicOpt= -1 -1 -1 -1
 NAtoms=      4 NQM=        4 NQMF=       0 NMMI=      0 NMMIF=      0
                NMic=       0 NMicF=      0.
                    Isotopes and Nuclear Properties:
 (Nuclear quadrupole moments (NQMom) in fm**2, nuclear magnetic moments (NMagM)
  in nuclear magnetons)

  Atom         1           2           3           4
 IAtWgt=          12           1           1          16
 AtmWgt=  12.0000000   1.0078250   1.0078250  15.9949146
 NucSpn=           0           1           1           0
 AtZEff=  -0.0000000  -0.0000000  -0.0000000  -0.0000000
 NQMom=    0.0000000   0.0000000   0.0000000   0.0000000
 NMagM=    0.0000000   2.7928460   2.7928460   0.0000000
 AtZNuc=   6.0000000   1.0000000   1.0000000   8.0000000
 Leave Link  101 at Fri Sep 17 10:52:20 2021, MaxMem=   268435456 cpu:               0.1 elap:               0.1
 (Enter /software/gaussian/g16-a03/l202.exe)
                          Input orientation:                          
 ---------------------------------------------------------------------
 Center     Atomic      Atomic             Coordinates (Angstroms)
 Number     Number       Type             X           Y           Z
 ---------------------------------------------------------------------
      1          6           0        0.000000    0.000000   -0.527360
      2          1           0        0.000000    0.937260   -1.118710
      3          1           0        0.000000   -0.937260   -1.118710
      4          8           0        0.000000    0.000000    0.812640
 ---------------------------------------------------------------------
                    Distance matrix (angstroms):
                    1          2          3          4
     1  C    0.000000
     2  H    1.108220   0.000000
     3  H    1.108220   1.874520   0.000000
     4  O    1.340000   2.146758   2.146758   0.000000
 Stoichiometry    CH2O
 Framework group  C2V[C2(CO),SGV(H2)]
 Deg. of freedom     3
 Full point group                 C2V     NOp   4
 Largest Abelian subgroup         C2V     NOp   4
 Largest concise Abelian subgroup C2      NOp   2
                         Standard orientation:                         
 ---------------------------------------------------------------------
 Center     Atomic      Atomic             Coordinates (Angstroms)
 Number     Number       Type             X           Y           Z
 ---------------------------------------------------------------------
      1          6           0        0.000000   -0.000000   -0.596081
      2          1           0        0.000000    0.937260   -1.187431
      3          1           0       -0.000000   -0.937260   -1.187431
      4          8           0        0.000000    0.000000    0.743919
 ---------------------------------------------------------------------
 Rotational constants (GHZ):         285.4183527          32.0403105          28.8065619
 Leave Link  202 at Fri Sep 17 10:52:20 2021, MaxMem=   268435456 cpu:               0.0 elap:               0.0
 (Enter /software/gaussian/g16-a03/l301.exe)
 Standard basis: 6-311+G(d,p) (5D, 7F)
 Ernie: Thresh=  0.10000D-02 Tol=  0.10000D-05 Strict=F.
 There are    29 symmetry adapted cartesian basis functions of A1  symmetry.
 There are     3 symmetry adapted cartesian basis functions of A2  symmetry.
 There are    11 symmetry adapted cartesian basis functions of B1  symmetry.
 There are    15 symmetry adapted cartesian basis functions of B2  symmetry.
 There are    27 symmetry adapted basis functions of A1  symmetry.
 There are     3 symmetry adapted basis functions of A2  symmetry.
 There are    11 symmetry adapted basis functions of B1  symmetry.
 There are    15 symmetry adapted basis functions of B2  symmetry.
    56 basis functions,    88 primitive gaussians,    58 cartesian basis functions
     8 alpha electrons        8 beta electrons
       nuclear repulsion energy        28.9119366205 Hartrees.
 IExCor=  402 DFT=T Ex+Corr=B3LYP ExCW=0 ScaHFX=  0.200000
 ScaDFX=  0.800000  0.720000  1.000000  0.810000 ScalE2=  1.000000  1.000000
 IRadAn=      5 IRanWt=     -1 IRanGd=            0 ICorTp=0 IEmpDi=  4
 NAtoms=    4 NActive=    4 NUniq=    3 SFac= 1.78D+00 NAtFMM=   60 NAOKFM=F Big=F
 Integral buffers will be    131072 words long.
 Regular integral format.
 Two-electron integral symmetry is turned on.
 Leave Link  301 at Fri Sep 17 10:52:20 2021, MaxMem=   268435456 cpu:               0.1 elap:               0.1
 (Enter /software/gaussian/g16-a03/l302.exe)
 NPDir=0 NMtPBC=     1 NCelOv=     1 NCel=       1 NClECP=     1 NCelD=      1
         NCelK=      1 NCelE2=     1 NClLst=     1 CellRange=     0.0.
 One-electron integrals computed using PRISM.
 One-electron integral symmetry used in STVInt
 NBasis=    56 RedAO= T EigKep=  5.79D-03  NBF=    27     3    11    15
 NBsUse=    56 1.00D-06 EigRej= -1.00D+00 NBFU=    27     3    11    15
 Precomputing XC quadrature grid using
 IXCGrd= 4 IRadAn=           5 IRanWt=          -1 IRanGd=           0 AccXCQ= 0.00D+00.
 Generated NRdTot=       0 NPtTot=           0 NUsed=           0 NTot=          32
 NSgBfM=    58    58    58    58    58 MxSgAt=     4 MxSgA2=     4.
 Leave Link  302 at Fri Sep 17 10:52:20 2021, MaxMem=   268435456 cpu:               0.1 elap:               0.1
 (Enter /software/gaussian/g16-a03/l303.exe)
 DipDrv:  MaxL=1.
 Leave Link  303 at Fri Sep 17 10:52:20 2021, MaxMem=   268435456 cpu:               0.0 elap:               0.0
 (Enter /software/gaussian/g16-a03/l308.exe)
 Leave Link  308 at Fri Sep 17 10:52:20 2021, MaxMem=   268435456 cpu:               0.0 elap:               0.0
 (Enter /software/gaussian/g16-a03/l401.exe)
 ExpMin= 4.38D-02 ExpMax= 8.59D+03 ExpMxC= 1.30D+03 IAcc=3 IRadAn=         5 AccDes= 0.00D+00
 Harris functional with IExCor=  402 and IRadAn=       5 diagonalized for initial guess.
 HarFok:  IExCor=  402 AccDes= 0.00D+00 IRadAn=         5 IDoV= 1 UseB2=F ITyADJ=14
 ICtDFT=  3500011 ScaDFX=  1.000000  1.000000  1.000000  1.000000
 FoFCou: FMM=F IPFlag=           0 FMFlag=      100000 FMFlg1=           0
         NFxFlg=           0 DoJE=T BraDBF=F KetDBF=T FulRan=T
         wScrn=  0.000000 ICntrl=       500 IOpCl=  0 I1Cent=   200000004 NGrid=           0
         NMat0=    1 NMatS0=      1 NMatT0=    0 NMatD0=    1 NMtDS0=    0 NMtDT0=    0
 Petite list used in FoFCou.
 Harris En= -114.529376713911    
 JPrj=0 DoOrth=F DoCkMO=F.
 Initial guess orbital symmetries:
       Occupied  (A1) (A1) (A1) (A1) (B2) (A1) (B1) (B2)
       Virtual   (B1) (A1) (A1) (B2) (B1) (A1) (B2) (A1) (A1) (B1)
                 (B2) (A1) (A1) (B2) (B1) (A1) (B2) (A1) (A1) (A2)
                 (B1) (B2) (B1) (A1) (B2) (A1) (B2) (A1) (B1) (A2)
                 (A1) (B2) (A1) (B2) (B1) (A1) (A1) (A2) (A1) (B1)
                 (B2) (B2) (A1) (B1) (B2) (A1) (A1) (A1)
 The electronic state of the initial guess is 1-A1.
 Leave Link  401 at Fri Sep 17 10:52:21 2021, MaxMem=   268435456 cpu:               0.3 elap:               0.3
 (Enter /software/gaussian/g16-a03/l502.exe)
 Keep R1 ints in memory in symmetry-blocked form, NReq=2159909.
 FoFCou: FMM=F IPFlag=           0 FMFlag=           0 FMFlg1=           0
         NFxFlg=           0 DoJE=F BraDBF=F KetDBF=F FulRan=T
         wScrn=  0.000000 ICntrl=       600 IOpCl=  0 I1Cent=           0 NGrid=           0
         NMat0=    1 NMatS0=   1596 NMatT0=    0 NMatD0=    1 NMtDS0=    0 NMtDT0=    0
 Petite list used in FoFCou.
 Closed shell SCF:
 Using DIIS extrapolation, IDIIS=  1040.
 NGot=   268435456 LenX=   268074384 LenY=   268070579
 Requested convergence on RMS density matrix=1.00D-08 within 128 cycles.
 Requested convergence on MAX density matrix=1.00D-06.
 Requested convergence on             energy=1.00D-06.
 No special actions if energy rises.

 Cycle   1  Pass 1  IDiag  1:
 E= -114.463310062586    
 DIIS: error= 4.79D-02 at cycle   1 NSaved=   1.
 NSaved= 1 IEnMin= 1 EnMin= -114.463310062586     IErMin= 1 ErrMin= 4.79D-02
 ErrMax= 4.79D-02  0.00D+00 EMaxC= 1.00D-01 BMatC= 7.50D-02 BMatP= 7.50D-02
 IDIUse=3 WtCom= 5.21D-01 WtEn= 4.79D-01
 Coeff-Com:  0.100D+01
 Coeff-En:   0.100D+01
 Coeff:      0.100D+01
 Gap=     0.096 Goal=   None    Shift=    0.000
 GapD=    0.096 DampG=0.500 DampE=0.500 DampFc=0.2500 IDamp=-1.
 Damping current iteration by 2.50D-01
 RMSDP=1.13D-02 MaxDP=9.67D-02              OVMax= 3.94D-01

 Cycle   2  Pass 1  IDiag  1:
 E= -114.477870828986     Delta-E=       -0.014560766400 Rises=F Damp=T
 DIIS: error= 1.09D-02 at cycle   2 NSaved=   2.
 NSaved= 2 IEnMin= 2 EnMin= -114.477870828986     IErMin= 2 ErrMin= 1.09D-02
 ErrMax= 1.09D-02  0.00D+00 EMaxC= 1.00D-01 BMatC= 6.80D-03 BMatP= 7.50D-02
 IDIUse=3 WtCom= 8.91D-01 WtEn= 1.09D-01
 Coeff-Com: -0.917D-01 0.109D+01
 Coeff-En:   0.280D+00 0.720D+00
 Coeff:     -0.511D-01 0.105D+01
 Gap=     0.172 Goal=   None    Shift=    0.000
 RMSDP=1.42D-03 MaxDP=3.00D-02 DE=-1.46D-02 OVMax= 3.11D-01

 Cycle   3  Pass 1  IDiag  1:
 E= -114.516211143410     Delta-E=       -0.038340314425 Rises=F Damp=F
 DIIS: error= 9.29D-03 at cycle   3 NSaved=   3.
 NSaved= 3 IEnMin= 3 EnMin= -114.516211143410     IErMin= 3 ErrMin= 9.29D-03
 ErrMax= 9.29D-03  0.00D+00 EMaxC= 1.00D-01 BMatC= 3.02D-03 BMatP= 6.80D-03
 IDIUse=3 WtCom= 9.07D-01 WtEn= 9.29D-02
 Coeff-Com: -0.992D-01 0.461D+00 0.639D+00
 Coeff-En:   0.000D+00 0.000D+00 0.100D+01
 Coeff:     -0.899D-01 0.418D+00 0.672D+00
 Gap=     0.186 Goal=   None    Shift=    0.000
 RMSDP=7.92D-04 MaxDP=1.91D-02 DE=-3.83D-02 OVMax= 3.42D-02

 Cycle   4  Pass 1  IDiag  1:
 E= -114.518846792474     Delta-E=       -0.002635649064 Rises=F Damp=F
 DIIS: error= 3.82D-03 at cycle   4 NSaved=   4.
 NSaved= 4 IEnMin= 4 EnMin= -114.518846792474     IErMin= 4 ErrMin= 3.82D-03
 ErrMax= 3.82D-03  0.00D+00 EMaxC= 1.00D-01 BMatC= 5.06D-04 BMatP= 3.02D-03
 IDIUse=3 WtCom= 9.62D-01 WtEn= 3.82D-02
 Coeff-Com: -0.187D-02 0.423D-01 0.295D+00 0.665D+00
 Coeff-En:   0.000D+00 0.000D+00 0.118D+00 0.882D+00
 Coeff:     -0.179D-02 0.407D-01 0.288D+00 0.673D+00
 Gap=     0.190 Goal=   None    Shift=    0.000
 RMSDP=2.46D-04 MaxDP=5.73D-03 DE=-2.64D-03 OVMax= 7.28D-03

 Cycle   5  Pass 1  IDiag  1:
 E= -114.519305006046     Delta-E=       -0.000458213572 Rises=F Damp=F
 DIIS: error= 4.31D-04 at cycle   5 NSaved=   5.
 NSaved= 5 IEnMin= 5 EnMin= -114.519305006046     IErMin= 5 ErrMin= 4.31D-04
 ErrMax= 4.31D-04  0.00D+00 EMaxC= 1.00D-01 BMatC= 6.73D-06 BMatP= 5.06D-04
 IDIUse=3 WtCom= 9.96D-01 WtEn= 4.31D-03
 Coeff-Com:  0.924D-02-0.154D-01 0.506D-01 0.170D+00 0.785D+00
 Coeff-En:   0.000D+00 0.000D+00 0.000D+00 0.000D+00 0.100D+01
 Coeff:      0.920D-02-0.153D-01 0.504D-01 0.170D+00 0.786D+00
 Gap=     0.190 Goal=   None    Shift=    0.000
 RMSDP=2.94D-05 MaxDP=2.12D-04 DE=-4.58D-04 OVMax= 7.18D-04

 Cycle   6  Pass 1  IDiag  1:
 E= -114.519310496930     Delta-E=       -0.000005490884 Rises=F Damp=F
 DIIS: error= 9.75D-05 at cycle   6 NSaved=   6.
 NSaved= 6 IEnMin= 6 EnMin= -114.519310496930     IErMin= 6 ErrMin= 9.75D-05
 ErrMax= 9.75D-05  0.00D+00 EMaxC= 1.00D-01 BMatC= 2.44D-07 BMatP= 6.73D-06
 IDIUse=1 WtCom= 1.00D+00 WtEn= 0.00D+00
 Coeff-Com:  0.150D-02-0.228D-02-0.201D-03-0.699D-02-0.356D-01 0.104D+01
 Coeff:      0.150D-02-0.228D-02-0.201D-03-0.699D-02-0.356D-01 0.104D+01
 Gap=     0.190 Goal=   None    Shift=    0.000
 RMSDP=7.41D-06 MaxDP=6.50D-05 DE=-5.49D-06 OVMax= 1.50D-04

 Cycle   7  Pass 1  IDiag  1:
 E= -114.519310705860     Delta-E=       -0.000000208931 Rises=F Damp=F
 DIIS: error= 3.72D-06 at cycle   7 NSaved=   7.
 NSaved= 7 IEnMin= 7 EnMin= -114.519310705860     IErMin= 7 ErrMin= 3.72D-06
 ErrMax= 3.72D-06  0.00D+00 EMaxC= 1.00D-01 BMatC= 6.56D-10 BMatP= 2.44D-07
 IDIUse=1 WtCom= 1.00D+00 WtEn= 0.00D+00
 Coeff-Com:  0.326D-05 0.100D-04 0.280D-05-0.174D-02-0.107D-01 0.658D-01
 Coeff-Com:  0.947D+00
 Coeff:      0.326D-05 0.100D-04 0.280D-05-0.174D-02-0.107D-01 0.658D-01
 Coeff:      0.947D+00
 Gap=     0.190 Goal=   None    Shift=    0.000
 RMSDP=3.23D-07 MaxDP=6.28D-06 DE=-2.09D-07 OVMax= 9.88D-06

 Cycle   8  Pass 1  IDiag  1:
 E= -114.519310706356     Delta-E=       -0.000000000495 Rises=F Damp=F
 DIIS: error= 2.27D-06 at cycle   8 NSaved=   8.
 NSaved= 8 IEnMin= 8 EnMin= -114.519310706356     IErMin= 8 ErrMin= 2.27D-06
 ErrMax= 2.27D-06  0.00D+00 EMaxC= 1.00D-01 BMatC= 1.34D-10 BMatP= 6.56D-10
 IDIUse=1 WtCom= 1.00D+00 WtEn= 0.00D+00
 Coeff-Com:  0.224D-05 0.398D-05 0.287D-04-0.235D-04 0.275D-03-0.210D-01
 Coeff-Com:  0.485D-01 0.972D+00
 Coeff:      0.224D-05 0.398D-05 0.287D-04-0.235D-04 0.275D-03-0.210D-01
 Coeff:      0.485D-01 0.972D+00
 Gap=     0.190 Goal=   None    Shift=    0.000
 RMSDP=1.66D-07 MaxDP=1.25D-06 DE=-4.95D-10 OVMax= 3.59D-06

 Cycle   9  Pass 1  IDiag  1:
 E= -114.519310706471     Delta-E=       -0.000000000115 Rises=F Damp=F
 DIIS: error= 9.18D-08 at cycle   9 NSaved=   9.
 NSaved= 9 IEnMin= 9 EnMin= -114.519310706471     IErMin= 9 ErrMin= 9.18D-08
 ErrMax= 9.18D-08  0.00D+00 EMaxC= 1.00D-01 BMatC= 3.56D-13 BMatP= 1.34D-10
 IDIUse=1 WtCom= 1.00D+00 WtEn= 0.00D+00
 Coeff-Com:  0.203D-05-0.222D-05 0.156D-05 0.929D-05 0.153D-03-0.299D-02
 Coeff-Com: -0.434D-02 0.102D+00 0.905D+00
 Coeff:      0.203D-05-0.222D-05 0.156D-05 0.929D-05 0.153D-03-0.299D-02
 Coeff:     -0.434D-02 0.102D+00 0.905D+00
 Gap=     0.190 Goal=   None    Shift=    0.000
 RMSDP=5.57D-09 MaxDP=6.41D-08 DE=-1.15D-10 OVMax= 1.56D-07

 SCF Done:  E(RB3LYP) =  -114.519310706     A.U. after    9 cycles
            NFock=  9  Conv=0.56D-08     -V/T= 2.0070
 KE= 1.137237602192D+02 PE=-3.266056547908D+02 EE= 6.945064724454D+01
 Leave Link  502 at Fri Sep 17 10:52:23 2021, MaxMem=   268435456 cpu:               1.6 elap:               2.0
 (Enter /software/gaussian/g16-a03/l801.exe)
 DoSCS=F DFT=T ScalE2(SS,OS)=  1.000000  1.000000
 ExpMin= 4.38D-02 ExpMax= 8.59D+03 ExpMxC= 1.30D+03 IAcc=3 IRadAn=         5 AccDes= 0.00D+00
 HarFok:  IExCor=  205 AccDes= 0.00D+00 IRadAn=         5 IDoV=-2 UseB2=F ITyADJ=14
 ICtDFT= 12500011 ScaDFX=  1.000000  1.000000  1.000000  1.000000
 Largest valence mixing into a core orbital is  5.02D-05
 Largest core mixing into a valence orbital is  1.09D-05
 Range of M.O.s used for correlation:     3    56
 NBasis=    56 NAE=     8 NBE=     8 NFC=     2 NFV=     0
 NROrb=     54 NOA=     6 NOB=     6 NVA=    48 NVB=    48
 Leave Link  801 at Fri Sep 17 10:52:23 2021, MaxMem=   268435456 cpu:               0.2 elap:               0.2
 (Enter /software/gaussian/g16-a03/l914.exe)
 RHF ground state
 Keep R1, R2, and R3 ints in memory in symmetry-blocked form, NReq=6042848.
 FoFCou: FMM=F IPFlag=           0 FMFlag=           0 FMFlg1=           0
         NFxFlg=           0 DoJE=F BraDBF=F KetDBF=F FulRan=T
         wScrn=  0.000000 ICntrl=       600 IOpCl=  0 I1Cent=           0 NGrid=           0
         NMat0=    1 NMatS0=   1596 NMatT0=    0 NMatD0=    1 NMtDS0=    0 NMtDT0=    0
 Petite list used in FoFCou.
 MDV=   268435456 DFT=T DoStab=F Mixed=T DoRPA=T DoScal=F NonHer=T
 Making orbital integer symmetry assigments:
 Orbital symmetries:
       Occupied  (A1) (A1) (A1) (A1) (B2) (A1) (B1) (B2)
       Virtual   (B1) (A1) (A1) (B2) (B1) (A1) (B2) (A1) (B1) (A1)
                 (B2) (A1) (A1) (B2) (B1) (A1) (B2) (A1) (A2) (A1)
                 (B1) (B2) (B1) (A1) (B2) (A1) (B2) (A1) (B1) (A2)
                 (A1) (B2) (A1) (B2) (A1) (B1) (A2) (A1) (A1) (B1)
                 (B2) (B2) (A1) (B1) (B2) (A1) (A1) (A1)
   120 initial guesses have been made.
 Convergence on wavefunction:    0.001000000000000
 Davidson Disk Diagonalization:  ConvIn= 1.00D-03 SkipCon=T Conv= 1.00D-03.
 Max sub-space:  1728 roots to seek:   120 dimension of matrix:          576
 Iteration     1 Dimension   120 NMult     0 NNew    120
 CISAX will form   120 AO SS matrices at one time.
 NMat=   120 NSing=   120 JSym2X=-1.
 New state      2 was old state      3
 New state      3 was old state      4
 New state      4 was old state      6
 New state      5 was old state      2
 New state      6 was old state      5
 New state      8 was old state      9
 New state      9 was old state      8
 New state     10 was old state     11
 New state     11 was old state     10
 New state     15 was old state     16
 New state     16 was old state     15
 New state     19 was old state     21
 New state     20 was old state     19
 New state     21 was old state     20
 New state     22 was old state     23
 New state     23 was old state     22
 New state     26 was old state     27
 New state     27 was old state     26
 New state     28 was old state     29
 New state     29 was old state     28
 New state     30 was old state     31
 Excitation Energies [eV] at current iteration:
 Root      1 :     3.187170930117573
 Root      2 :     6.954176853705291
 Root      3 :     7.661270782760988
 Root      4 :     7.670571815938345
 Root      5 :     7.823449557751079
 Root      6 :     7.999087382899996
 Root      7 :     8.524931180724506
 Root      8 :     8.867831828147816
 Root      9 :     9.314059772103727
 Root     10 :    10.120343494172240
 Root     11 :    10.250836312752910
 Root     12 :    10.345104481758950
 Root     13 :    11.021764009011190
 Root     14 :    11.261232170342710
 Root     15 :    11.556513303389590
 Root     16 :    11.846110378328750
 Root     17 :    12.200301824546130
 Root     18 :    12.324760654980910
 Root     19 :    12.364178293278190
 Root     20 :    12.407266443765380
 Root     21 :    12.430828617730250
 Root     22 :    12.603302264484830
 Root     23 :    12.859320270166490
 Root     24 :    13.187296602042690
 Root     25 :    13.336354562698890
 Root     26 :    13.339296014026540
 Root     27 :    13.782557314354910
 Root     28 :    13.996155750081070
 Root     29 :    13.997061150878230
 Root     30 :    14.435887073503180
 Root     31 :    14.750558452154400
 Root     32 :    14.856117493076670
 Root     33 :    15.151521518892820
 Root     34 :    15.283991936963060
 Root     35 :    15.354617867698470
 Root     36 :    15.378012185212820
 Root     37 :    15.974658283533280
 Root     38 :    16.404394793614390
 Root     39 :    16.707241227729050
 Root     40 :    16.811805732700930
 Root     41 :    17.205175868583020
 Root     42 :    17.233056990355770
 Root     43 :    17.335715503852860
 Root     44 :    17.531370216823660
 Root     45 :    17.791396294262660
 Root     46 :    18.106034517349060
 Root     47 :    18.118064499738400
 Root     48 :    18.228709504274470
 Root     49 :    18.241374425762230
 Root     50 :    18.556766376790230
 Root     51 :    18.825086041919700
 Root     52 :    18.883969888409620
 Root     53 :    19.097559289363520
 Root     54 :    20.184174199837490
 Root     55 :    20.390770206498450
 Root     56 :    20.505542480293860
 Root     57 :    20.627764488775040
 Root     58 :    20.735224214698410
 Root     59 :    20.756359883265240
 Root     60 :    21.492939865632080
 Root     61 :    21.874473120711880
 Root     62 :    22.245137499022960
 Root     63 :    22.604283272088270
 Root     64 :    22.954928247879600
 Root     65 :    22.971676406122390
 Root     66 :    23.096944623502170
 Root     67 :    23.377884026056550
 Root     68 :    23.480866400774920
 Root     69 :    23.490360887418600
 Root     70 :    23.745018583251080
 Root     71 :    24.048138181324620
 Root     72 :    24.161939046464800
 Root     73 :    24.490643506831980
 Root     74 :    24.989741320269100
 Root     75 :    25.090798876157570
 Root     76 :    25.380572781196430
 Root     77 :    25.399744977302740
 Root     78 :    26.579920430693970
 Root     79 :    26.727380601040970
 Root     80 :    26.911164357758710
 Root     81 :    27.081867030110050
 Root     82 :    27.323544533786180
 Root     83 :    27.639129421674810
 Root     84 :    27.671255237349740
 Root     85 :    28.206866621871980
 Root     86 :    28.488148051025490
 Root     87 :    29.100311871069560
 Root     88 :    29.292211779024010
 Root     89 :    29.489715617129760
 Root     90 :    29.871464514706810
 Root     91 :    30.297308227622510
 Root     92 :    30.842037202934110
 Root     93 :    31.349317185244770
 Root     94 :    31.828634663646590
 Root     95 :    32.277669644666410
 Root     96 :    32.283507495066800
 Root     97 :    32.694666435491090
 Root     98 :    32.768309059581000
 Root     99 :    33.181212595800550
 Root    100 :    33.467899769853610
 Root    101 :    33.481122646156920
 Root    102 :    33.717099263072600
 Root    103 :    33.739071715859180
 Root    104 :    34.642155379192060
 Root    105 :    35.839509940211120
 Root    106 :    35.970752886044110
 Root    107 :    36.231847379949540
 Root    108 :    37.375469330957070
 Root    109 :    37.488860361569440
 Root    110 :    37.560450968260230
 Root    111 :    37.757425813050450
 Root    112 :    38.141407788948340
 Root    113 :    38.167258290991460
 Root    114 :    38.550459872779950
 Root    115 :    39.525341969569210
 Root    116 :    39.601503946799220
 Root    117 :    39.799513098987650
 Root    118 :    40.065809733583820
 Root    119 :    40.306289266104590
 Root    120 :    44.728640761969100
 Iteration     2 Dimension   180 NMult   120 NNew     60
 CISAX will form    60 AO SS matrices at one time.
 NMat=    60 NSing=    60 JSym2X=-1.
 Root      1 not converged, maximum delta is    0.005799892706620
 Root      2 not converged, maximum delta is    0.001876152134719
 New state      3 was old state      4
 Root      3 not converged, maximum delta is    0.012553868655745
 New state      4 was old state      3
 Root      4 not converged, maximum delta is    0.005095043424984
 Root      5 not converged, maximum delta is    0.015509180650829
 Root      6 not converged, maximum delta is    0.004455464145322
 Root      7 not converged, maximum delta is    0.002112042619580
 Root      8 not converged, maximum delta is    0.010607704118543
 Root      9 not converged, maximum delta is    0.001985932963398
 Root     10 not converged, maximum delta is    0.005606484861090
 Root     11 not converged, maximum delta is    0.003819351136504
 Root     12 not converged, maximum delta is    0.001807811540744
 Root     13 not converged, maximum delta is    0.005978248112513
 Root     14 not converged, maximum delta is    0.004212463615933
 Root     15 not converged, maximum delta is    0.001723067297644
 Root     16 not converged, maximum delta is    0.013407821839463
 Root     17 not converged, maximum delta is    0.010524038511007
 Root     18 not converged, maximum delta is    0.007818070588065
 Root     19 not converged, maximum delta is    0.001748175471581
 Root     20 not converged, maximum delta is    0.043891695313315
 Root     21 not converged, maximum delta is    0.004700140015352
 Root     22 not converged, maximum delta is    0.044296384953168
 Root     23 not converged, maximum delta is    0.002024619340510
 Root     24 not converged, maximum delta is    0.008488546534349
 Root     25 not converged, maximum delta is    0.005667349294275
 Root     26 not converged, maximum delta is    0.004417246648814
 Root     27 not converged, maximum delta is    0.008175450115156
 Root     28 not converged, maximum delta is    0.010809633386701
 Root     29 not converged, maximum delta is    0.001788873042328
 Root     30 not converged, maximum delta is    0.005553395525431
 Excitation Energies [eV] at current iteration:
 Root      1 :     3.176276064023252   Change is   -0.010894866094321
 Root      2 :     6.952605725197060   Change is   -0.001571128508231
 Root      3 :     7.615098509530393   Change is   -0.055473306407952
 Root      4 :     7.649741461291976   Change is   -0.011529321469013
 Root      5 :     7.768878104116766   Change is   -0.054571453634314
 Root      6 :     7.997675327940824   Change is   -0.001412054959172
 Root      7 :     8.524607185546113   Change is   -0.000323995178392
 Root      8 :     8.853816602633994   Change is   -0.014015225513822
 Root      9 :     9.312941446957486   Change is   -0.001118325146240
 Root     10 :    10.112700104250050   Change is   -0.007643389922186
 Root     11 :    10.241777974358490   Change is   -0.009058338394425
 Root     12 :    10.344538086520990   Change is   -0.000566395237959
 Root     13 :    11.013608551622780   Change is   -0.008155457388409
 Root     14 :    11.255588861556080   Change is   -0.005643308786629
 Root     15 :    11.553970455653810   Change is   -0.002542847735775
 Root     16 :    11.827755415610160   Change is   -0.018354962718586
 Root     17 :    12.187285699388620   Change is   -0.013016125157502
 Root     18 :    12.323364701406880   Change is   -0.001395953574027
 Root     19 :    12.363275328209550   Change is   -0.000902965068644
 Root     20 :    12.396948356284660   Change is   -0.010318087480721
 Root     21 :    12.426304199181210   Change is   -0.004524418549040
 Root     22 :    12.560820493859380   Change is   -0.042481770625447
 Root     23 :    12.858167011926180   Change is   -0.001153258240311
 Root     24 :    13.170751895121480   Change is   -0.016544706921208
 Root     25 :    13.327458778269130   Change is   -0.008895784429761
 Root     26 :    13.336733095164590   Change is   -0.002562918861949
 Root     27 :    13.771538237933160   Change is   -0.011019076421745
 Root     28 :    13.993586468983660   Change is   -0.002569281097418
 Root     29 :    13.996476046252060   Change is   -0.000585104626172
 Root     30 :    14.428288194499060   Change is   -0.007598879004115
 Iteration     3 Dimension   236 NMult   180 NNew     56
 CISAX will form    56 AO SS matrices at one time.
 NMat=    56 NSing=    56 JSym2X=-1.
 Root      1 has converged.
 Root      2 has converged.
 Root      3 has converged.
 Root      4 has converged.
 Root      5 has converged.
 Root      6 has converged.
 Root      7 has converged.
 Root      8 has converged.
 Root      9 has converged.
 Root     10 has converged.
 Root     11 has converged.
 Root     12 has converged.
 Root     13 has converged.
 Root     14 has converged.
 Root     15 has converged.
 Root     16 has converged.
 Root     17 has converged.
 Root     18 has converged.
 Root     19 has converged.
 Root     20 has converged.
 Root     21 has converged.
 Root     22 has converged.
 Root     23 has converged.
 Root     24 has converged.
 Root     25 has converged.
 Root     26 has converged.
 Root     27 has converged.
 Root     28 has converged.
 Root     29 has converged.
 Root     30 has converged.
 Excitation Energies [eV] at current iteration:
 Root      1 :     3.176275090792660   Change is   -0.000000973230592
 Root      2 :     6.952604558219976   Change is   -0.000001166977083
 Root      3 :     7.615044387251640   Change is   -0.000054122278753
 Root      4 :     7.649732693378974   Change is   -0.000008767913001
 Root      5 :     7.768807787753315   Change is   -0.000070316363451
 Root      6 :     7.997673625344810   Change is   -0.000001702596015
 Root      7 :     8.524607129179218   Change is   -0.000000056366895
 Root      8 :     8.853807900637561   Change is   -0.000008701996434
 Root      9 :     9.312940690299090   Change is   -0.000000756658397
 Root     10 :    10.112690588447250   Change is   -0.000009515802801
 Root     11 :    10.241768209471980   Change is   -0.000009764886512
 Root     12 :    10.344537832402140   Change is   -0.000000254118849
 Root     13 :    11.013589692701250   Change is   -0.000018858921531
 Root     14 :    11.255573971422250   Change is   -0.000014890133829
 Root     15 :    11.553960791296260   Change is   -0.000009664357550
 Root     16 :    11.827699813212440   Change is   -0.000055602397718
 Root     17 :    12.187244768237160   Change is   -0.000040931151465
 Root     18 :    12.323362747832540   Change is   -0.000001953574339
 Root     19 :    12.363274625193510   Change is   -0.000000703016038
 Root     20 :    12.396921247554650   Change is   -0.000027108730010
 Root     21 :    12.426297394186880   Change is   -0.000006804994331
 Root     22 :    12.560752551884550   Change is   -0.000067941974828
 Root     23 :    12.858165290577970   Change is   -0.000001721348213
 Root     24 :    13.170694269136980   Change is   -0.000057625984500
 Root     25 :    13.327447463261410   Change is   -0.000011315007724
 Root     26 :    13.336728443795270   Change is   -0.000004651369328
 Root     27 :    13.771512199212860   Change is   -0.000026038720301
 Root     28 :    13.993580644189520   Change is   -0.000005824794132
 Root     29 :    13.996475183513710   Change is   -0.000000862738351
 Root     30 :    14.428270552292090   Change is   -0.000017642206971
 Convergence achieved on expansion vectors.
 ***********************************************************************
 Excited states from <AA,BB:AA,BB> singles matrix:
 ***********************************************************************
 
 1PDM for each excited state written to RWF  633
 Ground to excited state transition densities written to RWF  633
 Ground to excited state transition electric dipole moments (Au):
       state          X           Y           Z        Dip. S.      Osc.
         1        -0.0000      0.0000      0.0000      0.0000      0.0000
         2         0.0000      0.3080      0.0000      0.0949      0.0162
         3         0.0861     -0.0000     -0.0000      0.0074      0.0014
         4         0.0000      0.3906     -0.0000      0.1526      0.0286
         5         0.0000      0.0000      0.8098      0.6558      0.1248
         6        -0.0000     -0.0000     -0.5436      0.2955      0.0579
         7        -0.0000      0.0000     -0.0000      0.0000      0.0000
         8         0.0000      0.0000     -0.0000      0.0000      0.0000
         9        -0.4036     -0.0000      0.0000      0.1629      0.0372
        10         0.5054     -0.0000     -0.0000      0.2554      0.0633
        11         0.0000      0.4757      0.0000      0.2263      0.0568
        12         0.0000     -0.0000      0.0000      0.0000      0.0000
        13        -0.0000     -0.0000     -0.1669      0.0279      0.0075
        14        -0.0000     -0.0000      0.0845      0.0071      0.0020
        15         0.0000     -0.0857      0.0000      0.0073      0.0021
        16         0.0000      0.0000     -0.2853      0.0814      0.0236
        17         0.0000      0.0000      1.1015      1.2132      0.3622
        18         0.0000     -0.3076      0.0000      0.0946      0.0286
        19        -0.0000      0.0000     -0.0000      0.0000      0.0000
        20        -0.0000     -0.6279      0.0000      0.3942      0.1197
        21         0.2786     -0.0000     -0.0000      0.0776      0.0236
        22        -0.0000     -0.1068      0.0000      0.0114      0.0035
        23        -0.1952      0.0000     -0.0000      0.0381      0.0120
        24        -0.0000      0.0000     -0.4711      0.2220      0.0716
        25         0.0000      0.3431      0.0000      0.1177      0.0384
        26         0.0000      0.0000     -0.0000      0.0000      0.0000
        27         0.0000     -0.0000      0.1710      0.0292      0.0099
        28         0.0537     -0.0000      0.0000      0.0029      0.0010
        29        -0.0000     -0.0000      0.0000      0.0000      0.0000
        30         0.0000      0.0000      0.3392      0.1151      0.0407
 Ground to excited state transition velocity dipole moments (Au):
       state          X           Y           Z        Dip. S.      Osc.
         1         0.0000     -0.0000     -0.0000      0.0000      0.0000
         2        -0.0000     -0.0811     -0.0000      0.0066      0.0172
         3        -0.0385      0.0000      0.0000      0.0015      0.0035
         4         0.0000     -0.1138      0.0000      0.0129      0.0307
         5        -0.0000     -0.0000     -0.2194      0.0481      0.1124
         6         0.0000      0.0000      0.1558      0.0243      0.0551
         7         0.0000     -0.0000      0.0000      0.0000      0.0000
         8         0.0000     -0.0000      0.0000      0.0000      0.0000
         9         0.1424      0.0000     -0.0000      0.0203      0.0395
        10        -0.1944      0.0000      0.0000      0.0378      0.0678
        11        -0.0000     -0.1783     -0.0000      0.0318      0.0563
        12        -0.0000     -0.0000     -0.0000      0.0000      0.0000
        13         0.0000      0.0000      0.0723      0.0052      0.0086
        14        -0.0000      0.0000     -0.0372      0.0014      0.0022
        15        -0.0000      0.0181     -0.0000      0.0003      0.0005
        16        -0.0000      0.0000      0.1138      0.0129      0.0198
        17        -0.0000     -0.0000     -0.4994      0.2494      0.3712
        18        -0.0000      0.1363     -0.0000      0.0186      0.0273
        19         0.0000     -0.0000      0.0000      0.0000      0.0000
        20         0.0000      0.2854     -0.0000      0.0814      0.1192
        21        -0.1050      0.0000      0.0000      0.0110      0.0161
        22         0.0000      0.0441     -0.0000      0.0019      0.0028
        23         0.0872     -0.0000      0.0000      0.0076      0.0107
        24         0.0000     -0.0000      0.2183      0.0477      0.0657
        25        -0.0000     -0.1683     -0.0000      0.0283      0.0386
        26        -0.0000     -0.0000      0.0000      0.0000      0.0000
        27        -0.0000     -0.0000     -0.0798      0.0064      0.0084
        28        -0.0192      0.0000     -0.0000      0.0004      0.0005
        29         0.0000      0.0000     -0.0000      0.0000      0.0000
        30        -0.0000      0.0000     -0.1779      0.0316      0.0398
 Ground to excited state transition magnetic dipole moments (Au):
       state          X           Y           Z
         1        -0.0000     -0.0000      1.1543
         2        -0.3891      0.0000      0.0000
         3        -0.0000     -1.6211     -0.0000
         4         0.6146     -0.0000     -0.0000
         5         0.0000     -0.0000     -0.0000
         6        -0.0000      0.0000     -0.0000
         7        -0.0000      0.0000     -0.0498
         8        -0.0000      0.0000     -0.7965
         9         0.0000      0.0188     -0.0000
        10         0.0000      0.1399     -0.0000
        11        -0.7364      0.0000     -0.0000
        12         0.0000     -0.0000      0.0345
        13        -0.0000      0.0000      0.0000
        14        -0.0000     -0.0000     -0.0000
        15         0.4719      0.0000     -0.0000
        16        -0.0000     -0.0000     -0.0000
        17        -0.0000      0.0000      0.0000
        18        -0.2279     -0.0000     -0.0000
        19        -0.0000      0.0000     -0.0251
        20         0.3778      0.0000     -0.0000
        21         0.0000     -0.0721     -0.0000
        22        -0.2023      0.0000      0.0000
        23        -0.0000      0.2583     -0.0000
        24         0.0000     -0.0000     -0.0000
        25        -0.6136     -0.0000      0.0000
        26        -0.0000     -0.0000     -0.0222
        27        -0.0000      0.0000      0.0000
        28         0.0000     -0.0376      0.0000
        29        -0.0000      0.0000      0.0292
        30        -0.0000     -0.0000      0.0000
 Ground to excited state transition velocity quadrupole moments (Au):
       state          XX          YY          ZZ          XY          XZ          YZ
         1         0.0000      0.0000      0.0000     -0.0684     -0.0000      0.0000
         2        -0.0000      0.0000      0.0000     -0.0000      0.0000      0.4344
         3        -0.0000     -0.0000      0.0000      0.0000     -0.2773      0.0000
         4        -0.0000      0.0000      0.0000      0.0000     -0.0000     -0.0794
         5         0.1810     -0.0365     -0.1731      0.0000     -0.0000     -0.0000
         6        -0.0403     -0.2037     -0.2386      0.0000      0.0000      0.0000
         7        -0.0000      0.0000      0.0000     -0.0259      0.0000      0.0000
         8        -0.0000     -0.0000     -0.0000      0.2028      0.0000     -0.0000
         9        -0.0000     -0.0000     -0.0000      0.0000     -0.1595     -0.0000
        10        -0.0000     -0.0000     -0.0000      0.0000     -0.2791     -0.0000
        11         0.0000     -0.0000      0.0000      0.0000     -0.0000      0.4130
        12        -0.0000     -0.0000      0.0000      0.2835      0.0000     -0.0000
        13         0.7534     -0.0195     -0.0522      0.0000      0.0000     -0.0000
        14         0.1124     -0.0986      0.2039      0.0000     -0.0000      0.0000
        15         0.0000      0.0000      0.0000      0.0000      0.0000      0.3190
        16        -0.2797     -0.6036     -0.5896     -0.0000     -0.0000      0.0000
        17        -0.0323      0.3303      0.3816      0.0000      0.0000      0.0000
        18        -0.0000     -0.0000      0.0000      0.0000      0.0000     -0.1987
        19         0.0000      0.0000     -0.0000      0.3545     -0.0000      0.0000
        20        -0.0000     -0.0000      0.0000      0.0000     -0.0000     -0.7516
        21         0.0000      0.0000     -0.0000      0.0000      0.0792     -0.0000
        22        -0.0000     -0.0000     -0.0000      0.0000     -0.0000     -0.0370
        23        -0.0000     -0.0000     -0.0000     -0.0000     -0.0402     -0.0000
        24         0.1324      0.4983      0.2331      0.0000     -0.0000     -0.0000
        25        -0.0000     -0.0000     -0.0000      0.0000      0.0000     -0.2554
        26         0.0000      0.0000      0.0000     -0.2528      0.0000     -0.0000
        27         0.3127      1.1335      0.2943     -0.0000      0.0000      0.0000
        28        -0.0000     -0.0000     -0.0000      0.0000      0.0966     -0.0000
        29        -0.0000     -0.0000      0.0000      0.3309     -0.0000     -0.0000
        30        -0.1978      0.4267     -0.1675      0.0000     -0.0000      0.0000
 <0|del|b> * <b|rxdel|0> + <0|del|b> * <b|delr+rdel|0>
 Rotatory Strengths (R) in cgs (10**-40 erg-esu-cm/Gauss)
       state          XX          YY          ZZ    R(velocity)    E-M Angle
         1        -0.0000     -0.0000      0.0000     -0.0000       90.00
         2        -0.0000     -0.0000      0.0000      0.0000       90.00
         3        -0.0000      0.0000     -0.0000     -0.0000       90.00
         4         0.0000      0.0000      0.0000      0.0000       90.00
         5        -0.0000      0.0000      0.0000      0.0000       90.00
         6         0.0000     -0.0000      0.0000     -0.0000       90.00
         7        -0.0000     -0.0000     -0.0000     -0.0000       90.00
         8        -0.0000     -0.0000     -0.0000     -0.0000       90.00
         9         0.0000      0.0000      0.0000      0.0000       90.00
        10         0.0000     -0.0000     -0.0000     -0.0000       90.00
        11        -0.0000      0.0000      0.0000      0.0000       90.00
        12        -0.0000      0.0000     -0.0000     -0.0000       90.00
        13         0.0000     -0.0000      0.0000      0.0000       90.00
        14         0.0000      0.0000      0.0000      0.0000       90.00
        15        -0.0000     -0.0000     -0.0000     -0.0000       90.00
        16        -0.0000      0.0000      0.0000     -0.0000       90.00
        17        -0.0000      0.0000      0.0000     -0.0000       90.00
        18        -0.0000      0.0000      0.0000      0.0000       90.00
        19         0.0000     -0.0000     -0.0000     -0.0000       90.00
        20         0.0000     -0.0000      0.0000      0.0000       90.00
        21        -0.0000      0.0000     -0.0000     -0.0000       90.00
        22         0.0000     -0.0000     -0.0000     -0.0000       90.00
        23        -0.0000     -0.0000     -0.0000     -0.0000       90.00
        24         0.0000     -0.0000      0.0000     -0.0000       90.00
        25         0.0000      0.0000      0.0000      0.0000       90.00
        26        -0.0000      0.0000      0.0000     -0.0000       90.00
        27         0.0000     -0.0000      0.0000     -0.0000       90.00
        28        -0.0000     -0.0000      0.0000     -0.0000       90.00
        29        -0.0000      0.0000     -0.0000     -0.0000       90.00
        30        -0.0000      0.0000      0.0000     -0.0000       90.00
 1/2[<0|r|b>*<b|rxdel|0> + (<0|rxdel|b>*<b|r|0>)*]
 Rotatory Strengths (R) in cgs (10**-40 erg-esu-cm/Gauss)
       state          XX          YY          ZZ     R(length)
         1        -0.0000      0.0000     -0.0000     -0.0000
         2         0.0000     -0.0000     -0.0000     -0.0000
         3         0.0000     -0.0000     -0.0000     -0.0000
         4        -0.0000      0.0000     -0.0000      0.0000
         5        -0.0000      0.0000      0.0000      0.0000
         6        -0.0000      0.0000     -0.0000     -0.0000
         7        -0.0000     -0.0000     -0.0000     -0.0000
         8         0.0000     -0.0000     -0.0000     -0.0000
         9         0.0000      0.0000      0.0000      0.0000
        10        -0.0000      0.0000     -0.0000     -0.0000
        11         0.0000     -0.0000      0.0000      0.0000
        12        -0.0000     -0.0000     -0.0000     -0.0000
        13        -0.0000      0.0000      0.0000      0.0000
        14        -0.0000     -0.0000      0.0000      0.0000
        15        -0.0000      0.0000      0.0000     -0.0000
        16         0.0000      0.0000     -0.0000     -0.0000
        17         0.0000     -0.0000     -0.0000     -0.0000
        18         0.0000     -0.0000      0.0000      0.0000
        19        -0.0000     -0.0000     -0.0000     -0.0000
        20         0.0000      0.0000      0.0000      0.0000
        21        -0.0000     -0.0000     -0.0000     -0.0000
        22        -0.0000      0.0000     -0.0000     -0.0000
        23        -0.0000     -0.0000     -0.0000     -0.0000
        24         0.0000      0.0000     -0.0000     -0.0000
        25         0.0000      0.0000     -0.0000      0.0000
        26         0.0000      0.0000     -0.0000     -0.0000
        27         0.0000      0.0000     -0.0000     -0.0000
        28        -0.0000     -0.0000     -0.0000     -0.0000
        29        -0.0000      0.0000     -0.0000     -0.0000
        30         0.0000      0.0000     -0.0000     -0.0000
  1/2[<0|del|b>*<b|r|0> + (<0|r|b>*<b|del|0>)*] (Au)
       state          X           Y           Z        Dip. S.   Osc.(frdel)
         1        -0.0000     -0.0000     -0.0000      0.0000      0.0000
         2        -0.0000     -0.0250     -0.0000      0.0250      0.0167
         3        -0.0033     -0.0000     -0.0000      0.0033      0.0022
         4         0.0000     -0.0444     -0.0000      0.0444      0.0296
         5        -0.0000     -0.0000     -0.1777      0.1777      0.1185
         6        -0.0000     -0.0000     -0.0847      0.0847      0.0565
         7        -0.0000     -0.0000     -0.0000      0.0000      0.0000
         8         0.0000     -0.0000     -0.0000     -0.0000     -0.0000
         9        -0.0575     -0.0000     -0.0000      0.0575      0.0383
        10        -0.0982     -0.0000     -0.0000      0.0982      0.0655
        11        -0.0000     -0.0848     -0.0000      0.0848      0.0565
        12        -0.0000      0.0000     -0.0000      0.0000      0.0000
        13        -0.0000     -0.0000     -0.0121      0.0121      0.0081
        14         0.0000     -0.0000     -0.0031      0.0031      0.0021
        15        -0.0000     -0.0016     -0.0000      0.0016      0.0010
        16        -0.0000      0.0000     -0.0325      0.0325      0.0216
        17        -0.0000     -0.0000     -0.5500      0.5500      0.3667
        18        -0.0000     -0.0419     -0.0000      0.0419      0.0279
        19        -0.0000     -0.0000     -0.0000      0.0000      0.0000
        20        -0.0000     -0.1792     -0.0000      0.1792      0.1194
        21        -0.0293     -0.0000     -0.0000      0.0293      0.0195
        22        -0.0000     -0.0047     -0.0000      0.0047      0.0031
        23        -0.0170     -0.0000     -0.0000      0.0170      0.0113
        24        -0.0000     -0.0000     -0.1029      0.1029      0.0686
        25        -0.0000     -0.0577     -0.0000      0.0577      0.0385
        26        -0.0000     -0.0000     -0.0000      0.0000      0.0000
        27        -0.0000      0.0000     -0.0137      0.0137      0.0091
        28        -0.0010     -0.0000     -0.0000      0.0010      0.0007
        29        -0.0000     -0.0000     -0.0000      0.0000      0.0000
        30        -0.0000      0.0000     -0.0603      0.0603      0.0402

 Excitation energies and oscillator strengths:
 
 Excited State   1:      Singlet-A2     3.1763 eV  390.34 nm  f=0.0000  <S**2>=0.000
       3 -> 27         0.00201
       3 -> 38         0.00166
       3 -> 45         0.00286
       4 -> 27         0.00139
       4 -> 38        -0.00039
       4 -> 45        -0.00140
       5 ->  9         0.01748
       5 -> 13        -0.00090
       5 -> 17         0.00477
       5 -> 23         0.00090
       5 -> 29         0.00413
       5 -> 31        -0.00124
       5 -> 37         0.00268
       5 -> 44         0.00052
       5 -> 48         0.00013
       5 -> 52         0.00063
       6 -> 27        -0.00041
       6 -> 38        -0.00088
       6 -> 45         0.00172
       7 -> 12        -0.00064
       7 -> 15         0.00360
       7 -> 19        -0.00327
       7 -> 25         0.00135
       7 -> 30        -0.00110
       7 -> 33         0.00045
       7 -> 35         0.00012
       7 -> 40         0.00013
       7 -> 42        -0.00012
       7 -> 49         0.00020
       7 -> 50         0.00030
       7 -> 53         0.00048
       8 ->  9         0.70661
       8 -> 13        -0.02848
       8 -> 17         0.02241
       8 -> 23        -0.00793
       8 -> 29         0.01037
       8 -> 31        -0.00111
       8 -> 37         0.00042
       8 -> 48        -0.00028
       8 -> 52         0.00184
       3 <- 27         0.00121
       3 <- 38         0.00133
       3 <- 45         0.00294
       4 <- 27         0.00214
       4 <- 38         0.00015
       4 <- 45        -0.00116
       5 <-  9        -0.00057
       5 <- 13        -0.00074
       5 <- 17        -0.00099
       5 <- 23         0.00046
       5 <- 29        -0.00070
       5 <- 31         0.00066
       5 <- 37         0.00135
       5 <- 44         0.00019
       5 <- 48         0.00012
       5 <- 52         0.00017
       6 <- 27         0.00021
       6 <- 38        -0.00077
       6 <- 45         0.00134
       7 <- 12        -0.00046
       7 <- 15        -0.00842
       7 <- 19         0.00143
       7 <- 22         0.00748
       7 <- 25         0.00019
       7 <- 30         0.00421
       7 <- 33        -0.00110
       7 <- 35         0.00196
       7 <- 40         0.00086
       7 <- 50         0.00020
       7 <- 53         0.00138
       8 <-  9        -0.03138
       8 <- 13         0.00196
       8 <- 17        -0.00504
       8 <- 23         0.00070
       8 <- 29        -0.00148
       8 <- 31        -0.00056
       8 <- 37        -0.00103
       8 <- 52         0.00052
 This state for optimization and/or second-order correction.
 Total Energy, E(TD-HF/TD-DFT) =  -114.402584745    
 Copying the excited state density for this state as the 1-particle RhoCI density.
 
 Excited State   2:      Singlet-B2     6.9526 eV  178.33 nm  f=0.0162  <S**2>=0.000
       3 -> 12         0.00173
       3 -> 15         0.00057
       3 -> 19         0.00138
       3 -> 22        -0.00034
       3 -> 25         0.00115
       3 -> 33         0.00027
       3 -> 35        -0.00058
       3 -> 40        -0.00028
       3 -> 49         0.00022
       3 -> 53        -0.00010
       4 -> 12        -0.00222
       4 -> 15         0.00212
       4 -> 19         0.00172
       4 -> 22        -0.00318
       4 -> 25         0.00298
       4 -> 30         0.00032
       4 -> 33        -0.00022
       4 -> 35         0.00035
       4 -> 40         0.00042
       4 -> 42        -0.00013
       5 -> 10        -0.00855
       5 -> 11        -0.00584
       5 -> 14         0.00733
       5 -> 16        -0.00056
       5 -> 18        -0.00393
       5 -> 20         0.00231
       5 -> 21         0.00561
       5 -> 24        -0.00087
       5 -> 26         0.00194
       5 -> 28         0.00096
       5 -> 32        -0.00107
       5 -> 34        -0.00098
       5 -> 36        -0.00020
       5 -> 39        -0.00018
       5 -> 41        -0.00054
       5 -> 43        -0.00043
       5 -> 46        -0.00013
       5 -> 54         0.00013
       6 -> 12        -0.00122
       6 -> 15         0.00130
       6 -> 19         0.00081
       6 -> 22        -0.00206
       6 -> 25         0.00086
       6 -> 30        -0.00048
       6 -> 33        -0.00031
       6 -> 35         0.00074
       6 -> 40         0.00010
       6 -> 42        -0.00014
       6 -> 49         0.00037
       6 -> 50        -0.00018
       7 -> 38        -0.00072
       8 -> 10         0.70296
       8 -> 11        -0.06903
       8 -> 14         0.02311
       8 -> 16        -0.00262
       8 -> 18        -0.00545
       8 -> 20         0.01746
       8 -> 21        -0.00207
       8 -> 24         0.00013
       8 -> 26         0.00320
       8 -> 28         0.00135
       8 -> 32         0.00089
       8 -> 34         0.00052
       8 -> 36         0.00023
       8 -> 39         0.00029
       8 -> 41        -0.00028
       8 -> 43         0.00059
       8 -> 46        -0.00016
       8 -> 47         0.00018
       8 -> 51        -0.00023
       8 -> 54         0.00024
       3 <- 12         0.00038
       3 <- 15         0.00048
       3 <- 19         0.00052
       3 <- 22        -0.00055
       3 <- 25         0.00061
       3 <- 33         0.00023
       3 <- 35        -0.00051
       3 <- 40        -0.00028
       3 <- 49         0.00027
       4 <- 12         0.00078
       4 <- 15         0.00199
       4 <- 19         0.00164
       4 <- 22        -0.00203
       4 <- 25         0.00199
       4 <- 30         0.00022
       4 <- 35         0.00012
       4 <- 40         0.00010
       4 <- 42        -0.00022
       4 <- 50        -0.00014
       5 <- 10         0.00219
       5 <- 11        -0.00023
       5 <- 14         0.00449
       5 <- 16        -0.00045
       5 <- 18        -0.00043
       5 <- 20         0.00060
       5 <- 21         0.00151
       5 <- 24        -0.00223
       5 <- 26         0.00135
       5 <- 28         0.00012
       5 <- 32        -0.00082
       5 <- 34        -0.00084
       5 <- 36        -0.00022
       5 <- 39        -0.00012
       5 <- 41        -0.00036
       5 <- 43        -0.00035
       5 <- 46        -0.00011
       6 <- 12        -0.00010
       6 <- 15        -0.00043
       6 <- 19         0.00088
       6 <- 22        -0.00026
       6 <- 25         0.00028
       6 <- 30         0.00047
       6 <- 33        -0.00036
       6 <- 35         0.00074
       6 <- 42        -0.00012
       6 <- 49         0.00028
       6 <- 50        -0.00020
       6 <- 53         0.00019
       7 <- 38        -0.00054
       8 <- 10        -0.00136
       8 <- 11        -0.00081
       8 <- 14        -0.00392
       8 <- 16        -0.00064
       8 <- 18         0.00081
       8 <- 20        -0.00070
       8 <- 21        -0.00135
       8 <- 24         0.00150
       8 <- 26        -0.00093
       8 <- 28        -0.00033
       8 <- 32         0.00077
       8 <- 34        -0.00011
       8 <- 36         0.00031
       8 <- 39         0.00013
       8 <- 43         0.00033
 
 Excited State   3:      Singlet-B1     7.6150 eV  162.81 nm  f=0.0014  <S**2>=0.000
       3 ->  9        -0.03346
       3 -> 13         0.00402
       3 -> 17        -0.00655
       3 -> 23         0.00340
       3 -> 29        -0.00214
       3 -> 31        -0.00042
       3 -> 44         0.00055
       3 -> 48         0.00037
       3 -> 52         0.00112
       4 ->  9         0.01644
       4 -> 13        -0.00273
       4 -> 17         0.00084
       4 -> 23        -0.00249
       4 -> 29         0.00014
       4 -> 31        -0.00222
       4 -> 37        -0.00044
       4 -> 48        -0.00154
       4 -> 52        -0.00091
       5 -> 27        -0.00145
       5 -> 38         0.00202
       5 -> 45         0.00233
       6 ->  9         0.70549
       6 -> 13        -0.02995
       6 -> 17         0.02128
       6 -> 23        -0.01221
       6 -> 29         0.00695
       6 -> 31         0.00394
       6 -> 37        -0.00260
       6 -> 44        -0.00350
       6 -> 48         0.00529
       6 -> 52         0.00188
       7 -> 10         0.00104
       7 -> 11         0.00329
       7 -> 14        -0.00088
       7 -> 16        -0.01184
       7 -> 18        -0.00179
       7 -> 20         0.00195
       7 -> 21         0.00276
       7 -> 24         0.00176
       7 -> 26         0.00101
       7 -> 28        -0.00473
       7 -> 32        -0.00125
       7 -> 34         0.00021
       7 -> 36        -0.00157
       7 -> 39         0.00020
       7 -> 41        -0.00175
       7 -> 43         0.00094
       7 -> 46         0.00468
       7 -> 47         0.00251
       7 -> 51         0.00112
       7 -> 54         0.00056
       8 -> 27         0.00226
       8 -> 38         0.00076
       8 -> 45         0.00667
       3 <-  9        -0.01057
       3 <- 13         0.00041
       3 <- 17        -0.00334
       3 <- 23         0.00023
       3 <- 29        -0.00134
       3 <- 31        -0.00033
       3 <- 37        -0.00012
       3 <- 44        -0.00016
       3 <- 48         0.00064
       3 <- 52         0.00090
       4 <-  9         0.00580
       4 <- 17         0.00246
       4 <- 23        -0.00029
       4 <- 29         0.00224
       4 <- 31        -0.00201
       4 <- 44         0.00020
       4 <- 48        -0.00133
       4 <- 52        -0.00050
       5 <- 27        -0.00159
       5 <- 38         0.00154
       5 <- 45         0.00207
       6 <-  9        -0.02176
       6 <- 13         0.00265
       6 <- 17        -0.00302
       6 <- 23         0.00032
       6 <- 29        -0.00240
       6 <- 31         0.00278
       6 <- 37        -0.00256
       6 <- 44        -0.00215
       6 <- 48         0.00464
       6 <- 52         0.00069
       7 <- 10         0.00217
       7 <- 11         0.00369
       7 <- 14         0.00135
       7 <- 16         0.00092
       7 <- 18        -0.01155
       7 <- 20         0.00781
       7 <- 21         0.00684
       7 <- 24         0.00619
       7 <- 26         0.00353
       7 <- 28         0.00056
       7 <- 32        -0.00114
       7 <- 34         0.00151
       7 <- 36        -0.00252
       7 <- 39         0.00043
       7 <- 41        -0.00121
       7 <- 43         0.00089
       7 <- 46         0.00422
       7 <- 47         0.00207
       7 <- 51         0.00079
       7 <- 54         0.00105
       8 <- 27         0.00218
       8 <- 38         0.00082
       8 <- 45         0.00592
 
 Excited State   4:      Singlet-B2     7.6497 eV  162.08 nm  f=0.0286  <S**2>=0.000
       3 -> 12        -0.00036
       3 -> 15        -0.00123
       3 -> 19         0.00142
       3 -> 22         0.00055
       3 -> 30         0.00287
       3 -> 33         0.00018
       3 -> 35        -0.00081
       3 -> 40        -0.00066
       3 -> 49         0.00078
       3 -> 50        -0.00017
       4 -> 12         0.00219
       4 -> 15         0.00068
       4 -> 19         0.00135
       4 -> 22        -0.00149
       4 -> 25         0.00256
       4 -> 30        -0.00155
       4 -> 33         0.00048
       4 -> 35        -0.00061
       4 -> 49         0.00020
       5 -> 10        -0.00360
       5 -> 14         0.01075
       5 -> 16        -0.00626
       5 -> 18         0.00053
       5 -> 20        -0.00438
       5 -> 21         0.00332
       5 -> 24        -0.00066
       5 -> 26         0.00188
       5 -> 28         0.00150
       5 -> 32         0.00015
       5 -> 34        -0.00067
       5 -> 36        -0.00053
       5 -> 39         0.00055
       5 -> 41        -0.00061
       5 -> 43         0.00024
       5 -> 46         0.00093
       5 -> 47         0.00016
       5 -> 51        -0.00046
       6 -> 12        -0.00256
       6 -> 15        -0.00106
       6 -> 19        -0.00074
       6 -> 22         0.00095
       6 -> 25         0.00017
       6 -> 30         0.00127
       6 -> 33        -0.00054
       6 -> 35         0.00150
       6 -> 40         0.00123
       6 -> 49        -0.00144
       6 -> 50         0.00022
       6 -> 53         0.00013
       7 -> 27         0.00042
       7 -> 38        -0.00075
       7 -> 45        -0.00230
       8 -> 10         0.06857
       8 -> 11         0.70230
       8 -> 14         0.00418
       8 -> 16         0.00865
       8 -> 18        -0.04211
       8 -> 20        -0.00673
       8 -> 21        -0.00198
       8 -> 24         0.00140
       8 -> 28         0.00308
       8 -> 32         0.00011
       8 -> 34        -0.00023
       8 -> 36        -0.00042
       8 -> 39        -0.00027
       8 -> 41        -0.00097
       8 -> 43         0.00041
       8 -> 46         0.00281
       8 -> 51        -0.00128
       3 <- 12         0.00033
       3 <- 15        -0.00040
       3 <- 19         0.00113
       3 <- 25         0.00012
       3 <- 30         0.00149
       3 <- 33         0.00028
       3 <- 35        -0.00079
       3 <- 40        -0.00061
       3 <- 49         0.00073
       3 <- 50        -0.00011
       3 <- 53        -0.00039
       4 <- 12         0.00024
       4 <- 15         0.00093
       4 <- 19         0.00023
       4 <- 22        -0.00121
       4 <- 25         0.00112
       4 <- 30        -0.00088
       4 <- 33         0.00046
       4 <- 35        -0.00037
       4 <- 49         0.00015
       5 <- 10         0.00107
       5 <- 11        -0.00151
       5 <- 14         0.00275
       5 <- 16        -0.00043
       5 <- 18         0.00181
       5 <- 20        -0.00025
       5 <- 21         0.00096
       5 <- 24        -0.00143
       5 <- 26         0.00020
       5 <- 28         0.00061
       5 <- 32        -0.00070
       5 <- 34         0.00018
       5 <- 39         0.00014
       5 <- 41        -0.00066
       5 <- 43         0.00013
       5 <- 46         0.00091
       5 <- 51        -0.00031
       6 <- 12        -0.00023
       6 <- 15        -0.00145
       6 <- 19         0.00057
       6 <- 22         0.00117
       6 <- 25        -0.00016
       6 <- 30         0.00152
       6 <- 33        -0.00052
       6 <- 35         0.00138
       6 <- 40         0.00103
       6 <- 49        -0.00119
       6 <- 50         0.00016
       6 <- 53         0.00015
       7 <- 27         0.00048
       7 <- 38        -0.00059
       7 <- 45        -0.00191
       8 <- 10        -0.00110
       8 <- 11        -0.00288
       8 <- 14        -0.00377
       8 <- 16         0.00032
       8 <- 18         0.00619
       8 <- 20         0.00135
       8 <- 21        -0.00187
       8 <- 24        -0.00059
       8 <- 26        -0.00166
       8 <- 28         0.00081
       8 <- 32        -0.00147
       8 <- 34         0.00182
       8 <- 39        -0.00087
       8 <- 41        -0.00096
       8 <- 43         0.00017
       8 <- 46         0.00229
       8 <- 47        -0.00024
       8 <- 51        -0.00083
 
 Excited State   5:      Singlet-A1     7.7688 eV  159.59 nm  f=0.1248  <S**2>=0.000
       3 -> 10         0.00540
       3 -> 11         0.01399
       3 -> 14         0.00718
       3 -> 16        -0.00141
       3 -> 18        -0.02406
       3 -> 20         0.00319
       3 -> 21         0.00680
       3 -> 24         0.00706
       3 -> 26         0.00931
       3 -> 28         0.00163
       3 -> 32         0.00318
       3 -> 34        -0.00394
       3 -> 36        -0.00211
       3 -> 39         0.00151
       3 -> 41         0.00021
       3 -> 43         0.00073
       3 -> 46         0.00183
       3 -> 47         0.00069
       3 -> 54         0.00027
       4 -> 10         0.02871
       4 -> 11        -0.01120
       4 -> 14         0.01702
       4 -> 16         0.00168
       4 -> 18         0.00824
       4 -> 20         0.01013
       4 -> 21         0.00033
       4 -> 24        -0.00883
       4 -> 26         0.00639
       4 -> 28         0.00082
       4 -> 32        -0.00135
       4 -> 34         0.00325
       4 -> 36         0.00079
       4 -> 39        -0.00020
       4 -> 46        -0.00081
       4 -> 47        -0.00152
       5 -> 12         0.03440
       5 -> 15         0.03498
       5 -> 19         0.00349
       5 -> 22         0.00047
       5 -> 25         0.01477
       5 -> 30        -0.00359
       5 -> 33        -0.00310
       5 -> 35         0.00143
       5 -> 40         0.00164
       5 -> 42         0.00076
       5 -> 49         0.00059
       5 -> 50        -0.00041
       5 -> 53        -0.00039
       6 -> 10        -0.03063
       6 -> 11        -0.05053
       6 -> 14        -0.01769
       6 -> 16        -0.03140
       6 -> 18         0.08755
       6 -> 20        -0.04427
       6 -> 21        -0.03178
       6 -> 24        -0.02813
       6 -> 26        -0.01470
       6 -> 28        -0.01188
       6 -> 32        -0.00021
       6 -> 34        -0.00342
       6 -> 36         0.00257
       6 -> 41        -0.00110
       6 -> 43         0.00034
       6 -> 46         0.00076
       6 -> 47         0.00178
       6 -> 51         0.00071
       6 -> 54        -0.00022
       7 ->  9         0.67742
       7 -> 13         0.03022
       7 -> 17        -0.02829
       7 -> 23         0.00855
       7 -> 29        -0.00564
       7 -> 31        -0.00126
       7 -> 44        -0.00072
       7 -> 48         0.00056
       7 -> 52         0.00097
       8 -> 12         0.06956
       8 -> 15         0.15043
       8 -> 19        -0.02375
       8 -> 22        -0.05063
       8 -> 25         0.00471
       8 -> 30        -0.01533
       8 -> 33         0.00637
       8 -> 35        -0.00781
       8 -> 40        -0.00293
       8 -> 42        -0.00038
       8 -> 49         0.00057
       8 -> 50         0.00044
       8 -> 53        -0.00108
       3 <- 10         0.00265
       3 <- 11         0.00805
       3 <- 14         0.00486
       3 <- 16        -0.00021
       3 <- 18        -0.01509
       3 <- 20         0.00228
       3 <- 21         0.00547
       3 <- 24         0.00483
       3 <- 26         0.00604
       3 <- 28         0.00121
       3 <- 32         0.00281
       3 <- 34        -0.00249
       3 <- 36        -0.00145
       3 <- 39         0.00113
       3 <- 41         0.00015
       3 <- 43         0.00070
       3 <- 46         0.00192
       3 <- 47         0.00095
       3 <- 54         0.00029
       4 <- 10         0.01069
       4 <- 11        -0.00475
       4 <- 14         0.00696
       4 <- 16         0.00039
       4 <- 18         0.00451
       4 <- 20         0.00572
       4 <- 24        -0.00501
       4 <- 26         0.00431
       4 <- 32        -0.00176
       4 <- 34         0.00244
       4 <- 36         0.00045
       4 <- 39        -0.00020
       4 <- 41        -0.00016
       4 <- 46        -0.00028
       4 <- 47        -0.00140
       4 <- 51         0.00013
       5 <- 12         0.00936
       5 <- 15         0.01248
       5 <- 19         0.00176
       5 <- 22         0.00021
       5 <- 25         0.00800
       5 <- 30        -0.00203
       5 <- 33        -0.00218
       5 <- 35         0.00120
       5 <- 40         0.00135
       5 <- 42         0.00057
       5 <- 49         0.00050
       5 <- 50        -0.00037
       5 <- 53        -0.00033
       6 <- 10        -0.00557
       6 <- 11        -0.00990
       6 <- 14        -0.00473
       6 <- 16        -0.01027
       6 <- 18         0.03100
       6 <- 20        -0.01830
       6 <- 21        -0.01474
       6 <- 24        -0.01460
       6 <- 26        -0.00839
       6 <- 28        -0.00720
       6 <- 32         0.00013
       6 <- 34        -0.00284
       6 <- 36         0.00173
       6 <- 39         0.00020
       6 <- 41        -0.00071
       6 <- 43         0.00028
       6 <- 46         0.00028
       6 <- 47         0.00146
       6 <- 51         0.00052
       6 <- 54        -0.00014
       7 <-  9        -0.09321
       7 <- 13         0.01326
       7 <- 17        -0.01446
       7 <- 23         0.00808
       7 <- 29        -0.00613
       7 <- 31         0.00014
       7 <- 37        -0.00027
       7 <- 44        -0.00021
       7 <- 52         0.00079
       8 <- 12         0.00074
       8 <- 15         0.02587
       8 <- 19        -0.00635
       8 <- 22        -0.01959
       8 <- 25         0.00117
       8 <- 30        -0.00926
       8 <- 33         0.00411
       8 <- 35        -0.00523
       8 <- 40        -0.00221
       8 <- 42        -0.00030
       8 <- 49         0.00036
       8 <- 50         0.00033
       8 <- 53        -0.00094
 
 Excited State   6:      Singlet-A1     7.9977 eV  155.03 nm  f=0.0579  <S**2>=0.000
       3 -> 10         0.00160
       3 -> 11        -0.00211
       3 -> 14         0.00056
       3 -> 16         0.00025
       3 -> 18         0.00045
       3 -> 20         0.00104
       3 -> 21        -0.00016
       3 -> 24        -0.00037
       3 -> 26        -0.00027
       3 -> 28         0.00043
       3 -> 32        -0.00030
       3 -> 34        -0.00037
       3 -> 36         0.00028
       3 -> 39        -0.00016
       3 -> 41        -0.00022
       3 -> 47        -0.00037
       3 -> 51        -0.00011
       3 -> 54        -0.00019
       4 -> 10        -0.00010
       4 -> 11         0.00493
       4 -> 14         0.00119
       4 -> 16         0.00059
       4 -> 18        -0.00078
       4 -> 20         0.00078
       4 -> 21        -0.00124
       4 -> 24        -0.00484
       4 -> 26         0.00142
       4 -> 28        -0.00029
       4 -> 32        -0.00036
       4 -> 34        -0.00012
       4 -> 43         0.00017
       4 -> 47         0.00015
       4 -> 51        -0.00011
       5 -> 12        -0.00127
       5 -> 15        -0.00207
       5 -> 19         0.00714
       5 -> 22        -0.00277
       5 -> 25         0.00297
       5 -> 30         0.00019
       5 -> 33         0.00024
       5 -> 35         0.00051
       5 -> 40        -0.00014
       5 -> 42        -0.00018
       5 -> 49        -0.00011
       5 -> 50         0.00016
       6 -> 10         0.01340
       6 -> 11         0.00501
       6 -> 14         0.00583
       6 -> 16         0.00333
       6 -> 18        -0.00976
       6 -> 20         0.00744
       6 -> 21         0.00248
       6 -> 24        -0.00058
       6 -> 26         0.00172
       6 -> 28        -0.00067
       6 -> 34         0.00033
       6 -> 36        -0.00045
       6 -> 39         0.00030
       6 -> 41         0.00019
       6 -> 43         0.00013
       6 -> 46        -0.00021
       6 -> 47         0.00043
       7 ->  9        -0.06580
       7 -> 13         0.00809
       7 -> 17         0.00319
       7 -> 23         0.00341
       7 -> 29        -0.00024
       7 -> 31        -0.00093
       7 -> 37         0.00059
       7 -> 44         0.00067
       7 -> 48        -0.00038
       7 -> 52        -0.00025
       8 -> 12         0.70275
       8 -> 15        -0.01614
       8 -> 19         0.03209
       8 -> 22         0.00906
       8 -> 25         0.00487
       8 -> 30         0.00077
       8 -> 33         0.00071
       8 -> 35        -0.00072
       8 -> 40         0.00066
       8 -> 49        -0.00057
       8 -> 50         0.00014
       3 <- 10         0.00032
       3 <- 11        -0.00053
       3 <- 16         0.00024
       3 <- 18         0.00054
       3 <- 20         0.00017
       3 <- 21        -0.00023
       3 <- 24        -0.00058
       3 <- 28         0.00026
       3 <- 32        -0.00013
       3 <- 34        -0.00029
       3 <- 36         0.00022
       3 <- 39        -0.00012
       3 <- 41        -0.00011
       3 <- 47        -0.00034
       3 <- 54        -0.00017
       4 <- 10         0.00193
       4 <- 11         0.00113
       4 <- 14         0.00183
       4 <- 16         0.00011
       4 <- 18        -0.00057
       4 <- 20         0.00047
       4 <- 21        -0.00078
       4 <- 24        -0.00257
       4 <- 26         0.00077
       4 <- 32        -0.00051
       4 <- 34        -0.00040
       4 <- 41        -0.00013
       4 <- 43         0.00014
       4 <- 47         0.00014
       4 <- 51        -0.00012
       5 <- 12         0.00112
       5 <- 15         0.00108
       5 <- 19         0.00257
       5 <- 22        -0.00111
       5 <- 25         0.00166
       5 <- 30         0.00017
       5 <- 35         0.00045
       5 <- 40        -0.00020
       5 <- 42        -0.00012
       5 <- 50         0.00010
       6 <- 10         0.00281
       6 <- 11         0.00131
       6 <- 14         0.00190
       6 <- 16         0.00099
       6 <- 18        -0.00355
       6 <- 20         0.00300
       6 <- 21         0.00093
       6 <- 26         0.00112
       6 <- 28        -0.00054
       6 <- 32        -0.00026
       6 <- 34         0.00024
       6 <- 36        -0.00032
       6 <- 39         0.00014
       6 <- 41         0.00019
       6 <- 46        -0.00026
       6 <- 47         0.00035
       6 <- 51         0.00013
       7 <-  9         0.01019
       7 <- 13         0.00030
       7 <- 17         0.00133
       7 <- 23         0.00114
       7 <- 31        -0.00075
       7 <- 37         0.00049
       7 <- 44         0.00051
       7 <- 48        -0.00027
       7 <- 52        -0.00021
       8 <- 12        -0.00017
       8 <- 15        -0.00630
       8 <- 19        -0.00061
       8 <- 22         0.00277
       8 <- 25        -0.00112
       8 <- 30        -0.00011
       8 <- 35         0.00023
       8 <- 40         0.00068
       8 <- 42         0.00011
       8 <- 49        -0.00051
       8 <- 53        -0.00011
 
 Excited State   7:      Singlet-A2     8.5246 eV  145.44 nm  f=0.0000  <S**2>=0.000
       3 -> 27        -0.00036
       3 -> 38        -0.00029
       4 -> 38         0.00039
       5 ->  9         0.02125
       5 -> 13        -0.00754
       5 -> 17         0.00661
       5 -> 23        -0.00276
       5 -> 29        -0.00024
       5 -> 31         0.00098
       5 -> 37        -0.00091
       5 -> 44        -0.00022
       6 -> 27         0.00017
       6 -> 38         0.00035
       7 -> 12         0.00163
       7 -> 15        -0.00166
       7 -> 19         0.00201
       7 -> 22        -0.00097
       7 -> 25         0.00015
       7 -> 30        -0.00016
       7 -> 35        -0.00012
       8 ->  9         0.02721
       8 -> 13         0.70555
       8 -> 17         0.02594
       8 -> 23         0.01466
       8 -> 29         0.00021
       8 -> 31         0.00192
       8 -> 37        -0.00039
       8 -> 44        -0.00011
       8 -> 48         0.00015
       3 <- 27        -0.00011
       3 <- 38        -0.00016
       3 <- 45        -0.00012
       4 <- 27        -0.00023
       5 <-  9        -0.00080
       5 <- 13        -0.00020
       5 <- 17         0.00036
       5 <- 37        -0.00026
       6 <- 38         0.00021
       7 <- 12        -0.00045
       7 <- 15        -0.00121
       7 <- 19         0.00084
       7 <- 22        -0.00080
       7 <- 25        -0.00048
       7 <- 30         0.00027
       7 <- 33         0.00029
       7 <- 35        -0.00049
       7 <- 40        -0.00032
       8 <-  9         0.00063
       8 <- 13         0.00098
       8 <- 17         0.00019
       8 <- 29        -0.00020
       8 <- 31         0.00011
       8 <- 37         0.00011
 
 Excited State   8:      Singlet-A2     8.8538 eV  140.03 nm  f=0.0000  <S**2>=0.000
       3 -> 27        -0.00110
       3 -> 38        -0.00049
       3 -> 45         0.00058
       4 -> 27        -0.00582
       4 -> 38         0.00052
       4 -> 45        -0.00064
       5 ->  9         0.70499
       5 -> 13        -0.03542
       5 -> 17         0.01080
       5 -> 23        -0.01474
       5 -> 29         0.00217
       5 -> 31        -0.00036
       5 -> 37        -0.00541
       5 -> 44        -0.00198
       5 -> 48        -0.00021
       5 -> 52         0.00032
       6 -> 27        -0.00143
       6 -> 38         0.00184
       6 -> 45         0.00061
       7 -> 12         0.01652
       7 -> 15         0.01464
       7 -> 19         0.00105
       7 -> 22        -0.00549
       7 -> 25         0.00078
       7 -> 30        -0.00110
       7 -> 33        -0.00015
       7 -> 35        -0.00068
       7 -> 40        -0.00022
       7 -> 42        -0.00022
       7 -> 49        -0.00031
       7 -> 50        -0.00071
       7 -> 53         0.00011
       8 ->  9        -0.01887
       8 -> 13        -0.02154
       8 -> 17         0.01232
       8 -> 23         0.00229
       8 -> 29         0.00296
       8 -> 31         0.00058
       8 -> 37         0.00342
       8 -> 44         0.00031
       8 -> 48         0.00015
       8 -> 52         0.00060
       3 <- 27        -0.00149
       3 <- 38        -0.00063
       3 <- 45         0.00076
       4 <- 27        -0.00468
       4 <- 38         0.00045
       4 <- 45        -0.00018
       5 <-  9        -0.01042
       5 <- 13         0.00206
       5 <- 17        -0.00078
       5 <- 29         0.00098
       5 <- 31        -0.00250
       5 <- 37        -0.00307
       5 <- 44        -0.00034
       5 <- 48        -0.00029
       5 <- 52         0.00012
       6 <- 27        -0.00154
       6 <- 38         0.00128
       6 <- 45         0.00037
       7 <- 12        -0.00179
       7 <- 15        -0.00167
       7 <- 22        -0.00218
       7 <- 25        -0.00257
       7 <- 30         0.00066
       7 <- 33         0.00047
       7 <- 35        -0.00079
       7 <- 40        -0.00059
       7 <- 42        -0.00047
       7 <- 49        -0.00050
       7 <- 50        -0.00079
       7 <- 53         0.00039
       8 <-  9         0.00021
       8 <- 13        -0.00047
       8 <- 17        -0.00162
       8 <- 23         0.00043
       8 <- 29        -0.00237
       8 <- 31         0.00219
       8 <- 37         0.00140
       8 <- 44        -0.00012
       8 <- 48         0.00013
       8 <- 52         0.00012
 
 Excited State   9:      Singlet-B1     9.3129 eV  133.13 nm  f=0.0372  <S**2>=0.000
       3 ->  9         0.00418
       3 -> 13         0.00118
       3 -> 17         0.00056
       3 -> 23        -0.00049
       3 -> 29        -0.00011
       3 -> 31        -0.00030
       3 -> 44        -0.00042
       3 -> 48         0.00029
       3 -> 52        -0.00014
       4 ->  9         0.01544
       4 -> 13        -0.00089
       4 -> 17        -0.00024
       4 -> 23        -0.00248
[...]
  48        5S         -0.00178   0.00000   0.00556   0.00876   0.00695
  49        5PX         0.00000   0.00000   0.00000   0.00000   0.00000
  50        5PY        -0.00000  -0.00000  -0.01653  -0.03063  -0.02868
  51        5PZ        -0.00019   0.00000   0.00240   0.00312   0.00039
  52        6D 0        0.00031   0.00000  -0.00066  -0.00111  -0.00117
  53        6D+1        0.00000  -0.00000   0.00000   0.00000   0.00000
  54        6D-1        0.00000  -0.00000  -0.00197  -0.00186   0.00227
  55        6D+2        0.00002   0.00000  -0.00006  -0.00006  -0.00001
  56        6D-2        0.00000   0.00000   0.00000   0.00000   0.00000
                          26        27        28        29        30
  26        4PX         0.00025
  27        4PY         0.00000   0.00110
  28        4PZ         0.00000  -0.00048   0.00049
  29 3   H  1S          0.00000  -0.00200  -0.00238   0.07945
  30        2S          0.00000  -0.00217  -0.00376   0.11443   0.16900
  31        3S          0.00000   0.00011  -0.00193   0.04257   0.07292
  32        4PX         0.00025   0.00000   0.00000   0.00000   0.00000
  33        4PY         0.00000  -0.00053  -0.00007   0.00795   0.01041
  34        4PZ         0.00000   0.00007  -0.00007   0.00440   0.00611
  35 4   O  1S          0.00000  -0.00011  -0.00081   0.00215   0.00143
  36        2S          0.00000  -0.00028  -0.00097   0.00357   0.00280
  37        2PX         0.00523   0.00000   0.00000   0.00000   0.00000
  38        2PY         0.00000  -0.00303   0.00144   0.01895   0.05048
  39        2PZ         0.00000  -0.00121  -0.00385   0.01301   0.02002
  40        3S          0.00000   0.00136   0.00166  -0.01201  -0.01122
  41        3PX         0.00770   0.00000   0.00000   0.00000   0.00000
  42        3PY         0.00000  -0.00444   0.00215   0.02661   0.07181
  43        3PZ         0.00000  -0.00173  -0.00557   0.01867   0.02871
  44        4S          0.00000   0.00088  -0.00107  -0.00508  -0.00116
  45        4PX         0.00652   0.00000   0.00000   0.00000   0.00000
  46        4PY         0.00000  -0.00343   0.00134   0.03140   0.07565
  47        4PZ         0.00000  -0.00147  -0.00319   0.01379   0.02061
  48        5S          0.00000  -0.00041  -0.00205   0.00556   0.00876
  49        5PX         0.00068   0.00000   0.00000   0.00000   0.00000
  50        5PY         0.00000   0.00002  -0.00050   0.01653   0.03063
  51        5PZ         0.00000  -0.00040   0.00010   0.00240   0.00312
  52        6D 0        0.00000   0.00002   0.00039  -0.00066  -0.00111
  53        6D+1       -0.00047   0.00000   0.00000   0.00000   0.00000
  54        6D-1        0.00000   0.00036  -0.00030   0.00197   0.00186
  55        6D+2        0.00000   0.00001   0.00001  -0.00006  -0.00006
  56        6D-2       -0.00000   0.00000   0.00000   0.00000   0.00000
                          31        32        33        34        35
  31        3S          0.05653
  32        4PX         0.00000   0.00025
  33        4PY         0.00140   0.00000   0.00110
  34        4PZ         0.00130   0.00000   0.00048   0.00049
  35 4   O  1S          0.00056   0.00000   0.00011  -0.00081   0.64038
  36        2S          0.00065   0.00000   0.00028  -0.00097   0.57015
  37        2PX         0.00000   0.00523   0.00000   0.00000   0.00000
  38        2PY         0.08153   0.00000  -0.00303  -0.00144  -0.00000
  39        2PZ         0.01388   0.00000   0.00121  -0.00385  -0.01159
  40        3S         -0.00116   0.00000  -0.00136   0.00166  -0.13952
  41        3PX         0.00000   0.00770   0.00000   0.00000   0.00000
  42        3PY         0.11745   0.00000  -0.00444  -0.00215  -0.00000
  43        3PZ         0.01997   0.00000   0.00173  -0.00557  -0.01366
  44        4S          0.00679   0.00000  -0.00088  -0.00107  -0.13596
  45        4PX         0.00000   0.00652   0.00000   0.00000   0.00000
  46        4PY         0.10982   0.00000  -0.00343  -0.00134  -0.00000
  47        4PZ         0.01238   0.00000   0.00147  -0.00319  -0.01190
  48        5S          0.00695   0.00000   0.00041  -0.00205   0.00218
  49        5PX         0.00000   0.00068   0.00000   0.00000   0.00000
  50        5PY         0.02868   0.00000   0.00002   0.00050  -0.00000
  51        5PZ         0.00039   0.00000   0.00040   0.00010  -0.00233
  52        6D 0       -0.00117   0.00000  -0.00002   0.00039  -0.00058
  53        6D+1        0.00000  -0.00047   0.00000   0.00000   0.00000
  54        6D-1       -0.00227   0.00000   0.00036   0.00030   0.00000
  55        6D+2       -0.00001   0.00000  -0.00001   0.00001  -0.00077
  56        6D-2        0.00000   0.00000   0.00000   0.00000   0.00000
                          36        37        38        39        40
  36        2S          0.52511
  37        2PX         0.00000   0.11171
  38        2PY        -0.00000   0.00000   0.18576
  39        2PZ        -0.01807  -0.00000  -0.00000   0.12407
  40        3S         -0.23471   0.00000   0.00000   0.05179   0.72894
  41        3PX         0.00000   0.16430   0.00000   0.00000   0.00000
  42        3PY        -0.00000   0.00000   0.26878   0.00000   0.00000
  43        3PZ        -0.02245  -0.00000  -0.00000   0.17806   0.06846
  44        4S         -0.21193   0.00000   0.00000   0.11288   0.60443
  45        4PX         0.00000   0.13920   0.00000   0.00000   0.00000
  46        4PY        -0.00000   0.00000   0.24024   0.00000   0.00000
  47        4PZ        -0.02012  -0.00000  -0.00000   0.10955   0.06297
  48        5S         -0.00083   0.00000   0.00000   0.06211   0.01723
  49        5PX         0.00000   0.01451   0.00000   0.00000   0.00000
  50        5PY        -0.00000   0.00000   0.04858   0.00000   0.00000
  51        5PZ        -0.00345  -0.00000  -0.00000   0.00209   0.00912
  52        6D 0       -0.00099   0.00000   0.00000  -0.01039   0.00309
  53        6D+1       -0.00000  -0.00994   0.00000  -0.00000   0.00000
  54        6D-1       -0.00000   0.00000  -0.00941  -0.00000   0.00000
  55        6D+2       -0.00123   0.00000   0.00000   0.00024   0.00365
  56        6D-2        0.00000  -0.00000  -0.00000   0.00000   0.00000
                          41        42        43        44        45
  41        3PX         0.24165
  42        3PY         0.00000   0.38893
  43        3PZ        -0.00000  -0.00000   0.25560
  44        4S          0.00000   0.00000   0.15734   0.54279
  45        4PX         0.20474   0.00000   0.00000   0.00000   0.17346
  46        4PY         0.00000   0.34750   0.00000   0.00000   0.00000
  47        4PZ        -0.00000  -0.00000   0.15706   0.11290  -0.00000
  48        5S          0.00000   0.00000   0.08924   0.04956   0.00000
  49        5PX         0.02135   0.00000   0.00000   0.00000   0.01809
  50        5PY         0.00000   0.07008   0.00000   0.00000   0.00000
  51        5PZ        -0.00000  -0.00000   0.00292   0.00817  -0.00000
  52        6D 0        0.00000   0.00000  -0.01497  -0.00366   0.00000
  53        6D+1       -0.01462   0.00000  -0.00000   0.00000  -0.01239
  54        6D-1        0.00000  -0.01366  -0.00000  -0.00000   0.00000
  55        6D+2        0.00000   0.00000   0.00031   0.00302   0.00000
  56        6D-2       -0.00000  -0.00000   0.00000   0.00000  -0.00000
                          46        47        48        49        50
  46        4PY         0.31173
  47        4PZ        -0.00000   0.09740
  48        5S          0.00000   0.05455   0.03138
  49        5PX         0.00000   0.00000   0.00000   0.00189
  50        5PY         0.06454   0.00000   0.00000   0.00000   0.01558
  51        5PZ        -0.00000   0.00226   0.00082  -0.00000  -0.00000
  52        6D 0        0.00000  -0.00894  -0.00532   0.00000   0.00000
  53        6D+1        0.00000  -0.00000  -0.00000  -0.00129   0.00000
  54        6D-1       -0.01173  -0.00000  -0.00000   0.00000  -0.00173
  55        6D+2        0.00000   0.00030   0.00008  -0.00000   0.00000
  56        6D-2       -0.00000   0.00000   0.00000  -0.00000   0.00000
                          51        52        53        54        55
  51        5PZ         0.00034
  52        6D 0       -0.00004   0.00096
  53        6D+1        0.00000  -0.00000   0.00088
  54        6D-1       -0.00000  -0.00000   0.00000   0.00066
  55        6D+2        0.00004   0.00002  -0.00000  -0.00000   0.00002
  56        6D-2        0.00000   0.00000   0.00000   0.00000   0.00000
                          56
  56        6D-2        0.00000
          Condensed to atoms (all electrons):
               1          2          3          4
     1  C    4.903478   0.371581   0.371581   0.364117
     2  H    0.371581   0.615359  -0.081463  -0.048656
     3  H    0.371581  -0.081463   0.615359  -0.048656
     4  O    0.364117  -0.048656  -0.048656   8.008798
 Mulliken charges:
               1
     1  C   -0.010757
     2  H    0.143180
     3  H    0.143180
     4  O   -0.275603
 Sum of Mulliken charges =  -0.00000
 Mulliken charges with hydrogens summed into heavy atoms:
               1
     1  C    0.275603
     4  O   -0.275603
 Electronic spatial extent (au):  <R**2>=             66.4979
 Charge=              0.0000 electrons
 Dipole moment (field-independent basis, Debye):
    X=             -0.0000    Y=             -0.0000    Z=             -3.0425  Tot=              3.0425
 Quadrupole moment (field-independent basis, Debye-Ang):
   XX=            -12.1455   YY=            -11.7418   ZZ=            -12.0656
   XY=              0.0000   XZ=              0.0000   YZ=             -0.0000
 Traceless Quadrupole moment (field-independent basis, Debye-Ang):
   XX=             -0.1612   YY=              0.2425   ZZ=             -0.0813
   XY=              0.0000   XZ=              0.0000   YZ=             -0.0000
 Octapole moment (field-independent basis, Debye-Ang**2):
  XXX=              0.0000  YYY=              0.0000  ZZZ=             -0.8418  XYY=             -0.0000
  XXY=              0.0000  XXZ=              0.5842  XZZ=             -0.0000  YZZ=             -0.0000
  YYZ=             -1.2954  XYZ=             -0.0000
 Hexadecapole moment (field-independent basis, Debye-Ang**3):
 XXXX=            -11.6531 YYYY=            -18.4814 ZZZZ=            -52.5277 XXXY=             -0.0000
 XXXZ=             -0.0000 YYYX=             -0.0000 YYYZ=             -0.0000 ZZZX=             -0.0000
 ZZZY=             -0.0000 XXYY=             -5.3910 XXZZ=            -10.8905 YYZZ=            -11.1229
 XXYZ=             -0.0000 YYXZ=              0.0000 ZZXY=              0.0000
 N-N= 2.891193662052D+01 E-N=-3.266056559732D+02  KE= 1.137237602192D+02
 Symmetry A1   KE= 1.033118539352D+02
 Symmetry A2   KE= 1.526512078901D-35
 Symmetry B1   KE= 3.619392172812D+00
 Symmetry B2   KE= 6.792514111223D+00
 Leave Link  601 at Fri Sep 17 10:52:47 2021, MaxMem=   268435456 cpu:               0.0 elap:               0.0
 (Enter /software/gaussian/g16-a03/l9999.exe)
 Electronic transition elements 
                 1             2             3             4             5 
      1  -0.114403D+03 -0.114264D+03 -0.114239D+03 -0.114238D+03 -0.114234D+03
      2   0.000000D+00  0.000000D+00  0.860672D-01  0.000000D+00  0.000000D+00
      3   0.000000D+00  0.308044D+00  0.000000D+00  0.390599D+00  0.000000D+00
      4   0.000000D+00  0.000000D+00  0.000000D+00  0.000000D+00  0.809823D+00
      5   0.000000D+00  0.000000D+00 -0.384557D-01  0.000000D+00  0.000000D+00
      6   0.000000D+00 -0.810956D-01  0.000000D+00 -0.113752D+00  0.000000D+00
      7   0.000000D+00  0.000000D+00  0.000000D+00  0.000000D+00 -0.219405D+00
      8   0.000000D+00 -0.389067D+00  0.000000D+00  0.614620D+00  0.000000D+00
      9   0.000000D+00  0.000000D+00 -0.162114D+01  0.000000D+00  0.000000D+00
     10   0.115429D+01  0.000000D+00  0.000000D+00  0.000000D+00  0.000000D+00
     11   0.000000D+00  0.000000D+00  0.000000D+00  0.000000D+00  0.180964D+00
     12   0.000000D+00  0.000000D+00  0.000000D+00  0.000000D+00 -0.365038D-01
     13   0.000000D+00  0.000000D+00  0.000000D+00  0.000000D+00 -0.173124D+00
     14  -0.683593D-01  0.000000D+00  0.000000D+00  0.000000D+00  0.000000D+00
     15   0.000000D+00  0.000000D+00 -0.277268D+00  0.000000D+00  0.000000D+00
     16   0.000000D+00  0.434395D+00  0.000000D+00 -0.794195D-01  0.000000D+00
                 6             7             8             9            10 
      1  -0.114225D+03 -0.114206D+03 -0.114194D+03 -0.114177D+03 -0.114148D+03
      2   0.000000D+00  0.000000D+00  0.000000D+00 -0.403637D+00  0.505385D+00
      3   0.000000D+00  0.000000D+00  0.000000D+00  0.000000D+00  0.000000D+00
      4  -0.543638D+00  0.000000D+00  0.000000D+00  0.000000D+00  0.000000D+00
      5   0.000000D+00  0.000000D+00  0.000000D+00  0.142369D+00 -0.194393D+00
      6   0.000000D+00  0.000000D+00  0.000000D+00  0.000000D+00  0.000000D+00
      7   0.155812D+00  0.000000D+00  0.000000D+00  0.000000D+00  0.000000D+00
      8   0.000000D+00  0.000000D+00  0.000000D+00  0.000000D+00  0.000000D+00
      9   0.000000D+00  0.000000D+00  0.000000D+00  0.187867D-01  0.139855D+00
     10   0.000000D+00 -0.498078D-01 -0.796497D+00  0.000000D+00  0.000000D+00
     11  -0.403169D-01  0.000000D+00  0.000000D+00  0.000000D+00  0.000000D+00
     12  -0.203744D+00  0.000000D+00  0.000000D+00  0.000000D+00  0.000000D+00
     13  -0.238596D+00  0.000000D+00  0.000000D+00  0.000000D+00  0.000000D+00
     14   0.000000D+00 -0.259223D-01  0.202821D+00  0.000000D+00  0.000000D+00
     15   0.000000D+00  0.000000D+00  0.000000D+00 -0.159451D+00 -0.279132D+00
     16   0.000000D+00  0.000000D+00  0.000000D+00  0.000000D+00  0.000000D+00
                11            12            13            14            15 
      1  -0.114143D+03 -0.114139D+03 -0.114115D+03 -0.114106D+03 -0.114095D+03
      2   0.000000D+00  0.000000D+00  0.000000D+00  0.000000D+00  0.000000D+00
      3   0.475741D+00  0.000000D+00  0.000000D+00  0.000000D+00 -0.856820D-01
      4   0.000000D+00  0.000000D+00 -0.166943D+00  0.844593D-01  0.000000D+00
      5   0.000000D+00  0.000000D+00  0.000000D+00  0.000000D+00  0.000000D+00
      6  -0.178261D+00  0.000000D+00  0.000000D+00  0.000000D+00  0.180945D-01
      7   0.000000D+00  0.000000D+00  0.723474D-01 -0.371936D-01  0.000000D+00
      8  -0.736441D+00  0.000000D+00  0.000000D+00  0.000000D+00  0.471865D+00
      9   0.000000D+00  0.000000D+00  0.000000D+00  0.000000D+00  0.000000D+00
     10   0.000000D+00  0.345033D-01  0.000000D+00  0.000000D+00  0.000000D+00
     11   0.000000D+00  0.000000D+00  0.753447D+00  0.112419D+00  0.000000D+00
     12   0.000000D+00  0.000000D+00 -0.194758D-01 -0.985542D-01  0.000000D+00
     13   0.000000D+00  0.000000D+00 -0.521988D-01  0.203851D+00  0.000000D+00
     14   0.000000D+00  0.283542D+00  0.000000D+00  0.000000D+00  0.000000D+00
     15   0.000000D+00  0.000000D+00  0.000000D+00  0.000000D+00  0.000000D+00
     16   0.412961D+00  0.000000D+00  0.000000D+00  0.000000D+00  0.318971D+00
                16            17            18            19            20 
      1  -0.114085D+03 -0.114071D+03 -0.114066D+03 -0.114065D+03 -0.114064D+03
      2   0.000000D+00  0.000000D+00  0.000000D+00  0.000000D+00  0.000000D+00
      3   0.000000D+00  0.000000D+00 -0.307573D+00  0.000000D+00 -0.627859D+00
      4  -0.285269D+00  0.110145D+01  0.000000D+00  0.000000D+00  0.000000D+00
      5   0.000000D+00  0.000000D+00  0.000000D+00  0.000000D+00  0.000000D+00
      6   0.000000D+00  0.000000D+00  0.136300D+00  0.000000D+00  0.285365D+00
      7   0.113756D+00 -0.499369D+00  0.000000D+00  0.000000D+00  0.000000D+00
      8   0.000000D+00  0.000000D+00 -0.227889D+00  0.000000D+00  0.377803D+00
      9   0.000000D+00  0.000000D+00  0.000000D+00  0.000000D+00  0.000000D+00
     10   0.000000D+00  0.000000D+00  0.000000D+00 -0.250760D-01  0.000000D+00
     11  -0.279717D+00 -0.323386D-01  0.000000D+00  0.000000D+00  0.000000D+00
     12  -0.603551D+00  0.330256D+00  0.000000D+00  0.000000D+00  0.000000D+00
     13  -0.589553D+00  0.381577D+00  0.000000D+00  0.000000D+00  0.000000D+00
     14   0.000000D+00  0.000000D+00  0.000000D+00  0.354538D+00  0.000000D+00
     15   0.000000D+00  0.000000D+00  0.000000D+00  0.000000D+00  0.000000D+00
     16   0.000000D+00  0.000000D+00 -0.198689D+00  0.000000D+00 -0.751572D+00
                21            22            23            24            25 
      1  -0.114063D+03 -0.114058D+03 -0.114047D+03 -0.114035D+03 -0.114030D+03
      2   0.278584D+00  0.000000D+00 -0.195154D+00  0.000000D+00  0.000000D+00
      3   0.000000D+00 -0.106813D+00  0.000000D+00  0.000000D+00  0.343120D+00
      4   0.000000D+00  0.000000D+00  0.000000D+00 -0.471142D+00  0.000000D+00
      5  -0.104996D+00  0.000000D+00  0.871877D-01  0.000000D+00  0.000000D+00
      6   0.000000D+00  0.440550D-01  0.000000D+00  0.000000D+00 -0.168297D+00
      7   0.000000D+00  0.000000D+00  0.000000D+00  0.218341D+00  0.000000D+00
      8   0.000000D+00 -0.202346D+00  0.000000D+00  0.000000D+00 -0.613633D+00
      9  -0.720755D-01  0.000000D+00  0.258278D+00  0.000000D+00  0.000000D+00
     10   0.000000D+00  0.000000D+00  0.000000D+00  0.000000D+00  0.000000D+00
     11   0.000000D+00  0.000000D+00  0.000000D+00  0.132383D+00  0.000000D+00
     12   0.000000D+00  0.000000D+00  0.000000D+00  0.498257D+00  0.000000D+00
     13   0.000000D+00  0.000000D+00  0.000000D+00  0.233075D+00  0.000000D+00
     14   0.000000D+00  0.000000D+00  0.000000D+00  0.000000D+00  0.000000D+00
     15   0.792396D-01  0.000000D+00 -0.401936D-01  0.000000D+00  0.000000D+00
     16   0.000000D+00 -0.369576D-01  0.000000D+00  0.000000D+00 -0.255388D+00
                26            27            28            29            30 
      1  -0.114029D+03 -0.114013D+03 -0.114005D+03 -0.114005D+03 -0.113989D+03
      2   0.000000D+00  0.000000D+00  0.536777D-01  0.000000D+00  0.000000D+00
      3   0.000000D+00  0.000000D+00  0.000000D+00  0.000000D+00  0.000000D+00
      4   0.000000D+00  0.171004D+00  0.000000D+00  0.000000D+00  0.339228D+00
      5   0.000000D+00  0.000000D+00 -0.192064D-01  0.000000D+00  0.000000D+00
      6   0.000000D+00  0.000000D+00  0.000000D+00  0.000000D+00  0.000000D+00
      7   0.000000D+00 -0.798394D-01  0.000000D+00  0.000000D+00 -0.177863D+00
      8   0.000000D+00  0.000000D+00  0.000000D+00  0.000000D+00  0.000000D+00
      9   0.000000D+00  0.000000D+00 -0.376366D-01  0.000000D+00  0.000000D+00
     10  -0.222148D-01  0.000000D+00  0.000000D+00  0.292267D-01  0.000000D+00
     11   0.000000D+00  0.312718D+00  0.000000D+00  0.000000D+00 -0.197790D+00
     12   0.000000D+00  0.113350D+01  0.000000D+00  0.000000D+00  0.426733D+00
     13   0.000000D+00  0.294286D+00  0.000000D+00  0.000000D+00 -0.167453D+00
     14  -0.252842D+00  0.000000D+00  0.000000D+00  0.330927D+00  0.000000D+00
     15   0.000000D+00  0.000000D+00  0.966131D-01  0.000000D+00  0.000000D+00
     16   0.000000D+00  0.000000D+00  0.000000D+00  0.000000D+00  0.000000D+00

 Test job not archived.
 1\1\GINC-BHD0002\SP\RB3LYP TD-FC\6-311+G(d,p)\C1H2O1\BWEIGHT\17-Sep-20
 21\0\\#p B3LYP/6-311+G** #p TD=(singlets,nstates=30)IOp(6/8=3) IOp(9/4
 0=4)\\Scan Step 168, Bond Length 1.3399999999999999\\0,1\C,0,0.,0.,-0.
 52736\H,0,0.,0.93726,-1.11871\H,0,0.,-0.93726,-1.11871\O,0,0.,0.,0.812
 64\\Version=ES64L-G16RevA.03\State=1-A1\HF=-114.5193107\RMSD=5.574e-09
 \PG=C02V [C2(C1O1),SGV(H2)]\\@


 IT IS BY EATING THE LIGHT OF A STAR THAT WE EXIST, 
 IN THE FINAL ANALYSIS, 
 JUST AS IT IS BY PERCEIVING THE LIGHT OF STARS
 THAT WE DEFINE THE WORLD AROUND US.

                                    -- GILBERT GROSVENOR
 Job cpu time:       0 days  0 hours  0 minutes 26.0 seconds.
 Elapsed time:       0 days  0 hours  0 minutes 26.9 seconds.
 File lengths (MBytes):  RWF=     79 Int=      0 D2E=      0 Chk=     32 Scr=      1
 Normal termination of Gaussian 16 at Fri Sep 17 10:52:47 2021.
