 Entering Gaussian System, Link 0=g16
 Initial command:
 /software/gaussian/g16-c01/sse4/g16/l1.exe "/local_scratch/24665280/Gau-23623.inp" -scrdir="/local_scratch/24665280/"
 Entering Link 1 = /software/gaussian/g16-c01/sse4/g16/l1.exe PID=     23649.
  
 Copyright (c) 1988-2019, Gaussian, Inc.  All Rights Reserved.
  
 This is part of the Gaussian(R) 16 program.  It is based on
 the Gaussian(R) 09 system (copyright 2009, Gaussian, Inc.),
 the Gaussian(R) 03 system (copyright 2003, Gaussian, Inc.),
 the Gaussian(R) 98 system (copyright 1998, Gaussian, Inc.),
 the Gaussian(R) 94 system (copyright 1995, Gaussian, Inc.),
 the Gaussian 92(TM) system (copyright 1992, Gaussian, Inc.),
 the Gaussian 90(TM) system (copyright 1990, Gaussian, Inc.),
 the Gaussian 88(TM) system (copyright 1988, Gaussian, Inc.),
 the Gaussian 86(TM) system (copyright 1986, Carnegie Mellon
 University), and the Gaussian 82(TM) system (copyright 1983,
 Carnegie Mellon University). Gaussian is a federally registered
 trademark of Gaussian, Inc.
  
 This software contains proprietary and confidential information,
 including trade secrets, belonging to Gaussian, Inc.
  
 This software is provided under written license and may be
 used, copied, transmitted, or stored only in accord with that
 written license.
  
 The following legend is applicable only to US Government
 contracts under FAR:
  
                    RESTRICTED RIGHTS LEGEND
  
 Use, reproduction and disclosure by the US Government is
 subject to restrictions as set forth in subparagraphs (a)
 and (c) of the Commercial Computer Software - Restricted
 Rights clause in FAR 52.227-19.
  
 Gaussian, Inc.
 340 Quinnipiac St., Bldg. 40, Wallingford CT 06492
  
  
 ---------------------------------------------------------------
 Warning -- This program may not be used in any manner that
 competes with the business of Gaussian, Inc. or will provide
 assistance to any competitor of Gaussian, Inc.  The licensee
 of this program is prohibited from giving any competitor of
 Gaussian, Inc. access to this program.  By using this program,
 the user acknowledges that Gaussian, Inc. is engaged in the
 business of creating and licensing software in the field of
 computational chemistry and represents and warrants to the
 licensee that it is not a competitor of Gaussian, Inc. and that
 it will not use this program in any manner prohibited above.
 ---------------------------------------------------------------
  

 Cite this work as:
 Gaussian 16, Revision C.01,
 M. J. Frisch, G. W. Trucks, H. B. Schlegel, G. E. Scuseria, 
 M. A. Robb, J. R. Cheeseman, G. Scalmani, V. Barone, 
 G. A. Petersson, H. Nakatsuji, X. Li, M. Caricato, A. V. Marenich, 
 J. Bloino, B. G. Janesko, R. Gomperts, B. Mennucci, H. P. Hratchian, 
 J. V. Ortiz, A. F. Izmaylov, J. L. Sonnenberg, D. Williams-Young, 
 F. Ding, F. Lipparini, F. Egidi, J. Goings, B. Peng, A. Petrone, 
 T. Henderson, D. Ranasinghe, V. G. Zakrzewski, J. Gao, N. Rega, 
 G. Zheng, W. Liang, M. Hada, M. Ehara, K. Toyota, R. Fukuda, 
 J. Hasegawa, M. Ishida, T. Nakajima, Y. Honda, O. Kitao, H. Nakai, 
 T. Vreven, K. Throssell, J. A. Montgomery, Jr., J. E. Peralta, 
 F. Ogliaro, M. J. Bearpark, J. J. Heyd, E. N. Brothers, K. N. Kudin, 
 V. N. Staroverov, T. A. Keith, R. Kobayashi, J. Normand, 
 K. Raghavachari, A. P. Rendell, J. C. Burant, S. S. Iyengar, 
 J. Tomasi, M. Cossi, J. M. Millam, M. Klene, C. Adamo, R. Cammi, 
 J. W. Ochterski, R. L. Martin, K. Morokuma, O. Farkas, 
 J. B. Foresman, and D. J. Fox, Gaussian, Inc., Wallingford CT, 2019.
 
 ******************************************
 Gaussian 16:  ES64L-G16RevC.01  3-Jul-2019
                 2-May-2024 
 ******************************************
 %chk=geometry.chk
 %mem=1GB
 %nprocshared=12
 Will use up to   12 processors via shared memory.
 ----------------------------------------
 #P wB97XD/6-311+G* NoSymm #P Field=X+165
 ----------------------------------------
 1/38=1,172=1/1;
 2/12=2,15=1,17=6,18=5,40=1/2;
 3/5=4,6=6,7=11,11=2,14=1,15=165,25=1,30=1,74=-58/1,2,3;
 4//1;
 5/5=2,38=5/2;
 6/7=2,8=2,9=2,10=2,28=1/1;
 99/5=1,9=1/99;
 Leave Link    1 at Thu May  2 13:57:39 2024, MaxMem=   134217728 cpu:               1.7 elap:               1.8
 (Enter /software/gaussian/g16-c01/sse4/g16/l101.exe)
 -------
 TitleMe
 -------
 Symbolic Z-matrix:
 Charge =  1 Multiplicity = 1
 C                     0.5193    1.233    -0.0319 
 C                     1.9445    1.2692   -0.0367 
 C                     2.6204    0.0928   -0.025 
 C                    -0.196     0.0301    0.001 
 H                    -0.0207    2.1742   -0.0434 
 H                     2.4828    2.2089   -0.0361 
 H                    -1.2777    0.0399    0.0117 
 N                     4.0921    0.0959    0.0366 
 O                     4.6393   -1.0217    0.1446 
 O                     4.6649    1.1984   -0.0233 
 C                     0.4943   -1.1671    0.021 
 H                    -0.0325   -2.1149    0.0545 
 C                     1.9629   -1.2165   -0.0211 
 H                     2.4436   -1.9631    0.6151 
 Br                    2.173    -1.9491   -1.9062 
 
 ITRead=  0  0  0  0  0  0  0  0  0  0  0  0  0  0  0
 MicOpt= -1 -1 -1 -1 -1 -1 -1 -1 -1 -1 -1 -1 -1 -1 -1
 NAtoms=     15 NQM=       15 NQMF=       0 NMMI=      0 NMMIF=      0
                NMic=       0 NMicF=      0.
                    Isotopes and Nuclear Properties:
 (Nuclear quadrupole moments (NQMom) in fm**2, nuclear magnetic moments (NMagM)
  in nuclear magnetons)

  Atom         1           2           3           4           5           6           7           8           9          10
 IAtWgt=          12          12          12          12           1           1           1          14          16          16
 AtmWgt=  12.0000000  12.0000000  12.0000000  12.0000000   1.0078250   1.0078250   1.0078250  14.0030740  15.9949146  15.9949146
 NucSpn=           0           0           0           0           1           1           1           2           0           0
 AtZEff=  -0.0000000  -0.0000000  -0.0000000  -0.0000000  -0.0000000  -0.0000000  -0.0000000  -0.0000000  -0.0000000  -0.0000000
 NQMom=    0.0000000   0.0000000   0.0000000   0.0000000   0.0000000   0.0000000   0.0000000   2.0440000   0.0000000   0.0000000
 NMagM=    0.0000000   0.0000000   0.0000000   0.0000000   2.7928460   2.7928460   2.7928460   0.4037610   0.0000000   0.0000000
 AtZNuc=   6.0000000   6.0000000   6.0000000   6.0000000   1.0000000   1.0000000   1.0000000   7.0000000   8.0000000   8.0000000

  Atom        11          12          13          14          15
 IAtWgt=          12           1          12           1          79
 AtmWgt=  12.0000000   1.0078250  12.0000000   1.0078250  78.9183361
 NucSpn=           0           1           0           1           3
 AtZEff=  -0.0000000  -0.0000000  -0.0000000  -0.0000000  -0.0000000
 NQMom=    0.0000000   0.0000000   0.0000000   0.0000000  31.3000000
 NMagM=    0.0000000   2.7928460   0.0000000   2.7928460   2.1063990
 AtZNuc=   6.0000000   1.0000000   6.0000000   1.0000000  35.0000000
 Leave Link  101 at Thu May  2 13:57:40 2024, MaxMem=   134217728 cpu:               1.6 elap:               1.6
 (Enter /software/gaussian/g16-c01/sse4/g16/l202.exe)
                          Input orientation:                          
 ---------------------------------------------------------------------
 Center     Atomic      Atomic             Coordinates (Angstroms)
 Number     Number       Type             X           Y           Z
 ---------------------------------------------------------------------
      1          6           0        0.519300    1.233000   -0.031900
      2          6           0        1.944500    1.269200   -0.036700
      3          6           0        2.620400    0.092800   -0.025000
      4          6           0       -0.196000    0.030100    0.001000
      5          1           0       -0.020700    2.174200   -0.043400
      6          1           0        2.482800    2.208900   -0.036100
      7          1           0       -1.277700    0.039900    0.011700
      8          7           0        4.092100    0.095900    0.036600
      9          8           0        4.639300   -1.021700    0.144600
     10          8           0        4.664900    1.198400   -0.023300
     11          6           0        0.494300   -1.167100    0.021000
     12          1           0       -0.032500   -2.114900    0.054500
     13          6           0        1.962900   -1.216500   -0.021100
     14          1           0        2.443600   -1.963100    0.615100
     15         35           0        2.173000   -1.949100   -1.906200
 ---------------------------------------------------------------------
                    Distance matrix (angstroms):
                    1          2          3          4          5
     1  C    0.000000
     2  C    1.425668   0.000000
     3  C    2.390549   1.356796   0.000000
     4  C    1.399895   2.473566   2.817218   0.000000
     5  H    1.085168   2.163581   3.362733   2.151712   0.000000
     6  H    2.192654   1.082960   2.120598   3.453189   2.503751
     7  H    2.157452   3.449071   3.898632   1.081797   2.477564
     8  N    3.750012   2.448304   1.472992   4.288753   4.608780
     9  O    4.699917   3.541615   2.312322   4.950458   5.653735
    10  O    4.145753   2.721354   2.324292   4.999386   4.786171
    11  C    2.400813   2.835836   2.471794   1.382101   3.381369
    12  H    3.394169   3.920329   3.452266   2.151887   4.290233
    13  C    2.843264   2.485817   1.465124   2.493060   3.928360
    14  H    3.786370   3.334922   2.160489   3.364142   4.860416
    15  Br   4.046416   3.728900   2.812194   3.628609   5.028314
                    6          7          8          9         10
     6  H    0.000000
     7  H    4.341452   0.000000
     8  N    2.657047   5.370150   0.000000
     9  O    3.888434   6.012948   1.249048   0.000000
    10  O    2.404752   6.054572   1.243863   2.226587   0.000000
    11  C    3.918516   2.144043   3.813080   4.149391   4.794941
    12  H    5.003018   2.489080   4.679774   4.798846   5.748876
    13  C    3.464662   3.475788   2.501842   2.688591   3.623886
    14  H    4.222698   4.268978   2.700314   2.434893   3.916224
    15  Br   4.569706   4.420610   3.411663   3.338935   4.434144
                   11         12         13         14         15
    11  C    0.000000
    12  H    1.084880   0.000000
    13  C    1.470034   2.189625   0.000000
    14  H    2.187771   2.543302   1.092353   0.000000
    15  Br   2.672762   2.955683   2.033334   2.535818   0.000000
 Symmetry turned off by external request.
 Stoichiometry    C6H5BrNO2(1+)
 Framework group  C1[X(C6H5BrNO2)]
 Deg. of freedom    39
 Full point group                 C1      NOp   1
 Rotational constants (GHZ):           1.1632986           0.9594224           0.5957624
 Leave Link  202 at Thu May  2 13:57:41 2024, MaxMem=   134217728 cpu:               1.2 elap:               1.2
 (Enter /software/gaussian/g16-c01/sse4/g16/l301.exe)
 Standard basis: 6-311+G(d) (5D, 7F)
 Ernie: Thresh=  0.10000D-02 Tol=  0.10000D-05 Strict=F.
 The following finite field(s) will be applied:
 An electric field of              0.0165  0.0000  0.0000
   261 basis functions,   443 primitive gaussians,   273 cartesian basis functions
    49 alpha electrons       49 beta electrons
       nuclear repulsion energy       772.8945969580 Hartrees.
 IExCor= 4639 DFT=T Ex+Corr=wB97XD ExCW=0 ScaHFX=  1.000000
 ScaDFX=  1.000000  1.000000  1.000000  1.000000 ScalE2=  1.000000  1.000000
 IRadAn=      5 IRanWt=     -1 IRanGd=            0 ICorTp=0 IEmpDi=121
 HFx  wShort=  0.000000 wLong=  0.200000 cFull=  0.222036 cShort=  0.000000 cLong=  0.777964
 DFx  wShort=  0.000000 wLong=  0.200000 cFull=  0.000000 cShort=  0.000000 cLong=  1.000000
 NAtoms=   15 NActive=   15 NUniq=   15 SFac= 1.00D+00 NAtFMM=   60 NAOKFM=F Big=F
 Integral buffers will be    131072 words long.
 Raffenetti 2 integral format.
 Two-electron integral symmetry is turned off.
 R6Disp:  Grimme-D2 Dispersion energy=       -0.0080346408 Hartrees.
 Nuclear repulsion after empirical dispersion term =      772.8865623173 Hartrees.
 Leave Link  301 at Thu May  2 13:57:42 2024, MaxMem=   134217728 cpu:               1.1 elap:               1.1
 (Enter /software/gaussian/g16-c01/sse4/g16/l302.exe)
 NPDir=0 NMtPBC=     1 NCelOv=     1 NCel=       1 NClECP=     1 NCelD=      1
         NCelK=      1 NCelE2=     1 NClLst=     1 CellRange=     0.0.
 One-electron integrals computed using PRISM.
 NBasis=   261 RedAO= T EigKep=  2.52D-06  NBF=   261
 NBsUse=   261 1.00D-06 EigRej= -1.00D+00 NBFU=   261
 Precomputing XC quadrature grid using
 IXCGrd= 4 IRadAn=           5 IRanWt=          -1 IRanGd=           0 AccXCQ= 0.00D+00.
 Generated NRdTot=       0 NPtTot=           0 NUsed=           0 NTot=          32
 NSgBfM=   273   273   273   273   273 MxSgAt=    15 MxSgA2=    15.
 Leave Link  302 at Thu May  2 13:58:04 2024, MaxMem=   134217728 cpu:              21.8 elap:              21.8
 (Enter /software/gaussian/g16-c01/sse4/g16/l303.exe)
 DipDrv:  MaxL=1.
 The nuclear repulsion energy is now       779.9583328372 hartrees.
 Leave Link  303 at Thu May  2 13:58:08 2024, MaxMem=   134217728 cpu:               3.1 elap:               3.1
 (Enter /software/gaussian/g16-c01/sse4/g16/l401.exe)
 ExpMin= 3.50D-02 ExpMax= 4.40D+05 ExpMxC= 1.51D+04 IAcc=3 IRadAn=         5 AccDes= 0.00D+00
 Harris functional with IExCor= 4639 and IRadAn=       5 diagonalized for initial guess.
 HarFok:  IExCor= 4639 AccDes= 0.00D+00 IRadAn=         5 IDoV= 1 UseB2=F ITyADJ=14
 ICtDFT=  3500011 ScaDFX=  1.000000  1.000000  1.000000  1.000000
 FoFCou: FMM=F IPFlag=           0 FMFlag=      100000 FMFlg1=           0
         NFxFlg=           0 DoJE=T BraDBF=F KetDBF=T FulRan=T
         wScrn=  0.000000 ICntrl=       500 IOpCl=  0 I1Cent=   200000004 NGrid=           0
         NMat0=    1 NMatS0=      1 NMatT0=    0 NMatD0=    1 NMtDS0=    0 NMtDT0=    0
 Symmetry not used in FoFCou.
 Harris En= -2970.60906714133    
 JPrj=0 DoOrth=F DoCkMO=F.
 Leave Link  401 at Thu May  2 13:58:39 2024, MaxMem=   134217728 cpu:              31.3 elap:              31.3
 (Enter /software/gaussian/g16-c01/sse4/g16/l502.exe)
 Two-electron integral symmetry not used.
 Closed shell SCF:
 Using DIIS extrapolation, IDIIS=  1040.
 NGot=   134217728 LenX=   134063053 LenY=   133988083
 Requested convergence on RMS density matrix=1.00D-08 within 128 cycles.
 Requested convergence on MAX density matrix=1.00D-06.
 Requested convergence on             energy=1.00D-06.
 No special actions if energy rises.
 Fock matrices will be formed incrementally for  20 cycles.

 Cycle   1  Pass 1  IDiag  1:
 FoFJK:  IHMeth= 1 ICntrl=       0 DoSepK=T KAlg= 0 I1Cent=           0 FoldK=F
 IRaf=         1 NMat=       1 IRICut=       1 DoRegI=T DoRafI=F ISym2E= 0 IDoP0=0 IntGTp=1.
 FoFCou: FMM=F IPFlag=           0 FMFlag=      100000 FMFlg1=           0
         NFxFlg=           0 DoJE=T BraDBF=F KetDBF=F FulRan=T
         wScrn=  0.000000 ICntrl=       500 IOpCl=  0 I1Cent=           0 NGrid=           0
         NMat0=    1 NMatS0=      1 NMatT0=    0 NMatD0=    1 NMtDS0=    0 NMtDT0=    0
 Symmetry not used in FoFCou.
 E= -3009.71625507395    
 DIIS: error= 2.90D-01 at cycle   1 NSaved=   1.
 NSaved= 1 IEnMin= 1 EnMin= -3009.71625507395     IErMin= 1 ErrMin= 2.90D-01
 ErrMax= 2.90D-01  0.00D+00 EMaxC= 1.00D-01 BMatC= 1.19D+01 BMatP= 1.19D+01
 IDIUse=3 WtCom= 0.00D+00 WtEn= 1.00D+00
 Coeff-Com:  0.100D+01
 Coeff-En:   0.100D+01
 Coeff:      0.100D+01
 Gap=     0.249 Goal=   None    Shift=    0.000
 GapD=    0.249 DampG=1.000 DampE=0.250 DampFc=0.2500 IDamp=-1.
 Damping current iteration by 2.50D-01
 RMSDP=9.14D-02 MaxDP=9.49D+00              OVMax= 2.64D-01

 Cycle   2  Pass 1  IDiag  1:
 RMSU=  7.93D-03    CP:  8.55D-01
 E= -3009.99782019197     Delta-E=       -0.281565118015 Rises=F Damp=T
 DIIS: error= 2.19D-01 at cycle   2 NSaved=   2.
 NSaved= 2 IEnMin= 2 EnMin= -3009.99782019197     IErMin= 2 ErrMin= 2.19D-01
 ErrMax= 2.19D-01  0.00D+00 EMaxC= 1.00D-01 BMatC= 5.45D+00 BMatP= 1.19D+01
 IDIUse=3 WtCom= 0.00D+00 WtEn= 1.00D+00
 Coeff-Com: -0.184D+01 0.284D+01
 Coeff-En:   0.000D+00 0.100D+01
 Coeff:      0.000D+00 0.100D+01
 Gap=     0.249 Goal=   None    Shift=    0.000
 RMSDP=6.94D-02 MaxDP=7.43D+00 DE=-2.82D-01 OVMax= 6.47D-02

 Cycle   3  Pass 1  IDiag  1:
 RMSU=  5.25D-03    CP:  4.03D-01  3.00D+00
 E= -3010.38271705784     Delta-E=       -0.384896865871 Rises=F Damp=F
 DIIS: error= 6.57D-02 at cycle   3 NSaved=   3.
 NSaved= 3 IEnMin= 3 EnMin= -3010.38271705784     IErMin= 3 ErrMin= 6.57D-02
 ErrMax= 6.57D-02  0.00D+00 EMaxC= 1.00D-01 BMatC= 7.23D-01 BMatP= 5.45D+00
 IDIUse=3 WtCom= 3.43D-01 WtEn= 6.57D-01
 Coeff-Com:  0.272D+01-0.357D+01 0.185D+01
 Coeff-En:   0.127D-01 0.000D+00 0.987D+00
 Coeff:      0.940D+00-0.122D+01 0.128D+01
 Gap=     0.245 Goal=   None    Shift=    0.000
 RMSDP=1.30D-02 MaxDP=8.29D-01 DE=-3.85D-01 OVMax= 6.50D-02

 Cycle   4  Pass 1  IDiag  1:
 RMSU=  7.43D-03    CP:  4.28D-01  2.25D+00  2.27D+00
 E= -3010.47942341322     Delta-E=       -0.096706355377 Rises=F Damp=F
 DIIS: error= 3.99D-02 at cycle   4 NSaved=   4.
 NSaved= 4 IEnMin= 4 EnMin= -3010.47942341322     IErMin= 4 ErrMin= 3.99D-02
 ErrMax= 3.99D-02  0.00D+00 EMaxC= 1.00D-01 BMatC= 2.48D-01 BMatP= 7.23D-01
 IDIUse=3 WtCom= 6.01D-01 WtEn= 3.99D-01
 Coeff-Com: -0.142D+00 0.203D+00 0.303D+00 0.636D+00
 Coeff-En:   0.000D+00 0.000D+00 0.220D+00 0.780D+00
 Coeff:     -0.854D-01 0.122D+00 0.270D+00 0.694D+00
 Gap=     0.254 Goal=   None    Shift=    0.000
 RMSDP=5.38D-03 MaxDP=5.31D-01 DE=-9.67D-02 OVMax= 3.21D-02

 Cycle   5  Pass 1  IDiag  1:
 RMSU=  2.12D-03    CP:  4.00D-01  2.38D+00  2.07D+00  7.00D-01
 E= -3010.52694169384     Delta-E=       -0.047518280628 Rises=F Damp=F
 DIIS: error= 6.53D-03 at cycle   5 NSaved=   5.
 NSaved= 5 IEnMin= 5 EnMin= -3010.52694169384     IErMin= 5 ErrMin= 6.53D-03
 ErrMax= 6.53D-03  0.00D+00 EMaxC= 1.00D-01 BMatC= 7.63D-03 BMatP= 2.48D-01
 IDIUse=3 WtCom= 9.35D-01 WtEn= 6.53D-02
 Coeff-Com: -0.136D+00 0.186D+00 0.838D-01 0.359D+00 0.508D+00
 Coeff-En:   0.000D+00 0.000D+00 0.000D+00 0.000D+00 0.100D+01
 Coeff:     -0.127D+00 0.174D+00 0.784D-01 0.335D+00 0.540D+00
 Gap=     0.246 Goal=   None    Shift=    0.000
 RMSDP=1.28D-03 MaxDP=1.51D-01 DE=-4.75D-02 OVMax= 1.79D-02

 Cycle   6  Pass 1  IDiag  1:
 RMSU=  5.90D-04    CP:  4.03D-01  2.38D+00  2.14D+00  8.11D-01  7.82D-01
 E= -3010.52874964209     Delta-E=       -0.001807948245 Rises=F Damp=F
 DIIS: error= 2.26D-03 at cycle   6 NSaved=   6.
 NSaved= 6 IEnMin= 6 EnMin= -3010.52874964209     IErMin= 6 ErrMin= 2.26D-03
 ErrMax= 2.26D-03  0.00D+00 EMaxC= 1.00D-01 BMatC= 4.56D-04 BMatP= 7.63D-03
 IDIUse=3 WtCom= 9.77D-01 WtEn= 2.26D-02
 Coeff-Com: -0.982D-01 0.132D+00-0.162D-02 0.155D+00 0.361D+00 0.452D+00
 Coeff-En:   0.000D+00 0.000D+00 0.000D+00 0.000D+00 0.641D-01 0.936D+00
 Coeff:     -0.960D-01 0.129D+00-0.159D-02 0.151D+00 0.354D+00 0.463D+00
 Gap=     0.246 Goal=   None    Shift=    0.000
 RMSDP=4.19D-04 MaxDP=3.73D-02 DE=-1.81D-03 OVMax= 6.24D-03

 Cycle   7  Pass 1  IDiag  1:
 RMSU=  2.02D-04    CP:  4.02D-01  2.37D+00  2.14D+00  7.92D-01  8.80D-01
                    CP:  7.73D-01
 E= -3010.52906710291     Delta-E=       -0.000317460818 Rises=F Damp=F
 DIIS: error= 3.14D-04 at cycle   7 NSaved=   7.
 NSaved= 7 IEnMin= 7 EnMin= -3010.52906710291     IErMin= 7 ErrMin= 3.14D-04
 ErrMax= 3.14D-04  0.00D+00 EMaxC= 1.00D-01 BMatC= 1.42D-05 BMatP= 4.56D-04
 IDIUse=3 WtCom= 9.97D-01 WtEn= 3.14D-03
 Coeff-Com: -0.309D-01 0.410D-01-0.133D-01 0.244D-01 0.770D-01 0.172D+00
 Coeff-Com:  0.729D+00
 Coeff-En:   0.000D+00 0.000D+00 0.000D+00 0.000D+00 0.000D+00 0.000D+00
 Coeff-En:   0.100D+01
 Coeff:     -0.308D-01 0.409D-01-0.132D-01 0.243D-01 0.768D-01 0.172D+00
 Coeff:      0.730D+00
 Gap=     0.247 Goal=   None    Shift=    0.000
 RMSDP=2.09D-04 MaxDP=1.89D-02 DE=-3.17D-04 OVMax= 1.80D-03

 Cycle   8  Pass 1  IDiag  1:
 RMSU=  9.11D-05    CP:  4.01D-01  2.36D+00  2.16D+00  8.04D-01  9.18D-01
                    CP:  8.19D-01  1.13D+00
 E= -3010.52908342505     Delta-E=       -0.000016322143 Rises=F Damp=F
 DIIS: error= 1.51D-04 at cycle   8 NSaved=   8.
 NSaved= 8 IEnMin= 8 EnMin= -3010.52908342505     IErMin= 8 ErrMin= 1.51D-04
 ErrMax= 1.51D-04  0.00D+00 EMaxC= 1.00D-01 BMatC= 2.33D-06 BMatP= 1.42D-05
 IDIUse=3 WtCom= 9.98D-01 WtEn= 1.51D-03
 Coeff-Com:  0.729D-02-0.997D-02-0.318D-02-0.160D-01-0.358D-01-0.417D-01
 Coeff-Com:  0.211D+00 0.889D+00
 Coeff-En:   0.000D+00 0.000D+00 0.000D+00 0.000D+00 0.000D+00 0.000D+00
 Coeff-En:   0.000D+00 0.100D+01
 Coeff:      0.728D-02-0.996D-02-0.317D-02-0.160D-01-0.358D-01-0.416D-01
 Coeff:      0.211D+00 0.889D+00
 Gap=     0.247 Goal=   None    Shift=    0.000
 RMSDP=1.05D-04 MaxDP=8.18D-03 DE=-1.63D-05 OVMax= 1.12D-03

 Cycle   9  Pass 1  IDiag  1:
 RMSU=  2.84D-05    CP:  4.02D-01  2.36D+00  2.17D+00  8.10D-01  9.31D-01
                    CP:  8.64D-01  1.35D+00  1.22D+00
 E= -3010.52908742422     Delta-E=       -0.000003999171 Rises=F Damp=F
 DIIS: error= 2.80D-05 at cycle   9 NSaved=   9.
 NSaved= 9 IEnMin= 9 EnMin= -3010.52908742422     IErMin= 9 ErrMin= 2.80D-05
 ErrMax= 2.80D-05  0.00D+00 EMaxC= 1.00D-01 BMatC= 2.74D-07 BMatP= 2.33D-06
 IDIUse=1 WtCom= 1.00D+00 WtEn= 0.00D+00
 Coeff-Com:  0.654D-02-0.877D-02 0.686D-03-0.871D-02-0.202D-01-0.353D-01
 Coeff-Com: -0.350D-01 0.285D+00 0.816D+00
 Coeff:      0.654D-02-0.877D-02 0.686D-03-0.871D-02-0.202D-01-0.353D-01
 Coeff:     -0.350D-01 0.285D+00 0.816D+00
 Gap=     0.247 Goal=   None    Shift=    0.000
 RMSDP=3.68D-05 MaxDP=2.93D-03 DE=-4.00D-06 OVMax= 5.70D-04

 Cycle  10  Pass 1  IDiag  1:
 RMSU=  1.17D-05    CP:  4.01D-01  2.36D+00  2.17D+00  8.09D-01  9.40D-01
                    CP:  8.63D-01  1.40D+00  1.31D+00  1.12D+00
 E= -3010.52908803258     Delta-E=       -0.000000608361 Rises=F Damp=F
 DIIS: error= 1.74D-05 at cycle  10 NSaved=  10.
 NSaved=10 IEnMin=10 EnMin= -3010.52908803258     IErMin=10 ErrMin= 1.74D-05
 ErrMax= 1.74D-05  0.00D+00 EMaxC= 1.00D-01 BMatC= 5.65D-08 BMatP= 2.74D-07
 IDIUse=1 WtCom= 1.00D+00 WtEn= 0.00D+00
 Coeff-Com:  0.412D-03-0.528D-03 0.345D-03-0.334D-03 0.632D-03-0.782D-03
 Coeff-Com: -0.377D-01-0.444D-01 0.220D+00 0.862D+00
 Coeff:      0.412D-03-0.528D-03 0.345D-03-0.334D-03 0.632D-03-0.782D-03
 Coeff:     -0.377D-01-0.444D-01 0.220D+00 0.862D+00
 Gap=     0.247 Goal=   None    Shift=    0.000
 RMSDP=8.65D-06 MaxDP=6.02D-04 DE=-6.08D-07 OVMax= 2.91D-04

 Cycle  11  Pass 1  IDiag  1:
 RMSU=  5.01D-06    CP:  4.01D-01  2.36D+00  2.17D+00  8.09D-01  9.40D-01
                    CP:  8.66D-01  1.39D+00  1.30D+00  1.21D+00  1.29D+00
 E= -3010.52908815220     Delta-E=       -0.000000119619 Rises=F Damp=F
 DIIS: error= 6.09D-06 at cycle  11 NSaved=  11.
 NSaved=11 IEnMin=11 EnMin= -3010.52908815220     IErMin=11 ErrMin= 6.09D-06
 ErrMax= 6.09D-06  0.00D+00 EMaxC= 1.00D-01 BMatC= 4.09D-09 BMatP= 5.65D-08
 IDIUse=1 WtCom= 1.00D+00 WtEn= 0.00D+00
 Coeff-Com: -0.322D-03 0.430D-03 0.143D-04 0.724D-03 0.191D-02 0.387D-02
 Coeff-Com:  0.119D-01-0.264D-01-0.137D+00-0.107D+00 0.125D+01
 Coeff:     -0.322D-03 0.430D-03 0.143D-04 0.724D-03 0.191D-02 0.387D-02
 Coeff:      0.119D-01-0.264D-01-0.137D+00-0.107D+00 0.125D+01
 Gap=     0.247 Goal=   None    Shift=    0.000
 RMSDP=7.29D-06 MaxDP=8.33D-04 DE=-1.20D-07 OVMax= 2.40D-04

 Cycle  12  Pass 1  IDiag  1:
 RMSU=  1.47D-06    CP:  4.01D-01  2.36D+00  2.17D+00  8.09D-01  9.41D-01
                    CP:  8.65D-01  1.38D+00  1.28D+00  1.26D+00  1.56D+00
                    CP:  1.58D+00
 E= -3010.52908818670     Delta-E=       -0.000000034495 Rises=F Damp=F
 DIIS: error= 2.75D-06 at cycle  12 NSaved=  12.
 NSaved=12 IEnMin=12 EnMin= -3010.52908818670     IErMin=12 ErrMin= 2.75D-06
 ErrMax= 2.75D-06  0.00D+00 EMaxC= 1.00D-01 BMatC= 2.09D-09 BMatP= 4.09D-09
 IDIUse=1 WtCom= 1.00D+00 WtEn= 0.00D+00
 Coeff-Com: -0.246D-03 0.326D-03-0.355D-04 0.438D-03 0.671D-03 0.164D-02
 Coeff-Com:  0.117D-01-0.878D-02-0.102D+00-0.205D+00 0.601D+00 0.700D+00
 Coeff:     -0.246D-03 0.326D-03-0.355D-04 0.438D-03 0.671D-03 0.164D-02
 Coeff:      0.117D-01-0.878D-02-0.102D+00-0.205D+00 0.601D+00 0.700D+00
 Gap=     0.247 Goal=   None    Shift=    0.000
 RMSDP=2.68D-06 MaxDP=2.27D-04 DE=-3.45D-08 OVMax= 8.07D-05

 Cycle  13  Pass 1  IDiag  1:
 RMSU=  8.21D-07    CP:  4.01D-01  2.36D+00  2.17D+00  8.09D-01  9.41D-01
                    CP:  8.65D-01  1.38D+00  1.27D+00  1.28D+00  1.65D+00
                    CP:  1.77D+00  1.23D+00
 E= -3010.52908819299     Delta-E=       -0.000000006294 Rises=F Damp=F
 DIIS: error= 8.96D-07 at cycle  13 NSaved=  13.
 NSaved=13 IEnMin=13 EnMin= -3010.52908819299     IErMin=13 ErrMin= 8.96D-07
 ErrMax= 8.96D-07  0.00D+00 EMaxC= 1.00D-01 BMatC= 2.49D-10 BMatP= 2.09D-09
 IDIUse=1 WtCom= 1.00D+00 WtEn= 0.00D+00
 Coeff-Com: -0.187D-04 0.252D-04-0.224D-04-0.919D-04-0.528D-03-0.996D-03
 Coeff-Com: -0.129D-02 0.482D-02 0.276D-01-0.132D-02-0.188D+00 0.431D-02
 Coeff-Com:  0.116D+01
 Coeff:     -0.187D-04 0.252D-04-0.224D-04-0.919D-04-0.528D-03-0.996D-03
 Coeff:     -0.129D-02 0.482D-02 0.276D-01-0.132D-02-0.188D+00 0.431D-02
 Coeff:      0.116D+01
 Gap=     0.247 Goal=   None    Shift=    0.000
 RMSDP=1.41D-06 MaxDP=1.11D-04 DE=-6.29D-09 OVMax= 5.32D-05

 Cycle  14  Pass 1  IDiag  1:
 RMSU=  4.32D-07    CP:  4.01D-01  2.36D+00  2.17D+00  8.09D-01  9.41D-01
                    CP:  8.66D-01  1.38D+00  1.27D+00  1.29D+00  1.66D+00
                    CP:  1.78D+00  1.47D+00  1.72D+00
 E= -3010.52908819462     Delta-E=       -0.000000001631 Rises=F Damp=F
 DIIS: error= 4.32D-07 at cycle  14 NSaved=  14.
 NSaved=14 IEnMin=14 EnMin= -3010.52908819462     IErMin=14 ErrMin= 4.32D-07
 ErrMax= 4.32D-07  0.00D+00 EMaxC= 1.00D-01 BMatC= 6.20D-11 BMatP= 2.49D-10
 IDIUse=1 WtCom= 1.00D+00 WtEn= 0.00D+00
 Coeff-Com:  0.215D-04-0.282D-04-0.514D-05-0.876D-04-0.248D-03-0.513D-03
 Coeff-Com: -0.197D-02 0.276D-02 0.244D-01 0.267D-01-0.151D+00-0.147D+00
 Coeff-Com:  0.387D+00 0.860D+00
 Coeff:      0.215D-04-0.282D-04-0.514D-05-0.876D-04-0.248D-03-0.513D-03
 Coeff:     -0.197D-02 0.276D-02 0.244D-01 0.267D-01-0.151D+00-0.147D+00
 Coeff:      0.387D+00 0.860D+00
 Gap=     0.247 Goal=   None    Shift=    0.000
 RMSDP=7.03D-07 MaxDP=5.17D-05 DE=-1.63D-09 OVMax= 2.13D-05

 Cycle  15  Pass 1  IDiag  1:
 RMSU=  1.47D-07    CP:  4.01D-01  2.36D+00  2.17D+00  8.09D-01  9.41D-01
                    CP:  8.66D-01  1.38D+00  1.27D+00  1.30D+00  1.67D+00
                    CP:  1.77D+00  1.55D+00  2.15D+00  1.29D+00
 E= -3010.52908819493     Delta-E=       -0.000000000307 Rises=F Damp=F
 DIIS: error= 2.25D-07 at cycle  15 NSaved=  15.
 NSaved=15 IEnMin=15 EnMin= -3010.52908819493     IErMin=15 ErrMin= 2.25D-07
 ErrMax= 2.25D-07  0.00D+00 EMaxC= 1.00D-01 BMatC= 1.08D-11 BMatP= 6.20D-11
 IDIUse=1 WtCom= 1.00D+00 WtEn= 0.00D+00
 Coeff-Com:  0.706D-05-0.938D-05 0.234D-05-0.182D-05 0.610D-04 0.106D-03
 Coeff-Com: -0.269D-03-0.565D-03 0.118D-02 0.795D-02-0.325D-02-0.585D-01
 Coeff-Com: -0.114D+00 0.330D+00 0.837D+00
 Coeff:      0.706D-05-0.938D-05 0.234D-05-0.182D-05 0.610D-04 0.106D-03
 Coeff:     -0.269D-03-0.565D-03 0.118D-02 0.795D-02-0.325D-02-0.585D-01
 Coeff:     -0.114D+00 0.330D+00 0.837D+00
 Gap=     0.247 Goal=   None    Shift=    0.000
 RMSDP=3.44D-07 MaxDP=3.20D-05 DE=-3.07D-10 OVMax= 8.69D-06

 Cycle  16  Pass 1  IDiag  1:
 RMSU=  4.05D-08    CP:  4.01D-01  2.36D+00  2.17D+00  8.09D-01  9.41D-01
                    CP:  8.66D-01  1.38D+00  1.27D+00  1.30D+00  1.68D+00
                    CP:  1.76D+00  1.56D+00  2.32D+00  1.50D+00  1.41D+00
 E= -3010.52908819502     Delta-E=       -0.000000000089 Rises=F Damp=F
 DIIS: error= 5.40D-08 at cycle  16 NSaved=  16.
 NSaved=16 IEnMin=16 EnMin= -3010.52908819502     IErMin=16 ErrMin= 5.40D-08
 ErrMax= 5.40D-08  0.00D+00 EMaxC= 1.00D-01 BMatC= 1.38D-12 BMatP= 1.08D-11
 IDIUse=1 WtCom= 1.00D+00 WtEn= 0.00D+00
 Coeff-Com:  0.172D-05-0.233D-05 0.191D-05 0.814D-05 0.444D-04 0.860D-04
 Coeff-Com:  0.132D-03-0.483D-03-0.248D-02 0.336D-03 0.183D-01 0.524D-02
 Coeff-Com: -0.902D-01-0.414D-01 0.200D+00 0.911D+00
 Coeff:      0.172D-05-0.233D-05 0.191D-05 0.814D-05 0.444D-04 0.860D-04
 Coeff:      0.132D-03-0.483D-03-0.248D-02 0.336D-03 0.183D-01 0.524D-02
 Coeff:     -0.902D-01-0.414D-01 0.200D+00 0.911D+00
 Gap=     0.247 Goal=   None    Shift=    0.000
 RMSDP=1.42D-07 MaxDP=1.41D-05 DE=-8.91D-11 OVMax= 2.50D-06

 Cycle  17  Pass 1  IDiag  1:
 RMSU=  2.10D-08    CP:  4.01D-01  2.36D+00  2.17D+00  8.09D-01  9.41D-01
                    CP:  8.66D-01  1.38D+00  1.27D+00  1.31D+00  1.68D+00
                    CP:  1.75D+00  1.56D+00  2.39D+00  1.59D+00  1.67D+00
                    CP:  1.29D+00
 E= -3010.52908819497     Delta-E=        0.000000000052 Rises=F Damp=F
 DIIS: error= 3.25D-08 at cycle  17 NSaved=  17.
 NSaved=17 IEnMin=16 EnMin= -3010.52908819502     IErMin=17 ErrMin= 3.25D-08
 ErrMax= 3.25D-08  0.00D+00 EMaxC= 1.00D-01 BMatC= 3.30D-13 BMatP= 1.38D-12
 IDIUse=1 WtCom= 1.00D+00 WtEn= 0.00D+00
 Coeff-Com: -0.104D-05 0.138D-05 0.124D-06 0.314D-05 0.528D-05 0.112D-04
 Coeff-Com:  0.727D-04-0.491D-04-0.103D-02-0.111D-02 0.445D-02 0.110D-01
 Coeff-Com: -0.135D-01-0.551D-01-0.726D-01 0.319D+00 0.808D+00
 Coeff:     -0.104D-05 0.138D-05 0.124D-06 0.314D-05 0.528D-05 0.112D-04
 Coeff:      0.727D-04-0.491D-04-0.103D-02-0.111D-02 0.445D-02 0.110D-01
 Coeff:     -0.135D-01-0.551D-01-0.726D-01 0.319D+00 0.808D+00
 Gap=     0.247 Goal=   None    Shift=    0.000
 RMSDP=3.22D-08 MaxDP=1.93D-06 DE= 5.18D-11 OVMax= 1.13D-06

 Cycle  18  Pass 1  IDiag  1:
 RMSU=  7.15D-09    CP:  4.01D-01  2.36D+00  2.17D+00  8.09D-01  9.41D-01
                    CP:  8.66D-01  1.38D+00  1.27D+00  1.31D+00  1.68D+00
                    CP:  1.75D+00  1.56D+00  2.40D+00  1.61D+00  1.76D+00
                    CP:  1.53D+00  1.13D+00
 E= -3010.52908819498     Delta-E=       -0.000000000010 Rises=F Damp=F
 DIIS: error= 1.22D-08 at cycle  18 NSaved=  18.
 NSaved=18 IEnMin=16 EnMin= -3010.52908819502     IErMin=18 ErrMin= 1.22D-08
 ErrMax= 1.22D-08  0.00D+00 EMaxC= 1.00D-01 BMatC= 6.83D-14 BMatP= 3.30D-13
 IDIUse=1 WtCom= 1.00D+00 WtEn= 0.00D+00
 Coeff-Com: -0.117D-06 0.158D-06-0.313D-06-0.172D-05-0.105D-04-0.206D-04
 Coeff-Com: -0.138D-04 0.138D-03 0.293D-03-0.302D-03-0.310D-02 0.393D-02
 Coeff-Com:  0.177D-01-0.590D-02-0.873D-01-0.106D+00 0.275D+00 0.906D+00
 Coeff:     -0.117D-06 0.158D-06-0.313D-06-0.172D-05-0.105D-04-0.206D-04
 Coeff:     -0.138D-04 0.138D-03 0.293D-03-0.302D-03-0.310D-02 0.393D-02
 Coeff:      0.177D-01-0.590D-02-0.873D-01-0.106D+00 0.275D+00 0.906D+00
 Gap=     0.247 Goal=   None    Shift=    0.000
 RMSDP=1.95D-08 MaxDP=2.21D-06 DE=-1.00D-11 OVMax= 3.91D-07

 Cycle  19  Pass 1  IDiag  1:
 RMSU=  2.53D-09    CP:  4.01D-01  2.36D+00  2.17D+00  8.09D-01  9.41D-01
                    CP:  8.66D-01  1.38D+00  1.27D+00  1.31D+00  1.68D+00
                    CP:  1.75D+00  1.56D+00  2.40D+00  1.61D+00  1.80D+00
                    CP:  1.66D+00  1.37D+00  1.18D+00
 E= -3010.52908819500     Delta-E=       -0.000000000026 Rises=F Damp=F
 DIIS: error= 2.53D-09 at cycle  19 NSaved=  19.
 NSaved=19 IEnMin=16 EnMin= -3010.52908819502     IErMin=19 ErrMin= 2.53D-09
 ErrMax= 2.53D-09  0.00D+00 EMaxC= 1.00D-01 BMatC= 3.15D-15 BMatP= 6.83D-14
 IDIUse=1 WtCom= 1.00D+00 WtEn= 0.00D+00
 Large coefficients: NSaved= 19 BigCof=    0.00 CofMax=   10.00 Det=-8.37D-15
 Inversion failed.  Reducing to 18 matrices.
 Large coefficients: NSaved= 18 BigCof=    0.00 CofMax=   10.00 Det=-8.24D-15
 Inversion failed.  Reducing to 17 matrices.
 Coeff-Com: -0.410D-07-0.111D-06 0.182D-06-0.469D-06-0.597D-05-0.137D-05
 Coeff-Com:  0.659D-04 0.140D-03-0.582D-03-0.476D-03 0.456D-03 0.558D-02
 Coeff-Com:  0.226D-02-0.221D-01-0.552D-01-0.847D-02 0.108D+01
 Coeff:     -0.410D-07-0.111D-06 0.182D-06-0.469D-06-0.597D-05-0.137D-05
 Coeff:      0.659D-04 0.140D-03-0.582D-03-0.476D-03 0.456D-03 0.558D-02
 Coeff:      0.226D-02-0.221D-01-0.552D-01-0.847D-02 0.108D+01
 Gap=     0.247 Goal=   None    Shift=    0.000
 RMSDP=3.46D-09 MaxDP=3.29D-07 DE=-2.59D-11 OVMax= 1.07D-07

 SCF Done:  E(RwB97XD) =  -3010.52908820     A.U. after   19 cycles
            NFock= 19  Conv=0.35D-08     -V/T= 2.0016
 KE= 3.005869373626D+03 PE=-8.707141783541D+03 EE= 1.910784988883D+03
 Leave Link  502 at Thu May  2 14:18:24 2024, MaxMem=   134217728 cpu:            1184.5 elap:            1184.8
 (Enter /software/gaussian/g16-c01/sse4/g16/l601.exe)
 Copying SCF densities to generalized density rwf, IOpCl= 0 IROHF=0.

 **********************************************************************

            Population analysis using the SCF Density.

 **********************************************************************

 Alpha  occ. eigenvalues -- -483.36872 -62.91904 -56.71587 -56.71032 -56.71023
 Alpha  occ. eigenvalues --  -19.56558 -19.56459 -14.95674 -10.65158 -10.63900
 Alpha  occ. eigenvalues --  -10.61872 -10.61201 -10.59892 -10.56435  -9.07718
 Alpha  occ. eigenvalues --   -6.90368  -6.88544  -6.88519  -3.00279  -2.99797
 Alpha  occ. eigenvalues --   -2.99776  -2.98316  -2.98316  -1.60135  -1.43200
 Alpha  occ. eigenvalues --   -1.28159  -1.18739  -1.18027  -1.10598  -1.06740
 Alpha  occ. eigenvalues --   -1.00522  -0.96640  -0.93193  -0.90157  -0.88539
 Alpha  occ. eigenvalues --   -0.86402  -0.83943  -0.82500  -0.81251  -0.77316
 Alpha  occ. eigenvalues --   -0.72609  -0.72374  -0.68612  -0.67839  -0.67249
 Alpha  occ. eigenvalues --   -0.66441  -0.65128  -0.62181  -0.60502
 Alpha virt. eigenvalues --   -0.35776  -0.28544  -0.21471  -0.19037  -0.15879
 Alpha virt. eigenvalues --   -0.12959  -0.12274  -0.11652  -0.10302  -0.08326
 Alpha virt. eigenvalues --   -0.07887  -0.07204  -0.07084  -0.06174  -0.05284
 Alpha virt. eigenvalues --   -0.05000  -0.04043  -0.03523  -0.03094  -0.02286
 Alpha virt. eigenvalues --   -0.01695  -0.00338  -0.00199   0.01094   0.01362
 Alpha virt. eigenvalues --    0.01818   0.02144   0.02841   0.03185   0.03947
 Alpha virt. eigenvalues --    0.04578   0.05147   0.06063   0.06436   0.07146
 Alpha virt. eigenvalues --    0.07334   0.08226   0.08656   0.09605   0.10462
 Alpha virt. eigenvalues --    0.11455   0.12110   0.12410   0.13158   0.13856
 Alpha virt. eigenvalues --    0.14686   0.14978   0.16155   0.17269   0.17371
 Alpha virt. eigenvalues --    0.18591   0.19651   0.20569   0.21081   0.22482
 Alpha virt. eigenvalues --    0.24997   0.25566   0.25777   0.28024   0.28980
 Alpha virt. eigenvalues --    0.31753   0.32043   0.34675   0.35153   0.37138
 Alpha virt. eigenvalues --    0.38994   0.39194   0.39713   0.40751   0.42056
 Alpha virt. eigenvalues --    0.43178   0.43501   0.45078   0.46357   0.47891
 Alpha virt. eigenvalues --    0.49833   0.50959   0.52209   0.53423   0.54761
 Alpha virt. eigenvalues --    0.57545   0.58473   0.58758   0.61922   0.64375
 Alpha virt. eigenvalues --    0.65571   0.66614   0.67648   0.69498   0.70566
 Alpha virt. eigenvalues --    0.71488   0.72196   0.72879   0.76569   0.77459
 Alpha virt. eigenvalues --    0.80712   0.81779   0.84507   0.88290   0.89881
 Alpha virt. eigenvalues --    0.91075   0.94790   0.97373   0.99334   1.00123
 Alpha virt. eigenvalues --    1.01218   1.03480   1.03989   1.05339   1.09786
 Alpha virt. eigenvalues --    1.12114   1.13374   1.22232   1.28021   1.31228
 Alpha virt. eigenvalues --    1.31826   1.33247   1.37843   1.47807   1.48888
 Alpha virt. eigenvalues --    1.51113   1.51593   1.55766   1.58027   1.60539
 Alpha virt. eigenvalues --    1.61681   1.64908   1.66086   1.70695   1.74056
 Alpha virt. eigenvalues --    1.79469   1.80224   1.81596   1.88801   1.90097
 Alpha virt. eigenvalues --    1.90541   1.95588   1.96745   2.01328   2.03428
 Alpha virt. eigenvalues --    2.07408   2.09483   2.15727   2.17842   2.23563
 Alpha virt. eigenvalues --    2.28451   2.33073   2.34643   2.38506   2.48298
 Alpha virt. eigenvalues --    2.53089   2.57107   2.60636   2.61405   2.63455
 Alpha virt. eigenvalues --    2.65420   2.66687   2.70584   2.71411   2.76675
 Alpha virt. eigenvalues --    2.87285   2.90574   2.93893   2.99728   3.03310
 Alpha virt. eigenvalues --    3.08756   3.11651   3.13291   3.13755   3.16318
 Alpha virt. eigenvalues --    3.21993   3.30068   3.42628   3.43669   3.45106
 Alpha virt. eigenvalues --    3.51035   3.58934   3.64198   3.78568   3.82088
 Alpha virt. eigenvalues --    4.04255   4.05115   4.13639   4.17836   4.34351
 Alpha virt. eigenvalues --    4.37986   4.48207   4.52025   4.82893   4.85656
 Alpha virt. eigenvalues --    4.94525   4.99012   5.51778   6.04582   6.62307
 Alpha virt. eigenvalues --    7.43146   7.45463   7.55625  23.17248  23.56130
 Alpha virt. eigenvalues --   23.66250  23.73617  23.91367  23.96464  35.21510
 Alpha virt. eigenvalues --   47.88439  49.74909  49.83572 289.76092 289.78432
 Alpha virt. eigenvalues --  289.910621020.89638
          Condensed to atoms (all electrons):
               1          2          3          4          5          6
     1  C    6.927089  -1.738626   0.529593   0.036541   0.290321   0.059657
     2  C   -1.738626  16.295454  -3.669933   0.464878  -0.027833   0.235317
     3  C    0.529593  -3.669933  18.835115  -0.934876   0.024207   0.100789
     4  C    0.036541   0.464878  -0.934876   6.206623   0.034803  -0.019255
     5  H    0.290321  -0.027833   0.024207   0.034803   0.294494  -0.001555
     6  H    0.059657   0.235317   0.100789  -0.019255  -0.001555   0.332769
     7  H    0.020853  -0.014753   0.009554   0.300154  -0.001842   0.000009
     8  N   -0.031125  -0.168044  -1.802713  -0.001665  -0.000464  -0.032209
     9  O   -0.004504   0.298142  -0.020322  -0.007719  -0.000021  -0.002157
    10  O    0.182998  -0.205158  -0.249511  -0.023127  -0.000050   0.015193
    11  C    0.459433  -0.714121   0.999901  -0.069621  -0.022060   0.010759
    12  H   -0.012429   0.019029   0.000581   0.033437   0.000050  -0.000015
    13  C   -0.604574  -4.813186  -7.491265   0.301618   0.023516  -0.029045
    14  H    0.000553   0.052839   0.198896  -0.004267  -0.000031   0.000095
    15  Br   0.016485  -0.192343  -0.372631  -0.005004   0.000032  -0.000913
               7          8          9         10         11         12
     1  C    0.020853  -0.031125  -0.004504   0.182998   0.459433  -0.012429
     2  C   -0.014753  -0.168044   0.298142  -0.205158  -0.714121   0.019029
     3  C    0.009554  -1.802713  -0.020322  -0.249511   0.999901   0.000581
     4  C    0.300154  -0.001665  -0.007719  -0.023127  -0.069621   0.033437
     5  H   -0.001842  -0.000464  -0.000021  -0.000050  -0.022060   0.000050
     6  H    0.000009  -0.032209  -0.002157   0.015193   0.010759  -0.000015
     7  H    0.274159   0.000148  -0.000006   0.000004   0.022834  -0.001662
     8  N    0.000148   7.374281   0.176868   0.288814  -0.045279  -0.000258
     9  O   -0.000006   0.176868   7.917833  -0.027632   0.139949   0.000153
    10  O    0.000004   0.288814  -0.027632   7.865256   0.014843  -0.000022
    11  C    0.022834  -0.045279   0.139949   0.014843   6.947439   0.314276
    12  H   -0.001662  -0.000258   0.000153  -0.000022   0.314276   0.281442
    13  C   -0.013639   1.354223  -0.448306   0.143601  -1.899877  -0.032493
    14  H   -0.000012  -0.048345   0.012895  -0.001869  -0.062310  -0.003536
    15  Br  -0.000426   0.172169  -0.058994   0.006695   0.056444   0.004432
              13         14         15
     1  C   -0.604574   0.000553   0.016485
     2  C   -4.813186   0.052839  -0.192343
     3  C   -7.491265   0.198896  -0.372631
     4  C    0.301618  -0.004267  -0.005004
     5  H    0.023516  -0.000031   0.000032
     6  H   -0.029045   0.000095  -0.000913
     7  H   -0.013639  -0.000012  -0.000426
     8  N    1.354223  -0.048345   0.172169
     9  O   -0.448306   0.012895  -0.058994
    10  O    0.143601  -0.001869   0.006695
    11  C   -1.899877  -0.062310   0.056444
    12  H   -0.032493  -0.003536   0.004432
    13  C   19.078955   0.158174   0.535427
    14  H    0.158174   0.356929  -0.051326
    15  Br   0.535427  -0.051326  34.737707
 Mulliken charges:
               1
     1  C   -0.132264
     2  C    0.178337
     3  C   -0.157387
     4  C   -0.312520
     5  H    0.386431
     6  H    0.330560
     7  H    0.404626
     8  N   -0.236401
     9  O    0.023820
    10  O   -0.010035
    11  C   -0.152610
    12  H    0.397012
    13  C   -0.263130
    14  H    0.391315
    15  Br   0.152247
 Sum of Mulliken charges =   1.00000
 Mulliken charges with hydrogens summed into heavy atoms:
               1
     1  C    0.254168
     2  C    0.508897
     3  C   -0.157387
     4  C    0.092106
     8  N   -0.236401
     9  O    0.023820
    10  O   -0.010035
    11  C    0.244402
    13  C    0.128185
    15  Br   0.152247
 Electronic spatial extent (au):  <R**2>=           3960.8526
 Charge=              1.0000 electrons
 Dipole moment (field-independent basis, Debye):
    X=             -1.9305    Y=             -0.6717    Z=             -0.5279  Tot=              2.1111
 Quadrupole moment (field-independent basis, Debye-Ang):
   XX=            -86.7702   YY=            -51.4942   ZZ=            -62.7016
   XY=             -1.7723   XZ=             -1.2706   YZ=              1.9272
 Traceless Quadrupole moment (field-independent basis, Debye-Ang):
   XX=            -19.7815   YY=             15.4944   ZZ=              4.2871
   XY=             -1.7723   XZ=             -1.2706   YZ=              1.9272
 Octapole moment (field-independent basis, Debye-Ang**2):
  XXX=           -610.5954  YYY=             93.8865  ZZZ=             84.5285  XYY=           -147.5646
  XXY=             27.7243  XXZ=             29.9772  XZZ=           -138.6647  YZZ=             18.5878
  YYZ=             26.9410  XYZ=              5.2388
 Hexadecapole moment (field-independent basis, Debye-Ang**3):
 XXXX=          -3938.2901 YYYY=           -704.3480 ZZZZ=           -399.6612 XXXY=            186.2089
 XXXZ=            197.9698 YYYX=            193.5771 YYYZ=           -175.6305 ZZZX=            176.1949
 ZZZY=           -147.9355 XXYY=           -669.0877 XXZZ=           -549.8060 YYZZ=           -174.6831
 XXYZ=            -50.8190 YYXZ=             56.2062 ZZXY=             36.1605
 N-N= 7.799583328372D+02 E-N=-8.707141783027D+03  KE= 3.005869373626D+03
 No NMR shielding tensors so no spin-rotation constants.
 Leave Link  601 at Thu May  2 14:18:31 2024, MaxMem=   134217728 cpu:               7.3 elap:               7.3
 (Enter /software/gaussian/g16-c01/sse4/g16/l9999.exe)
 Unable to Open any file for archive entry.
 1\1\GINC-BHX0008\SP\RwB97XD\6-311+G(d)\C6H5Br1N1O2(1+)\BWEIGHT\02-May-
 2024\0\\#P wB97XD/6-311+G* NoSymm #P Field=X+165\\TitleMe\\1,1\C,0,0.5
 193,1.233,-0.0319\C,0,1.9445,1.2692,-0.0367\C,0,2.6204,0.0928,-0.025\C
 ,0,-0.196,0.0301,0.001\H,0,-0.0207,2.1742,-0.0434\H,0,2.4828,2.2089,-0
 .0361\H,0,-1.2777,0.0399,0.0117\N,0,4.0921,0.0959,0.0366\O,0,4.6393,-1
 .0217,0.1446\O,0,4.6649,1.1984,-0.0233\C,0,0.4943,-1.1671,0.021\H,0,-0
 .0325,-2.1149,0.0545\C,0,1.9629,-1.2165,-0.0211\H,0,2.4436,-1.9631,0.6
 151\Br,0,2.173,-1.9491,-1.9062\\Version=ES64L-G16RevC.01\HF=-3010.5290
 882\RMSD=3.465e-09\Dipole=-5.0887457,0.9638615,1.0415258\Quadrupole=-1
 4.7070524,11.5197296,3.1873228,-1.3176838,-0.9446458,1.4327964\PG=C01 
 [X(C6H5Br1N1O2)]\\@
 The archive entry for this job was punched.


 A COMPLEXITY IS MERELY A DISARRANGEMENT OF SIMPLICITIES.

                                    -- G. O. ABELL IN "EXPLORATION OF THE UNIVERSE"
 Job cpu time:       0 days  0 hours 20 minutes 54.4 seconds.
 Elapsed time:       0 days  0 hours 20 minutes 54.9 seconds.
 File lengths (MBytes):  RWF=     40 Int=      0 D2E=      0 Chk=     32 Scr=      1
 Normal termination of Gaussian 16 at Thu May  2 14:18:32 2024.
