 Entering Gaussian System, Link 0=g16
 Initial command:
 /software/gaussian/g16-c01/sse4/g16/l1.exe "/local_scratch/24657558/Gau-10447.inp" -scrdir="/local_scratch/24657558/"
 Entering Link 1 = /software/gaussian/g16-c01/sse4/g16/l1.exe PID=     10461.
  
 Copyright (c) 1988-2019, Gaussian, Inc.  All Rights Reserved.
  
 This is part of the Gaussian(R) 16 program.  It is based on
 the Gaussian(R) 09 system (copyright 2009, Gaussian, Inc.),
 the Gaussian(R) 03 system (copyright 2003, Gaussian, Inc.),
 the Gaussian(R) 98 system (copyright 1998, Gaussian, Inc.),
 the Gaussian(R) 94 system (copyright 1995, Gaussian, Inc.),
 the Gaussian 92(TM) system (copyright 1992, Gaussian, Inc.),
 the Gaussian 90(TM) system (copyright 1990, Gaussian, Inc.),
 the Gaussian 88(TM) system (copyright 1988, Gaussian, Inc.),
 the Gaussian 86(TM) system (copyright 1986, Carnegie Mellon
 University), and the Gaussian 82(TM) system (copyright 1983,
 Carnegie Mellon University). Gaussian is a federally registered
 trademark of Gaussian, Inc.
  
 This software contains proprietary and confidential information,
 including trade secrets, belonging to Gaussian, Inc.
  
 This software is provided under written license and may be
 used, copied, transmitted, or stored only in accord with that
 written license.
  
 The following legend is applicable only to US Government
 contracts under FAR:
  
                    RESTRICTED RIGHTS LEGEND
  
 Use, reproduction and disclosure by the US Government is
 subject to restrictions as set forth in subparagraphs (a)
 and (c) of the Commercial Computer Software - Restricted
 Rights clause in FAR 52.227-19.
  
 Gaussian, Inc.
 340 Quinnipiac St., Bldg. 40, Wallingford CT 06492
  
  
 ---------------------------------------------------------------
 Warning -- This program may not be used in any manner that
 competes with the business of Gaussian, Inc. or will provide
 assistance to any competitor of Gaussian, Inc.  The licensee
 of this program is prohibited from giving any competitor of
 Gaussian, Inc. access to this program.  By using this program,
 the user acknowledges that Gaussian, Inc. is engaged in the
 business of creating and licensing software in the field of
 computational chemistry and represents and warrants to the
 licensee that it is not a competitor of Gaussian, Inc. and that
 it will not use this program in any manner prohibited above.
 ---------------------------------------------------------------
  

 Cite this work as:
 Gaussian 16, Revision C.01,
 M. J. Frisch, G. W. Trucks, H. B. Schlegel, G. E. Scuseria, 
 M. A. Robb, J. R. Cheeseman, G. Scalmani, V. Barone, 
 G. A. Petersson, H. Nakatsuji, X. Li, M. Caricato, A. V. Marenich, 
 J. Bloino, B. G. Janesko, R. Gomperts, B. Mennucci, H. P. Hratchian, 
 J. V. Ortiz, A. F. Izmaylov, J. L. Sonnenberg, D. Williams-Young, 
 F. Ding, F. Lipparini, F. Egidi, J. Goings, B. Peng, A. Petrone, 
 T. Henderson, D. Ranasinghe, V. G. Zakrzewski, J. Gao, N. Rega, 
 G. Zheng, W. Liang, M. Hada, M. Ehara, K. Toyota, R. Fukuda, 
 J. Hasegawa, M. Ishida, T. Nakajima, Y. Honda, O. Kitao, H. Nakai, 
 T. Vreven, K. Throssell, J. A. Montgomery, Jr., J. E. Peralta, 
 F. Ogliaro, M. J. Bearpark, J. J. Heyd, E. N. Brothers, K. N. Kudin, 
 V. N. Staroverov, T. A. Keith, R. Kobayashi, J. Normand, 
 K. Raghavachari, A. P. Rendell, J. C. Burant, S. S. Iyengar, 
 J. Tomasi, M. Cossi, J. M. Millam, M. Klene, C. Adamo, R. Cammi, 
 J. W. Ochterski, R. L. Martin, K. Morokuma, O. Farkas, 
 J. B. Foresman, and D. J. Fox, Gaussian, Inc., Wallingford CT, 2019.
 
 ******************************************
 Gaussian 16:  ES64L-G16RevC.01  3-Jul-2019
                 1-May-2024 
 ******************************************
 %chk=geometry.chk
 %mem=9GB
 %nprocshared=12
 Will use up to   12 processors via shared memory.
 ---------------------------------------
 #P wB97XD/6-311+G* NoSymm #P Field=Z-29
 ---------------------------------------
 1/38=1,172=1/1;
 2/12=2,15=1,17=6,18=5,40=1/2;
 3/5=4,6=6,7=11,11=2,14=3,15=-29,25=1,30=1,74=-58/1,2,3;
 4//1;
 5/5=2,38=5/2;
 6/7=2,8=2,9=2,10=2,28=1/1;
 99/5=1,9=1/99;
 Leave Link    1 at Wed May  1 15:05:01 2024, MaxMem=  1207959552 cpu:               1.2 elap:               1.2
 (Enter /software/gaussian/g16-c01/sse4/g16/l101.exe)
 -------
 TitleMe
 -------
 Symbolic Z-matrix:
 Charge =  1 Multiplicity = 1
 C                     0.0295    1.3397    0.0682 
 C                     1.4348    1.2867    0.0064 
 C                     2.1118    0.0511   -0.0054 
 C                     1.4451   -1.1372    0.0312 
 C                    -0.6879    0.1682    0.11 
 H                    -0.4713    2.2984    0.0781 
 H                     2.0273    2.1965   -0.0322 
 H                     1.9897   -2.0764    0.0232 
 H                    -1.7716    0.1804    0.1582 
 N                     3.5864    0.051    -0.0675 
 O                     4.1471   -1.0597   -0.0881 
 O                     4.145     1.1639   -0.0901 
 C                    -0.0236   -1.1458    0.0835 
 H                    -0.4367   -1.8725    0.7889 
 Br                   -0.5359   -1.8697   -1.7408 
 
 ITRead=  0  0  0  0  0  0  0  0  0  0  0  0  0  0  0
 MicOpt= -1 -1 -1 -1 -1 -1 -1 -1 -1 -1 -1 -1 -1 -1 -1
 NAtoms=     15 NQM=       15 NQMF=       0 NMMI=      0 NMMIF=      0
                NMic=       0 NMicF=      0.
                    Isotopes and Nuclear Properties:
 (Nuclear quadrupole moments (NQMom) in fm**2, nuclear magnetic moments (NMagM)
  in nuclear magnetons)

  Atom         1           2           3           4           5           6           7           8           9          10
 IAtWgt=          12          12          12          12          12           1           1           1           1          14
 AtmWgt=  12.0000000  12.0000000  12.0000000  12.0000000  12.0000000   1.0078250   1.0078250   1.0078250   1.0078250  14.0030740
 NucSpn=           0           0           0           0           0           1           1           1           1           2
 AtZEff=  -0.0000000  -0.0000000  -0.0000000  -0.0000000  -0.0000000  -0.0000000  -0.0000000  -0.0000000  -0.0000000  -0.0000000
 NQMom=    0.0000000   0.0000000   0.0000000   0.0000000   0.0000000   0.0000000   0.0000000   0.0000000   0.0000000   2.0440000
 NMagM=    0.0000000   0.0000000   0.0000000   0.0000000   0.0000000   2.7928460   2.7928460   2.7928460   2.7928460   0.4037610
 AtZNuc=   6.0000000   6.0000000   6.0000000   6.0000000   6.0000000   1.0000000   1.0000000   1.0000000   1.0000000   7.0000000

  Atom        11          12          13          14          15
 IAtWgt=          16          16          12           1          79
 AtmWgt=  15.9949146  15.9949146  12.0000000   1.0078250  78.9183361
 NucSpn=           0           0           0           1           3
 AtZEff=  -0.0000000  -0.0000000  -0.0000000  -0.0000000  -0.0000000
 NQMom=    0.0000000   0.0000000   0.0000000   0.0000000  31.3000000
 NMagM=    0.0000000   0.0000000   0.0000000   2.7928460   2.1063990
 AtZNuc=   8.0000000   8.0000000   6.0000000   1.0000000  35.0000000
 Leave Link  101 at Wed May  1 15:05:02 2024, MaxMem=  1207959552 cpu:               1.4 elap:               1.4
 (Enter /software/gaussian/g16-c01/sse4/g16/l202.exe)
                          Input orientation:                          
 ---------------------------------------------------------------------
 Center     Atomic      Atomic             Coordinates (Angstroms)
 Number     Number       Type             X           Y           Z
 ---------------------------------------------------------------------
      1          6           0        0.029500    1.339700    0.068200
      2          6           0        1.434800    1.286700    0.006400
      3          6           0        2.111800    0.051100   -0.005400
      4          6           0        1.445100   -1.137200    0.031200
      5          6           0       -0.687900    0.168200    0.110000
      6          1           0       -0.471300    2.298400    0.078100
      7          1           0        2.027300    2.196500   -0.032200
      8          1           0        1.989700   -2.076400    0.023200
      9          1           0       -1.771600    0.180400    0.158200
     10          7           0        3.586400    0.051000   -0.067500
     11          8           0        4.147100   -1.059700   -0.088100
     12          8           0        4.145000    1.163900   -0.090100
     13          6           0       -0.023600   -1.145800    0.083500
     14          1           0       -0.436700   -1.872500    0.788900
     15         35           0       -0.535900   -1.869700   -1.740800
 ---------------------------------------------------------------------
                    Distance matrix (angstroms):
                    1          2          3          4          5
     1  C    0.000000
     2  C    1.407656   0.000000
     3  C    2.449874   1.408963   0.000000
     4  C    2.853126   2.424049   1.363043   0.000000
     5  C    1.374344   2.401589   2.804523   2.501993   0.000000
     6  H    1.081667   2.159142   3.424870   3.934226   2.141421
     7  H    2.176095   1.086408   2.147231   3.384750   3.392128
     8  H    3.938800   3.408612   2.131193   1.085702   3.495040
     9  H    2.143837   3.395283   3.888995   3.478413   1.084840
    10  N    3.785591   2.482297   1.475907   2.450862   4.279589
    11  O    4.768247   3.587631   2.320164   2.705743   4.992415
    12  O    4.122294   2.714696   2.319353   3.549540   4.938459
    13  C    2.486114   2.837240   2.449573   1.469656   1.472614
    14  H    3.324903   3.754379   3.290289   2.157764   2.165286
    15  Br   3.727252   4.110867   3.702891   2.756973   2.757100
                    6          7          8          9         10
     6  H    0.000000
     7  H    2.503108   0.000000
     8  H    5.019802   4.273425   0.000000
     9  H    2.486588   4.304945   4.388479   0.000000
    10  N    4.640790   2.652397   2.661486   5.364313   0.000000
    11  O    5.712624   3.885809   2.387560   6.052233   1.244373
    12  O    4.756638   2.356750   3.893289   6.002923   1.245428
    13  C    3.473180   3.923079   2.218790   2.195425   3.806210
    14  H    4.231175   4.827242   2.552506   2.528663   4.540772
    15  Br   4.548146   5.101303   3.087568   3.055498   4.845862
                   11         12         13         14         15
    11  O    0.000000
    12  O    2.223602   0.000000
    13  C    4.175117   4.768865   0.000000
    14  H    4.737193   5.566358   1.093770   0.000000
    15  Br   5.031700   5.817075   2.028436   2.531646   0.000000
 Symmetry turned off by external request.
 Stoichiometry    C6H5BrNO2(1+)
 Framework group  C1[X(C6H5BrNO2)]
 Deg. of freedom    39
 Full point group                 C1      NOp   1
 Rotational constants (GHZ):           1.8252210           0.5518633           0.4576002
 Leave Link  202 at Wed May  1 15:05:03 2024, MaxMem=  1207959552 cpu:               1.1 elap:               1.2
 (Enter /software/gaussian/g16-c01/sse4/g16/l301.exe)
 Standard basis: 6-311+G(d) (5D, 7F)
 Ernie: Thresh=  0.10000D-02 Tol=  0.10000D-05 Strict=F.
 The following finite field(s) will be applied:
 An electric field of              0.0000  0.0000 -0.0029
   261 basis functions,   443 primitive gaussians,   273 cartesian basis functions
    49 alpha electrons       49 beta electrons
       nuclear repulsion energy       739.2122215416 Hartrees.
 IExCor= 4639 DFT=T Ex+Corr=wB97XD ExCW=0 ScaHFX=  1.000000
 ScaDFX=  1.000000  1.000000  1.000000  1.000000 ScalE2=  1.000000  1.000000
 IRadAn=      5 IRanWt=     -1 IRanGd=            0 ICorTp=0 IEmpDi=121
 HFx  wShort=  0.000000 wLong=  0.200000 cFull=  0.222036 cShort=  0.000000 cLong=  0.777964
 DFx  wShort=  0.000000 wLong=  0.200000 cFull=  0.000000 cShort=  0.000000 cLong=  1.000000
 NAtoms=   15 NActive=   15 NUniq=   15 SFac= 1.00D+00 NAtFMM=   60 NAOKFM=F Big=F
 Integral buffers will be    131072 words long.
 Raffenetti 2 integral format.
 Two-electron integral symmetry is turned off.
 R6Disp:  Grimme-D2 Dispersion energy=       -0.0077368520 Hartrees.
 Nuclear repulsion after empirical dispersion term =      739.2044846896 Hartrees.
 Leave Link  301 at Wed May  1 15:05:04 2024, MaxMem=  1207959552 cpu:               1.0 elap:               1.0
 (Enter /software/gaussian/g16-c01/sse4/g16/l302.exe)
 NPDir=0 NMtPBC=     1 NCelOv=     1 NCel=       1 NClECP=     1 NCelD=      1
         NCelK=      1 NCelE2=     1 NClLst=     1 CellRange=     0.0.
 One-electron integrals computed using PRISM.
 NBasis=   261 RedAO= T EigKep=  2.35D-06  NBF=   261
 NBsUse=   261 1.00D-06 EigRej= -1.00D+00 NBFU=   261
 Precomputing XC quadrature grid using
 IXCGrd= 4 IRadAn=           5 IRanWt=          -1 IRanGd=           0 AccXCQ= 0.00D+00.
 Generated NRdTot=       0 NPtTot=           0 NUsed=           0 NTot=          32
 NSgBfM=   273   273   273   273   273 MxSgAt=    15 MxSgA2=    15.
 Leave Link  302 at Wed May  1 15:05:25 2024, MaxMem=  1207959552 cpu:              20.6 elap:              20.6
 (Enter /software/gaussian/g16-c01/sse4/g16/l303.exe)
 DipDrv:  MaxL=1.
 The nuclear repulsion energy is now       739.5335518648 hartrees.
 Leave Link  303 at Wed May  1 15:05:28 2024, MaxMem=  1207959552 cpu:               3.2 elap:               3.2
 (Enter /software/gaussian/g16-c01/sse4/g16/l401.exe)
 ExpMin= 3.50D-02 ExpMax= 4.40D+05 ExpMxC= 1.51D+04 IAcc=3 IRadAn=         5 AccDes= 0.00D+00
 Harris functional with IExCor= 4639 and IRadAn=       5 diagonalized for initial guess.
 HarFok:  IExCor= 4639 AccDes= 0.00D+00 IRadAn=         5 IDoV= 1 UseB2=F ITyADJ=14
 ICtDFT=  3500011 ScaDFX=  1.000000  1.000000  1.000000  1.000000
 FoFCou: FMM=F IPFlag=           0 FMFlag=      100000 FMFlg1=           0
         NFxFlg=           0 DoJE=T BraDBF=F KetDBF=T FulRan=T
         wScrn=  0.000000 ICntrl=       500 IOpCl=  0 I1Cent=   200000004 NGrid=           0
         NMat0=    1 NMatS0=      1 NMatT0=    0 NMatD0=    1 NMtDS0=    0 NMtDT0=    0
 Symmetry not used in FoFCou.
 Harris En= -2970.59784345184    
 JPrj=0 DoOrth=F DoCkMO=F.
 Leave Link  401 at Wed May  1 15:05:57 2024, MaxMem=  1207959552 cpu:              29.4 elap:              29.4
 (Enter /software/gaussian/g16-c01/sse4/g16/l502.exe)
 Two-electron integral symmetry not used.
 Closed shell SCF:
 Using DIIS extrapolation, IDIIS=  1040.
 NGot=  1207959552 LenX=  1207804877 LenY=  1207729907
 Requested convergence on RMS density matrix=1.00D-08 within 128 cycles.
 Requested convergence on MAX density matrix=1.00D-06.
 Requested convergence on             energy=1.00D-06.
 No special actions if energy rises.
 Fock matrices will be formed incrementally for  20 cycles.

 Cycle   1  Pass 1  IDiag  1:
 FoFJK:  IHMeth= 1 ICntrl=       0 DoSepK=T KAlg= 0 I1Cent=           0 FoldK=F
 IRaf=         1 NMat=       1 IRICut=       1 DoRegI=T DoRafI=F ISym2E= 0 IDoP0=0 IntGTp=1.
 FoFCou: FMM=F IPFlag=           0 FMFlag=      100000 FMFlg1=           0
         NFxFlg=           0 DoJE=T BraDBF=F KetDBF=F FulRan=T
         wScrn=  0.000000 ICntrl=       500 IOpCl=  0 I1Cent=           0 NGrid=           0
         NMat0=    1 NMatS0=      1 NMatT0=    0 NMatD0=    1 NMtDS0=    0 NMtDT0=    0
 Symmetry not used in FoFCou.
 E= -3009.72662431575    
 DIIS: error= 3.20D-01 at cycle   1 NSaved=   1.
 NSaved= 1 IEnMin= 1 EnMin= -3009.72662431575     IErMin= 1 ErrMin= 3.20D-01
 ErrMax= 3.20D-01  0.00D+00 EMaxC= 1.00D-01 BMatC= 1.19D+01 BMatP= 1.19D+01
 IDIUse=3 WtCom= 0.00D+00 WtEn= 1.00D+00
 Coeff-Com:  0.100D+01
 Coeff-En:   0.100D+01
 Coeff:      0.100D+01
 Gap=     0.323 Goal=   None    Shift=    0.000
 GapD=    0.323 DampG=1.000 DampE=0.250 DampFc=0.2500 IDamp=-1.
 Damping current iteration by 2.50D-01
 RMSDP=3.84D-02 MaxDP=3.70D+00              OVMax= 2.56D-01

 Cycle   2  Pass 1  IDiag  1:
 RMSU=  3.94D-03    CP:  9.00D-01
 E= -3010.00846478338     Delta-E=       -0.281840467626 Rises=F Damp=T
 DIIS: error= 2.25D-01 at cycle   2 NSaved=   2.
 NSaved= 2 IEnMin= 2 EnMin= -3010.00846478338     IErMin= 2 ErrMin= 2.25D-01
 ErrMax= 2.25D-01  0.00D+00 EMaxC= 1.00D-01 BMatC= 5.45D+00 BMatP= 1.19D+01
 IDIUse=3 WtCom= 0.00D+00 WtEn= 1.00D+00
 Coeff-Com: -0.184D+01 0.284D+01
 Coeff-En:   0.000D+00 0.100D+01
 Coeff:      0.000D+00 0.100D+01
 Gap=     0.295 Goal=   None    Shift=    0.000
 RMSDP=3.02D-02 MaxDP=2.89D+00 DE=-2.82D-01 OVMax= 7.56D-02

 Cycle   3  Pass 1  IDiag  1:
 RMSU=  4.19D-03    CP:  5.77D-01  3.00D+00
 E= -3010.38799098031     Delta-E=       -0.379526196936 Rises=F Damp=F
 DIIS: error= 6.54D-02 at cycle   3 NSaved=   3.
 NSaved= 3 IEnMin= 3 EnMin= -3010.38799098031     IErMin= 3 ErrMin= 6.54D-02
 ErrMax= 6.54D-02  0.00D+00 EMaxC= 1.00D-01 BMatC= 7.26D-01 BMatP= 5.45D+00
 IDIUse=3 WtCom= 3.46D-01 WtEn= 6.54D-01
 Coeff-Com:  0.278D+01-0.365D+01 0.188D+01
 Coeff-En:   0.207D-01 0.000D+00 0.979D+00
 Coeff:      0.974D+00-0.126D+01 0.129D+01
 Gap=     0.261 Goal=   None    Shift=    0.000
 RMSDP=8.20D-03 MaxDP=4.36D-01 DE=-3.80D-01 OVMax= 6.54D-02

 Cycle   4  Pass 1  IDiag  1:
 RMSU=  4.53D-03    CP:  5.94D-01  2.14D+00  2.11D+00
 E= -3010.48950275153     Delta-E=       -0.101511771220 Rises=F Damp=F
 DIIS: error= 3.85D-02 at cycle   4 NSaved=   4.
 NSaved= 4 IEnMin= 4 EnMin= -3010.48950275153     IErMin= 4 ErrMin= 3.85D-02
 ErrMax= 3.85D-02  0.00D+00 EMaxC= 1.00D-01 BMatC= 2.32D-01 BMatP= 7.26D-01
 IDIUse=3 WtCom= 6.15D-01 WtEn= 3.85D-01
 Coeff-Com: -0.176D+00 0.248D+00 0.277D+00 0.652D+00
 Coeff-En:   0.000D+00 0.000D+00 0.197D+00 0.803D+00
 Coeff:     -0.109D+00 0.153D+00 0.246D+00 0.710D+00
 Gap=     0.262 Goal=   None    Shift=    0.000
 RMSDP=3.29D-03 MaxDP=2.43D-01 DE=-1.02D-01 OVMax= 2.63D-02

 Cycle   5  Pass 1  IDiag  1:
 RMSU=  1.19D-03    CP:  5.65D-01  2.54D+00  1.95D+00  8.93D-01
 E= -3010.53397345234     Delta-E=       -0.044470700808 Rises=F Damp=F
 DIIS: error= 6.85D-03 at cycle   5 NSaved=   5.
 NSaved= 5 IEnMin= 5 EnMin= -3010.53397345234     IErMin= 5 ErrMin= 6.85D-03
 ErrMax= 6.85D-03  0.00D+00 EMaxC= 1.00D-01 BMatC= 7.35D-03 BMatP= 2.32D-01
 IDIUse=3 WtCom= 9.32D-01 WtEn= 6.85D-02
 Coeff-Com: -0.134D+00 0.182D+00 0.443D-01 0.319D+00 0.588D+00
 Coeff-En:   0.000D+00 0.000D+00 0.000D+00 0.000D+00 0.100D+01
 Coeff:     -0.125D+00 0.170D+00 0.413D-01 0.298D+00 0.617D+00
 Gap=     0.260 Goal=   None    Shift=    0.000
 RMSDP=5.52D-04 MaxDP=3.52D-02 DE=-4.45D-02 OVMax= 1.02D-02

 Cycle   6  Pass 1  IDiag  1:
 RMSU=  4.26D-04    CP:  5.64D-01  2.52D+00  1.96D+00  8.84D-01  7.19D-01
 E= -3010.53544297226     Delta-E=       -0.001469519921 Rises=F Damp=F
 DIIS: error= 1.39D-03 at cycle   6 NSaved=   6.
 NSaved= 6 IEnMin= 6 EnMin= -3010.53544297226     IErMin= 6 ErrMin= 1.39D-03
 ErrMax= 1.39D-03  0.00D+00 EMaxC= 1.00D-01 BMatC= 1.92D-04 BMatP= 7.35D-03
 IDIUse=3 WtCom= 9.86D-01 WtEn= 1.39D-02
 Coeff-Com: -0.883D-01 0.119D+00-0.321D-02 0.149D+00 0.369D+00 0.455D+00
 Coeff-En:   0.000D+00 0.000D+00 0.000D+00 0.000D+00 0.000D+00 0.100D+01
 Coeff:     -0.871D-01 0.117D+00-0.316D-02 0.147D+00 0.363D+00 0.462D+00
 Gap=     0.258 Goal=   None    Shift=    0.000
 RMSDP=1.85D-04 MaxDP=1.18D-02 DE=-1.47D-03 OVMax= 6.08D-03

 Cycle   7  Pass 1  IDiag  1:
 RMSU=  1.15D-04    CP:  5.64D-01  2.51D+00  1.97D+00  8.91D-01  8.10D-01
                    CP:  8.60D-01
 E= -3010.53557795475     Delta-E=       -0.000134982487 Rises=F Damp=F
 DIIS: error= 5.10D-04 at cycle   7 NSaved=   7.
 NSaved= 7 IEnMin= 7 EnMin= -3010.53557795475     IErMin= 7 ErrMin= 5.10D-04
 ErrMax= 5.10D-04  0.00D+00 EMaxC= 1.00D-01 BMatC= 2.33D-05 BMatP= 1.92D-04
 IDIUse=3 WtCom= 9.95D-01 WtEn= 5.10D-03
 EnCoef did     6 forward-backward iterations
 Coeff-Com: -0.355D-01 0.472D-01-0.132D-01 0.342D-01 0.106D+00 0.270D+00
 Coeff-Com:  0.591D+00
 Coeff-En:   0.000D+00 0.000D+00 0.000D+00 0.000D+00 0.000D+00 0.186D-02
 Coeff-En:   0.998D+00
 Coeff:     -0.353D-01 0.470D-01-0.132D-01 0.340D-01 0.105D+00 0.269D+00
 Coeff:      0.593D+00
 Gap=     0.258 Goal=   None    Shift=    0.000
 RMSDP=9.34D-05 MaxDP=7.08D-03 DE=-1.35D-04 OVMax= 2.63D-03

 Cycle   8  Pass 1  IDiag  1:
 RMSU=  5.08D-05    CP:  5.64D-01  2.50D+00  1.98D+00  8.98D-01  8.43D-01
                    CP:  9.07D-01  8.89D-01
 E= -3010.53560036829     Delta-E=       -0.000022413541 Rises=F Damp=F
 DIIS: error= 1.11D-04 at cycle   8 NSaved=   8.
 NSaved= 8 IEnMin= 8 EnMin= -3010.53560036829     IErMin= 8 ErrMin= 1.11D-04
 ErrMax= 1.11D-04  0.00D+00 EMaxC= 1.00D-01 BMatC= 2.26D-06 BMatP= 2.33D-05
 IDIUse=3 WtCom= 9.99D-01 WtEn= 1.11D-03
 Coeff-Com:  0.646D-02-0.884D-02-0.289D-02-0.162D-01-0.411D-01-0.289D-01
 Coeff-Com:  0.159D+00 0.932D+00
 Coeff-En:   0.000D+00 0.000D+00 0.000D+00 0.000D+00 0.000D+00 0.000D+00
 Coeff-En:   0.000D+00 0.100D+01
 Coeff:      0.645D-02-0.883D-02-0.289D-02-0.162D-01-0.411D-01-0.289D-01
 Coeff:      0.159D+00 0.932D+00
 Gap=     0.258 Goal=   None    Shift=    0.000
 RMSDP=5.62D-05 MaxDP=4.44D-03 DE=-2.24D-05 OVMax= 2.12D-03

 Cycle   9  Pass 1  IDiag  1:
 RMSU=  2.22D-05    CP:  5.64D-01  2.49D+00  1.98D+00  8.98D-01  8.48D-01
                    CP:  9.86D-01  1.08D+00  1.26D+00
 E= -3010.53560558809     Delta-E=       -0.000005219801 Rises=F Damp=F
 DIIS: error= 4.61D-05 at cycle   9 NSaved=   9.
 NSaved= 9 IEnMin= 9 EnMin= -3010.53560558809     IErMin= 9 ErrMin= 4.61D-05
 ErrMax= 4.61D-05  0.00D+00 EMaxC= 1.00D-01 BMatC= 2.45D-07 BMatP= 2.26D-06
 IDIUse=1 WtCom= 1.00D+00 WtEn= 0.00D+00
 Coeff-Com:  0.667D-02-0.895D-02 0.814D-03-0.963D-02-0.248D-01-0.468D-01
 Coeff-Com: -0.388D-01 0.283D+00 0.838D+00
 Coeff:      0.667D-02-0.895D-02 0.814D-03-0.963D-02-0.248D-01-0.468D-01
 Coeff:     -0.388D-01 0.283D+00 0.838D+00
 Gap=     0.258 Goal=   None    Shift=    0.000
 RMSDP=1.63D-05 MaxDP=8.86D-04 DE=-5.22D-06 OVMax= 9.76D-04

 Cycle  10  Pass 1  IDiag  1:
 RMSU=  7.17D-06    CP:  5.64D-01  2.49D+00  1.98D+00  8.98D-01  8.53D-01
                    CP:  1.00D+00  1.13D+00  1.38D+00  1.10D+00
 E= -3010.53560642383     Delta-E=       -0.000000835734 Rises=F Damp=F
 DIIS: error= 1.62D-05 at cycle  10 NSaved=  10.
 NSaved=10 IEnMin=10 EnMin= -3010.53560642383     IErMin=10 ErrMin= 1.62D-05
 ErrMax= 1.62D-05  0.00D+00 EMaxC= 1.00D-01 BMatC= 5.48D-08 BMatP= 2.45D-07
 IDIUse=1 WtCom= 1.00D+00 WtEn= 0.00D+00
 Coeff-Com:  0.393D-03-0.503D-03 0.361D-03-0.150D-03 0.141D-02-0.562D-02
 Coeff-Com: -0.329D-01-0.606D-01 0.236D+00 0.861D+00
 Coeff:      0.393D-03-0.503D-03 0.361D-03-0.150D-03 0.141D-02-0.562D-02
 Coeff:     -0.329D-01-0.606D-01 0.236D+00 0.861D+00
 Gap=     0.258 Goal=   None    Shift=    0.000
 RMSDP=8.41D-06 MaxDP=5.56D-04 DE=-8.36D-07 OVMax= 3.84D-04

 Cycle  11  Pass 1  IDiag  1:
 RMSU=  4.16D-06    CP:  5.64D-01  2.49D+00  1.98D+00  8.98D-01  8.52D-01
                    CP:  1.01D+00  1.14D+00  1.39D+00  1.26D+00  1.12D+00
 E= -3010.53560655351     Delta-E=       -0.000000129681 Rises=F Damp=F
 DIIS: error= 6.82D-06 at cycle  11 NSaved=  11.
 NSaved=11 IEnMin=11 EnMin= -3010.53560655351     IErMin=11 ErrMin= 6.82D-06
 ErrMax= 6.82D-06  0.00D+00 EMaxC= 1.00D-01 BMatC= 3.47D-09 BMatP= 5.48D-08
 IDIUse=1 WtCom= 1.00D+00 WtEn= 0.00D+00
 Coeff-Com: -0.297D-03 0.400D-03 0.444D-04 0.788D-03 0.261D-02 0.473D-02
 Coeff-Com:  0.406D-02-0.309D-01-0.968D-01 0.198D-01 0.110D+01
 Coeff:     -0.297D-03 0.400D-03 0.444D-04 0.788D-03 0.261D-02 0.473D-02
 Coeff:      0.406D-02-0.309D-01-0.968D-01 0.198D-01 0.110D+01
 Gap=     0.258 Goal=   None    Shift=    0.000
 RMSDP=3.00D-06 MaxDP=1.34D-04 DE=-1.30D-07 OVMax= 1.85D-04

 Cycle  12  Pass 1  IDiag  1:
 RMSU=  1.05D-06    CP:  5.64D-01  2.49D+00  1.98D+00  8.97D-01  8.52D-01
                    CP:  1.01D+00  1.13D+00  1.39D+00  1.31D+00  1.31D+00
                    CP:  1.29D+00
 E= -3010.53560657326     Delta-E=       -0.000000019751 Rises=F Damp=F
 DIIS: error= 2.09D-06 at cycle  12 NSaved=  12.
 NSaved=12 IEnMin=12 EnMin= -3010.53560657326     IErMin=12 ErrMin= 2.09D-06
 ErrMax= 2.09D-06  0.00D+00 EMaxC= 1.00D-01 BMatC= 1.13D-09 BMatP= 3.47D-09
 IDIUse=1 WtCom= 1.00D+00 WtEn= 0.00D+00
 Coeff-Com: -0.175D-03 0.233D-03-0.146D-04 0.372D-03 0.803D-03 0.255D-02
 Coeff-Com:  0.631D-02-0.509D-02-0.765D-01-0.116D+00 0.506D+00 0.681D+00
 Coeff:     -0.175D-03 0.233D-03-0.146D-04 0.372D-03 0.803D-03 0.255D-02
 Coeff:      0.631D-02-0.509D-02-0.765D-01-0.116D+00 0.506D+00 0.681D+00
 Gap=     0.258 Goal=   None    Shift=    0.000
 RMSDP=1.24D-06 MaxDP=1.09D-04 DE=-1.98D-08 OVMax= 4.91D-05

 Cycle  13  Pass 1  IDiag  1:
 RMSU=  3.58D-07    CP:  5.64D-01  2.49D+00  1.98D+00  8.97D-01  8.52D-01
                    CP:  1.01D+00  1.13D+00  1.39D+00  1.33D+00  1.33D+00
                    CP:  1.45D+00  8.53D-01
 E= -3010.53560657565     Delta-E=       -0.000000002387 Rises=F Damp=F
 DIIS: error= 7.00D-07 at cycle  13 NSaved=  13.
 NSaved=13 IEnMin=13 EnMin= -3010.53560657565     IErMin=13 ErrMin= 7.00D-07
 ErrMax= 7.00D-07  0.00D+00 EMaxC= 1.00D-01 BMatC= 1.10D-10 BMatP= 1.13D-09
 IDIUse=1 WtCom= 1.00D+00 WtEn= 0.00D+00
 Coeff-Com: -0.300D-04 0.400D-04-0.832D-05-0.703D-05-0.284D-03-0.459D-03
 Coeff-Com:  0.158D-03 0.268D-02 0.595D-03-0.193D-01-0.420D-01 0.164D+00
 Coeff-Com:  0.894D+00
 Coeff:     -0.300D-04 0.400D-04-0.832D-05-0.703D-05-0.284D-03-0.459D-03
 Coeff:      0.158D-03 0.268D-02 0.595D-03-0.193D-01-0.420D-01 0.164D+00
 Coeff:      0.894D+00
 Gap=     0.258 Goal=   None    Shift=    0.000
 RMSDP=3.40D-07 MaxDP=2.15D-05 DE=-2.39D-09 OVMax= 1.12D-05

 Cycle  14  Pass 1  IDiag  1:
 RMSU=  1.88D-07    CP:  5.64D-01  2.49D+00  1.98D+00  8.97D-01  8.52D-01
                    CP:  1.01D+00  1.13D+00  1.39D+00  1.33D+00  1.33D+00
                    CP:  1.48D+00  9.93D-01  1.12D+00
 E= -3010.53560657581     Delta-E=       -0.000000000163 Rises=F Damp=F
 DIIS: error= 2.27D-07 at cycle  14 NSaved=  14.
 NSaved=14 IEnMin=14 EnMin= -3010.53560657581     IErMin=14 ErrMin= 2.27D-07
 ErrMax= 2.27D-07  0.00D+00 EMaxC= 1.00D-01 BMatC= 1.40D-11 BMatP= 1.10D-10
 IDIUse=1 WtCom= 1.00D+00 WtEn= 0.00D+00
 Coeff-Com: -0.124D-05 0.189D-05-0.402D-05-0.390D-04-0.202D-03-0.499D-03
 Coeff-Com: -0.674D-03 0.190D-02 0.962D-02 0.572D-02-0.864D-01-0.605D-02
 Coeff-Com:  0.335D+00 0.741D+00
 Coeff:     -0.124D-05 0.189D-05-0.402D-05-0.390D-04-0.202D-03-0.499D-03
 Coeff:     -0.674D-03 0.190D-02 0.962D-02 0.572D-02-0.864D-01-0.605D-02
 Coeff:      0.335D+00 0.741D+00
 Gap=     0.258 Goal=   None    Shift=    0.000
 RMSDP=1.03D-07 MaxDP=6.45D-06 DE=-1.63D-10 OVMax= 2.71D-06

 Cycle  15  Pass 1  IDiag  1:
 RMSU=  4.39D-08    CP:  5.64D-01  2.49D+00  1.98D+00  8.97D-01  8.52D-01
                    CP:  1.01D+00  1.13D+00  1.39D+00  1.33D+00  1.33D+00
                    CP:  1.48D+00  1.04D+00  1.19D+00  1.12D+00
 E= -3010.53560657585     Delta-E=       -0.000000000038 Rises=F Damp=F
 DIIS: error= 1.04D-07 at cycle  15 NSaved=  15.
 NSaved=15 IEnMin=15 EnMin= -3010.53560657585     IErMin=15 ErrMin= 1.04D-07
 ErrMax= 1.04D-07  0.00D+00 EMaxC= 1.00D-01 BMatC= 1.85D-12 BMatP= 1.40D-11
 IDIUse=1 WtCom= 1.00D+00 WtEn= 0.00D+00
 Coeff-Com:  0.405D-05-0.539D-05 0.870D-07-0.578D-05 0.995D-05-0.339D-04
 Coeff-Com: -0.154D-03 0.214D-04 0.175D-02 0.440D-02-0.139D-01-0.164D-01
 Coeff-Com: -0.817D-01 0.170D+00 0.936D+00
 Coeff:      0.405D-05-0.539D-05 0.870D-07-0.578D-05 0.995D-05-0.339D-04
 Coeff:     -0.154D-03 0.214D-04 0.175D-02 0.440D-02-0.139D-01-0.164D-01
 Coeff:     -0.817D-01 0.170D+00 0.936D+00
 Gap=     0.258 Goal=   None    Shift=    0.000
 RMSDP=4.52D-08 MaxDP=2.20D-06 DE=-3.77D-11 OVMax= 2.04D-06

 Cycle  16  Pass 1  IDiag  1:
 RMSU=  2.02D-08    CP:  5.64D-01  2.49D+00  1.98D+00  8.97D-01  8.52D-01
                    CP:  1.01D+00  1.13D+00  1.39D+00  1.33D+00  1.33D+00
                    CP:  1.49D+00  1.06D+00  1.21D+00  1.26D+00  1.19D+00
 E= -3010.53560657590     Delta-E=       -0.000000000053 Rises=F Damp=F
 DIIS: error= 2.84D-08 at cycle  16 NSaved=  16.
 NSaved=16 IEnMin=16 EnMin= -3010.53560657590     IErMin=16 ErrMin= 2.84D-08
 ErrMax= 2.84D-08  0.00D+00 EMaxC= 1.00D-01 BMatC= 4.62D-13 BMatP= 1.85D-12
 IDIUse=1 WtCom= 1.00D+00 WtEn= 0.00D+00
 Coeff-Com:  0.116D-05-0.156D-05 0.644D-06 0.423D-05 0.323D-04 0.586D-04
 Coeff-Com:  0.365D-04-0.282D-03-0.885D-03 0.924D-03 0.690D-02 0.378D-03
 Coeff-Com: -0.758D-01-0.648D-01 0.302D+00 0.832D+00
 Coeff:      0.116D-05-0.156D-05 0.644D-06 0.423D-05 0.323D-04 0.586D-04
 Coeff:      0.365D-04-0.282D-03-0.885D-03 0.924D-03 0.690D-02 0.378D-03
 Coeff:     -0.758D-01-0.648D-01 0.302D+00 0.832D+00
 Gap=     0.258 Goal=   None    Shift=    0.000
 RMSDP=2.44D-08 MaxDP=9.80D-07 DE=-5.28D-11 OVMax= 8.85D-07

 Cycle  17  Pass 1  IDiag  1:
 RMSU=  7.25D-09    CP:  5.64D-01  2.49D+00  1.98D+00  8.97D-01  8.52D-01
                    CP:  1.01D+00  1.13D+00  1.39D+00  1.33D+00  1.33D+00
                    CP:  1.49D+00  1.07D+00  1.20D+00  1.31D+00  1.48D+00
                    CP:  1.22D+00
 E= -3010.53560657584     Delta-E=        0.000000000065 Rises=F Damp=F
 DIIS: error= 1.86D-08 at cycle  17 NSaved=  17.
 NSaved=17 IEnMin=16 EnMin= -3010.53560657590     IErMin=17 ErrMin= 1.86D-08
 ErrMax= 1.86D-08  0.00D+00 EMaxC= 1.00D-01 BMatC= 8.06D-14 BMatP= 4.62D-13
 IDIUse=1 WtCom= 1.00D+00 WtEn= 0.00D+00
 Coeff-Com: -0.222D-06 0.294D-06 0.179D-06 0.132D-05 0.254D-05 0.125D-04
 Coeff-Com:  0.283D-04-0.252D-04-0.454D-03-0.411D-03 0.288D-02 0.495D-02
 Coeff-Com: -0.652D-03-0.547D-01-0.128D+00 0.122D+00 0.105D+01
 Coeff:     -0.222D-06 0.294D-06 0.179D-06 0.132D-05 0.254D-05 0.125D-04
 Coeff:      0.283D-04-0.252D-04-0.454D-03-0.411D-03 0.288D-02 0.495D-02
 Coeff:     -0.652D-03-0.547D-01-0.128D+00 0.122D+00 0.105D+01
 Gap=     0.258 Goal=   None    Shift=    0.000
 RMSDP=1.46D-08 MaxDP=9.27D-07 DE= 6.46D-11 OVMax= 6.99D-07

 Cycle  18  Pass 1  IDiag  1:
 RMSU=  4.07D-09    CP:  5.64D-01  2.49D+00  1.98D+00  8.97D-01  8.52D-01
                    CP:  1.01D+00  1.13D+00  1.39D+00  1.33D+00  1.33D+00
                    CP:  1.49D+00  1.07D+00  1.19D+00  1.34D+00  1.59D+00
                    CP:  1.52D+00  1.44D+00
 E= -3010.53560657588     Delta-E=       -0.000000000041 Rises=F Damp=F
 DIIS: error= 5.50D-09 at cycle  18 NSaved=  18.
 NSaved=18 IEnMin=16 EnMin= -3010.53560657590     IErMin=18 ErrMin= 5.50D-09
 ErrMax= 5.50D-09  0.00D+00 EMaxC= 1.00D-01 BMatC= 2.33D-14 BMatP= 8.06D-14
 IDIUse=1 WtCom= 1.00D+00 WtEn= 0.00D+00
 Coeff-Com: -0.602D-07 0.824D-07-0.101D-06-0.127D-05-0.908D-05-0.145D-04
 Coeff-Com: -0.506D-05 0.929D-04 0.125D-03-0.363D-03-0.171D-02 0.194D-02
 Coeff-Com:  0.221D-01 0.672D-02-0.103D+00-0.241D+00 0.283D+00 0.103D+01
 Coeff:     -0.602D-07 0.824D-07-0.101D-06-0.127D-05-0.908D-05-0.145D-04
 Coeff:     -0.506D-05 0.929D-04 0.125D-03-0.363D-03-0.171D-02 0.194D-02
 Coeff:      0.221D-01 0.672D-02-0.103D+00-0.241D+00 0.283D+00 0.103D+01
 Gap=     0.258 Goal=   None    Shift=    0.000
 RMSDP=7.59D-09 MaxDP=3.58D-07 DE=-4.09D-11 OVMax= 3.63D-07

 SCF Done:  E(RwB97XD) =  -3010.53560658     A.U. after   18 cycles
            NFock= 18  Conv=0.76D-08     -V/T= 2.0016
 KE= 3.005856552883D+03 PE=-8.632549002431D+03 EE= 1.876623291107D+03
 Leave Link  502 at Wed May  1 15:22:33 2024, MaxMem=  1207959552 cpu:             995.4 elap:             995.5
 (Enter /software/gaussian/g16-c01/sse4/g16/l601.exe)
 Copying SCF densities to generalized density rwf, IOpCl= 0 IROHF=0.

 **********************************************************************

            Population analysis using the SCF Density.

 **********************************************************************

 Alpha  occ. eigenvalues -- -483.31530 -62.86563 -56.66245 -56.65688 -56.65686
 Alpha  occ. eigenvalues --  -19.45781 -19.45706 -14.85284 -10.58326 -10.57459
 Alpha  occ. eigenvalues --  -10.57107 -10.56918 -10.56655 -10.52849  -9.02375
 Alpha  occ. eigenvalues --   -6.85022  -6.83198  -6.83183  -2.94934  -2.94449
 Alpha  occ. eigenvalues --   -2.94436  -2.92976  -2.92976  -1.49544  -1.32519
 Alpha  occ. eigenvalues --   -1.22581  -1.14064  -1.11681  -1.04577  -1.00944
 Alpha  occ. eigenvalues --   -0.95398  -0.90861  -0.85173  -0.80653  -0.80550
 Alpha  occ. eigenvalues --   -0.79891  -0.78191  -0.75998  -0.75821  -0.72306
 Alpha  occ. eigenvalues --   -0.69260  -0.67461  -0.63698  -0.60192  -0.57141
 Alpha  occ. eigenvalues --   -0.56678  -0.56062  -0.55546  -0.55398
 Alpha virt. eigenvalues --   -0.29607  -0.21207  -0.15725  -0.13336  -0.08635
 Alpha virt. eigenvalues --   -0.05977  -0.05789  -0.05090  -0.04233  -0.03203
 Alpha virt. eigenvalues --   -0.02655  -0.02349  -0.01700  -0.01289  -0.00359
 Alpha virt. eigenvalues --    0.00930   0.01487   0.01773   0.02599   0.02697
 Alpha virt. eigenvalues --    0.04509   0.05076   0.05281   0.06023   0.06926
 Alpha virt. eigenvalues --    0.07192   0.07409   0.07796   0.08736   0.09396
 Alpha virt. eigenvalues --    0.10645   0.11125   0.11336   0.11925   0.12565
 Alpha virt. eigenvalues --    0.12758   0.13185   0.13710   0.15177   0.16244
 Alpha virt. eigenvalues --    0.16544   0.17320   0.17869   0.18624   0.19160
 Alpha virt. eigenvalues --    0.19354   0.20943   0.21524   0.21728   0.24467
 Alpha virt. eigenvalues --    0.25371   0.27796   0.28073   0.29050   0.30694
 Alpha virt. eigenvalues --    0.32633   0.33619   0.33901   0.34793   0.36144
 Alpha virt. eigenvalues --    0.37212   0.38001   0.39032   0.40652   0.41534
 Alpha virt. eigenvalues --    0.42590   0.43768   0.44363   0.46489   0.47416
 Alpha virt. eigenvalues --    0.47833   0.50019   0.50743   0.52153   0.53600
 Alpha virt. eigenvalues --    0.54185   0.55144   0.56667   0.56978   0.59489
 Alpha virt. eigenvalues --    0.61220   0.62276   0.64040   0.66705   0.68611
 Alpha virt. eigenvalues --    0.70248   0.72039   0.72670   0.73255   0.74281
 Alpha virt. eigenvalues --    0.74463   0.79375   0.79928   0.82841   0.85100
 Alpha virt. eigenvalues --    0.86301   0.87993   0.91857   0.93021   0.98564
 Alpha virt. eigenvalues --    0.99641   1.01070   1.04648   1.05391   1.06564
 Alpha virt. eigenvalues --    1.09081   1.11040   1.12038   1.12494   1.14281
 Alpha virt. eigenvalues --    1.22092   1.24552   1.26778   1.32980   1.36515
 Alpha virt. eigenvalues --    1.36895   1.38000   1.45104   1.54395   1.57133
 Alpha virt. eigenvalues --    1.58511   1.58782   1.60637   1.62404   1.66306
 Alpha virt. eigenvalues --    1.69161   1.69696   1.73559   1.75330   1.79050
 Alpha virt. eigenvalues --    1.81133   1.85488   1.87364   1.93049   1.95175
 Alpha virt. eigenvalues --    1.97742   2.02937   2.03803   2.06686   2.07995
 Alpha virt. eigenvalues --    2.09558   2.14730   2.20416   2.22699   2.29398
 Alpha virt. eigenvalues --    2.37642   2.41188   2.42607   2.43529   2.52494
 Alpha virt. eigenvalues --    2.56710   2.63060   2.66102   2.68222   2.71771
 Alpha virt. eigenvalues --    2.73428   2.76549   2.77385   2.81068   2.81751
 Alpha virt. eigenvalues --    2.93476   2.96324   3.00714   3.05565   3.08934
 Alpha virt. eigenvalues --    3.13020   3.14951   3.19087   3.23722   3.24323
 Alpha virt. eigenvalues --    3.27417   3.39161   3.47657   3.51258   3.54508
 Alpha virt. eigenvalues --    3.56883   3.69994   3.74174   3.82171   3.87160
 Alpha virt. eigenvalues --    4.08524   4.08760   4.16303   4.21511   4.42347
 Alpha virt. eigenvalues --    4.44417   4.57427   4.59936   4.93265   4.95933
 Alpha virt. eigenvalues --    5.04580   5.08748   5.62893   6.15835   6.64260
 Alpha virt. eigenvalues --    7.47193   7.48772   7.58581  23.21295  23.61294
 Alpha virt. eigenvalues --   23.69505  23.79454  23.96050  24.01404  35.32673
 Alpha virt. eigenvalues --   47.90865  49.85644  49.94455 289.80201 289.81869
 Alpha virt. eigenvalues --  289.943181020.91298
          Condensed to atoms (all electrons):
               1          2          3          4          5          6
     1  C    8.847594  -2.376600   0.290571  -1.623772  -0.631022   0.311031
     2  C   -2.376600  12.873670  -1.882811  -2.464322   0.787676  -0.014801
     3  C    0.290571  -1.882811  13.040827  -3.080483  -1.315329   0.023129
     4  C   -1.623772  -2.464322  -3.080483  14.539002   1.300309   0.011320
     5  C   -0.631022   0.787676  -1.315329   1.300309   7.375384   0.013722
     6  H    0.311031  -0.014801   0.023129   0.011320   0.013722   0.334962
     7  H    0.068128   0.230507   0.077910  -0.032555  -0.019353  -0.001807
     8  H    0.003754  -0.010771   0.072619   0.249266  -0.018600   0.000001
     9  H    0.030414  -0.013217   0.004111  -0.006869   0.310960  -0.002299
    10  N   -0.149743   0.345175  -0.928963   0.336498   0.021749  -0.000619
    11  O    0.013067  -0.066361  -0.259142  -0.014209  -0.055287  -0.000025
    12  O    0.326993  -0.035075  -0.277012  -0.094583  -0.043088   0.000011
    13  C    1.435585  -1.893908   0.903051  -3.400385  -1.775249  -0.009038
    14  H   -0.009141  -0.002177   0.003877  -0.069865  -0.024799  -0.000050
    15  Br   0.046106  -0.003906   0.047393   0.059652   0.059691  -0.000433
               7          8          9         10         11         12
     1  C    0.068128   0.003754   0.030414  -0.149743   0.013067   0.326993
     2  C    0.230507  -0.010771  -0.013217   0.345175  -0.066361  -0.035075
     3  C    0.077910   0.072619   0.004111  -0.928963  -0.259142  -0.277012
     4  C   -0.032555   0.249266  -0.006869   0.336498  -0.014209  -0.094583
     5  C   -0.019353  -0.018600   0.310960   0.021749  -0.055287  -0.043088
     6  H   -0.001807   0.000001  -0.002299  -0.000619  -0.000025   0.000011
     7  H    0.301195  -0.000005   0.000010  -0.025908  -0.001492   0.022403
     8  H   -0.000005   0.293350   0.000093  -0.023821   0.022475  -0.000844
     9  H    0.000010   0.000093   0.324218   0.000364   0.000008   0.000006
    10  N   -0.025908  -0.023821   0.000364   7.357206   0.185487   0.153374
    11  O   -0.001492   0.022475   0.000008   0.185487   7.839899   0.000984
    12  O    0.022403  -0.000844   0.000006   0.153374   0.000984   7.874494
    13  C    0.014573   0.039798   0.005117  -0.168522   0.303732   0.042539
    14  H   -0.000015  -0.003673  -0.005081   0.000014  -0.000298  -0.000082
    15  Br  -0.000119   0.001795   0.000220   0.004353  -0.000032   0.001982
              13         14         15
     1  C    1.435585  -0.009141   0.046106
     2  C   -1.893908  -0.002177  -0.003906
     3  C    0.903051   0.003877   0.047393
     4  C   -3.400385  -0.069865   0.059652
     5  C   -1.775249  -0.024799   0.059691
     6  H   -0.009038  -0.000050  -0.000433
     7  H    0.014573  -0.000015  -0.000119
     8  H    0.039798  -0.003673   0.001795
     9  H    0.005117  -0.005081   0.000220
    10  N   -0.168522   0.000014   0.004353
    11  O    0.303732  -0.000298  -0.000032
    12  O    0.042539  -0.000082   0.001982
    13  C   10.614455   0.407249  -0.047814
    14  H    0.407249   0.328231  -0.038250
    15  Br  -0.047814  -0.038250  34.721051
 Mulliken charges:
               1
     1  C   -0.582965
     2  C    0.526921
     3  C   -0.719749
     4  C    0.290993
     5  C    0.013237
     6  H    0.334896
     7  H    0.366526
     8  H    0.374562
     9  H    0.351945
    10  N   -0.106646
    11  O    0.031192
    12  O    0.027899
    13  C   -0.471183
    14  H    0.414059
    15  Br   0.148311
 Sum of Mulliken charges =   1.00000
 Mulliken charges with hydrogens summed into heavy atoms:
               1
     1  C   -0.248069
     2  C    0.893448
     3  C   -0.719749
     4  C    0.665556
     5  C    0.365182
    10  N   -0.106646
    11  O    0.031192
    12  O    0.027899
    13  C   -0.057124
    15  Br   0.148311
 Electronic spatial extent (au):  <R**2>=           2798.8214
 Charge=              1.0000 electrons
 Dipole moment (field-independent basis, Debye):
    X=             -0.7582    Y=             -0.4776    Z=              0.4817  Tot=              1.0174
 Quadrupole moment (field-independent basis, Debye-Ang):
   XX=            -71.1505   YY=            -52.1402   ZZ=            -63.1664
   XY=              1.2202   XZ=              1.3421   YZ=              1.2332
 Traceless Quadrupole moment (field-independent basis, Debye-Ang):
   XX=             -8.9981   YY=             10.0122   ZZ=             -1.0141
   XY=              1.2202   XZ=              1.3421   YZ=              1.2332
 Octapole moment (field-independent basis, Debye-Ang**2):
  XXX=           -298.9654  YYY=             88.3579  ZZZ=             79.6065  XYY=            -75.8367
  XXY=             30.1738  XXZ=             33.9049  XZZ=            -77.8261  YZZ=             17.3470
  YYZ=             26.8799  XYZ=             -3.0946
 Hexadecapole moment (field-independent basis, Debye-Ang**3):
 XXXX=          -2277.3564 YYYY=           -678.1230 ZZZZ=           -352.5296 XXXY=            -68.6977
 XXXZ=            -16.9416 YYYX=            -60.1159 YYYZ=           -157.8541 ZZZX=            -18.5310
 ZZZY=           -138.6423 XXYY=           -456.1115 XXZZ=           -370.9749 YYZZ=           -165.6241
 XXYZ=            -54.9294 YYXZ=             -2.0653 ZZXY=             -9.1524
 N-N= 7.395335518648D+02 E-N=-8.632549003977D+03  KE= 3.005856552883D+03
 No NMR shielding tensors so no spin-rotation constants.
 Leave Link  601 at Wed May  1 15:22:40 2024, MaxMem=  1207959552 cpu:               7.6 elap:               7.6
 (Enter /software/gaussian/g16-c01/sse4/g16/l9999.exe)
 Unable to Open any file for archive entry.
 1\1\GINC-BHX0023\SP\RwB97XD\6-311+G(d)\C6H5Br1N1O2(1+)\BWEIGHT\01-May-
 2024\0\\#P wB97XD/6-311+G* NoSymm #P Field=Z-29\\TitleMe\\1,1\C,0,0.02
 95,1.3397,0.0682\C,0,1.4348,1.2867,0.0064\C,0,2.1118,0.0511,-0.0054\C,
 0,1.4451,-1.1372,0.0312\C,0,-0.6879,0.1682,0.11\H,0,-0.4713,2.2984,0.0
 781\H,0,2.0273,2.1965,-0.0322\H,0,1.9897,-2.0764,0.0232\H,0,-1.7716,0.
 1804,0.1582\N,0,3.5864,0.051,-0.0675\O,0,4.1471,-1.0597,-0.0881\O,0,4.
 145,1.1639,-0.0901\C,0,-0.0236,-1.1458,0.0835\H,0,-0.4367,-1.8725,0.78
 89\Br,0,-0.5359,-1.8697,-1.7408\\Version=ES64L-G16RevC.01\HF=-3010.535
 6066\RMSD=7.589e-09\Dipole=-2.2048487,0.9601705,1.3357001\Quadrupole=-
 6.6899013,7.4438253,-0.7539241,0.9071525,0.9977959,0.9168651\PG=C01 [X
 (C6H5Br1N1O2)]\\@
 The archive entry for this job was punched.


 THE TRULY SUCCESSFUL PERFORMANCE OF RESEARCHES IN
 INORGANIC CHEMISTRY IS POSSIBLE ONLY TO ONE WHO IS NOT
 ONLY A THEORETICAL CHEMIST, BUT ALSO AN ACCOMPLISHED
 ANALYST AND, MOREOVER, NOT MERELY A PRACTICALLY TRAINED,
 MECHANICAL WORKER, BUT A THINKING CREATIVE ARTIST.
   --  CLEMENS WINKLER, BER. 33, 1697(1900)
 Job cpu time:       0 days  0 hours 17 minutes 41.7 seconds.
 Elapsed time:       0 days  0 hours 17 minutes 41.7 seconds.
 File lengths (MBytes):  RWF=     40 Int=      0 D2E=      0 Chk=     32 Scr=      1
 Normal termination of Gaussian 16 at Wed May  1 15:22:41 2024.
