 Entering Gaussian System, Link 0=g16
 Initial command:
 /software/gaussian/g16-c01/sse4/g16/l1.exe "/local_scratch/24657417/Gau-27864.inp" -scrdir="/local_scratch/24657417/"
 Entering Link 1 = /software/gaussian/g16-c01/sse4/g16/l1.exe PID=     27871.
  
 Copyright (c) 1988-2019, Gaussian, Inc.  All Rights Reserved.
  
 This is part of the Gaussian(R) 16 program.  It is based on
 the Gaussian(R) 09 system (copyright 2009, Gaussian, Inc.),
 the Gaussian(R) 03 system (copyright 2003, Gaussian, Inc.),
 the Gaussian(R) 98 system (copyright 1998, Gaussian, Inc.),
 the Gaussian(R) 94 system (copyright 1995, Gaussian, Inc.),
 the Gaussian 92(TM) system (copyright 1992, Gaussian, Inc.),
 the Gaussian 90(TM) system (copyright 1990, Gaussian, Inc.),
 the Gaussian 88(TM) system (copyright 1988, Gaussian, Inc.),
 the Gaussian 86(TM) system (copyright 1986, Carnegie Mellon
 University), and the Gaussian 82(TM) system (copyright 1983,
 Carnegie Mellon University). Gaussian is a federally registered
 trademark of Gaussian, Inc.
  
 This software contains proprietary and confidential information,
 including trade secrets, belonging to Gaussian, Inc.
  
 This software is provided under written license and may be
 used, copied, transmitted, or stored only in accord with that
 written license.
  
 The following legend is applicable only to US Government
 contracts under FAR:
  
                    RESTRICTED RIGHTS LEGEND
  
 Use, reproduction and disclosure by the US Government is
 subject to restrictions as set forth in subparagraphs (a)
 and (c) of the Commercial Computer Software - Restricted
 Rights clause in FAR 52.227-19.
  
 Gaussian, Inc.
 340 Quinnipiac St., Bldg. 40, Wallingford CT 06492
  
  
 ---------------------------------------------------------------
 Warning -- This program may not be used in any manner that
 competes with the business of Gaussian, Inc. or will provide
 assistance to any competitor of Gaussian, Inc.  The licensee
 of this program is prohibited from giving any competitor of
 Gaussian, Inc. access to this program.  By using this program,
 the user acknowledges that Gaussian, Inc. is engaged in the
 business of creating and licensing software in the field of
 computational chemistry and represents and warrants to the
 licensee that it is not a competitor of Gaussian, Inc. and that
 it will not use this program in any manner prohibited above.
 ---------------------------------------------------------------
  

 Cite this work as:
 Gaussian 16, Revision C.01,
 M. J. Frisch, G. W. Trucks, H. B. Schlegel, G. E. Scuseria, 
 M. A. Robb, J. R. Cheeseman, G. Scalmani, V. Barone, 
 G. A. Petersson, H. Nakatsuji, X. Li, M. Caricato, A. V. Marenich, 
 J. Bloino, B. G. Janesko, R. Gomperts, B. Mennucci, H. P. Hratchian, 
 J. V. Ortiz, A. F. Izmaylov, J. L. Sonnenberg, D. Williams-Young, 
 F. Ding, F. Lipparini, F. Egidi, J. Goings, B. Peng, A. Petrone, 
 T. Henderson, D. Ranasinghe, V. G. Zakrzewski, J. Gao, N. Rega, 
 G. Zheng, W. Liang, M. Hada, M. Ehara, K. Toyota, R. Fukuda, 
 J. Hasegawa, M. Ishida, T. Nakajima, Y. Honda, O. Kitao, H. Nakai, 
 T. Vreven, K. Throssell, J. A. Montgomery, Jr., J. E. Peralta, 
 F. Ogliaro, M. J. Bearpark, J. J. Heyd, E. N. Brothers, K. N. Kudin, 
 V. N. Staroverov, T. A. Keith, R. Kobayashi, J. Normand, 
 K. Raghavachari, A. P. Rendell, J. C. Burant, S. S. Iyengar, 
 J. Tomasi, M. Cossi, J. M. Millam, M. Klene, C. Adamo, R. Cammi, 
 J. W. Ochterski, R. L. Martin, K. Morokuma, O. Farkas, 
 J. B. Foresman, and D. J. Fox, Gaussian, Inc., Wallingford CT, 2019.
 
 ******************************************
 Gaussian 16:  ES64L-G16RevC.01  3-Jul-2019
                 1-May-2024 
 ******************************************
 %chk=geometry.chk
 %mem=9GB
 %nprocshared=12
 Will use up to   12 processors via shared memory.
 ----------------------------------------
 #P wB97XD/6-311+G* NoSymm #P Field=X-233
 ----------------------------------------
 1/38=1,172=1/1;
 2/12=2,15=1,17=6,18=5,40=1/2;
 3/5=4,6=6,7=11,11=2,14=1,15=-233,25=1,30=1,74=-58/1,2,3;
 4//1;
 5/5=2,38=5/2;
 6/7=2,8=2,9=2,10=2,28=1/1;
 99/5=1,9=1/99;
 Leave Link    1 at Wed May  1 14:27:44 2024, MaxMem=  1207959552 cpu:               1.3 elap:               1.3
 (Enter /software/gaussian/g16-c01/sse4/g16/l101.exe)
 -------
 TitleMe
 -------
 Symbolic Z-matrix:
 Charge =  1 Multiplicity = 1
 C                     0.0295    1.3397    0.0682 
 C                     1.4348    1.2867    0.0064 
 C                     2.1118    0.0511   -0.0054 
 C                     1.4451   -1.1372    0.0312 
 C                    -0.6879    0.1682    0.11 
 H                    -0.4713    2.2984    0.0781 
 H                     2.0273    2.1965   -0.0322 
 H                     1.9897   -2.0764    0.0232 
 H                    -1.7716    0.1804    0.1582 
 N                     3.5864    0.051    -0.0675 
 O                     4.1471   -1.0597   -0.0881 
 O                     4.145     1.1639   -0.0901 
 C                    -0.0236   -1.1458    0.0835 
 H                    -0.4367   -1.8725    0.7889 
 Br                   -0.5359   -1.8697   -1.7408 
 
 ITRead=  0  0  0  0  0  0  0  0  0  0  0  0  0  0  0
 MicOpt= -1 -1 -1 -1 -1 -1 -1 -1 -1 -1 -1 -1 -1 -1 -1
 NAtoms=     15 NQM=       15 NQMF=       0 NMMI=      0 NMMIF=      0
                NMic=       0 NMicF=      0.
                    Isotopes and Nuclear Properties:
 (Nuclear quadrupole moments (NQMom) in fm**2, nuclear magnetic moments (NMagM)
  in nuclear magnetons)

  Atom         1           2           3           4           5           6           7           8           9          10
 IAtWgt=          12          12          12          12          12           1           1           1           1          14
 AtmWgt=  12.0000000  12.0000000  12.0000000  12.0000000  12.0000000   1.0078250   1.0078250   1.0078250   1.0078250  14.0030740
 NucSpn=           0           0           0           0           0           1           1           1           1           2
 AtZEff=  -0.0000000  -0.0000000  -0.0000000  -0.0000000  -0.0000000  -0.0000000  -0.0000000  -0.0000000  -0.0000000  -0.0000000
 NQMom=    0.0000000   0.0000000   0.0000000   0.0000000   0.0000000   0.0000000   0.0000000   0.0000000   0.0000000   2.0440000
 NMagM=    0.0000000   0.0000000   0.0000000   0.0000000   0.0000000   2.7928460   2.7928460   2.7928460   2.7928460   0.4037610
 AtZNuc=   6.0000000   6.0000000   6.0000000   6.0000000   6.0000000   1.0000000   1.0000000   1.0000000   1.0000000   7.0000000

  Atom        11          12          13          14          15
 IAtWgt=          16          16          12           1          79
 AtmWgt=  15.9949146  15.9949146  12.0000000   1.0078250  78.9183361
 NucSpn=           0           0           0           1           3
 AtZEff=  -0.0000000  -0.0000000  -0.0000000  -0.0000000  -0.0000000
 NQMom=    0.0000000   0.0000000   0.0000000   0.0000000  31.3000000
 NMagM=    0.0000000   0.0000000   0.0000000   2.7928460   2.1063990
 AtZNuc=   8.0000000   8.0000000   6.0000000   1.0000000  35.0000000
 Leave Link  101 at Wed May  1 14:27:45 2024, MaxMem=  1207959552 cpu:               1.5 elap:               1.5
 (Enter /software/gaussian/g16-c01/sse4/g16/l202.exe)
                          Input orientation:                          
 ---------------------------------------------------------------------
 Center     Atomic      Atomic             Coordinates (Angstroms)
 Number     Number       Type             X           Y           Z
 ---------------------------------------------------------------------
      1          6           0        0.029500    1.339700    0.068200
      2          6           0        1.434800    1.286700    0.006400
      3          6           0        2.111800    0.051100   -0.005400
      4          6           0        1.445100   -1.137200    0.031200
      5          6           0       -0.687900    0.168200    0.110000
      6          1           0       -0.471300    2.298400    0.078100
      7          1           0        2.027300    2.196500   -0.032200
      8          1           0        1.989700   -2.076400    0.023200
      9          1           0       -1.771600    0.180400    0.158200
     10          7           0        3.586400    0.051000   -0.067500
     11          8           0        4.147100   -1.059700   -0.088100
     12          8           0        4.145000    1.163900   -0.090100
     13          6           0       -0.023600   -1.145800    0.083500
     14          1           0       -0.436700   -1.872500    0.788900
     15         35           0       -0.535900   -1.869700   -1.740800
 ---------------------------------------------------------------------
                    Distance matrix (angstroms):
                    1          2          3          4          5
     1  C    0.000000
     2  C    1.407656   0.000000
     3  C    2.449874   1.408963   0.000000
     4  C    2.853126   2.424049   1.363043   0.000000
     5  C    1.374344   2.401589   2.804523   2.501993   0.000000
     6  H    1.081667   2.159142   3.424870   3.934226   2.141421
     7  H    2.176095   1.086408   2.147231   3.384750   3.392128
     8  H    3.938800   3.408612   2.131193   1.085702   3.495040
     9  H    2.143837   3.395283   3.888995   3.478413   1.084840
    10  N    3.785591   2.482297   1.475907   2.450862   4.279589
    11  O    4.768247   3.587631   2.320164   2.705743   4.992415
    12  O    4.122294   2.714696   2.319353   3.549540   4.938459
    13  C    2.486114   2.837240   2.449573   1.469656   1.472614
    14  H    3.324903   3.754379   3.290289   2.157764   2.165286
    15  Br   3.727252   4.110867   3.702891   2.756973   2.757100
                    6          7          8          9         10
     6  H    0.000000
     7  H    2.503108   0.000000
     8  H    5.019802   4.273425   0.000000
     9  H    2.486588   4.304945   4.388479   0.000000
    10  N    4.640790   2.652397   2.661486   5.364313   0.000000
    11  O    5.712624   3.885809   2.387560   6.052233   1.244373
    12  O    4.756638   2.356750   3.893289   6.002923   1.245428
    13  C    3.473180   3.923079   2.218790   2.195425   3.806210
    14  H    4.231175   4.827242   2.552506   2.528663   4.540772
    15  Br   4.548146   5.101303   3.087568   3.055498   4.845862
                   11         12         13         14         15
    11  O    0.000000
    12  O    2.223602   0.000000
    13  C    4.175117   4.768865   0.000000
    14  H    4.737193   5.566358   1.093770   0.000000
    15  Br   5.031700   5.817075   2.028436   2.531646   0.000000
 Symmetry turned off by external request.
 Stoichiometry    C6H5BrNO2(1+)
 Framework group  C1[X(C6H5BrNO2)]
 Deg. of freedom    39
 Full point group                 C1      NOp   1
 Rotational constants (GHZ):           1.8252210           0.5518633           0.4576002
 Leave Link  202 at Wed May  1 14:27:47 2024, MaxMem=  1207959552 cpu:               1.2 elap:               1.2
 (Enter /software/gaussian/g16-c01/sse4/g16/l301.exe)
 Standard basis: 6-311+G(d) (5D, 7F)
 Ernie: Thresh=  0.10000D-02 Tol=  0.10000D-05 Strict=F.
 The following finite field(s) will be applied:
 An electric field of             -0.0233  0.0000  0.0000
   261 basis functions,   443 primitive gaussians,   273 cartesian basis functions
    49 alpha electrons       49 beta electrons
       nuclear repulsion energy       739.2122215416 Hartrees.
 IExCor= 4639 DFT=T Ex+Corr=wB97XD ExCW=0 ScaHFX=  1.000000
 ScaDFX=  1.000000  1.000000  1.000000  1.000000 ScalE2=  1.000000  1.000000
 IRadAn=      5 IRanWt=     -1 IRanGd=            0 ICorTp=0 IEmpDi=121
 HFx  wShort=  0.000000 wLong=  0.200000 cFull=  0.222036 cShort=  0.000000 cLong=  0.777964
 DFx  wShort=  0.000000 wLong=  0.200000 cFull=  0.000000 cShort=  0.000000 cLong=  1.000000
 NAtoms=   15 NActive=   15 NUniq=   15 SFac= 1.00D+00 NAtFMM=   60 NAOKFM=F Big=F
 Integral buffers will be    131072 words long.
 Raffenetti 2 integral format.
 Two-electron integral symmetry is turned off.
 R6Disp:  Grimme-D2 Dispersion energy=       -0.0077368520 Hartrees.
 Nuclear repulsion after empirical dispersion term =      739.2044846896 Hartrees.
 Leave Link  301 at Wed May  1 14:27:48 2024, MaxMem=  1207959552 cpu:               1.0 elap:               1.0
 (Enter /software/gaussian/g16-c01/sse4/g16/l302.exe)
 NPDir=0 NMtPBC=     1 NCelOv=     1 NCel=       1 NClECP=     1 NCelD=      1
         NCelK=      1 NCelE2=     1 NClLst=     1 CellRange=     0.0.
 One-electron integrals computed using PRISM.
 NBasis=   261 RedAO= T EigKep=  2.35D-06  NBF=   261
 NBsUse=   261 1.00D-06 EigRej= -1.00D+00 NBFU=   261
 Precomputing XC quadrature grid using
 IXCGrd= 4 IRadAn=           5 IRanWt=          -1 IRanGd=           0 AccXCQ= 0.00D+00.
 Generated NRdTot=       0 NPtTot=           0 NUsed=           0 NTot=          32
 NSgBfM=   273   273   273   273   273 MxSgAt=    15 MxSgA2=    15.
 Leave Link  302 at Wed May  1 14:28:09 2024, MaxMem=  1207959552 cpu:              21.6 elap:              21.6
 (Enter /software/gaussian/g16-c01/sse4/g16/l303.exe)
 DipDrv:  MaxL=1.
 The nuclear repulsion energy is now       734.8066756721 hartrees.
 Leave Link  303 at Wed May  1 14:28:13 2024, MaxMem=  1207959552 cpu:               3.2 elap:               3.2
 (Enter /software/gaussian/g16-c01/sse4/g16/l401.exe)
 ExpMin= 3.50D-02 ExpMax= 4.40D+05 ExpMxC= 1.51D+04 IAcc=3 IRadAn=         5 AccDes= 0.00D+00
 Harris functional with IExCor= 4639 and IRadAn=       5 diagonalized for initial guess.
 HarFok:  IExCor= 4639 AccDes= 0.00D+00 IRadAn=         5 IDoV= 1 UseB2=F ITyADJ=14
 ICtDFT=  3500011 ScaDFX=  1.000000  1.000000  1.000000  1.000000
 FoFCou: FMM=F IPFlag=           0 FMFlag=      100000 FMFlg1=           0
         NFxFlg=           0 DoJE=T BraDBF=F KetDBF=T FulRan=T
         wScrn=  0.000000 ICntrl=       500 IOpCl=  0 I1Cent=   200000004 NGrid=           0
         NMat0=    1 NMatS0=      1 NMatT0=    0 NMatD0=    1 NMtDS0=    0 NMtDT0=    0
 Symmetry not used in FoFCou.
 Harris En= -2971.35014725623    
 JPrj=0 DoOrth=F DoCkMO=F.
 Leave Link  401 at Wed May  1 14:28:43 2024, MaxMem=  1207959552 cpu:              30.7 elap:              30.7
 (Enter /software/gaussian/g16-c01/sse4/g16/l502.exe)
 Two-electron integral symmetry not used.
 Closed shell SCF:
 Using DIIS extrapolation, IDIIS=  1040.
 NGot=  1207959552 LenX=  1207804877 LenY=  1207729907
 Requested convergence on RMS density matrix=1.00D-08 within 128 cycles.
 Requested convergence on MAX density matrix=1.00D-06.
 Requested convergence on             energy=1.00D-06.
 No special actions if energy rises.
 Fock matrices will be formed incrementally for  20 cycles.

 Cycle   1  Pass 1  IDiag  1:
 FoFJK:  IHMeth= 1 ICntrl=       0 DoSepK=T KAlg= 0 I1Cent=           0 FoldK=F
 IRaf=         1 NMat=       1 IRICut=       1 DoRegI=T DoRafI=F ISym2E= 0 IDoP0=0 IntGTp=1.
 FoFCou: FMM=F IPFlag=           0 FMFlag=      100000 FMFlg1=           0
         NFxFlg=           0 DoJE=T BraDBF=F KetDBF=F FulRan=T
         wScrn=  0.000000 ICntrl=       500 IOpCl=  0 I1Cent=           0 NGrid=           0
         NMat0=    1 NMatS0=      1 NMatT0=    0 NMatD0=    1 NMtDS0=    0 NMtDT0=    0
 Symmetry not used in FoFCou.
 E= -3001.31297335816    
 DIIS: error= 3.19D-01 at cycle   1 NSaved=   1.
 NSaved= 1 IEnMin= 1 EnMin= -3001.31297335816     IErMin= 1 ErrMin= 3.19D-01
 ErrMax= 3.19D-01  0.00D+00 EMaxC= 1.00D-01 BMatC= 1.44D+01 BMatP= 1.44D+01
 IDIUse=3 WtCom= 0.00D+00 WtEn= 1.00D+00
 Coeff-Com:  0.100D+01
 Coeff-En:   0.100D+01
 Coeff:      0.100D+01
 Gap=     0.168 Goal=   None    Shift=    0.000
 GapD=    0.168 DampG=1.000 DampE=0.250 DampFc=0.2500 IDamp=-1.
 Damping current iteration by 2.50D-01
 RMSDP=1.19D+01 MaxDP=1.21D+03              OVMax= 9.97D-01

 Cycle   2  Pass 1  IDiag  1:
 RMSU=  1.89D-01    CP:  7.55D-01
 E= -3002.29553082310     Delta-E=       -0.982557464942 Rises=F Damp=T
 DIIS: error= 2.23D-01 at cycle   2 NSaved=   2.
 NSaved= 2 IEnMin= 2 EnMin= -3002.29553082310     IErMin= 2 ErrMin= 2.23D-01
 ErrMax= 2.23D-01  0.00D+00 EMaxC= 1.00D-01 BMatC= 6.31D+00 BMatP= 1.44D+01
 IDIUse=3 WtCom= 0.00D+00 WtEn= 1.00D+00
 Coeff-Com: -0.329D+00 0.133D+01
 Coeff-En:   0.444D+00 0.556D+00
 Coeff:      0.444D+00 0.556D+00
 Gap=     0.455 Goal=   None    Shift=    0.000
 RMSDP=9.11D+00 MaxDP=9.07D+02 DE=-9.83D-01 OVMax= 9.83D-01

 Cycle   3  Pass 1  IDiag  1:
 RMSU=  6.06D-02    CP:  3.57D-03  2.54D-01
 E= -2998.76859043334     Delta-E=        3.526940389755 Rises=F Damp=F
 DIIS: error= 1.42D-01 at cycle   3 NSaved=   3.
 NSaved= 3 IEnMin= 2 EnMin= -3002.29553082310     IErMin= 3 ErrMin= 1.42D-01
 ErrMax= 1.42D-01  0.00D+00 EMaxC= 1.00D-01 BMatC= 8.16D+00 BMatP= 6.31D+00
 IDIUse=2 WtCom= 0.00D+00 WtEn= 1.00D+00
 EnCoef did   100 forward-backward iterations
 Coeff-En:   0.539D+00 0.823D-02 0.452D+00
 Coeff:      0.539D+00 0.823D-02 0.452D+00
 Gap=    -0.202 Goal=   None    Shift=    0.000
 RMSDP=2.84D-02 MaxDP=1.66D+00 DE= 3.53D+00 OVMax= 7.89D-01

 Cycle   4  Pass 1  IDiag  1:
 RMSU=  2.65D-02    CP:  3.79D-03  2.11D-01  9.09D-01
 E= -3009.69825317698     Delta-E=      -10.929662743638 Rises=F Damp=F
 DIIS: error= 6.00D-02 at cycle   4 NSaved=   4.
 NSaved= 4 IEnMin= 4 EnMin= -3009.69825317698     IErMin= 4 ErrMin= 6.00D-02
 ErrMax= 6.00D-02  0.00D+00 EMaxC= 1.00D-01 BMatC= 1.16D+00 BMatP= 6.31D+00
 IDIUse=3 WtCom= 4.00D-01 WtEn= 6.00D-01
 Coeff-Com:  0.141D+00 0.503D-01 0.761D-01 0.733D+00
 Coeff-En:   0.522D-01 0.000D+00 0.000D+00 0.948D+00
 Coeff:      0.876D-01 0.201D-01 0.304D-01 0.862D+00
 Gap=     0.376 Goal=   None    Shift=    0.000
 RMSDP=4.19D-02 MaxDP=2.98D+00 DE=-1.09D+01 OVMax= 6.76D-01

 Cycle   5  Pass 1  IDiag  1:
 RMSU=  3.91D-02    CP:  3.55D-03  1.86D-01  6.81D-01  9.47D-01
 E= -3008.81433227095     Delta-E=        0.883920906032 Rises=F Damp=F
 DIIS: error= 6.80D-02 at cycle   5 NSaved=   5.
 NSaved= 5 IEnMin= 4 EnMin= -3009.69825317698     IErMin= 4 ErrMin= 6.00D-02
 ErrMax= 6.80D-02  0.00D+00 EMaxC= 1.00D-01 BMatC= 1.66D+00 BMatP= 1.16D+00
 IDIUse=2 WtCom= 0.00D+00 WtEn= 1.00D+00
 Coeff-En:   0.000D+00 0.000D+00 0.000D+00 0.665D+00 0.335D+00
 Coeff:      0.000D+00 0.000D+00 0.000D+00 0.665D+00 0.335D+00
 Gap=     0.080 Goal=   None    Shift=    0.000
 RMSDP=3.64D-02 MaxDP=2.22D+00 DE= 8.84D-01 OVMax= 8.48D-01

 Cycle   6  Pass 1  IDiag  1:
 RMSU=  2.13D-02    CP:  4.27D-03  1.46D-01  5.34D-01  4.56D-01  4.33D-01
 E= -3009.46378885570     Delta-E=       -0.649456584753 Rises=F Damp=F
 DIIS: error= 5.11D-02 at cycle   6 NSaved=   6.
 NSaved= 6 IEnMin= 4 EnMin= -3009.69825317698     IErMin= 6 ErrMin= 5.11D-02
 ErrMax= 5.11D-02  0.00D+00 EMaxC= 1.00D-01 BMatC= 6.82D-01 BMatP= 1.16D+00
 IDIUse=3 WtCom= 4.89D-01 WtEn= 5.11D-01
 EnCoef did     2 forward-backward iterations
 Coeff-Com: -0.379D-01 0.901D-01 0.295D-01 0.374D+00 0.212D+00 0.332D+00
 Coeff-En:   0.000D+00 0.000D+00 0.000D+00 0.529D+00 0.185D+00 0.286D+00
 Coeff:     -0.185D-01 0.440D-01 0.144D-01 0.453D+00 0.198D+00 0.309D+00
 Gap=     0.024 Goal=   None    Shift=    0.000
 RMSDP=2.51D-02 MaxDP=1.17D+00 DE=-6.49D-01 OVMax= 8.37D-01

 Cycle   7  Pass 1  IDiag  1:
 RMSU=  1.46D-02    CP:  3.39D-03  1.48D-01  5.88D-01  7.24D-01  4.13D-01
                    CP:  2.74D-01
 E= -3010.44731416176     Delta-E=       -0.983525306055 Rises=F Damp=F
 DIIS: error= 2.39D-02 at cycle   7 NSaved=   7.
 NSaved= 7 IEnMin= 7 EnMin= -3010.44731416176     IErMin= 7 ErrMin= 2.39D-02
 ErrMax= 2.39D-02  0.00D+00 EMaxC= 1.00D-01 BMatC= 1.40D-01 BMatP= 6.82D-01
 IDIUse=3 WtCom= 7.61D-01 WtEn= 2.39D-01
 Coeff-Com: -0.396D-01 0.517D-01 0.748D-02 0.161D+00 0.565D-01 0.292D+00
 Coeff-Com:  0.472D+00
 Coeff-En:   0.000D+00 0.000D+00 0.000D+00 0.000D+00 0.000D+00 0.884D-01
 Coeff-En:   0.912D+00
 Coeff:     -0.301D-01 0.393D-01 0.569D-02 0.122D+00 0.430D-01 0.243D+00
 Coeff:      0.577D+00
 Gap=     0.112 Goal=   None    Shift=    0.000
 RMSDP=7.71D-03 MaxDP=3.36D-01 DE=-9.84D-01 OVMax= 1.18D-01

 Cycle   8  Pass 1  IDiag  1:
 RMSU=  6.95D-03    CP:  3.57D-03  1.51D-01  5.60D-01  7.66D-01  4.10D-01
                    CP:  2.70D-01  9.20D-01
 E= -3010.54623878338     Delta-E=       -0.098924621619 Rises=F Damp=F
 DIIS: error= 9.58D-03 at cycle   8 NSaved=   8.
 NSaved= 8 IEnMin= 8 EnMin= -3010.54623878338     IErMin= 8 ErrMin= 9.58D-03
 ErrMax= 9.58D-03  0.00D+00 EMaxC= 1.00D-01 BMatC= 1.28D-02 BMatP= 1.40D-01
 IDIUse=3 WtCom= 9.04D-01 WtEn= 9.58D-02
 Coeff-Com: -0.870D-02 0.840D-02-0.730D-02 0.160D-01 0.446D-02 0.838D-01
 Coeff-Com:  0.211D+00 0.692D+00
 Coeff-En:   0.000D+00 0.000D+00 0.000D+00 0.000D+00 0.000D+00 0.000D+00
 Coeff-En:   0.000D+00 0.100D+01
 Coeff:     -0.787D-02 0.760D-02-0.660D-02 0.144D-01 0.404D-02 0.757D-01
 Coeff:      0.191D+00 0.722D+00
 Gap=     0.156 Goal=   None    Shift=    0.000
 RMSDP=2.83D-03 MaxDP=1.24D-01 DE=-9.89D-02 OVMax= 6.82D-02

 Cycle   9  Pass 1  IDiag  1:
 RMSU=  2.55D-03    CP:  3.55D-03  1.49D-01  5.42D-01  7.59D-01  4.10D-01
                    CP:  2.83D-01  9.17D-01  9.63D-01
 E= -3010.54890145951     Delta-E=       -0.002662676133 Rises=F Damp=F
 DIIS: error= 1.31D-02 at cycle   9 NSaved=   9.
 NSaved= 9 IEnMin= 9 EnMin= -3010.54890145951     IErMin= 8 ErrMin= 9.58D-03
 ErrMax= 1.31D-02  0.00D+00 EMaxC= 1.00D-01 BMatC= 1.18D-02 BMatP= 1.28D-02
 IDIUse=3 WtCom= 9.04D-01 WtEn= 9.58D-02
 Coeff-Com:  0.124D-02-0.118D-02-0.378D-02-0.948D-02-0.115D-01 0.346D-01
 Coeff-Com:  0.360D-01 0.495D+00 0.459D+00
 Coeff-En:   0.000D+00 0.000D+00 0.000D+00 0.000D+00 0.000D+00 0.000D+00
 Coeff-En:   0.000D+00 0.424D+00 0.576D+00
 Coeff:      0.112D-02-0.107D-02-0.342D-02-0.857D-02-0.104D-01 0.313D-01
 Coeff:      0.326D-01 0.489D+00 0.470D+00
 Gap=     0.169 Goal=   None    Shift=    0.000
 RMSDP=1.56D-03 MaxDP=1.22D-01 DE=-2.66D-03 OVMax= 4.32D-02

 Cycle  10  Pass 1  IDiag  1:
 RMSU=  1.22D-03    CP:  3.52D-03  1.48D-01  5.37D-01  7.51D-01  3.99D-01
                    CP:  2.88D-01  8.81D-01  1.01D+00  8.97D-01
 E= -3010.55814664406     Delta-E=       -0.009245184548 Rises=F Damp=F
 DIIS: error= 2.02D-03 at cycle  10 NSaved=  10.
 NSaved=10 IEnMin=10 EnMin= -3010.55814664406     IErMin=10 ErrMin= 2.02D-03
 ErrMax= 2.02D-03  0.00D+00 EMaxC= 1.00D-01 BMatC= 7.01D-04 BMatP= 1.18D-02
 IDIUse=3 WtCom= 9.80D-01 WtEn= 2.02D-02
 Coeff-Com:  0.112D-02-0.164D-02-0.142D-02 0.466D-03-0.473D-02 0.796D-02
 Coeff-Com: -0.436D-01-0.733D-01 0.112D+00 0.100D+01
 Coeff-En:   0.000D+00 0.000D+00 0.000D+00 0.000D+00 0.000D+00 0.000D+00
 Coeff-En:   0.000D+00 0.000D+00 0.000D+00 0.100D+01
 Coeff:      0.110D-02-0.161D-02-0.139D-02 0.456D-03-0.464D-02 0.780D-02
 Coeff:     -0.427D-01-0.718D-01 0.110D+00 0.100D+01
 Gap=     0.167 Goal=   None    Shift=    0.000
 RMSDP=7.51D-04 MaxDP=4.74D-02 DE=-9.25D-03 OVMax= 2.53D-02

 Cycle  11  Pass 1  IDiag  1:
 RMSU=  4.09D-04    CP:  3.53D-03  1.48D-01  5.31D-01  7.51D-01  4.01D-01
                    CP:  2.93D-01  8.87D-01  1.01D+00  1.09D+00  1.05D+00
 E= -3010.55962171939     Delta-E=       -0.001475075333 Rises=F Damp=F
 DIIS: error= 7.67D-04 at cycle  11 NSaved=  11.
 NSaved=11 IEnMin=11 EnMin= -3010.55962171939     IErMin=11 ErrMin= 7.67D-04
 ErrMax= 7.67D-04  0.00D+00 EMaxC= 1.00D-01 BMatC= 1.26D-04 BMatP= 7.01D-04
 IDIUse=3 WtCom= 9.92D-01 WtEn= 7.67D-03
 Coeff-Com:  0.460D-03-0.662D-03-0.207D-04 0.162D-02-0.209D-02 0.118D-02
 Coeff-Com: -0.241D-01-0.937D-01-0.412D-01 0.307D+00 0.852D+00
 Coeff-En:   0.000D+00 0.000D+00 0.000D+00 0.000D+00 0.000D+00 0.000D+00
 Coeff-En:   0.000D+00 0.000D+00 0.000D+00 0.000D+00 0.100D+01
 Coeff:      0.457D-03-0.657D-03-0.205D-04 0.161D-02-0.207D-02 0.117D-02
 Coeff:     -0.239D-01-0.929D-01-0.409D-01 0.304D+00 0.853D+00
 Gap=     0.168 Goal=   None    Shift=    0.000
 RMSDP=5.05D-04 MaxDP=4.21D-02 DE=-1.48D-03 OVMax= 1.50D-02

 Cycle  12  Pass 1  IDiag  1:
 RMSU=  2.10D-04    CP:  3.52D-03  1.48D-01  5.29D-01  7.53D-01  3.98D-01
                    CP:  2.92D-01  8.77D-01  1.00D+00  1.19D+00  1.20D+00
                    CP:  1.31D+00
 E= -3010.56002533225     Delta-E=       -0.000403612861 Rises=F Damp=F
 DIIS: error= 3.99D-04 at cycle  12 NSaved=  12.
 NSaved=12 IEnMin=12 EnMin= -3010.56002533225     IErMin=12 ErrMin= 3.99D-04
 ErrMax= 3.99D-04  0.00D+00 EMaxC= 1.00D-01 BMatC= 1.43D-05 BMatP= 1.26D-04
 IDIUse=3 WtCom= 9.96D-01 WtEn= 3.99D-03
 Coeff-Com: -0.283D-03 0.525D-03 0.165D-03 0.678D-03 0.467D-03-0.168D-02
 Coeff-Com:  0.442D-02 0.252D-02-0.334D-01-0.144D+00 0.176D+00 0.994D+00
 Coeff-En:   0.000D+00 0.000D+00 0.000D+00 0.000D+00 0.000D+00 0.000D+00
 Coeff-En:   0.000D+00 0.000D+00 0.000D+00 0.000D+00 0.000D+00 0.100D+01
 Coeff:     -0.282D-03 0.523D-03 0.164D-03 0.676D-03 0.465D-03-0.167D-02
 Coeff:      0.440D-02 0.251D-02-0.333D-01-0.143D+00 0.175D+00 0.995D+00
 Gap=     0.168 Goal=   None    Shift=    0.000
 RMSDP=2.56D-04 MaxDP=1.33D-02 DE=-4.04D-04 OVMax= 1.43D-02

 Cycle  13  Pass 1  IDiag  1:
 RMSU=  9.63D-05    CP:  3.51D-03  1.48D-01  5.29D-01  7.54D-01  3.98D-01
                    CP:  2.92D-01  8.74D-01  9.89D-01  1.24D+00  1.25D+00
                    CP:  1.63D+00  1.47D+00
 E= -3010.56016747549     Delta-E=       -0.000142143240 Rises=F Damp=F
 DIIS: error= 2.08D-04 at cycle  13 NSaved=  13.
 NSaved=13 IEnMin=13 EnMin= -3010.56016747549     IErMin=13 ErrMin= 2.08D-04
 ErrMax= 2.08D-04  0.00D+00 EMaxC= 1.00D-01 BMatC= 1.51D-05 BMatP= 1.43D-05
 IDIUse=3 WtCom= 9.98D-01 WtEn= 2.08D-03
 Coeff-Com: -0.374D-03 0.509D-03 0.160D-03-0.411D-03 0.164D-03-0.132D-02
 Coeff-Com:  0.709D-02 0.114D-01 0.201D-02-0.187D-01-0.106D+00 0.178D+00
 Coeff-Com:  0.927D+00
 Coeff-En:   0.000D+00 0.000D+00 0.000D+00 0.000D+00 0.000D+00 0.000D+00
 Coeff-En:   0.000D+00 0.000D+00 0.000D+00 0.000D+00 0.000D+00 0.000D+00
 Coeff-En:   0.100D+01
 Coeff:     -0.373D-03 0.508D-03 0.159D-03-0.410D-03 0.164D-03-0.132D-02
 Coeff:      0.707D-02 0.114D-01 0.201D-02-0.186D-01-0.106D+00 0.178D+00
 Coeff:      0.927D+00
 Gap=     0.169 Goal=   None    Shift=    0.000
 RMSDP=1.75D-04 MaxDP=1.01D-02 DE=-1.42D-04 OVMax= 8.45D-03

 Cycle  14  Pass 1  IDiag  1:
 RMSU=  4.86D-05    CP:  3.51D-03  1.48D-01  5.29D-01  7.55D-01  3.98D-01
                    CP:  2.92D-01  8.72D-01  9.74D-01  1.26D+00  1.29D+00
                    CP:  1.69D+00  1.76D+00  1.79D+00
 E= -3010.56022284735     Delta-E=       -0.000055371857 Rises=F Damp=F
 DIIS: error= 1.56D-04 at cycle  14 NSaved=  14.
 NSaved=14 IEnMin=14 EnMin= -3010.56022284735     IErMin=14 ErrMin= 1.56D-04
 ErrMax= 1.56D-04  0.00D+00 EMaxC= 1.00D-01 BMatC= 9.45D-06 BMatP= 1.43D-05
 IDIUse=3 WtCom= 9.98D-01 WtEn= 1.56D-03
 Coeff-Com: -0.122D-03 0.125D-03 0.105D-03-0.357D-03-0.263D-03-0.925D-03
 Coeff-Com:  0.247D-02-0.133D-02 0.171D-01 0.102D+00-0.121D+00-0.375D+00
 Coeff-Com:  0.900D-01 0.129D+01
 Coeff-En:   0.000D+00 0.000D+00 0.000D+00 0.000D+00 0.000D+00 0.000D+00
 Coeff-En:   0.000D+00 0.000D+00 0.000D+00 0.000D+00 0.000D+00 0.000D+00
 Coeff-En:   0.000D+00 0.100D+01
 Coeff:     -0.122D-03 0.125D-03 0.105D-03-0.357D-03-0.262D-03-0.923D-03
 Coeff:      0.247D-02-0.133D-02 0.171D-01 0.102D+00-0.121D+00-0.375D+00
 Coeff:      0.898D-01 0.129D+01
 Gap=     0.170 Goal=   None    Shift=    0.000
 RMSDP=2.23D-04 MaxDP=1.19D-02 DE=-5.54D-05 OVMax= 1.01D-02

 Cycle  15  Pass 1  IDiag  1:
 RMSU=  2.92D-05    CP:  3.51D-03  1.47D-01  5.30D-01  7.55D-01  3.98D-01
                    CP:  2.91D-01  8.72D-01  9.53D-01  1.27D+00  1.33D+00
                    CP:  1.76D+00  1.98D+00  2.88D+00  2.13D+00
 E= -3010.56027056731     Delta-E=       -0.000047719961 Rises=F Damp=F
 DIIS: error= 7.67D-05 at cycle  15 NSaved=  15.
 NSaved=15 IEnMin=15 EnMin= -3010.56027056731     IErMin=15 ErrMin= 7.67D-05
 ErrMax= 7.67D-05  0.00D+00 EMaxC= 1.00D-01 BMatC= 2.69D-06 BMatP= 9.45D-06
 IDIUse=1 WtCom= 1.00D+00 WtEn= 0.00D+00
 Coeff-Com:  0.831D-05-0.381D-05 0.258D-04 0.297D-03-0.146D-03-0.341D-03
 Coeff-Com: -0.671D-03-0.699D-02 0.906D-03 0.400D-01 0.333D-02-0.130D+00
 Coeff-Com: -0.540D+00 0.391D+00 0.124D+01
 Coeff:      0.831D-05-0.381D-05 0.258D-04 0.297D-03-0.146D-03-0.341D-03
 Coeff:     -0.671D-03-0.699D-02 0.906D-03 0.400D-01 0.333D-02-0.130D+00
 Coeff:     -0.540D+00 0.391D+00 0.124D+01
 Gap=     0.171 Goal=   None    Shift=    0.000
 RMSDP=2.10D-04 MaxDP=1.33D-02 DE=-4.77D-05 OVMax= 9.48D-03

 Cycle  16  Pass 1  IDiag  1:
 RMSU=  8.34D-05    CP:  3.50D-03  1.47D-01  5.30D-01  7.55D-01  3.97D-01
                    CP:  2.91D-01  8.70D-01  9.37D-01  1.30D+00  1.37D+00
                    CP:  1.83D+00  2.28D+00  3.00D+00  3.00D+00  1.72D+00
 E= -3010.56029253958     Delta-E=       -0.000021972272 Rises=F Damp=F
 DIIS: error= 4.18D-05 at cycle  16 NSaved=  16.
 NSaved=16 IEnMin=16 EnMin= -3010.56029253958     IErMin=16 ErrMin= 4.18D-05
 ErrMax= 4.18D-05  0.00D+00 EMaxC= 1.00D-01 BMatC= 3.10D-07 BMatP= 2.69D-06
 IDIUse=1 WtCom= 1.00D+00 WtEn= 0.00D+00
 Coeff-Com: -0.897D-06 0.145D-04-0.131D-04 0.931D-04-0.721D-04-0.661D-04
 Coeff-Com: -0.280D-03-0.109D-02-0.273D-02-0.673D-02 0.181D-01 0.445D-01
 Coeff-Com: -0.143D+00-0.172D+00 0.314D+00 0.949D+00
 Coeff:     -0.897D-06 0.145D-04-0.131D-04 0.931D-04-0.721D-04-0.661D-04
 Coeff:     -0.280D-03-0.109D-02-0.273D-02-0.673D-02 0.181D-01 0.445D-01
 Coeff:     -0.143D+00-0.172D+00 0.314D+00 0.949D+00
 Gap=     0.171 Goal=   None    Shift=    0.000
 RMSDP=6.38D-05 MaxDP=2.72D-03 DE=-2.20D-05 OVMax= 3.27D-03

 Cycle  17  Pass 1  IDiag  1:
 RMSU=  1.50D-05    CP:  3.50D-03  1.47D-01  5.30D-01  7.55D-01  3.96D-01
                    CP:  2.91D-01  8.70D-01  9.32D-01  1.31D+00  1.38D+00
                    CP:  1.86D+00  2.36D+00  3.00D+00  3.00D+00  2.10D+00
                    CP:  1.40D+00
 E= -3010.56029571753     Delta-E=       -0.000003177948 Rises=F Damp=F
 DIIS: error= 3.01D-05 at cycle  17 NSaved=  17.
 NSaved=17 IEnMin=17 EnMin= -3010.56029571753     IErMin=17 ErrMin= 3.01D-05
 ErrMax= 3.01D-05  0.00D+00 EMaxC= 1.00D-01 BMatC= 7.03D-08 BMatP= 3.10D-07
 IDIUse=1 WtCom= 1.00D+00 WtEn= 0.00D+00
 Coeff-Com:  0.178D-04-0.205D-04-0.161D-04-0.569D-04-0.492D-06-0.212D-04
 Coeff-Com: -0.204D-04 0.114D-02-0.876D-03-0.101D-01 0.328D-02 0.440D-01
 Coeff-Com:  0.102D+00-0.151D+00-0.199D+00 0.310D+00 0.902D+00
 Coeff:      0.178D-04-0.205D-04-0.161D-04-0.569D-04-0.492D-06-0.212D-04
 Coeff:     -0.204D-04 0.114D-02-0.876D-03-0.101D-01 0.328D-02 0.440D-01
 Coeff:      0.102D+00-0.151D+00-0.199D+00 0.310D+00 0.902D+00
 Gap=     0.171 Goal=   None    Shift=    0.000
 RMSDP=2.45D-05 MaxDP=9.24D-04 DE=-3.18D-06 OVMax= 1.31D-03

 Cycle  18  Pass 1  IDiag  1:
 RMSU=  8.55D-06    CP:  3.50D-03  1.47D-01  5.31D-01  7.55D-01  3.96D-01
                    CP:  2.91D-01  8.70D-01  9.31D-01  1.31D+00  1.39D+00
                    CP:  1.88D+00  2.39D+00  3.00D+00  3.00D+00  2.25D+00
                    CP:  1.55D+00  1.55D+00
 E= -3010.56029666519     Delta-E=       -0.000000947662 Rises=F Damp=F
 DIIS: error= 1.83D-05 at cycle  18 NSaved=  18.
 NSaved=18 IEnMin=18 EnMin= -3010.56029666519     IErMin=18 ErrMin= 1.83D-05
 ErrMax= 1.83D-05  0.00D+00 EMaxC= 1.00D-01 BMatC= 4.72D-08 BMatP= 7.03D-08
 IDIUse=1 WtCom= 1.00D+00 WtEn= 0.00D+00
 Coeff-Com:  0.325D-04-0.490D-04-0.761D-05-0.460D-04 0.333D-04-0.317D-04
 Coeff-Com: -0.126D-03 0.134D-03 0.152D-02 0.266D-02-0.955D-02-0.302D-01
 Coeff-Com:  0.503D-01 0.716D-01-0.808D-01-0.294D+00 0.292D-01 0.126D+01
 Coeff:      0.325D-04-0.490D-04-0.761D-05-0.460D-04 0.333D-04-0.317D-04
 Coeff:     -0.126D-03 0.134D-03 0.152D-02 0.266D-02-0.955D-02-0.302D-01
 Coeff:      0.503D-01 0.716D-01-0.808D-01-0.294D+00 0.292D-01 0.126D+01
 Gap=     0.171 Goal=   None    Shift=    0.000
 RMSDP=2.69D-05 MaxDP=1.14D-03 DE=-9.48D-07 OVMax= 1.23D-03

 Cycle  19  Pass 1  IDiag  1:
 RMSU=  3.07D-06    CP:  3.50D-03  1.47D-01  5.30D-01  7.55D-01  3.97D-01
                    CP:  2.91D-01  8.69D-01  9.31D-01  1.32D+00  1.39D+00
                    CP:  1.90D+00  2.43D+00  3.00D+00  3.00D+00  2.35D+00
                    CP:  1.69D+00  2.02D+00  2.18D+00
 E= -3010.56029727336     Delta-E=       -0.000000608164 Rises=F Damp=F
 DIIS: error= 1.17D-05 at cycle  19 NSaved=  19.
 NSaved=19 IEnMin=19 EnMin= -3010.56029727336     IErMin=19 ErrMin= 1.17D-05
 ErrMax= 1.17D-05  0.00D+00 EMaxC= 1.00D-01 BMatC= 2.11D-08 BMatP= 4.72D-08
 IDIUse=1 WtCom= 1.00D+00 WtEn= 0.00D+00
 Coeff-Com:  0.235D-04-0.381D-04-0.750D-06 0.860D-05 0.190D-04 0.104D-04
 Coeff-Com: -0.106D-03-0.332D-03 0.102D-02 0.415D-02-0.312D-02-0.314D-01
 Coeff-Com: -0.139D-01 0.752D-01 0.515D-01-0.185D+00-0.397D+00 0.383D+00
 Coeff-Com:  0.112D+01
 Coeff:      0.235D-04-0.381D-04-0.750D-06 0.860D-05 0.190D-04 0.104D-04
 Coeff:     -0.106D-03-0.332D-03 0.102D-02 0.415D-02-0.312D-02-0.314D-01
 Coeff:     -0.139D-01 0.752D-01 0.515D-01-0.185D+00-0.397D+00 0.383D+00
 Coeff:      0.112D+01
 Gap=     0.171 Goal=   None    Shift=    0.000
 RMSDP=1.99D-05 MaxDP=9.55D-04 DE=-6.08D-07 OVMax= 9.27D-04

 Cycle  20  Pass 1  IDiag  1:
 RMSU=  2.64D-06    CP:  3.50D-03  1.47D-01  5.30D-01  7.55D-01  3.97D-01
                    CP:  2.91D-01  8.69D-01  9.31D-01  1.32D+00  1.38D+00
                    CP:  1.91D+00  2.45D+00  3.00D+00  3.00D+00  2.42D+00
                    CP:  1.81D+00  2.41D+00  3.00D+00  1.70D+00
 E= -3010.56029754892     Delta-E=       -0.000000275569 Rises=F Damp=F
 DIIS: error= 4.76D-06 at cycle  20 NSaved=  20.
 NSaved=20 IEnMin=20 EnMin= -3010.56029754892     IErMin=20 ErrMin= 4.76D-06
 ErrMax= 4.76D-06  0.00D+00 EMaxC= 1.00D-01 BMatC= 6.35D-09 BMatP= 2.11D-08
 IDIUse=1 WtCom= 1.00D+00 WtEn= 0.00D+00
 Coeff-Com:  0.504D-05-0.544D-05-0.202D-05 0.211D-04-0.451D-05 0.140D-04
 Coeff-Com: -0.132D-04-0.132D-03-0.293D-03-0.549D-04 0.381D-02-0.411D-02
 Coeff-Com: -0.225D-01-0.867D-02 0.517D-01 0.906D-01-0.171D+00-0.451D+00
 Coeff-Com:  0.266D+00 0.125D+01
 Coeff:      0.504D-05-0.544D-05-0.202D-05 0.211D-04-0.451D-05 0.140D-04
 Coeff:     -0.132D-04-0.132D-03-0.293D-03-0.549D-04 0.381D-02-0.411D-02
 Coeff:     -0.225D-01-0.867D-02 0.517D-01 0.906D-01-0.171D+00-0.451D+00
 Coeff:      0.266D+00 0.125D+01
 Gap=     0.171 Goal=   None    Shift=    0.000
 RMSDP=1.74D-05 MaxDP=8.79D-04 DE=-2.76D-07 OVMax= 8.95D-04

 Cycle  21  Pass 1  IDiag  1:
 Restarting incremental Fock formation.
 E= -3010.56029764618     Delta-E=       -0.000000097253 Rises=F Damp=F
 DIIS: error= 1.50D-06 at cycle  21 NSaved=  20.
 NSaved=20 IEnMin=20 EnMin= -3010.56029764618     IErMin=20 ErrMin= 1.50D-06
 ErrMax= 1.50D-06  0.00D+00 EMaxC= 1.00D-01 BMatC= 7.03D-10 BMatP= 6.35D-09
 IDIUse=1 WtCom= 1.00D+00 WtEn= 0.00D+00
 Coeff-Com:  0.152D-06 0.123D-05 0.587D-05-0.422D-05 0.110D-04 0.194D-04
 Coeff-Com:  0.689D-04-0.200D-03-0.785D-03 0.168D-02 0.245D-02 0.250D-02
 Coeff-Com: -0.137D-01-0.514D-02 0.430D-01 0.303D-01-0.104D+00-0.179D+00
 Coeff-Com:  0.300D+00 0.923D+00
 Coeff:      0.152D-06 0.123D-05 0.587D-05-0.422D-05 0.110D-04 0.194D-04
 Coeff:      0.689D-04-0.200D-03-0.785D-03 0.168D-02 0.245D-02 0.250D-02
 Coeff:     -0.137D-01-0.514D-02 0.430D-01 0.303D-01-0.104D+00-0.179D+00
 Coeff:      0.300D+00 0.923D+00
 Gap=     0.171 Goal=   None    Shift=    0.000
 RMSDP=2.86D-06 MaxDP=1.67D-04 DE=-9.73D-08 OVMax= 1.47D-04

 Cycle  22  Pass 1  IDiag  1:
 RMSU=  2.74D-06    CP:  1.00D+00
 E= -3010.56029765006     Delta-E=       -0.000000003878 Rises=F Damp=F
 DIIS: error= 8.53D-07 at cycle  22 NSaved=  20.
 NSaved=20 IEnMin=20 EnMin= -3010.56029765006     IErMin=20 ErrMin= 8.53D-07
 ErrMax= 8.53D-07  0.00D+00 EMaxC= 1.00D-01 BMatC= 9.35D-11 BMatP= 7.03D-10
 IDIUse=1 WtCom= 1.00D+00 WtEn= 0.00D+00
 Coeff-Com: -0.331D-06-0.259D-05-0.540D-06 0.346D-05-0.141D-05 0.478D-04
 Coeff-Com:  0.123D-04-0.189D-03-0.376D-04 0.531D-03 0.370D-02-0.244D-02
 Coeff-Com: -0.763D-02-0.151D-02 0.300D-01 0.477D-01-0.777D-01-0.110D+00
 Coeff-Com:  0.912D-01 0.103D+01
 Coeff:     -0.331D-06-0.259D-05-0.540D-06 0.346D-05-0.141D-05 0.478D-04
 Coeff:      0.123D-04-0.189D-03-0.376D-04 0.531D-03 0.370D-02-0.244D-02
 Coeff:     -0.763D-02-0.151D-02 0.300D-01 0.477D-01-0.777D-01-0.110D+00
 Coeff:      0.912D-01 0.103D+01
 Gap=     0.171 Goal=   None    Shift=    0.000
 RMSDP=9.84D-07 MaxDP=6.77D-05 DE=-3.88D-09 OVMax= 3.65D-05

 Cycle  23  Pass 1  IDiag  1:
 RMSU=  5.56D-07    CP:  1.00D+00  1.28D+00
 E= -3010.56029765077     Delta-E=       -0.000000000713 Rises=F Damp=F
 DIIS: error= 3.76D-07 at cycle  23 NSaved=  20.
 NSaved=20 IEnMin=20 EnMin= -3010.56029765077     IErMin=20 ErrMin= 3.76D-07
 ErrMax= 3.76D-07  0.00D+00 EMaxC= 1.00D-01 BMatC= 2.35D-11 BMatP= 9.35D-11
 IDIUse=1 WtCom= 1.00D+00 WtEn= 0.00D+00
 Coeff-Com: -0.120D-05 0.594D-06-0.800D-07-0.252D-05 0.108D-04 0.902D-05
 Coeff-Com: -0.360D-04-0.826D-04 0.626D-04 0.132D-02-0.861D-03-0.152D-02
 Coeff-Com: -0.113D-02 0.715D-02 0.196D-01-0.891D-02-0.528D-01-0.941D-01
 Coeff-Com:  0.203D+00 0.928D+00
 Coeff:     -0.120D-05 0.594D-06-0.800D-07-0.252D-05 0.108D-04 0.902D-05
 Coeff:     -0.360D-04-0.826D-04 0.626D-04 0.132D-02-0.861D-03-0.152D-02
 Coeff:     -0.113D-02 0.715D-02 0.196D-01-0.891D-02-0.528D-01-0.941D-01
 Coeff:      0.203D+00 0.928D+00
 Gap=     0.171 Goal=   None    Shift=    0.000
 RMSDP=4.05D-07 MaxDP=2.96D-05 DE=-7.13D-10 OVMax= 1.32D-05

 Cycle  24  Pass 1  IDiag  1:
 RMSU=  2.25D-07    CP:  1.00D+00  1.35D+00  1.42D+00
 E= -3010.56029765094     Delta-E=       -0.000000000169 Rises=F Damp=F
 DIIS: error= 2.35D-07 at cycle  24 NSaved=  20.
 NSaved=20 IEnMin=20 EnMin= -3010.56029765094     IErMin=20 ErrMin= 2.35D-07
 ErrMax= 2.35D-07  0.00D+00 EMaxC= 1.00D-01 BMatC= 7.17D-12 BMatP= 2.35D-11
 IDIUse=1 WtCom= 1.00D+00 WtEn= 0.00D+00
 Coeff-Com: -0.576D-06 0.438D-07-0.135D-05-0.647D-05 0.203D-06 0.474D-04
 Coeff-Com:  0.453D-04-0.201D-03-0.188D-03-0.203D-03 0.125D-02-0.688D-03
 Coeff-Com: -0.668D-02-0.371D-02 0.157D-01 0.236D-01-0.302D-01-0.255D+00
 Coeff-Com:  0.106D+00 0.115D+01
 Coeff:     -0.576D-06 0.438D-07-0.135D-05-0.647D-05 0.203D-06 0.474D-04
 Coeff:      0.453D-04-0.201D-03-0.188D-03-0.203D-03 0.125D-02-0.688D-03
 Coeff:     -0.668D-02-0.371D-02 0.157D-01 0.236D-01-0.302D-01-0.255D+00
 Coeff:      0.106D+00 0.115D+01
 Gap=     0.171 Goal=   None    Shift=    0.000
 RMSDP=3.13D-07 MaxDP=2.11D-05 DE=-1.69D-10 OVMax= 1.24D-05

 Cycle  25  Pass 1  IDiag  1:
 RMSU=  1.39D-07    CP:  1.00D+00  1.38D+00  1.83D+00  1.44D+00
 E= -3010.56029765103     Delta-E=       -0.000000000090 Rises=F Damp=F
 DIIS: error= 1.39D-07 at cycle  25 NSaved=  20.
 NSaved=20 IEnMin=20 EnMin= -3010.56029765103     IErMin=20 ErrMin= 1.39D-07
 ErrMax= 1.39D-07  0.00D+00 EMaxC= 1.00D-01 BMatC= 1.61D-12 BMatP= 7.17D-12
 IDIUse=1 WtCom= 1.00D+00 WtEn= 0.00D+00
 Coeff-Com:  0.377D-06 0.207D-05 0.159D-05-0.704D-05-0.660D-05 0.287D-04
 Coeff-Com:  0.360D-04-0.171D-03-0.119D-03 0.379D-03 0.180D-03-0.147D-02
 Coeff-Com: -0.337D-02-0.518D-03 0.108D-01 0.294D-01-0.358D-01-0.204D+00
 Coeff-Com: -0.426D-01 0.125D+01
 Coeff:      0.377D-06 0.207D-05 0.159D-05-0.704D-05-0.660D-05 0.287D-04
 Coeff:      0.360D-04-0.171D-03-0.119D-03 0.379D-03 0.180D-03-0.147D-02
 Coeff:     -0.337D-02-0.518D-03 0.108D-01 0.294D-01-0.358D-01-0.204D+00
 Coeff:     -0.426D-01 0.125D+01
 Gap=     0.171 Goal=   None    Shift=    0.000
 RMSDP=2.08D-07 MaxDP=1.83D-05 DE=-8.96D-11 OVMax= 7.50D-06

 Cycle  26  Pass 1  IDiag  1:
 RMSU=  5.28D-08    CP:  1.00D+00  1.42D+00  1.98D+00  1.83D+00  1.55D+00
 E= -3010.56029765108     Delta-E=       -0.000000000054 Rises=F Damp=F
 DIIS: error= 9.38D-08 at cycle  26 NSaved=  20.
 NSaved=20 IEnMin=20 EnMin= -3010.56029765108     IErMin=20 ErrMin= 9.38D-08
 ErrMax= 9.38D-08  0.00D+00 EMaxC= 1.00D-01 BMatC= 3.98D-13 BMatP= 1.61D-12
 IDIUse=1 WtCom= 1.00D+00 WtEn= 0.00D+00
 Coeff-Com:  0.468D-06 0.378D-05 0.518D-06-0.201D-04-0.222D-04 0.101D-03
 Coeff-Com:  0.133D-03-0.893D-05-0.505D-03 0.766D-04 0.218D-02 0.128D-02
 Coeff-Com: -0.342D-02-0.837D-02 0.575D-02 0.591D-01-0.338D-03-0.301D+00
 Coeff-Com: -0.822D-01 0.133D+01
 Coeff:      0.468D-06 0.378D-05 0.518D-06-0.201D-04-0.222D-04 0.101D-03
 Coeff:      0.133D-03-0.893D-05-0.505D-03 0.766D-04 0.218D-02 0.128D-02
 Coeff:     -0.342D-02-0.837D-02 0.575D-02 0.591D-01-0.338D-03-0.301D+00
 Coeff:     -0.822D-01 0.133D+01
 Gap=     0.171 Goal=   None    Shift=    0.000
 RMSDP=1.27D-07 MaxDP=1.10D-05 DE=-5.41D-11 OVMax= 5.67D-06

 Cycle  27  Pass 1  IDiag  1:
 RMSU=  3.45D-08    CP:  1.00D+00  1.44D+00  2.07D+00  2.06D+00  1.79D+00
                    CP:  1.57D+00
 E= -3010.56029765111     Delta-E=       -0.000000000031 Rises=F Damp=F
 DIIS: error= 4.46D-08 at cycle  27 NSaved=  20.
 NSaved=20 IEnMin=20 EnMin= -3010.56029765111     IErMin=20 ErrMin= 4.46D-08
 ErrMax= 4.46D-08  0.00D+00 EMaxC= 1.00D-01 BMatC= 1.70D-13 BMatP= 3.98D-13
 IDIUse=1 WtCom= 1.00D+00 WtEn= 0.00D+00
 Coeff-Com: -0.260D-06 0.107D-05-0.685D-06-0.120D-04-0.643D-06-0.529D-04
 Coeff-Com:  0.136D-03-0.582D-05 0.229D-03 0.437D-03-0.600D-03 0.214D-03
 Coeff-Com: -0.224D-02-0.190D-02 0.153D-01 0.364D-01-0.592D-01-0.284D+00
 Coeff-Com:  0.176D+00 0.112D+01
 Coeff:     -0.260D-06 0.107D-05-0.685D-06-0.120D-04-0.643D-06-0.529D-04
 Coeff:      0.136D-03-0.582D-05 0.229D-03 0.437D-03-0.600D-03 0.214D-03
 Coeff:     -0.224D-02-0.190D-02 0.153D-01 0.364D-01-0.592D-01-0.284D+00
 Coeff:      0.176D+00 0.112D+01
 Gap=     0.171 Goal=   None    Shift=    0.000
 RMSDP=7.61D-08 MaxDP=6.15D-06 DE=-3.09D-11 OVMax= 3.38D-06

 Cycle  28  Pass 1  IDiag  1:
 RMSU=  1.84D-08    CP:  1.00D+00  1.45D+00  2.09D+00  2.21D+00  1.75D+00
                    CP:  2.10D+00  1.83D+00
 E= -3010.56029765105     Delta-E=        0.000000000063 Rises=F Damp=F
 DIIS: error= 1.96D-08 at cycle  28 NSaved=  20.
 NSaved=20 IEnMin=19 EnMin= -3010.56029765111     IErMin=20 ErrMin= 1.96D-08
 ErrMax= 1.96D-08  0.00D+00 EMaxC= 1.00D-01 BMatC= 4.03D-14 BMatP= 1.70D-13
 IDIUse=1 WtCom= 1.00D+00 WtEn= 0.00D+00
 Coeff-Com: -0.125D-05-0.613D-05 0.593D-05 0.362D-04-0.202D-05-0.718D-04
 Coeff-Com: -0.305D-04 0.302D-03 0.108D-03-0.706D-03 0.270D-03 0.569D-03
 Coeff-Com: -0.284D-02-0.101D-01 0.213D-01 0.695D-01-0.109D+00-0.233D+00
 Coeff-Com:  0.189D+00 0.107D+01
 Coeff:     -0.125D-05-0.613D-05 0.593D-05 0.362D-04-0.202D-05-0.718D-04
 Coeff:     -0.305D-04 0.302D-03 0.108D-03-0.706D-03 0.270D-03 0.569D-03
 Coeff:     -0.284D-02-0.101D-01 0.213D-01 0.695D-01-0.109D+00-0.233D+00
 Coeff:      0.189D+00 0.107D+01
 Gap=     0.171 Goal=   None    Shift=    0.000
 RMSDP=3.60D-08 MaxDP=2.74D-06 DE= 6.28D-11 OVMax= 1.48D-06

 Cycle  29  Pass 1  IDiag  1:
 RMSU=  4.20D-09    CP:  1.00D+00  1.46D+00  2.10D+00  2.26D+00  1.72D+00
                    CP:  2.32D+00  2.25D+00  1.42D+00
 E= -3010.56029765111     Delta-E=       -0.000000000062 Rises=F Damp=F
 DIIS: error= 7.61D-09 at cycle  29 NSaved=  20.
 NSaved=20 IEnMin=18 EnMin= -3010.56029765111     IErMin=20 ErrMin= 7.61D-09
 ErrMax= 7.61D-09  0.00D+00 EMaxC= 1.00D-01 BMatC= 1.20D-14 BMatP= 4.03D-14
 IDIUse=1 WtCom= 1.00D+00 WtEn= 0.00D+00
 Coeff-Com:  0.115D-05-0.105D-05-0.697D-05-0.291D-05 0.219D-04 0.539D-05
 Coeff-Com: -0.111D-03-0.240D-03 0.573D-04 0.342D-03 0.991D-03-0.308D-03
 Coeff-Com: -0.620D-02-0.928D-02 0.268D-01 0.698D-01-0.943D-01-0.266D+00
 Coeff-Com:  0.272D+00 0.101D+01
 Coeff:      0.115D-05-0.105D-05-0.697D-05-0.291D-05 0.219D-04 0.539D-05
 Coeff:     -0.111D-03-0.240D-03 0.573D-04 0.342D-03 0.991D-03-0.308D-03
 Coeff:     -0.620D-02-0.928D-02 0.268D-01 0.698D-01-0.943D-01-0.266D+00
 Coeff:      0.272D+00 0.101D+01
 Gap=     0.171 Goal=   None    Shift=    0.000
 RMSDP=1.20D-08 MaxDP=5.26D-07 DE=-6.18D-11 OVMax= 5.21D-07

 Cycle  30  Pass 1  IDiag  1:
 RMSU=  2.70D-09    CP:  1.00D+00  1.46D+00  2.10D+00  2.29D+00  1.70D+00
                    CP:  2.40D+00  2.38D+00  1.66D+00  1.48D+00
 E= -3010.56029765108     Delta-E=        0.000000000031 Rises=F Damp=F
 DIIS: error= 1.75D-09 at cycle  30 NSaved=  20.
 NSaved=20 IEnMin=17 EnMin= -3010.56029765111     IErMin=20 ErrMin= 1.75D-09
 ErrMax= 1.75D-09  0.00D+00 EMaxC= 1.00D-01 BMatC= 8.04D-16 BMatP= 1.20D-14
 IDIUse=1 WtCom= 1.00D+00 WtEn= 0.00D+00
 Large coefficients: NSaved= 20 BigCof=    0.00 CofMax=   10.00 Det=-2.39D-15
 Inversion failed.  Reducing to 19 matrices.
 Large coefficients: NSaved= 19 BigCof=    0.00 CofMax=   10.00 Det=-2.42D-15
 Inversion failed.  Reducing to 18 matrices.
 Large coefficients: NSaved= 18 BigCof=    0.00 CofMax=   10.00 Det=-2.84D-15
 Inversion failed.  Reducing to 17 matrices.
 Large coefficients: NSaved= 17 BigCof=    0.00 CofMax=   10.00 Det=-2.84D-15
 Inversion failed.  Reducing to 16 matrices.
 Large coefficients: NSaved= 16 BigCof=    0.00 CofMax=   10.00 Det=-3.11D-15
 Inversion failed.  Reducing to 15 matrices.
 Coeff-Com: -0.296D-04 0.694D-05 0.111D-03-0.921D-04-0.911D-04 0.417D-04
 Coeff-Com:  0.190D-02-0.264D-02-0.810D-02 0.153D-01 0.345D-01-0.559D-01
 Coeff-Com: -0.142D+00 0.473D-01 0.111D+01
 Coeff:     -0.296D-04 0.694D-05 0.111D-03-0.921D-04-0.911D-04 0.417D-04
 Coeff:      0.190D-02-0.264D-02-0.810D-02 0.153D-01 0.345D-01-0.559D-01
 Coeff:     -0.142D+00 0.473D-01 0.111D+01
 Gap=     0.171 Goal=   None    Shift=    0.000
 RMSDP=3.13D-09 MaxDP=1.70D-07 DE= 3.14D-11 OVMax= 1.37D-07

 SCF Done:  E(RwB97XD) =  -3010.56029765     A.U. after   30 cycles
            NFock= 30  Conv=0.31D-08     -V/T= 2.0016
 KE= 3.005852438150D+03 PE=-8.627819467398D+03 EE= 1.876600055925D+03
 Leave Link  502 at Wed May  1 14:57:55 2024, MaxMem=  1207959552 cpu:            1752.1 elap:            1752.2
 (Enter /software/gaussian/g16-c01/sse4/g16/l601.exe)
 Copying SCF densities to generalized density rwf, IOpCl= 0 IROHF=0.

 **********************************************************************

            Population analysis using the SCF Density.

 **********************************************************************

 Alpha  occ. eigenvalues -- -483.29776 -62.84830 -56.64475 -56.63973 -56.63966
 Alpha  occ. eigenvalues --  -19.34670 -19.34616 -14.74097 -10.56314 -10.54113
 Alpha  occ. eigenvalues --  -10.52967 -10.52053 -10.51316 -10.50791  -9.00657
 Alpha  occ. eigenvalues --   -6.83201  -6.81543  -6.81517  -2.93137  -2.92697
 Alpha  occ. eigenvalues --   -2.92675  -2.91348  -2.91347  -1.38243  -1.21109
 Alpha  occ. eigenvalues --   -1.19006  -1.10380  -1.07796  -1.02027  -0.94901
 Alpha  occ. eigenvalues --   -0.91807  -0.86227  -0.80756  -0.76450  -0.75412
 Alpha  occ. eigenvalues --   -0.72994  -0.71350  -0.70048  -0.68029  -0.65616
 Alpha  occ. eigenvalues --   -0.65239  -0.62680  -0.60222  -0.57240  -0.55472
 Alpha  occ. eigenvalues --   -0.52567  -0.45255  -0.43709  -0.43628
 Alpha virt. eigenvalues --   -0.26510  -0.16531  -0.14806  -0.13421  -0.11759
 Alpha virt. eigenvalues --   -0.09644  -0.08100  -0.06551  -0.04129  -0.03717
 Alpha virt. eigenvalues --   -0.02742  -0.01315  -0.00261   0.00281   0.01067
 Alpha virt. eigenvalues --    0.02364   0.03179   0.03442   0.04058   0.04768
 Alpha virt. eigenvalues --    0.05958   0.07486   0.08264   0.08537   0.09622
 Alpha virt. eigenvalues --    0.10414   0.10858   0.12229   0.12444   0.13391
 Alpha virt. eigenvalues --    0.15052   0.15620   0.15964   0.16908   0.17813
 Alpha virt. eigenvalues --    0.18708   0.19919   0.20397   0.22032   0.23285
 Alpha virt. eigenvalues --    0.23804   0.24630   0.26632   0.26748   0.28516
 Alpha virt. eigenvalues --    0.29948   0.30820   0.31383   0.31804   0.32449
 Alpha virt. eigenvalues --    0.33708   0.33918   0.35797   0.36295   0.37595
 Alpha virt. eigenvalues --    0.38319   0.39398   0.40623   0.41469   0.42607
 Alpha virt. eigenvalues --    0.43718   0.44565   0.45333   0.46858   0.47936
 Alpha virt. eigenvalues --    0.49602   0.49851   0.50810   0.51054   0.52402
 Alpha virt. eigenvalues --    0.53893   0.54261   0.55192   0.56386   0.58048
 Alpha virt. eigenvalues --    0.59627   0.60605   0.61239   0.63070   0.64792
 Alpha virt. eigenvalues --    0.65873   0.67065   0.67532   0.69324   0.70096
 Alpha virt. eigenvalues --    0.73007   0.74757   0.76139   0.76870   0.78657
 Alpha virt. eigenvalues --    0.81809   0.84654   0.87221   0.88929   0.89419
 Alpha virt. eigenvalues --    0.90366   0.94584   0.97647   1.01006   1.06005
 Alpha virt. eigenvalues --    1.06568   1.09037   1.09735   1.11582   1.13892
 Alpha virt. eigenvalues --    1.16002   1.19371   1.23667   1.24585   1.27508
 Alpha virt. eigenvalues --    1.31071   1.33442   1.35103   1.37477   1.40735
 Alpha virt. eigenvalues --    1.41389   1.41776   1.48829   1.59194   1.61941
 Alpha virt. eigenvalues --    1.63220   1.63481   1.67786   1.69426   1.70639
 Alpha virt. eigenvalues --    1.74348   1.76886   1.77624   1.82290   1.83641
 Alpha virt. eigenvalues --    1.84982   1.92132   1.92729   1.94917   1.97638
 Alpha virt. eigenvalues --    2.03575   2.07621   2.08622   2.11445   2.12828
 Alpha virt. eigenvalues --    2.14049   2.18663   2.24336   2.28968   2.33272
 Alpha virt. eigenvalues --    2.41873   2.47606   2.48985   2.50478   2.56194
 Alpha virt. eigenvalues --    2.60413   2.67427   2.70364   2.72769   2.79115
 Alpha virt. eigenvalues --    2.83091   2.84593   2.86630   2.87510   2.92662
 Alpha virt. eigenvalues --    2.96923   3.00503   3.08781   3.12083   3.13968
 Alpha virt. eigenvalues --    3.16833   3.19829   3.23733   3.28504   3.34456
 Alpha virt. eigenvalues --    3.39163   3.45758   3.51257   3.57476   3.61685
 Alpha virt. eigenvalues --    3.66986   3.80924   3.85564   3.86300   3.91569
 Alpha virt. eigenvalues --    4.10057   4.10302   4.18109   4.23221   4.44142
 Alpha virt. eigenvalues --    4.56255   4.61239   4.70056   5.05150   5.07937
 Alpha virt. eigenvalues --    5.16576   5.20728   5.74254   6.27646   6.65836
 Alpha virt. eigenvalues --    7.48730   7.50303   7.60261  23.24889  23.65022
 Alpha virt. eigenvalues --   23.71965  23.83652  23.99175  24.06092  35.43839
 Alpha virt. eigenvalues --   47.92576  49.96824  50.05637 289.81935 289.83602
 Alpha virt. eigenvalues --  289.960821020.93045
          Condensed to atoms (all electrons):
               1          2          3          4          5          6
     1  C   11.360434  -4.069614   0.314759  -2.536158  -1.318701   0.293227
     2  C   -4.069614  15.802201  -2.815954  -1.149760   0.447444   0.040137
     3  C    0.314759  -2.815954  15.055196  -4.915609  -1.436066   0.029668
     4  C   -2.536158  -1.149760  -4.915609  19.260906   0.931915   0.015636
     5  C   -1.318701   0.447444  -1.436066   0.931915  10.126776  -0.032050
     6  H    0.293227   0.040137   0.029668   0.015636  -0.032050   0.386880
     7  H    0.125065   0.157940   0.074682  -0.042880  -0.014989  -0.001702
     8  H    0.014669  -0.034468   0.109072   0.133466  -0.039339  -0.000005
     9  H    0.096074  -0.075292   0.029865  -0.032071   0.193490  -0.004144
    10  N   -0.319129   0.505988  -1.036094   0.493400  -0.013022  -0.000718
    11  O   -0.009781  -0.180835  -0.248396   0.057359  -0.087147  -0.000029
    12  O    0.497847  -0.036680  -0.243740  -0.252608  -0.046261   0.000131
    13  C    2.077552  -3.070067   1.765892  -6.262032  -2.683191  -0.010908
    14  H   -0.046637   0.031866  -0.023917  -0.094208   0.134270  -0.000016
    15  Br   0.024060   0.069640  -0.062946   0.069432  -0.124747  -0.000151
               7          8          9         10         11         12
     1  C    0.125065   0.014669   0.096074  -0.319129  -0.009781   0.497847
     2  C    0.157940  -0.034468  -0.075292   0.505988  -0.180835  -0.036680
     3  C    0.074682   0.109072   0.029865  -1.036094  -0.248396  -0.243740
     4  C   -0.042880   0.133466  -0.032071   0.493400   0.057359  -0.252608
     5  C   -0.014989  -0.039339   0.193490  -0.013022  -0.087147  -0.046261
     6  H   -0.001702  -0.000005  -0.004144  -0.000718  -0.000029   0.000131
     7  H    0.269699   0.000023   0.000057  -0.030509  -0.001690   0.036545
     8  H    0.000023   0.264069   0.000117  -0.026863   0.034158  -0.000533
     9  H    0.000057   0.000117   0.451563   0.000131   0.000022   0.000016
    10  N   -0.030509  -0.026863   0.000131   7.898367  -0.017050  -0.044280
    11  O   -0.001690   0.034158   0.000022  -0.017050   7.843202   0.023707
    12  O    0.036545  -0.000533   0.000016  -0.044280   0.023707   7.875539
    13  C    0.023084   0.131773   0.109142  -0.298104   0.436280   0.038851
    14  H   -0.000030  -0.002393  -0.008759   0.001886  -0.000530  -0.000094
    15  Br   0.000148   0.009941   0.002868   0.012865  -0.000392   0.002247
              13         14         15
     1  C    2.077552  -0.046637   0.024060
     2  C   -3.070067   0.031866   0.069640
     3  C    1.765892  -0.023917  -0.062946
     4  C   -6.262032  -0.094208   0.069432
     5  C   -2.683191   0.134270  -0.124747
     6  H   -0.010908  -0.000016  -0.000151
     7  H    0.023084  -0.000030   0.000148
     8  H    0.131773  -0.002393   0.009941
     9  H    0.109142  -0.008759   0.002868
    10  N   -0.298104   0.001886   0.012865
    11  O    0.436280  -0.000530  -0.000392
    12  O    0.038851  -0.000094   0.002247
    13  C   13.780797   0.313769   0.129711
    14  H    0.313769   0.385618  -0.056324
    15  Br   0.129711  -0.056324  34.874208
 Mulliken charges:
               1
     1  C   -0.503666
     2  C    0.377453
     3  C   -0.596412
     4  C    0.323212
     5  C   -0.038382
     6  H    0.284045
     7  H    0.404557
     8  H    0.406313
     9  H    0.236921
    10  N   -0.126867
    11  O    0.151123
    12  O    0.149312
    13  C   -0.482549
    14  H    0.365501
    15  Br   0.049439
 Sum of Mulliken charges =   1.00000
 Mulliken charges with hydrogens summed into heavy atoms:
               1
     1  C   -0.219621
     2  C    0.782010
     3  C   -0.596412
     4  C    0.729525
     5  C    0.198539
    10  N   -0.126867
    11  O    0.151123
    12  O    0.149312
    13  C   -0.117048
    15  Br   0.049439
 Electronic spatial extent (au):  <R**2>=           2787.8127
 Charge=              1.0000 electrons
 Dipole moment (field-independent basis, Debye):
    X=              6.5406    Y=              0.2037    Z=              0.5502  Tot=              6.5669
 Quadrupole moment (field-independent basis, Debye-Ang):
   XX=            -54.0487   YY=            -53.0060   ZZ=            -64.5954
   XY=             -0.0288   XZ=             -0.8004   YZ=              0.0118
 Traceless Quadrupole moment (field-independent basis, Debye-Ang):
   XX=              3.1680   YY=              4.2107   ZZ=             -7.3787
   XY=             -0.0288   XZ=             -0.8004   YZ=              0.0118
 Octapole moment (field-independent basis, Debye-Ang**2):
  XXX=           -196.9170  YYY=             93.7428  ZZZ=             82.0830  XYY=            -59.1806
  XXY=             33.6279  XXZ=             32.9822  XZZ=            -70.1427  YZZ=             20.4378
  YYZ=             29.1703  XYZ=              0.1122
 Hexadecapole moment (field-independent basis, Debye-Ang**3):
 XXXX=          -1854.1751 YYYY=           -693.3031 ZZZZ=           -363.1905 XXXY=            -70.2318
 XXXZ=            -34.6989 YYYX=            -68.9286 YYYZ=           -166.7210 ZZZX=            -28.3226
 ZZZY=           -146.1549 XXYY=           -425.8802 XXZZ=           -366.2247 YYZZ=           -173.4986
 XXYZ=            -59.6135 YYXZ=            -10.5663 ZZXY=            -15.9623
 N-N= 7.348066756721D+02 E-N=-8.627819467170D+03  KE= 3.005852438150D+03
 No NMR shielding tensors so no spin-rotation constants.
 Leave Link  601 at Wed May  1 14:58:03 2024, MaxMem=  1207959552 cpu:               7.3 elap:               7.3
 (Enter /software/gaussian/g16-c01/sse4/g16/l9999.exe)
 Unable to Open any file for archive entry.
 1\1\GINC-BHX0004\SP\RwB97XD\6-311+G(d)\C6H5Br1N1O2(1+)\BWEIGHT\01-May-
 2024\0\\#P wB97XD/6-311+G* NoSymm #P Field=X-233\\TitleMe\\1,1\C,0,0.0
 295,1.3397,0.0682\C,0,1.4348,1.2867,0.0064\C,0,2.1118,0.0511,-0.0054\C
 ,0,1.4451,-1.1372,0.0312\C,0,-0.6879,0.1682,0.11\H,0,-0.4713,2.2984,0.
 0781\H,0,2.0273,2.1965,-0.0322\H,0,1.9897,-2.0764,0.0232\H,0,-1.7716,0
 .1804,0.1582\N,0,3.5864,0.051,-0.0675\O,0,4.1471,-1.0597,-0.0881\O,0,4
 .145,1.1639,-0.0901\C,0,-0.0236,-1.1458,0.0835\H,0,-0.4367,-1.8725,0.7
 889\Br,0,-0.5359,-1.8697,-1.7408\\Version=ES64L-G16RevC.01\HF=-3010.56
 02977\RMSD=3.127e-09\Dipole=0.6667409,1.2282131,1.3626553\Quadrupole=2
 .3553529,3.1305432,-5.4858961,-0.0213984,-0.5951064,0.0087883\PG=C01 [
 X(C6H5Br1N1O2)]\\@
 The archive entry for this job was punched.


 HICKORY, DICKORY, DOCK
 TWO MICE RAN UP THE CLOCK
 THE CLOCK STRUCK ONE...
 THE OTHER ESCAPED WITH MINOR INJURIES.
 Job cpu time:       0 days  0 hours 30 minutes 20.8 seconds.
 Elapsed time:       0 days  0 hours 30 minutes 20.8 seconds.
 File lengths (MBytes):  RWF=     40 Int=      0 D2E=      0 Chk=     32 Scr=      1
 Normal termination of Gaussian 16 at Wed May  1 14:58:04 2024.
