 Entering Gaussian System, Link 0=g16
 Initial command:
 /software/gaussian/g16-a03/l1.exe "/local_scratch/6484748/Gau-26798.inp" -scrdir="/local_scratch/6484748/"
 Entering Link 1 = /software/gaussian/g16-a03/l1.exe PID=     26809.
  
 Copyright (c) 1988,1990,1992,1993,1995,1998,2003,2009,2016,
            Gaussian, Inc.  All Rights Reserved.
  
 This is part of the Gaussian(R) 16 program.  It is based on
 the Gaussian(R) 09 system (copyright 2009, Gaussian, Inc.),
 the Gaussian(R) 03 system (copyright 2003, Gaussian, Inc.),
 the Gaussian(R) 98 system (copyright 1998, Gaussian, Inc.),
 the Gaussian(R) 94 system (copyright 1995, Gaussian, Inc.),
 the Gaussian 92(TM) system (copyright 1992, Gaussian, Inc.),
 the Gaussian 90(TM) system (copyright 1990, Gaussian, Inc.),
 the Gaussian 88(TM) system (copyright 1988, Gaussian, Inc.),
 the Gaussian 86(TM) system (copyright 1986, Carnegie Mellon
 University), and the Gaussian 82(TM) system (copyright 1983,
 Carnegie Mellon University). Gaussian is a federally registered
 trademark of Gaussian, Inc.
  
 This software contains proprietary and confidential information,
 including trade secrets, belonging to Gaussian, Inc.
  
 This software is provided under written license and may be
 used, copied, transmitted, or stored only in accord with that
 written license.
  
 The following legend is applicable only to US Government
 contracts under FAR:
  
                    RESTRICTED RIGHTS LEGEND
  
 Use, reproduction and disclosure by the US Government is
 subject to restrictions as set forth in subparagraphs (a)
 and (c) of the Commercial Computer Software - Restricted
 Rights clause in FAR 52.227-19.
  
 Gaussian, Inc.
 340 Quinnipiac St., Bldg. 40, Wallingford CT 06492
  
  
 ---------------------------------------------------------------
 Warning -- This program may not be used in any manner that
 competes with the business of Gaussian, Inc. or will provide
 assistance to any competitor of Gaussian, Inc.  The licensee
 of this program is prohibited from giving any competitor of
 Gaussian, Inc. access to this program.  By using this program,
 the user acknowledges that Gaussian, Inc. is engaged in the
 business of creating and licensing software in the field of
 computational chemistry and represents and warrants to the
 licensee that it is not a competitor of Gaussian, Inc. and that
 it will not use this program in any manner prohibited above.
 ---------------------------------------------------------------
  

 Cite this work as:
 Gaussian 16, Revision A.03,
 M. J. Frisch, G. W. Trucks, H. B. Schlegel, G. E. Scuseria, 
 M. A. Robb, J. R. Cheeseman, G. Scalmani, V. Barone, 
 G. A. Petersson, H. Nakatsuji, X. Li, M. Caricato, A. V. Marenich, 
 J. Bloino, B. G. Janesko, R. Gomperts, B. Mennucci, H. P. Hratchian, 
 J. V. Ortiz, A. F. Izmaylov, J. L. Sonnenberg, D. Williams-Young, 
 F. Ding, F. Lipparini, F. Egidi, J. Goings, B. Peng, A. Petrone, 
 T. Henderson, D. Ranasinghe, V. G. Zakrzewski, J. Gao, N. Rega, 
 G. Zheng, W. Liang, M. Hada, M. Ehara, K. Toyota, R. Fukuda, 
 J. Hasegawa, M. Ishida, T. Nakajima, Y. Honda, O. Kitao, H. Nakai, 
 T. Vreven, K. Throssell, J. A. Montgomery, Jr., J. E. Peralta, 
 F. Ogliaro, M. J. Bearpark, J. J. Heyd, E. N. Brothers, K. N. Kudin, 
 V. N. Staroverov, T. A. Keith, R. Kobayashi, J. Normand, 
 K. Raghavachari, A. P. Rendell, J. C. Burant, S. S. Iyengar, 
 J. Tomasi, M. Cossi, J. M. Millam, M. Klene, C. Adamo, R. Cammi, 
 J. W. Ochterski, R. L. Martin, K. Morokuma, O. Farkas, 
 J. B. Foresman, and D. J. Fox, Gaussian, Inc., Wallingford CT, 2016.
 
 ******************************************
 Gaussian 16:  ES64L-G16RevA.03 25-Dec-2016
                17-Sep-2021 
 ******************************************
 %chk=geometry.chk
 %mem=2GB
 %nprocshared=1
 Will use up to    1 processors via shared memory.
 --------------------------------------------------------------------
 #p B3LYP/6-311+G** #p TD=(singlets,nstates=30)IOp(6/8=3) IOp(9/40=4)
 --------------------------------------------------------------------
 1/38=1,172=1/1;
 2/12=2,17=6,18=5,40=1/2;
 3/5=4,6=6,7=111,11=9,25=1,30=1,74=-5/1,2,3,8;
 4//1;
 5/5=2,38=5/2;
 8/6=1,10=2,108=30/1;
 9/40=4,41=30,42=1,48=1,70=2/14;
 6/7=2,8=3,9=2,10=2/1;
 99/5=1,9=1/99;
 Leave Link    1 at Fri Sep 17 10:51:49 2021, MaxMem=   268435456 cpu:               0.0 elap:               0.4
 (Enter /software/gaussian/g16-a03/l101.exe)
 -------------------------------
 Scan Step 17, Bond Length 0.585
 -------------------------------
 Symbolic Z-matrix:
 Charge =  0 Multiplicity = 1
 C                     0.        0.       -0.52736 
 H                     0.        0.93726  -1.11871 
 H                     0.       -0.93726  -1.11871 
 O                     0.        0.        0.05764 
 
 ITRead=  0  0  0  0
 MicOpt= -1 -1 -1 -1
 NAtoms=      4 NQM=        4 NQMF=       0 NMMI=      0 NMMIF=      0
                NMic=       0 NMicF=      0.
                    Isotopes and Nuclear Properties:
 (Nuclear quadrupole moments (NQMom) in fm**2, nuclear magnetic moments (NMagM)
  in nuclear magnetons)

  Atom         1           2           3           4
 IAtWgt=          12           1           1          16
 AtmWgt=  12.0000000   1.0078250   1.0078250  15.9949146
 NucSpn=           0           1           1           0
 AtZEff=  -0.0000000  -0.0000000  -0.0000000  -0.0000000
 NQMom=    0.0000000   0.0000000   0.0000000   0.0000000
 NMagM=    0.0000000   2.7928460   2.7928460   0.0000000
 AtZNuc=   6.0000000   1.0000000   1.0000000   8.0000000
 Leave Link  101 at Fri Sep 17 10:51:49 2021, MaxMem=   268435456 cpu:               0.1 elap:               0.1
 (Enter /software/gaussian/g16-a03/l202.exe)
                          Input orientation:                          
 ---------------------------------------------------------------------
 Center     Atomic      Atomic             Coordinates (Angstroms)
 Number     Number       Type             X           Y           Z
 ---------------------------------------------------------------------
      1          6           0        0.000000    0.000000   -0.527360
      2          1           0        0.000000    0.937260   -1.118710
      3          1           0        0.000000   -0.937260   -1.118710
      4          8           0        0.000000    0.000000    0.057640
 ---------------------------------------------------------------------
                    Distance matrix (angstroms):
                    1          2          3          4
     1  C    0.000000
     2  H    1.108220   0.000000
     3  H    1.108220   1.874520   0.000000
     4  O    0.585000   1.504080   1.504080   0.000000
 Stoichiometry    CH2O
 Framework group  C2V[C2(CO),SGV(H2)]
 Deg. of freedom     3
 Full point group                 C2V     NOp   4
 Largest Abelian subgroup         C2V     NOp   4
 Largest concise Abelian subgroup C2      NOp   2
                         Standard orientation:                         
 ---------------------------------------------------------------------
 Center     Atomic      Atomic             Coordinates (Angstroms)
 Number     Number       Type             X           Y           Z
 ---------------------------------------------------------------------
      1          6           0        0.000000   -0.000000   -0.218581
      2          1           0        0.000000    0.937260   -0.809931
      3          1           0       -0.000000   -0.937260   -0.809931
      4          8           0        0.000000    0.000000    0.366419
 ---------------------------------------------------------------------
 Rotational constants (GHZ):         285.4183527         127.7104488          88.2313356
 Leave Link  202 at Fri Sep 17 10:51:49 2021, MaxMem=   268435456 cpu:               0.0 elap:               0.0
 (Enter /software/gaussian/g16-a03/l301.exe)
 Standard basis: 6-311+G(d,p) (5D, 7F)
 Ernie: Thresh=  0.10000D-02 Tol=  0.10000D-05 Strict=F.
 There are    29 symmetry adapted cartesian basis functions of A1  symmetry.
 There are     3 symmetry adapted cartesian basis functions of A2  symmetry.
 There are    11 symmetry adapted cartesian basis functions of B1  symmetry.
 There are    15 symmetry adapted cartesian basis functions of B2  symmetry.
 There are    27 symmetry adapted basis functions of A1  symmetry.
 There are     3 symmetry adapted basis functions of A2  symmetry.
 There are    11 symmetry adapted basis functions of B1  symmetry.
 There are    15 symmetry adapted basis functions of B2  symmetry.
    56 basis functions,    88 primitive gaussians,    58 cartesian basis functions
     8 alpha electrons        8 beta electrons
       nuclear repulsion energy        55.0612397578 Hartrees.
 IExCor=  402 DFT=T Ex+Corr=B3LYP ExCW=0 ScaHFX=  0.200000
 ScaDFX=  0.800000  0.720000  1.000000  0.810000 ScalE2=  1.000000  1.000000
 IRadAn=      5 IRanWt=     -1 IRanGd=            0 ICorTp=0 IEmpDi=  4
 NAtoms=    4 NActive=    4 NUniq=    3 SFac= 1.78D+00 NAtFMM=   60 NAOKFM=F Big=F
 Integral buffers will be    131072 words long.
 Regular integral format.
 Two-electron integral symmetry is turned on.
 Leave Link  301 at Fri Sep 17 10:51:49 2021, MaxMem=   268435456 cpu:               0.1 elap:               0.1
 (Enter /software/gaussian/g16-a03/l302.exe)
 NPDir=0 NMtPBC=     1 NCelOv=     1 NCel=       1 NClECP=     1 NCelD=      1
         NCelK=      1 NCelE2=     1 NClLst=     1 CellRange=     0.0.
 One-electron integrals computed using PRISM.
 One-electron integral symmetry used in STVInt
 NBasis=    56 RedAO= T EigKep=  3.36D-04  NBF=    27     3    11    15
 NBsUse=    56 1.00D-06 EigRej= -1.00D+00 NBFU=    27     3    11    15
 Precomputing XC quadrature grid using
 IXCGrd= 4 IRadAn=           5 IRanWt=          -1 IRanGd=           0 AccXCQ= 0.00D+00.
 Generated NRdTot=       0 NPtTot=           0 NUsed=           0 NTot=          32
 NSgBfM=    58    58    58    58    58 MxSgAt=     4 MxSgA2=     4.
 Leave Link  302 at Fri Sep 17 10:51:50 2021, MaxMem=   268435456 cpu:               0.1 elap:               0.1
 (Enter /software/gaussian/g16-a03/l303.exe)
 DipDrv:  MaxL=1.
 Leave Link  303 at Fri Sep 17 10:51:50 2021, MaxMem=   268435456 cpu:               0.0 elap:               0.0
 (Enter /software/gaussian/g16-a03/l308.exe)
 Leave Link  308 at Fri Sep 17 10:51:50 2021, MaxMem=   268435456 cpu:               0.0 elap:               0.0
 (Enter /software/gaussian/g16-a03/l401.exe)
 ExpMin= 4.38D-02 ExpMax= 8.59D+03 ExpMxC= 1.30D+03 IAcc=3 IRadAn=         5 AccDes= 0.00D+00
 Harris functional with IExCor=  402 and IRadAn=       5 diagonalized for initial guess.
 HarFok:  IExCor=  402 AccDes= 0.00D+00 IRadAn=         5 IDoV= 1 UseB2=F ITyADJ=14
 ICtDFT=  3500011 ScaDFX=  1.000000  1.000000  1.000000  1.000000
 FoFCou: FMM=F IPFlag=           0 FMFlag=      100000 FMFlg1=           0
         NFxFlg=           0 DoJE=T BraDBF=F KetDBF=T FulRan=T
         wScrn=  0.000000 ICntrl=       500 IOpCl=  0 I1Cent=   200000004 NGrid=           0
         NMat0=    1 NMatS0=      1 NMatT0=    0 NMatD0=    1 NMtDS0=    0 NMtDT0=    0
 Petite list used in FoFCou.
 Harris En= -111.823817547841    
 JPrj=0 DoOrth=F DoCkMO=F.
 Initial guess orbital symmetries:
       Occupied  (A1) (A1) (A1) (B2) (B1) (A1) (A1) (B2)
       Virtual   (A1) (B1) (A1) (B2) (B1) (A1) (B2) (A1) (B1) (A1)
                 (B2) (A1) (A1) (B1) (B2) (B2) (A1) (A2) (B1) (A1)
                 (B2) (A1) (A1) (B2) (A1) (B1) (A2) (B2) (B1) (A1)
                 (A1) (B2) (B1) (A1) (A1) (B2) (A2) (B2) (A1) (B1)
                 (A1) (B2) (B1) (A1) (A1) (B2) (A1) (A1)
 The electronic state of the initial guess is 1-A1.
 Leave Link  401 at Fri Sep 17 10:51:50 2021, MaxMem=   268435456 cpu:               0.3 elap:               0.3
 (Enter /software/gaussian/g16-a03/l502.exe)
 Keep R1 ints in memory in symmetry-blocked form, NReq=2159909.
 FoFCou: FMM=F IPFlag=           0 FMFlag=           0 FMFlg1=           0
         NFxFlg=           0 DoJE=F BraDBF=F KetDBF=F FulRan=T
         wScrn=  0.000000 ICntrl=       600 IOpCl=  0 I1Cent=           0 NGrid=           0
         NMat0=    1 NMatS0=   1596 NMatT0=    0 NMatD0=    1 NMtDS0=    0 NMtDT0=    0
 Petite list used in FoFCou.
 Closed shell SCF:
 Using DIIS extrapolation, IDIIS=  1040.
 NGot=   268435456 LenX=   268074384 LenY=   268070579
 Requested convergence on RMS density matrix=1.00D-08 within 128 cycles.
 Requested convergence on MAX density matrix=1.00D-06.
 Requested convergence on             energy=1.00D-06.
 No special actions if energy rises.

 Cycle   1  Pass 1  IDiag  1:
 E= -110.712567513384    
 DIIS: error= 1.55D-01 at cycle   1 NSaved=   1.
 NSaved= 1 IEnMin= 1 EnMin= -110.712567513384     IErMin= 1 ErrMin= 1.55D-01
 ErrMax= 1.55D-01  0.00D+00 EMaxC= 1.00D-01 BMatC= 1.06D+00 BMatP= 1.06D+00
 IDIUse=3 WtCom= 0.00D+00 WtEn= 1.00D+00
 Coeff-Com:  0.100D+01
 Coeff-En:   0.100D+01
 Coeff:      0.100D+01
 Gap=     0.099 Goal=   None    Shift=    0.000
 GapD=    0.099 DampG=0.500 DampE=0.250 DampFc=0.2500 IDamp=-1.
 Damping current iteration by 2.50D-01
 RMSDP=3.05D-02 MaxDP=4.92D-01              OVMax= 4.76D-01

 Cycle   2  Pass 1  IDiag  1:
 E= -110.894892137857     Delta-E=       -0.182324624472 Rises=F Damp=T
 DIIS: error= 7.59D-02 at cycle   2 NSaved=   2.
 NSaved= 2 IEnMin= 2 EnMin= -110.894892137857     IErMin= 2 ErrMin= 7.59D-02
 ErrMax= 7.59D-02  0.00D+00 EMaxC= 1.00D-01 BMatC= 2.64D-01 BMatP= 1.06D+00
 IDIUse=3 WtCom= 2.41D-01 WtEn= 7.59D-01
 Coeff-Com: -0.955D+00 0.196D+01
 Coeff-En:   0.000D+00 0.100D+01
 Coeff:     -0.230D+00 0.123D+01
 Gap=     0.166 Goal=   None    Shift=    0.000
 RMSDP=1.24D-02 MaxDP=2.49D-01 DE=-1.82D-01 OVMax= 2.93D-01

 Cycle   3  Pass 1  IDiag  1:
 E= -111.214990806140     Delta-E=       -0.320098668284 Rises=F Damp=F
 DIIS: error= 3.72D-02 at cycle   3 NSaved=   3.
 NSaved= 3 IEnMin= 3 EnMin= -111.214990806140     IErMin= 3 ErrMin= 3.72D-02
 ErrMax= 3.72D-02  0.00D+00 EMaxC= 1.00D-01 BMatC= 6.47D-02 BMatP= 2.64D-01
 IDIUse=3 WtCom= 6.28D-01 WtEn= 3.72D-01
 Coeff-Com:  0.353D+00-0.270D+00 0.916D+00
 Coeff-En:   0.000D+00 0.000D+00 0.100D+01
 Coeff:      0.222D+00-0.169D+00 0.947D+00
 Gap=     0.208 Goal=   None    Shift=    0.000
 RMSDP=4.83D-03 MaxDP=7.45D-02 DE=-3.20D-01 OVMax= 6.66D-02

 Cycle   4  Pass 1  IDiag  1:
 E= -111.246194602137     Delta-E=       -0.031203795996 Rises=F Damp=F
 DIIS: error= 1.33D-02 at cycle   4 NSaved=   4.
 NSaved= 4 IEnMin= 4 EnMin= -111.246194602137     IErMin= 4 ErrMin= 1.33D-02
 ErrMax= 1.33D-02  0.00D+00 EMaxC= 1.00D-01 BMatC= 8.25D-03 BMatP= 6.47D-02
 IDIUse=3 WtCom= 8.67D-01 WtEn= 1.33D-01
 Coeff-Com: -0.811D-01 0.104D+00 0.168D+00 0.808D+00
 Coeff-En:   0.000D+00 0.000D+00 0.420D-01 0.958D+00
 Coeff:     -0.704D-01 0.906D-01 0.152D+00 0.828D+00
 Gap=     0.196 Goal=   None    Shift=    0.000
 RMSDP=1.41D-03 MaxDP=2.11D-02 DE=-3.12D-02 OVMax= 2.32D-02

 Cycle   5  Pass 1  IDiag  1:
 E= -111.251155723262     Delta-E=       -0.004961121125 Rises=F Damp=F
 DIIS: error= 1.06D-03 at cycle   5 NSaved=   5.
 NSaved= 5 IEnMin= 5 EnMin= -111.251155723262     IErMin= 5 ErrMin= 1.06D-03
 ErrMax= 1.06D-03  0.00D+00 EMaxC= 1.00D-01 BMatC= 4.19D-05 BMatP= 8.25D-03
 IDIUse=3 WtCom= 9.89D-01 WtEn= 1.06D-02
 Coeff-Com: -0.298D-01 0.385D-01 0.133D-01 0.210D+00 0.768D+00
 Coeff-En:   0.000D+00 0.000D+00 0.000D+00 0.000D+00 0.100D+01
 Coeff:     -0.295D-01 0.381D-01 0.131D-01 0.208D+00 0.770D+00
 Gap=     0.198 Goal=   None    Shift=    0.000
 RMSDP=1.41D-04 MaxDP=1.79D-03 DE=-4.96D-03 OVMax= 2.40D-03

 Cycle   6  Pass 1  IDiag  1:
 E= -111.251182600374     Delta-E=       -0.000026877112 Rises=F Damp=F
 DIIS: error= 3.40D-04 at cycle   6 NSaved=   6.
 NSaved= 6 IEnMin= 6 EnMin= -111.251182600374     IErMin= 6 ErrMin= 3.40D-04
 ErrMax= 3.40D-04  0.00D+00 EMaxC= 1.00D-01 BMatC= 5.64D-06 BMatP= 4.19D-05
 IDIUse=3 WtCom= 9.97D-01 WtEn= 3.40D-03
 Coeff-Com:  0.184D-02-0.189D-02-0.772D-02-0.558D-01 0.357D-01 0.103D+01
 Coeff-En:   0.000D+00 0.000D+00 0.000D+00 0.000D+00 0.000D+00 0.100D+01
 Coeff:      0.184D-02-0.188D-02-0.770D-02-0.556D-01 0.356D-01 0.103D+01
 Gap=     0.197 Goal=   None    Shift=    0.000
 RMSDP=3.90D-05 MaxDP=5.11D-04 DE=-2.69D-05 OVMax= 9.57D-04

 Cycle   7  Pass 1  IDiag  1:
 E= -111.251186585017     Delta-E=       -0.000003984642 Rises=F Damp=F
 DIIS: error= 2.65D-05 at cycle   7 NSaved=   7.
 NSaved= 7 IEnMin= 7 EnMin= -111.251186585017     IErMin= 7 ErrMin= 2.65D-05
 ErrMax= 2.65D-05  0.00D+00 EMaxC= 1.00D-01 BMatC= 3.20D-08 BMatP= 5.64D-06
 IDIUse=1 WtCom= 1.00D+00 WtEn= 0.00D+00
 Coeff-Com:  0.522D-03-0.637D-03-0.118D-02-0.803D-02 0.266D-02 0.161D+00
 Coeff-Com:  0.846D+00
 Coeff:      0.522D-03-0.637D-03-0.118D-02-0.803D-02 0.266D-02 0.161D+00
 Coeff:      0.846D+00
 Gap=     0.197 Goal=   None    Shift=    0.000
 RMSDP=3.59D-06 MaxDP=5.02D-05 DE=-3.98D-06 OVMax= 7.02D-05

 Cycle   8  Pass 1  IDiag  1:
 E= -111.251186609728     Delta-E=       -0.000000024712 Rises=F Damp=F
 DIIS: error= 4.99D-06 at cycle   8 NSaved=   8.
 NSaved= 8 IEnMin= 8 EnMin= -111.251186609728     IErMin= 8 ErrMin= 4.99D-06
 ErrMax= 4.99D-06  0.00D+00 EMaxC= 1.00D-01 BMatC= 1.19D-09 BMatP= 3.20D-08
 IDIUse=1 WtCom= 1.00D+00 WtEn= 0.00D+00
 Coeff-Com:  0.277D-04-0.461D-04-0.629D-04-0.314D-04 0.254D-02 0.155D-01
 Coeff-Com:  0.504D-01 0.932D+00
 Coeff:      0.277D-04-0.461D-04-0.629D-04-0.314D-04 0.254D-02 0.155D-01
 Coeff:      0.504D-01 0.932D+00
 Gap=     0.197 Goal=   None    Shift=    0.000
 RMSDP=5.44D-07 MaxDP=7.32D-06 DE=-2.47D-08 OVMax= 7.27D-06

 Cycle   9  Pass 1  IDiag  1:
 E= -111.251186610464     Delta-E=       -0.000000000736 Rises=F Damp=F
 DIIS: error= 3.48D-07 at cycle   9 NSaved=   9.
 NSaved= 9 IEnMin= 9 EnMin= -111.251186610464     IErMin= 9 ErrMin= 3.48D-07
 ErrMax= 3.48D-07  0.00D+00 EMaxC= 1.00D-01 BMatC= 5.04D-12 BMatP= 1.19D-09
 IDIUse=1 WtCom= 1.00D+00 WtEn= 0.00D+00
 Coeff-Com: -0.745D-05 0.114D-04 0.374D-05 0.388D-05-0.413D-03-0.378D-03
 Coeff-Com: -0.157D-01-0.245D-03 0.102D+01
 Coeff:     -0.745D-05 0.114D-04 0.374D-05 0.388D-05-0.413D-03-0.378D-03
 Coeff:     -0.157D-01-0.245D-03 0.102D+01
 Gap=     0.197 Goal=   None    Shift=    0.000
 RMSDP=9.56D-08 MaxDP=1.57D-06 DE=-7.36D-10 OVMax= 1.30D-06

 Cycle  10  Pass 1  IDiag  1:
 E= -111.251186610469     Delta-E=       -0.000000000005 Rises=F Damp=F
 DIIS: error= 9.78D-08 at cycle  10 NSaved=  10.
 NSaved=10 IEnMin=10 EnMin= -111.251186610469     IErMin=10 ErrMin= 9.78D-08
 ErrMax= 9.78D-08  0.00D+00 EMaxC= 1.00D-01 BMatC= 4.25D-13 BMatP= 5.04D-12
 IDIUse=1 WtCom= 1.00D+00 WtEn= 0.00D+00
 Coeff-Com: -0.300D-07 0.180D-06-0.291D-07-0.335D-05-0.207D-04-0.213D-03
 Coeff-Com:  0.640D-03-0.254D-03-0.321D-01 0.103D+01
 Coeff:     -0.300D-07 0.180D-06-0.291D-07-0.335D-05-0.207D-04-0.213D-03
 Coeff:      0.640D-03-0.254D-03-0.321D-01 0.103D+01
 Gap=     0.197 Goal=   None    Shift=    0.000
 RMSDP=9.27D-09 MaxDP=1.37D-07 DE=-4.63D-12 OVMax= 2.90D-07

 SCF Done:  E(RB3LYP) =  -111.251186610     A.U. after   10 cycles
            NFock= 10  Conv=0.93D-08     -V/T= 1.8981
 KE= 1.238762418789D+02 PE=-3.790996585110D+02 EE= 8.891099026384D+01
 Leave Link  502 at Fri Sep 17 10:51:52 2021, MaxMem=   268435456 cpu:               1.8 elap:               1.9
 (Enter /software/gaussian/g16-a03/l801.exe)
 DoSCS=F DFT=T ScalE2(SS,OS)=  1.000000  1.000000
 ExpMin= 4.38D-02 ExpMax= 8.59D+03 ExpMxC= 1.30D+03 IAcc=3 IRadAn=         5 AccDes= 0.00D+00
 HarFok:  IExCor=  205 AccDes= 0.00D+00 IRadAn=         5 IDoV=-2 UseB2=F ITyADJ=14
 ICtDFT= 12500011 ScaDFX=  1.000000  1.000000  1.000000  1.000000
 Largest valence mixing into a core orbital is  1.28D-03
 Largest core mixing into a valence orbital is  3.38D-04
 Range of M.O.s used for correlation:     3    56
 NBasis=    56 NAE=     8 NBE=     8 NFC=     2 NFV=     0
 NROrb=     54 NOA=     6 NOB=     6 NVA=    48 NVB=    48

 **** Warning!!: The largest alpha MO coefficient is  0.19608245D+02

 Leave Link  801 at Fri Sep 17 10:51:52 2021, MaxMem=   268435456 cpu:               0.2 elap:               0.2
 (Enter /software/gaussian/g16-a03/l914.exe)
 RHF ground state
 Keep R1, R2, and R3 ints in memory in symmetry-blocked form, NReq=6042848.
 FoFCou: FMM=F IPFlag=           0 FMFlag=           0 FMFlg1=           0
         NFxFlg=           0 DoJE=F BraDBF=F KetDBF=F FulRan=T
         wScrn=  0.000000 ICntrl=       600 IOpCl=  0 I1Cent=           0 NGrid=           0
         NMat0=    1 NMatS0=   1596 NMatT0=    0 NMatD0=    1 NMtDS0=    0 NMtDT0=    0
 Petite list used in FoFCou.
 MDV=   268435456 DFT=T DoStab=F Mixed=T DoRPA=T DoScal=F NonHer=T
 Making orbital integer symmetry assigments:
 Orbital symmetries:
       Occupied  (A1) (A1) (A1) (B2) (B1) (A1) (A1) (B2)
       Virtual   (A1) (B1) (B2) (A1) (A1) (B1) (B2) (A1) (A1) (B1)
                 (B2) (A1) (A1) (B2) (B1) (A1) (B2) (A1) (B1) (A2)
                 (B2) (A1) (B2) (A1) (A1) (B1) (A2) (B1) (B2) (A1)
                 (A1) (B2) (B1) (A1) (B2) (A1) (A2) (B2) (A1) (B1)
                 (A1) (B2) (A1) (B1) (A1) (B2) (A1) (A1)
   120 initial guesses have been made.
 Convergence on wavefunction:    0.001000000000000
 Davidson Disk Diagonalization:  ConvIn= 1.00D-03 SkipCon=T Conv= 1.00D-03.
 Max sub-space:  1728 roots to seek:   120 dimension of matrix:          576
 Iteration     1 Dimension   120 NMult     0 NNew    120
 CISAX will form   120 AO SS matrices at one time.
 NMat=   120 NSing=   120 JSym2X=-1.
 New state      3 was old state      4
 New state      4 was old state      3
 New state      5 was old state      6
 New state      6 was old state      5
 New state      9 was old state     10
 New state     10 was old state      9
 New state     14 was old state     16
 New state     15 was old state     14
 New state     16 was old state     15
 New state     25 was old state     28
 New state     27 was old state     29
 New state     28 was old state     25
 New state     29 was old state     27
 Excitation Energies [eV] at current iteration:
 Root      1 :     4.472936022668816
 Root      2 :     4.850653031792497
 Root      3 :     5.542095184671402
 Root      4 :     5.778735609098081
 Root      5 :     8.454501610853946
 Root      6 :     8.784639287712089
 Root      7 :     8.992522640486408
 Root      8 :     9.449349377473585
 Root      9 :     9.959632558941227
 Root     10 :    10.239950875898440
 Root     11 :    12.461091281422800
 Root     12 :    13.001023081142870
 Root     13 :    13.522097469603280
 Root     14 :    13.756296919340550
 Root     15 :    14.248250145657790
 Root     16 :    14.449329560718810
 Root     17 :    15.128329642518180
 Root     18 :    15.383192359908280
 Root     19 :    16.078406785492020
 Root     20 :    16.111914221040880
 Root     21 :    16.622576615413280
 Root     22 :    17.156442803026120
 Root     23 :    17.444887150079060
 Root     24 :    17.623387877843170
 Root     25 :    18.576594188478500
 Root     26 :    18.699645036733790
 Root     27 :    19.071126990059020
 Root     28 :    19.092182551077420
 Root     29 :    19.167681292603240
 Root     30 :    19.512678609593580
 Root     31 :    19.625089001312410
 Root     32 :    19.820338109350680
 Root     33 :    20.412491771475450
 Root     34 :    20.790391867577120
 Root     35 :    20.796382732698480
 Root     36 :    20.821553004499200
 Root     37 :    22.709569202773220
 Root     38 :    22.736894120695220
 Root     39 :    22.770164423772660
 Root     40 :    23.221789969168660
 Root     41 :    23.474493659528410
 Root     42 :    23.618116878826840
 Root     43 :    23.982997554863030
 Root     44 :    24.078792891947980
 Root     45 :    24.141357245620670
 Root     46 :    24.163119317210910
 Root     47 :    24.836784053058840
 Root     48 :    24.867835712712190
 Root     49 :    24.899875617021120
 Root     50 :    26.438117887364880
 Root     51 :    26.498467061261640
 Root     52 :    27.111554076908290
 Root     53 :    27.237560689378500
 Root     54 :    27.325153324862060
 Root     55 :    27.363097735492080
 Root     56 :    27.492489454525110
 Root     57 :    27.998538919664090
 Root     58 :    28.208248261557400
 Root     59 :    28.225351237061730
 Root     60 :    28.569430816839970
 Root     61 :    28.783330370696970
 Root     62 :    28.994020271482830
 Root     63 :    29.293835304478640
 Root     64 :    29.295670831013390
 Root     65 :    29.412255697035150
 Root     66 :    29.515496358759380
 Root     67 :    29.789821934702760
 Root     68 :    29.954642427169780
 Root     69 :    30.256148272261440
 Root     70 :    30.336012675747150
 Root     71 :    30.915455576017890
 Root     72 :    31.621849651884340
 Root     73 :    31.964106777981080
 Root     74 :    32.360202156554740
 Root     75 :    32.669393749027890
 Root     76 :    32.690123277873390
 Root     77 :    33.118387000685700
 Root     78 :    33.362670308972120
 Root     79 :    33.532546546600170
 Root     80 :    33.918070864878080
 Root     81 :    34.098192052612210
 Root     82 :    34.245614930825160
 Root     83 :    34.427235755888360
 Root     84 :    36.330458619714020
 Root     85 :    36.384875818698230
 Root     86 :    36.768109157930450
 Root     87 :    36.803602196862560
 Root     88 :    37.476897845369120
 Root     89 :    37.549491980908330
 Root     90 :    37.811543204842360
 Root     91 :    37.820616243789050
 Root     92 :    38.345956045611220
 Root     93 :    38.353341182310140
 Root     94 :    38.587859552595360
 Root     95 :    38.637050715704210
 Root     96 :    39.023887131079960
 Root     97 :    39.062516925977640
 Root     98 :    39.295522463952270
 Root     99 :    39.887193360461550
 Root    100 :    40.251563219270020
 Root    101 :    40.291919721735060
 Root    102 :    40.460722209075810
 Root    103 :    40.506176350231190
 Root    104 :    40.507558928698960
 Root    105 :    41.562522545269370
 Root    106 :    41.626425938953330
 Root    107 :    42.195541155268830
 Root    108 :    42.775264244004060
 Root    109 :    42.811512185213300
 Root    110 :    43.518110252228770
 Root    111 :    43.951402390112290
 Root    112 :    44.834504679954190
 Root    113 :    45.936064838482530
 Root    114 :    46.347157325265660
 Root    115 :    46.579901982702740
 Root    116 :    47.409051763932840
 Root    117 :    47.414505767409570
 Root    118 :    47.922192170939810
 Root    119 :    48.260015753175850
 Root    120 :    51.767869918444300
 Iteration     2 Dimension   180 NMult   120 NNew     60
 CISAX will form    60 AO SS matrices at one time.
 NMat=    60 NSing=    60 JSym2X=-1.
 Root      1 not converged, maximum delta is    0.003868630939114
 Root      2 not converged, maximum delta is    0.003571630766025
 Root      3 not converged, maximum delta is    0.003469825952054
 Root      4 not converged, maximum delta is    0.006501754952736
 Root      5 not converged, maximum delta is    0.003678656033293
 Root      6 not converged, maximum delta is    0.009477322916638
 Root      7 not converged, maximum delta is    0.002962876092740
 Root      8 not converged, maximum delta is    0.010904408976258
 Root      9 not converged, maximum delta is    0.005746018749413
 Root     10 not converged, maximum delta is    0.002039263876787
 Root     11 not converged, maximum delta is    0.008306460981455
 Root     12 not converged, maximum delta is    0.009818449882229
 Root     13 not converged, maximum delta is    0.002681586103081
 Root     14 not converged, maximum delta is    0.023063452696953
 Root     15 not converged, maximum delta is    0.021609172443955
 Root     16 not converged, maximum delta is    0.007822727453255
 Root     17 not converged, maximum delta is    0.005488976491195
 Root     18 not converged, maximum delta is    0.008754822611849
 Root     19 not converged, maximum delta is    0.007231183978793
 Root     20 not converged, maximum delta is    0.006395159527288
 Root     21 not converged, maximum delta is    0.002281055660621
 Root     22 not converged, maximum delta is    0.023902627375406
 Root     23 not converged, maximum delta is    0.005605670725301
 Root     24 not converged, maximum delta is    0.004829565322039
 Root     25 not converged, maximum delta is    0.016610875739374
 Root     26 not converged, maximum delta is    0.021948680948407
 New state     27 was old state     28
 Root     27 not converged, maximum delta is    0.057246902289305
 New state     28 was old state     27
 Root     28 not converged, maximum delta is    0.024915325390124
 Root     29 not converged, maximum delta is    0.024603866304656
 Root     30 not converged, maximum delta is    0.046485516297294
 Excitation Energies [eV] at current iteration:
 Root      1 :     4.468888499707472   Change is   -0.004047522961345
 Root      2 :     4.847787545045202   Change is   -0.002865486747294
 Root      3 :     5.538528325275758   Change is   -0.003566859395644
 Root      4 :     5.769420716983340   Change is   -0.009314892114741
 Root      5 :     8.451534043745744   Change is   -0.002967567108203
 Root      6 :     8.774325589186377   Change is   -0.010313698525713
 Root      7 :     8.987075101306894   Change is   -0.005447539179514
 Root      8 :     9.428248261908015   Change is   -0.021101115565568
 Root      9 :     9.952704665122239   Change is   -0.006927893818988
 Root     10 :    10.236731458415270   Change is   -0.003219417483180
 Root     11 :    12.447767169446900   Change is   -0.013324111975901
 Root     12 :    12.976021343927130   Change is   -0.025001737215737
 Root     13 :    13.519758586863150   Change is   -0.002338882740133
 Root     14 :    13.743508749024080   Change is   -0.012788170316470
 Root     15 :    14.218160379866040   Change is   -0.030089765791757
 Root     16 :    14.432863137194690   Change is   -0.016466423524121
 Root     17 :    15.112969890680420   Change is   -0.015359751837757
 Root     18 :    15.370615935566340   Change is   -0.012576424341943
 Root     19 :    16.067547146450660   Change is   -0.010859639041355
 Root     20 :    16.099547586450250   Change is   -0.012366634590624
 Root     21 :    16.618250638177710   Change is   -0.004325977235571
 Root     22 :    17.086631876614710   Change is   -0.069810926411403
 Root     23 :    17.435423363631840   Change is   -0.009463786447222
 Root     24 :    17.614617034580440   Change is   -0.008770843262732
 Root     25 :    18.550059475091910   Change is   -0.026534713386582
 Root     26 :    18.664513901445530   Change is   -0.035131135288257
 Root     27 :    19.022961268167720   Change is   -0.069221282909706
 Root     28 :    19.039642379650370   Change is   -0.031484610408648
 Root     29 :    19.099348769621330   Change is   -0.068332522981906
 Root     30 :    19.485064413012960   Change is   -0.027614196580616
 Iteration     3 Dimension   240 NMult   180 NNew     60
 CISAX will form    60 AO SS matrices at one time.
 NMat=    60 NSing=    60 JSym2X=-1.
 Root      1 has converged.
 Root      2 has converged.
 Root      3 has converged.
 Root      4 has converged.
 Root      5 has converged.
 Root      6 has converged.
 Root      7 has converged.
 Root      8 has converged.
 Root      9 has converged.
 Root     10 has converged.
 Root     11 has converged.
 Root     12 has converged.
 Root     13 has converged.
 Root     14 has converged.
 Root     15 has converged.
 Root     16 has converged.
 Root     17 has converged.
 Root     18 has converged.
 Root     19 has converged.
 Root     20 has converged.
 Root     21 has converged.
 Root     22 has converged.
 Root     23 has converged.
 Root     24 has converged.
 Root     25 has converged.
 Root     26 has converged.
 Root     27 has converged.
 Root     28 has converged.
 Root     29 has converged.
 Root     30 has converged.
 Excitation Energies [eV] at current iteration:
 Root      1 :     4.468887936696587   Change is   -0.000000563010884
 Root      2 :     4.847786053035317   Change is   -0.000001492009886
 Root      3 :     5.538527496759845   Change is   -0.000000828515913
 Root      4 :     5.769417974816289   Change is   -0.000002742167051
 Root      5 :     8.451531740692907   Change is   -0.000002303052836
 Root      6 :     8.774322540464315   Change is   -0.000003048722062
 Root      7 :     8.987071422822556   Change is   -0.000003678484339
 Root      8 :     9.428241839176124   Change is   -0.000006422731892
 Root      9 :     9.952695293199167   Change is   -0.000009371923073
 Root     10 :    10.236729381333760   Change is   -0.000002077081509
 Root     11 :    12.447749792549650   Change is   -0.000017376897252
 Root     12 :    12.975984787114010   Change is   -0.000036556813126
 Root     13 :    13.519751647853190   Change is   -0.000006939009959
 Root     14 :    13.743497876368230   Change is   -0.000010872655844
 Root     15 :    14.218134975778910   Change is   -0.000025404087123
 Root     16 :    14.432838686035630   Change is   -0.000024451159059
 Root     17 :    15.112940474739980   Change is   -0.000029415940443
 Root     18 :    15.370593029545270   Change is   -0.000022906021068
 Root     19 :    16.067534940242850   Change is   -0.000012206207813
 Root     20 :    16.099531316129640   Change is   -0.000016270320613
 Root     21 :    16.618242684718540   Change is   -0.000007953459173
 Root     22 :    17.086270522668540   Change is   -0.000361353946170
 Root     23 :    17.435406706934290   Change is   -0.000016656697546
 Root     24 :    17.614592342251040   Change is   -0.000024692329404
 Root     25 :    18.549887476654230   Change is   -0.000171998437683
 Root     26 :    18.664453290949670   Change is   -0.000060610495865
 Root     27 :    19.022869593858980   Change is   -0.000091674308736
 Root     28 :    19.039562332296340   Change is   -0.000080047354028
 Root     29 :    19.099112406203860   Change is   -0.000236363417476
 Root     30 :    19.485033146514650   Change is   -0.000031266498312
 Convergence achieved on expansion vectors.
 ***********************************************************************
 Excited states from <AA,BB:AA,BB> singles matrix:
 ***********************************************************************
 
 1PDM for each excited state written to RWF  633
 Ground to excited state transition densities written to RWF  633
 Ground to excited state transition electric dipole moments (Au):
       state          X           Y           Z        Dip. S.      Osc.
         1         0.0000      1.1431     -0.0000      1.3066      0.1431
         2         0.0000     -0.0000     -0.0000      0.0000      0.0000
         3        -0.0000      0.5298      0.0000      0.2806      0.0381
         4         0.0000      0.0000      0.0685      0.0047      0.0007
         5        -0.0000      0.0000      0.0000      0.0000      0.0000
         6         0.0000     -0.7661     -0.0000      0.5869      0.1262
         7         0.0000     -0.0000     -0.3143      0.0988      0.0218
         8         0.0000     -1.2665      0.0000      1.6039      0.3705
         9         0.0000      0.0000     -0.0000      0.0000      0.0000
        10        -0.0000      0.5925      0.0000      0.3511      0.0880
        11         0.0000      0.0000      0.9378      0.8794      0.2682
        12        -0.0000     -0.0000      0.2023      0.0409      0.0130
        13         0.0403     -0.0000      0.0000      0.0016      0.0005
        14         0.0000     -0.1602      0.0000      0.0257      0.0086
        15         0.0000     -0.3753     -0.0000      0.1408      0.0491
        16         0.0000      0.0000      0.0755      0.0057      0.0020
        17         0.0000      0.0000     -0.1458      0.0213      0.0079
        18        -0.5181      0.0000     -0.0000      0.2684      0.1011
        19         0.0000     -0.0604     -0.0000      0.0036      0.0014
        20        -0.0000      0.0000     -0.5242      0.2748      0.1084
        21         0.0000      0.0000     -0.2719      0.0740      0.0301
        22        -0.5851     -0.0000      0.0000      0.3423      0.1433
        23        -0.0000     -0.3383     -0.0000      0.1144      0.0489
        24        -0.0000     -0.0000      0.3361      0.1129      0.0487
        25        -0.1122     -0.0000     -0.0000      0.0126      0.0057
        26        -0.0000      0.0000      0.2348      0.0551      0.0252
        27         0.0000     -0.2088     -0.0000      0.0436      0.0203
        28         0.2632      0.0000     -0.0000      0.0693      0.0323
        29        -0.0000      0.0000     -0.3699      0.1368      0.0640
        30         0.0000     -0.3287      0.0000      0.1080      0.0516
 Ground to excited state transition velocity dipole moments (Au):
       state          X           Y           Z        Dip. S.      Osc.
         1         0.0000     -0.1762     -0.0000      0.0310      0.1260
         2        -0.0000      0.0000      0.0000      0.0000      0.0000
         3         0.0000     -0.1020      0.0000      0.0104      0.0340
         4        -0.0000      0.0000     -0.0171      0.0003      0.0009
         5         0.0000     -0.0000     -0.0000      0.0000      0.0000
         6         0.0000      0.2595     -0.0000      0.0673      0.1392
         7        -0.0000     -0.0000      0.0944      0.0089      0.0180
         8        -0.0000      0.4119      0.0000      0.1697      0.3265
         9         0.0000     -0.0000      0.0000      0.0000      0.0000
        10         0.0000     -0.2077     -0.0000      0.0431      0.0764
        11        -0.0000     -0.0000     -0.4074      0.1660      0.2419
        12         0.0000      0.0000     -0.0949      0.0090      0.0126
        13        -0.0321      0.0000      0.0000      0.0010      0.0014
        14        -0.0000      0.0367     -0.0000      0.0013      0.0018
        15         0.0000      0.1860     -0.0000      0.0346      0.0441
        16        -0.0000     -0.0000     -0.0318      0.0010      0.0013
        17        -0.0000      0.0000      0.0801      0.0064      0.0077
        18         0.2783      0.0000      0.0000      0.0775      0.0914
        19        -0.0000      0.0450      0.0000      0.0020      0.0023
        20         0.0000     -0.0000      0.3027      0.0916      0.1033
        21        -0.0000     -0.0000      0.1645      0.0271      0.0295
        22         0.3743      0.0000     -0.0000      0.1401      0.1487
        23         0.0000      0.2148      0.0000      0.0462      0.0480
        24         0.0000      0.0000     -0.2176      0.0473      0.0488
        25         0.0733      0.0000      0.0000      0.0054      0.0053
        26        -0.0000     -0.0000     -0.1675      0.0280      0.0273
        27        -0.0000      0.1761      0.0000      0.0310      0.0296
        28        -0.1948     -0.0000      0.0000      0.0379      0.0362
        29         0.0000     -0.0000      0.2527      0.0639      0.0607
        30        -0.0000      0.2435     -0.0000      0.0593      0.0552
 Ground to excited state transition magnetic dipole moments (Au):
       state          X           Y           Z
         1        -0.4322     -0.0000      0.0000
         2        -0.0000     -0.0000     -0.9168
         3         0.7896      0.0000      0.0000
         4         0.0000      0.0000      0.0000
         5        -0.0000      0.0000      0.6973
         6        -0.0586      0.0000      0.0000
         7        -0.0000      0.0000      0.0000
         8         1.1032     -0.0000      0.0000
         9         0.0000      0.0000      0.7743
        10        -0.1560      0.0000      0.0000
        11        -0.0000      0.0000      0.0000
        12         0.0000     -0.0000     -0.0000
        13         0.0000      0.1503     -0.0000
        14         1.5327     -0.0000     -0.0000
        15        -0.1109      0.0000      0.0000
        16         0.0000     -0.0000      0.0000
        17        -0.0000      0.0000      0.0000
        18        -0.0000     -0.4798     -0.0000
        19        -0.1957     -0.0000      0.0000
        20         0.0000     -0.0000     -0.0000
        21        -0.0000     -0.0000     -0.0000
        22        -0.0000      0.7314      0.0000
        23        -0.3768      0.0000     -0.0000
        24        -0.0000     -0.0000      0.0000
        25        -0.0000      0.3564      0.0000
        26         0.0000      0.0000     -0.0000
        27         0.1473     -0.0000      0.0000
        28        -0.0000      0.4553     -0.0000
        29        -0.0000     -0.0000      0.0000
        30         0.2528     -0.0000     -0.0000
 Ground to excited state transition velocity quadrupole moments (Au):
       state          XX          YY          ZZ          XY          XZ          YZ
         1         0.0000      0.0000     -0.0000      0.0000     -0.0000      0.3063
         2         0.0000      0.0000     -0.0000      0.3670      0.0000      0.0000
         3        -0.0000      0.0000     -0.0000      0.0000      0.0000      0.4975
         4         0.3197      0.8586      0.0899     -0.0000     -0.0000      0.0000
         5        -0.0000      0.0000      0.0000     -0.1461     -0.0000      0.0000
         6         0.0000     -0.0000     -0.0000      0.0000      0.0000     -0.8132
         7        -0.2565     -0.6673     -0.5609      0.0000     -0.0000      0.0000
         8         0.0000      0.0000     -0.0000     -0.0000     -0.0000     -0.5743
         9         0.0000     -0.0000     -0.0000      0.1085      0.0000      0.0000
        10         0.0000     -0.0000      0.0000     -0.0000      0.0000      0.2316
        11         0.0119      1.0491      0.7711      0.0000      0.0000      0.0000
        12        -0.0560     -0.1268     -0.3965      0.0000     -0.0000     -0.0000
        13         0.0000      0.0000      0.0000      0.0000      0.3181     -0.0000
        14        -0.0000      0.0000      0.0000     -0.0000     -0.0000     -0.2110
        15         0.0000     -0.0000      0.0000     -0.0000      0.0000      0.1867
        16         0.1490      0.2370      0.7073      0.0000     -0.0000     -0.0000
        17        -0.4381     -0.8238     -0.5009      0.0000      0.0000      0.0000
        18        -0.0000     -0.0000     -0.0000      0.0000     -0.4441      0.0000
        19        -0.0000     -0.0000     -0.0000     -0.0000      0.0000      0.2115
        20        -0.1778     -0.2492     -0.8701      0.0000     -0.0000     -0.0000
        21         0.0071     -0.4302      0.0223      0.0000     -0.0000      0.0000
        22         0.0000     -0.0000     -0.0000     -0.0000      0.5173     -0.0000
        23         0.0000      0.0000      0.0000      0.0000      0.0000      0.4211
        24        -0.1088     -0.0420     -0.7849     -0.0000      0.0000     -0.0000
        25         0.0000     -0.0000     -0.0000     -0.0000      0.0374     -0.0000
        26        -0.5351      1.0730      0.3642      0.0000     -0.0000      0.0000
        27        -0.0000      0.0000      0.0000      0.0000     -0.0000     -0.5464
        28        -0.0000      0.0000      0.0000     -0.0000      0.6500      0.0000
        29         0.0547      0.5314      0.8675     -0.0000     -0.0000      0.0000
        30        -0.0000      0.0000      0.0000     -0.0000     -0.0000      0.0965
 <0|del|b> * <b|rxdel|0> + <0|del|b> * <b|delr+rdel|0>
 Rotatory Strengths (R) in cgs (10**-40 erg-esu-cm/Gauss)
       state          XX          YY          ZZ    R(velocity)    E-M Angle
         1         0.0000     -0.0000     -0.0000     -0.0000       90.00
         2        -0.0000     -0.0000      0.0000     -0.0000       90.00
         3         0.0000      0.0000      0.0000      0.0000       90.00
         4        -0.0000     -0.0000     -0.0000     -0.0000       90.00
         5        -0.0000     -0.0000     -0.0000     -0.0000       90.00
         6        -0.0000     -0.0000      0.0000      0.0000       90.00
         7         0.0000      0.0000      0.0000      0.0000       90.00
         8         0.0000     -0.0000     -0.0000     -0.0000       90.00
         9         0.0000      0.0000      0.0000      0.0000       90.00
        10         0.0000      0.0000     -0.0000     -0.0000       90.00
        11        -0.0000      0.0000      0.0000     -0.0000       90.00
        12        -0.0000      0.0000      0.0000      0.0000       90.00
        13        -0.0000     -0.0000     -0.0000     -0.0000       90.00
        14        -0.0000     -0.0000     -0.0000     -0.0000       90.00
        15        -0.0000      0.0000      0.0000      0.0000       90.00
        16        -0.0000      0.0000     -0.0000     -0.0000       90.00
        17         0.0000     -0.0000      0.0000      0.0000       90.00
        18        -0.0000      0.0000     -0.0000     -0.0000       90.00
        19        -0.0000     -0.0000      0.0000     -0.0000       90.00
        20         0.0000     -0.0000      0.0000     -0.0000       90.00
        21         0.0000     -0.0000      0.0000     -0.0000       90.00
        22         0.0000     -0.0000      0.0000     -0.0000       90.00
        23         0.0000      0.0000     -0.0000      0.0000       90.00
        24         0.0000     -0.0000      0.0000     -0.0000       90.00
        25         0.0000     -0.0000      0.0000      0.0000       90.00
        26        -0.0000      0.0000      0.0000      0.0000       90.00
        27        -0.0000      0.0000     -0.0000     -0.0000       90.00
        28         0.0000     -0.0000     -0.0000     -0.0000       90.00
        29        -0.0000      0.0000     -0.0000      0.0000       90.00
        30        -0.0000     -0.0000     -0.0000     -0.0000       90.00
 1/2[<0|r|b>*<b|rxdel|0> + (<0|rxdel|b>*<b|r|0>)*]
 Rotatory Strengths (R) in cgs (10**-40 erg-esu-cm/Gauss)
       state          XX          YY          ZZ     R(length)
         1         0.0000      0.0000      0.0000      0.0000
         2         0.0000     -0.0000     -0.0000     -0.0000
         3         0.0000     -0.0000     -0.0000     -0.0000
         4        -0.0000     -0.0000     -0.0000     -0.0000
         5        -0.0000     -0.0000     -0.0000     -0.0000
         6         0.0000      0.0000      0.0000      0.0000
         7         0.0000      0.0000      0.0000      0.0000
         8        -0.0000     -0.0000     -0.0000     -0.0000
         9        -0.0000     -0.0000      0.0000      0.0000
        10        -0.0000     -0.0000     -0.0000     -0.0000
        11         0.0000     -0.0000     -0.0000     -0.0000
        12         0.0000     -0.0000      0.0000      0.0000
        13        -0.0000      0.0000      0.0000     -0.0000
        14        -0.0000     -0.0000      0.0000     -0.0000
        15         0.0000      0.0000      0.0000      0.0000
        16        -0.0000      0.0000     -0.0000     -0.0000
        17         0.0000     -0.0000      0.0000      0.0000
        18        -0.0000      0.0000     -0.0000     -0.0000
        19         0.0000     -0.0000      0.0000      0.0000
        20         0.0000      0.0000     -0.0000     -0.0000
        21         0.0000      0.0000     -0.0000     -0.0000
        22        -0.0000      0.0000     -0.0000     -0.0000
        23        -0.0000      0.0000     -0.0000      0.0000
        24        -0.0000     -0.0000     -0.0000     -0.0000
        25        -0.0000      0.0000      0.0000      0.0000
        26         0.0000     -0.0000      0.0000      0.0000
        27        -0.0000     -0.0000      0.0000     -0.0000
        28         0.0000     -0.0000     -0.0000     -0.0000
        29        -0.0000      0.0000      0.0000      0.0000
        30        -0.0000     -0.0000      0.0000     -0.0000
  1/2[<0|del|b>*<b|r|0> + (<0|r|b>*<b|del|0>)*] (Au)
       state          X           Y           Z        Dip. S.   Osc.(frdel)
         1         0.0000     -0.2014      0.0000      0.2014      0.1343
         2        -0.0000     -0.0000     -0.0000      0.0000      0.0000
         3        -0.0000     -0.0540      0.0000      0.0540      0.0360
         4        -0.0000      0.0000     -0.0012      0.0012      0.0008
         5        -0.0000     -0.0000     -0.0000      0.0000      0.0000
         6         0.0000     -0.1988      0.0000      0.1988      0.1325
         7        -0.0000      0.0000     -0.0297      0.0297      0.0198
         8        -0.0000     -0.5217      0.0000      0.5217      0.3478
         9         0.0000     -0.0000     -0.0000      0.0000      0.0000
        10        -0.0000     -0.1230     -0.0000      0.1230      0.0820
        11        -0.0000     -0.0000     -0.3820      0.3820      0.2547
        12        -0.0000     -0.0000     -0.0192      0.0192      0.0128
        13        -0.0013     -0.0000      0.0000      0.0013      0.0009
        14        -0.0000     -0.0059     -0.0000      0.0059      0.0039
        15         0.0000     -0.0698      0.0000      0.0698      0.0465
        16        -0.0000     -0.0000     -0.0024      0.0024      0.0016
        17        -0.0000      0.0000     -0.0117      0.0117      0.0078
        18        -0.1442      0.0000     -0.0000      0.1442      0.0961
        19        -0.0000     -0.0027     -0.0000      0.0027      0.0018
        20        -0.0000     -0.0000     -0.1587      0.1587      0.1058
        21        -0.0000     -0.0000     -0.0447      0.0447      0.0298
        22        -0.2190     -0.0000     -0.0000      0.2190      0.1460
        23        -0.0000     -0.0727     -0.0000      0.0727      0.0484
        24        -0.0000     -0.0000     -0.0731      0.0731      0.0487
        25        -0.0082     -0.0000     -0.0000      0.0082      0.0055
        26         0.0000     -0.0000     -0.0393      0.0393      0.0262
        27        -0.0000     -0.0368     -0.0000      0.0368      0.0245
        28        -0.0513     -0.0000     -0.0000      0.0513      0.0342
        29        -0.0000     -0.0000     -0.0935      0.0935      0.0623
        30        -0.0000     -0.0800     -0.0000      0.0800      0.0533

 Excitation energies and oscillator strengths:
 
 Excited State   1:      Singlet-B2     4.4689 eV  277.44 nm  f=0.1431  <S**2>=0.000
       3 -> 11         0.00075
       3 -> 15         0.00102
       3 -> 19         0.00075
       3 -> 22         0.00087
       3 -> 25         0.00125
       3 -> 29         0.00012
       3 -> 31        -0.00028
       3 -> 40        -0.00042
       3 -> 43         0.00024
       3 -> 54         0.00016
       4 ->  9        -0.00256
       4 -> 12         0.00195
       4 -> 13         0.00304
       4 -> 16         0.00129
       4 -> 17         0.00199
       4 -> 20         0.00209
       4 -> 21         0.00156
       4 -> 24         0.00121
       4 -> 26        -0.00075
       4 -> 30         0.00137
       4 -> 32         0.00114
       4 -> 33        -0.00024
       4 -> 38        -0.00054
       4 -> 42         0.00045
       4 -> 44        -0.00025
       4 -> 47         0.00071
       4 -> 49        -0.00011
       4 -> 53         0.00015
       5 -> 28         0.00208
       5 -> 35         0.00094
       5 -> 45         0.00070
       6 -> 11        -0.00709
       6 -> 15         0.00285
       6 -> 19        -0.00092
       6 -> 22        -0.00012
       6 -> 25         0.00415
       6 -> 29         0.00088
       6 -> 31        -0.00068
       6 -> 40        -0.00015
       6 -> 43         0.00017
       6 -> 46         0.00029
       7 -> 11         0.00890
       7 -> 15         0.00439
       7 -> 19         0.00377
       7 -> 22         0.00055
       7 -> 25         0.00156
       7 -> 29        -0.00111
       7 -> 31         0.00101
       7 -> 37        -0.00064
       7 -> 43        -0.00035
       7 -> 46         0.00044
       7 -> 50         0.00042
       7 -> 54        -0.00013
       8 ->  9         0.70452
       8 -> 12        -0.00409
       8 -> 13         0.06020
       8 -> 16        -0.00522
       8 -> 17        -0.02335
       8 -> 20         0.00567
       8 -> 21         0.01124
       8 -> 24        -0.00040
       8 -> 26        -0.00090
       8 -> 30        -0.00347
       8 -> 32        -0.00206
       8 -> 33        -0.00031
       8 -> 38        -0.00102
       8 -> 39        -0.00017
       8 -> 42         0.00075
       8 -> 44         0.00049
       8 -> 47        -0.00060
       8 -> 49         0.00026
       3 <- 11         0.00037
       3 <- 15         0.00066
       3 <- 19         0.00046
       3 <- 22         0.00074
       3 <- 25         0.00095
       3 <- 31        -0.00030
       3 <- 40        -0.00041
       3 <- 43         0.00024
       3 <- 54         0.00017
       4 <-  9        -0.00101
       4 <- 12        -0.00015
       4 <- 13         0.00249
       4 <- 16         0.00146
       4 <- 17         0.00019
       4 <- 20         0.00135
       4 <- 21         0.00129
       4 <- 24         0.00078
       4 <- 26        -0.00129
       4 <- 30         0.00105
       4 <- 32         0.00052
       4 <- 38        -0.00036
       4 <- 39         0.00014
       4 <- 42         0.00036
       4 <- 44        -0.00021
       4 <- 47         0.00064
       5 <- 28         0.00178
       5 <- 35         0.00077
       5 <- 45         0.00059
       6 <- 11        -0.00211
       6 <- 15         0.00290
       6 <- 19        -0.00022
       6 <- 22         0.00041
       6 <- 25         0.00318
       6 <- 29         0.00046
       6 <- 31        -0.00061
       6 <- 37         0.00011
       6 <- 40        -0.00015
       6 <- 43         0.00014
       6 <- 46         0.00026
       7 <- 11         0.00220
       7 <- 15         0.00203
       7 <- 19         0.00089
       7 <- 22         0.00024
       7 <- 25         0.00082
       7 <- 29        -0.00172
       7 <- 31         0.00087
       7 <- 37        -0.00040
       7 <- 43        -0.00023
       7 <- 46         0.00047
       7 <- 50         0.00050
       8 <-  9        -0.01246
       8 <- 12        -0.00707
       8 <- 13         0.02471
       8 <- 16         0.00751
       8 <- 17         0.00031
       8 <- 20         0.00127
       8 <- 21         0.00596
       8 <- 24         0.00281
       8 <- 26        -0.00067
       8 <- 30        -0.00236
       8 <- 32        -0.00171
       8 <- 33        -0.00083
       8 <- 38        -0.00099
       8 <- 39        -0.00020
       8 <- 42         0.00068
       8 <- 44         0.00020
       8 <- 47        -0.00053
       8 <- 49         0.00016
 This state for optimization and/or second-order correction.
 Total Energy, E(TD-HF/TD-DFT) =  -111.086958001    
 Copying the excited state density for this state as the 1-particle RhoCI density.
 
 Excited State   2:      Singlet-A2     4.8478 eV  255.75 nm  f=0.0000  <S**2>=0.000
       3 -> 28        -0.00192
       3 -> 35        -0.00103
       3 -> 45        -0.00031
       4 -> 10        -0.00077
       4 -> 14        -0.00061
       4 -> 18         0.00241
       4 -> 23        -0.00076
       4 -> 27        -0.00196
       4 -> 34         0.00023
       4 -> 36        -0.00109
       4 -> 48        -0.00015
       4 -> 52        -0.00021
       5 -> 11         0.00020
       5 -> 15        -0.00020
       5 -> 19         0.00031
       5 -> 22        -0.00070
       5 -> 25         0.00024
       5 -> 29         0.00034
       5 -> 37        -0.00031
       5 -> 40         0.00014
       5 -> 43        -0.00036
       5 -> 46        -0.00027
       5 -> 50         0.00017
       6 -> 28        -0.00313
       6 -> 35         0.00066
       6 -> 45         0.00015
       7 -> 28         0.00156
       7 -> 35        -0.00029
       7 -> 45        -0.00030
       8 -> 10         0.70664
       8 -> 14        -0.00631
       8 -> 18        -0.02577
       8 -> 23        -0.00365
       8 -> 27         0.00026
       8 -> 34         0.00343
       8 -> 36        -0.00152
       8 -> 41         0.00055
       8 -> 48         0.00015
       8 -> 52         0.00028
       3 <- 28        -0.00161
       3 <- 35        -0.00089
       3 <- 45        -0.00030
       4 <- 10        -0.00021
       4 <- 14         0.00034
       4 <- 18         0.00081
       4 <- 23        -0.00014
       4 <- 27        -0.00048
       4 <- 34         0.00065
       4 <- 36        -0.00065
       4 <- 41        -0.00012
       5 <- 11         0.00046
       5 <- 15        -0.00047
       5 <- 19         0.00107
       5 <- 22        -0.00087
       5 <- 25         0.00074
       5 <- 29         0.00121
       5 <- 31         0.00012
       5 <- 37        -0.00058
       5 <- 40         0.00011
       5 <- 43        -0.00040
       5 <- 46        -0.00030
       5 <- 54        -0.00018
       6 <- 28        -0.00305
       6 <- 35         0.00079
       6 <- 45         0.00013
       7 <- 28         0.00158
       7 <- 35        -0.00041
       7 <- 45        -0.00032
       8 <- 10         0.00273
       8 <- 14         0.00260
       8 <- 18         0.00735
       8 <- 23        -0.00015
       8 <- 27        -0.00078
       8 <- 34         0.00327
       8 <- 36        -0.00122
       8 <- 41         0.00031
       8 <- 52         0.00011
 
 Excited State   3:      Singlet-B2     5.5385 eV  223.86 nm  f=0.0381  <S**2>=0.000
       3 -> 11        -0.00023
       3 -> 15         0.00041
       3 -> 19        -0.00044
       3 -> 22         0.00027
       3 -> 25         0.00013
       3 -> 29        -0.00018
       3 -> 31         0.00013
       3 -> 37        -0.00016
       3 -> 40         0.00019
       3 -> 43        -0.00018
       3 -> 54        -0.00019
       4 ->  9         0.00094
       4 -> 12         0.00017
       4 -> 13         0.00091
       4 -> 16         0.00177
       4 -> 17        -0.00086
       4 -> 20        -0.00057
       4 -> 21         0.00095
       4 -> 24         0.00089
       4 -> 26         0.00021
       4 -> 30        -0.00206
       4 -> 32        -0.00015
       4 -> 38         0.00042
       4 -> 39        -0.00091
       4 -> 42        -0.00030
       4 -> 47        -0.00041
       5 -> 28        -0.00100
       5 -> 35        -0.00112
       5 -> 45        -0.00059
       6 -> 11        -0.00086
       6 -> 15         0.00385
       6 -> 19        -0.00201
       6 -> 22        -0.00024
       6 -> 25         0.00158
       6 -> 29         0.00215
       6 -> 31         0.00049
       6 -> 37         0.00051
       6 -> 40         0.00040
       6 -> 43         0.00028
       6 -> 46        -0.00024
       6 -> 50        -0.00021
       6 -> 54         0.00014
       7 -> 11        -0.00119
       7 -> 15        -0.00406
       7 -> 19        -0.00105
       7 -> 25        -0.00296
       7 -> 29        -0.00109
       7 -> 31        -0.00047
       7 -> 37         0.00051
       7 -> 40         0.00012
       7 -> 46        -0.00057
       7 -> 50        -0.00026
       7 -> 54         0.00016
       8 ->  9         0.00143
       8 -> 12         0.70545
       8 -> 13         0.03989
       8 -> 16         0.02534
       8 -> 17         0.00386
       8 -> 20         0.01563
       8 -> 21         0.00542
       8 -> 24        -0.00099
       8 -> 26         0.00202
       8 -> 30        -0.00304
       8 -> 32         0.00050
       8 -> 33        -0.00018
       8 -> 38        -0.00076
       8 -> 39         0.00135
       8 -> 42         0.00092
       8 -> 44        -0.00016
       8 -> 47         0.00024
       8 -> 51        -0.00010
       8 -> 53         0.00013
       3 <- 15         0.00034
       3 <- 19        -0.00016
       3 <- 22         0.00013
       3 <- 25         0.00023
       3 <- 31         0.00014
       3 <- 37        -0.00019
       3 <- 40         0.00016
       3 <- 43        -0.00017
       3 <- 54        -0.00023
       4 <-  9        -0.00102
       4 <- 12        -0.00020
       4 <- 13         0.00101
       4 <- 16         0.00065
       4 <- 17         0.00050
       4 <- 20        -0.00038
       4 <- 21         0.00066
       4 <- 24         0.00095
       4 <- 26         0.00033
       4 <- 30        -0.00140
       4 <- 33        -0.00053
       4 <- 38         0.00027
       4 <- 39        -0.00065
       4 <- 42        -0.00032
       4 <- 47        -0.00037
       5 <- 28        -0.00063
       5 <- 35        -0.00098
       5 <- 45        -0.00053
       6 <- 11        -0.00071
       6 <- 15         0.00079
       6 <- 19         0.00012
       6 <- 22        -0.00056
       6 <- 25         0.00149
       6 <- 29         0.00167
       6 <- 31         0.00067
       6 <- 37         0.00049
       6 <- 40         0.00032
       6 <- 43         0.00022
       6 <- 46        -0.00020
       6 <- 50        -0.00016
       6 <- 54         0.00012
       7 <- 11         0.00032
       7 <- 15        -0.00135
       7 <- 19        -0.00054
       7 <- 25        -0.00182
       7 <- 29        -0.00028
       7 <- 31        -0.00036
       7 <- 37         0.00018
       7 <- 46        -0.00050
       7 <- 50        -0.00034
       8 <-  9        -0.00648
       8 <- 12         0.00071
       8 <- 13         0.01249
       8 <- 16         0.00482
       8 <- 17        -0.00159
       8 <- 20        -0.00325
       8 <- 21         0.00323
       8 <- 24         0.00057
       8 <- 30        -0.00242
       8 <- 32         0.00051
       8 <- 33        -0.00022
       8 <- 38        -0.00060
       8 <- 39         0.00125
       8 <- 42         0.00080
       8 <- 44        -0.00011
       8 <- 47         0.00020
 
 Excited State   4:      Singlet-A1     5.7694 eV  214.90 nm  f=0.0007  <S**2>=0.000
       3 ->  9         0.00155
       3 -> 12        -0.00034
       3 -> 13         0.00017
       3 -> 16        -0.00099
       3 -> 17        -0.00177
       3 -> 20        -0.00014
       3 -> 21         0.00100
       3 -> 24        -0.00104
       3 -> 26        -0.00036
       3 -> 30         0.00066
       3 -> 32        -0.00070
       3 -> 33         0.00076
       3 -> 38         0.00050
       3 -> 39         0.00033
       3 -> 44        -0.00018
       3 -> 51        -0.00014
       3 -> 53        -0.00014
       4 -> 11        -0.00553
       4 -> 15        -0.00505
       4 -> 19        -0.00479
       4 -> 22        -0.00272
       4 -> 25        -0.00321
       4 -> 29        -0.00060
       4 -> 37        -0.00090
       4 -> 40        -0.00014
       4 -> 43         0.00018
       4 -> 46        -0.00012
       5 -> 10        -0.00236
       5 -> 14        -0.00396
       5 -> 18         0.00081
       5 -> 23         0.00371
       5 -> 27        -0.00037
       5 -> 34        -0.00072
       5 -> 36        -0.00057
       5 -> 48         0.00011
       6 ->  9         0.01094
       6 -> 12         0.00729
       6 -> 13        -0.00332
       6 -> 16        -0.00603
       6 -> 17        -0.00607
       6 -> 20         0.00385
       6 -> 21         0.00251
       6 -> 24        -0.00517
       6 -> 26         0.00170
       6 -> 30        -0.00041
       6 -> 32         0.00296
       6 -> 33         0.00146
       6 -> 38         0.00168
       6 -> 39        -0.00109
       6 -> 42        -0.00029
       6 -> 44         0.00086
       6 -> 47         0.00019
       6 -> 49        -0.00039
       6 -> 51        -0.00013
       7 ->  9         0.00964
       7 -> 12        -0.01204
       7 -> 13        -0.00070
       7 -> 16         0.00610
       7 -> 17        -0.00903
       7 -> 20        -0.00340
       7 -> 21        -0.00195
       7 -> 24         0.00026
       7 -> 26        -0.00398
       7 -> 30        -0.00097
       7 -> 32        -0.00135
       7 -> 33         0.00073
       7 -> 38        -0.00099
       7 -> 39         0.00038
       7 -> 42         0.00017
       7 -> 44        -0.00027
       7 -> 51         0.00012
       7 -> 53         0.00012
       8 -> 11         0.70437
       8 -> 15         0.05659
       8 -> 19        -0.02291
       8 -> 22        -0.00135
       8 -> 25         0.00979
       8 -> 29        -0.00272
       8 -> 31         0.00222
       8 -> 37        -0.00358
       8 -> 40        -0.00073
       8 -> 43         0.00189
       8 -> 46        -0.00114
       8 -> 50         0.00024
       3 <-  9         0.00095
       3 <- 12        -0.00015
       3 <- 13         0.00015
       3 <- 16        -0.00067
       3 <- 17        -0.00115
       3 <- 21         0.00073
       3 <- 24        -0.00078
       3 <- 26        -0.00029
       3 <- 30         0.00053
       3 <- 32        -0.00050
       3 <- 33         0.00061
       3 <- 38         0.00041
       3 <- 39         0.00027
       3 <- 44        -0.00016
       3 <- 47         0.00011
       3 <- 51        -0.00012
       3 <- 53        -0.00012
       4 <- 11        -0.00249
       4 <- 15        -0.00219
       4 <- 19        -0.00287
       4 <- 22        -0.00191
       4 <- 25        -0.00186
       4 <- 29        -0.00045
       4 <- 37        -0.00076
       4 <- 40        -0.00014
       4 <- 43         0.00018
       5 <- 10        -0.00143
       5 <- 14        -0.00249
       5 <- 18         0.00053
       5 <- 23         0.00269
       5 <- 27        -0.00027
       5 <- 34        -0.00060
       5 <- 36        -0.00049
       5 <- 48         0.00010
       6 <-  9         0.00821
       6 <- 12         0.00371
       6 <- 13        -0.00280
       6 <- 16        -0.00449
       6 <- 17        -0.00319
       6 <- 20         0.00199
       6 <- 21         0.00260
       6 <- 24        -0.00354
       6 <- 26         0.00120
       6 <- 32         0.00222
       6 <- 33         0.00103
       6 <- 38         0.00158
       6 <- 39        -0.00079
       6 <- 42        -0.00027
       6 <- 44         0.00082
       6 <- 47         0.00011
       6 <- 49        -0.00034
       6 <- 51        -0.00013
       7 <-  9         0.00092
       7 <- 12        -0.00486
       7 <- 13         0.00069
       7 <- 16         0.00403
       7 <- 17        -0.00435
       7 <- 20        -0.00147
       7 <- 21        -0.00167
       7 <- 24         0.00029
       7 <- 26        -0.00274
       7 <- 30        -0.00084
       7 <- 32        -0.00103
       7 <- 33         0.00056
       7 <- 38        -0.00086
       7 <- 39         0.00017
       7 <- 44        -0.00027
       7 <- 51         0.00011
       7 <- 53         0.00011
       8 <- 11        -0.01400
       8 <- 15         0.00513
       8 <- 19        -0.01681
       8 <- 22        -0.00456
       8 <- 25         0.00532
       8 <- 29        -0.00216
       8 <- 31         0.00203
       8 <- 37        -0.00290
       8 <- 40        -0.00037
       8 <- 43         0.00154
       8 <- 46        -0.00105
       8 <- 50         0.00024
 
 Excited State   5:      Singlet-A2     8.4515 eV  146.70 nm  f=0.0000  <S**2>=0.000
       3 -> 28         0.00211
       3 -> 35         0.00118
       3 -> 45         0.00032
       4 -> 10        -0.00081
       4 -> 14        -0.00467
       4 -> 18        -0.00173
       4 -> 23         0.00272
       4 -> 27         0.00033
       4 -> 34         0.00040
       4 -> 36         0.00172
       4 -> 41        -0.00026
       4 -> 52         0.00015
       5 -> 19        -0.00043
       5 -> 22         0.00092
       5 -> 25        -0.00067
       5 -> 29        -0.00017
       5 -> 37         0.00033
       5 -> 40        -0.00016
       5 -> 43         0.00047
       5 -> 46         0.00030
       5 -> 50        -0.00011
       6 -> 28         0.00227
       6 -> 35        -0.00063
       7 -> 28        -0.00134
       7 -> 35         0.00018
       7 -> 45         0.00025
       8 -> 10         0.00884
       8 -> 14         0.70303
       8 -> 18         0.07339
       8 -> 23        -0.01649
       8 -> 27        -0.00152
       8 -> 34        -0.00250
       8 -> 36         0.00249
       8 -> 41        -0.00025
       8 -> 52        -0.00027
       3 <- 28         0.00150
       3 <- 35         0.00094
       3 <- 45         0.00034
       4 <- 10         0.00028
       4 <- 14        -0.00033
       4 <- 18        -0.00064
       4 <- 23         0.00022
       4 <- 27         0.00031
       4 <- 34        -0.00049
       4 <- 36         0.00068
       4 <- 41         0.00013
       5 <- 11         0.00044
       5 <- 22         0.00099
       5 <- 25        -0.00113
       5 <- 29        -0.00022
       5 <- 31        -0.00038
       5 <- 37         0.00075
       5 <- 43         0.00049
       5 <- 54         0.00015
       6 <- 28         0.00233
       6 <- 35        -0.00060
       6 <- 45        -0.00016
       7 <- 28        -0.00109
       8 <- 10         0.00321
       8 <- 14        -0.00046
       8 <- 18        -0.00464
       8 <- 23         0.00082
       8 <- 27         0.00034
       8 <- 34        -0.00275
       8 <- 36         0.00116
       8 <- 41        -0.00024
       8 <- 52        -0.00011
 
 Excited State   6:      Singlet-B2     8.7743 eV  141.30 nm  f=0.1262  <S**2>=0.000
       3 -> 11         0.00062
       3 -> 15        -0.00117
       3 -> 19         0.00135
       3 -> 22        -0.00089
       3 -> 25        -0.00036
       3 -> 29         0.00091
       3 -> 31         0.00065
       3 -> 40         0.00059
       3 -> 43        -0.00029
       4 ->  9         0.00216
       4 -> 12        -0.00240
       4 -> 13        -0.00553
       4 -> 16        -0.00034
       4 -> 17        -0.00106
       4 -> 20        -0.00408
       4 -> 21        -0.00538
       4 -> 24        -0.00108
       4 -> 26         0.00031
       4 -> 30        -0.00251
       4 -> 32         0.00041
       4 -> 33        -0.00021
       4 -> 38        -0.00108
       4 -> 39         0.00034
       4 -> 42         0.00019
       4 -> 51         0.00018
       4 -> 53        -0.00017
       5 -> 28        -0.00322
       5 -> 45         0.00040
       6 -> 11         0.01745
       6 -> 15        -0.00652
       6 -> 19         0.01273
       6 -> 22         0.00084
       6 -> 25        -0.00635
       6 -> 29        -0.00119
       6 -> 31        -0.00277
       6 -> 37         0.00277
       6 -> 40         0.00011
       6 -> 43        -0.00083
       6 -> 46         0.00025
       6 -> 50         0.00013
       7 -> 11        -0.01343
       7 -> 15         0.00041
       7 -> 19        -0.00715
       7 -> 25         0.00208
       7 -> 29         0.00111
       7 -> 31         0.00043
       7 -> 37        -0.00125
       7 -> 40        -0.00030
       7 -> 43         0.00062
       8 ->  9        -0.05019
       8 -> 12        -0.01493
       8 -> 13         0.54509
       8 -> 16        -0.44610
       8 -> 17         0.00738
       8 -> 20        -0.01155
       8 -> 21        -0.04115
       8 -> 24        -0.00976
       8 -> 26         0.00492
       8 -> 30         0.00618
       8 -> 32         0.00210
       8 -> 33         0.00178
       8 -> 38        -0.00324
       8 -> 39         0.00018
       8 -> 42        -0.00148
       8 -> 44        -0.00249
       8 -> 47        -0.00036
       8 -> 49         0.00044
       8 -> 53        -0.00017
       3 <- 11         0.00029
       3 <- 15        -0.00058
       3 <- 19         0.00059
       3 <- 22        -0.00060
       3 <- 25        -0.00035
       3 <- 29         0.00039
       3 <- 31         0.00046
       3 <- 40         0.00049
       3 <- 43        -0.00027
       4 <-  9         0.00075
       4 <- 12        -0.00048
       4 <- 13        -0.00287
       4 <- 16        -0.00118
       4 <- 20        -0.00239
       4 <- 21        -0.00301
       4 <- 24        -0.00058
       4 <- 26         0.00082
       4 <- 30        -0.00149
       4 <- 32         0.00017
       4 <- 33         0.00025
       4 <- 38        -0.00082
       4 <- 42         0.00025
       4 <- 44        -0.00024
       4 <- 51         0.00014
       5 <- 28        -0.00256
       5 <- 35         0.00025
       5 <- 45         0.00046
       6 <- 11         0.00557
       6 <- 15        -0.00248
       6 <- 19         0.00466
       6 <- 22         0.00170
       6 <- 25        -0.00438
       6 <- 29        -0.00047
       6 <- 31        -0.00149
       6 <- 37         0.00195
       6 <- 43        -0.00071
       6 <- 46         0.00027
       7 <- 11        -0.00288
       7 <- 19        -0.00175
       7 <- 22        -0.00082
       7 <- 25         0.00157
       7 <- 29         0.00115
       7 <- 37        -0.00089
       7 <- 40        -0.00015
       7 <- 43         0.00048
       7 <- 46        -0.00012
       8 <-  9         0.01772
       8 <- 12         0.00896
       8 <- 13        -0.02834
       8 <- 16        -0.01018
       8 <- 17         0.00143
       8 <- 20        -0.00090
       8 <- 21        -0.01966
       8 <- 24        -0.00300
       8 <- 26         0.00099
       8 <- 30         0.00342
       8 <- 32         0.00055
       8 <- 33         0.00126
       8 <- 38        -0.00207
       8 <- 42        -0.00120
       8 <- 44        -0.00165
       8 <- 47        -0.00026
       8 <- 49         0.00036
 
 Excited State   7:      Singlet-A1     8.9871 eV  137.96 nm  f=0.0218  <S**2>=0.000
       3 ->  9        -0.00035
       3 -> 12         0.00014
       3 -> 13        -0.00067
       3 -> 16         0.00086
       3 -> 17         0.00049
       3 -> 20         0.00016
       3 -> 21        -0.00079
       3 -> 24         0.00088
       3 -> 30        -0.00051
       3 -> 32        -0.00035
       3 -> 33        -0.00103
       3 -> 42        -0.00036
       3 -> 47        -0.00021
       3 -> 49        -0.00030
       3 -> 51        -0.00042
       3 -> 53        -0.00018
       4 -> 11        -0.00036
       4 -> 15         0.00012
       4 -> 19         0.00032
       4 -> 22         0.00120
       4 -> 29         0.00026
       4 -> 31         0.00079
       4 -> 37         0.00012
       4 -> 40         0.00029
       4 -> 43        -0.00031
       4 -> 46         0.00067
       4 -> 50         0.00054
       5 -> 10         0.00364
       5 -> 14         0.00166
       5 -> 18        -0.00358
       5 -> 23        -0.00156
       5 -> 27         0.00265
       5 -> 34         0.00026
       5 -> 36        -0.00034
       5 -> 41         0.00034
       5 -> 48         0.00095
       5 -> 52         0.00026
       6 ->  9        -0.01187
       6 -> 12        -0.00043
       6 -> 13         0.00056
       6 -> 16         0.00245
       6 -> 17         0.00801
       6 -> 20        -0.00727
       6 -> 21        -0.00225
       6 -> 24         0.00176
       6 -> 26         0.00206
       6 -> 30        -0.00148
       6 -> 32         0.00120
       6 -> 33         0.00093
       6 -> 38        -0.00150
       6 -> 39        -0.00055
       6 -> 42         0.00029
       6 -> 44        -0.00061
       6 -> 47        -0.00039
       6 -> 49        -0.00019
       6 -> 51         0.00022
       6 -> 53         0.00039
       7 ->  9        -0.00568
       7 -> 12         0.00557
       7 -> 13         0.00116
       7 -> 16        -0.00847
       7 -> 17         0.00331
       7 -> 20         0.00128
       7 -> 21         0.00359
       7 -> 24         0.00016
       7 -> 26         0.00533
       7 -> 30         0.00133
       7 -> 32        -0.00076
       7 -> 33        -0.00077
       7 -> 38         0.00076
       7 -> 39        -0.00060
       7 -> 42         0.00014
       7 -> 44        -0.00024
       7 -> 47        -0.00080
       7 -> 49        -0.00059
       7 -> 53         0.00066
       8 -> 11        -0.05497
       8 -> 15         0.70348
       8 -> 19         0.03921
       8 -> 22         0.01349
       8 -> 25         0.00292
       8 -> 29         0.00338
       8 -> 31         0.00208
       8 -> 37         0.00168
       8 -> 40        -0.00034
       8 -> 43        -0.00070
       8 -> 50        -0.00043
       3 <-  9        -0.00046
       3 <- 13        -0.00024
       3 <- 16         0.00062
       3 <- 17         0.00048
       3 <- 20         0.00018
       3 <- 21        -0.00059
       3 <- 24         0.00067
       3 <- 26         0.00011
       3 <- 30        -0.00040
       3 <- 32        -0.00015
       3 <- 33        -0.00086
       3 <- 42        -0.00029
       3 <- 47        -0.00017
       3 <- 49        -0.00027
       3 <- 51        -0.00038
       3 <- 53        -0.00015
       4 <- 11         0.00133
       4 <- 15         0.00122
       4 <- 19         0.00132
       4 <- 22         0.00083
       4 <- 25         0.00080
       4 <- 29        -0.00022
       4 <- 31         0.00067
       4 <- 37         0.00016
       4 <- 40         0.00027
       4 <- 43        -0.00027
       4 <- 46         0.00061
       4 <- 50         0.00049
       5 <- 10         0.00162
       5 <- 14         0.00085
       5 <- 18        -0.00181
       5 <- 23        -0.00100
       5 <- 27         0.00180
       5 <- 34         0.00020
       5 <- 36        -0.00027
       5 <- 41         0.00027
       5 <- 48         0.00083
       5 <- 52         0.00023
       6 <-  9        -0.00262
       6 <- 12        -0.00160
       6 <- 13        -0.00025
       6 <- 16        -0.00034
       6 <- 17         0.00159
       6 <- 20        -0.00372
       6 <- 21        -0.00147
       6 <- 24         0.00047
       6 <- 26         0.00160
       6 <- 30        -0.00098
       6 <- 32         0.00063
       6 <- 33         0.00059
       6 <- 38        -0.00097
       6 <- 39        -0.00018
       6 <- 42         0.00021
       6 <- 44        -0.00045
       6 <- 47        -0.00039
       6 <- 49        -0.00013
       6 <- 51         0.00017
       6 <- 53         0.00033
       7 <-  9        -0.00184
       7 <- 12         0.00222
       7 <- 13         0.00113
       7 <- 16        -0.00173
       7 <- 17         0.00227
       7 <- 20         0.00117
       7 <- 21         0.00198
       7 <- 24         0.00046
       7 <- 26         0.00313
       7 <- 30         0.00087
       7 <- 32        -0.00053
       7 <- 33        -0.00058
       7 <- 38         0.00056
       7 <- 39        -0.00069
       7 <- 44        -0.00020
       7 <- 47        -0.00081
       7 <- 49        -0.00049
       7 <- 53         0.00058
       8 <- 11         0.00533
       8 <- 15         0.00019
       8 <- 19         0.00624
       8 <- 22         0.00022
       8 <- 25        -0.00298
       8 <- 29         0.00236
       8 <- 31         0.00187
       8 <- 37         0.00126
       8 <- 40        -0.00013
       8 <- 43        -0.00056
       8 <- 50        -0.00037
 
 Excited State   8:      Singlet-B2     9.4282 eV  131.50 nm  f=0.3705  <S**2>=0.000
       3 -> 11        -0.00011
       3 -> 15        -0.00217
       3 -> 19         0.00078
       3 -> 22        -0.00234
       3 -> 25        -0.00119
       3 -> 29         0.00144
       3 -> 31         0.00130
       3 -> 37        -0.00065
       3 -> 40         0.00108
       3 -> 43        -0.00082
       3 -> 46         0.00014
       3 -> 54        -0.00023
       4 ->  9         0.00303
       4 -> 12        -0.00128
       4 -> 13        -0.00840
       4 -> 16        -0.00570
       4 -> 17        -0.00104
       4 -> 20        -0.00832
       4 -> 21        -0.00592
       4 -> 24        -0.00218
       4 -> 26         0.00331
       4 -> 30        -0.00537
       4 -> 32        -0.00134
       4 -> 33         0.00054
       4 -> 38        -0.00041
       4 -> 42        -0.00019
       4 -> 44         0.00027
       4 -> 47        -0.00032
       4 -> 51         0.00027
       4 -> 53         0.00017
       5 -> 28        -0.00638
       5 -> 35        -0.00157
       5 -> 45        -0.00018
       6 -> 11         0.02361
       6 -> 15        -0.00713
       6 -> 19         0.01424
       6 -> 22         0.00350
       6 -> 25        -0.01077
       6 -> 29         0.00012
       6 -> 31        -0.00073
       6 -> 37         0.00260
       6 -> 40         0.00076
       6 -> 43        -0.00097
       6 -> 50         0.00020
[...]
  47        4PZ         0.00527   0.00000  -0.00326   0.00589  -0.02697
  48        5S          0.00283   0.00000  -0.02646  -0.03363  -0.01409
  49        5PX         0.00000  -0.00000   0.00000   0.00000   0.00000
  50        5PY        -0.00000  -0.00000  -0.05652  -0.09231  -0.11257
  51        5PZ         0.00016   0.00000   0.00174   0.00298  -0.00067
  52        6D 0       -0.00001   0.00000  -0.00175  -0.00257   0.00017
  53        6D+1       -0.00000  -0.00000  -0.00000  -0.00000  -0.00000
  54        6D-1        0.00000   0.00000   0.00112   0.00260   0.01743
  55        6D+2       -0.00001  -0.00000  -0.00039  -0.00061   0.00002
  56        6D-2        0.00000  -0.00000  -0.00000  -0.00000   0.00000
                          26        27        28        29        30
  26        4PX         0.00009
  27        4PY        -0.00000   0.00204
  28        4PZ         0.00000  -0.00110   0.00092
  29 3   H  1S          0.00000  -0.00553   0.00018   0.08785
  30        2S          0.00000  -0.00783  -0.00015   0.13315   0.20493
  31        3S          0.00000  -0.00479   0.00140   0.11686   0.18780
  32        4PX         0.00009   0.00000   0.00000  -0.00000  -0.00000
  33        4PY         0.00000  -0.00050  -0.00041   0.00557   0.00747
  34        4PZ        -0.00000   0.00041  -0.00067   0.00363   0.00504
  35 4   O  1S          0.00000  -0.00190  -0.00053   0.00593   0.01086
  36        2S          0.00000  -0.00368  -0.00045   0.01029   0.01878
  37        2PX         0.00384   0.00000  -0.00000  -0.00000  -0.00000
  38        2PY         0.00000  -0.01230   0.01129   0.02644   0.04656
  39        2PZ         0.00000  -0.00939   0.00034   0.00772   0.02422
  40        3S         -0.00000   0.00797   0.00011  -0.02379  -0.04118
  41        3PX         0.00495   0.00000  -0.00000  -0.00000  -0.00000
  42        3PY         0.00000  -0.01596   0.01432   0.04591   0.07931
  43        3PZ         0.00000  -0.00768  -0.00020  -0.00153   0.01200
  44        4S         -0.00000   0.00515  -0.00111  -0.03883  -0.05025
  45        4PX         0.00217   0.00000  -0.00000  -0.00000  -0.00000
  46        4PY         0.00000  -0.00892   0.00655   0.07509   0.12482
  47        4PZ         0.00000  -0.00528  -0.00019  -0.00326   0.00589
  48        5S         -0.00000   0.00412  -0.00142  -0.02646  -0.03363
  49        5PX        -0.00042   0.00000   0.00000  -0.00000  -0.00000
  50        5PY         0.00000  -0.00098  -0.00070   0.05652   0.09231
  51        5PZ         0.00000  -0.00069   0.00007   0.00174   0.00298
  52        6D 0       -0.00000   0.00050  -0.00013  -0.00175  -0.00257
  53        6D+1       -0.00093  -0.00000   0.00000   0.00000   0.00000
  54        6D-1       -0.00000   0.00274  -0.00266  -0.00112  -0.00260
  55        6D+2       -0.00000   0.00013  -0.00002  -0.00039  -0.00061
  56        6D-2       -0.00000   0.00000  -0.00000  -0.00000  -0.00000
                          31        32        33        34        35
  31        3S          0.23716
  32        4PX         0.00000   0.00009
  33        4PY        -0.00375  -0.00000   0.00204
  34        4PZ        -0.00053  -0.00000   0.00110   0.00092
  35 4   O  1S          0.00357  -0.00000   0.00190  -0.00053   0.64369
  36        2S          0.00470  -0.00000   0.00368  -0.00045   0.58081
  37        2PX        -0.00000   0.00384   0.00000   0.00000   0.00000
  38        2PY         0.11879   0.00000  -0.01230  -0.01129   0.00000
  39        2PZ        -0.03035  -0.00000   0.00939   0.00034   0.01573
  40        3S         -0.01560   0.00000  -0.00797   0.00011  -0.09936
  41        3PX        -0.00000   0.00495   0.00000   0.00000   0.00000
  42        3PY         0.17616   0.00000  -0.01596  -0.01432   0.00000
  43        3PZ        -0.03421  -0.00000   0.00768  -0.00020   0.00709
  44        4S         -0.03951   0.00000  -0.00515  -0.00111  -0.07818
  45        4PX        -0.00000   0.00217   0.00000   0.00000   0.00000
  46        4PY         0.19213   0.00000  -0.00892  -0.00655  -0.00000
  47        4PZ        -0.02697  -0.00000   0.00528  -0.00019  -0.01097
  48        5S         -0.01409   0.00000  -0.00412  -0.00142  -0.01003
  49        5PX        -0.00000  -0.00042   0.00000  -0.00000   0.00000
  50        5PY         0.11257   0.00000  -0.00098   0.00070   0.00000
  51        5PZ        -0.00067  -0.00000   0.00069   0.00007   0.00265
  52        6D 0        0.00017   0.00000  -0.00050  -0.00013   0.00264
  53        6D+1        0.00000  -0.00093  -0.00000  -0.00000   0.00000
  54        6D-1       -0.01743  -0.00000   0.00274   0.00266   0.00000
  55        6D+2        0.00002   0.00000  -0.00013  -0.00002  -0.00041
  56        6D-2        0.00000   0.00000  -0.00000  -0.00000  -0.00000
                          36        37        38        39        40
  36        2S          0.54649
  37        2PX         0.00000   0.17053
  38        2PY         0.00000  -0.00000   0.20825
  39        2PZ         0.03142   0.00000  -0.00000   0.30214
  40        3S         -0.20255   0.00000   0.00000  -0.01803   0.60206
  41        3PX         0.00000   0.21970   0.00000   0.00000   0.00000
  42        3PY         0.00000   0.00000   0.27571   0.00000   0.00000
  43        3PZ         0.01697   0.00000  -0.00000   0.31069   0.01917
  44        4S         -0.16475   0.00000   0.00000   0.17804   0.54849
  45        4PX         0.00000   0.09648  -0.00000   0.00000   0.00000
  46        4PY        -0.00000  -0.00000   0.17698   0.00000   0.00000
  47        4PZ        -0.00713   0.00000  -0.00000   0.23449   0.04438
  48        5S         -0.03129   0.00000   0.00000   0.04635   0.12853
  49        5PX         0.00000  -0.01845  -0.00000   0.00000   0.00000
  50        5PY         0.00000  -0.00000   0.04180   0.00000  -0.00000
  51        5PZ         0.00527   0.00000  -0.00000   0.01257  -0.01246
  52        6D 0        0.00184  -0.00000   0.00000  -0.00522   0.00071
  53        6D+1       -0.00000  -0.04106   0.00000   0.00000  -0.00000
  54        6D-1        0.00000   0.00000  -0.04420  -0.00000   0.00000
  55        6D+2       -0.00096  -0.00000   0.00000  -0.00156   0.00274
  56        6D-2       -0.00000  -0.00000   0.00000  -0.00000   0.00000
                          41        42        43        44        45
  41        3PX         0.28303
  42        3PY         0.00000   0.36720
  43        3PZ         0.00000  -0.00000   0.32509
  44        4S          0.00000   0.00000   0.22416   0.64146
  45        4PX         0.12430  -0.00000   0.00000   0.00000   0.05459
  46        4PY        -0.00000   0.24481   0.00000   0.00000  -0.00000
  47        4PZ         0.00000  -0.00000   0.24743   0.19761   0.00000
  48        5S          0.00000   0.00000   0.06215   0.16654   0.00000
  49        5PX        -0.02377  -0.00000   0.00000   0.00000  -0.01044
  50        5PY        -0.00000   0.06556   0.00000  -0.00000  -0.00000
  51        5PZ         0.00000  -0.00000   0.01205  -0.00422   0.00000
  52        6D 0       -0.00000   0.00000  -0.00447  -0.00148  -0.00000
  53        6D+1       -0.05290   0.00000   0.00000  -0.00000  -0.02323
  54        6D-1        0.00000  -0.05763  -0.00000  -0.00000   0.00000
  55        6D+2       -0.00000   0.00000  -0.00134   0.00173  -0.00000
  56        6D-2       -0.00000   0.00000  -0.00000   0.00000  -0.00000
                          46        47        48        49        50
  46        4PY         0.20109
  47        4PZ        -0.00000   0.19004
  48        5S          0.00000   0.05399   0.05364
  49        5PX        -0.00000   0.00000   0.00000   0.00200
  50        5PY         0.08485   0.00000  -0.00000  -0.00000   0.05639
  51        5PZ        -0.00000   0.00847  -0.00139   0.00000  -0.00000
  52        6D 0        0.00000  -0.00341   0.00060  -0.00000   0.00000
  53        6D+1        0.00000   0.00000  -0.00000   0.00444   0.00000
  54        6D-1       -0.03324  -0.00000   0.00000   0.00000  -0.00466
  55        6D+2        0.00000  -0.00088   0.00053  -0.00000   0.00000
  56        6D-2        0.00000  -0.00000   0.00000   0.00000   0.00000
                          51        52        53        54        55
  51        5PZ         0.00080
  52        6D 0       -0.00022   0.00039
  53        6D+1        0.00000   0.00000   0.00989
  54        6D-1       -0.00000  -0.00000   0.00000   0.00975
  55        6D+2       -0.00012   0.00005  -0.00000  -0.00000   0.00002
  56        6D-2       -0.00000   0.00000   0.00000   0.00000   0.00000
                          56
  56        6D-2        0.00000
          Condensed to atoms (all electrons):
               1          2          3          4
     1  C    4.909671   0.561164   0.561164  -0.220100
     2  H    0.561164   1.104775  -0.257599  -0.277385
     3  H    0.561164  -0.257599   1.104775  -0.277385
     4  O   -0.220100  -0.277385  -0.277385   8.701061
 Mulliken charges:
               1
     1  C    0.188100
     2  H   -0.130955
     3  H   -0.130955
     4  O    0.073810
 Sum of Mulliken charges =   0.00000
 Mulliken charges with hydrogens summed into heavy atoms:
               1
     1  C   -0.073810
     4  O    0.073810
 Electronic spatial extent (au):  <R**2>=             44.0982
 Charge=             -0.0000 electrons
 Dipole moment (field-independent basis, Debye):
    X=              0.0000    Y=             -0.0000    Z=              1.6376  Tot=              1.6376
 Quadrupole moment (field-independent basis, Debye-Ang):
   XX=            -10.0290   YY=            -14.2759   ZZ=            -13.7322
   XY=             -0.0000   XZ=             -0.0000   YZ=              0.0000
 Traceless Quadrupole moment (field-independent basis, Debye-Ang):
   XX=              2.6500   YY=             -1.5969   ZZ=             -1.0532
   XY=             -0.0000   XZ=             -0.0000   YZ=              0.0000
 Octapole moment (field-independent basis, Debye-Ang**2):
  XXX=              0.0000  YYY=              0.0000  ZZZ=              6.7593  XYY=              0.0000
  XXY=             -0.0000  XXZ=              2.1427  XZZ=              0.0000  YZZ=              0.0000
  YYZ=              5.9310  XYZ=              0.0000
 Hexadecapole moment (field-independent basis, Debye-Ang**3):
 XXXX=             -9.0137 YYYY=            -39.2804 ZZZZ=            -31.8663 XXXY=             -0.0000
 XXXZ=             -0.0000 YYYX=             -0.0000 YYYZ=             -0.0000 ZZZX=             -0.0000
 ZZZY=             -0.0000 XXYY=             -7.6155 XXZZ=             -6.5204 YYZZ=            -13.8888
 XXYZ=              0.0000 YYXZ=             -0.0000 ZZXY=             -0.0000
 N-N= 5.506123975776D+01 E-N=-3.790996524393D+02  KE= 1.238762418789D+02
 Symmetry A1   KE= 1.106084707301D+02
 Symmetry A2   KE= 1.799180265075D-35
 Symmetry B1   KE= 5.599282149741D+00
 Symmetry B2   KE= 7.668488999080D+00
 Leave Link  601 at Fri Sep 17 10:52:17 2021, MaxMem=   268435456 cpu:               0.0 elap:               0.0
 (Enter /software/gaussian/g16-a03/l9999.exe)
 Electronic transition elements 
                 1             2             3             4             5 
      1  -0.111087D+03 -0.111073D+03 -0.111048D+03 -0.111039D+03 -0.110941D+03
      2   0.000000D+00  0.000000D+00  0.000000D+00  0.000000D+00  0.000000D+00
      3   0.114307D+01  0.000000D+00  0.529760D+00  0.000000D+00  0.000000D+00
      4   0.000000D+00  0.000000D+00  0.000000D+00  0.685083D-01  0.000000D+00
      5   0.000000D+00  0.000000D+00  0.000000D+00  0.000000D+00  0.000000D+00
      6  -0.176182D+00  0.000000D+00 -0.101959D+00  0.000000D+00  0.000000D+00
      7   0.000000D+00  0.000000D+00  0.000000D+00 -0.170792D-01  0.000000D+00
      8  -0.432186D+00  0.000000D+00  0.789625D+00  0.000000D+00  0.000000D+00
      9   0.000000D+00  0.000000D+00  0.000000D+00  0.000000D+00  0.000000D+00
     10   0.000000D+00 -0.916840D+00  0.000000D+00  0.000000D+00  0.697269D+00
     11   0.000000D+00  0.000000D+00  0.000000D+00  0.319664D+00  0.000000D+00
     12   0.000000D+00  0.000000D+00  0.000000D+00  0.858563D+00  0.000000D+00
     13   0.000000D+00  0.000000D+00  0.000000D+00  0.899165D-01  0.000000D+00
     14   0.000000D+00  0.367008D+00  0.000000D+00  0.000000D+00 -0.146127D+00
     15   0.000000D+00  0.000000D+00  0.000000D+00  0.000000D+00  0.000000D+00
     16   0.306262D+00  0.000000D+00  0.497507D+00  0.000000D+00  0.000000D+00
                 6             7             8             9            10 
      1  -0.110929D+03 -0.110921D+03 -0.110905D+03 -0.110885D+03 -0.110875D+03
      2   0.000000D+00  0.000000D+00  0.000000D+00  0.000000D+00  0.000000D+00
      3  -0.766123D+00  0.000000D+00 -0.126646D+01  0.000000D+00  0.592520D+00
      4   0.000000D+00 -0.314343D+00  0.000000D+00  0.000000D+00  0.000000D+00
      5   0.000000D+00  0.000000D+00  0.000000D+00  0.000000D+00  0.000000D+00
      6   0.259469D+00  0.000000D+00  0.411928D+00  0.000000D+00 -0.207658D+00
      7   0.000000D+00  0.943655D-01  0.000000D+00  0.000000D+00  0.000000D+00
      8  -0.586448D-01  0.000000D+00  0.110316D+01  0.000000D+00 -0.155972D+00
      9   0.000000D+00  0.000000D+00  0.000000D+00  0.000000D+00  0.000000D+00
     10   0.000000D+00  0.000000D+00  0.000000D+00  0.774258D+00  0.000000D+00
     11   0.000000D+00 -0.256498D+00  0.000000D+00  0.000000D+00  0.000000D+00
     12   0.000000D+00 -0.667292D+00  0.000000D+00  0.000000D+00  0.000000D+00
     13   0.000000D+00 -0.560886D+00  0.000000D+00  0.000000D+00  0.000000D+00
     14   0.000000D+00  0.000000D+00  0.000000D+00  0.108548D+00  0.000000D+00
     15   0.000000D+00  0.000000D+00  0.000000D+00  0.000000D+00  0.000000D+00
     16  -0.813189D+00  0.000000D+00 -0.574272D+00  0.000000D+00  0.231593D+00
                11            12            13            14            15 
      1  -0.110794D+03 -0.110774D+03 -0.110754D+03 -0.110746D+03 -0.110729D+03
      2   0.000000D+00  0.000000D+00  0.402895D-01  0.000000D+00  0.000000D+00
      3   0.000000D+00  0.000000D+00  0.000000D+00 -0.160195D+00 -0.375251D+00
      4   0.937755D+00  0.202320D+00  0.000000D+00  0.000000D+00  0.000000D+00
      5   0.000000D+00  0.000000D+00 -0.321409D-01  0.000000D+00  0.000000D+00
      6   0.000000D+00  0.000000D+00  0.000000D+00  0.367279D-01  0.185960D+00
      7  -0.407384D+00 -0.948835D-01  0.000000D+00  0.000000D+00  0.000000D+00
      8   0.000000D+00  0.000000D+00  0.000000D+00  0.153274D+01 -0.110867D+00
      9   0.000000D+00  0.000000D+00  0.150284D+00  0.000000D+00  0.000000D+00
     10   0.000000D+00  0.000000D+00  0.000000D+00  0.000000D+00  0.000000D+00
     11   0.118942D-01 -0.559540D-01  0.000000D+00  0.000000D+00  0.000000D+00
     12   0.104910D+01 -0.126794D+00  0.000000D+00  0.000000D+00  0.000000D+00
     13   0.771061D+00 -0.396541D+00  0.000000D+00  0.000000D+00  0.000000D+00
     14   0.000000D+00  0.000000D+00  0.000000D+00  0.000000D+00  0.000000D+00
     15   0.000000D+00  0.000000D+00  0.318100D+00  0.000000D+00  0.000000D+00
     16   0.000000D+00  0.000000D+00  0.000000D+00 -0.211047D+00  0.186655D+00
                16            17            18            19            20 
      1  -0.110721D+03 -0.110696D+03 -0.110686D+03 -0.110661D+03 -0.110660D+03
      2   0.000000D+00  0.000000D+00 -0.518058D+00  0.000000D+00  0.000000D+00
      3   0.000000D+00  0.000000D+00  0.000000D+00 -0.604078D-01  0.000000D+00
      4   0.755224D-01 -0.145776D+00  0.000000D+00  0.000000D+00 -0.524177D+00
      5   0.000000D+00  0.000000D+00  0.278346D+00  0.000000D+00  0.000000D+00
      6   0.000000D+00  0.000000D+00  0.000000D+00  0.449821D-01  0.000000D+00
      7  -0.318274D-01  0.801190D-01  0.000000D+00  0.000000D+00  0.302722D+00
      8   0.000000D+00  0.000000D+00  0.000000D+00 -0.195678D+00  0.000000D+00
      9   0.000000D+00  0.000000D+00 -0.479840D+00  0.000000D+00  0.000000D+00
     10   0.000000D+00  0.000000D+00  0.000000D+00  0.000000D+00  0.000000D+00
     11   0.148960D+00 -0.438051D+00  0.000000D+00  0.000000D+00 -0.177818D+00
     12   0.236970D+00 -0.823774D+00  0.000000D+00  0.000000D+00 -0.249237D+00
     13   0.707272D+00 -0.500948D+00  0.000000D+00  0.000000D+00 -0.870059D+00
     14   0.000000D+00  0.000000D+00  0.000000D+00  0.000000D+00  0.000000D+00
     15   0.000000D+00  0.000000D+00 -0.444146D+00  0.000000D+00  0.000000D+00
     16   0.000000D+00  0.000000D+00  0.000000D+00  0.211493D+00  0.000000D+00
                21            22            23            24            25 
      1  -0.110640D+03 -0.110623D+03 -0.110610D+03 -0.110604D+03 -0.110569D+03
      2   0.000000D+00 -0.585097D+00  0.000000D+00  0.000000D+00 -0.112236D+00
      3   0.000000D+00  0.000000D+00 -0.338281D+00  0.000000D+00  0.000000D+00
      4  -0.271941D+00  0.000000D+00  0.000000D+00  0.336063D+00  0.000000D+00
      5   0.000000D+00  0.374280D+00  0.000000D+00  0.000000D+00  0.733398D-01
      6   0.000000D+00  0.000000D+00  0.214828D+00  0.000000D+00  0.000000D+00
      7   0.164517D+00  0.000000D+00  0.000000D+00 -0.217589D+00  0.000000D+00
      8   0.000000D+00  0.000000D+00 -0.376830D+00  0.000000D+00  0.000000D+00
      9   0.000000D+00  0.731386D+00  0.000000D+00  0.000000D+00  0.356421D+00
     10   0.000000D+00  0.000000D+00  0.000000D+00  0.000000D+00  0.000000D+00
     11   0.710398D-02  0.000000D+00  0.000000D+00 -0.108780D+00  0.000000D+00
     12  -0.430228D+00  0.000000D+00  0.000000D+00 -0.419666D-01  0.000000D+00
     13   0.223393D-01  0.000000D+00  0.000000D+00 -0.784892D+00  0.000000D+00
     14   0.000000D+00  0.000000D+00  0.000000D+00  0.000000D+00  0.000000D+00
     15   0.000000D+00  0.517332D+00  0.000000D+00  0.000000D+00  0.373712D-01
     16   0.000000D+00  0.000000D+00  0.421109D+00  0.000000D+00  0.000000D+00
                26            27            28            29            30 
      1  -0.110565D+03 -0.110552D+03 -0.110551D+03 -0.110549D+03 -0.110535D+03
      2   0.000000D+00  0.000000D+00  0.263247D+00  0.000000D+00  0.000000D+00
      3   0.000000D+00 -0.208837D+00  0.000000D+00  0.000000D+00 -0.328690D+00
      4   0.234821D+00  0.000000D+00  0.000000D+00 -0.369869D+00  0.000000D+00
      5   0.000000D+00  0.000000D+00 -0.194798D+00  0.000000D+00  0.000000D+00
      6   0.000000D+00  0.176086D+00  0.000000D+00  0.000000D+00  0.243459D+00
      7  -0.167478D+00  0.000000D+00  0.000000D+00  0.252734D+00  0.000000D+00
      8   0.000000D+00  0.147348D+00  0.000000D+00  0.000000D+00  0.252817D+00
      9   0.000000D+00  0.000000D+00  0.455350D+00  0.000000D+00  0.000000D+00
     10   0.000000D+00  0.000000D+00  0.000000D+00  0.000000D+00  0.000000D+00
     11  -0.535101D+00  0.000000D+00  0.000000D+00  0.546604D-01  0.000000D+00
     12   0.107301D+01  0.000000D+00  0.000000D+00  0.531438D+00  0.000000D+00
     13   0.364247D+00  0.000000D+00  0.000000D+00  0.867543D+00  0.000000D+00
     14   0.000000D+00  0.000000D+00  0.000000D+00  0.000000D+00  0.000000D+00
     15   0.000000D+00  0.000000D+00  0.650041D+00  0.000000D+00  0.000000D+00
     16   0.000000D+00 -0.546440D+00  0.000000D+00  0.000000D+00  0.965253D-01

 Test job not archived.
 1\1\GINC-BHD0002\SP\RB3LYP TD-FC\6-311+G(d,p)\C1H2O1\BWEIGHT\17-Sep-20
 21\0\\#p B3LYP/6-311+G** #p TD=(singlets,nstates=30)IOp(6/8=3) IOp(9/4
 0=4)\\Scan Step 17, Bond Length 0.585\\0,1\C,0,0.,0.,-0.52736\H,0,0.,0
 .93726,-1.11871\H,0,0.,-0.93726,-1.11871\O,0,0.,0.,0.05764\\Version=ES
 64L-G16RevA.03\State=1-A1\HF=-111.2511866\RMSD=9.271e-09\PG=C02V [C2(C
 1O1),SGV(H2)]\\@


 ...THOSE SCIENCES ARE VAIN AND FULL OF ERRORS WHICH 
 ARE NOT BORN FROM EXPERIMENT, THE MOTHER OF CERTAINTY...

                          -- LEONARDO DA VINCI, 1452-1519
 Job cpu time:       0 days  0 hours  0 minutes 27.2 seconds.
 Elapsed time:       0 days  0 hours  0 minutes 27.7 seconds.
 File lengths (MBytes):  RWF=     79 Int=      0 D2E=      0 Chk=     32 Scr=      1
 Normal termination of Gaussian 16 at Fri Sep 17 10:52:17 2021.
