 Entering Gaussian System, Link 0=g16
 Initial command:
 /software/gaussian/g16-c01/sse4/g16/l1.exe "/local_scratch/24665244/Gau-25711.inp" -scrdir="/local_scratch/24665244/"
 Entering Link 1 = /software/gaussian/g16-c01/sse4/g16/l1.exe PID=     25741.
  
 Copyright (c) 1988-2019, Gaussian, Inc.  All Rights Reserved.
  
 This is part of the Gaussian(R) 16 program.  It is based on
 the Gaussian(R) 09 system (copyright 2009, Gaussian, Inc.),
 the Gaussian(R) 03 system (copyright 2003, Gaussian, Inc.),
 the Gaussian(R) 98 system (copyright 1998, Gaussian, Inc.),
 the Gaussian(R) 94 system (copyright 1995, Gaussian, Inc.),
 the Gaussian 92(TM) system (copyright 1992, Gaussian, Inc.),
 the Gaussian 90(TM) system (copyright 1990, Gaussian, Inc.),
 the Gaussian 88(TM) system (copyright 1988, Gaussian, Inc.),
 the Gaussian 86(TM) system (copyright 1986, Carnegie Mellon
 University), and the Gaussian 82(TM) system (copyright 1983,
 Carnegie Mellon University). Gaussian is a federally registered
 trademark of Gaussian, Inc.
  
 This software contains proprietary and confidential information,
 including trade secrets, belonging to Gaussian, Inc.
  
 This software is provided under written license and may be
 used, copied, transmitted, or stored only in accord with that
 written license.
  
 The following legend is applicable only to US Government
 contracts under FAR:
  
                    RESTRICTED RIGHTS LEGEND
  
 Use, reproduction and disclosure by the US Government is
 subject to restrictions as set forth in subparagraphs (a)
 and (c) of the Commercial Computer Software - Restricted
 Rights clause in FAR 52.227-19.
  
 Gaussian, Inc.
 340 Quinnipiac St., Bldg. 40, Wallingford CT 06492
  
  
 ---------------------------------------------------------------
 Warning -- This program may not be used in any manner that
 competes with the business of Gaussian, Inc. or will provide
 assistance to any competitor of Gaussian, Inc.  The licensee
 of this program is prohibited from giving any competitor of
 Gaussian, Inc. access to this program.  By using this program,
 the user acknowledges that Gaussian, Inc. is engaged in the
 business of creating and licensing software in the field of
 computational chemistry and represents and warrants to the
 licensee that it is not a competitor of Gaussian, Inc. and that
 it will not use this program in any manner prohibited above.
 ---------------------------------------------------------------
  

 Cite this work as:
 Gaussian 16, Revision C.01,
 M. J. Frisch, G. W. Trucks, H. B. Schlegel, G. E. Scuseria, 
 M. A. Robb, J. R. Cheeseman, G. Scalmani, V. Barone, 
 G. A. Petersson, H. Nakatsuji, X. Li, M. Caricato, A. V. Marenich, 
 J. Bloino, B. G. Janesko, R. Gomperts, B. Mennucci, H. P. Hratchian, 
 J. V. Ortiz, A. F. Izmaylov, J. L. Sonnenberg, D. Williams-Young, 
 F. Ding, F. Lipparini, F. Egidi, J. Goings, B. Peng, A. Petrone, 
 T. Henderson, D. Ranasinghe, V. G. Zakrzewski, J. Gao, N. Rega, 
 G. Zheng, W. Liang, M. Hada, M. Ehara, K. Toyota, R. Fukuda, 
 J. Hasegawa, M. Ishida, T. Nakajima, Y. Honda, O. Kitao, H. Nakai, 
 T. Vreven, K. Throssell, J. A. Montgomery, Jr., J. E. Peralta, 
 F. Ogliaro, M. J. Bearpark, J. J. Heyd, E. N. Brothers, K. N. Kudin, 
 V. N. Staroverov, T. A. Keith, R. Kobayashi, J. Normand, 
 K. Raghavachari, A. P. Rendell, J. C. Burant, S. S. Iyengar, 
 J. Tomasi, M. Cossi, J. M. Millam, M. Klene, C. Adamo, R. Cammi, 
 J. W. Ochterski, R. L. Martin, K. Morokuma, O. Farkas, 
 J. B. Foresman, and D. J. Fox, Gaussian, Inc., Wallingford CT, 2019.
 
 ******************************************
 Gaussian 16:  ES64L-G16RevC.01  3-Jul-2019
                 2-May-2024 
 ******************************************
 %chk=geometry.chk
 %mem=1GB
 %nprocshared=12
 Will use up to   12 processors via shared memory.
 ----------------------------------------
 #P wB97XD/6-311+G* NoSymm #P Field=X-184
 ----------------------------------------
 1/38=1,172=1/1;
 2/12=2,15=1,17=6,18=5,40=1/2;
 3/5=4,6=6,7=11,11=2,14=1,15=-184,25=1,30=1,74=-58/1,2,3;
 4//1;
 5/5=2,38=5/2;
 6/7=2,8=2,9=2,10=2,28=1/1;
 99/5=1,9=1/99;
 Leave Link    1 at Thu May  2 13:57:32 2024, MaxMem=   134217728 cpu:               2.7 elap:               2.8
 (Enter /software/gaussian/g16-c01/sse4/g16/l101.exe)
 -------
 TitleMe
 -------
 Symbolic Z-matrix:
 Charge =  1 Multiplicity = 1
 C                     0.5193    1.233    -0.0319 
 C                     1.9445    1.2692   -0.0367 
 C                     2.6204    0.0928   -0.025 
 C                    -0.196     0.0301    0.001 
 H                    -0.0207    2.1742   -0.0434 
 H                     2.4828    2.2089   -0.0361 
 H                    -1.2777    0.0399    0.0117 
 N                     4.0921    0.0959    0.0366 
 O                     4.6393   -1.0217    0.1446 
 O                     4.6649    1.1984   -0.0233 
 C                     0.4943   -1.1671    0.021 
 H                    -0.0325   -2.1149    0.0545 
 C                     1.9629   -1.2165   -0.0211 
 H                     2.4436   -1.9631    0.6151 
 Br                    2.173    -1.9491   -1.9062 
 
 ITRead=  0  0  0  0  0  0  0  0  0  0  0  0  0  0  0
 MicOpt= -1 -1 -1 -1 -1 -1 -1 -1 -1 -1 -1 -1 -1 -1 -1
 NAtoms=     15 NQM=       15 NQMF=       0 NMMI=      0 NMMIF=      0
                NMic=       0 NMicF=      0.
                    Isotopes and Nuclear Properties:
 (Nuclear quadrupole moments (NQMom) in fm**2, nuclear magnetic moments (NMagM)
  in nuclear magnetons)

  Atom         1           2           3           4           5           6           7           8           9          10
 IAtWgt=          12          12          12          12           1           1           1          14          16          16
 AtmWgt=  12.0000000  12.0000000  12.0000000  12.0000000   1.0078250   1.0078250   1.0078250  14.0030740  15.9949146  15.9949146
 NucSpn=           0           0           0           0           1           1           1           2           0           0
 AtZEff=  -0.0000000  -0.0000000  -0.0000000  -0.0000000  -0.0000000  -0.0000000  -0.0000000  -0.0000000  -0.0000000  -0.0000000
 NQMom=    0.0000000   0.0000000   0.0000000   0.0000000   0.0000000   0.0000000   0.0000000   2.0440000   0.0000000   0.0000000
 NMagM=    0.0000000   0.0000000   0.0000000   0.0000000   2.7928460   2.7928460   2.7928460   0.4037610   0.0000000   0.0000000
 AtZNuc=   6.0000000   6.0000000   6.0000000   6.0000000   1.0000000   1.0000000   1.0000000   7.0000000   8.0000000   8.0000000

  Atom        11          12          13          14          15
 IAtWgt=          12           1          12           1          79
 AtmWgt=  12.0000000   1.0078250  12.0000000   1.0078250  78.9183361
 NucSpn=           0           1           0           1           3
 AtZEff=  -0.0000000  -0.0000000  -0.0000000  -0.0000000  -0.0000000
 NQMom=    0.0000000   0.0000000   0.0000000   0.0000000  31.3000000
 NMagM=    0.0000000   2.7928460   0.0000000   2.7928460   2.1063990
 AtZNuc=   6.0000000   1.0000000   6.0000000   1.0000000  35.0000000
 Leave Link  101 at Thu May  2 13:57:33 2024, MaxMem=   134217728 cpu:               1.5 elap:               1.5
 (Enter /software/gaussian/g16-c01/sse4/g16/l202.exe)
                          Input orientation:                          
 ---------------------------------------------------------------------
 Center     Atomic      Atomic             Coordinates (Angstroms)
 Number     Number       Type             X           Y           Z
 ---------------------------------------------------------------------
      1          6           0        0.519300    1.233000   -0.031900
      2          6           0        1.944500    1.269200   -0.036700
      3          6           0        2.620400    0.092800   -0.025000
      4          6           0       -0.196000    0.030100    0.001000
      5          1           0       -0.020700    2.174200   -0.043400
      6          1           0        2.482800    2.208900   -0.036100
      7          1           0       -1.277700    0.039900    0.011700
      8          7           0        4.092100    0.095900    0.036600
      9          8           0        4.639300   -1.021700    0.144600
     10          8           0        4.664900    1.198400   -0.023300
     11          6           0        0.494300   -1.167100    0.021000
     12          1           0       -0.032500   -2.114900    0.054500
     13          6           0        1.962900   -1.216500   -0.021100
     14          1           0        2.443600   -1.963100    0.615100
     15         35           0        2.173000   -1.949100   -1.906200
 ---------------------------------------------------------------------
                    Distance matrix (angstroms):
                    1          2          3          4          5
     1  C    0.000000
     2  C    1.425668   0.000000
     3  C    2.390549   1.356796   0.000000
     4  C    1.399895   2.473566   2.817218   0.000000
     5  H    1.085168   2.163581   3.362733   2.151712   0.000000
     6  H    2.192654   1.082960   2.120598   3.453189   2.503751
     7  H    2.157452   3.449071   3.898632   1.081797   2.477564
     8  N    3.750012   2.448304   1.472992   4.288753   4.608780
     9  O    4.699917   3.541615   2.312322   4.950458   5.653735
    10  O    4.145753   2.721354   2.324292   4.999386   4.786171
    11  C    2.400813   2.835836   2.471794   1.382101   3.381369
    12  H    3.394169   3.920329   3.452266   2.151887   4.290233
    13  C    2.843264   2.485817   1.465124   2.493060   3.928360
    14  H    3.786370   3.334922   2.160489   3.364142   4.860416
    15  Br   4.046416   3.728900   2.812194   3.628609   5.028314
                    6          7          8          9         10
     6  H    0.000000
     7  H    4.341452   0.000000
     8  N    2.657047   5.370150   0.000000
     9  O    3.888434   6.012948   1.249048   0.000000
    10  O    2.404752   6.054572   1.243863   2.226587   0.000000
    11  C    3.918516   2.144043   3.813080   4.149391   4.794941
    12  H    5.003018   2.489080   4.679774   4.798846   5.748876
    13  C    3.464662   3.475788   2.501842   2.688591   3.623886
    14  H    4.222698   4.268978   2.700314   2.434893   3.916224
    15  Br   4.569706   4.420610   3.411663   3.338935   4.434144
                   11         12         13         14         15
    11  C    0.000000
    12  H    1.084880   0.000000
    13  C    1.470034   2.189625   0.000000
    14  H    2.187771   2.543302   1.092353   0.000000
    15  Br   2.672762   2.955683   2.033334   2.535818   0.000000
 Symmetry turned off by external request.
 Stoichiometry    C6H5BrNO2(1+)
 Framework group  C1[X(C6H5BrNO2)]
 Deg. of freedom    39
 Full point group                 C1      NOp   1
 Rotational constants (GHZ):           1.1632986           0.9594224           0.5957624
 Leave Link  202 at Thu May  2 13:57:35 2024, MaxMem=   134217728 cpu:               1.3 elap:               1.3
 (Enter /software/gaussian/g16-c01/sse4/g16/l301.exe)
 Standard basis: 6-311+G(d) (5D, 7F)
 Ernie: Thresh=  0.10000D-02 Tol=  0.10000D-05 Strict=F.
 The following finite field(s) will be applied:
 An electric field of             -0.0184  0.0000  0.0000
   261 basis functions,   443 primitive gaussians,   273 cartesian basis functions
    49 alpha electrons       49 beta electrons
       nuclear repulsion energy       772.8945969580 Hartrees.
 IExCor= 4639 DFT=T Ex+Corr=wB97XD ExCW=0 ScaHFX=  1.000000
 ScaDFX=  1.000000  1.000000  1.000000  1.000000 ScalE2=  1.000000  1.000000
 IRadAn=      5 IRanWt=     -1 IRanGd=            0 ICorTp=0 IEmpDi=121
 HFx  wShort=  0.000000 wLong=  0.200000 cFull=  0.222036 cShort=  0.000000 cLong=  0.777964
 DFx  wShort=  0.000000 wLong=  0.200000 cFull=  0.000000 cShort=  0.000000 cLong=  1.000000
 NAtoms=   15 NActive=   15 NUniq=   15 SFac= 1.00D+00 NAtFMM=   60 NAOKFM=F Big=F
 Integral buffers will be    131072 words long.
 Raffenetti 2 integral format.
 Two-electron integral symmetry is turned off.
 R6Disp:  Grimme-D2 Dispersion energy=       -0.0080346408 Hartrees.
 Nuclear repulsion after empirical dispersion term =      772.8865623173 Hartrees.
 Leave Link  301 at Thu May  2 13:57:36 2024, MaxMem=   134217728 cpu:               1.0 elap:               1.0
 (Enter /software/gaussian/g16-c01/sse4/g16/l302.exe)
 NPDir=0 NMtPBC=     1 NCelOv=     1 NCel=       1 NClECP=     1 NCelD=      1
         NCelK=      1 NCelE2=     1 NClLst=     1 CellRange=     0.0.
 One-electron integrals computed using PRISM.
 NBasis=   261 RedAO= T EigKep=  2.52D-06  NBF=   261
 NBsUse=   261 1.00D-06 EigRej= -1.00D+00 NBFU=   261
 Precomputing XC quadrature grid using
 IXCGrd= 4 IRadAn=           5 IRanWt=          -1 IRanGd=           0 AccXCQ= 0.00D+00.
 Generated NRdTot=       0 NPtTot=           0 NUsed=           0 NTot=          32
 NSgBfM=   273   273   273   273   273 MxSgAt=    15 MxSgA2=    15.
 Leave Link  302 at Thu May  2 13:57:58 2024, MaxMem=   134217728 cpu:              21.9 elap:              21.9
 (Enter /software/gaussian/g16-c01/sse4/g16/l303.exe)
 DipDrv:  MaxL=1.
 The nuclear repulsion energy is now       765.0004667072 hartrees.
 Leave Link  303 at Thu May  2 13:58:01 2024, MaxMem=   134217728 cpu:               3.3 elap:               3.3
 (Enter /software/gaussian/g16-c01/sse4/g16/l401.exe)
 ExpMin= 3.50D-02 ExpMax= 4.40D+05 ExpMxC= 1.51D+04 IAcc=3 IRadAn=         5 AccDes= 0.00D+00
 Harris functional with IExCor= 4639 and IRadAn=       5 diagonalized for initial guess.
 HarFok:  IExCor= 4639 AccDes= 0.00D+00 IRadAn=         5 IDoV= 1 UseB2=F ITyADJ=14
 ICtDFT=  3500011 ScaDFX=  1.000000  1.000000  1.000000  1.000000
 FoFCou: FMM=F IPFlag=           0 FMFlag=      100000 FMFlg1=           0
         NFxFlg=           0 DoJE=T BraDBF=F KetDBF=T FulRan=T
         wScrn=  0.000000 ICntrl=       500 IOpCl=  0 I1Cent=   200000004 NGrid=           0
         NMat0=    1 NMatS0=      1 NMatT0=    0 NMatD0=    1 NMtDS0=    0 NMtDT0=    0
 Symmetry not used in FoFCou.
 Harris En= -2970.95545081189    
 JPrj=0 DoOrth=F DoCkMO=F.
 Leave Link  401 at Thu May  2 13:58:32 2024, MaxMem=   134217728 cpu:              31.3 elap:              31.3
 (Enter /software/gaussian/g16-c01/sse4/g16/l502.exe)
 Two-electron integral symmetry not used.
 Closed shell SCF:
 Using DIIS extrapolation, IDIIS=  1040.
 NGot=   134217728 LenX=   134063053 LenY=   133988083
 Requested convergence on RMS density matrix=1.00D-08 within 128 cycles.
 Requested convergence on MAX density matrix=1.00D-06.
 Requested convergence on             energy=1.00D-06.
 No special actions if energy rises.
 Fock matrices will be formed incrementally for  20 cycles.

 Cycle   1  Pass 1  IDiag  1:
 FoFJK:  IHMeth= 1 ICntrl=       0 DoSepK=T KAlg= 0 I1Cent=           0 FoldK=F
 IRaf=         1 NMat=       1 IRICut=       1 DoRegI=T DoRafI=F ISym2E= 0 IDoP0=0 IntGTp=1.
 FoFCou: FMM=F IPFlag=           0 FMFlag=      100000 FMFlg1=           0
         NFxFlg=           0 DoJE=T BraDBF=F KetDBF=F FulRan=T
         wScrn=  0.000000 ICntrl=       500 IOpCl=  0 I1Cent=           0 NGrid=           0
         NMat0=    1 NMatS0=      1 NMatT0=    0 NMatD0=    1 NMtDS0=    0 NMtDT0=    0
 Symmetry not used in FoFCou.
 E= -3001.31362974496    
 DIIS: error= 2.91D-01 at cycle   1 NSaved=   1.
 NSaved= 1 IEnMin= 1 EnMin= -3001.31362974496     IErMin= 1 ErrMin= 2.91D-01
 ErrMax= 2.91D-01  0.00D+00 EMaxC= 1.00D-01 BMatC= 1.46D+01 BMatP= 1.46D+01
 IDIUse=3 WtCom= 0.00D+00 WtEn= 1.00D+00
 Coeff-Com:  0.100D+01
 Coeff-En:   0.100D+01
 Coeff:      0.100D+01
 Gap=    -2.303 Goal=   None    Shift=    0.000
 GapD=   -2.303 DampG=0.250 DampE=0.250 DampFc=0.2500 IDamp=-1.
 Damping current iteration by 2.50D-01
 RMSDP=1.32D+01 MaxDP=1.27D+03              OVMax= 9.94D-01

 Cycle   2  Pass 1  IDiag  1:
 RMSU=  3.22D-01    CP:  7.67D-01
 E= -3002.61315108049     Delta-E=       -1.299521335531 Rises=F Damp=T
 DIIS: error= 2.19D-01 at cycle   2 NSaved=   2.
 NSaved= 2 IEnMin= 2 EnMin= -3002.61315108049     IErMin= 2 ErrMin= 2.19D-01
 ErrMax= 2.19D-01  0.00D+00 EMaxC= 1.00D-01 BMatC= 6.15D+00 BMatP= 1.46D+01
 IDIUse=3 WtCom= 0.00D+00 WtEn= 1.00D+00
 Coeff-Com: -0.351D+00 0.135D+01
 Coeff-En:   0.419D+00 0.581D+00
 Coeff:      0.419D+00 0.581D+00
 Gap=    -0.269 Goal=   None    Shift=    0.000
 RMSDP=1.07D+01 MaxDP=1.11D+03 DE=-1.30D+00 OVMax= 9.84D-01

 Cycle   3  Pass 1  IDiag  1:
 RMSU=  8.89D-02    CP:  6.93D-03  1.55D-01
 E= -2999.09067283095     Delta-E=        3.522478249539 Rises=F Damp=F
 DIIS: error= 1.27D-01 at cycle   3 NSaved=   3.
 NSaved= 3 IEnMin= 2 EnMin= -3002.61315108049     IErMin= 3 ErrMin= 1.27D-01
 ErrMax= 1.27D-01  0.00D+00 EMaxC= 1.00D-01 BMatC= 9.04D+00 BMatP= 6.15D+00
 IDIUse=2 WtCom= 0.00D+00 WtEn= 1.00D+00
 EnCoef did   100 forward-backward iterations
 Coeff-En:   0.535D+00 0.786D-02 0.457D+00
 Coeff:      0.535D+00 0.786D-02 0.457D+00
 Gap=    -0.054 Goal=   None    Shift=    0.000
 RMSDP=3.78D-02 MaxDP=1.60D+00 DE= 3.52D+00 OVMax= 6.85D-01

 Cycle   4  Pass 1  IDiag  1:
 RMSU=  3.36D-02    CP:  7.22D-03  1.40D-01  8.19D-01
 E= -3010.22270715241     Delta-E=      -11.132034321457 Rises=F Damp=F
 DIIS: error= 3.01D-02 at cycle   4 NSaved=   4.
 NSaved= 4 IEnMin= 4 EnMin= -3010.22270715241     IErMin= 4 ErrMin= 3.01D-02
 ErrMax= 3.01D-02  0.00D+00 EMaxC= 1.00D-01 BMatC= 4.13D-01 BMatP= 6.15D+00
 IDIUse=3 WtCom= 6.99D-01 WtEn= 3.01D-01
 Coeff-Com:  0.147D-01 0.111D+00 0.347D-02 0.871D+00
 Coeff-En:   0.000D+00 0.000D+00 0.000D+00 0.100D+01
 Coeff:      0.103D-01 0.778D-01 0.242D-02 0.909D+00
 Gap=     0.287 Goal=   None    Shift=    0.000
 RMSDP=5.66D-02 MaxDP=5.61D+00 DE=-1.11D+01 OVMax= 2.82D-01

 Cycle   5  Pass 1  IDiag  1:
 RMSU=  3.61D-02    CP:  5.90D-03  1.61D-01  3.91D-01  7.76D-01
 E= -3010.37144852547     Delta-E=       -0.148741373062 Rises=F Damp=F
 DIIS: error= 2.61D-02 at cycle   5 NSaved=   5.
 NSaved= 5 IEnMin= 5 EnMin= -3010.37144852547     IErMin= 5 ErrMin= 2.61D-02
 ErrMax= 2.61D-02  0.00D+00 EMaxC= 1.00D-01 BMatC= 2.36D-01 BMatP= 4.13D-01
 IDIUse=3 WtCom= 7.39D-01 WtEn= 2.61D-01
 Coeff-Com: -0.334D-02 0.368D-01-0.315D-02 0.433D+00 0.537D+00
 Coeff-En:   0.000D+00 0.000D+00 0.000D+00 0.338D+00 0.662D+00
 Coeff:     -0.247D-02 0.272D-01-0.233D-02 0.408D+00 0.570D+00
 Gap=     0.211 Goal=   None    Shift=    0.000
 RMSDP=1.95D-02 MaxDP=2.18D+00 DE=-1.49D-01 OVMax= 1.44D-01

 Cycle   6  Pass 1  IDiag  1:
 RMSU=  7.93D-03    CP:  5.14D-03  1.28D-01  3.84D-01  7.80D-01  7.47D-01
 E= -3010.54936797460     Delta-E=       -0.177919449131 Rises=F Damp=F
 DIIS: error= 1.98D-02 at cycle   6 NSaved=   6.
 NSaved= 6 IEnMin= 6 EnMin= -3010.54936797460     IErMin= 6 ErrMin= 1.98D-02
 ErrMax= 1.98D-02  0.00D+00 EMaxC= 1.00D-01 BMatC= 2.97D-02 BMatP= 2.36D-01
 IDIUse=3 WtCom= 8.02D-01 WtEn= 1.98D-01
 Coeff-Com: -0.457D-02 0.143D-01-0.266D-03 0.195D+00 0.315D+00 0.481D+00
 Coeff-En:   0.000D+00 0.000D+00 0.000D+00 0.000D+00 0.000D+00 0.100D+01
 Coeff:     -0.366D-02 0.115D-01-0.214D-03 0.156D+00 0.253D+00 0.584D+00
 Gap=     0.207 Goal=   None    Shift=    0.000
 RMSDP=4.54D-03 MaxDP=4.99D-01 DE=-1.78D-01 OVMax= 1.14D-01

 Cycle   7  Pass 1  IDiag  1:
 RMSU=  2.79D-03    CP:  5.30D-03  1.34D-01  3.81D-01  8.03D-01  7.65D-01
                    CP:  7.91D-01
 E= -3010.55787024421     Delta-E=       -0.008502269606 Rises=F Damp=F
 DIIS: error= 1.73D-02 at cycle   7 NSaved=   7.
 NSaved= 7 IEnMin= 7 EnMin= -3010.55787024421     IErMin= 7 ErrMin= 1.73D-02
 ErrMax= 1.73D-02  0.00D+00 EMaxC= 1.00D-01 BMatC= 1.75D-02 BMatP= 2.97D-02
 IDIUse=3 WtCom= 8.27D-01 WtEn= 1.73D-01
 Coeff-Com: -0.346D-02 0.331D-02 0.134D-02 0.360D-01 0.790D-01 0.431D+00
 Coeff-Com:  0.453D+00
 Coeff-En:   0.000D+00 0.000D+00 0.000D+00 0.000D+00 0.000D+00 0.398D+00
 Coeff-En:   0.602D+00
 Coeff:     -0.286D-02 0.274D-02 0.111D-02 0.297D-01 0.653D-01 0.425D+00
 Coeff:      0.479D+00
 Gap=     0.199 Goal=   None    Shift=    0.000
 RMSDP=4.74D-03 MaxDP=6.56D-01 DE=-8.50D-03 OVMax= 5.77D-02

 Cycle   8  Pass 1  IDiag  1:
 RMSU=  1.46D-03    CP:  5.07D-03  1.27D-01  3.72D-01  7.81D-01  7.66D-01
                    CP:  9.92D-01  5.22D-01
 E= -3010.57025581671     Delta-E=       -0.012385572505 Rises=F Damp=F
 DIIS: error= 2.16D-03 at cycle   8 NSaved=   8.
 NSaved= 8 IEnMin= 8 EnMin= -3010.57025581671     IErMin= 8 ErrMin= 2.16D-03
 ErrMax= 2.16D-03  0.00D+00 EMaxC= 1.00D-01 BMatC= 6.67D-04 BMatP= 1.75D-02
 IDIUse=3 WtCom= 9.78D-01 WtEn= 2.16D-02
 Coeff-Com: -0.235D-02 0.297D-02 0.976D-03-0.810D-02-0.115D-01 0.136D+00
 Coeff-Com:  0.243D+00 0.639D+00
 Coeff-En:   0.000D+00 0.000D+00 0.000D+00 0.000D+00 0.000D+00 0.000D+00
 Coeff-En:   0.000D+00 0.100D+01
 Coeff:     -0.230D-02 0.290D-02 0.955D-03-0.792D-02-0.112D-01 0.133D+00
 Coeff:      0.237D+00 0.647D+00
 Gap=     0.198 Goal=   None    Shift=    0.000
 RMSDP=8.47D-04 MaxDP=8.49D-02 DE=-1.24D-02 OVMax= 8.82D-03

 Cycle   9  Pass 1  IDiag  1:
 RMSU=  3.64D-04    CP:  5.04D-03  1.26D-01  3.73D-01  7.76D-01  7.54D-01
                    CP:  1.00D+00  5.89D-01  1.03D+00
 E= -3010.57087638130     Delta-E=       -0.000620564592 Rises=F Damp=F
 DIIS: error= 7.36D-04 at cycle   9 NSaved=   9.
 NSaved= 9 IEnMin= 9 EnMin= -3010.57087638130     IErMin= 9 ErrMin= 7.36D-04
 ErrMax= 7.36D-04  0.00D+00 EMaxC= 1.00D-01 BMatC= 9.26D-05 BMatP= 6.67D-04
 IDIUse=3 WtCom= 9.93D-01 WtEn= 7.36D-03
 Coeff-Com: -0.242D-02 0.348D-02-0.138D-03-0.801D-02-0.144D-01 0.137D-01
 Coeff-Com:  0.503D-01 0.271D+00 0.687D+00
 Coeff-En:   0.000D+00 0.000D+00 0.000D+00 0.000D+00 0.000D+00 0.000D+00
 Coeff-En:   0.000D+00 0.000D+00 0.100D+01
 Coeff:     -0.240D-02 0.345D-02-0.137D-03-0.795D-02-0.143D-01 0.136D-01
 Coeff:      0.499D-01 0.269D+00 0.689D+00
 Gap=     0.198 Goal=   None    Shift=    0.000
 RMSDP=5.69D-04 MaxDP=7.23D-02 DE=-6.21D-04 OVMax= 5.87D-03

 Cycle  10  Pass 1  IDiag  1:
 RMSU=  1.44D-04    CP:  5.02D-03  1.25D-01  3.73D-01  7.76D-01  7.53D-01
                    CP:  1.02D+00  5.84D-01  1.24D+00  1.05D+00
 E= -3010.57103225299     Delta-E=       -0.000155871689 Rises=F Damp=F
 DIIS: error= 2.91D-04 at cycle  10 NSaved=  10.
 NSaved=10 IEnMin=10 EnMin= -3010.57103225299     IErMin=10 ErrMin= 2.91D-04
 ErrMax= 2.91D-04  0.00D+00 EMaxC= 1.00D-01 BMatC= 1.97D-05 BMatP= 9.26D-05
 IDIUse=3 WtCom= 9.97D-01 WtEn= 2.91D-03
 Coeff-Com: -0.792D-03 0.107D-02 0.257D-03-0.139D-03-0.304D-03-0.205D-01
 Coeff-Com: -0.397D-01-0.127D+00 0.275D-01 0.116D+01
 Coeff-En:   0.000D+00 0.000D+00 0.000D+00 0.000D+00 0.000D+00 0.000D+00
 Coeff-En:   0.000D+00 0.000D+00 0.000D+00 0.100D+01
 Coeff:     -0.790D-03 0.107D-02 0.256D-03-0.138D-03-0.304D-03-0.204D-01
 Coeff:     -0.396D-01-0.126D+00 0.274D-01 0.116D+01
 Gap=     0.200 Goal=   None    Shift=    0.000
 RMSDP=6.75D-04 MaxDP=7.61D-02 DE=-1.56D-04 OVMax= 7.71D-03

 Cycle  11  Pass 1  IDiag  1:
 RMSU=  1.10D-04    CP:  4.99D-03  1.24D-01  3.75D-01  7.76D-01  7.46D-01
                    CP:  1.03D+00  5.72D-01  1.41D+00  1.39D+00  1.93D+00
 E= -3010.57112251681     Delta-E=       -0.000090263815 Rises=F Damp=F
 DIIS: error= 1.48D-04 at cycle  11 NSaved=  11.
 NSaved=11 IEnMin=11 EnMin= -3010.57112251681     IErMin=11 ErrMin= 1.48D-04
 ErrMax= 1.48D-04  0.00D+00 EMaxC= 1.00D-01 BMatC= 5.83D-06 BMatP= 1.97D-05
 IDIUse=3 WtCom= 9.99D-01 WtEn= 1.48D-03
 Coeff-Com: -0.236D-03 0.271D-03 0.203D-03 0.113D-02 0.235D-02-0.579D-02
 Coeff-Com: -0.129D-01-0.823D-01-0.167D+00 0.242D+00 0.102D+01
 Coeff-En:   0.000D+00 0.000D+00 0.000D+00 0.000D+00 0.000D+00 0.000D+00
 Coeff-En:   0.000D+00 0.000D+00 0.000D+00 0.000D+00 0.100D+01
 Coeff:     -0.236D-03 0.270D-03 0.202D-03 0.113D-02 0.235D-02-0.578D-02
 Coeff:     -0.129D-01-0.822D-01-0.166D+00 0.242D+00 0.102D+01
 Gap=     0.200 Goal=   None    Shift=    0.000
 RMSDP=2.76D-04 MaxDP=2.59D-02 DE=-9.03D-05 OVMax= 4.97D-03

 Cycle  12  Pass 1  IDiag  1:
 RMSU=  6.06D-05    CP:  4.98D-03  1.24D-01  3.76D-01  7.75D-01  7.43D-01
                    CP:  1.03D+00  5.67D-01  1.49D+00  1.54D+00  2.58D+00
                    CP:  1.43D+00
 E= -3010.57115086393     Delta-E=       -0.000028347116 Rises=F Damp=F
 DIIS: error= 7.91D-05 at cycle  12 NSaved=  12.
 NSaved=12 IEnMin=12 EnMin= -3010.57115086393     IErMin=12 ErrMin= 7.91D-05
 ErrMax= 7.91D-05  0.00D+00 EMaxC= 1.00D-01 BMatC= 1.37D-06 BMatP= 5.83D-06
 IDIUse=1 WtCom= 1.00D+00 WtEn= 0.00D+00
 Coeff-Com:  0.235D-04-0.826D-05 0.118D-03 0.375D-03 0.123D-02 0.266D-02
 Coeff-Com:  0.440D-02-0.138D-01-0.731D-01-0.156D+00 0.373D+00 0.861D+00
 Coeff:      0.235D-04-0.826D-05 0.118D-03 0.375D-03 0.123D-02 0.266D-02
 Coeff:      0.440D-02-0.138D-01-0.731D-01-0.156D+00 0.373D+00 0.861D+00
 Gap=     0.200 Goal=   None    Shift=    0.000
 RMSDP=1.78D-04 MaxDP=1.92D-02 DE=-2.83D-05 OVMax= 2.80D-03

 Cycle  13  Pass 1  IDiag  1:
 RMSU=  2.03D-05    CP:  4.98D-03  1.24D-01  3.76D-01  7.75D-01  7.42D-01
                    CP:  1.03D+00  5.64D-01  1.52D+00  1.62D+00  2.94D+00
                    CP:  1.89D+00  1.39D+00
 E= -3010.57115896356     Delta-E=       -0.000008099631 Rises=F Damp=F
 DIIS: error= 3.44D-05 at cycle  13 NSaved=  13.
 NSaved=13 IEnMin=13 EnMin= -3010.57115896356     IErMin=13 ErrMin= 3.44D-05
 ErrMax= 3.44D-05  0.00D+00 EMaxC= 1.00D-01 BMatC= 2.78D-07 BMatP= 1.37D-06
 IDIUse=1 WtCom= 1.00D+00 WtEn= 0.00D+00
 Coeff-Com:  0.144D-04-0.176D-04-0.385D-04-0.215D-03 0.470D-05 0.257D-02
 Coeff-Com:  0.533D-02 0.143D-01 0.248D-01-0.103D+00-0.150D+00 0.239D+00
 Coeff-Com:  0.968D+00
 Coeff:      0.144D-04-0.176D-04-0.385D-04-0.215D-03 0.470D-05 0.257D-02
 Coeff:      0.533D-02 0.143D-01 0.248D-01-0.103D+00-0.150D+00 0.239D+00
 Coeff:      0.968D+00
 Gap=     0.200 Goal=   None    Shift=    0.000
 RMSDP=6.82D-05 MaxDP=4.59D-03 DE=-8.10D-06 OVMax= 1.56D-03

 Cycle  14  Pass 1  IDiag  1:
 RMSU=  2.14D-05    CP:  4.98D-03  1.24D-01  3.77D-01  7.75D-01  7.41D-01
                    CP:  1.03D+00  5.62D-01  1.53D+00  1.64D+00  3.00D+00
                    CP:  2.18D+00  1.81D+00  1.42D+00
 E= -3010.57116159354     Delta-E=       -0.000002629987 Rises=F Damp=F
 DIIS: error= 2.15D-05 at cycle  14 NSaved=  14.
 NSaved=14 IEnMin=14 EnMin= -3010.57116159354     IErMin=14 ErrMin= 2.15D-05
 ErrMax= 2.15D-05  0.00D+00 EMaxC= 1.00D-01 BMatC= 1.06D-07 BMatP= 2.78D-07
 IDIUse=1 WtCom= 1.00D+00 WtEn= 0.00D+00
 Coeff-Com:  0.385D-04-0.533D-04-0.352D-04-0.105D-03-0.286D-03-0.230D-03
 Coeff-Com:  0.850D-03 0.102D-01 0.271D-01-0.224D-02-0.119D+00-0.653D-01
 Coeff-Com:  0.240D+00 0.909D+00
 Coeff:      0.385D-04-0.533D-04-0.352D-04-0.105D-03-0.286D-03-0.230D-03
 Coeff:      0.850D-03 0.102D-01 0.271D-01-0.224D-02-0.119D+00-0.653D-01
 Coeff:      0.240D+00 0.909D+00
 Gap=     0.200 Goal=   None    Shift=    0.000
 RMSDP=2.53D-05 MaxDP=1.75D-03 DE=-2.63D-06 OVMax= 7.89D-04

 Cycle  15  Pass 1  IDiag  1:
 RMSU=  6.74D-06    CP:  4.98D-03  1.24D-01  3.77D-01  7.75D-01  7.41D-01
                    CP:  1.03D+00  5.61D-01  1.53D+00  1.65D+00  3.00D+00
                    CP:  2.31D+00  1.96D+00  1.74D+00  1.42D+00
 E= -3010.57116235964     Delta-E=       -0.000000766098 Rises=F Damp=F
 DIIS: error= 1.25D-05 at cycle  15 NSaved=  15.
 NSaved=15 IEnMin=15 EnMin= -3010.57116235964     IErMin=15 ErrMin= 1.25D-05
 ErrMax= 1.25D-05  0.00D+00 EMaxC= 1.00D-01 BMatC= 5.47D-08 BMatP= 1.06D-07
 IDIUse=1 WtCom= 1.00D+00 WtEn= 0.00D+00
 Coeff-Com:  0.389D-04-0.520D-04-0.182D-04 0.328D-04-0.173D-03-0.128D-02
 Coeff-Com: -0.151D-02-0.191D-03 0.102D-02 0.314D-01 0.135D-01-0.552D-01
 Coeff-Com: -0.303D+00 0.241D+00 0.107D+01
 Coeff:      0.389D-04-0.520D-04-0.182D-04 0.328D-04-0.173D-03-0.128D-02
 Coeff:     -0.151D-02-0.191D-03 0.102D-02 0.314D-01 0.135D-01-0.552D-01
 Coeff:     -0.303D+00 0.241D+00 0.107D+01
 Gap=     0.200 Goal=   None    Shift=    0.000
 RMSDP=2.01D-05 MaxDP=1.47D-03 DE=-7.66D-07 OVMax= 7.04D-04

 Cycle  16  Pass 1  IDiag  1:
 RMSU=  4.36D-06    CP:  4.98D-03  1.24D-01  3.77D-01  7.75D-01  7.41D-01
                    CP:  1.03D+00  5.60D-01  1.54D+00  1.66D+00  3.00D+00
                    CP:  2.40D+00  2.10D+00  1.90D+00  1.81D+00  1.65D+00
 E= -3010.57116277208     Delta-E=       -0.000000412436 Rises=F Damp=F
 DIIS: error= 7.22D-06 at cycle  16 NSaved=  16.
 NSaved=16 IEnMin=16 EnMin= -3010.57116277208     IErMin=16 ErrMin= 7.22D-06
 ErrMax= 7.22D-06  0.00D+00 EMaxC= 1.00D-01 BMatC= 1.59D-08 BMatP= 5.47D-08
 IDIUse=1 WtCom= 1.00D+00 WtEn= 0.00D+00
 Coeff-Com:  0.861D-05-0.122D-04-0.713D-05 0.977D-05 0.215D-04 0.366D-03
 Coeff-Com:  0.477D-03-0.192D-02-0.957D-02-0.195D-01 0.347D-01 0.790D-01
 Coeff-Com: -0.551D-01-0.463D+00-0.754D-01 0.151D+01
 Coeff:      0.861D-05-0.122D-04-0.713D-05 0.977D-05 0.215D-04 0.366D-03
 Coeff:      0.477D-03-0.192D-02-0.957D-02-0.195D-01 0.347D-01 0.790D-01
 Coeff:     -0.551D-01-0.463D+00-0.754D-01 0.151D+01
 Gap=     0.200 Goal=   None    Shift=    0.000
 RMSDP=2.16D-05 MaxDP=1.35D-03 DE=-4.12D-07 OVMax= 7.47D-04

 Cycle  17  Pass 1  IDiag  1:
 RMSU=  3.71D-06    CP:  4.97D-03  1.24D-01  3.77D-01  7.75D-01  7.41D-01
                    CP:  1.03D+00  5.59D-01  1.55D+00  1.66D+00  3.00D+00
                    CP:  2.48D+00  2.22D+00  2.08D+00  2.20D+00  2.22D+00
                    CP:  1.47D+00
 E= -3010.57116297730     Delta-E=       -0.000000205227 Rises=F Damp=F
 DIIS: error= 3.53D-06 at cycle  17 NSaved=  17.
 NSaved=17 IEnMin=17 EnMin= -3010.57116297730     IErMin=17 ErrMin= 3.53D-06
 ErrMax= 3.53D-06  0.00D+00 EMaxC= 1.00D-01 BMatC= 1.70D-09 BMatP= 1.59D-08
 IDIUse=1 WtCom= 1.00D+00 WtEn= 0.00D+00
 Coeff-Com: -0.775D-06 0.112D-05 0.359D-07-0.772D-05 0.812D-05 0.352D-03
 Coeff-Com:  0.429D-03-0.294D-03-0.235D-02-0.113D-01 0.210D-02 0.274D-01
 Coeff-Com:  0.399D-01-0.143D+00-0.178D+00 0.342D+00 0.923D+00
 Coeff:     -0.775D-06 0.112D-05 0.359D-07-0.772D-05 0.812D-05 0.352D-03
 Coeff:      0.429D-03-0.294D-03-0.235D-02-0.113D-01 0.210D-02 0.274D-01
 Coeff:      0.399D-01-0.143D+00-0.178D+00 0.342D+00 0.923D+00
 Gap=     0.200 Goal=   None    Shift=    0.000
 RMSDP=7.27D-06 MaxDP=6.72D-04 DE=-2.05D-07 OVMax= 2.19D-04

 Cycle  18  Pass 1  IDiag  1:
 RMSU=  1.08D-06    CP:  4.97D-03  1.24D-01  3.77D-01  7.75D-01  7.41D-01
                    CP:  1.03D+00  5.58D-01  1.55D+00  1.67D+00  3.00D+00
                    CP:  2.51D+00  2.26D+00  2.13D+00  2.30D+00  2.39D+00
                    CP:  1.47D+00  1.37D+00
 E= -3010.57116299496     Delta-E=       -0.000000017651 Rises=F Damp=F
 DIIS: error= 1.62D-06 at cycle  18 NSaved=  18.
 NSaved=18 IEnMin=18 EnMin= -3010.57116299496     IErMin=18 ErrMin= 1.62D-06
 ErrMax= 1.62D-06  0.00D+00 EMaxC= 1.00D-01 BMatC= 6.19D-10 BMatP= 1.70D-09
 IDIUse=1 WtCom= 1.00D+00 WtEn= 0.00D+00
 Coeff-Com: -0.836D-06 0.141D-05 0.743D-06-0.231D-05-0.269D-05 0.599D-04
 Coeff-Com:  0.117D-04 0.117D-03 0.463D-03-0.426D-03-0.633D-02-0.541D-02
 Coeff-Com:  0.141D-01 0.330D-01-0.961D-02-0.121D+00 0.262D+00 0.833D+00
 Coeff:     -0.836D-06 0.141D-05 0.743D-06-0.231D-05-0.269D-05 0.599D-04
 Coeff:      0.117D-04 0.117D-03 0.463D-03-0.426D-03-0.633D-02-0.541D-02
 Coeff:      0.141D-01 0.330D-01-0.961D-02-0.121D+00 0.262D+00 0.833D+00
 Gap=     0.200 Goal=   None    Shift=    0.000
 RMSDP=2.49D-06 MaxDP=2.79D-04 DE=-1.77D-08 OVMax= 5.32D-05

 Cycle  19  Pass 1  IDiag  1:
 RMSU=  4.91D-07    CP:  4.97D-03  1.24D-01  3.77D-01  7.75D-01  7.41D-01
                    CP:  1.03D+00  5.58D-01  1.55D+00  1.67D+00  3.00D+00
                    CP:  2.51D+00  2.26D+00  2.13D+00  2.32D+00  2.38D+00
                    CP:  1.39D+00  1.56D+00  1.36D+00
 E= -3010.57116299683     Delta-E=       -0.000000001877 Rises=F Damp=F
 DIIS: error= 1.18D-06 at cycle  19 NSaved=  19.
 NSaved=19 IEnMin=19 EnMin= -3010.57116299683     IErMin=19 ErrMin= 1.18D-06
 ErrMax= 1.18D-06  0.00D+00 EMaxC= 1.00D-01 BMatC= 1.43D-10 BMatP= 6.19D-10
 IDIUse=1 WtCom= 1.00D+00 WtEn= 0.00D+00
 Coeff-Com: -0.105D-05 0.138D-05 0.898D-06 0.399D-05 0.158D-05-0.434D-04
 Coeff-Com: -0.119D-03-0.367D-04 0.162D-03 0.233D-02-0.401D-03-0.589D-02
 Coeff-Com: -0.115D-01 0.295D-01 0.407D-01-0.779D-01-0.104D+00 0.204D+00
 Coeff-Com:  0.924D+00
 Coeff:     -0.105D-05 0.138D-05 0.898D-06 0.399D-05 0.158D-05-0.434D-04
 Coeff:     -0.119D-03-0.367D-04 0.162D-03 0.233D-02-0.401D-03-0.589D-02
 Coeff:     -0.115D-01 0.295D-01 0.407D-01-0.779D-01-0.104D+00 0.204D+00
 Coeff:      0.924D+00
 Gap=     0.200 Goal=   None    Shift=    0.000
 RMSDP=8.53D-07 MaxDP=6.90D-05 DE=-1.88D-09 OVMax= 2.57D-05

 Cycle  20  Pass 1  IDiag  1:
 RMSU=  3.00D-07    CP:  4.97D-03  1.24D-01  3.77D-01  7.75D-01  7.41D-01
                    CP:  1.03D+00  5.58D-01  1.55D+00  1.67D+00  3.00D+00
                    CP:  2.51D+00  2.26D+00  2.14D+00  2.31D+00  2.40D+00
                    CP:  1.40D+00  1.62D+00  1.48D+00  1.61D+00
 E= -3010.57116299751     Delta-E=       -0.000000000681 Rises=F Damp=F
 DIIS: error= 8.22D-07 at cycle  20 NSaved=  20.
 NSaved=20 IEnMin=20 EnMin= -3010.57116299751     IErMin=20 ErrMin= 8.22D-07
 ErrMax= 8.22D-07  0.00D+00 EMaxC= 1.00D-01 BMatC= 4.87D-11 BMatP= 1.43D-10
 IDIUse=1 WtCom= 1.00D+00 WtEn= 0.00D+00
 Coeff-Com: -0.229D-06 0.261D-06 0.930D-07 0.517D-06 0.495D-05 0.605D-05
 Coeff-Com: -0.208D-04-0.156D-03-0.438D-03-0.173D-03 0.258D-02 0.320D-02
 Coeff-Com: -0.331D-02-0.234D-01-0.865D-02 0.796D-01-0.537D-01-0.342D+00
 Coeff-Com: -0.127D+00 0.147D+01
 Coeff:     -0.229D-06 0.261D-06 0.930D-07 0.517D-06 0.495D-05 0.605D-05
 Coeff:     -0.208D-04-0.156D-03-0.438D-03-0.173D-03 0.258D-02 0.320D-02
 Coeff:     -0.331D-02-0.234D-01-0.865D-02 0.796D-01-0.537D-01-0.342D+00
 Coeff:     -0.127D+00 0.147D+01
 Gap=     0.200 Goal=   None    Shift=    0.000
 RMSDP=9.73D-07 MaxDP=9.67D-05 DE=-6.81D-10 OVMax= 2.56D-05

 Cycle  21  Pass 1  IDiag  1:
 Restarting incremental Fock formation.
 E= -3010.57116299792     Delta-E=       -0.000000000403 Rises=F Damp=F
 DIIS: error= 2.37D-07 at cycle  21 NSaved=  20.
 NSaved=20 IEnMin=20 EnMin= -3010.57116299792     IErMin=20 ErrMin= 2.37D-07
 ErrMax= 2.37D-07  0.00D+00 EMaxC= 1.00D-01 BMatC= 4.94D-12 BMatP= 4.87D-11
 IDIUse=1 WtCom= 1.00D+00 WtEn= 0.00D+00
 Coeff-Com:  0.426D-07-0.707D-07-0.458D-06 0.621D-06 0.110D-04 0.135D-04
 Coeff-Com: -0.115D-04-0.976D-04-0.424D-03 0.535D-03 0.130D-02 0.210D-02
 Coeff-Com: -0.972D-02-0.999D-02 0.242D-01 0.191D-01-0.393D-01-0.197D+00
 Coeff-Com:  0.856D-01 0.112D+01
 Coeff:      0.426D-07-0.707D-07-0.458D-06 0.621D-06 0.110D-04 0.135D-04
 Coeff:     -0.115D-04-0.976D-04-0.424D-03 0.535D-03 0.130D-02 0.210D-02
 Coeff:     -0.972D-02-0.999D-02 0.242D-01 0.191D-01-0.393D-01-0.197D+00
 Coeff:      0.856D-01 0.112D+01
 Gap=     0.200 Goal=   None    Shift=    0.000
 RMSDP=3.55D-07 MaxDP=3.10D-05 DE=-4.03D-10 OVMax= 9.94D-06

 Cycle  22  Pass 1  IDiag  1:
 RMSU=  3.55D-07    CP:  1.00D+00
 E= -3010.57116299795     Delta-E=       -0.000000000034 Rises=F Damp=F
 DIIS: error= 7.16D-08 at cycle  22 NSaved=  20.
 NSaved=20 IEnMin=20 EnMin= -3010.57116299795     IErMin=20 ErrMin= 7.16D-08
 ErrMax= 7.16D-08  0.00D+00 EMaxC= 1.00D-01 BMatC= 7.03D-13 BMatP= 4.94D-12
 IDIUse=1 WtCom= 1.00D+00 WtEn= 0.00D+00
 Coeff-Com:  0.325D-08 0.603D-07-0.204D-06-0.845D-07 0.612D-06 0.254D-04
 Coeff-Com:  0.293D-04-0.471D-05-0.170D-03-0.291D-03 0.647D-03 0.246D-02
 Coeff-Com:  0.378D-03-0.940D-02 0.217D-02 0.409D-01 0.759D-02-0.150D+00
 Coeff-Com:  0.462D-01 0.106D+01
 Coeff:      0.325D-08 0.603D-07-0.204D-06-0.845D-07 0.612D-06 0.254D-04
 Coeff:      0.293D-04-0.471D-05-0.170D-03-0.291D-03 0.647D-03 0.246D-02
 Coeff:      0.378D-03-0.940D-02 0.217D-02 0.409D-01 0.759D-02-0.150D+00
 Coeff:      0.462D-01 0.106D+01
 Gap=     0.200 Goal=   None    Shift=    0.000
 RMSDP=1.45D-07 MaxDP=1.16D-05 DE=-3.37D-11 OVMax= 2.75D-06

 Cycle  23  Pass 1  IDiag  1:
 RMSU=  7.77D-08    CP:  1.00D+00  1.34D+00
 E= -3010.57116299793     Delta-E=        0.000000000025 Rises=F Damp=F
 DIIS: error= 2.54D-08 at cycle  23 NSaved=  20.
 NSaved=20 IEnMin=19 EnMin= -3010.57116299795     IErMin=20 ErrMin= 2.54D-08
 ErrMax= 2.54D-08  0.00D+00 EMaxC= 1.00D-01 BMatC= 1.78D-13 BMatP= 7.03D-13
 IDIUse=1 WtCom= 1.00D+00 WtEn= 0.00D+00
 Coeff-Com: -0.368D-07-0.265D-06-0.143D-05-0.255D-05 0.104D-04 0.261D-04
 Coeff-Com:  0.828D-04-0.151D-03-0.341D-03-0.454D-04 0.218D-02 0.129D-02
 Coeff-Com: -0.632D-02-0.174D-02 0.213D-01 0.342D-01-0.628D-01-0.162D+00
 Coeff-Com:  0.325D+00 0.849D+00
 Coeff:     -0.368D-07-0.265D-06-0.143D-05-0.255D-05 0.104D-04 0.261D-04
 Coeff:      0.828D-04-0.151D-03-0.341D-03-0.454D-04 0.218D-02 0.129D-02
 Coeff:     -0.632D-02-0.174D-02 0.213D-01 0.342D-01-0.628D-01-0.162D+00
 Coeff:      0.325D+00 0.849D+00
 Gap=     0.200 Goal=   None    Shift=    0.000
 RMSDP=4.29D-08 MaxDP=3.28D-06 DE= 2.50D-11 OVMax= 8.61D-07

 Cycle  24  Pass 1  IDiag  1:
 RMSU=  1.77D-08    CP:  1.00D+00  1.42D+00  1.28D+00
 E= -3010.57116299793     Delta-E=       -0.000000000002 Rises=F Damp=F
 DIIS: error= 1.57D-08 at cycle  24 NSaved=  20.
 NSaved=20 IEnMin=18 EnMin= -3010.57116299795     IErMin=20 ErrMin= 1.57D-08
 ErrMax= 1.57D-08  0.00D+00 EMaxC= 1.00D-01 BMatC= 3.61D-14 BMatP= 1.78D-13
 IDIUse=1 WtCom= 1.00D+00 WtEn= 0.00D+00
 Coeff-Com:  0.163D-07-0.222D-06-0.417D-06-0.290D-05-0.313D-05 0.765D-06
 Coeff-Com:  0.267D-04 0.584D-04-0.186D-03-0.355D-03 0.835D-04 0.190D-02
 Coeff-Com: -0.173D-02-0.107D-01 0.978D-03 0.384D-01-0.211D-01-0.300D+00
 Coeff-Com:  0.119D+00 0.117D+01
 Coeff:      0.163D-07-0.222D-06-0.417D-06-0.290D-05-0.313D-05 0.765D-06
 Coeff:      0.267D-04 0.584D-04-0.186D-03-0.355D-03 0.835D-04 0.190D-02
 Coeff:     -0.173D-02-0.107D-01 0.978D-03 0.384D-01-0.211D-01-0.300D+00
 Coeff:      0.119D+00 0.117D+01
 Gap=     0.200 Goal=   None    Shift=    0.000
 RMSDP=3.39D-08 MaxDP=2.19D-06 DE=-2.27D-12 OVMax= 7.52D-07

 Cycle  25  Pass 1  IDiag  1:
 RMSU=  1.14D-08    CP:  1.00D+00  1.48D+00  1.57D+00  1.36D+00
 E= -3010.57116299798     Delta-E=       -0.000000000048 Rises=F Damp=F
 DIIS: error= 7.86D-09 at cycle  25 NSaved=  20.
 NSaved=20 IEnMin=20 EnMin= -3010.57116299798     IErMin=20 ErrMin= 7.86D-09
 ErrMax= 7.86D-09  0.00D+00 EMaxC= 1.00D-01 BMatC= 5.85D-15 BMatP= 3.61D-14
 IDIUse=1 WtCom= 1.00D+00 WtEn= 0.00D+00
 Large coefficients: NSaved= 20 BigCof=    0.00 CofMax=   10.00 Det=-7.23D-15
 Inversion failed.  Reducing to 19 matrices.
 Large coefficients: NSaved= 19 BigCof=    0.00 CofMax=   10.00 Det=-7.33D-15
 Inversion failed.  Reducing to 18 matrices.
 Large coefficients: NSaved= 18 BigCof=    0.00 CofMax=   10.00 Det=-7.33D-15
 Inversion failed.  Reducing to 17 matrices.
 Large coefficients: NSaved= 17 BigCof=    0.00 CofMax=   10.00 Det=-7.43D-15
 Inversion failed.  Reducing to 16 matrices.
 Large coefficients: NSaved= 16 BigCof=    0.00 CofMax=   10.00 Det=-7.44D-15
 Inversion failed.  Reducing to 15 matrices.
 Coeff-Com: -0.297D-05-0.471D-05-0.249D-04-0.638D-05 0.809D-04 0.100D-03
 Coeff-Com: -0.117D-03-0.834D-03-0.601D-03 0.137D-02 0.124D-01-0.544D-02
 Coeff-Com: -0.106D+00-0.707D-01 0.117D+01
 Coeff:     -0.297D-05-0.471D-05-0.249D-04-0.638D-05 0.809D-04 0.100D-03
 Coeff:     -0.117D-03-0.834D-03-0.601D-03 0.137D-02 0.124D-01-0.544D-02
 Coeff:     -0.106D+00-0.707D-01 0.117D+01
 Gap=     0.200 Goal=   None    Shift=    0.000
 RMSDP=1.07D-08 MaxDP=9.77D-07 DE=-4.82D-11 OVMax= 2.93D-07

 Cycle  26  Pass 1  IDiag  1:
 RMSU=  5.36D-09    CP:  1.00D+00  1.47D+00  1.57D+00  1.56D+00  1.51D+00
 E= -3010.57116299797     Delta-E=        0.000000000005 Rises=F Damp=F
 DIIS: error= 5.28D-09 at cycle  26 NSaved=  16.
 NSaved=16 IEnMin=15 EnMin= -3010.57116299798     IErMin=16 ErrMin= 5.28D-09
 ErrMax= 5.28D-09  0.00D+00 EMaxC= 1.00D-01 BMatC= 3.20D-15 BMatP= 5.85D-15
 IDIUse=1 WtCom= 1.00D+00 WtEn= 0.00D+00
 Large coefficients: NSaved= 16 BigCof=    0.00 CofMax=   10.00 Det=-3.96D-15
 Inversion failed.  Reducing to 15 matrices.
 Coeff-Com: -0.299D-06 0.147D-04-0.340D-05-0.155D-04-0.896D-04 0.402D-03
 Coeff-Com:  0.723D-03-0.198D-02-0.640D-02 0.135D-01 0.395D-01-0.967D-01
 Coeff-Com: -0.263D+00 0.492D+00 0.822D+00
 Coeff:     -0.299D-06 0.147D-04-0.340D-05-0.155D-04-0.896D-04 0.402D-03
 Coeff:      0.723D-03-0.198D-02-0.640D-02 0.135D-01 0.395D-01-0.967D-01
 Coeff:     -0.263D+00 0.492D+00 0.822D+00
 Gap=     0.200 Goal=   None    Shift=    0.000
 RMSDP=6.29D-09 MaxDP=3.93D-07 DE= 5.00D-12 OVMax= 2.52D-07

 SCF Done:  E(RwB97XD) =  -3010.57116300     A.U. after   26 cycles
            NFock= 26  Conv=0.63D-08     -V/T= 2.0016
 KE= 3.005821187670D+03 PE=-8.690799116830D+03 EE= 1.909406299454D+03
 Leave Link  502 at Thu May  2 14:24:55 2024, MaxMem=   134217728 cpu:            1578.4 elap:            1583.0
 (Enter /software/gaussian/g16-c01/sse4/g16/l601.exe)
 Copying SCF densities to generalized density rwf, IOpCl= 0 IROHF=0.

 **********************************************************************

            Population analysis using the SCF Density.

 **********************************************************************

 Alpha  occ. eigenvalues -- -483.24886 -62.79884 -56.59592 -56.59009 -56.58989
 Alpha  occ. eigenvalues --  -19.34961 -19.34824 -14.74557 -10.52722 -10.52213
 Alpha  occ. eigenvalues --  -10.51903 -10.51516 -10.48747 -10.46543  -8.95671
 Alpha  occ. eigenvalues --   -6.78386  -6.76475  -6.76412  -2.88281  -2.87787
 Alpha  occ. eigenvalues --   -2.87736  -2.86208  -2.86206  -1.38651  -1.21473
 Alpha  occ. eigenvalues --   -1.16457  -1.07076  -1.05979  -0.98416  -0.93106
 Alpha  occ. eigenvalues --   -0.89625  -0.84380  -0.78442  -0.74190  -0.72722
 Alpha  occ. eigenvalues --   -0.71163  -0.70414  -0.69087  -0.65950  -0.64820
 Alpha  occ. eigenvalues --   -0.63293  -0.61486  -0.57922  -0.53415  -0.49643
 Alpha  occ. eigenvalues --   -0.48800  -0.45727  -0.44206  -0.44075
 Alpha virt. eigenvalues --   -0.24084  -0.13029  -0.11854  -0.09125  -0.07522
 Alpha virt. eigenvalues --   -0.05218  -0.04928  -0.03005  -0.01092  -0.00118
 Alpha virt. eigenvalues --    0.01042   0.01715   0.03288   0.04039   0.05385
 Alpha virt. eigenvalues --    0.05474   0.06996   0.07182   0.07243   0.08390
 Alpha virt. eigenvalues --    0.09136   0.09968   0.10611   0.11390   0.11759
 Alpha virt. eigenvalues --    0.12882   0.13367   0.13618   0.14660   0.15795
 Alpha virt. eigenvalues --    0.16025   0.16501   0.17479   0.18219   0.18729
 Alpha virt. eigenvalues --    0.20546   0.21159   0.21636   0.22837   0.23718
 Alpha virt. eigenvalues --    0.24863   0.25208   0.26583   0.26890   0.27696
 Alpha virt. eigenvalues --    0.28909   0.31528   0.32043   0.32967   0.34663
 Alpha virt. eigenvalues --    0.35732   0.37398   0.37948   0.38111   0.40110
 Alpha virt. eigenvalues --    0.40195   0.41078   0.42763   0.43253   0.44193
 Alpha virt. eigenvalues --    0.44965   0.46192   0.47463   0.47857   0.48567
 Alpha virt. eigenvalues --    0.49360   0.51186   0.51979   0.52954   0.54948
 Alpha virt. eigenvalues --    0.56250   0.56913   0.58415   0.59621   0.60203
 Alpha virt. eigenvalues --    0.61605   0.62704   0.64462   0.65472   0.65804
 Alpha virt. eigenvalues --    0.67542   0.69440   0.71577   0.71718   0.74108
 Alpha virt. eigenvalues --    0.74855   0.76033   0.77694   0.79639   0.80823
 Alpha virt. eigenvalues --    0.83448   0.85034   0.88145   0.90339   0.91646
 Alpha virt. eigenvalues --    0.93762   0.96607   0.99758   1.02013   1.07319
 Alpha virt. eigenvalues --    1.09018   1.10680   1.11023   1.13166   1.15104
 Alpha virt. eigenvalues --    1.18889   1.22744   1.23848   1.25006   1.28869
 Alpha virt. eigenvalues --    1.31139   1.33788   1.35735   1.39843   1.42441
 Alpha virt. eigenvalues --    1.42854   1.45708   1.49384   1.61633   1.62812
 Alpha virt. eigenvalues --    1.65572   1.66473   1.69737   1.71286   1.71866
 Alpha virt. eigenvalues --    1.77384   1.77855   1.80389   1.83992   1.85937
 Alpha virt. eigenvalues --    1.87721   1.92845   1.94888   2.01817   2.03098
 Alpha virt. eigenvalues --    2.06054   2.09644   2.10044   2.14771   2.15223
 Alpha virt. eigenvalues --    2.19197   2.20722   2.27958   2.30484   2.33414
 Alpha virt. eigenvalues --    2.39163   2.47436   2.50303   2.51964   2.58671
 Alpha virt. eigenvalues --    2.63983   2.69525   2.71721   2.74665   2.80956
 Alpha virt. eigenvalues --    2.83431   2.86828   2.87101   2.88056   2.92432
 Alpha virt. eigenvalues --    2.99461   3.05881   3.11119   3.13274   3.15245
 Alpha virt. eigenvalues --    3.19895   3.21149   3.24413   3.32278   3.34824
 Alpha virt. eigenvalues --    3.38478   3.46330   3.51505   3.57398   3.64558
 Alpha virt. eigenvalues --    3.66651   3.80117   3.85310   3.89720   3.93630
 Alpha virt. eigenvalues --    4.16531   4.17386   4.25961   4.30057   4.49931
 Alpha virt. eigenvalues --    4.56679   4.60875   4.69846   5.05388   5.08308
 Alpha virt. eigenvalues --    5.17133   5.21613   5.73372   6.26877   6.74526
 Alpha virt. eigenvalues --    7.55416   7.57727   7.67780  23.27800  23.67182
 Alpha virt. eigenvalues --   23.78345  23.83393  24.00452  24.08674  35.42591
 Alpha virt. eigenvalues --   48.00490  49.96619  50.05281 289.88103 289.90437
 Alpha virt. eigenvalues --  290.030501021.01632
          Condensed to atoms (all electrons):
               1          2          3          4          5          6
     1  C    9.815443  -3.683927   1.439388  -0.551993   0.289620   0.075062
     2  C   -3.683927  20.473720  -5.985349   0.243142   0.024901   0.137747
     3  C    1.439388  -5.985349  24.359442  -1.871138   0.032434   0.125166
     4  C   -0.551993   0.243142  -1.871138   7.298184  -0.011901  -0.009573
     5  H    0.289620   0.024901   0.032434  -0.011901   0.381240  -0.001680
     6  H    0.075062   0.137747   0.125166  -0.009573  -0.001680   0.291002
     7  H    0.054775  -0.053442   0.038919   0.281195  -0.004373  -0.000010
     8  N   -0.244727   0.146167  -2.000892   0.060559  -0.000433  -0.031361
     9  O   -0.025851   0.235465  -0.035732  -0.039066  -0.000045  -0.002860
    10  O    0.390157  -0.230164  -0.226963  -0.027878   0.000110   0.029737
    11  C    1.478175  -0.360142   3.375231  -1.073298  -0.032748   0.007452
    12  H   -0.014745   0.001981   0.043952  -0.006439  -0.000003  -0.000016
    13  C   -2.905748  -4.899403 -13.119729   2.005584   0.026711   0.005926
    14  H   -0.005717  -0.011813  -0.054918   0.004581  -0.000031   0.000005
    15  Br  -0.013361  -0.188293  -0.155997   0.000992  -0.000077  -0.000307
               7          8          9         10         11         12
     1  C    0.054775  -0.244727  -0.025851   0.390157   1.478175  -0.014745
     2  C   -0.053442   0.146167   0.235465  -0.230164  -0.360142   0.001981
     3  C    0.038919  -2.000892  -0.035732  -0.226963   3.375231   0.043952
     4  C    0.281195   0.060559  -0.039066  -0.027878  -1.073298  -0.006439
     5  H   -0.004373  -0.000433  -0.000045   0.000110  -0.032748  -0.000003
     6  H   -0.000010  -0.031361  -0.002860   0.029737   0.007452  -0.000016
     7  H    0.438233  -0.000160   0.000020  -0.000002   0.058729  -0.003532
     8  N   -0.000160   8.158158  -0.150739   0.040182  -0.675449   0.001383
     9  O    0.000020  -0.150739   7.921884   0.028887   0.437780   0.000063
    10  O   -0.000002   0.040182   0.028887   7.823035  -0.005102  -0.000023
    11  C    0.058729  -0.675449   0.437780  -0.005102  10.812947   0.261158
    12  H   -0.003532   0.001383   0.000063  -0.000023   0.261158   0.381071
    13  C   -0.045796   1.801053  -0.490179   0.019406  -8.176083   0.037329
    14  H   -0.000045  -0.024673   0.017121  -0.002039   0.097427  -0.005687
    15  Br  -0.000183   0.163879  -0.056538   0.001876   0.101507  -0.006672
              13         14         15
     1  C   -2.905748  -0.005717  -0.013361
     2  C   -4.899403  -0.011813  -0.188293
     3  C  -13.119729  -0.054918  -0.155997
     4  C    2.005584   0.004581   0.000992
     5  H    0.026711  -0.000031  -0.000077
     6  H    0.005926   0.000005  -0.000307
     7  H   -0.045796  -0.000045  -0.000183
     8  N    1.801053  -0.024673   0.163879
     9  O   -0.490179   0.017121  -0.056538
    10  O    0.019406  -0.002039   0.001876
    11  C   -8.176083   0.097427   0.101507
    12  H    0.037329  -0.005687  -0.006672
    13  C   31.582065   0.287855   0.303955
    14  H    0.287855   0.295341  -0.031687
    15  Br   0.303955  -0.031687  34.652227
 Mulliken charges:
               1
     1  C   -0.096549
     2  C    0.149412
     3  C    0.036188
     4  C   -0.302949
     5  H    0.296276
     6  H    0.373709
     7  H    0.235672
     8  N   -0.242947
     9  O    0.159791
    10  O    0.158782
    11  C   -0.307584
    12  H    0.310182
    13  C   -0.432944
    14  H    0.434281
    15  Br   0.228680
 Sum of Mulliken charges =   1.00000
 Mulliken charges with hydrogens summed into heavy atoms:
               1
     1  C    0.199727
     2  C    0.523121
     3  C    0.036188
     4  C   -0.067277
     8  N   -0.242947
     9  O    0.159791
    10  O    0.158782
    11  C    0.002598
    13  C    0.001337
    15  Br   0.228680
 Electronic spatial extent (au):  <R**2>=           3930.5102
 Charge=              1.0000 electrons
 Dipole moment (field-independent basis, Debye):
    X=              8.1052    Y=             -1.1747    Z=             -1.0212  Tot=              8.2533
 Quadrupole moment (field-independent basis, Debye-Ang):
   XX=            -47.5892   YY=            -50.8866   ZZ=            -61.6785
   XY=             -4.1750   XZ=             -4.0297   YZ=              3.1014
 Traceless Quadrupole moment (field-independent basis, Debye-Ang):
   XX=              5.7956   YY=              2.4982   ZZ=             -8.2937
   XY=             -4.1750   XZ=             -4.0297   YZ=              3.1014
 Octapole moment (field-independent basis, Debye-Ang**2):
  XXX=           -409.9340  YYY=             90.0782  ZZZ=             81.0305  XYY=           -124.1615
  XXY=             21.2647  XXZ=             20.5393  XZZ=           -125.7196  YZZ=             15.3723
  YYZ=             24.1240  XYZ=             11.1368
 Hexadecapole moment (field-independent basis, Debye-Ang**3):
 XXXX=          -2944.8187 YYYY=           -701.2192 ZZZZ=           -391.1005 XXXY=            173.6535
 XXXZ=            168.5264 YYYX=            176.3451 YYYZ=           -167.7245 ZZZX=            157.6358
 ZZZY=           -140.1161 XXYY=           -576.0680 XXZZ=           -501.8292 YYZZ=           -167.9000
 XXYZ=            -30.5489 YYXZ=             41.5749 ZZXY=             20.6064
 N-N= 7.650004667072D+02 E-N=-8.690799116684D+03  KE= 3.005821187670D+03
 No NMR shielding tensors so no spin-rotation constants.
 Leave Link  601 at Thu May  2 14:25:03 2024, MaxMem=   134217728 cpu:               7.7 elap:               7.8
 (Enter /software/gaussian/g16-c01/sse4/g16/l9999.exe)
 Unable to Open any file for archive entry.
 1\1\GINC-BHX0002\SP\RwB97XD\6-311+G(d)\C6H5Br1N1O2(1+)\BWEIGHT\02-May-
 2024\0\\#P wB97XD/6-311+G* NoSymm #P Field=X-184\\TitleMe\\1,1\C,0,0.5
 193,1.233,-0.0319\C,0,1.9445,1.2692,-0.0367\C,0,2.6204,0.0928,-0.025\C
 ,0,-0.196,0.0301,0.001\H,0,-0.0207,2.1742,-0.0434\H,0,2.4828,2.2089,-0
 .0361\H,0,-1.2777,0.0399,0.0117\N,0,4.0921,0.0959,0.0366\O,0,4.6393,-1
 .0217,0.1446\O,0,4.6649,1.1984,-0.0233\C,0,0.4943,-1.1671,0.021\H,0,-0
 .0325,-2.1149,0.0545\C,0,1.9629,-1.2165,-0.0211\H,0,2.4436,-1.9631,0.6
 151\Br,0,2.173,-1.9491,-1.9062\\Version=ES64L-G16RevC.01\HF=-3010.5711
 63\RMSD=6.286e-09\Dipole=-1.1403842,0.7659682,0.8474381\Quadrupole=4.3
 088556,1.857323,-6.1661787,-3.1040436,-2.9960077,2.3058507\PG=C01 [X(C
 6H5Br1N1O2)]\\@
 The archive entry for this job was punched.


 SLITHERY-DITHERY
 FRIEDRICH A. KEKULE
 DREAMT ON A BUS OF THINGS
 FREUD WOULD THINK KEEN.
 MOST OF THE TIME THEY WERE
 HERPETOLOGICAL
 BITING THEIR TAILS IN THE
 SHAPE OF BENZENE.
 Job cpu time:       0 days  0 hours 27 minutes 30.2 seconds.
 Elapsed time:       0 days  0 hours 27 minutes 34.8 seconds.
 File lengths (MBytes):  RWF=     40 Int=      0 D2E=      0 Chk=     32 Scr=      1
 Normal termination of Gaussian 16 at Thu May  2 14:25:04 2024.
