[Molden Format]
[Atoms] (Angs)
  C      1    6      0.73800500      1.28081960     -0.05304325
  C      2    6      2.13107735      1.27623482     -0.03775458
  C      3    6      2.78774418      0.04994967     -0.02233513
  C      4    6      2.10787290     -1.16395883     -0.02177557
  C      5    6      0.02715627      0.07955847     -0.05285920
  H      6    1      0.20350732      2.22257168     -0.06513515
  H      7    1      2.70574282      2.19227310     -0.03751535
  H      8    1      2.65503181     -2.09648975     -0.00950659
  H      9    1     -1.05554128      0.07960796     -0.06461677
  N     10    7      4.25078279      0.02984995     -0.00604320
  O     11    8      4.85312968      1.12722449     -0.00700032
  O     12    8      4.82301363     -1.08336832      0.00783743
  C     13    6      0.72203597     -1.12622675     -0.03726783
 Br     14   35     -0.25419454     -2.77854143     -0.03668405
[GTO]
1    0
S    6    1.000000
   4.56324000E+03    1.96665000E-03 
   6.82024000E+02    1.52306000E-02 
   1.54973000E+02    7.61269000E-02 
   4.44553000E+01    2.60801000E-01 
   1.30290000E+01    6.16462000E-01 
   1.82773000E+00    2.21006000E-01 
SP   3    1.000000
   2.09642000E+01    1.14660000E-01   4.02487000E-02 
   4.80331000E+00    9.19999000E-01   2.37594000E-01 
   1.45933000E+00   -3.03068000E-03   8.15854000E-01 
SP   1    1.000000
   4.83456000E-01    1.00000000E+00   1.00000000E+00 
SP   1    1.000000
   1.45585000E-01    1.00000000E+00   1.00000000E+00 
SP   1    1.000000
   4.38000000E-02    1.00000000E+00   1.00000000E+00 
D    1    1.000000
   6.26000000E-01    1.00000000E+00 

2    0
S    6    1.000000
   4.56324000E+03    1.96665000E-03 
   6.82024000E+02    1.52306000E-02 
   1.54973000E+02    7.61269000E-02 
   4.44553000E+01    2.60801000E-01 
   1.30290000E+01    6.16462000E-01 
   1.82773000E+00    2.21006000E-01 
SP   3    1.000000
   2.09642000E+01    1.14660000E-01   4.02487000E-02 
   4.80331000E+00    9.19999000E-01   2.37594000E-01 
   1.45933000E+00   -3.03068000E-03   8.15854000E-01 
SP   1    1.000000
   4.83456000E-01    1.00000000E+00   1.00000000E+00 
SP   1    1.000000
   1.45585000E-01    1.00000000E+00   1.00000000E+00 
SP   1    1.000000
   4.38000000E-02    1.00000000E+00   1.00000000E+00 
D    1    1.000000
   6.26000000E-01    1.00000000E+00 

3    0
S    6    1.000000
   4.56324000E+03    1.96665000E-03 
   6.82024000E+02    1.52306000E-02 
   1.54973000E+02    7.61269000E-02 
   4.44553000E+01    2.60801000E-01 
   1.30290000E+01    6.16462000E-01 
   1.82773000E+00    2.21006000E-01 
SP   3    1.000000
   2.09642000E+01    1.14660000E-01   4.02487000E-02 
   4.80331000E+00    9.19999000E-01   2.37594000E-01 
   1.45933000E+00   -3.03068000E-03   8.15854000E-01 
SP   1    1.000000
   4.83456000E-01    1.00000000E+00   1.00000000E+00 
SP   1    1.000000
   1.45585000E-01    1.00000000E+00   1.00000000E+00 
SP   1    1.000000
   4.38000000E-02    1.00000000E+00   1.00000000E+00 
D    1    1.000000
   6.26000000E-01    1.00000000E+00 

4    0
S    6    1.000000
   4.56324000E+03    1.96665000E-03 
   6.82024000E+02    1.52306000E-02 
   1.54973000E+02    7.61269000E-02 
   4.44553000E+01    2.60801000E-01 
   1.30290000E+01    6.16462000E-01 
   1.82773000E+00    2.21006000E-01 
SP   3    1.000000
   2.09642000E+01    1.14660000E-01   4.02487000E-02 
   4.80331000E+00    9.19999000E-01   2.37594000E-01 
   1.45933000E+00   -3.03068000E-03   8.15854000E-01 
SP   1    1.000000
   4.83456000E-01    1.00000000E+00   1.00000000E+00 
SP   1    1.000000
   1.45585000E-01    1.00000000E+00   1.00000000E+00 
SP   1    1.000000
   4.38000000E-02    1.00000000E+00   1.00000000E+00 
D    1    1.000000
   6.26000000E-01    1.00000000E+00 

5    0
S    6    1.000000
   4.56324000E+03    1.96665000E-03 
   6.82024000E+02    1.52306000E-02 
   1.54973000E+02    7.61269000E-02 
   4.44553000E+01    2.60801000E-01 
   1.30290000E+01    6.16462000E-01 
   1.82773000E+00    2.21006000E-01 
SP   3    1.000000
   2.09642000E+01    1.14660000E-01   4.02487000E-02 
   4.80331000E+00    9.19999000E-01   2.37594000E-01 
   1.45933000E+00   -3.03068000E-03   8.15854000E-01 
SP   1    1.000000
   4.83456000E-01    1.00000000E+00   1.00000000E+00 
SP   1    1.000000
   1.45585000E-01    1.00000000E+00   1.00000000E+00 
SP   1    1.000000
   4.38000000E-02    1.00000000E+00   1.00000000E+00 
D    1    1.000000
   6.26000000E-01    1.00000000E+00 

6    0
S    3    1.000000
   3.38650000E+01    2.54938000E-02 
   5.09479000E+00    1.90373000E-01 
   1.15879000E+00    8.52161000E-01 
S    1    1.000000
   3.25840000E-01    1.00000000E+00 
S    1    1.000000
   1.02741000E-01    1.00000000E+00 

7    0
S    3    1.000000
   3.38650000E+01    2.54938000E-02 
   5.09479000E+00    1.90373000E-01 
   1.15879000E+00    8.52161000E-01 
S    1    1.000000
   3.25840000E-01    1.00000000E+00 
S    1    1.000000
   1.02741000E-01    1.00000000E+00 

8    0
S    3    1.000000
   3.38650000E+01    2.54938000E-02 
   5.09479000E+00    1.90373000E-01 
   1.15879000E+00    8.52161000E-01 
S    1    1.000000
   3.25840000E-01    1.00000000E+00 
S    1    1.000000
   1.02741000E-01    1.00000000E+00 

9    0
S    3    1.000000
   3.38650000E+01    2.54938000E-02 
   5.09479000E+00    1.90373000E-01 
   1.15879000E+00    8.52161000E-01 
S    1    1.000000
   3.25840000E-01    1.00000000E+00 
S    1    1.000000
   1.02741000E-01    1.00000000E+00 

10    0
S    6    1.000000
   6.29348000E+03    1.96979000E-03 
   9.49044000E+02    1.49613000E-02 
   2.18776000E+02    7.35006000E-02 
   6.36916000E+01    2.48937000E-01 
   1.88282000E+01    6.02460000E-01 
   2.72023000E+00    2.56202000E-01 
SP   3    1.000000
   3.06331000E+01    1.11906000E-01   3.83119000E-02 
   7.02614000E+00    9.21666000E-01   2.37403000E-01 
   2.11205000E+00   -2.56919000E-03   8.17592000E-01 
SP   1    1.000000
   6.84009000E-01    1.00000000E+00   1.00000000E+00 
SP   1    1.000000
   2.00878000E-01    1.00000000E+00   1.00000000E+00 
SP   1    1.000000
   6.39000000E-02    1.00000000E+00   1.00000000E+00 
D    1    1.000000
   9.13000000E-01    1.00000000E+00 

11    0
S    6    1.000000
   8.58850000E+03    1.89515000E-03 
   1.29723000E+03    1.43859000E-02 
   2.99296000E+02    7.07320000E-02 
   8.73771000E+01    2.40001000E-01 
   2.56789000E+01    5.94797000E-01 
   3.74004000E+00    2.80802000E-01 
SP   3    1.000000
   4.21175000E+01    1.13889000E-01   3.65114000E-02 
   9.62837000E+00    9.20811000E-01   2.37153000E-01 
   2.85332000E+00   -3.27447000E-03   8.19702000E-01 
SP   1    1.000000
   9.05661000E-01    1.00000000E+00   1.00000000E+00 
SP   1    1.000000
   2.55611000E-01    1.00000000E+00   1.00000000E+00 
SP   1    1.000000
   8.45000000E-02    1.00000000E+00   1.00000000E+00 
D    1    1.000000
   1.29200000E+00    1.00000000E+00 

12    0
S    6    1.000000
   8.58850000E+03    1.89515000E-03 
   1.29723000E+03    1.43859000E-02 
   2.99296000E+02    7.07320000E-02 
   8.73771000E+01    2.40001000E-01 
   2.56789000E+01    5.94797000E-01 
   3.74004000E+00    2.80802000E-01 
SP   3    1.000000
   4.21175000E+01    1.13889000E-01   3.65114000E-02 
   9.62837000E+00    9.20811000E-01   2.37153000E-01 
   2.85332000E+00   -3.27447000E-03   8.19702000E-01 
SP   1    1.000000
   9.05661000E-01    1.00000000E+00   1.00000000E+00 
SP   1    1.000000
   2.55611000E-01    1.00000000E+00   1.00000000E+00 
SP   1    1.000000
   8.45000000E-02    1.00000000E+00   1.00000000E+00 
D    1    1.000000
   1.29200000E+00    1.00000000E+00 

13    0
S    6    1.000000
   4.56324000E+03    1.96665000E-03 
   6.82024000E+02    1.52306000E-02 
   1.54973000E+02    7.61269000E-02 
   4.44553000E+01    2.60801000E-01 
   1.30290000E+01    6.16462000E-01 
   1.82773000E+00    2.21006000E-01 
SP   3    1.000000
   2.09642000E+01    1.14660000E-01   4.02487000E-02 
   4.80331000E+00    9.19999000E-01   2.37594000E-01 
   1.45933000E+00   -3.03068000E-03   8.15854000E-01 
SP   1    1.000000
   4.83456000E-01    1.00000000E+00   1.00000000E+00 
SP   1    1.000000
   1.45585000E-01    1.00000000E+00   1.00000000E+00 
SP   1    1.000000
   4.38000000E-02    1.00000000E+00   1.00000000E+00 
D    1    1.000000
   6.26000000E-01    1.00000000E+00 

14    0
S    6    1.000000
   4.39700000E+05    8.13000000E-04 
   6.60300000E+04    6.28500000E-03 
   1.51400000E+04    3.19200000E-02 
   4.31700000E+03    1.28800000E-01 
   1.41400000E+03    3.94600000E-01 
   5.23900000E+02    5.41300000E-01 
S    3    1.000000
   5.23900000E+02    1.83100000E-01 
   2.07700000E+02    6.17600000E-01 
   8.65400000E+01    2.53800000E-01 
S    1    1.000000
   3.05200000E+01    1.00000000E+00 
S    1    1.000000
   1.29800000E+01    1.00000000E+00 
S    1    1.000000
   4.41200000E+00    1.00000000E+00 
S    1    1.000000
   1.86200000E+00    1.00000000E+00 
S    1    1.000000
   3.93200000E-01    1.00000000E+00 
S    1    1.000000
   1.40000000E-01    1.00000000E+00 
P    3    1.000000
   2.95700000E+03    2.22600000E-02 
   7.00300000E+02    1.80200000E-01 
   2.24600000E+02    8.62400000E-01 
P    3    1.000000
   8.25900000E+01    3.44000000E-01 
   3.31900000E+01    5.07100000E-01 
   1.42000000E+01    2.59000000E-01 
P    3    1.000000
   1.42000000E+01    7.96500000E-02 
   7.43800000E+00    3.73400000E-01 
   3.52600000E+00    6.04900000E-01 
P    1    1.000000
   1.59500000E+00    1.00000000E+00 
P    1    1.000000
   8.46200000E-01    1.00000000E+00 
P    1    1.000000
   3.18600000E-01    1.00000000E+00 
P    1    1.000000
   1.09600000E-01    1.00000000E+00 
D    4    1.000000
   1.34800000E+02    1.83100000E-02 
   3.63900000E+01    1.35000000E-01 
   1.21600000E+01    4.26100000E-01 
   4.34100000E+00    6.04300000E-01 
D    1    1.000000
   1.53500000E+00    1.00000000E+00 
SP   1    1.000000
   3.90000000E-02    1.00000000E+00   1.00000000E+00 
D    1    1.000000
   4.15000000E-01    1.00000000E+00 

[MO]
Sym=X
Ene= -0.045405
Spin=Alpha
Occup=1
     1    1.463452815498e-02
     2    2.293756501258e-02
     3   -1.407464379461e-01
     4    4.680168629777e-02
     5   -3.071504594373e-03
     6   -6.655138670519e-02
     7   -2.057861496819e-01
     8    7.514694557608e-02
     9   -4.744203506602e-03
    10   -1.637956511567e-02
    11   -1.223395320246e-01
    12    4.858988689338e-02
    13   -3.206835197842e-03
    14   -2.370849942910e-01
    15    1.903090281459e-02
    16    4.017197569210e-02
    17   -1.790529059897e-04
    18   -1.246125660912e-03
    19   -1.679241215116e-04
    20   -8.366557834879e-05
    21   -1.253010135079e-02
    22   -5.327207636291e-03
    23   -1.251225446878e-03
    24   -2.103134595037e-03
    25    1.541438075862e-01
    26   -6.187971969358e-04
    27    5.132609033919e-04
    28    2.227318450940e-03
    29    2.262579258910e-01
    30    7.418296627997e-03
    31    4.907360945171e-04
    32    2.405952755167e-02
    33    1.132575000385e-01
    34    2.056795353560e-02
    35   -3.083951472525e-04
    36    1.233323347946e-01
    37   -3.256960915575e-02
    38   -1.337277907637e-02
    39   -2.395972562383e-04
    40   -2.332823596080e-03
    41   -4.756010235990e-05
    42   -9.759837575437e-05
    43   -1.896727333085e-02
    44   -1.824225975579e-03
    45   -1.956233312361e-02
    46   -3.140216663112e-02
    47   -5.897078097295e-02
    48    3.990049773455e-02
    49   -1.622899141903e-03
    50    8.847492798107e-02
    51   -8.581484715671e-02
    52    5.759340316708e-02
    53   -2.487981267438e-03
    54    1.318250141672e-01
    55    7.108425320933e-03
    56    5.050122616283e-02
    57   -1.092353124539e-03
    58    7.651133928197e-02
    59    3.033956150920e-02
    60   -4.083399253855e-02
    61    4.717316551003e-04
    62    1.211061294099e-03
    63   -2.090154248462e-04
    64   -1.717928763711e-04
    65   -2.086654417033e-02
    66    4.723869158642e-03
    67   -6.386416078762e-03
    68   -9.854089694042e-03
    69   -1.774548460846e-02
    70    3.362510262353e-02
    71   -6.129747401204e-04
    72    2.704829162068e-02
    73   -2.882211511874e-02
    74    5.140309536533e-02
    75   -9.736988728117e-04
    76    4.056863830884e-02
    77   -2.878829650487e-02
    78    3.282396140255e-02
    79   -5.134198139049e-04
    80    5.844859149422e-01
    81   -2.598609360992e-01
    82   -3.811896212902e-02
    83   -2.639514988519e-03
    84    8.342249018206e-04
    85   -5.745192196444e-05
    86   -1.057026009930e-04
    87   -4.531009537209e-03
    88   -1.182835060792e-03
    89   -3.351329962050e-03
    90   -5.616578997134e-03
    91   -5.343675107713e-03
    92    2.164637757831e-02
    93   -9.717983544532e-04
    94    1.717241720285e-02
    95   -1.065018168292e-02
    96    3.077346233497e-02
    97   -1.580746566418e-03
    98   -1.093072844225e-03
    99    9.655337813492e-03
   100    2.163540966184e-02
   101   -8.658343737465e-04
   102   -1.599711443381e-01
   103    4.564215964248e-03
   104    1.328555139725e-01
   105   -9.028470790515e-04
   106   -3.200460035867e-04
   107   -1.380774138570e-04
   108   -2.369395598502e-04
   109   -9.531871473413e-03
   110   -7.803588972770e-03
   111    7.960910760881e-02
   112    1.062300365198e-01
   113    3.462664977612e-02
   114    6.458331137057e-02
   115    7.550469797059e-02
   116    1.648929814040e-02
   117   -2.337613486605e-02
   118   -2.602036798001e-02
   119   -3.174848158977e-03
   120   -9.276343882031e-04
   121   -7.065875762163e-03
   122   -1.217277758471e-02
   123    2.690280732026e-03
   124    4.117180096867e-03
   125    1.003088127221e-01
   126   -6.302648010775e-02
   127    1.649590099583e-03
   128   -8.378455720162e-03
   129    1.530653350707e-01
   130   -1.011815437501e-01
   131    2.548468949808e-03
   132   -1.576415577808e-02
   133    1.376443983275e-01
   134   -7.066415316522e-02
   135    2.186198620673e-03
   136    5.412443078306e-02
   137    6.233341649689e-02
   138   -4.028685277318e-02
   139    1.197070921911e-03
   140   -2.186972428412e-03
   141    2.766540524428e-04
   142    3.470601460599e-05
   143    8.707531941032e-03
   144   -8.705238685881e-03
   145    2.158522278633e-04
   146    3.728075539363e-04
   147    6.597438971849e-02
   148   -1.655574484844e-02
   149    1.462944528508e-03
   150   -2.289991125754e-03
   151    9.831815499286e-02
   152   -2.587848737880e-02
   153    2.186350119047e-03
   154   -3.643668899524e-04
   155    7.008990045725e-02
   156   -1.596091216126e-02
   157    1.745529068934e-03
   158   -9.504881053928e-03
   159   -7.023887746198e-03
   160    1.111213234493e-02
   161   -1.314431394753e-04
   162    3.462020587397e-04
   163   -6.668682749105e-05
   164   -1.602660839383e-04
   165   -7.130758746328e-03
   166   -6.233806810102e-03
   167    1.949657488157e-02
   168    3.170791969418e-02
   169   -5.576334066782e-05
   170    1.060754864293e-01
   171   -9.411157731576e-04
   172   -9.130688242619e-02
   173    3.796004893334e-04
   174    1.553258451955e-01
   175   -1.376305275025e-03
   176   -1.623600315406e-01
   177    1.848089799077e-02
   178    8.279837586224e-02
   179   -6.887852588420e-04
   180   -1.129422677476e-01
   181   -6.359761252851e-03
   182   -2.728209645452e-02
   183   -1.477073846106e-05
   184   -4.913507382790e-03
   185    1.754209857199e-05
   186   -1.686902523774e-04
   187   -9.787288800683e-03
   188   -3.348096343776e-03
   189    1.537836146246e-03
   190    2.503066609153e-03
   191    2.190786205682e-02
   192    1.268881328364e-02
   193   -1.832666683990e-04
   194   -5.905524002768e-03
   195    3.546653026744e-02
   196    2.050613611102e-02
   197   -2.977541830374e-04
   198   -2.105833346526e-02
   199   -3.195893476739e-03
   200    2.624932689115e-02
   201   -4.755597123065e-04
   202   -3.566961602407e-01
   203   -2.807916297463e-01
   204    9.718541018907e-02
   205   -3.486221521749e-03
   206    1.194965302763e-03
   207    2.929609507678e-05
   208    1.102898098611e-06
   209    2.876262741579e-03
   210    2.317191425217e-03
   211   -8.986051326310e-04
   212   -2.907916534476e-03
   213    7.848558874816e-03
   214    9.756760028758e-03
   215   -1.952277059405e-02
   216   -2.390132637156e-02
   217    4.559278519369e-02
   218    3.578096099175e-02
   219   -7.066519631353e-04
   220   -1.092570305814e-03
   221   -2.412279344810e-05
   222   -5.824518388706e-03
   223   -9.011670336933e-03
   224   -1.991377975660e-04
   225    1.502484366503e-02
   226    2.341161537747e-02
   227    5.192076375522e-04
   228    5.769000554669e-03
   229    9.093567255249e-03
   230    1.886992925079e-04
   231   -1.207408604469e-02
   232   -1.929167530016e-02
   233   -4.108603081385e-04
   234   -2.751009311331e-02
   235   -4.365584929016e-02
   236   -1.017243844741e-03
   237   -6.368361511008e-03
   238   -1.579751845622e-02
   239   -5.180203000850e-04
   240   -2.100689320084e-03
   241    3.790356130977e-05
   242   -2.158711986580e-06
   243   -1.369283403744e-03
   244    1.952251642637e-03
   245   -2.664023623192e-04
   246    1.185900679576e-05
   247   -5.549713983468e-06
   248   -1.238724976700e-04
   249   -7.324372793124e-05
   250   -1.977759013237e-02
   251    2.425395757171e-03
   252   -9.743241246209e-03
   253   -2.407005503706e-06
   254    3.230365055870e-03
   255   -2.350330275786e-05
   256   -2.792383432294e-05
   257    3.009962848360e-03
   258   -3.353672740751e-03
Sym=X
Ene= -0.052664
Spin=Alpha
Occup=1
     1    4.613399813436e-03
     2    7.227336161626e-03
     3    1.399082080447e-02
     4    2.823924060778e-02
     5   -3.873242080567e-03
     6   -2.125489528928e-02
     7    1.777841060464e-02
     8    4.076396332603e-02
     9   -6.367793332032e-03
    10    2.579046638015e-02
    11    5.224322339057e-02
    12    5.114848248778e-02
    13   -4.456622186651e-03
    14    7.066560835334e-01
    15    2.103083732327e-01
    16    1.122366699805e-03
    17    2.069405195069e-03
    18   -9.112123209391e-04
    19    1.892681909120e-04
    20    4.538892332157e-04
    21    1.007136888333e-02
    22   -2.120037710161e-03
    23   -2.095131958240e-03
    24   -3.104556172253e-03
    25   -1.674437501390e-02
    26   -4.383923513924e-02
    27   -1.700751677619e-03
    28    8.125532198889e-03
    29   -2.649985124367e-02
    30   -6.827315532098e-02
    31   -2.712038397401e-03
    32   -8.660234131232e-03
    33    4.804599047521e-02
    34   -7.899092322231e-02
    35   -1.040487904949e-03
    36   -5.440016937797e-01
    37    2.692039609394e-01
    38   -4.613650391161e-02
    39    3.202358400877e-03
    40   -7.763334196821e-05
    41    4.859012149658e-04
    42   -4.905083460639e-05
    43    2.088271568192e-03
    44   -7.302350220054e-03
    45    1.481217581997e-02
    46    2.420342609671e-02
    47   -4.243267604738e-02
    48    4.790751838167e-02
    49   -8.026620724590e-04
    50   -7.056270664740e-02
    51   -7.553721042074e-02
    52    6.614011456622e-02
    53   -1.271297657013e-03
    54   -2.082520300867e-01
    55   -1.012477106194e-01
    56   -9.744171695629e-03
    57   -4.455965059942e-04
    58    1.570258432786e-01
    59    1.665157570795e-02
    60   -7.751294611103e-02
    61    3.503865416334e-04
    62    1.122731506153e-03
    63    2.410865931308e-04
    64   -1.800899956292e-04
    65    6.528206934598e-03
    66    1.432619077759e-03
    67   -1.408297623779e-02
    68   -2.225758422481e-02
    69   -1.003805012749e-01
    70   -1.329314443306e-04
    71   -1.561185695919e-03
    72    6.326866020519e-02
    73   -1.411542553232e-01
    74    3.901589885883e-03
    75   -2.414692967453e-03
    76    2.871021346239e-02
    77   -1.023015997964e-01
    78   -3.016331944950e-03
    79   -8.868692108834e-04
    80    2.101649246956e-02
    81   -2.123922968517e-01
    82   -1.512453945745e-01
    83   -5.071680775365e-04
    84    3.925934503344e-04
    85    3.921270315043e-04
    86   -6.398396096136e-05
    87    3.566967462938e-03
    88   -2.847811565262e-03
    89    2.972945392976e-03
    90    4.296448555735e-03
    91   -1.058502862753e-01
    92    2.547550217149e-02
    93   -5.623517358489e-03
    94   -1.544504698558e-02
    95   -1.619597941180e-01
    96    3.635590667242e-02
    97   -9.025370469215e-03
    98    5.401741485350e-02
    99   -1.058546696492e-01
   100    2.885196681932e-02
   101   -6.867119846365e-03
   102   -6.921858487136e-01
   103   -1.155944629488e-01
   104    1.700165571723e-01
   105   -2.496123109267e-03
   106   -1.895809625727e-03
   107   -9.159379371166e-05
   108   -1.834888806466e-05
   109    2.182081415143e-02
   110   -1.101438407342e-03
   111    8.579837592501e-03
   112    6.395338281489e-03
   113   -8.054083587189e-03
   114   -3.304311638662e-02
   115   -4.374787794166e-02
   116    6.565569664207e-04
   117   -2.530378277025e-02
   118   -2.921018476317e-02
   119   -1.344695766055e-02
   120    9.339507887425e-02
   121    1.222939946017e-01
   122    4.553580920993e-02
   123   -2.813335186794e-03
   124   -4.508126475285e-03
   125    3.062580427802e-03
   126   -1.669994666153e-02
   127    3.043180806266e-04
   128    1.444369240334e-02
   129    9.052403375119e-03
   130   -2.960233615934e-02
   131    5.262051838153e-04
   132    1.779152295752e-02
   133   -8.294778988819e-02
   134    4.430382498552e-02
   135   -9.309836440104e-04
   136   -6.767483626416e-02
   137   -1.207037467967e-01
   138   -1.075672831814e-01
   139   -3.633993679554e-04
   140   -1.468888823330e-03
   141   -2.516083277206e-04
   142   -1.620342737095e-03
   143   -3.264941159507e-02
   144   -2.033083636432e-02
   145   -1.707731261584e-03
   146   -2.818249691179e-03
   147   -1.673803886270e-01
   148    9.803628249754e-02
   149   -7.382887507619e-03
   150    8.530855797757e-03
   151   -2.467993181736e-01
   152    1.445858998726e-01
   153   -1.091991583422e-02
   154    4.574783287683e-03
   155   -2.244472720576e-01
   156    1.262086375649e-01
   157   -1.028370244546e-02
   158    1.467354730893e-01
   159   -9.743641814637e-03
   160   -2.860749230594e-02
   161   -9.373503792660e-04
   162   -9.668091291976e-05
   163    2.958128012271e-04
   164    4.414255935985e-04
   165    1.151023505095e-02
   166    5.927605702842e-03
   167   -1.915722675305e-03
   168   -3.070228380624e-03
   169   -5.325181167235e-02
   170    4.029383462282e-02
   171    3.652112235497e-03
   172    1.168001043632e-02
   173   -7.722395329419e-02
   174    5.819364578712e-02
   175    5.438585058592e-03
   176    5.192128617158e-02
   177   -7.187572607055e-02
   178    6.797027928312e-02
   179    5.112811677995e-03
   180   -6.356931852974e-03
   181    9.447502508179e-03
   182    5.640665589381e-03
   183    7.893665520356e-04
   184   -8.586980727018e-04
   185   -1.616630590686e-04
   186    2.328651930265e-04
   187   -6.693850670847e-04
   188   -4.601901282108e-03
   189    5.422302900807e-03
   190    8.590093972916e-03
   191    1.085518225409e-01
   192   -2.541315247849e-02
   193   -1.207476125740e-03
   194   -2.234162100055e-02
   195    1.604587821943e-01
   196   -2.976638245216e-02
   197   -2.150150097659e-03
   198   -7.057957899901e-02
   199    7.085517793312e-02
   200   -4.545792052430e-03
   201   -2.335610960472e-03
   202    3.277673320356e-01
   203   -2.010783244311e-01
   204    2.533156602692e-01
   205   -4.315611674937e-03
   206    6.627754368888e-05
   207    3.732572643578e-04
   208   -4.709890391200e-04
   209    1.817522741071e-02
   210   -5.488773892871e-03
   211    6.061105370934e-05
   212    2.008193018053e-04
   213   -5.841055660616e-04
   214   -3.522660367960e-04
   215    1.319743685163e-04
   216    2.765964300843e-03
   217   -5.406824348921e-03
   218    2.078990787307e-02
   219   -1.055726346767e-03
   220   -2.513794659700e-03
   221    8.546004649573e-05
   222   -8.698231645131e-03
   223   -2.073618607756e-02
   224    7.054746541944e-04
   225    2.245891339543e-02
   226    5.389756303582e-02
   227   -1.844721769783e-03
   228    9.400629165343e-03
   229    2.108421832797e-02
   230   -7.014815780055e-04
   231   -2.019087131405e-02
   232   -4.497935119789e-02
   233    1.567252684456e-03
   234   -4.073992610283e-02
   235   -1.026169282492e-01
   236    3.605653882346e-03
   237   -2.160409973573e-02
   238   -3.550175283547e-02
   239    2.703868199122e-03
   240   -2.744810290377e-03
   241    2.159369228055e-04
   242   -5.347409856648e-05
   243   -8.347362196863e-03
   244    3.294685933997e-03
   245    1.169488697390e-04
   246    7.000912372506e-05
   247   -5.264391858053e-05
   248   -1.139297543685e-03
   249   -2.386462720435e-04
   250    1.514851831228e-02
   251    6.919096703522e-03
   252   -2.745054396014e-03
   253    8.962568230681e-05
   254    4.907758962822e-03
   255    1.279401675683e-06
   256   -1.790653284021e-04
   257    1.201859800474e-02
   258   -6.075975303258e-03
Sym=X
Ene= -0.068727
Spin=Alpha
Occup=1
     1   -1.219301101494e-04
     2   -1.912727991513e-04
     3    1.270222645170e-03
     4   -1.827215099287e-03
     5   -1.031622180382e-01
     6    5.689210118937e-04
     7    2.105095541127e-03
     8   -2.820496087908e-03
     9   -1.689618499963e-01
    10   -2.536884730567e-04
    11    1.684561578838e-03
    12   -2.287843263406e-03
    13   -1.502586412262e-01
    14   -2.426321520405e-03
    15   -1.817342702823e-03
    16   -8.095671256205e-04
    17   -2.335578531321e-03
    18   -9.841549841621e-05
    19   -4.704575429413e-03
    20    1.794735294469e-03
    21    1.127679342433e-04
    22    1.224976914858e-04
    23   -3.884157919387e-05
    24   -6.293591948225e-05
    25    4.187807255192e-04
    26   -1.012603389721e-04
    27   -6.386843350933e-02
    28    1.799996598550e-04
    29    7.697364413078e-04
    30   -2.286142111354e-04
    31   -1.045663959950e-01
    32    3.043058713893e-04
    33    6.976830191552e-04
    34   -7.297584556790e-05
    35   -1.026626294951e-01
    36    4.573461428373e-03
    37   -1.722129397737e-03
    38    3.068857616325e-04
    39   -2.580983509481e-02
    40    3.551526305333e-04
    41    1.441248453029e-02
    42   -6.645319671386e-03
    43   -9.873134449556e-05
    44    3.386360929835e-04
    45    8.416828717103e-05
    46    1.339389638626e-04
    47   -5.632169587914e-04
    48   -6.852590620119e-07
    49    6.603477769936e-02
    50   -3.720219991526e-04
    51   -9.473271659867e-04
    52    1.278972521137e-04
    53    1.076526192952e-01
    54   -1.959140616960e-04
    55   -1.149699834412e-03
    56    4.093638752298e-04
    57    9.474509972060e-02
    58   -1.914456145403e-03
    59   -7.943778668616e-05
    60    4.546440504406e-04
    61    4.277193132328e-02
    62    1.994436292763e-04
    63   -2.452565539987e-03
    64   -2.129182638066e-02
    65    1.885340567074e-04
    66    2.091725925936e-04
    67    7.120478114725e-05
    68    1.116958037214e-04
    69   -1.289111977151e-03
    70    9.408396675540e-04
    71    1.328771198830e-01
    72   -2.987719321200e-04
    73   -2.179429653310e-03
    74    1.504590394261e-03
    75    2.166928117859e-01
    76   -8.107200790935e-04
    77   -1.521696879303e-03
    78    1.550617032008e-03
    79    1.971081516701e-01
    80   -3.078602032295e-03
    81    2.454307187038e-03
    82    6.301684097269e-04
    83   -1.811279042177e-02
    84   -1.556556031639e-04
    85   -3.085964463570e-03
    86    7.617109890584e-03
    87    2.965650070539e-05
    88    3.062824746871e-05
    89    1.360808986193e-05
    90    1.993767282840e-05
    91    5.967080715321e-04
    92    8.348166965988e-04
    93   -3.395712193820e-02
    94   -4.244031657102e-05
    95    9.742537246336e-04
    96    1.138644985415e-03
    97   -5.611858857383e-02
    98   -6.307526094753e-05
    99    5.800591376416e-04
   100    5.521235854088e-04
   101   -3.821651301614e-02
   102   -2.289936074600e-04
   103    1.936076251863e-04
   104   -1.797719366549e-03
   105   -2.473704108567e-02
   106    1.655525690608e-04
   107   -8.505674462066e-04
   108   -1.537004908331e-02
   109    9.179270034998e-05
   110    3.294516481566e-04
   111   -8.490291394061e-04
   112   -1.134765310163e-03
   113   -3.519860219011e-04
   114    2.129971312244e-04
   115    3.243199169357e-04
   116   -5.298547697913e-06
   117   -1.016699002577e-04
   118   -2.163844135327e-04
   119   -2.799473894354e-05
   120   -1.930624092674e-04
   121   -2.358765883015e-04
   122   -9.634099964538e-05
   123   -1.501854212082e-05
   124   -2.413653315456e-05
   125   -6.787388242765e-05
   126    1.260358733065e-04
   127   -6.834763565243e-03
   128    6.817561307237e-05
   129   -1.047290687807e-04
   130    2.217964822809e-04
   131   -1.043449140962e-02
   132    1.316344264049e-04
   133   -8.650731844527e-05
   134   -4.110886718246e-04
   135   -1.087660044291e-02
   136    1.038953199854e-05
   137    1.820694628800e-04
   138    7.985199128524e-04
   139   -3.244121088214e-02
   140   -1.741990135128e-04
   141   -8.505414974098e-03
   142    1.197364023670e-03
   143    8.314003232746e-05
   144    1.337840808723e-04
   145   -1.693337393935e-06
   146   -2.158112329331e-06
   147    6.237019277975e-04
   148   -6.796840011763e-04
   149   -1.247133719762e-02
   150    1.338550815229e-05
   151    9.273572562244e-04
   152   -9.951382926102e-04
   153   -1.836718887077e-02
   154    2.292238757114e-04
   155    8.444206242111e-04
   156   -9.798820708374e-04
   157   -1.716873237586e-02
   158   -6.274605636118e-04
   159    4.201643365184e-05
   160    1.192427850286e-04
   161    7.275839742843e-03
   162   -6.983356666340e-06
   163    5.938139084860e-04
   164    1.268958190063e-03
   165   -6.050334251717e-05
   166   -1.420381493588e-05
   167   -2.118797165694e-06
   168   -3.869461146438e-06
   169   -2.253362325077e-04
   170   -9.341454679937e-04