[Molden Format]
[Atoms] (Angs)
  C      1    6      0.73800500      1.28081960     -0.05304325
  C      2    6      2.13107735      1.27623482     -0.03775458
  C      3    6      2.78774418      0.04994967     -0.02233513
  C      4    6      2.10787290     -1.16395883     -0.02177557
  C      5    6      0.02715627      0.07955847     -0.05285920
  H      6    1      0.20350732      2.22257168     -0.06513515
  H      7    1      2.70574282      2.19227310     -0.03751535
  H      8    1      2.65503181     -2.09648975     -0.00950659
  H      9    1     -1.05554128      0.07960796     -0.06461677
  N     10    7      4.25078279      0.02984995     -0.00604320
  O     11    8      4.85312968      1.12722449     -0.00700032
  O     12    8      4.82301363     -1.08336832      0.00783743
  C     13    6      0.72203597     -1.12622675     -0.03726783
 Br     14   35     -0.25419454     -2.77854143     -0.03668405
[GTO]
1    0
S    6    1.000000
   4.56324000E+03    1.96665000E-03 
   6.82024000E+02    1.52306000E-02 
   1.54973000E+02    7.61269000E-02 
   4.44553000E+01    2.60801000E-01 
   1.30290000E+01    6.16462000E-01 
   1.82773000E+00    2.21006000E-01 
SP   3    1.000000
   2.09642000E+01    1.14660000E-01   4.02487000E-02 
   4.80331000E+00    9.19999000E-01   2.37594000E-01 
   1.45933000E+00   -3.03068000E-03   8.15854000E-01 
SP   1    1.000000
   4.83456000E-01    1.00000000E+00   1.00000000E+00 
SP   1    1.000000
   1.45585000E-01    1.00000000E+00   1.00000000E+00 
SP   1    1.000000
   4.38000000E-02    1.00000000E+00   1.00000000E+00 
D    1    1.000000
   6.26000000E-01    1.00000000E+00 

2    0
S    6    1.000000
   4.56324000E+03    1.96665000E-03 
   6.82024000E+02    1.52306000E-02 
   1.54973000E+02    7.61269000E-02 
   4.44553000E+01    2.60801000E-01 
   1.30290000E+01    6.16462000E-01 
   1.82773000E+00    2.21006000E-01 
SP   3    1.000000
   2.09642000E+01    1.14660000E-01   4.02487000E-02 
   4.80331000E+00    9.19999000E-01   2.37594000E-01 
   1.45933000E+00   -3.03068000E-03   8.15854000E-01 
SP   1    1.000000
   4.83456000E-01    1.00000000E+00   1.00000000E+00 
SP   1    1.000000
   1.45585000E-01    1.00000000E+00   1.00000000E+00 
SP   1    1.000000
   4.38000000E-02    1.00000000E+00   1.00000000E+00 
D    1    1.000000
   6.26000000E-01    1.00000000E+00 

3    0
S    6    1.000000
   4.56324000E+03    1.96665000E-03 
   6.82024000E+02    1.52306000E-02 
   1.54973000E+02    7.61269000E-02 
   4.44553000E+01    2.60801000E-01 
   1.30290000E+01    6.16462000E-01 
   1.82773000E+00    2.21006000E-01 
SP   3    1.000000
   2.09642000E+01    1.14660000E-01   4.02487000E-02 
   4.80331000E+00    9.19999000E-01   2.37594000E-01 
   1.45933000E+00   -3.03068000E-03   8.15854000E-01 
SP   1    1.000000
   4.83456000E-01    1.00000000E+00   1.00000000E+00 
SP   1    1.000000
   1.45585000E-01    1.00000000E+00   1.00000000E+00 
SP   1    1.000000
   4.38000000E-02    1.00000000E+00   1.00000000E+00 
D    1    1.000000
   6.26000000E-01    1.00000000E+00 

4    0
S    6    1.000000
   4.56324000E+03    1.96665000E-03 
   6.82024000E+02    1.52306000E-02 
   1.54973000E+02    7.61269000E-02 
   4.44553000E+01    2.60801000E-01 
   1.30290000E+01    6.16462000E-01 
   1.82773000E+00    2.21006000E-01 
SP   3    1.000000
   2.09642000E+01    1.14660000E-01   4.02487000E-02 
   4.80331000E+00    9.19999000E-01   2.37594000E-01 
   1.45933000E+00   -3.03068000E-03   8.15854000E-01 
SP   1    1.000000
   4.83456000E-01    1.00000000E+00   1.00000000E+00 
SP   1    1.000000
   1.45585000E-01    1.00000000E+00   1.00000000E+00 
SP   1    1.000000
   4.38000000E-02    1.00000000E+00   1.00000000E+00 
D    1    1.000000
   6.26000000E-01    1.00000000E+00 

5    0
S    6    1.000000
   4.56324000E+03    1.96665000E-03 
   6.82024000E+02    1.52306000E-02 
   1.54973000E+02    7.61269000E-02 
   4.44553000E+01    2.60801000E-01 
   1.30290000E+01    6.16462000E-01 
   1.82773000E+00    2.21006000E-01 
SP   3    1.000000
   2.09642000E+01    1.14660000E-01   4.02487000E-02 
   4.80331000E+00    9.19999000E-01   2.37594000E-01 
   1.45933000E+00   -3.03068000E-03   8.15854000E-01 
SP   1    1.000000
   4.83456000E-01    1.00000000E+00   1.00000000E+00 
SP   1    1.000000
   1.45585000E-01    1.00000000E+00   1.00000000E+00 
SP   1    1.000000
   4.38000000E-02    1.00000000E+00   1.00000000E+00 
D    1    1.000000
   6.26000000E-01    1.00000000E+00 

6    0
S    3    1.000000
   3.38650000E+01    2.54938000E-02 
   5.09479000E+00    1.90373000E-01 
   1.15879000E+00    8.52161000E-01 
S    1    1.000000
   3.25840000E-01    1.00000000E+00 
S    1    1.000000
   1.02741000E-01    1.00000000E+00 

7    0
S    3    1.000000
   3.38650000E+01    2.54938000E-02 
   5.09479000E+00    1.90373000E-01 
   1.15879000E+00    8.52161000E-01 
S    1    1.000000
   3.25840000E-01    1.00000000E+00 
S    1    1.000000
   1.02741000E-01    1.00000000E+00 

8    0
S    3    1.000000
   3.38650000E+01    2.54938000E-02 
   5.09479000E+00    1.90373000E-01 
   1.15879000E+00    8.52161000E-01 
S    1    1.000000
   3.25840000E-01    1.00000000E+00 
S    1    1.000000
   1.02741000E-01    1.00000000E+00 

9    0
S    3    1.000000
   3.38650000E+01    2.54938000E-02 
   5.09479000E+00    1.90373000E-01 
   1.15879000E+00    8.52161000E-01 
S    1    1.000000
   3.25840000E-01    1.00000000E+00 
S    1    1.000000
   1.02741000E-01    1.00000000E+00 

10    0
S    6    1.000000
   6.29348000E+03    1.96979000E-03 
   9.49044000E+02    1.49613000E-02 
   2.18776000E+02    7.35006000E-02 
   6.36916000E+01    2.48937000E-01 
   1.88282000E+01    6.02460000E-01 
   2.72023000E+00    2.56202000E-01 
SP   3    1.000000
   3.06331000E+01    1.11906000E-01   3.83119000E-02 
   7.02614000E+00    9.21666000E-01   2.37403000E-01 
   2.11205000E+00   -2.56919000E-03   8.17592000E-01 
SP   1    1.000000
   6.84009000E-01    1.00000000E+00   1.00000000E+00 
SP   1    1.000000
   2.00878000E-01    1.00000000E+00   1.00000000E+00 
SP   1    1.000000
   6.39000000E-02    1.00000000E+00   1.00000000E+00 
D    1    1.000000
   9.13000000E-01    1.00000000E+00 

11    0
S    6    1.000000
   8.58850000E+03    1.89515000E-03 
   1.29723000E+03    1.43859000E-02 
   2.99296000E+02    7.07320000E-02 
   8.73771000E+01    2.40001000E-01 
   2.56789000E+01    5.94797000E-01 
   3.74004000E+00    2.80802000E-01 
SP   3    1.000000
   4.21175000E+01    1.13889000E-01   3.65114000E-02 
   9.62837000E+00    9.20811000E-01   2.37153000E-01 
   2.85332000E+00   -3.27447000E-03   8.19702000E-01 
SP   1    1.000000
   9.05661000E-01    1.00000000E+00   1.00000000E+00 
SP   1    1.000000
   2.55611000E-01    1.00000000E+00   1.00000000E+00 
SP   1    1.000000
   8.45000000E-02    1.00000000E+00   1.00000000E+00 
D    1    1.000000
   1.29200000E+00    1.00000000E+00 

12    0
S    6    1.000000
   8.58850000E+03    1.89515000E-03 
   1.29723000E+03    1.43859000E-02 
   2.99296000E+02    7.07320000E-02 
   8.73771000E+01    2.40001000E-01 
   2.56789000E+01    5.94797000E-01 
   3.74004000E+00    2.80802000E-01 
SP   3    1.000000
   4.21175000E+01    1.13889000E-01   3.65114000E-02 
   9.62837000E+00    9.20811000E-01   2.37153000E-01 
   2.85332000E+00   -3.27447000E-03   8.19702000E-01 
SP   1    1.000000
   9.05661000E-01    1.00000000E+00   1.00000000E+00 
SP   1    1.000000
   2.55611000E-01    1.00000000E+00   1.00000000E+00 
SP   1    1.000000
   8.45000000E-02    1.00000000E+00   1.00000000E+00 
D    1    1.000000
   1.29200000E+00    1.00000000E+00 

13    0
S    6    1.000000
   4.56324000E+03    1.96665000E-03 
   6.82024000E+02    1.52306000E-02 
   1.54973000E+02    7.61269000E-02 
   4.44553000E+01    2.60801000E-01 
   1.30290000E+01    6.16462000E-01 
   1.82773000E+00    2.21006000E-01 
SP   3    1.000000
   2.09642000E+01    1.14660000E-01   4.02487000E-02 
   4.80331000E+00    9.19999000E-01   2.37594000E-01 
   1.45933000E+00   -3.03068000E-03   8.15854000E-01 
SP   1    1.000000
   4.83456000E-01    1.00000000E+00   1.00000000E+00 
SP   1    1.000000
   1.45585000E-01    1.00000000E+00   1.00000000E+00 
SP   1    1.000000
   4.38000000E-02    1.00000000E+00   1.00000000E+00 
D    1    1.000000
   6.26000000E-01    1.00000000E+00 

14    0
S    6    1.000000
   4.39700000E+05    8.13000000E-04 
   6.60300000E+04    6.28500000E-03 
   1.51400000E+04    3.19200000E-02 
   4.31700000E+03    1.28800000E-01 
   1.41400000E+03    3.94600000E-01 
   5.23900000E+02    5.41300000E-01 
S    3    1.000000
   5.23900000E+02    1.83100000E-01 
   2.07700000E+02    6.17600000E-01 
   8.65400000E+01    2.53800000E-01 
S    1    1.000000
   3.05200000E+01    1.00000000E+00 
S    1    1.000000
   1.29800000E+01    1.00000000E+00 
S    1    1.000000
   4.41200000E+00    1.00000000E+00 
S    1    1.000000
   1.86200000E+00    1.00000000E+00 
S    1    1.000000
   3.93200000E-01    1.00000000E+00 
S    1    1.000000
   1.40000000E-01    1.00000000E+00 
P    3    1.000000
   2.95700000E+03    2.22600000E-02 
   7.00300000E+02    1.80200000E-01 
   2.24600000E+02    8.62400000E-01 
P    3    1.000000
   8.25900000E+01    3.44000000E-01 
   3.31900000E+01    5.07100000E-01 
   1.42000000E+01    2.59000000E-01 
P    3    1.000000
   1.42000000E+01    7.96500000E-02 
   7.43800000E+00    3.73400000E-01 
   3.52600000E+00    6.04900000E-01 
P    1    1.000000
   1.59500000E+00    1.00000000E+00 
P    1    1.000000
   8.46200000E-01    1.00000000E+00 
P    1    1.000000
   3.18600000E-01    1.00000000E+00 
P    1    1.000000
   1.09600000E-01    1.00000000E+00 
D    4    1.000000
   1.34800000E+02    1.83100000E-02 
   3.63900000E+01    1.35000000E-01 
   1.21600000E+01    4.26100000E-01 
   4.34100000E+00    6.04300000E-01 
D    1    1.000000
   1.53500000E+00    1.00000000E+00 
SP   1    1.000000
   3.90000000E-02    1.00000000E+00   1.00000000E+00 
D    1    1.000000
   4.15000000E-01    1.00000000E+00 

[MO]
Sym=X
Ene= -0.132505
Spin=Alpha
Occup=1
     1    5.730247675530e-03
     2    8.969417666179e-03
     3   -1.725384921287e-02
     4    2.958788176706e-03
     5   -2.981965853233e-04
     6   -2.300106928089e-02
     7   -2.357271057804e-02
     8    5.189105691013e-03
     9   -4.428972880970e-04
    10   -8.812132198495e-02
    11   -6.800430229133e-02
    12   -1.333835978598e-02
    13   -7.670307269325e-04
    14   -5.710792761444e-01
    15   -5.194448144701e-01
    16   -2.324908746595e-01
    17   -4.129160637048e-03
    18    2.643422593125e-04
    19   -1.070646415267e-05
    20    1.588967016040e-05
    21   -9.664710977314e-05
    22    8.329576932600e-04
    23   -7.157114112148e-03
    24   -1.177900955838e-02
    25    2.863634762641e-02
    26    8.005672333422e-03
    27    2.259133565669e-04
    28    3.529346878852e-02
    29    4.955360584253e-02
    30    1.456657671214e-02
    31    4.007460379639e-04
    32    5.823601597326e-02
    33   -6.707370723657e-02
    34    4.629834983595e-02
    35   -1.135386078241e-03
    36    2.303996528441e-01
    37   -6.639623669919e-01
    38    3.074510948234e-01
    39   -9.387530843632e-03
    40   -8.634267976862e-05
    41   -4.469376105152e-05
    42   -5.210248211407e-05
    43   -5.499569222289e-03
    44   -4.519724731541e-04
    45   -1.566770041868e-03
    46   -2.711220668336e-03
    47    2.106957316506e-02
    48    2.472245949050e-02
    49    1.606841969994e-04
    50    8.762030385645e-03
    51    3.574990090242e-02
    52    4.298321701863e-02
    53    2.585925401999e-04
    54    5.268026543057e-02
    55    3.600903918040e-02
    56    7.604378833728e-02
    57    2.396321792748e-05
    58   -1.025807168868e-01
    59   -2.426662163493e-02
    60    6.033954881921e-01
    61   -4.260356380887e-03
    62   -4.009490472152e-04
    63    6.065269995192e-05
    64   -2.931102503425e-05
    65    3.859273157874e-03
    66   -1.809192165060e-03
    67    8.565865694449e-03
    68    1.382495336548e-02
    69   -4.158603866338e-02
    70   -2.407441970761e-03
    71   -3.192694422541e-04
    72   -3.890883698648e-02
    73   -6.655908058128e-02
    74   -1.914402243121e-04
    75   -5.439942612009e-04
    76   -7.766038171156e-02
    77    4.151381610833e-02
    78    2.803328872164e-02
    79    4.797694251796e-04
    80   -2.874109331864e-01
    81    7.589080825144e-01
    82    3.621497398714e-01
    83    6.037697405017e-03
    84    5.774665420126e-04
    85    8.906477733882e-05
    86    6.401339205690e-05
    87    8.140225748969e-03
    88   -5.163804614170e-04
    89    7.738173796003e-04
    90    1.251866121244e-03
    91    2.544060495570e-03
    92    5.566620728286e-03
    93   -6.841281079222e-05
    94   -3.290347426335e-03
    95    4.195669455241e-03
    96    1.093765429189e-02
    97   -1.239972316628e-04
    98    1.120164853772e-02
    99    9.884199497917e-04
   100   -2.544797723160e-02
   101    1.027030647153e-04
   102    2.907649844680e-01
   103    2.668502353402e-02
   104   -4.997451966520e-01
   105    3.607957025123e-03
   106    5.508962642849e-04
   107    1.950580956425e-05
   108   -2.091032742356e-05
   109    1.519189318613e-03
   110   -2.349269861790e-03
   111    3.441175715858e-03
   112    8.318926675363e-03
   113    3.617620595815e-03
   114    1.704765582789e-02
   115    1.933413216349e-02
   116   -1.748942939018e-02
   117   -1.880905056618e-02
   118   -2.192294828293e-02
   119    1.800391598075e-02
   120   -1.349868379040e-03
   121   -9.185160874384e-04
   122   -1.098028732557e-03
   123   -1.645894850651e-03
   124   -2.685540743238e-03
   125   -1.317416541650e-02
   126    1.545336332149e-02
   127   -2.644816471813e-04
   128    8.207801764610e-03
   129   -2.102928535279e-02
   130    2.973475099154e-02
   131   -4.567381619300e-04
   132    1.149981694719e-02
   133    1.086929151994e-02
   134   -9.317356206348e-02
   135    7.386092696389e-04
   136    4.222778521950e-02
   137    3.858609467557e-02
   138    1.318016396629e-01
   139   -5.086416785106e-04
   140    1.114232230486e-03
   141   -1.738451690077e-04
   142    3.759258209342e-04
   143    1.167156541294e-02
   144    3.882588900501e-02
   145   -1.675355866223e-03
   146   -2.681531663539e-03
   147    1.971394813070e-01
   148   -1.504653034774e-01
   149    2.579988862255e-03
   150    9.529826665096e-03
   151    2.926917129957e-01
   152   -2.211189598893e-01
   153    3.815775265982e-03
   154    5.161175807822e-02
   155    2.643373029148e-01
   156   -2.164225193346e-01
   157    3.514240384934e-03
   158   -1.346639070534e-01
   159    2.659253708574e-02
   160    2.666955720516e-02
   161    1.853650490339e-06
   162    3.298156058221e-04
   163   -1.031911275598e-04
   164   -1.220986692981e-04
   165   -1.494409156781e-02
   166   -5.724480492224e-03
   167    2.480456164693e-03
   168    3.969158496843e-03
   169   -1.255262508907e-01
   170   -1.347260716815e-01
   171    8.899504893933e-05
   172   -1.434030813329e-02
   173   -1.878085023076e-01
   174   -1.975123182401e-01
   175    9.813770286191e-05
   176   -6.525982209367e-02
   177   -1.662931391679e-01
   178   -1.992440687619e-01
   179    3.108939250286e-04
   180    8.173913064338e-02
   181   -2.157795512328e-02
   182    1.699367566644e-02
   183   -2.343560764676e-04
   184    3.679670081231e-04
   185    1.246824559409e-04
   186    8.536277897750e-05
   187    1.212519073152e-02
   188   -3.316971259341e-03
   189   -3.603533316859e-03
   190   -5.679555102494e-03
   191    3.575465030198e-02
   192    1.127437924075e-02
   193    3.410669535324e-04
   194    1.571179514049e-02
   195    5.126537888871e-02
   196    2.091027144252e-02
   197    4.668923449426e-04
   198    6.225824800048e-02
   199    9.473809467115e-02
   200   -4.341781791781e-03
   201    1.071629236186e-03
   202    4.451655396233e-01
   203    6.002339524348e-01
   204   -3.740724915813e-01
   205    9.002324558349e-03
   206    7.367279534921e-04
   207    3.875202922645e-05
   208   -9.829716888599e-06
   209    1.396485972963e-03
   210   -2.441871490463e-03
   211   -2.627091720953e-04
   212   -8.474071608125e-04
   213    2.261830954482e-03
   214    2.978030174938e-03
   215   -6.178741519223e-03
   216   -6.330255416715e-03
   217    1.209957044159e-02
   218    1.790509988621e-02
   219   -6.574510795055e-04
   220   -1.457861925171e-03
   221   -1.976064217830e-06
   222   -5.426903936184e-03
   223   -1.202642588567e-02
   224   -1.637258721143e-05
   225    1.410840932586e-02
   226    3.123597683250e-02
   227    4.329318481271e-05
   228    5.122987476499e-03
   229    1.197121173720e-02
   230    1.189101084778e-05
   231   -1.087354589349e-02
   232   -2.547658214275e-02
   233   -2.799027787856e-05
   234   -2.876906992139e-02
   235   -5.979938633991e-02
   236   -1.086356074694e-04
   237   -1.337538023091e-02
   238   -1.514610337733e-02
   239   -1.570832752415e-04
   240   -1.985586624542e-03
   241   -7.038681292391e-06
   242   -2.428938874360e-05
   243   -2.879709739737e-03
   244    1.829985881921e-03
   245   -1.067548818940e-04
   246   -6.445267769668e-07
   247   -4.111583471569e-07
   248   -1.118606301059e-04
   249    1.983587457791e-04
   250   -2.418496344729e-03
   251    6.554495550996e-04
   252   -1.780709972778e-03
   253    1.705455696413e-05
   254    2.996107922084e-03
   255    1.355010169965e-05
   256    1.571593469087e-05
   257    3.661946278544e-03
   258   -4.032706470097e-03
Sym=X
Ene= -0.163704
Spin=Alpha
Occup=1
     1   -1.916990150460e-05
     2   -3.016972626628e-05
     3    1.414924490397e-03
     4   -1.042433463458e-03
     5   -1.244963691174e-01
     6    9.118402906278e-05
     7    2.312518778001e-03
     8   -1.666627678541e-03
     9   -2.032178590448e-01
    10    8.087306218116e-05
    11    2.003324092053e-03
    12   -1.455624424862e-03
    13   -1.758465093151e-01
    14    2.212946062235e-04
    15    2.036551692008e-04
    16   -8.377145116908e-05
    17   -1.630779032921e-02
    18    2.172402094391e-05
    19    7.711448033507e-03
    20    1.102429774964e-02
    21   -1.317714181882e-04
    22   -3.586522504453e-05
    23   -9.018944354287e-06
    24   -1.374651747991e-05
    25   -7.342316554063e-05
    26    5.214528681158e-05
    27   -1.719775026983e-03
    28    3.236610186016e-05
    29   -1.133924046861e-04
    30    7.294301279019e-05
    31   -2.088873370696e-03
    32   -8.230652501306e-05
    33    1.050689103952e-04
    34    5.783078792681e-05
    35   -1.167747707447e-02
    36    3.262587272072e-04
    37    1.920058345533e-04
    38   -1.498086173663e-04
    39   -2.724635843936e-03
    40    5.513044746658e-04
    41    2.109512306482e-02
    42   -1.305752022318e-02
    43   -1.486096220417e-04
    44    3.245748457819e-04
    45   -5.434740297580e-06
    46   -8.596691286851e-06
    47   -1.625862210973e-03
    48    7.317687830486e-04
    49    1.384368214432e-01
    50    2.440650275482e-05
    51   -2.664571582236e-03
    52    1.236470529232e-03
    53    2.276536002528e-01
    54   -1.396399028883e-04
    55   -2.379186120674e-03
    56    1.341491545601e-03
    57    2.034531558777e-01
    58   -2.967077189369e-04
    59   -1.463321232526e-04
    60    5.889440866434e-05
    61    2.716923574061e-02
    62    1.420748281698e-04
    63   -1.205908978484e-03
    64   -1.418056621078e-02
    65    1.021980374106e-04
    66    1.589146763210e-04
    67   -1.782952833931e-05
    68   -2.825893019875e-05
    69   -1.297831123659e-03
    70    9.725048859877e-04
    71    1.229583363802e-01
    72    8.216304844535e-05
    73   -2.128470823563e-03
    74    1.553169148689e-03
    75    2.006618435040e-01
    76    2.002811943612e-04
    77   -1.810311788425e-03
    78    1.356921076139e-03
    79    1.685836663802e-01
    80   -3.954476360795e-04
    81   -3.388415483367e-04
    82   -2.852788689747e-05
    83    1.152945738795e-02
    84    1.419147201191e-05
    85    8.397411037450e-03
    86    1.251837511641e-02
    87   -1.814054125558e-04
    88   -3.319426142016e-05
    89    3.520773660960e-05
    90    5.576711778658e-05
    91    1.352688131483e-03
    92   -5.897845326294e-04
    93   -1.262467752474e-01
    94   -1.586876004376e-04
    95    2.224397346694e-03
    96   -1.017221345297e-03
    97   -2.059267630290e-01
    98   -2.024789611563e-04
    99    1.926869426633e-03
   100   -9.724939992351e-04
   101   -1.817288032183e-01
   102    1.786548214459e-04
   103    1.074399410519e-04
   104   -2.522561665504e-04
   105   -1.300686079755e-02
   106    1.569679947120e-05
   107   -6.181683666637e-03
   108   -1.169300233053e-02
   109    1.402584349396e-04
   110    1.252807894371e-04
   111   -1.804479851979e-04
   112   -2.491370252763e-04
   113   -6.610096026472e-05
   114    4.530387964292e-05
   115    7.120943044209e-05
   116    3.432982234248e-05
   117   -9.355117601160e-05
   118   -1.459862998091e-04
   119   -4.331808260554e-05
   120   -1.530691427168e-05
   121   -1.454219599397e-05
   122   -1.958118607213e-06
   123   -1.625380920747e-05
   124   -2.600398696343e-05
   125    1.048310964794e-04
   126   -3.646804038900e-05
   127   -5.794167100077e-04
   128    8.173413062330e-05
   129    1.612653174992e-04
   130   -5.426923731254e-05
   131   -3.062288212917e-04
   132    9.713601271597e-05
   133    9.483383310380e-05
   134   -9.768854117083e-05
   135   -5.658804850111e-03
   136    6.078039226308e-05
   137    3.427051918611e-04
   138   -4.497810912663e-04
   139   -3.951489485564e-02
   140   -2.513493047653e-04
   141   -1.782765518379e-02
   142   -7.841881156297e-03
   143    2.290874307599e-04
   144   -5.366519397316e-05
   145    1.299625582195e-05
   146    2.124958102401e-05
   147    6.004726256685e-04
   148   -4.397388051886e-04
   149   -7.335502647882e-02
   150   -6.421890291223e-05
   151    8.898180787068e-04
   152   -6.512829924766e-04
   153   -1.086613612605e-01
   154   -6.408544558399e-05
   155    8.657839465975e-04
   156   -6.180505346168e-04
   157   -1.053424160898e-01
   158    1.595774096307e-04
   159   -1.232382556584e-05
   160   -4.086980348192e-05
   161   -2.219080341854e-03
   162   -1.655369654568e-05
   163    2.418092580940e-03
   164    4.972061163174e-03
   165   -5.451467826257e-05
   166   -3.032593673562e-05
   167    1.412870104761e-05
   168    2.326344415986e-05
   169    2.108416190248e-04
   170    6.737449656435e-05
   171   -1.387555639123e-02
   172   -6.453975585213e-05
   173    3.182193159998e-04
   174    9.488984021255e-05
   175   -2.084934603866e-02
   176   -1.261882851472e-04
   177    3.415287958647e-04
   178    2.951534206540e-05
   179   -2.070864441405e-02
   180   -1.815091749486e-04
   181   -7.037157918895e-05
   182    3.524925962062e-05
   183    9.248699357864e-03
   184   -2.186881833503e-06
   185   -6.452420164230e-04
   186   -1.232507220253e-03
   187    5.146226985585e-07
   188    7.432046383303e-06
   189    1.006970015175e-05
   190    1.582362675143e-05
   191   -2.088502737836e-05
   192   -3.053162040778e-04
   193   -1.517931962488e-03
   194   -5.174027529402e-05
   195   -5.010166260275e-05
   196   -4.804354645297e-04
   197   -1.839925627447e-03
   198    1.101530087166e-04
   199   -1.359507202193e-04
   200   -3.431447984298e-04
   201   -3.613382404518e-03
   202   -3.184256098929e-04
   203    3.234539577019e-04
   204    1.069652307762e-04
   205   -4.011924816972e-03
   206    5.705403568427e-04
   207    2.136531488212e-02
   208   -1.459836182561e-02
   209   -1.324518383529e-04
   210    3.729394000905e-04
   211    8.172668434651e-06
   212    2.643836988989e-05
   213   -7.126955583326e-05
   214   -8.895660606501e-05
   215    1.784184771577e-04
   216    2.138070909090e-04
   217   -3.989152480085e-04
   218   -3.567250699850e-04
   219   -1.479266794997e-05
   220    3.180126370816e-05
   221    1.065848696982e-03
   222   -1.221627568570e-04
   223    2.623921274411e-04
   224    8.798336023408e-03
   225    3.200872473028e-04
   226   -6.829597563252e-04
   227   -2.297497259390e-02
   228    1.170618375815e-04
   229   -2.609073163353e-04
   230   -8.586040431988e-03
   231   -2.625600060602e-04
   232    5.660453024868e-04
   233    1.890923023460e-02
   234   -6.350281322783e-04
   235    1.307640118546e-03
   236    4.476599887609e-02
   237   -5.129188053673e-04
   238    6.450300580107e-04
   239    2.862474361665e-02
   240   -8.669151489342e-06
   241   -8.744552318087e-04
   242    6.624405196006e-04
   243    2.425715264849e-05
   244   -4.463154769405e-05
   245   -5.444786760312e-06
   246   -1.626202816212e-04
   247    1.183766783156e-04
   248    1.887698049730e-06
   249   -3.002590101790e-06
   250    1.394462982860e-04
   251   -1.699863823959e-05
   252    6.901208013092e-05
   253    1.645130499681e-03
   254    4.137833039020e-05
   255    3.321710666904e-03
   256   -9.515603892099e-04
   257   -6.413723349241e-05
   258    8.517366144478e-05
Sym=X
Ene= -0.413535
Spin=Alpha
Occup=1
     1   -8.418961812718e-06
     2   -1.354261616985e-05
     3    1.254270634474e-03
     4   -7.456514935670e-04
     5   -1.146588006653e-01
     6    4.135633433190e-05
     7    2.045052322979e-03
     8   -1.216457797733e-03
     9   -1.875321531292e-01
    10   -5.075910044625e-05
    11    1.518829473561e-03
    12   -8.996221268422e-04
    13   -1.409155902350e-01
    14   -2.804353145105e-04
    15   -3.535389439489e-05
    16   -5.466683657247e-07
    17   -4.311189122935e-03
    18   -3.031640517023e-04
    19   -1.221477692469e-02
    20    6.187225780428e-03
    21    9.163366972382e-05
    22   -1.561350470994e-04
    23    1.221725372529e-06
    24    1.899143679901e-06
    25    1.484412296798e-03
    26   -9.293083822958e-04
    27   -1.363617448568e-01
    28   -8.209207883482e-06
    29    2.431863480972e-03
    30   -1.520347116098e-03
    31   -2.233381248912e-01
    32    1.007574372432e-04
    33    1.770998916719e-03
    34   -1.181798534585e-03
    35   -1.657897414961e-01
    36   -1.549537609647e-04
    37   -4.880091012727e-05
    38    3.543293265639e-06
    39   -6.687339418730e-03
    40    2.085820878284e-05
    41    7.613849124312e-03
    42    1.042275748537e-02
    43   -1.486452697820e-04
    44   -7.074365857738e-05
    45   -1.346374004258e-06
    46   -2.224348363218e-06
    47    1.115418153130e-03
    48   -6.809917800226e-04
    49   -1.022689244438e-01
    50    9.397777320627e-06
    51    1.828670082521e-03
    52   -1.113244334676e-03
    53   -1.675614362407e-01
    54   -5.304555994994e-05
    55    1.513327949967e-03
    56   -9.168749864550e-04
    57   -1.315711097185e-01
    58   -1.109370250140e-04
    59    8.336710694743e-05
    60    2.182699423600e-04
    61   -1.099094426960e-02
    62    3.067727377917e-04
    63    9.734259451382e-03
    64   -1.036082404178e-02
    65   -3.700931323498e-05
    66    1.788918976829e-04
    67   -3.967447522032e-06
    68   -6.240502322014e-06
    69    4.388772801012e-04
    70   -2.636306143065e-04
    71   -4.032035219517e-02
    72    1.452785557834e-05
    73    7.231399757723e-04
    74   -4.376228371275e-04
    75   -6.656493680724e-02
    76    1.076061626677e-04
    77    1.081983585995e-04
    78   -7.053448816923e-05
    79   -1.614547275038e-02
    80    2.855356324318e-04
    81    2.864086554391e-04
    82    1.386804524883e-04
    83   -6.958773545195e-03
    84    1.039883678183e-04
    85   -5.840224556367e-04
    86   -1.010235324270e-02
    87    7.451083448466e-05
    88    1.132339569815e-04
    89    1.276265453570e-05
    90    2.029123512460e-05
    91    6.532583364221e-04
    92   -3.921356421254e-04
    93   -6.099874194686e-02
    94   -5.863422950660e-05
    95    1.081293913082e-03
    96   -6.469649847484e-04
    97   -1.002408579739e-01
    98   -2.807757044630e-05
    99    5.760137973251e-04
   100   -3.057441031151e-04
   101   -5.194406056730e-02
   102    5.482584646824e-04
   103    1.772636756391e-04
   104   -1.987399359992e-04
   105   -1.015981713184e-02
   106   -9.027183759003e-05
   107   -9.025553291355e-03
   108   -7.122999849175e-03
   109    1.410465296105e-04
   110    2.105221424105e-05
   111    1.983921932070e-05
   112    1.989449271749e-05
   113    7.551123665144e-06
   114   -2.506416689914e-05
   115   -2.409901104425e-05
   116    2.125103181012e-05
   117   -7.017423036419e-06
   118   -1.153246249316e-06
   119    6.457725629366e-06
   120   -4.704851396068e-06
   121    1.175334234524e-07
   122   -2.918646358597e-06
   123   -4.407929893574e-06
   124   -7.133415650420e-06
   125   -2.984143805107e-04
   126    1.921362665756e-04
   127    2.906517458619e-02
   128    2.420090514177e-05
   129   -4.592683512228e-04
   130    2.943267114428e-04
   131    4.482280304596e-02
   132    8.302553949183e-06
   133   -4.209463081406e-04
   134    2.946044153079e-04
   135    4.100643773122e-02
   136   -5.883528583500e-05
   137   -3.178347640552e-04
   138    1.905208513389e-04
   139    3.122768089153e-02
   140    2.441836685901e-04
   141    1.331690002146e-02
   142    7.665835008139e-04
   143   -1.514231190072e-04
   144    7.972352702772e-05
   145    4.113053441305e-06
   146    6.714736696734e-06
   147   -5.162220788673e-04
   148    3.200400974714e-04
   149    4.721703150509e-02
   150   -2.037698991000e-05
   151   -7.728317406099e-04
   152    4.799078418455e-04
   153    7.077855927997e-02
   154   -3.393797966769e-05
   155   -6.714262321658e-04
   156    4.254870204899e-04
   157    6.140198137211e-02
   158    1.908882489526e-05
   159    5.499792653346e-05
   160   -3.625868107621e-05
   161   -5.158797893941e-03
   162    1.763594539373e-05
   163   -1.963365546253e-03
   164   -4.633973721942e-03
   165    5.217125878449e-05
   166    3.725821383969e-05
   167    6.020591599428e-06
   168    9.859354355412e-06
   169   -3.684623647342e-04
   170    2.584172220137e-04