[Molden Format]
[Atoms] (Angs)
  C      1    6      0.73800500      1.28081960     -0.05304325
  C      2    6      2.13107735      1.27623482     -0.03775458
  C      3    6      2.78774418      0.04994967     -0.02233513
  C      4    6      2.10787290     -1.16395883     -0.02177557
  C      5    6      0.02715627      0.07955847     -0.05285920
  H      6    1      0.20350732      2.22257168     -0.06513515
  H      7    1      2.70574282      2.19227310     -0.03751535
  H      8    1      2.65503181     -2.09648975     -0.00950659
  H      9    1     -1.05554128      0.07960796     -0.06461677
  N     10    7      4.25078279      0.02984995     -0.00604320
  O     11    8      4.85312968      1.12722449     -0.00700032
  O     12    8      4.82301363     -1.08336832      0.00783743
  C     13    6      0.72203597     -1.12622675     -0.03726783
 Br     14   35     -0.25419454     -2.77854143     -0.03668405
[GTO]
1    0
S    6    1.000000
   4.56324000E+03    1.96665000E-03 
   6.82024000E+02    1.52306000E-02 
   1.54973000E+02    7.61269000E-02 
   4.44553000E+01    2.60801000E-01 
   1.30290000E+01    6.16462000E-01 
   1.82773000E+00    2.21006000E-01 
SP   3    1.000000
   2.09642000E+01    1.14660000E-01   4.02487000E-02 
   4.80331000E+00    9.19999000E-01   2.37594000E-01 
   1.45933000E+00   -3.03068000E-03   8.15854000E-01 
SP   1    1.000000
   4.83456000E-01    1.00000000E+00   1.00000000E+00 
SP   1    1.000000
   1.45585000E-01    1.00000000E+00   1.00000000E+00 
SP   1    1.000000
   4.38000000E-02    1.00000000E+00   1.00000000E+00 
D    1    1.000000
   6.26000000E-01    1.00000000E+00 

2    0
S    6    1.000000
   4.56324000E+03    1.96665000E-03 
   6.82024000E+02    1.52306000E-02 
   1.54973000E+02    7.61269000E-02 
   4.44553000E+01    2.60801000E-01 
   1.30290000E+01    6.16462000E-01 
   1.82773000E+00    2.21006000E-01 
SP   3    1.000000
   2.09642000E+01    1.14660000E-01   4.02487000E-02 
   4.80331000E+00    9.19999000E-01   2.37594000E-01 
   1.45933000E+00   -3.03068000E-03   8.15854000E-01 
SP   1    1.000000
   4.83456000E-01    1.00000000E+00   1.00000000E+00 
SP   1    1.000000
   1.45585000E-01    1.00000000E+00   1.00000000E+00 
SP   1    1.000000
   4.38000000E-02    1.00000000E+00   1.00000000E+00 
D    1    1.000000
   6.26000000E-01    1.00000000E+00 

3    0
S    6    1.000000
   4.56324000E+03    1.96665000E-03 
   6.82024000E+02    1.52306000E-02 
   1.54973000E+02    7.61269000E-02 
   4.44553000E+01    2.60801000E-01 
   1.30290000E+01    6.16462000E-01 
   1.82773000E+00    2.21006000E-01 
SP   3    1.000000
   2.09642000E+01    1.14660000E-01   4.02487000E-02 
   4.80331000E+00    9.19999000E-01   2.37594000E-01 
   1.45933000E+00   -3.03068000E-03   8.15854000E-01 
SP   1    1.000000
   4.83456000E-01    1.00000000E+00   1.00000000E+00 
SP   1    1.000000
   1.45585000E-01    1.00000000E+00   1.00000000E+00 
SP   1    1.000000
   4.38000000E-02    1.00000000E+00   1.00000000E+00 
D    1    1.000000
   6.26000000E-01    1.00000000E+00 

4    0
S    6    1.000000
   4.56324000E+03    1.96665000E-03 
   6.82024000E+02    1.52306000E-02 
   1.54973000E+02    7.61269000E-02 
   4.44553000E+01    2.60801000E-01 
   1.30290000E+01    6.16462000E-01 
   1.82773000E+00    2.21006000E-01 
SP   3    1.000000
   2.09642000E+01    1.14660000E-01   4.02487000E-02 
   4.80331000E+00    9.19999000E-01   2.37594000E-01 
   1.45933000E+00   -3.03068000E-03   8.15854000E-01 
SP   1    1.000000
   4.83456000E-01    1.00000000E+00   1.00000000E+00 
SP   1    1.000000
   1.45585000E-01    1.00000000E+00   1.00000000E+00 
SP   1    1.000000
   4.38000000E-02    1.00000000E+00   1.00000000E+00 
D    1    1.000000
   6.26000000E-01    1.00000000E+00 

5    0
S    6    1.000000
   4.56324000E+03    1.96665000E-03 
   6.82024000E+02    1.52306000E-02 
   1.54973000E+02    7.61269000E-02 
   4.44553000E+01    2.60801000E-01 
   1.30290000E+01    6.16462000E-01 
   1.82773000E+00    2.21006000E-01 
SP   3    1.000000
   2.09642000E+01    1.14660000E-01   4.02487000E-02 
   4.80331000E+00    9.19999000E-01   2.37594000E-01 
   1.45933000E+00   -3.03068000E-03   8.15854000E-01 
SP   1    1.000000
   4.83456000E-01    1.00000000E+00   1.00000000E+00 
SP   1    1.000000
   1.45585000E-01    1.00000000E+00   1.00000000E+00 
SP   1    1.000000
   4.38000000E-02    1.00000000E+00   1.00000000E+00 
D    1    1.000000
   6.26000000E-01    1.00000000E+00 

6    0
S    3    1.000000
   3.38650000E+01    2.54938000E-02 
   5.09479000E+00    1.90373000E-01 
   1.15879000E+00    8.52161000E-01 
S    1    1.000000
   3.25840000E-01    1.00000000E+00 
S    1    1.000000
   1.02741000E-01    1.00000000E+00 

7    0
S    3    1.000000
   3.38650000E+01    2.54938000E-02 
   5.09479000E+00    1.90373000E-01 
   1.15879000E+00    8.52161000E-01 
S    1    1.000000
   3.25840000E-01    1.00000000E+00 
S    1    1.000000
   1.02741000E-01    1.00000000E+00 

8    0
S    3    1.000000
   3.38650000E+01    2.54938000E-02 
   5.09479000E+00    1.90373000E-01 
   1.15879000E+00    8.52161000E-01 
S    1    1.000000
   3.25840000E-01    1.00000000E+00 
S    1    1.000000
   1.02741000E-01    1.00000000E+00 

9    0
S    3    1.000000
   3.38650000E+01    2.54938000E-02 
   5.09479000E+00    1.90373000E-01 
   1.15879000E+00    8.52161000E-01 
S    1    1.000000
   3.25840000E-01    1.00000000E+00 
S    1    1.000000
   1.02741000E-01    1.00000000E+00 

10    0
S    6    1.000000
   6.29348000E+03    1.96979000E-03 
   9.49044000E+02    1.49613000E-02 
   2.18776000E+02    7.35006000E-02 
   6.36916000E+01    2.48937000E-01 
   1.88282000E+01    6.02460000E-01 
   2.72023000E+00    2.56202000E-01 
SP   3    1.000000
   3.06331000E+01    1.11906000E-01   3.83119000E-02 
   7.02614000E+00    9.21666000E-01   2.37403000E-01 
   2.11205000E+00   -2.56919000E-03   8.17592000E-01 
SP   1    1.000000
   6.84009000E-01    1.00000000E+00   1.00000000E+00 
SP   1    1.000000
   2.00878000E-01    1.00000000E+00   1.00000000E+00 
SP   1    1.000000
   6.39000000E-02    1.00000000E+00   1.00000000E+00 
D    1    1.000000
   9.13000000E-01    1.00000000E+00 

11    0
S    6    1.000000
   8.58850000E+03    1.89515000E-03 
   1.29723000E+03    1.43859000E-02 
   2.99296000E+02    7.07320000E-02 
   8.73771000E+01    2.40001000E-01 
   2.56789000E+01    5.94797000E-01 
   3.74004000E+00    2.80802000E-01 
SP   3    1.000000
   4.21175000E+01    1.13889000E-01   3.65114000E-02 
   9.62837000E+00    9.20811000E-01   2.37153000E-01 
   2.85332000E+00   -3.27447000E-03   8.19702000E-01 
SP   1    1.000000
   9.05661000E-01    1.00000000E+00   1.00000000E+00 
SP   1    1.000000
   2.55611000E-01    1.00000000E+00   1.00000000E+00 
SP   1    1.000000
   8.45000000E-02    1.00000000E+00   1.00000000E+00 
D    1    1.000000
   1.29200000E+00    1.00000000E+00 

12    0
S    6    1.000000
   8.58850000E+03    1.89515000E-03 
   1.29723000E+03    1.43859000E-02 
   2.99296000E+02    7.07320000E-02 
   8.73771000E+01    2.40001000E-01 
   2.56789000E+01    5.94797000E-01 
   3.74004000E+00    2.80802000E-01 
SP   3    1.000000
   4.21175000E+01    1.13889000E-01   3.65114000E-02 
   9.62837000E+00    9.20811000E-01   2.37153000E-01 
   2.85332000E+00   -3.27447000E-03   8.19702000E-01 
SP   1    1.000000
   9.05661000E-01    1.00000000E+00   1.00000000E+00 
SP   1    1.000000
   2.55611000E-01    1.00000000E+00   1.00000000E+00 
SP   1    1.000000
   8.45000000E-02    1.00000000E+00   1.00000000E+00 
D    1    1.000000
   1.29200000E+00    1.00000000E+00 

13    0
S    6    1.000000
   4.56324000E+03    1.96665000E-03 
   6.82024000E+02    1.52306000E-02 
   1.54973000E+02    7.61269000E-02 
   4.44553000E+01    2.60801000E-01 
   1.30290000E+01    6.16462000E-01 
   1.82773000E+00    2.21006000E-01 
SP   3    1.000000
   2.09642000E+01    1.14660000E-01   4.02487000E-02 
   4.80331000E+00    9.19999000E-01   2.37594000E-01 
   1.45933000E+00   -3.03068000E-03   8.15854000E-01 
SP   1    1.000000
   4.83456000E-01    1.00000000E+00   1.00000000E+00 
SP   1    1.000000
   1.45585000E-01    1.00000000E+00   1.00000000E+00 
SP   1    1.000000
   4.38000000E-02    1.00000000E+00   1.00000000E+00 
D    1    1.000000
   6.26000000E-01    1.00000000E+00 

14    0
S    6    1.000000
   4.39700000E+05    8.13000000E-04 
   6.60300000E+04    6.28500000E-03 
   1.51400000E+04    3.19200000E-02 
   4.31700000E+03    1.28800000E-01 
   1.41400000E+03    3.94600000E-01 
   5.23900000E+02    5.41300000E-01 
S    3    1.000000
   5.23900000E+02    1.83100000E-01 
   2.07700000E+02    6.17600000E-01 
   8.65400000E+01    2.53800000E-01 
S    1    1.000000
   3.05200000E+01    1.00000000E+00 
S    1    1.000000
   1.29800000E+01    1.00000000E+00 
S    1    1.000000
   4.41200000E+00    1.00000000E+00 
S    1    1.000000
   1.86200000E+00    1.00000000E+00 
S    1    1.000000
   3.93200000E-01    1.00000000E+00 
S    1    1.000000
   1.40000000E-01    1.00000000E+00 
P    3    1.000000
   2.95700000E+03    2.22600000E-02 
   7.00300000E+02    1.80200000E-01 
   2.24600000E+02    8.62400000E-01 
P    3    1.000000
   8.25900000E+01    3.44000000E-01 
   3.31900000E+01    5.07100000E-01 
   1.42000000E+01    2.59000000E-01 
P    3    1.000000
   1.42000000E+01    7.96500000E-02 
   7.43800000E+00    3.73400000E-01 
   3.52600000E+00    6.04900000E-01 
P    1    1.000000
   1.59500000E+00    1.00000000E+00 
P    1    1.000000
   8.46200000E-01    1.00000000E+00 
P    1    1.000000
   3.18600000E-01    1.00000000E+00 
P    1    1.000000
   1.09600000E-01    1.00000000E+00 
D    4    1.000000
   1.34800000E+02    1.83100000E-02 
   3.63900000E+01    1.35000000E-01 
   1.21600000E+01    4.26100000E-01 
   4.34100000E+00    6.04300000E-01 
D    1    1.000000
   1.53500000E+00    1.00000000E+00 
SP   1    1.000000
   3.90000000E-02    1.00000000E+00   1.00000000E+00 
D    1    1.000000
   4.15000000E-01    1.00000000E+00 

[MO]
Sym=X
Ene= -0.107893
Spin=Alpha
Occup=1
     1   -6.341957794987e-05
     2   -9.784027277855e-05
     3   -2.409705104108e-04
     4    5.277226331046e-04
     5    1.482140425290e-01
     6    2.528230526966e-04
     7   -7.127698085048e-04
     8    8.232770736530e-04
     9    2.412158279007e-01
    10    2.210327642724e-03
    11    1.660471996226e-03
    12    1.664598189806e-03
    13    1.966134251899e-01
    14    2.739383313451e-02
    15    2.671221444834e-02
    16    1.260969128123e-02
    17    3.302089984777e-02
    18    2.164438232258e-04
    19    4.781412930545e-03
    20   -9.625503973439e-03
    21    1.418732866702e-04
    22    3.361372884270e-04
    23    3.954264101887e-04
    24    6.408521950795e-04
    25   -2.717964912150e-03
    26    1.138756048948e-03
    27    9.642265715232e-02
    28   -1.862103201515e-03
    29   -4.411201337600e-03
    30    1.633462651556e-03
    31    1.579365789422e-01
    32   -2.260421741641e-03
    33    6.861740323230e-04
    34   -5.586510070571e-04
    35    1.184432298587e-01
    36   -1.668130599903e-02
    37    3.399410007618e-02
    38   -1.529442639439e-02
    39   -1.916442205174e-02
    40   -3.025023674400e-04
    41   -1.684202443714e-02
    42   -8.706806672110e-04
    43    5.533314071205e-04
    44   -8.052275533867e-05
    45    1.802648351530e-04
    46    2.878205117624e-04
    47    1.062115521056e-03
    48   -7.690103447150e-04
    49    2.020509729818e-03
    50   -8.101414787243e-04
    51    1.709437621223e-03
    52   -1.482381159719e-03
    53    1.968640780944e-03
    54    5.899958527701e-04
    55    1.746437647737e-03
    56   -3.732883105940e-03
    57   -9.792054923649e-03
    58    7.059969696053e-03
    59   -1.772992727555e-03
    60   -2.824627541792e-02
    61    2.775006269052e-02
    62   -2.915614132365e-04
    63   -5.322055046701e-03
    64    1.435062357042e-02
    65    2.758758288734e-04
    66   -1.922462213041e-05
    67   -6.616568724889e-04
    68   -1.069327964920e-03
    69    7.660604102880e-05
    70   -7.340191258581e-04
    71   -4.381511064970e-02
    72    3.069085223400e-03
    73    6.292638639345e-04
    74   -1.216742081085e-03
    75   -7.252314054590e-02
    76    4.607408261455e-03
    77   -4.788790979500e-03
    78   -2.549409457282e-03
    79   -6.505428460899e-02
    80    2.095897179093e-02
    81   -3.692202416715e-02
    82   -1.679893774322e-02
    83   -3.150919486178e-02
    84   -1.597134939541e-05
    85    1.159028320886e-03
    86    1.946221991680e-03
    87   -1.497624296930e-04
    88   -7.620940555865e-05
    89   -1.107757916002e-04
    90   -1.792290670657e-04
    91   -1.900441814525e-03
    92    8.921193292308e-04
    93    1.016658553379e-01
    94    4.899331009031e-04
    95   -3.033456202617e-03
    96    1.264167339477e-03
    97    1.654068632833e-01
    98    6.672297689420e-04
    99   -2.254944939419e-03
   100    2.641239391221e-03
   101    1.427108548508e-01
   102   -1.074432430400e-02
   103   -5.074702058413e-04
   104    2.610952959386e-02
   105   -1.450447539942e-02
   106   -1.634157114952e-05
   107    8.662927226005e-03
   108    1.605344949539e-02
   109    1.928485141082e-04
   110   -8.409335338146e-05
   111   -9.300314913669e-04
   112   -1.359490946254e-03
   113   -5.401516913446e-04
   114   -5.300521801353e-04
   115   -6.304348545412e-04
   116    9.262553963168e-04
   117    4.429459216319e-04
   118    4.697813681458e-04
   119   -1.070210181944e-03
   120    9.638108462951e-04
   121    1.423604520117e-03
   122    6.184487198027e-04
   123   -1.771582484324e-04
   124   -2.855047139615e-04
   125   -8.497559299367e-04
   126   -9.878498311939e-04
   127   -1.281333708169e-02
   128    8.804003679974e-04
   129   -1.315719011148e-03
   130   -1.842117049414e-03
   131   -1.974425296303e-02
   132    7.243462126357e-04
   133   -8.939761286025e-05
   134    4.319276710377e-03
   135   -1.731383488417e-02
   136   -3.078788971842e-05
   137    1.023307419716e-03
   138   -6.950712772141e-03
   139   -1.434654535982e-02
   140    1.165001008550e-04
   141    9.672815372711e-05
   142   -4.988215634220e-03
   143    2.791188621678e-04
   144   -1.910893969181e-03
   145    7.564516258977e-06
   146    8.774625951832e-06
   147   -6.294025982218e-03
   148    7.070366721143e-03
   149   -2.561822422948e-02
   150   -1.619581308761e-04
   151   -9.399510459550e-03
   152    1.036913292672e-02
   153   -3.831163359363e-02
   154   -2.490545845097e-03
   155   -8.377831551871e-03
   156    1.016095986667e-02
   157   -3.356667156502e-02
   158    5.409088045790e-03
   159   -1.161849679804e-03
   160   -9.942417407817e-04
   161    1.504815047595e-03
   162    2.145669628210e-05
   163    1.310967140470e-03
   164    2.259784144354e-03
   165    6.322881535337e-04
   166    1.391634568899e-04
   167   -4.822218687462e-06
   168   -7.702777452896e-06
   169    8.660942253821e-03
   170    7.129519693083e-03
   171    2.206069368701e-02
   172    1.217875077917e-04
   173    1.287301007208e-02
   174    1.045902832410e-02
   175    3.267473718006e-02
   176    2.313613807799e-03
   177    1.161831595601e-02
   178    1.038529175749e-02
   179    3.382347228333e-02
   180   -5.644186898046e-03
   181    1.010591373732e-03
   182   -1.142521911884e-03
   183    1.067261200934e-02
   184   -7.243170268322e-06
   185   -3.651809596039e-04
   186    7.636036712088e-04
   187   -6.701068694037e-04
   188    2.456541199470e-04
   189    3.215717243248e-04
   190    5.125034972682e-04
   191    1.479219329244e-03
   192    1.518146555986e-04
   193   -1.923282664248e-02
   194   -1.341524834305e-03
   195    2.386119671137e-03
   196    3.275379137640e-04
   197   -3.211816659001e-02
   198   -5.982098765296e-03
   199   -1.843893594771e-03
   200    1.427654886440e-03
   201   -4.526571401036e-02
   202   -2.534817573058e-02
   203   -3.341520835156e-02
   204    1.588965630979e-02
   205    2.006459256099e-02
   206   -3.297130339074e-04
   207   -5.053701057528e-03
   208    2.113839616667e-02
   209    1.471700196737e-04
   210   -4.551819271786e-04
   211   -4.738645881126e-05
   212   -1.533581629695e-04
   213    4.139886410682e-04
   214    5.112647195748e-04
   215   -1.017983527133e-03
   216   -1.258943831060e-03
   217    2.371531001824e-03
   218    1.838513784428e-03
   219    5.182273461088e-05
   220   -1.288570000222e-04
   221   -7.755967886617e-03
   222    4.285137808733e-04
   223   -1.063218985827e-03
   224   -6.402651453491e-02
   225   -1.128052026840e-03
   226    2.767528398630e-03
   227    1.671831465387e-01
   228   -3.729258164709e-04
   229    1.054864819794e-03
   230    6.206761771433e-02
   231    8.329008142447e-04
   232   -2.276987212702e-03
   233   -1.362062384750e-01
   234    2.421101484577e-03
   235   -5.273845229250e-03
   236   -3.265306403308e-01
   237    1.794508310183e-03
   238   -2.574619609674e-03
   239   -1.932723406034e-01
   240   -1.179622669294e-04
   241    2.865731182741e-03
   242    3.994041711977e-03
   243   -2.100541126552e-04
   244    1.667691161758e-04
   245   -1.598673901315e-05
   246    4.983018405960e-04
   247    7.679783439610e-04
   248   -3.297935801292e-05
   249    3.401724017243e-06
   250   -2.006224563803e-03
   251   -1.469032206235e-04
   252   -6.384562432520e-04
   253   -4.999326612009e-03
   254    1.200559076929e-04
   255   -8.328535461252e-03
   256   -1.053569870909e-02
   257    4.487921269747e-04
   258   -1.243077697393e-04
Sym=X
Ene= -0.112820
Spin=Alpha
Occup=1
     1    3.232398488513e-03
     2    5.092977868705e-03
     3   -2.590045606092e-02
     4    9.951029415249e-03
     5    7.486487452098e-03
     6   -1.372938862283e-02
     7   -3.597542307202e-02
     8    1.636058017758e-02
     9    1.225403293461e-02
    10   -5.551034065731e-02
    11   -7.520136216209e-02
    12   -4.565914467376e-03
    13    9.770941890020e-03
    14   -5.188659212884e-01
    15   -5.491358794701e-01
    16   -2.612965250119e-01
    17   -2.686706722843e-03
    18   -2.003332535356e-04
    19    1.245316931805e-04
    20   -5.907231696678e-04
    21   -2.277816010048e-03
    22   -3.430004118655e-03
    23   -8.133978738343e-03
    24   -1.319106744511e-02
    25    3.366135173400e-02
    26   -8.639068967142e-03
    27    4.614861157290e-03
    28    3.838841975076e-02
    29    5.473391894732e-02
    30   -9.638645966962e-03
    31    7.533645258912e-03
    32    4.841016397845e-02
    33   -4.161484899544e-02
    34    2.825642802688e-02
    35    4.599006459342e-03
    36    2.988703983478e-01
    37   -6.876288368331e-01
    38    3.172309581572e-01
    39   -1.046092126596e-02
    40   -1.463530262741e-04
    41   -1.055612045581e-03
    42    6.323323203923e-05
    43   -7.457266066646e-03
    44   -3.837624507465e-04
    45   -2.370353453659e-03
    46   -3.764323539273e-03
    47   -2.050520650237e-02
    48    1.794982066729e-02
    49   -1.914111402672e-03
    50    1.038595135477e-02
    51   -3.300692947197e-02
    52    3.343005795606e-02
    53   -3.222117474460e-03
    54   -1.969425408740e-02
    55   -3.332285726293e-02
    56    7.599847722567e-02
    57   -3.734821291370e-03
    58   -1.127155643297e-01
    59    2.279267652572e-02
    60    5.845352591383e-01
    61   -2.891244654207e-03
    62    3.912907543647e-04
    63   -2.508500131707e-04
    64    7.086570441711e-04
    65   -5.519435298043e-03
    66   -3.189522536993e-03
    67    1.265614595445e-02
    68    2.049137043381e-02
    69    5.799569042884e-04
    70    9.099177695262e-03
    71   -3.478206236781e-03
    72   -5.890254244162e-02
    73   -7.552057951924e-03
    74    1.561212969897e-02
    75   -5.835420677100e-03
    76   -9.414316035446e-02
    77    1.061608928447e-01
    78    4.308170267319e-02
    79   -4.016891334125e-03
    80   -4.480216069234e-01
    81    7.692346520127e-01
    82    3.366042100477e-01
    83    4.982373734139e-03
    84    3.786106125068e-04
    85   -1.060310083629e-05
    86   -4.680415313697e-05
    87    3.165962186834e-03
    88    6.568823620741e-05
    89    8.088604570283e-04
    90    1.341360459701e-03
    91    1.282145904700e-02
    92   -6.755346579018e-03
    93    5.970440655389e-03
    94   -3.670446675278e-03
    95    1.951957354553e-02
    96   -6.753408508310e-03
    97    9.678586461790e-03
    98   -9.766883136000e-04
    99    1.184629128646e-02
   100   -3.714242644304e-02
   101    8.514163723374e-03
   102    1.689635813923e-01
   103    6.241167714111e-03
   104   -5.303369233046e-01
   105    3.228129343584e-03
   106   -8.244308897975e-05
   107    3.881579846509e-04
   108    7.725930644675e-04
   109   -5.705602209941e-03
   110   -1.565271426196e-03
   111    1.666211219320e-02
   112    2.535418544762e-02
   113    9.726517322297e-03
   114    1.164708296421e-02
   115    1.376190802544e-02
   116   -1.900888914562e-02
   117   -1.066182577529e-02
   118   -1.096025752138e-02
   119    2.254680527977e-02
   120   -1.434911500352e-02
   121   -2.165664393349e-02
   122   -9.098875785193e-03
   123    3.543886781160e-03
   124    5.714409711811e-03
   125    1.720125620999e-02
   126    1.934863561835e-02
   127   -4.099090036481e-04
   128   -1.772424681491e-02
   129    2.672222388833e-02
   130    3.642605754595e-02
   131   -6.789141717027e-04
   132   -1.447264889342e-02
   133    5.577375280084e-04
   134   -9.048220098887e-02
   135    4.380591992257e-05
   136   -1.522458902903e-03
   137   -1.990948651228e-02
   138    1.410162914983e-01
   139   -1.278432657767e-03
   140   -1.034198088671e-03
   141   -1.017399555409e-04
   142    5.233902689594e-05
   143   -5.520004189589e-03
   144    4.067004622227e-02
   145   -8.129712407923e-04
   146   -1.248912551636e-03
   147    1.353181483431e-01
   148   -1.483560938019e-01
   149    1.407895508505e-03
   150    6.485180553512e-03
   151    2.020963376445e-01
   152   -2.176750786451e-01
   153    2.074087213366e-03
   154    5.486098567125e-02
   155    1.802522054243e-01
   156   -2.137556562887e-01
   157    2.009995431005e-03
   158   -1.095085443978e-01
   159    2.417208918334e-02
   160    2.008942966105e-02
   161    3.015349255374e-05
   162   -4.434405045267e-04
   163   -5.346145077368e-05
   164   -4.335773811713e-05
   165   -1.345275221888e-02
   166   -3.125561499979e-03
   167   -7.158046576818e-04
   168   -1.169186237743e-03
   169   -1.855051693331e-01
   170   -1.473048876281e-01
   171    1.041468851918e-03
   172    1.399058885360e-03
   173   -2.757262766556e-01
   174   -2.160391476626e-01
   175    1.524503444132e-03
   176   -4.219453044076e-02
   177   -2.502473615849e-01
   178   -2.125024300835e-01
   179    1.746831159918e-03
   180    1.189516165778e-01
   181   -2.323133170535e-02
   182    2.573435770634e-02
   183    7.539359682544e-05
   184   -6.104735380015e-05
   185    1.428540134219e-04
   186    1.504976729549e-04
   187    1.413545004509e-02
   188   -5.357881024351e-03
   189   -4.919549218879e-03
   190   -7.813440455590e-03
   191   -1.512837849161e-02
   192    3.640745797591e-03
   193   -1.025101328776e-03
   194    2.030537360651e-02
   195   -2.487837048000e-02
   196    4.887617468319e-03
   197   -1.696120155783e-03
   198    1.068815970519e-01
   199    6.095992699444e-02
   200   -2.585980950491e-02
   201   -1.109190298014e-03
   202    5.714305067182e-01
   203    6.690060501437e-01
   204   -3.221267371533e-01
   205    1.015340320562e-02
   206   -4.006377286854e-06
   207   -5.562754760085e-04
   208    1.028167276112e-03
   209   -3.765654359624e-03
   210    1.882940891493e-03
   211    4.400793703524e-04
   212    1.424773074173e-03
   213   -3.850752484679e-03
   214   -4.702591593525e-03
   215    9.288056243438e-03
   216    1.180868450554e-02
   217   -2.214120777873e-02
   218   -1.681525821475e-02
   219    4.998799180951e-04
   220    4.975796517969e-04
   221   -3.101812625565e-04
   222    4.115450251288e-03
   223    4.103786733045e-03
   224   -2.560666611359e-03
   225   -1.062036792652e-02
   226   -1.066423399369e-02
   227    6.687011461727e-03
   228   -4.699928163619e-03
   229   -4.254602921365e-03
   230    2.476401435139e-03
   231    1.026766629353e-02
   232    9.075084487714e-03
   233   -5.431801184459e-03
   234    1.702967326034e-02
   235    1.938979141126e-02
   236   -1.308900651592e-02
   237    7.345090421807e-03
   238    9.335631529976e-03
   239   -7.738090934469e-03
   240    1.077102670905e-03
   241    1.358175797649e-04
   242    1.633698088889e-04
   243    1.449905316340e-03
   244   -2.162106347511e-03
   245    1.732797729696e-04
   246    2.084273805159e-05
   247    3.457949846617e-05
   248    2.545153052861e-04
   249   -1.041299300832e-04
   250    3.180246891233e-02
   251    3.445512556383e-03
   252    8.866691071783e-03
   253   -2.085802192265e-04
   254   -1.264759692916e-03
   255   -4.022854515961e-04
   256   -4.401894853431e-04
   257   -3.526464468225e-03
   258    9.087154569264e-04
Sym=X
Ene= -0.261263
Spin=Alpha
Occup=1
     1   -4.200613911749e-05
     2   -6.642893580950e-05
     3   -7.420941248718e-04
     4    2.107765321202e-04
     5    6.601984156546e-02
     6    1.826068939791e-04
     7   -1.210656164065e-03
     8    3.804646344146e-04
     9    1.083266575928e-01
    10    3.851509306102e-04
    11   -9.409858444839e-04
    12    3.361923451281e-04
    13    9.770266799155e-02
    14    1.541051082039e-03
    15    8.555679424481e-04
    16    4.812112087688e-04
    17    1.818603147915e-03
    18    2.308146156609e-04
    19    1.611152330667e-02
    20    6.636983685034e-03
    21   -2.081087748110e-04
    22    6.968571812902e-05
    23    3.705392325015e-05
    24    5.975150771478e-05
    25   -1.345011940945e-03
    26    8.424516668287e-04
    27    1.168193713519e-01
    28   -1.673877312837e-04
    29   -2.202937362131e-03
    30    1.356484395288e-03
    31    1.913628412479e-01
    32   -2.920463672736e-04
    33   -1.778126473574e-03
    34    1.202763536512e-03
    35    1.721827739315e-01
    36    6.985720736189e-04
    37    1.237308242246e-03
    38   -6.902087121975e-04
    39    2.577474544545e-02
    40   -5.063567281925e-05
    41   -4.655711453965e-03
    42   -2.734415679065e-03
    43    8.404799775014e-05
    44    2.998144027462e-05
    45    1.608623498934e-05
    46    2.567796741666e-05
    47   -3.334097262595e-04
    48    1.200172041762e-04
    49    3.462586226478e-02
    50   -6.938638613880e-05
    51   -5.610707750334e-04
    52    2.045337661380e-04
    53    5.761367305781e-02
    54   -9.886324705950e-05
    55   -4.720596369859e-04
    56    3.272363510503e-04
    57    5.508477835471e-02
    58   -8.563103177013e-04
    59    3.697310130260e-04
    60   -1.718665808318e-03
    61   -1.979819655579e-02
    62   -2.403900604962e-04
    63    1.168067751451e-03
    64    2.289226331727e-02
    65   -1.574858456033e-04
    66   -2.319066054089e-04
    67   -4.889291113117e-05
    68   -7.921373648181e-05
    69    1.107739348725e-03
    70   -6.692725341130e-04
    71   -9.810889051485e-02
    72    2.220447659706e-04
    73    1.817256198837e-03
    74   -1.115235034923e-03
    75   -1.599578612308e-01
    76    6.930100074161e-04
    77    1.417813694463e-03
    78   -9.248813159569e-04
    79   -1.504684725692e-01
    80   -7.906640279947e-04
    81   -1.470743360996e-03
    82   -3.765840203565e-04
    83    1.475161856884e-02
    84    2.738832861385e-04
    85    1.541027331968e-02
    86    1.575067204882e-03
    87   -1.816900292663e-04
    88    1.150264265471e-04
    89    2.886659409437e-05
    90    4.602019138504e-05
    91    6.590187837084e-04
    92   -9.968171683956e-05
    93   -5.745425217819e-02
    94   -1.301057530723e-04
    95    1.086284755806e-03
    96   -2.207015160526e-04
    97   -9.305936915734e-02
    98   -4.110250647259e-04
    99    9.325484184139e-04
   100   -3.022995795067e-04
   101   -9.013406409599e-02
   102    1.669265523691e-03
   103   -5.163832373738e-06
   104    1.434732570278e-04
   105    7.829172045994e-03
   106   -2.747686218261e-04
   107   -3.662053582565e-03
   108    1.779911743767e-02
   109   -9.294368847972e-05
   110   -1.822574845249e-04
   111   -1.394127339573e-04
   112   -1.980207612904e-04
   113   -6.470963525972e-05
   114    1.653164827414e-05
   115    4.231848143068e-05
   116    6.489077939646e-05
   117    2.125480532249e-05
   118    5.972716716953e-06
   119   -5.535340393069e-05
   120   -5.779846222398e-05
   121   -7.056157058176e-05
   122   -4.882662290627e-05
   123   -1.790502657163e-05
   124   -2.910799916733e-05
   125    4.931559777728e-06
   126   -6.881916180362e-05
   127   -1.299073901213e-03
   128    9.336290657242e-05
   129    7.420421423106e-06
   130   -1.200941261141e-04
   131   -1.965182380949e-03
   132    7.165751070674e-05
   133    6.615461330164e-05
   134    1.341271163618e-04
   135   -2.407416717906e-03
   136    2.005894814391e-05
   137   -1.240776351561e-05
   138   -2.623069344212e-04
   139    2.795685194562e-03
   140   -5.070884826923e-05
   141   -5.011201354648e-03
   142   -3.611667236317e-03
   143    9.095494028895e-05
   144   -1.005339818456e-04
   145    1.552529021958e-05
   146    2.511122613880e-05
   147   -3.427988208394e-06
   148    1.313330797926e-04
   149   -3.510938296400e-02
   150   -8.281511413678e-05
   151   -5.161518198532e-06
   152    1.866756741611e-04
   153   -5.243948166879e-02
   154   -1.821768297501e-04
   155    1.958644039481e-05
   156    2.016542673963e-04
   157   -4.951580622409e-02
   158    2.380696585205e-04
   159    1.103673644115e-05
   160   -8.777914873179e-05
   161   -6.512945761927e-03
   162   -1.124082182601e-05
   163    9.060184240633e-04
   164    2.355556679166e-03
   165    7.997843831185e-06
   166   -9.695907947511e-06
   167    1.495751411848e-05
   168    2.429412215885e-05
   169    4.024355567990e-04
   170    4.737747870012e-04