[Molden Format]
[Atoms] (Angs)
  C      1    6      0.73800500      1.28081960     -0.05304325
  C      2    6      2.13107735      1.27623482     -0.03775458
  C      3    6      2.78774418      0.04994967     -0.02233513
  C      4    6      2.10787290     -1.16395883     -0.02177557
  C      5    6      0.02715627      0.07955847     -0.05285920
  H      6    1      0.20350732      2.22257168     -0.06513515
  H      7    1      2.70574282      2.19227310     -0.03751535
  H      8    1      2.65503181     -2.09648975     -0.00950659
  H      9    1     -1.05554128      0.07960796     -0.06461677
  N     10    7      4.25078279      0.02984995     -0.00604320
  O     11    8      4.85312968      1.12722449     -0.00700032
  O     12    8      4.82301363     -1.08336832      0.00783743
  C     13    6      0.72203597     -1.12622675     -0.03726783
 Br     14   35     -0.25419454     -2.77854143     -0.03668405
[GTO]
1    0
S    6    1.000000
   4.56324000E+03    1.96665000E-03 
   6.82024000E+02    1.52306000E-02 
   1.54973000E+02    7.61269000E-02 
   4.44553000E+01    2.60801000E-01 
   1.30290000E+01    6.16462000E-01 
   1.82773000E+00    2.21006000E-01 
SP   3    1.000000
   2.09642000E+01    1.14660000E-01   4.02487000E-02 
   4.80331000E+00    9.19999000E-01   2.37594000E-01 
   1.45933000E+00   -3.03068000E-03   8.15854000E-01 
SP   1    1.000000
   4.83456000E-01    1.00000000E+00   1.00000000E+00 
SP   1    1.000000
   1.45585000E-01    1.00000000E+00   1.00000000E+00 
SP   1    1.000000
   4.38000000E-02    1.00000000E+00   1.00000000E+00 
D    1    1.000000
   6.26000000E-01    1.00000000E+00 

2    0
S    6    1.000000
   4.56324000E+03    1.96665000E-03 
   6.82024000E+02    1.52306000E-02 
   1.54973000E+02    7.61269000E-02 
   4.44553000E+01    2.60801000E-01 
   1.30290000E+01    6.16462000E-01 
   1.82773000E+00    2.21006000E-01 
SP   3    1.000000
   2.09642000E+01    1.14660000E-01   4.02487000E-02 
   4.80331000E+00    9.19999000E-01   2.37594000E-01 
   1.45933000E+00   -3.03068000E-03   8.15854000E-01 
SP   1    1.000000
   4.83456000E-01    1.00000000E+00   1.00000000E+00 
SP   1    1.000000
   1.45585000E-01    1.00000000E+00   1.00000000E+00 
SP   1    1.000000
   4.38000000E-02    1.00000000E+00   1.00000000E+00 
D    1    1.000000
   6.26000000E-01    1.00000000E+00 

3    0
S    6    1.000000
   4.56324000E+03    1.96665000E-03 
   6.82024000E+02    1.52306000E-02 
   1.54973000E+02    7.61269000E-02 
   4.44553000E+01    2.60801000E-01 
   1.30290000E+01    6.16462000E-01 
   1.82773000E+00    2.21006000E-01 
SP   3    1.000000
   2.09642000E+01    1.14660000E-01   4.02487000E-02 
   4.80331000E+00    9.19999000E-01   2.37594000E-01 
   1.45933000E+00   -3.03068000E-03   8.15854000E-01 
SP   1    1.000000
   4.83456000E-01    1.00000000E+00   1.00000000E+00 
SP   1    1.000000
   1.45585000E-01    1.00000000E+00   1.00000000E+00 
SP   1    1.000000
   4.38000000E-02    1.00000000E+00   1.00000000E+00 
D    1    1.000000
   6.26000000E-01    1.00000000E+00 

4    0
S    6    1.000000
   4.56324000E+03    1.96665000E-03 
   6.82024000E+02    1.52306000E-02 
   1.54973000E+02    7.61269000E-02 
   4.44553000E+01    2.60801000E-01 
   1.30290000E+01    6.16462000E-01 
   1.82773000E+00    2.21006000E-01 
SP   3    1.000000
   2.09642000E+01    1.14660000E-01   4.02487000E-02 
   4.80331000E+00    9.19999000E-01   2.37594000E-01 
   1.45933000E+00   -3.03068000E-03   8.15854000E-01 
SP   1    1.000000
   4.83456000E-01    1.00000000E+00   1.00000000E+00 
SP   1    1.000000
   1.45585000E-01    1.00000000E+00   1.00000000E+00 
SP   1    1.000000
   4.38000000E-02    1.00000000E+00   1.00000000E+00 
D    1    1.000000
   6.26000000E-01    1.00000000E+00 

5    0
S    6    1.000000
   4.56324000E+03    1.96665000E-03 
   6.82024000E+02    1.52306000E-02 
   1.54973000E+02    7.61269000E-02 
   4.44553000E+01    2.60801000E-01 
   1.30290000E+01    6.16462000E-01 
   1.82773000E+00    2.21006000E-01 
SP   3    1.000000
   2.09642000E+01    1.14660000E-01   4.02487000E-02 
   4.80331000E+00    9.19999000E-01   2.37594000E-01 
   1.45933000E+00   -3.03068000E-03   8.15854000E-01 
SP   1    1.000000
   4.83456000E-01    1.00000000E+00   1.00000000E+00 
SP   1    1.000000
   1.45585000E-01    1.00000000E+00   1.00000000E+00 
SP   1    1.000000
   4.38000000E-02    1.00000000E+00   1.00000000E+00 
D    1    1.000000
   6.26000000E-01    1.00000000E+00 

6    0
S    3    1.000000
   3.38650000E+01    2.54938000E-02 
   5.09479000E+00    1.90373000E-01 
   1.15879000E+00    8.52161000E-01 
S    1    1.000000
   3.25840000E-01    1.00000000E+00 
S    1    1.000000
   1.02741000E-01    1.00000000E+00 

7    0
S    3    1.000000
   3.38650000E+01    2.54938000E-02 
   5.09479000E+00    1.90373000E-01 
   1.15879000E+00    8.52161000E-01 
S    1    1.000000
   3.25840000E-01    1.00000000E+00 
S    1    1.000000
   1.02741000E-01    1.00000000E+00 

8    0
S    3    1.000000
   3.38650000E+01    2.54938000E-02 
   5.09479000E+00    1.90373000E-01 
   1.15879000E+00    8.52161000E-01 
S    1    1.000000
   3.25840000E-01    1.00000000E+00 
S    1    1.000000
   1.02741000E-01    1.00000000E+00 

9    0
S    3    1.000000
   3.38650000E+01    2.54938000E-02 
   5.09479000E+00    1.90373000E-01 
   1.15879000E+00    8.52161000E-01 
S    1    1.000000
   3.25840000E-01    1.00000000E+00 
S    1    1.000000
   1.02741000E-01    1.00000000E+00 

10    0
S    6    1.000000
   6.29348000E+03    1.96979000E-03 
   9.49044000E+02    1.49613000E-02 
   2.18776000E+02    7.35006000E-02 
   6.36916000E+01    2.48937000E-01 
   1.88282000E+01    6.02460000E-01 
   2.72023000E+00    2.56202000E-01 
SP   3    1.000000
   3.06331000E+01    1.11906000E-01   3.83119000E-02 
   7.02614000E+00    9.21666000E-01   2.37403000E-01 
   2.11205000E+00   -2.56919000E-03   8.17592000E-01 
SP   1    1.000000
   6.84009000E-01    1.00000000E+00   1.00000000E+00 
SP   1    1.000000
   2.00878000E-01    1.00000000E+00   1.00000000E+00 
SP   1    1.000000
   6.39000000E-02    1.00000000E+00   1.00000000E+00 
D    1    1.000000
   9.13000000E-01    1.00000000E+00 

11    0
S    6    1.000000
   8.58850000E+03    1.89515000E-03 
   1.29723000E+03    1.43859000E-02 
   2.99296000E+02    7.07320000E-02 
   8.73771000E+01    2.40001000E-01 
   2.56789000E+01    5.94797000E-01 
   3.74004000E+00    2.80802000E-01 
SP   3    1.000000
   4.21175000E+01    1.13889000E-01   3.65114000E-02 
   9.62837000E+00    9.20811000E-01   2.37153000E-01 
   2.85332000E+00   -3.27447000E-03   8.19702000E-01 
SP   1    1.000000
   9.05661000E-01    1.00000000E+00   1.00000000E+00 
SP   1    1.000000
   2.55611000E-01    1.00000000E+00   1.00000000E+00 
SP   1    1.000000
   8.45000000E-02    1.00000000E+00   1.00000000E+00 
D    1    1.000000
   1.29200000E+00    1.00000000E+00 

12    0
S    6    1.000000
   8.58850000E+03    1.89515000E-03 
   1.29723000E+03    1.43859000E-02 
   2.99296000E+02    7.07320000E-02 
   8.73771000E+01    2.40001000E-01 
   2.56789000E+01    5.94797000E-01 
   3.74004000E+00    2.80802000E-01 
SP   3    1.000000
   4.21175000E+01    1.13889000E-01   3.65114000E-02 
   9.62837000E+00    9.20811000E-01   2.37153000E-01 
   2.85332000E+00   -3.27447000E-03   8.19702000E-01 
SP   1    1.000000
   9.05661000E-01    1.00000000E+00   1.00000000E+00 
SP   1    1.000000
   2.55611000E-01    1.00000000E+00   1.00000000E+00 
SP   1    1.000000
   8.45000000E-02    1.00000000E+00   1.00000000E+00 
D    1    1.000000
   1.29200000E+00    1.00000000E+00 

13    0
S    6    1.000000
   4.56324000E+03    1.96665000E-03 
   6.82024000E+02    1.52306000E-02 
   1.54973000E+02    7.61269000E-02 
   4.44553000E+01    2.60801000E-01 
   1.30290000E+01    6.16462000E-01 
   1.82773000E+00    2.21006000E-01 
SP   3    1.000000
   2.09642000E+01    1.14660000E-01   4.02487000E-02 
   4.80331000E+00    9.19999000E-01   2.37594000E-01 
   1.45933000E+00   -3.03068000E-03   8.15854000E-01 
SP   1    1.000000
   4.83456000E-01    1.00000000E+00   1.00000000E+00 
SP   1    1.000000
   1.45585000E-01    1.00000000E+00   1.00000000E+00 
SP   1    1.000000
   4.38000000E-02    1.00000000E+00   1.00000000E+00 
D    1    1.000000
   6.26000000E-01    1.00000000E+00 

14    0
S    6    1.000000
   4.39700000E+05    8.13000000E-04 
   6.60300000E+04    6.28500000E-03 
   1.51400000E+04    3.19200000E-02 
   4.31700000E+03    1.28800000E-01 
   1.41400000E+03    3.94600000E-01 
   5.23900000E+02    5.41300000E-01 
S    3    1.000000
   5.23900000E+02    1.83100000E-01 
   2.07700000E+02    6.17600000E-01 
   8.65400000E+01    2.53800000E-01 
S    1    1.000000
   3.05200000E+01    1.00000000E+00 
S    1    1.000000
   1.29800000E+01    1.00000000E+00 
S    1    1.000000
   4.41200000E+00    1.00000000E+00 
S    1    1.000000
   1.86200000E+00    1.00000000E+00 
S    1    1.000000
   3.93200000E-01    1.00000000E+00 
S    1    1.000000
   1.40000000E-01    1.00000000E+00 
P    3    1.000000
   2.95700000E+03    2.22600000E-02 
   7.00300000E+02    1.80200000E-01 
   2.24600000E+02    8.62400000E-01 
P    3    1.000000
   8.25900000E+01    3.44000000E-01 
   3.31900000E+01    5.07100000E-01 
   1.42000000E+01    2.59000000E-01 
P    3    1.000000
   1.42000000E+01    7.96500000E-02 
   7.43800000E+00    3.73400000E-01 
   3.52600000E+00    6.04900000E-01 
P    1    1.000000
   1.59500000E+00    1.00000000E+00 
P    1    1.000000
   8.46200000E-01    1.00000000E+00 
P    1    1.000000
   3.18600000E-01    1.00000000E+00 
P    1    1.000000
   1.09600000E-01    1.00000000E+00 
D    4    1.000000
   1.34800000E+02    1.83100000E-02 
   3.63900000E+01    1.35000000E-01 
   1.21600000E+01    4.26100000E-01 
   4.34100000E+00    6.04300000E-01 
D    1    1.000000
   1.53500000E+00    1.00000000E+00 
SP   1    1.000000
   3.90000000E-02    1.00000000E+00   1.00000000E+00 
D    1    1.000000
   4.15000000E-01    1.00000000E+00 

[MO]
Sym=X
Ene= -0.111715
Spin=Alpha
Occup=1
     1   -1.344278819677e-02
     2   -2.139422451427e-02
     3   -1.646279355352e-02
     4    5.432848146860e-02
     5   -6.646674086641e-04
     6    5.729197918998e-02
     7   -2.582895012663e-02
     8    8.414152712495e-02
     9   -1.045449432424e-03
    10    8.814472897369e-02
    11   -4.288510227606e-02
    12    4.871456894970e-02
    13   -9.285940499776e-04
    14   -5.908146204046e-01
    15   -1.747652696764e-01
    16    2.133889771279e-02
    17   -2.053373688789e-03
    18   -5.706129358700e-04
    19   -7.026430894761e-06
    20   -3.324406969115e-04
    21   -1.406589403489e-02
    22   -2.207679330509e-02
    23    1.055972328844e-02
    24    1.711033880209e-02
    25    2.189282506237e-03
    26   -5.754943396686e-02
    27    2.521485643700e-04
    28   -4.512656929118e-02
    29   -2.736060515679e-03
    30   -8.615823425631e-02
    31    2.877581578450e-04
    32   -5.976629796210e-02
    33   -1.465931422296e-02
    34   -5.863908491491e-02
    35    6.570162895254e-05
    36    2.839585649387e-01
    37   -2.356089954972e-01
    38    3.843352045181e-02
    39   -2.833550380477e-03
    40    2.016162181816e-03
    41    1.070183110007e-04
    42   -1.076786695274e-04
    43    3.281452163473e-03
    44   -1.566883318034e-02
    45   -1.654776279690e-02
    46   -2.672445122078e-02
    47    8.657153196058e-03
    48    2.646242261044e-02
    49   -2.661039620399e-04
    50    7.747200262156e-02
    51    1.838965740950e-02
    52    3.769953779297e-02
    53   -3.513042479859e-04
    54    1.203275106914e-01
    55    3.343403858218e-02
    56    2.906667309495e-02
    57   -6.301486887445e-05
    58   -2.336067529260e-01
    59    3.417970317753e-02
    60    2.267847616847e-01
    61   -1.161310913614e-03
    62    1.404905880307e-04
    63   -4.429946357339e-06
    64   -1.369244379883e-04
    65   -6.976444308634e-03
    66   -8.586043070810e-03
    67    1.677295202025e-02
    68    2.636430055752e-02
    69    1.053691474483e-01
    70   -5.060342883835e-02
    71    1.336849885166e-03
    72   -7.590271621043e-02
    73    1.524903312673e-01
    74   -8.051879727120e-02
    75    1.956419733776e-03
    76   -3.554531454034e-03
    77    9.379534001563e-02
    78   -6.308347125360e-02
    79    1.281656825623e-03
    80    1.783839692427e-01
    81    1.855190932409e-01
    82    1.407788939008e-01
    83    1.099906872712e-03
    84   -4.476274032354e-04
    85   -5.540909253803e-05
    86   -1.603431579986e-04
    87   -1.006286666131e-02
    88   -5.997739557562e-03
    89    1.766094179691e-02
    90    2.824251053055e-02
    91    8.918049408611e-02
    92   -7.801041314954e-02
    93    1.377723512255e-03
    94   -7.349036755430e-02
    95    1.401918329764e-01
    96   -1.090476481161e-01
    97    2.066610784459e-03
    98   -1.410441790241e-01
    99    8.846237838329e-02
   100   -6.835887477122e-02
   101    1.317338953069e-03
   102    6.761689358289e-01
   103    1.100821672573e-01
   104   -1.629969745870e-01
   105    2.263755269218e-03
   106    2.626990555364e-03
   107   -3.710749525966e-04
   108   -1.978740981320e-04
   109   -2.980780957054e-02
   110   -2.842399449962e-03
   111    6.969427499153e-02
   112    9.266978047223e-02
   113    3.925496093839e-02
   114   -5.619789891378e-02
   115   -7.019207848861e-02
   116   -1.805275040268e-02
   117    6.681385399468e-02
   118    8.541326932222e-02
   119    2.071621941871e-02
   120   -1.018910659247e-01
   121   -1.327022447978e-01
   122   -4.577548942387e-02
   123    4.065800979131e-03
   124    6.638945217670e-03
   125    5.254215837900e-03
   126    2.697112427451e-02
   127   -6.650343839866e-05
   128   -2.141798618561e-02
   129    5.920138429536e-03
   130    4.487804799060e-02
   131   -1.485938154205e-04
   132   -2.604741789539e-02
   133    4.566264385574e-02
   134    2.037157757130e-02
   135    4.464843865836e-04
   136    2.246571839808e-02
   137    5.126551695914e-02
   138    3.277481746436e-02
   139    4.009015321939e-04
   140   -2.045207126397e-05
   141    1.280747000190e-04
   142    1.799069809166e-04
   143    1.332379284916e-02
   144    6.357243596240e-03
   145    4.118395176235e-03
   146    6.682990422409e-03
   147    5.331021739538e-02
   148   -4.852777087964e-02
   149    1.076133411289e-03
   150   -1.862897217923e-02
   151    7.831838448821e-02
   152   -7.125001027700e-02
   153    1.584017198120e-03
   154   -3.668531628882e-02
   155    8.107688300636e-02
   156   -5.167786099245e-02
   157    1.456021510509e-03
   158   -7.623347713484e-02
   159    3.815547645544e-03
   160    1.712176700382e-02
   161   -7.535649805222e-05
   162   -6.692542412177e-04
   163   -4.170467690317e-05
   164   -6.387653493127e-05
   165   -4.842758618439e-03
   166   -8.316363546102e-04
   167   -4.600343696392e-04
   168   -6.697827148274e-04
   169    3.064853431366e-02
   170   -2.374620480686e-02
   171    4.961244292537e-04
   172   -1.131378252001e-04
   173    4.503174814236e-02
   174   -3.436737846108e-02
   175    7.270348279669e-04
   176    6.318373400222e-03
   177    3.056708279658e-02
   178   -2.540079224768e-02
   179    4.934953292783e-04
   180    1.797149077407e-02
   181   -7.579900656011e-03
   182    1.557946134209e-03
   183   -1.202797490200e-04
   184    1.059425051836e-03
   185   -4.168082403378e-05
   186    6.173689808853e-05
   187    4.459286970913e-04
   188    3.896917277135e-03
   189   -1.159532272027e-02
   190   -1.866305068565e-02
   191   -1.382334114475e-01
   192    2.340377518248e-02
   193   -1.814999790321e-03
   194    5.235962207636e-02
   195   -2.020163027841e-01
   196    2.191677675490e-02
   197   -2.594247842079e-03
   198    9.195988316209e-02
   199   -1.271886849484e-01
   200    2.748825616184e-02
   201   -1.736912867258e-03
   202   -3.541818541792e-01
   203    2.302071647425e-01
   204   -1.848880460340e-01
   205    3.781626662218e-03
   206   -2.999762775803e-04
   207   -1.596370457816e-04
   208   -7.535079708059e-05
   209   -1.275012535024e-02
   210    1.816233841509e-03
   211    1.348704908460e-03
   212    4.361544353807e-03
   213   -1.174491791706e-02
   214   -1.482455614120e-02
   215    3.000314076572e-02
   216    3.520970563091e-02
   217   -6.797385324836e-02
   218   -6.149387922533e-02
   219   -5.639828878508e-04
   220    4.304766965293e-03
   221   -3.918304810249e-05
   222   -4.667260840068e-03
   223    3.550666830832e-02
   224   -3.233810417875e-04
   225    1.236088472481e-02
   226   -9.216905668738e-02
   227    8.423716797868e-04
   228    3.779702430728e-03
   229   -3.534349211273e-02
   230    3.108881751778e-04
   231   -8.913176556614e-03
   232    7.501956629778e-02
   233   -6.700522183627e-04
   234   -2.641973993390e-02
   235    1.742599817005e-01
   236   -1.629058612086e-03
   237   -2.309708016230e-02
   238    6.365463743204e-02
   239   -7.523036460893e-04
   240    4.898795866837e-03
   241    5.593473926219e-05
   242    8.762968720216e-05
   243    1.017644706757e-02
   244   -4.621033629392e-03
   245    2.087048092400e-04
   246    7.320004033655e-06
   247    1.005665286592e-05
   248    9.226991758302e-04
   249   -2.695334552161e-05
   250    3.482470469018e-02
   251   -5.998861732678e-03
   252    1.882366605289e-02
   253   -2.058257976247e-04
   254   -7.936644811702e-03
   255   -1.029036558614e-04
   256   -1.537409990786e-04
   257   -1.751861816025e-02
   258    7.220516301702e-03
Sym=X
Ene= -0.288912
Spin=Alpha
Occup=1
     1   -1.140214335423e-06
     2   -1.787373598568e-06
     3    5.277341748821e-04
     4   -3.470011513134e-04
     5   -4.823490190747e-02
     6    7.030732110590e-06
     7    8.702222227336e-04
     8   -5.663780573514e-04
     9   -7.956606907057e-02
    10   -5.174745190601e-05
    11    8.268661340708e-04
    12   -5.396537006211e-04
    13   -7.552087226316e-02
    14   -3.676979601706e-04
    15   -1.436372843014e-04
    16    2.900152215272e-05
    17    5.470038873019e-03
    18   -1.494328937467e-04
    19   -1.167311953499e-02
    20   -6.239897078418e-03
    21    1.660357180553e-04
    22   -2.943302424944e-06
    23   -2.655463681756e-06
    24   -4.496388428735e-06
    25    8.952015418408e-04
    26   -4.903913858881e-04
    27   -8.098879880490e-02
    28    1.184908483443e-05
    29    1.464251016470e-03
    30   -8.064277444727e-04
    31   -1.323624261719e-01
    32    2.968298530397e-05
    33    1.394091927461e-03
    34   -7.909284295846e-04
    35   -1.289084010283e-01
    36   -5.816420650199e-04
    37    1.307752183213e-04
    38   -4.652418546737e-05
    39   -3.212325699745e-02
    40    9.116639835101e-05
    41    4.417483351918e-03
    42   -8.488178377712e-04
    43   -4.202875387413e-05
    44    4.610387291383e-05
    45   -1.634492442723e-06
    46   -3.308578772869e-06
    47    2.371032268011e-05
    48   -2.347340434047e-05
    49    1.375252204105e-03
    50    1.211727056984e-05
    51    5.267380027308e-05
    52   -3.813714684796e-05
    53    1.171059277963e-03
    54    1.279082306138e-04
    55    1.245276606925e-04
    56   -5.202658452892e-05
    57   -4.755396119423e-03
    58    3.151542656289e-04
    59   -5.076752642485e-04
    60    7.468151825130e-04
    61    3.448724238976e-02
    62    1.771661316340e-04
    63   -3.120033255054e-03
    64   -2.065795412370e-02
    65    1.730149645674e-04
    66    2.098542171246e-04
    67   -1.303552369720e-06
    68   -2.199455042560e-06
    69   -1.168931686885e-03
    70    7.167691565701e-04
    71    1.073951641499e-01
    72    8.440699403955e-06
    73   -1.900730382445e-03
    74    1.161226295647e-03
    75    1.746201693615e-01
    76    2.308556226317e-05
    77   -1.811018743931e-03
    78    1.060102787022e-03
    79    1.621904599636e-01
    80    4.208461136955e-04
    81    4.918160178168e-04
    82    3.008056336937e-06
    83   -2.093842623682e-02
    84   -2.466503016443e-04
    85   -1.161699508650e-02
    86    2.131236256717e-03
    87    1.132022605975e-04
    88   -1.012383214521e-04
    89   -1.686386275751e-06
    90   -2.957231692519e-06
    91   -5.278131130193e-04
    92    3.530121754557e-04
    93    5.168521690823e-02
    94    1.345639136482e-05
    95   -8.566804515869e-04
    96    5.666006366360e-04
    97    8.352607559520e-02
    98   -5.926819352114e-05
    99   -8.518944077957e-04
   100    5.954688478267e-04
   101    8.140298589126e-02
   102    9.011899568938e-05
   103    2.087390163236e-04
   104   -1.070185342652e-04
   105   -1.612948343471e-02
   106    2.487125989729e-04
   107    4.346668545736e-03
   108   -1.439962665084e-02
   109    4.438215735757e-05
   110    1.882854482794e-04
   111   -2.013155603740e-05
   112   -2.288472967871e-05
   113    6.795706616168e-06
   114    3.668487558164e-05
   115    4.285214169756e-05
   116    1.186970027213e-05
   117    5.757209185193e-06
   118   -1.026352495327e-06
   119    6.343668348107e-06
   120   -2.597994052409e-05
   121   -2.454656510910e-05
   122   -1.948938619378e-05
   123   -2.095325684334e-06
   124   -3.468102061759e-06
   125    5.193040162417e-05
   126   -4.659892214312e-05
   127   -5.841335267357e-03
   128    1.104052072313e-05
   129    7.839648245876e-05
   130   -7.207195934936e-05
   131   -9.048713284886e-03
   132    9.448320427005e-06
   133    1.240967713352e-04
   134   -7.581980832661e-05
   135   -7.813178101051e-03
   136    1.524574597763e-05
   137    2.865321370751e-04
   138   -1.881354874310e-04
   139   -1.707902813054e-02
   140    2.821334480369e-05
   141    1.498418923373e-04
   142   -2.031235661926e-03
   143    3.439151256680e-05
   144    2.593609690103e-05
   145    2.147193903719e-06
   146    3.599221132390e-06
   147    1.168956082422e-04
   148   -4.359204883818e-05
   149   -2.764601488521e-03
   150   -1.261263197098e-05
   151    1.703817590963e-04
   152   -6.282866334608e-05
   153   -3.882213398766e-03
   154   -1.211341594577e-05
   155    1.447510363928e-04
   156   -5.480783829560e-05
   157   -3.030643023991e-03
   158    7.466565130334e-06
   159   -5.851812217932e-05
   160    3.882233525871e-05
   161    4.562776749180e-03
   162    7.254793940501e-06
   163    6.481307867001e-04
   164    4.627960265190e-04
   165   -1.443861833690e-05
   166   -4.585945929779e-06
   167    9.853071396083e-07
   168    1.448457610774e-06
   169    3.600515234549e-05
   170    3.346530289299e-05
   171    2.976074491950e-03
   172   -4.881672706936e-06
   173    5.548736124140e-05
   174    4.787035107496e-05
   175    4.110077651877e-03
   176   -3.050063145734e-05
   177    3.915042200644e-05
   178    4.344773632832e-05
   179    5.403462449695e-03
   180   -7.877149629561e-05
   181   -7.533391989738e-05
   182    3.572717137245e-05
   183    7.104350313557e-03
   184   -3.957160674070e-06
   185   -2.867372500645e-04
   186   -1.322987605893e-04
   187    1.230713862197e-06
   188    2.285567033984e-06
   189    4.308191609580e-06
   190    6.805340978135e-06
   191   -1.122094665091e-03
   192    6.901770403887e-04
   193    1.018903044818e-01
   194   -1.900159577902e-05
   195   -1.807741790878e-03
   196    1.111407022454e-03
   197    1.646275330397e-01
   198   -5.939968712168e-06
   199   -1.472457372660e-03
   200    9.216507328793e-04
   201    1.305626124551e-01
   202    1.892319130744e-04
   203   -4.772256172591e-04
   204    1.785843515865e-04
   205    4.025813348814e-02
   206    1.256127556917e-04
   207    1.684201478356e-02
   208    1.665737266487e-02
   209   -2.983708899507e-04
   210   -6.798986487680e-05
   211   -3.092659270125e-07
   212   -1.000689391531e-06
   213    2.697981149481e-06
   214    3.312689363052e-06
   215   -6.533741935234e-06
   216   -7.961129098980e-06
   217    1.415146030123e-05
   218   -4.740327911719e-08
   219    1.164018846414e-04
   220   -7.272858682692e-05
   221   -1.080479332773e-02
   222    9.609972088495e-04
   223   -6.004656384367e-04
   224   -8.920196599401e-02
   225   -2.511953079109e-03
   226    1.569746269586e-03
   227    2.331562166218e-01
   228   -9.370853743682e-04
   229    5.835144877803e-04
   230    8.710889038232e-02
   231    2.076273609533e-03
   232   -1.293681287588e-03
   233   -1.930719269250e-01
   234    4.936516733012e-03
   235   -3.088107948854e-03
   236   -4.574459050477e-01
   237    3.252823967505e-03
   238   -2.022988482746e-03
   239   -3.016730450211e-01
   240   -4.517024776287e-06
   241   -3.240300218620e-03
   242   -4.740583537394e-03
   243    6.742194831822e-05
   244    2.973987592978e-05
   245   -1.747534354698e-06
   246   -2.871186988616e-04
   247   -2.721706978010e-04
   248    4.664650017343e-06
   249    2.546368522705e-07
   250   -4.191496281078e-05
   251    1.811711113455e-04
   252   -1.249473874710e-04
   253   -1.609175114623e-02
   254    1.797561949987e-05
   255    3.671516461863e-03
   256    4.052986423698e-03
   257   -6.657526546568e-05
   258   -1.715932699229e-05
Sym=X
Ene= -0.441656
Spin=Alpha
Occup=1
     1   -2.737144737920e-06
     2   -4.135653742461e-06
     3   -7.988018670448e-04
     4    3.582096759819e-04
     5    6.898476855356e-02
     6    1.094971494032e-05
     7   -1.280998370363e-03
     8    5.962497907623e-04
     9    1.119855232078e-01
    10   -2.608876229447e-05
    11   -1.046562057276e-03
    12    5.284602992075e-04
    13    9.412329654909e-02
    14    4.208372825544e-04
    15   -1.597587170294e-04
    16    1.829567005990e-04
    17    2.833000791017e-02
    18    2.449404489621e-04
    19    1.505703315799e-02
    20    3.627754273945e-03
    21   -1.927882282372e-04
    22    7.833940614982e-05
    23    2.859721093689e-06
    24    4.682195249143e-06
    25   -1.248818297152e-03
    26    8.550835326449e-04
    27    1.173917064537e-01
    28   -1.586850762908e-05
    29   -2.049496591410e-03
    30    1.391654322607e-03
    31    1.921355432777e-01
    32   -5.022536972851e-05
    33   -1.665632103920e-03
    34    1.149002935256e-03
    35    1.561497292892e-01
    36    5.392261804044e-04
    37    4.341454282252e-04
    38   -2.528418105989e-04
    39   -1.464747794333e-02
    40    1.886533190746e-05
    41   -3.452945692545e-03
    42   -7.145686552503e-03
    43    7.703849150508e-05
    44    8.124568004093e-05
    45    2.883075181478e-06
    46    4.512901509832e-06
    47   -8.407708277433e-04
    48    4.249328149253e-04
    49    7.492248299491e-02
    50   -1.336716940315e-05
    51   -1.368551275529e-03
    52    7.059745637444e-04
    53    1.220459977887e-01
    54   -7.459040354878e-05
    55   -1.203843661594e-03
    56    7.627977163472e-04
    57    1.080702013165e-01
    58   -3.229955146366e-05
    59   -4.046465958659e-04
    60   -3.967470937910e-04
    61    4.156480401140e-02
    62   -2.279312893602e-04
    63   -2.181640781459e-03
    64    1.621001467803e-02
    65   -9.772010088072e-05
    66   -1.881914137796e-04
    67   -1.471810711072e-07
    68   -2.079901744703e-07
    69    5.217890836830e-04
    70   -2.336344316977e-04
    71   -4.122047121676e-02
    72   -5.166852522559e-06
    73    8.417093514246e-04
    74   -3.983278977210e-04
    75   -6.827367517662e-02
    76    1.741144304448e-04
    77    6.232950237874e-04
    78   -2.211767795240e-04
    79   -5.085644417295e-02
    80   -3.686712736619e-04
    81    3.404927685177e-05
    82   -3.869836967476e-04
    83   -3.379984927834e-02
    84    2.301648080484e-04
    85    1.695504972528e-02
    86    7.893024087958e-03
    87   -2.395931613277e-04
    88    3.580142850794e-05
    89   -5.861144189781e-06
    90   -8.913790469148e-06
    91    4.899325872687e-04
    92   -1.713460075678e-04
    93   -3.646222922564e-02
    94    2.478527493885e-05
    95    7.970914630111e-04
    96   -3.064842827012e-04
    97   -6.010579710993e-02
    98    3.140873044554e-05
    99    5.728933044716e-04
   100   -1.798405369199e-04
   101   -3.998738382700e-02
   102   -3.930771990854e-04
   103    3.322806175004e-04
   104   -7.758275989626e-05
   105   -3.380637517004e-02
   106   -2.296017410736e-04
   107   -9.156933147109e-04
   108    1.857521263641e-02
   109   -1.281128259720e-04
   110   -2.011562802790e-04
   111   -5.622067304190e-05
   112   -6.979665347335e-05
   113   -3.239314478980e-05
   114    8.026947095680e-05
   115    1.096069842941e-04
   116    1.919502865976e-05
   117   -7.726957797375e-06
   118   -9.171462391453e-06
   119    7.545006634150e-06
   120   -7.801046319281e-05
   121   -9.561634157402e-05
   122   -2.103895632260e-05
   123    3.175912522989e-06
   124    5.167562585168e-06
   125    1.199536118987e-04
   126   -6.477880640527e-05
   127   -8.066391880093e-03
   128   -1.658215356779e-05
   129    1.822299863389e-04
   130   -9.670218591668e-05
   131   -1.219779944774e-02
   132   -1.643445428404e-05
   133    1.648418049063e-04
   134   -1.457609447225e-04
   135   -1.304051445985e-02
   136   -2.348219107528e-05
   137    3.307545658156e-04
   138   -8.566964496613e-05
   139   -3.165082928404e-02
   140   -1.337153433720e-04
   141   -9.818712739009e-03
   142   -4.617775129254e-03
   143    1.357683445063e-04
   144   -1.490324672338e-05
   145   -1.506813469720e-07
   146   -1.904103401552e-07
   147    5.092831613443e-04
   148   -3.359000250743e-04
   149   -4.951358382765e-02
   150   -5.469397485812e-08
   151    7.582836570979e-04
   152   -5.007210177521e-04
   153   -7.375041327603e-02
   154    2.404227838740e-05
   155    7.043578191071e-04
   156   -4.738318389881e-04
   157   -6.919365499255e-02
   158   -5.523099719033e-05
   159   -1.389667703470e-05
   160    7.038900470388e-06
   161    1.119639430522e-03
   162   -1.425139462748e-05
   163    1.603998333063e-03
   164    3.700435862521e-03
   165   -4.267362413459e-05
   166   -2.910584893499e-05
   167    3.937553420577e-06
   168    6.368211386243e-06
   169    3.158129486588e-05
   170    4.338032808783e-06