[Molden Format]
[Atoms] (Angs)
  C      1    6      0.73800500      1.28081960     -0.05304325
  C      2    6      2.13107735      1.27623482     -0.03775458
  C      3    6      2.78774418      0.04994967     -0.02233513
  C      4    6      2.10787290     -1.16395883     -0.02177557
  C      5    6      0.02715627      0.07955847     -0.05285920
  H      6    1      0.20350732      2.22257168     -0.06513515
  H      7    1      2.70574282      2.19227310     -0.03751535
  H      8    1      2.65503181     -2.09648975     -0.00950659
  H      9    1     -1.05554128      0.07960796     -0.06461677
  N     10    7      4.25078279      0.02984995     -0.00604320
  O     11    8      4.85312968      1.12722449     -0.00700032
  O     12    8      4.82301363     -1.08336832      0.00783743
  C     13    6      0.72203597     -1.12622675     -0.03726783
 Br     14   35     -0.25419454     -2.77854143     -0.03668405
[GTO]
1    0
S    6    1.000000
   4.56324000E+03    1.96665000E-03 
   6.82024000E+02    1.52306000E-02 
   1.54973000E+02    7.61269000E-02 
   4.44553000E+01    2.60801000E-01 
   1.30290000E+01    6.16462000E-01 
   1.82773000E+00    2.21006000E-01 
SP   3    1.000000
   2.09642000E+01    1.14660000E-01   4.02487000E-02 
   4.80331000E+00    9.19999000E-01   2.37594000E-01 
   1.45933000E+00   -3.03068000E-03   8.15854000E-01 
SP   1    1.000000
   4.83456000E-01    1.00000000E+00   1.00000000E+00 
SP   1    1.000000
   1.45585000E-01    1.00000000E+00   1.00000000E+00 
SP   1    1.000000
   4.38000000E-02    1.00000000E+00   1.00000000E+00 
D    1    1.000000
   6.26000000E-01    1.00000000E+00 

2    0
S    6    1.000000
   4.56324000E+03    1.96665000E-03 
   6.82024000E+02    1.52306000E-02 
   1.54973000E+02    7.61269000E-02 
   4.44553000E+01    2.60801000E-01 
   1.30290000E+01    6.16462000E-01 
   1.82773000E+00    2.21006000E-01 
SP   3    1.000000
   2.09642000E+01    1.14660000E-01   4.02487000E-02 
   4.80331000E+00    9.19999000E-01   2.37594000E-01 
   1.45933000E+00   -3.03068000E-03   8.15854000E-01 
SP   1    1.000000
   4.83456000E-01    1.00000000E+00   1.00000000E+00 
SP   1    1.000000
   1.45585000E-01    1.00000000E+00   1.00000000E+00 
SP   1    1.000000
   4.38000000E-02    1.00000000E+00   1.00000000E+00 
D    1    1.000000
   6.26000000E-01    1.00000000E+00 

3    0
S    6    1.000000
   4.56324000E+03    1.96665000E-03 
   6.82024000E+02    1.52306000E-02 
   1.54973000E+02    7.61269000E-02 
   4.44553000E+01    2.60801000E-01 
   1.30290000E+01    6.16462000E-01 
   1.82773000E+00    2.21006000E-01 
SP   3    1.000000
   2.09642000E+01    1.14660000E-01   4.02487000E-02 
   4.80331000E+00    9.19999000E-01   2.37594000E-01 
   1.45933000E+00   -3.03068000E-03   8.15854000E-01 
SP   1    1.000000
   4.83456000E-01    1.00000000E+00   1.00000000E+00 
SP   1    1.000000
   1.45585000E-01    1.00000000E+00   1.00000000E+00 
SP   1    1.000000
   4.38000000E-02    1.00000000E+00   1.00000000E+00 
D    1    1.000000
   6.26000000E-01    1.00000000E+00 

4    0
S    6    1.000000
   4.56324000E+03    1.96665000E-03 
   6.82024000E+02    1.52306000E-02 
   1.54973000E+02    7.61269000E-02 
   4.44553000E+01    2.60801000E-01 
   1.30290000E+01    6.16462000E-01 
   1.82773000E+00    2.21006000E-01 
SP   3    1.000000
   2.09642000E+01    1.14660000E-01   4.02487000E-02 
   4.80331000E+00    9.19999000E-01   2.37594000E-01 
   1.45933000E+00   -3.03068000E-03   8.15854000E-01 
SP   1    1.000000
   4.83456000E-01    1.00000000E+00   1.00000000E+00 
SP   1    1.000000
   1.45585000E-01    1.00000000E+00   1.00000000E+00 
SP   1    1.000000
   4.38000000E-02    1.00000000E+00   1.00000000E+00 
D    1    1.000000
   6.26000000E-01    1.00000000E+00 

5    0
S    6    1.000000
   4.56324000E+03    1.96665000E-03 
   6.82024000E+02    1.52306000E-02 
   1.54973000E+02    7.61269000E-02 
   4.44553000E+01    2.60801000E-01 
   1.30290000E+01    6.16462000E-01 
   1.82773000E+00    2.21006000E-01 
SP   3    1.000000
   2.09642000E+01    1.14660000E-01   4.02487000E-02 
   4.80331000E+00    9.19999000E-01   2.37594000E-01 
   1.45933000E+00   -3.03068000E-03   8.15854000E-01 
SP   1    1.000000
   4.83456000E-01    1.00000000E+00   1.00000000E+00 
SP   1    1.000000
   1.45585000E-01    1.00000000E+00   1.00000000E+00 
SP   1    1.000000
   4.38000000E-02    1.00000000E+00   1.00000000E+00 
D    1    1.000000
   6.26000000E-01    1.00000000E+00 

6    0
S    3    1.000000
   3.38650000E+01    2.54938000E-02 
   5.09479000E+00    1.90373000E-01 
   1.15879000E+00    8.52161000E-01 
S    1    1.000000
   3.25840000E-01    1.00000000E+00 
S    1    1.000000
   1.02741000E-01    1.00000000E+00 

7    0
S    3    1.000000
   3.38650000E+01    2.54938000E-02 
   5.09479000E+00    1.90373000E-01 
   1.15879000E+00    8.52161000E-01 
S    1    1.000000
   3.25840000E-01    1.00000000E+00 
S    1    1.000000
   1.02741000E-01    1.00000000E+00 

8    0
S    3    1.000000
   3.38650000E+01    2.54938000E-02 
   5.09479000E+00    1.90373000E-01 
   1.15879000E+00    8.52161000E-01 
S    1    1.000000
   3.25840000E-01    1.00000000E+00 
S    1    1.000000
   1.02741000E-01    1.00000000E+00 

9    0
S    3    1.000000
   3.38650000E+01    2.54938000E-02 
   5.09479000E+00    1.90373000E-01 
   1.15879000E+00    8.52161000E-01 
S    1    1.000000
   3.25840000E-01    1.00000000E+00 
S    1    1.000000
   1.02741000E-01    1.00000000E+00 

10    0
S    6    1.000000
   6.29348000E+03    1.96979000E-03 
   9.49044000E+02    1.49613000E-02 
   2.18776000E+02    7.35006000E-02 
   6.36916000E+01    2.48937000E-01 
   1.88282000E+01    6.02460000E-01 
   2.72023000E+00    2.56202000E-01 
SP   3    1.000000
   3.06331000E+01    1.11906000E-01   3.83119000E-02 
   7.02614000E+00    9.21666000E-01   2.37403000E-01 
   2.11205000E+00   -2.56919000E-03   8.17592000E-01 
SP   1    1.000000
   6.84009000E-01    1.00000000E+00   1.00000000E+00 
SP   1    1.000000
   2.00878000E-01    1.00000000E+00   1.00000000E+00 
SP   1    1.000000
   6.39000000E-02    1.00000000E+00   1.00000000E+00 
D    1    1.000000
   9.13000000E-01    1.00000000E+00 

11    0
S    6    1.000000
   8.58850000E+03    1.89515000E-03 
   1.29723000E+03    1.43859000E-02 
   2.99296000E+02    7.07320000E-02 
   8.73771000E+01    2.40001000E-01 
   2.56789000E+01    5.94797000E-01 
   3.74004000E+00    2.80802000E-01 
SP   3    1.000000
   4.21175000E+01    1.13889000E-01   3.65114000E-02 
   9.62837000E+00    9.20811000E-01   2.37153000E-01 
   2.85332000E+00   -3.27447000E-03   8.19702000E-01 
SP   1    1.000000
   9.05661000E-01    1.00000000E+00   1.00000000E+00 
SP   1    1.000000
   2.55611000E-01    1.00000000E+00   1.00000000E+00 
SP   1    1.000000
   8.45000000E-02    1.00000000E+00   1.00000000E+00 
D    1    1.000000
   1.29200000E+00    1.00000000E+00 

12    0
S    6    1.000000
   8.58850000E+03    1.89515000E-03 
   1.29723000E+03    1.43859000E-02 
   2.99296000E+02    7.07320000E-02 
   8.73771000E+01    2.40001000E-01 
   2.56789000E+01    5.94797000E-01 
   3.74004000E+00    2.80802000E-01 
SP   3    1.000000
   4.21175000E+01    1.13889000E-01   3.65114000E-02 
   9.62837000E+00    9.20811000E-01   2.37153000E-01 
   2.85332000E+00   -3.27447000E-03   8.19702000E-01 
SP   1    1.000000
   9.05661000E-01    1.00000000E+00   1.00000000E+00 
SP   1    1.000000
   2.55611000E-01    1.00000000E+00   1.00000000E+00 
SP   1    1.000000
   8.45000000E-02    1.00000000E+00   1.00000000E+00 
D    1    1.000000
   1.29200000E+00    1.00000000E+00 

13    0
S    6    1.000000
   4.56324000E+03    1.96665000E-03 
   6.82024000E+02    1.52306000E-02 
   1.54973000E+02    7.61269000E-02 
   4.44553000E+01    2.60801000E-01 
   1.30290000E+01    6.16462000E-01 
   1.82773000E+00    2.21006000E-01 
SP   3    1.000000
   2.09642000E+01    1.14660000E-01   4.02487000E-02 
   4.80331000E+00    9.19999000E-01   2.37594000E-01 
   1.45933000E+00   -3.03068000E-03   8.15854000E-01 
SP   1    1.000000
   4.83456000E-01    1.00000000E+00   1.00000000E+00 
SP   1    1.000000
   1.45585000E-01    1.00000000E+00   1.00000000E+00 
SP   1    1.000000
   4.38000000E-02    1.00000000E+00   1.00000000E+00 
D    1    1.000000
   6.26000000E-01    1.00000000E+00 

14    0
S    6    1.000000
   4.39700000E+05    8.13000000E-04 
   6.60300000E+04    6.28500000E-03 
   1.51400000E+04    3.19200000E-02 
   4.31700000E+03    1.28800000E-01 
   1.41400000E+03    3.94600000E-01 
   5.23900000E+02    5.41300000E-01 
S    3    1.000000
   5.23900000E+02    1.83100000E-01 
   2.07700000E+02    6.17600000E-01 
   8.65400000E+01    2.53800000E-01 
S    1    1.000000
   3.05200000E+01    1.00000000E+00 
S    1    1.000000
   1.29800000E+01    1.00000000E+00 
S    1    1.000000
   4.41200000E+00    1.00000000E+00 
S    1    1.000000
   1.86200000E+00    1.00000000E+00 
S    1    1.000000
   3.93200000E-01    1.00000000E+00 
S    1    1.000000
   1.40000000E-01    1.00000000E+00 
P    3    1.000000
   2.95700000E+03    2.22600000E-02 
   7.00300000E+02    1.80200000E-01 
   2.24600000E+02    8.62400000E-01 
P    3    1.000000
   8.25900000E+01    3.44000000E-01 
   3.31900000E+01    5.07100000E-01 
   1.42000000E+01    2.59000000E-01 
P    3    1.000000
   1.42000000E+01    7.96500000E-02 
   7.43800000E+00    3.73400000E-01 
   3.52600000E+00    6.04900000E-01 
P    1    1.000000
   1.59500000E+00    1.00000000E+00 
P    1    1.000000
   8.46200000E-01    1.00000000E+00 
P    1    1.000000
   3.18600000E-01    1.00000000E+00 
P    1    1.000000
   1.09600000E-01    1.00000000E+00 
D    4    1.000000
   1.34800000E+02    1.83100000E-02 
   3.63900000E+01    1.35000000E-01 
   1.21600000E+01    4.26100000E-01 
   4.34100000E+00    6.04300000E-01 
D    1    1.000000
   1.53500000E+00    1.00000000E+00 
SP   1    1.000000
   3.90000000E-02    1.00000000E+00   1.00000000E+00 
D    1    1.000000
   4.15000000E-01    1.00000000E+00 

[MO]
Sym=X
Ene= -0.047569
Spin=Alpha
Occup=1
     1   -1.253464874686e-02
     2   -1.963702410776e-02
     3    1.341841987363e-01
     4   -3.785416146370e-02
     5    4.329957037326e-03
     6    5.675751461018e-02
     7    1.956840025449e-01
     8   -6.160406875862e-02
     9    6.800141900990e-03
    10    2.910955642619e-02
    11    1.313384256417e-01
    12   -3.484265417026e-02
    13    5.134383518203e-03
    14    4.339221956415e-01
    15    4.576015661843e-02
    16   -3.509199801639e-02
    17    1.363624072141e-03
    18    8.661743243992e-04
    19    4.034654239322e-04
    20    1.160448967297e-04
    21    1.572727289738e-02
    22    5.064696534359e-03
    23    6.360435819394e-04
    24    1.237818448530e-03
    25   -1.501344461953e-01
    26   -1.206027821233e-02
    27    1.303833552575e-03
    28   -5.596562976721e-04
    29   -2.211289339685e-01
    30   -2.701300468665e-02
    31    2.463657505357e-03
    32   -2.749739607316e-02
    33   -8.644004904925e-02
    34   -4.146780754441e-02
    35    3.000484838246e-03
    36   -2.285089893050e-01
    37    1.183450214322e-01
    38   -1.254193670082e-02
    39    1.060735973977e-03
    40    2.180780315713e-03
    41   -7.589279148716e-05
    42    4.078614557539e-06
    43    1.723430778894e-02
    44    6.781480710577e-04
    45    2.125608630725e-02
    46    3.430743728037e-02
    47    2.895931663195e-02
    48   -3.340985807070e-02
    49    1.954188399857e-03
    50   -9.766066667252e-02
    51    3.643266935739e-02
    52   -4.936299005769e-02
    53    3.033294617570e-03
    54   -1.909854162892e-01
    55   -5.192622262430e-02
    56   -5.976515365286e-02
    57    1.569741890825e-03
    58   -4.789822916966e-02
    59   -9.610398843490e-03
    60   -6.763680611156e-03
    61    7.014721648177e-04
    62   -5.251665855989e-04
    63    1.747506228339e-04
    64    4.612172974539e-04
    65    1.936562449846e-02
    66   -2.755026924822e-03
    67    6.007393312228e-04
    68    7.228774406432e-04
    69   -5.202880054954e-03
    70   -1.905125085061e-02
    71   -7.358716982582e-04
    72   -1.156303952153e-03
    73   -3.728622780423e-03
    74   -2.882525956628e-02
    75   -1.188965154668e-03
    76   -3.001166874194e-02
    77    4.239596854850e-03
    78   -1.922350303942e-02
    79   -1.064735848382e-03
    80   -5.545096950817e-01
    81    1.573291240188e-01
    82   -2.126757585483e-02
    83    1.340892445470e-03
    84   -7.274660128870e-04
    85    2.763240918078e-04
    86    2.035089798897e-04
    87    4.100088172545e-03
    88    2.808722566153e-03
    89    4.866470514688e-03
    90    7.820377963087e-03
    91   -3.438951019997e-02
    92   -4.857700367189e-03
    93    2.857441818217e-04
    94   -2.432510216479e-02
    95   -5.026955413557e-02
    96   -7.158440565854e-03
    97    5.170137347199e-04
    98    1.421726722206e-02
    99   -4.874345606474e-02
   100   -3.930626631533e-03
   101    3.586823228094e-04
   102   -7.159013430398e-02
   103   -4.256760141282e-02
   104   -7.353799140149e-02
   105   -3.868016588342e-04
   106   -5.030532239562e-04
   107    2.151266710764e-04
   108    5.862971926145e-04
   109    1.518853527184e-02
   110    8.291197119471e-03
   111   -7.369334639881e-02
   112   -1.004018179600e-01
   113   -3.586438170195e-02
   114   -6.897579820542e-02
   115   -8.126524670689e-02
   116   -1.392083661027e-02
   117    9.144187004750e-03
   118    8.405492181166e-03
   119   -3.981003609991e-03
   120    3.372403816028e-02
   121    4.872722558451e-02
   122    2.526743548179e-02
   123   -3.059131470416e-03
   124   -4.741346619302e-03
   125   -7.952304196381e-02
   126    6.131579876088e-02
   127   -1.041034995503e-03
   128    1.116201873405e-02
   129   -1.195391497810e-01
   130    9.730965488735e-02
   131   -1.561905676615e-03
   132    1.917082904383e-02
   133   -1.462325284705e-01
   134    8.976476755130e-02
   135   -2.020506670205e-03
   136   -7.062205411679e-02
   137   -1.030227037834e-01
   138    3.804473378850e-04
   139   -1.730028613144e-03
   140    1.056571306211e-03
   141   -3.981615224329e-04
   142   -3.301250529232e-04
   143   -2.077504710239e-02
   144    1.909661772021e-03
   145    1.491982461651e-03
   146    2.419182226886e-03
   147   -1.324194741820e-01
   148    4.045855850434e-02
   149   -2.891792332729e-03
   150   -5.767145831271e-03
   151   -1.961395639132e-01
   152    6.121717990288e-02
   153   -4.289183705253e-03
   154   -1.637186049870e-02
   155   -1.583118829271e-01
   156    5.319477510017e-02
   157   -3.814686261801e-03
   158    5.564045788251e-02
   159    1.915508533449e-03
   160   -1.940587373001e-02
   161    1.004153885362e-04
   162   -1.067232720911e-03
   163    1.022155390742e-04
   164    2.198937822193e-04
   165    1.017331175067e-02
   166    8.873803440278e-03
   167   -1.980475367917e-02
   168   -3.221915303822e-02
   169   -1.461630322087e-02
   170   -8.429208510706e-02
   171    1.251979187803e-03
   172    9.409795115937e-02
   173   -2.138042127246e-02
   174   -1.234945682722e-01
   175    1.861325403745e-03
   176    1.761560462193e-01
   177   -3.917362497010e-02
   178   -5.238088679434e-02
   179    1.044202098964e-03
   180    1.016684876463e-01
   181    9.619504393502e-03
   182    2.676884088200e-02
   183    2.457062524879e-04
   184    4.409047163918e-03
   185   -5.165600856578e-05
   186    1.943342390136e-04
   187    8.226793208699e-03
   188    2.122288003843e-03
   189    1.740421774542e-03
   190    2.680552312379e-03
   191    5.496795000199e-03
   192   -3.300931806072e-02
   193   -1.282308700382e-03
   194   -8.519028796434e-03
   195    4.423315492325e-03
   196   -4.951291180394e-02
   197   -2.166440050242e-03
   198    4.728795456974e-03
   199    1.653462232679e-02
   200   -4.088183087747e-02
   201   -2.087426215232e-03
   202    4.196204887193e-01
   203    2.045959897463e-01
   204    2.814780511497e-03
   205    2.433233715721e-03
   206   -1.299529395295e-03
   207    2.776039806082e-05
   208    2.452916824817e-04
   209    2.443449129901e-03
   210   -7.187935373506e-04
   211    1.034942533911e-03
   212    3.349606493319e-03
   213   -9.044780630926e-03
   214   -1.119437043488e-02
   215    2.232197431294e-02
   216    2.763446244619e-02
   217   -5.266763968192e-02
   218   -3.850842011247e-02
   219    7.652269413172e-04
   220    1.115582803246e-03
   221   -1.184240252651e-04
   222    6.312375616740e-03
   223    9.201084844985e-03
   224   -9.775272682312e-04
   225   -1.636799064368e-02
   226   -2.388175358233e-02
   227    2.549906999258e-03
   228   -6.101815189582e-03
   229   -9.211113378002e-03
   230    9.412191374593e-04
   231    1.285551815322e-02
   232    1.958523199062e-02
   233   -2.047434354703e-03
   234    3.094278681913e-02
   235    4.442016231046e-02
   236   -4.960027935162e-03
   237    5.206929244569e-03
   238    1.683474403637e-02
   239   -2.694507022692e-03
   240    2.087419123744e-03
   241    1.194415409668e-04
   242    1.259394262721e-04
   243   -1.227309666453e-04
   244   -2.376285385944e-03
   245    2.964668464636e-04
   246    2.372408475997e-05
   247    1.321529004625e-05
   248   -1.564348902802e-04
   249   -4.129706867438e-05
   250    3.094339673697e-02
   251    8.745660983184e-04
   252    1.074585396567e-02
   253   -7.629265290178e-05
   254   -3.237530921747e-03
   255   -2.055502765096e-04
   256   -3.601060780142e-04
   257   -9.591184367889e-04
   258    3.928624196470e-03
Sym=X
Ene= -0.052673
Spin=Alpha
Occup=1
     1    8.935090719341e-03
     2    1.403306298858e-02
     3   -3.584215008255e-02
     4    3.033992049135e-02
     5   -2.609643884491e-04
     6   -4.076573303270e-02
     7   -5.451940107968e-02
     8    4.584059393580e-02
     9   -3.711004994582e-04
    10    1.365385706447e-02
    11    8.297599932501e-03
    12    5.189709519032e-02
    13    4.994225078278e-04
    14    6.196044060526e-01
    15    2.161048055869e-01
    16    1.559969533112e-02
    17    2.596521373801e-03
    18   -1.169532358474e-03
    19    2.439266104949e-04
    20    1.558232753262e-04
    21    5.381956401216e-03
    22   -8.205670131350e-04
    23   -1.626913419510e-03
    24   -2.476404060566e-03
    25    3.674804352190e-02
    26   -2.786965291235e-02
    27    1.382067912614e-03
    28    4.945682688118e-03
    29    5.276003963183e-02
    30   -4.143098092433e-02
    31    2.172712970489e-03
    32    1.101815872457e-03
    33    8.450792408629e-02
    34   -5.161105840688e-02
    35    2.624817450617e-03
    36   -4.625706130349e-01
    37    2.635736209749e-01
    38   -5.545337179781e-02
    39    3.226912435196e-03
    40   -1.004956678672e-03
    41   -5.423561683765e-05
    42   -4.435789327497e-05
    43   -4.457314822457e-03
    44   -4.453245144608e-03
    45    9.194738392360e-03
    46    1.516475234607e-02
    47   -5.449188994209e-02
    48    4.846272940472e-02
    49   -1.317210076938e-03
    50   -4.504220070806e-02
    51   -9.211590807850e-02
    52    6.725164545851e-02
    53   -2.112050528806e-03
    54   -1.604234564888e-01
    55   -9.141520877829e-02
    56    2.950416937917e-03
    57   -1.274918257618e-03
    58    1.796181819995e-01
    59    2.312658125620e-02
    60   -1.175648450328e-01
    61    1.005629696941e-03
    62    1.312780698966e-03
    63    4.782691681688e-06
    64    3.313882815222e-04
    65    9.248909836789e-05
    66    4.429907233416e-03
    67   -1.560640792023e-02
    68   -2.457905927733e-02
    69   -1.057445929972e-01
    70    1.893656601049e-02
    71   -3.311973266002e-03
    72    6.995704593600e-02
    73   -1.507835325250e-01
    74    3.268425733262e-02
    75   -5.215422426162e-03
    76    3.745531857617e-02
    77   -1.086133431187e-01
    78    1.930693812761e-02
    79   -3.737204688938e-03
    80    1.639386380357e-01
    81   -2.939451300221e-01
    82   -1.647371179836e-01
    83   -2.287999165346e-03
    84    7.744051742139e-04
    85    3.236791139283e-04
    86   -3.606354548476e-05
    87    3.424925475045e-03
    88   -1.565695745518e-03
    89    9.568162889054e-04
    90    1.127515174440e-03
    91   -9.603204144951e-02
    92    4.293507731532e-02
    93   -2.647058076477e-03
    94   -6.066664448591e-03
    95   -1.477128274214e-01
    96    6.087680049705e-02
    97   -4.165052695328e-03
    98    5.413923556065e-02
    99   -9.098372225261e-02
   100    4.464561177393e-02
   101   -2.778652346642e-03
   102   -7.241391012658e-01
   103   -1.108713430843e-01
   104    2.109657533657e-01
   105   -2.915279829901e-03
   106   -1.730192417196e-03
   107    1.160250383743e-04
   108    3.625173353371e-04
   109    1.778325651306e-02
   110   -2.855005533839e-03
   111    2.590907576360e-02
   112    2.975161312578e-02
   113   -4.986366057035e-04
   114    9.773381372342e-04
   115   -2.016340469668e-03
   116    9.563739029754e-03
   117   -3.996797729876e-02
   118   -4.695827113318e-02
   119   -1.583797193002e-02
   120    8.432171293503e-02
   121    1.092206819352e-01
   122    3.842303383948e-02
   123   -2.094223128124e-03
   124   -3.417386049133e-03
   125    3.041918479459e-02
   126   -3.669129773997e-02
   127    2.858131492045e-04
   128    1.223957148371e-02
   129    5.046133657605e-02
   130   -6.167076811039e-02
   131    4.925047099896e-04
   132    1.336094598099e-02
   133   -3.933944211583e-02
   134    1.556238641040e-02
   135   -8.418724374661e-04
   136   -5.015184022145e-02
   137   -9.548348069103e-02
   138   -1.137501331978e-01
   139   -1.493172600327e-04
   140   -1.990548924250e-03
   141   -1.218394319898e-04
   142   -7.904589547374e-04
   143   -2.792868264470e-02
   144   -2.165081061057e-02
   145   -1.930834348515e-03
   146   -3.163702623097e-03
   147   -1.374930298418e-01
   148    8.999980374394e-02
   149   -3.753821549418e-03
   150    8.908362864148e-03
   151   -2.024010750196e-01
   152    1.322760116603e-01
   153   -5.552054974067e-03
   154    8.768693347302e-03
   155   -1.912446044435e-01
   156    1.156731166852e-01
   157   -5.133704806768e-03
   158    1.402053865973e-01
   159   -1.151303203733e-02
   160   -2.484068841445e-02
   161   -2.695090159618e-04
   162    1.009692021671e-04
   163    1.466592462603e-04
   164    2.172380672558e-04
   165    8.958228273075e-03
   166    3.538057599746e-03
   167    4.301103874961e-03
   168    7.037115672860e-03
   169   -4.941224715609e-02
   170    7.061742746892e-02
   171    2.562263830597e-04
   172   -1.751763207887e-02
   173   -7.154137590650e-02
   174    1.026207548329e-01
   175    4.067569736151e-04
   176   -3.013490287534e-03
   177   -5.968424274394e-02
   178    8.908032334407e-02
   179    6.161515759805e-04
   180   -4.246722258043e-02
   181    7.759807089383e-03
   182   -3.201162021739e-03
   183    3.349029777058e-04
   184   -2.294966920349e-03
   185   -1.205166259627e-06
   186   -4.253243066369e-05
   187   -3.573813624060e-03
   188   -5.463048031593e-03
   189    6.057712838583e-03
   190    9.694490878189e-03
   191    1.178761860514e-01
   192   -2.225905405376e-02
   193   -1.330454980175e-03
   194   -2.539070020405e-02
   195    1.748262843840e-01
   196   -2.440503513809e-02
   197   -2.407785545269e-03
   198   -7.483946619178e-02
   199    7.329552192419e-02
   200   -1.266159202960e-03
   201   -2.897275335016e-03
   202    2.174832550087e-01
   203   -2.888716752503e-01
   204    2.756047072174e-01
   205   -4.843851358562e-03
   206    5.544692160059e-04
   207    7.963888313768e-05
   208    3.817883201409e-05
   209    1.752300832328e-02
   210   -2.887623755875e-03
   211   -3.414161652919e-04
   212   -1.100556682685e-03
   213    2.932044426796e-03
   214    3.987552387172e-03
   215   -8.506048257159e-03
   216   -8.076896661028e-03
   217    1.569380714628e-02
   218    3.357380517946e-02
   219   -1.127199716955e-03
   220   -2.791993512742e-03
   221   -3.021026683740e-05
   222   -9.288891823343e-03
   223   -2.302873185409e-02
   224   -2.492872378823e-04
   225    2.401242668207e-02
   226    5.979410259170e-02
   227    6.463522024204e-04
   228    9.954908825578e-03
   229    2.326034201967e-02
   230    2.263168983852e-04
   231   -2.134470223332e-02
   232   -4.935406347987e-02
   233   -4.662319133207e-04
   234   -4.379520686773e-02
   235   -1.131902156254e-01
   236   -1.236325647757e-03
   237   -2.084510498222e-02
   238   -3.850773235121e-02
   239   -2.395562921570e-04
   240   -3.568039924658e-03
   241    1.206186891107e-04
   242    1.085345932403e-04
   243   -8.976167777360e-03
   244    3.616122755683e-03
   245   -4.833855925363e-05
   246    2.409491958779e-05
   247    1.296742583043e-06
   248   -1.234064961127e-03
   249   -2.481660154869e-04
   250    2.967787986509e-03
   251    7.064050719648e-03
   252   -7.364488036470e-03
   253    8.487816474137e-05
   254    6.081563811608e-03
   255   -1.720041276072e-04
   256   -3.154138974486e-04
   257    1.317246570479e-02
   258   -6.687292778457e-03
Sym=X
Ene= -0.065984
Spin=Alpha
Occup=1
     1    6.709161091892e-06
     2    1.116431575977e-05
     3    1.267266802001e-03
     4   -1.146033429119e-03
     5   -1.060909629114e-01
     6   -1.092269818113e-05
     7    2.067272471270e-03
     8   -1.822469033131e-03
     9   -1.737169898679e-01
    10   -2.322570001305e-04
    11    2.021948331459e-03
    12   -1.286740053447e-03
    13   -1.543594298792e-01
    14    3.178290194432e-03
    15    7.070218630159e-04
    16   -4.014289536846e-04
    17   -3.344418118095e-03
    18   -1.104785408990e-04
    19   -4.876031840055e-03
    20    1.867027356024e-03
    21    1.458270519157e-04
    22    2.983810853530e-05
    23   -2.727535206824e-05
    24   -4.317290817906e-05
    25    5.569735224394e-04
    26   -6.200389839698e-04
    27   -6.599774857825e-02
    28    1.219061146155e-04
    29    9.466510243982e-04
    30   -1.014662739967e-03
    31   -1.080480852715e-01
    32    2.200209061924e-04
    33    1.324934817223e-03
    34   -9.935168430047e-04
    35   -1.055574798696e-01
    36   -2.127358184983e-03
    37    9.326759118905e-04
    38   -1.100341688616e-04
    39   -2.517099965565e-02
    40    3.592417377771e-04
    41    1.476000355154e-02
    42   -6.684197475620e-03
    43   -1.026742095953e-04
    44    2.028621698394e-04
    45    1.552290470796e-04
    46    2.507159345263e-04
    47   -9.150820864849e-04
    48    6.725362723383e-04
    49    6.645606163303e-02
    50   -7.171452543530e-04
    51   -1.550330438875e-03
    52    1.059286537751e-03
    53    1.083803591726e-01
    54   -1.463954682098e-03
    55   -1.837004417890e-03
    56    4.005126307101e-04
    57    9.541653032496e-02
    58    4.206849413106e-04
    59   -1.749654669907e-04
    60    2.198249882525e-04
    61    4.186953293849e-02
    62    2.126466454016e-04
    63   -2.447552407942e-03
    64   -2.176591646853e-02
    65    2.375376952744e-04
    66    2.299238941594e-04
    67   -5.385624342510e-05
    68   -8.455651279318e-05
    69   -2.264896451362e-03
    70    8.836998435856e-04
    71    1.353475372098e-01
    72    2.507999573869e-04
    73   -3.551105863418e-03
    74    1.476593805005e-03
    75    2.207664977944e-01
    76   -6.054171466101e-04
    77   -2.665877007609e-03
    78    1.311200958850e-03
    79    2.000651204742e-01
    80    5.129100151415e-04
    81   -3.740843299447e-04
    82   -8.611227572458e-04
    83   -1.692294201360e-02
    84   -1.547895015097e-04
    85   -3.355915212620e-03
    86    7.617857781451e-03
    87    5.083747847811e-05
    88   -6.646195845492e-05
    89   -1.009880650350e-05
    90   -1.888317154007e-05
    91   -2.649271501195e-04
    92    5.291984199310e-04
    93   -3.487051841690e-02
    94    2.822954352469e-05
    95   -3.668905999668e-04
    96    7.003047239521e-04
    97   -5.758229050861e-02
    98    7.055430973703e-04
    99   -1.776767993869e-04
   100    3.817136141830e-04
   101   -4.007255209897e-02
   102   -6.733635745231e-03
   103   -6.925616686995e-04
   104    9.492928040686e-04
   105   -2.391561444775e-02
   106    1.545582310218e-04
   107   -8.993213247630e-04
   108   -1.593181215722e-02
   109    2.791775579842e-04
   110    2.396536510700e-04
   111   -4.189523841553e-04
   112   -5.881894750841e-04
   113   -2.535145177006e-04
   114   -1.211675536765e-04
   115   -1.462693129761e-04
   116    1.060618542045e-06
   117   -2.625582895962e-04
   118   -3.536051007639e-04
   119   -1.286365066150e-04
   120    6.109060567954e-04
   121    8.077848872046e-04
   122    3.146066934218e-04
   123   -2.912158748306e-05
   124   -4.684915562989e-05
   125   -2.006288967716e-06
   126   -5.278493504091e-05
   127   -6.880038256717e-03
   128    1.444745737071e-04
   129    2.695462621414e-05
   130   -9.323717955087e-05
   131   -1.050854162301e-02
   132    2.187950359868e-04
   133   -5.839229056613e-04
   134    8.883881143290e-05
   135   -1.094105620952e-02
   136   -3.908074341514e-04
   137   -5.596150853752e-04
   138   -4.941824503857e-04
   139   -3.219795486217e-02
   140   -1.865947144918e-04
   141   -8.571083115408e-03
   142    1.290658012297e-03
   143   -1.347206501584e-04
   144   -9.175816757019e-05
   145   -1.154623235261e-05
   146   -1.872010610701e-05
   147   -6.547954040307e-04
   148    2.020935941279e-04
   149   -1.219395921840e-02
   150    6.153485742964e-05
   151   -9.594627817960e-04
   152    3.027215253063e-04
   153   -1.795409670208e-02
   154    1.318092303911e-04
   155   -8.587935981933e-04
   156    1.990766997944e-04
   157   -1.676604892089e-02
   158    6.783931211344e-04
   159   -6.842175259168e-05
   160   -1.074563711875e-04
   161    7.269085450513e-03
   162   -6.314850746556e-06
   163    5.852748069543e-04
   164    1.254041898478e-03
   165    3.357023633533e-05
   166    2.589613822634e-05
   167   -2.321305992420e-05
   168   -3.759895459509e-05
   169   -3.709436697587e-04
   170   -4.092025130682e-04