[Molden Format]
[Atoms] (Angs)
  C      1    6      0.73800500      1.28081960     -0.05304325
  C      2    6      2.13107735      1.27623482     -0.03775458
  C      3    6      2.78774418      0.04994967     -0.02233513
  C      4    6      2.10787290     -1.16395883     -0.02177557
  C      5    6      0.02715627      0.07955847     -0.05285920
  H      6    1      0.20350732      2.22257168     -0.06513515
  H      7    1      2.70574282      2.19227310     -0.03751535
  H      8    1      2.65503181     -2.09648975     -0.00950659
  H      9    1     -1.05554128      0.07960796     -0.06461677
  N     10    7      4.25078279      0.02984995     -0.00604320
  O     11    8      4.85312968      1.12722449     -0.00700032
  O     12    8      4.82301363     -1.08336832      0.00783743
  C     13    6      0.72203597     -1.12622675     -0.03726783
 Br     14   35     -0.25419454     -2.77854143     -0.03668405
[GTO]
1    0
S    6    1.000000
   4.56324000E+03    1.96665000E-03 
   6.82024000E+02    1.52306000E-02 
   1.54973000E+02    7.61269000E-02 
   4.44553000E+01    2.60801000E-01 
   1.30290000E+01    6.16462000E-01 
   1.82773000E+00    2.21006000E-01 
SP   3    1.000000
   2.09642000E+01    1.14660000E-01   4.02487000E-02 
   4.80331000E+00    9.19999000E-01   2.37594000E-01 
   1.45933000E+00   -3.03068000E-03   8.15854000E-01 
SP   1    1.000000
   4.83456000E-01    1.00000000E+00   1.00000000E+00 
SP   1    1.000000
   1.45585000E-01    1.00000000E+00   1.00000000E+00 
SP   1    1.000000
   4.38000000E-02    1.00000000E+00   1.00000000E+00 
D    1    1.000000
   6.26000000E-01    1.00000000E+00 

2    0
S    6    1.000000
   4.56324000E+03    1.96665000E-03 
   6.82024000E+02    1.52306000E-02 
   1.54973000E+02    7.61269000E-02 
   4.44553000E+01    2.60801000E-01 
   1.30290000E+01    6.16462000E-01 
   1.82773000E+00    2.21006000E-01 
SP   3    1.000000
   2.09642000E+01    1.14660000E-01   4.02487000E-02 
   4.80331000E+00    9.19999000E-01   2.37594000E-01 
   1.45933000E+00   -3.03068000E-03   8.15854000E-01 
SP   1    1.000000
   4.83456000E-01    1.00000000E+00   1.00000000E+00 
SP   1    1.000000
   1.45585000E-01    1.00000000E+00   1.00000000E+00 
SP   1    1.000000
   4.38000000E-02    1.00000000E+00   1.00000000E+00 
D    1    1.000000
   6.26000000E-01    1.00000000E+00 

3    0
S    6    1.000000
   4.56324000E+03    1.96665000E-03 
   6.82024000E+02    1.52306000E-02 
   1.54973000E+02    7.61269000E-02 
   4.44553000E+01    2.60801000E-01 
   1.30290000E+01    6.16462000E-01 
   1.82773000E+00    2.21006000E-01 
SP   3    1.000000
   2.09642000E+01    1.14660000E-01   4.02487000E-02 
   4.80331000E+00    9.19999000E-01   2.37594000E-01 
   1.45933000E+00   -3.03068000E-03   8.15854000E-01 
SP   1    1.000000
   4.83456000E-01    1.00000000E+00   1.00000000E+00 
SP   1    1.000000
   1.45585000E-01    1.00000000E+00   1.00000000E+00 
SP   1    1.000000
   4.38000000E-02    1.00000000E+00   1.00000000E+00 
D    1    1.000000
   6.26000000E-01    1.00000000E+00 

4    0
S    6    1.000000
   4.56324000E+03    1.96665000E-03 
   6.82024000E+02    1.52306000E-02 
   1.54973000E+02    7.61269000E-02 
   4.44553000E+01    2.60801000E-01 
   1.30290000E+01    6.16462000E-01 
   1.82773000E+00    2.21006000E-01 
SP   3    1.000000
   2.09642000E+01    1.14660000E-01   4.02487000E-02 
   4.80331000E+00    9.19999000E-01   2.37594000E-01 
   1.45933000E+00   -3.03068000E-03   8.15854000E-01 
SP   1    1.000000
   4.83456000E-01    1.00000000E+00   1.00000000E+00 
SP   1    1.000000
   1.45585000E-01    1.00000000E+00   1.00000000E+00 
SP   1    1.000000
   4.38000000E-02    1.00000000E+00   1.00000000E+00 
D    1    1.000000
   6.26000000E-01    1.00000000E+00 

5    0
S    6    1.000000
   4.56324000E+03    1.96665000E-03 
   6.82024000E+02    1.52306000E-02 
   1.54973000E+02    7.61269000E-02 
   4.44553000E+01    2.60801000E-01 
   1.30290000E+01    6.16462000E-01 
   1.82773000E+00    2.21006000E-01 
SP   3    1.000000
   2.09642000E+01    1.14660000E-01   4.02487000E-02 
   4.80331000E+00    9.19999000E-01   2.37594000E-01 
   1.45933000E+00   -3.03068000E-03   8.15854000E-01 
SP   1    1.000000
   4.83456000E-01    1.00000000E+00   1.00000000E+00 
SP   1    1.000000
   1.45585000E-01    1.00000000E+00   1.00000000E+00 
SP   1    1.000000
   4.38000000E-02    1.00000000E+00   1.00000000E+00 
D    1    1.000000
   6.26000000E-01    1.00000000E+00 

6    0
S    3    1.000000
   3.38650000E+01    2.54938000E-02 
   5.09479000E+00    1.90373000E-01 
   1.15879000E+00    8.52161000E-01 
S    1    1.000000
   3.25840000E-01    1.00000000E+00 
S    1    1.000000
   1.02741000E-01    1.00000000E+00 

7    0
S    3    1.000000
   3.38650000E+01    2.54938000E-02 
   5.09479000E+00    1.90373000E-01 
   1.15879000E+00    8.52161000E-01 
S    1    1.000000
   3.25840000E-01    1.00000000E+00 
S    1    1.000000
   1.02741000E-01    1.00000000E+00 

8    0
S    3    1.000000
   3.38650000E+01    2.54938000E-02 
   5.09479000E+00    1.90373000E-01 
   1.15879000E+00    8.52161000E-01 
S    1    1.000000
   3.25840000E-01    1.00000000E+00 
S    1    1.000000
   1.02741000E-01    1.00000000E+00 

9    0
S    3    1.000000
   3.38650000E+01    2.54938000E-02 
   5.09479000E+00    1.90373000E-01 
   1.15879000E+00    8.52161000E-01 
S    1    1.000000
   3.25840000E-01    1.00000000E+00 
S    1    1.000000
   1.02741000E-01    1.00000000E+00 

10    0
S    6    1.000000
   6.29348000E+03    1.96979000E-03 
   9.49044000E+02    1.49613000E-02 
   2.18776000E+02    7.35006000E-02 
   6.36916000E+01    2.48937000E-01 
   1.88282000E+01    6.02460000E-01 
   2.72023000E+00    2.56202000E-01 
SP   3    1.000000
   3.06331000E+01    1.11906000E-01   3.83119000E-02 
   7.02614000E+00    9.21666000E-01   2.37403000E-01 
   2.11205000E+00   -2.56919000E-03   8.17592000E-01 
SP   1    1.000000
   6.84009000E-01    1.00000000E+00   1.00000000E+00 
SP   1    1.000000
   2.00878000E-01    1.00000000E+00   1.00000000E+00 
SP   1    1.000000
   6.39000000E-02    1.00000000E+00   1.00000000E+00 
D    1    1.000000
   9.13000000E-01    1.00000000E+00 

11    0
S    6    1.000000
   8.58850000E+03    1.89515000E-03 
   1.29723000E+03    1.43859000E-02 
   2.99296000E+02    7.07320000E-02 
   8.73771000E+01    2.40001000E-01 
   2.56789000E+01    5.94797000E-01 
   3.74004000E+00    2.80802000E-01 
SP   3    1.000000
   4.21175000E+01    1.13889000E-01   3.65114000E-02 
   9.62837000E+00    9.20811000E-01   2.37153000E-01 
   2.85332000E+00   -3.27447000E-03   8.19702000E-01 
SP   1    1.000000
   9.05661000E-01    1.00000000E+00   1.00000000E+00 
SP   1    1.000000
   2.55611000E-01    1.00000000E+00   1.00000000E+00 
SP   1    1.000000
   8.45000000E-02    1.00000000E+00   1.00000000E+00 
D    1    1.000000
   1.29200000E+00    1.00000000E+00 

12    0
S    6    1.000000
   8.58850000E+03    1.89515000E-03 
   1.29723000E+03    1.43859000E-02 
   2.99296000E+02    7.07320000E-02 
   8.73771000E+01    2.40001000E-01 
   2.56789000E+01    5.94797000E-01 
   3.74004000E+00    2.80802000E-01 
SP   3    1.000000
   4.21175000E+01    1.13889000E-01   3.65114000E-02 
   9.62837000E+00    9.20811000E-01   2.37153000E-01 
   2.85332000E+00   -3.27447000E-03   8.19702000E-01 
SP   1    1.000000
   9.05661000E-01    1.00000000E+00   1.00000000E+00 
SP   1    1.000000
   2.55611000E-01    1.00000000E+00   1.00000000E+00 
SP   1    1.000000
   8.45000000E-02    1.00000000E+00   1.00000000E+00 
D    1    1.000000
   1.29200000E+00    1.00000000E+00 

13    0
S    6    1.000000
   4.56324000E+03    1.96665000E-03 
   6.82024000E+02    1.52306000E-02 
   1.54973000E+02    7.61269000E-02 
   4.44553000E+01    2.60801000E-01 
   1.30290000E+01    6.16462000E-01 
   1.82773000E+00    2.21006000E-01 
SP   3    1.000000
   2.09642000E+01    1.14660000E-01   4.02487000E-02 
   4.80331000E+00    9.19999000E-01   2.37594000E-01 
   1.45933000E+00   -3.03068000E-03   8.15854000E-01 
SP   1    1.000000
   4.83456000E-01    1.00000000E+00   1.00000000E+00 
SP   1    1.000000
   1.45585000E-01    1.00000000E+00   1.00000000E+00 
SP   1    1.000000
   4.38000000E-02    1.00000000E+00   1.00000000E+00 
D    1    1.000000
   6.26000000E-01    1.00000000E+00 

14    0
S    6    1.000000
   4.39700000E+05    8.13000000E-04 
   6.60300000E+04    6.28500000E-03 
   1.51400000E+04    3.19200000E-02 
   4.31700000E+03    1.28800000E-01 
   1.41400000E+03    3.94600000E-01 
   5.23900000E+02    5.41300000E-01 
S    3    1.000000
   5.23900000E+02    1.83100000E-01 
   2.07700000E+02    6.17600000E-01 
   8.65400000E+01    2.53800000E-01 
S    1    1.000000
   3.05200000E+01    1.00000000E+00 
S    1    1.000000
   1.29800000E+01    1.00000000E+00 
S    1    1.000000
   4.41200000E+00    1.00000000E+00 
S    1    1.000000
   1.86200000E+00    1.00000000E+00 
S    1    1.000000
   3.93200000E-01    1.00000000E+00 
S    1    1.000000
   1.40000000E-01    1.00000000E+00 
P    3    1.000000
   2.95700000E+03    2.22600000E-02 
   7.00300000E+02    1.80200000E-01 
   2.24600000E+02    8.62400000E-01 
P    3    1.000000
   8.25900000E+01    3.44000000E-01 
   3.31900000E+01    5.07100000E-01 
   1.42000000E+01    2.59000000E-01 
P    3    1.000000
   1.42000000E+01    7.96500000E-02 
   7.43800000E+00    3.73400000E-01 
   3.52600000E+00    6.04900000E-01 
P    1    1.000000
   1.59500000E+00    1.00000000E+00 
P    1    1.000000
   8.46200000E-01    1.00000000E+00 
P    1    1.000000
   3.18600000E-01    1.00000000E+00 
P    1    1.000000
   1.09600000E-01    1.00000000E+00 
D    4    1.000000
   1.34800000E+02    1.83100000E-02 
   3.63900000E+01    1.35000000E-01 
   1.21600000E+01    4.26100000E-01 
   4.34100000E+00    6.04300000E-01 
D    1    1.000000
   1.53500000E+00    1.00000000E+00 
SP   1    1.000000
   3.90000000E-02    1.00000000E+00   1.00000000E+00 
D    1    1.000000
   4.15000000E-01    1.00000000E+00 

[MO]
Sym=X
Ene= -0.105468
Spin=Alpha
Occup=1
     1    1.303703853148e-04
     2    2.054011292521e-04
     3   -6.051048767374e-04
     4    1.208485069157e-03
     5    4.856998588076e-02
     6   -5.783512744206e-04
     7   -9.817605818044e-04
     8    1.850581549623e-03
     9    7.970195515321e-02
    10   -1.012143234376e-03
    11   -1.680364480827e-03
    12    1.298397159882e-03
    13    7.266746897826e-02
    14   -6.709418232642e-03
    15   -7.592669673350e-03
    16   -3.951880997911e-03
    17   -6.129390811122e-03
    18   -1.827995425300e-04
    19   -1.504518854624e-02
    20   -9.702499409554e-03
    21    2.222043259818e-04
    22   -1.478956855235e-04
    23   -2.633966594766e-04
    24   -4.214307390994e-04
    25    1.245058346538e-03
    26   -9.474045355638e-04
    27   -7.358232419734e-02
    28    1.192587072319e-03
    29    2.053236962947e-03
    30   -1.415040766739e-03
    31   -1.208801082823e-01
    32    1.239434366549e-03
    33    3.411036802492e-04
    34   -7.502564194924e-04
    35   -8.814505295590e-02
    36    4.109156624710e-04
    37   -1.023810075613e-02
    38    5.318635782811e-03
    39    1.272346192280e-02
    40   -4.512962227057e-04
    41   -1.372146337924e-02
    42    1.498584585529e-02
    43   -3.694441515714e-05
    44   -3.845751058142e-04
    45    3.652616931765e-05
    46    5.874348088131e-05
    47    1.408888886148e-03
    48   -1.295632535203e-04
    49   -1.570172171540e-01
    50   -1.708276487794e-04
    51    2.295080403520e-03
    52   -2.767668940456e-04
    53   -2.572530310302e-01
    54   -5.334025437248e-04
    55    2.009988652775e-03
    56   -2.939723800891e-04
    57   -2.304093275086e-01
    58    2.353333492578e-04
    59    4.766471493776e-04
    60    9.524244281571e-03
    61   -4.935342611307e-02
    62    7.044932279117e-05
    63    4.104106619669e-03
    64    1.641443946343e-03
    65   -1.151170027635e-04
    66   -9.330655265509e-05
    67    1.798645116119e-04
    68    2.917104716571e-04
    69    4.787310991586e-04
    70   -8.406770340693e-04
    71   -7.974966899726e-02
    72   -8.426294241469e-04
    73    7.600085914744e-04
    74   -1.254822958010e-03
    75   -1.296429739658e-01
    76   -1.630612853227e-03
    77    2.367661724100e-03
    78   -7.629655536298e-04
    79   -1.112110568215e-01
    80   -3.852430352470e-03
    81    1.096601380294e-02
    82    4.985768676054e-03
    83    1.467951983086e-02
    84   -1.168371098541e-04
    85   -1.578843226472e-02
    86   -1.517006865172e-02
    87    3.210963940614e-04
    88   -6.341960563184e-05
    89   -3.031041576597e-06
    90   -5.596787989140e-06
    91   -1.500780396989e-03
    92   -1.035031752149e-04
    93    1.104175682921e-01
    94    6.183817793418e-06
    95   -2.443542450370e-03
    96    6.123634261598e-05
    97    1.804918626448e-01
    98    4.863968960668e-04
    99   -1.933584567748e-03
   100   -1.754277387557e-04
   101    1.531151958441e-01
   102    5.370322765977e-04
   103   -4.112463878135e-04
   104   -6.731184337506e-03
   105    3.263338843288e-02
   106    9.764492820117e-05
   107    4.303430389863e-03
   108   -1.882722895048e-03
   109   -1.410512965184e-05
   110   -6.822887097484e-05
   111    6.179005105599e-04
   112    8.741019180546e-04
   113    2.793312013011e-04
   114   -3.692914421266e-05
   115   -1.500209800482e-04
   116   -3.874063666235e-04
   117    5.713434015254e-05
   118    1.568321061619e-04
   119    3.856747718940e-04
   120    2.400135396245e-04
   121    2.592873188936e-04
   122    8.306991748062e-05
   123    4.370496051205e-05
   124    6.999117456723e-05
   125    4.357547844600e-05
   126    3.195806752267e-04
   127    2.051340457339e-02
   128   -2.066879098152e-04
   129    7.581977277613e-05
   130    5.785553221933e-04
   131    3.160722865927e-02
   132   -1.688486479353e-04
   133   -4.010707424867e-04
   134   -1.021463081193e-03
   135    3.048119392281e-02
   136   -5.264396712406e-05
   137   -9.393765409733e-04
   138    2.203829740935e-03
   139    5.338081452179e-02
   140    3.044404124872e-04
   141    2.127202373090e-02
   142    7.393779619886e-03
   143   -4.058765288085e-04
   144    6.209320079213e-04
   145   -4.569165764226e-05
   146   -7.323444479962e-05
   147    1.021622079402e-03
   148   -1.453894652785e-03
   149    9.054539590903e-02
   150    2.594767350101e-04
   151    1.533690020991e-03
   152   -2.123598392075e-03
   153    1.347340484761e-01
   154    9.261943077707e-04
   155    1.313519767714e-03
   156   -2.151062580156e-03
   157    1.256037510898e-01
   158   -1.471921146016e-03
   159    3.865503283459e-04
   160    2.747178811133e-04
   161   -1.037717015998e-03
   162    1.922005587517e-05
   163   -3.341123599975e-03
   164   -7.060022896434e-03
   165   -1.089915147936e-04
   166    4.180690185648e-06
   167    2.020818957801e-05
   168    3.278996761169e-05
   169   -3.293709827615e-03
   170   -1.907103103252e-03
   171    2.848535852282e-02
   172   -1.272266203109e-04
   173   -4.897556030219e-03
   174   -2.794184795076e-03
   175    4.279551660020e-02
   176   -6.943045203454e-04
   177   -4.447707826163e-03
   178   -2.790128658374e-03
   179    3.759108135176e-02
   180    1.732048783503e-03
   181   -2.176682332002e-04
   182    2.795798458888e-04
   183   -1.344782007608e-02
   184   -5.386406661683e-05
   185   -4.641128588920e-04
   186    3.176280830173e-03
   187    1.958795321301e-04
   188   -1.352298945552e-04
   189   -1.238920283101e-04
   190   -1.973520958537e-04
   191   -6.629662853088e-04
   192    1.004872682593e-03
   193    6.674933642420e-02
   194    5.514473872826e-04
   195   -1.089986741351e-03
   196    1.609626464147e-03
   197    1.083721055978e-01
   198    1.292906871921e-03
   199    2.441764253424e-04
   200    9.249349598698e-04
   201    1.017605172203e-01
   202    8.947925729483e-03
   203    8.806937951578e-03
   204   -4.348531550557e-03
   205   -1.750365295312e-02
   206   -4.290148742096e-04
   207   -2.015671813397e-02
   208    4.476648905754e-03
   209    2.153486838079e-04
   210   -3.510668232931e-04
   211    1.612624904278e-05
   212    5.227057964246e-05
   213   -1.418234021314e-04
   214   -1.686686465534e-04
   215    3.255893379831e-04
   216    4.481092402105e-04
   217   -8.459709432567e-04
   218   -1.584569921855e-04
   219   -3.918114037471e-05
   220   -1.044870353230e-05
   221    4.761079648186e-03
   222   -3.235344230961e-04
   223   -8.600264624466e-05
   224    3.929979422650e-02
   225    8.446932878307e-04
   226    2.205436968776e-04
   227   -1.024690396122e-01
   228    3.058834672873e-04
   229    9.930195587042e-05
   230   -3.763400720652e-02
   231   -6.564611732055e-04
   232   -2.114120661540e-04
   233    8.168199406311e-02
   234   -1.689633930411e-03
   235   -3.955824254102e-04
   236    1.994300690440e-01
   237   -6.760126145810e-04
   238   -8.050990976535e-05
   239    1.046405317951e-01
   240    8.056291532360e-06
   241   -2.995928634218e-03
   242   -6.169895594395e-03
   243    1.306227742616e-05
   244    7.012746111254e-05
   245    1.042850603880e-05
   246   -3.649951513343e-04
   247   -7.299373675094e-04
   248   -2.253778423077e-06
   249   -9.820353775338e-07
   250    4.113486694935e-04
   251    5.576309962109e-05
   252    8.652474588839e-05
   253    2.775775451430e-03
   254   -1.957996232376e-05
   255    6.325882457914e-03
   256    1.599164064674e-02
   257   -1.449722437295e-04
   258   -2.313768793385e-04
Sym=X
Ene= -0.182981
Spin=Alpha
Occup=1
     1    2.725061261289e-05
     2    4.301918383776e-05
     3   -1.555991645990e-03
     4    8.855855384974e-04
     5    1.223708929927e-01
     6   -1.269030268562e-04
     7   -2.489241826949e-03
     8    1.432866044012e-03
     9    1.988711399752e-01
    10   -1.789970882978e-05
    11   -2.025118313633e-03
    12    1.122998844736e-03
    13    1.630552440692e-01
    14   -8.035787691398e-04
    15   -1.115881241763e-03
    16   -1.119047396840e-04
    17    3.264235652295e-02
    18    1.182235091502e-04
    19    2.925168142158e-04
    20   -9.757704644538e-03
    21    2.117100144848e-05
    22    8.650125670112e-05
    23   -1.805435815504e-06
    24   -3.198893577767e-06
    25   -3.563252618157e-04
    26    3.593825274090e-04
    27    5.707536133489e-02
    28    8.735647982073e-06
    29   -6.246948586687e-04
    30    6.089571344156e-04
    31    9.347941530838e-02
    32   -6.410956092786e-06
    33   -5.993787719545e-04
    34    4.958208892329e-04
    35    6.640117587785e-02
    36    1.393229959501e-04
    37   -7.251650283097e-04
    38    3.089886152192e-04
    39   -2.490064218619e-02
    40   -3.114187422639e-04
    41   -1.538274289712e-02
    42    1.542054555826e-03
    43    1.296537728289e-04
    44   -1.265145567280e-04
    45   -3.178985797110e-05
    46   -5.137286443714e-05
    47    2.234817247418e-04
    48   -3.829515477854e-05
    49   -2.306839133739e-02
    50    1.435064297108e-04
    51    3.950497720572e-04
    52   -8.883873901697e-05
    53   -3.930436475322e-02
    54    2.243661243864e-04
    55    5.967000058560e-04
    56   -7.394862186830e-05
    57   -4.402395597384e-02
    58   -1.051866882251e-04
    59   -2.952914854883e-04
    60    1.212672626953e-03
    61    2.861979869116e-02
    62   -1.860250884579e-04
    63   -3.845343832573e-03
    64    9.669436085994e-03
    65   -6.363223071908e-05
    66   -1.332678680104e-04
    67    1.070375896185e-05
    68    1.741824462979e-05
    69    5.312031404922e-04
    70   -3.134160833345e-04
    71   -3.954368621363e-02
    72   -5.902399785081e-05
    73    8.519862235286e-04
    74   -5.224460311618e-04
    75   -6.574285112788e-02
    76    2.179742299121e-04
    77    6.602431906548e-04
    78   -3.268411494777e-04
    79   -4.985148323119e-02
    80   -5.990113164212e-05
    81    1.422591954032e-03
    82    4.008558096199e-04
    83   -3.533321027469e-02
    84   -2.000798809024e-05
    85   -1.193978232896e-03
    86   -2.176854314182e-04
    87    3.404783615798e-06
    88   -3.539208255125e-05
    89    4.237215161441e-06
    90    7.123595514273e-06
    91   -9.014405008775e-04
    92    5.725797198946e-04
    93    1.021431532877e-01
    94   -6.981754689268e-06
    95   -1.483342930725e-03
    96    9.516196513505e-04
    97    1.659464606590e-01
    98   -2.534745461831e-04
    99   -1.431117927310e-03
   100    9.285805070126e-04
   101    1.509161905030e-01
   102    1.170105952555e-03
   103    3.319566274814e-04
   104   -9.923345718415e-04
   105   -1.746397577285e-02
   106    6.389182708787e-06
   107    7.776141853211e-03
   108    1.269601754361e-02
   109   -2.207331965861e-04
   110   -1.099203748283e-04
   111    1.371335591206e-04
   112    2.078717244878e-04
   113    8.775849117301e-05
   114    9.027161279941e-05
   115    1.040870184606e-04
   116   -7.050153547982e-07
   117    8.383677030579e-05
   118    1.237695011622e-04
   119    7.355994619121e-05
   120   -1.976904967990e-04
   121   -2.533322631716e-04
   122   -1.088378977843e-04
   123    1.863151513193e-05
   124    2.998130049850e-05
   125    1.928274339193e-04
   126   -3.088873267039e-05
   127   -8.037638566210e-03
   128   -9.015054740563e-05
   129    2.904732007866e-04
   130   -3.934137354921e-05
   131   -1.241377692778e-02
   132   -1.188114199547e-04
   133    3.137870228009e-04
   134   -1.591695283571e-04
   135   -1.028357893472e-02
   136   -2.569769349103e-05
   137    2.425323051511e-04
   138    4.502181602826e-05
   139   -8.982241528003e-03
   140    1.144954225497e-04
   141    3.386004986634e-03
   142   -4.367601036980e-03
   143    1.994641134817e-05
   144    1.025082208049e-04
   145    6.839419301228e-06
   146    1.126398776165e-05
   147    3.848854233056e-04
   148   -2.956225154924e-04
   149   -1.204659881561e-02
   150   -3.215969507790e-05
   151    5.728773469904e-04
   152   -4.375543581243e-04
   153   -1.801350175529e-02
   154   -2.742698697158e-05
   155    5.070246019379e-04
   156   -3.760586463015e-04
   157   -1.520964813485e-02
   158   -1.841384958665e-04
   159    6.596070763438e-07
   160    5.795962936972e-05
   161    1.523379561377e-03
   162    8.354880174833e-07
   163    8.477793678896e-04
   164    1.113928230941e-03
   165   -4.053513979836e-05
   166   -1.556320424969e-05
   167    1.164272306499e-06
   168    1.889094655405e-06
   169   -3.741811552651e-04
   170    1.047729247719e-04
   171    2.766237290234e-02
   172   -7.806765162915e-06
   173   -5.561576958094e-04
   174    1.587197851350e-04
   175    4.105068395213e-02
   176   -8.359312315339e-05
   177   -5.581438671642e-04
   178    1.254675928958e-04
   179    4.093012389862e-02
   180    3.709224197820e-05
   181   -1.439376684906e-04
   182    7.295450177111e-05
   183    9.604875030167e-03
   184   -2.902766775505e-05
   185   -6.085667061971e-04
   186    1.412610952967e-03
   187    5.677772397947e-07
   188   -1.790056174606e-05
   189   -1.298261738555e-05
   190   -2.026280879882e-05
   191   -1.188842035400e-05
   192    1.110400598171e-04
   193   -1.036971239824e-02
   194    5.968607783505e-05
   195    2.649223388528e-05
   196    1.452494294427e-04
   197   -1.783725185093e-02
   198    2.879101511006e-05
   199    1.631160295711e-04
   200    1.372468516630e-05
   201   -3.038912888841e-02
   202   -1.072906656209e-04
   203    6.070256465126e-04
   204   -6.748001127917e-04
   205    3.177476129353e-02
   206   -3.317701822608e-04
   207   -3.074967305110e-03
   208    2.366867937950e-02
   209   -1.305832219824e-04
   210   -2.800020659559e-04
   211   -7.918345520152e-06
   212   -2.563689987492e-05
   213    6.930371117454e-05
   214    8.509950476413e-05
   215   -1.686435065844e-04
   216   -2.123279988426e-04
   217    3.982313044612e-04
   218    2.256849891450e-04
   219    9.637470002234e-05
   220   -6.770327832114e-05
   221   -1.016042312333e-02
   222    7.956079180097e-04
   223   -5.588889870353e-04
   224   -8.387660099892e-02
   225   -2.077544772799e-03
   226    1.458464780247e-03
   227    2.190330168800e-01
   228   -7.685196264753e-04
   229    5.385808810986e-04
   230    8.131625016890e-02
   231    1.688518186132e-03
   232   -1.180270293553e-03
   233   -1.786708287200e-01
   234    4.071072274427e-03
   235   -2.851757437869e-03
   236   -4.281893361242e-01
   237    2.478793804768e-03
   238   -1.657061882460e-03
   239   -2.573883572509e-01
   240    2.266140300721e-06
   241    2.657213888973e-03
   242    3.511546092610e-03
   243   -5.271190648740e-05
   244   -2.052057283561e-05
   245    3.111302646052e-07
   246    5.021626710434e-04
   247    7.241234070367e-04
   248   -1.238277447978e-05
   249   -9.186575962831e-06
   250   -1.127879095323e-04
   251    6.880305372504e-05
   252   -8.163020832391e-05
   253   -9.821499292601e-03
   254   -2.339540798845e-05
   255   -8.431347289623e-03
   256   -1.097260828077e-02
   257    1.512356373545e-04
   258    3.653616630515e-05
Sym=X
Ene= -0.290802
Spin=Alpha
Occup=1
     1    2.437694686830e-05
     2    3.841853399550e-05
     3    9.714115234954e-04
     4   -4.085171562284e-04
     5   -9.937115211826e-02
     6   -1.223646029284e-04
     7    1.602949588506e-03
     8   -6.990838435441e-04
     9   -1.626272340259e-01
    10    3.071716244379e-04
    11    1.457414041908e-03
    12   -6.677620665128e-04
    13   -1.425014751953e-01
    14    2.083509010208e-03
    15   -1.092495061633e-03
    16   -1.157484899808e-03
    17   -8.822954811176e-03
    18   -2.616475058066e-04
    19   -1.587844682507e-02
    20   -3.950642480894e-03
    21    1.780744473221e-04
    22   -1.372962864545e-04
    23   -3.267084098912e-05
    24   -5.130628142767e-05
    25    1.580466676751e-03
    26   -1.149818558251e-03
    27   -1.302169748934e-01
    28    1.361574931248e-04
    29    2.546246230804e-03
    30   -1.828685417634e-03
    31   -2.132334524068e-01
    32   -3.560119510624e-05
    33    2.451056139206e-03
    34   -1.598548924037e-03
    35   -1.886312342436e-01
    36   -2.239186103618e-03
    37   -1.080881107780e-03
    38    1.006513287764e-03
    39   -2.175925609110e-02
    40    1.452990704900e-04
    41    9.066293559274e-03
    42    1.774458081355e-03
    43   -1.366480727775e-04
    44    1.447824739162e-05
    45    7.014091691595e-05
    46    1.163459800005e-04
    47   -2.858044125728e-04
    48    4.519612651095e-05
    49   -2.308981171918e-02
    50   -3.499394826446e-04
    51   -4.976363912756e-04
    52    3.508985327330e-05
    53   -3.838663784701e-02
    54   -1.669594443678e-03
    55   -5.963357003623e-04
    56    7.661017213935e-05
    57   -3.578061373583e-02
    58    1.274210184884e-03
    59    1.108120628077e-04
    60    2.182760660433e-03
    61    1.633187752466e-02
    62    3.012566438160e-04
    63   -3.662411040932e-04
    64   -2.587069409681e-02
    65    8.476665545098e-05
    66    2.691499216553e-04
    67   -6.072288540116e-06
    68   -8.537824636893e-06
    69   -1.158876135035e-03
    70    7.666958079975e-04
    71    1.128252008799e-01
    72    1.056964957250e-05
    73   -1.917102052691e-03
    74    1.233747909915e-03
    75    1.841489504219e-01
    76    2.728668105445e-04
    77   -1.422167082826e-03
    78    1.302280177261e-03
    79    1.708493039401e-01
    80   -3.684954199017e-03
    81    2.184314664737e-03
    82    3.202433586869e-04
    83   -7.655151588009e-03
    84   -2.673577619242e-04
    85   -1.457931564656e-02
    86   -8.896336139208e-04
    87    1.289537525116e-04
    88   -1.463771061021e-04
    89    4.447805109933e-05
    90    7.081286194698e-05
    91   -3.170063362652e-04
    92   -2.238735191279e-05
    93    2.865754358371e-02
    94   -1.982654860630e-04
    95   -4.976398811724e-04
    96    1.375788442165e-05
    97    4.618951041256e-02
    98   -3.567562200655e-04
    99   -5.831312584317e-04
   100    1.359077464532e-04
   101    4.884121187682e-02
   102   -1.761378138243e-03
   103   -4.112385797452e-04
   104   -1.795777921633e-03
   105   -5.876091196553e-03
   106    2.669486901381e-04
   107    1.610578845197e-03
   108   -2.103879252504e-02
   109    8.767645983397e-05
   110    2.150162229286e-04
   111    2.498960656497e-04
   112    3.353008416551e-04
   113    1.251909740227e-04
   114   -7.974364894489e-05
   115   -1.090153192885e-04
   116   -1.737475528825e-05
   117    1.082448014795e-04
   118    1.580800063858e-04
   119    1.337162245208e-04
   120   -5.166524510480e-05
   121   -8.129736425641e-05
   122   -1.562213176343e-05
   123    2.492739429780e-05
   124    4.081515162443e-05
   125    3.265504130559e-04
   126   -2.730721582187e-07
   127    2.955317992685e-03
   128   -1.246608656146e-04
   129    5.284056169452e-04
   130    4.749239613965e-06
   131    4.544557232119e-03
   132   -1.266121119748e-04
   133   -4.109502603208e-04
   134   -5.451507959510e-05
   135    4.311755299678e-03
   136   -7.832677182352e-04
   137   -9.327169059228e-04
   138   -1.717046312861e-04
   139   -3.296172491950e-03
   140   -7.449771978461e-06
   141    3.413092395241e-03
   142    3.546711009054e-03
   143   -3.491675901230e-04
   144    4.973128399447e-06
   145   -6.420652680528e-06
   146   -1.017594972258e-05
   147   -1.229185197986e-03
   148    2.892139325300e-04
   149    3.162413672411e-02
   150    4.357500750893e-05
   151   -1.808963459075e-03
   152    4.362374418973e-04
   153    4.731483571986e-02
   154    1.967526160362e-04
   155   -1.689628753702e-03
   156    3.446344674402e-04
   157    4.410473836980e-02
   158    6.122359400480e-04
   159   -7.635849448503e-05
   160   -7.725717919504e-05
   161    5.730235326911e-03
   162    7.467281030571e-07
   163   -8.553623085815e-04
   164   -2.193658978279e-03
   165    4.999507781997e-05
   166    5.634271823668e-05
   167    1.266859010634e-06
   168    2.403781618020e-06
   169   -1.036737537154e-03
   170   -2.673965023600e-04