[Molden Format]
[Atoms] (Angs)
  C      1    6      0.73800500      1.28081960     -0.05304325
  C      2    6      2.13107735      1.27623482     -0.03775458
  C      3    6      2.78774418      0.04994967     -0.02233513
  C      4    6      2.10787290     -1.16395883     -0.02177557
  C      5    6      0.02715627      0.07955847     -0.05285920
  H      6    1      0.20350732      2.22257168     -0.06513515
  H      7    1      2.70574282      2.19227310     -0.03751535
  H      8    1      2.65503181     -2.09648975     -0.00950659
  H      9    1     -1.05554128      0.07960796     -0.06461677
  N     10    7      4.25078279      0.02984995     -0.00604320
  O     11    8      4.85312968      1.12722449     -0.00700032
  O     12    8      4.82301363     -1.08336832      0.00783743
  C     13    6      0.72203597     -1.12622675     -0.03726783
 Br     14   35     -0.25419454     -2.77854143     -0.03668405
[GTO]
1    0
S    6    1.000000
   4.56324000E+03    1.96665000E-03 
   6.82024000E+02    1.52306000E-02 
   1.54973000E+02    7.61269000E-02 
   4.44553000E+01    2.60801000E-01 
   1.30290000E+01    6.16462000E-01 
   1.82773000E+00    2.21006000E-01 
SP   3    1.000000
   2.09642000E+01    1.14660000E-01   4.02487000E-02 
   4.80331000E+00    9.19999000E-01   2.37594000E-01 
   1.45933000E+00   -3.03068000E-03   8.15854000E-01 
SP   1    1.000000
   4.83456000E-01    1.00000000E+00   1.00000000E+00 
SP   1    1.000000
   1.45585000E-01    1.00000000E+00   1.00000000E+00 
SP   1    1.000000
   4.38000000E-02    1.00000000E+00   1.00000000E+00 
D    1    1.000000
   6.26000000E-01    1.00000000E+00 

2    0
S    6    1.000000
   4.56324000E+03    1.96665000E-03 
   6.82024000E+02    1.52306000E-02 
   1.54973000E+02    7.61269000E-02 
   4.44553000E+01    2.60801000E-01 
   1.30290000E+01    6.16462000E-01 
   1.82773000E+00    2.21006000E-01 
SP   3    1.000000
   2.09642000E+01    1.14660000E-01   4.02487000E-02 
   4.80331000E+00    9.19999000E-01   2.37594000E-01 
   1.45933000E+00   -3.03068000E-03   8.15854000E-01 
SP   1    1.000000
   4.83456000E-01    1.00000000E+00   1.00000000E+00 
SP   1    1.000000
   1.45585000E-01    1.00000000E+00   1.00000000E+00 
SP   1    1.000000
   4.38000000E-02    1.00000000E+00   1.00000000E+00 
D    1    1.000000
   6.26000000E-01    1.00000000E+00 

3    0
S    6    1.000000
   4.56324000E+03    1.96665000E-03 
   6.82024000E+02    1.52306000E-02 
   1.54973000E+02    7.61269000E-02 
   4.44553000E+01    2.60801000E-01 
   1.30290000E+01    6.16462000E-01 
   1.82773000E+00    2.21006000E-01 
SP   3    1.000000
   2.09642000E+01    1.14660000E-01   4.02487000E-02 
   4.80331000E+00    9.19999000E-01   2.37594000E-01 
   1.45933000E+00   -3.03068000E-03   8.15854000E-01 
SP   1    1.000000
   4.83456000E-01    1.00000000E+00   1.00000000E+00 
SP   1    1.000000
   1.45585000E-01    1.00000000E+00   1.00000000E+00 
SP   1    1.000000
   4.38000000E-02    1.00000000E+00   1.00000000E+00 
D    1    1.000000
   6.26000000E-01    1.00000000E+00 

4    0
S    6    1.000000
   4.56324000E+03    1.96665000E-03 
   6.82024000E+02    1.52306000E-02 
   1.54973000E+02    7.61269000E-02 
   4.44553000E+01    2.60801000E-01 
   1.30290000E+01    6.16462000E-01 
   1.82773000E+00    2.21006000E-01 
SP   3    1.000000
   2.09642000E+01    1.14660000E-01   4.02487000E-02 
   4.80331000E+00    9.19999000E-01   2.37594000E-01 
   1.45933000E+00   -3.03068000E-03   8.15854000E-01 
SP   1    1.000000
   4.83456000E-01    1.00000000E+00   1.00000000E+00 
SP   1    1.000000
   1.45585000E-01    1.00000000E+00   1.00000000E+00 
SP   1    1.000000
   4.38000000E-02    1.00000000E+00   1.00000000E+00 
D    1    1.000000
   6.26000000E-01    1.00000000E+00 

5    0
S    6    1.000000
   4.56324000E+03    1.96665000E-03 
   6.82024000E+02    1.52306000E-02 
   1.54973000E+02    7.61269000E-02 
   4.44553000E+01    2.60801000E-01 
   1.30290000E+01    6.16462000E-01 
   1.82773000E+00    2.21006000E-01 
SP   3    1.000000
   2.09642000E+01    1.14660000E-01   4.02487000E-02 
   4.80331000E+00    9.19999000E-01   2.37594000E-01 
   1.45933000E+00   -3.03068000E-03   8.15854000E-01 
SP   1    1.000000
   4.83456000E-01    1.00000000E+00   1.00000000E+00 
SP   1    1.000000
   1.45585000E-01    1.00000000E+00   1.00000000E+00 
SP   1    1.000000
   4.38000000E-02    1.00000000E+00   1.00000000E+00 
D    1    1.000000
   6.26000000E-01    1.00000000E+00 

6    0
S    3    1.000000
   3.38650000E+01    2.54938000E-02 
   5.09479000E+00    1.90373000E-01 
   1.15879000E+00    8.52161000E-01 
S    1    1.000000
   3.25840000E-01    1.00000000E+00 
S    1    1.000000
   1.02741000E-01    1.00000000E+00 

7    0
S    3    1.000000
   3.38650000E+01    2.54938000E-02 
   5.09479000E+00    1.90373000E-01 
   1.15879000E+00    8.52161000E-01 
S    1    1.000000
   3.25840000E-01    1.00000000E+00 
S    1    1.000000
   1.02741000E-01    1.00000000E+00 

8    0
S    3    1.000000
   3.38650000E+01    2.54938000E-02 
   5.09479000E+00    1.90373000E-01 
   1.15879000E+00    8.52161000E-01 
S    1    1.000000
   3.25840000E-01    1.00000000E+00 
S    1    1.000000
   1.02741000E-01    1.00000000E+00 

9    0
S    3    1.000000
   3.38650000E+01    2.54938000E-02 
   5.09479000E+00    1.90373000E-01 
   1.15879000E+00    8.52161000E-01 
S    1    1.000000
   3.25840000E-01    1.00000000E+00 
S    1    1.000000
   1.02741000E-01    1.00000000E+00 

10    0
S    6    1.000000
   6.29348000E+03    1.96979000E-03 
   9.49044000E+02    1.49613000E-02 
   2.18776000E+02    7.35006000E-02 
   6.36916000E+01    2.48937000E-01 
   1.88282000E+01    6.02460000E-01 
   2.72023000E+00    2.56202000E-01 
SP   3    1.000000
   3.06331000E+01    1.11906000E-01   3.83119000E-02 
   7.02614000E+00    9.21666000E-01   2.37403000E-01 
   2.11205000E+00   -2.56919000E-03   8.17592000E-01 
SP   1    1.000000
   6.84009000E-01    1.00000000E+00   1.00000000E+00 
SP   1    1.000000
   2.00878000E-01    1.00000000E+00   1.00000000E+00 
SP   1    1.000000
   6.39000000E-02    1.00000000E+00   1.00000000E+00 
D    1    1.000000
   9.13000000E-01    1.00000000E+00 

11    0
S    6    1.000000
   8.58850000E+03    1.89515000E-03 
   1.29723000E+03    1.43859000E-02 
   2.99296000E+02    7.07320000E-02 
   8.73771000E+01    2.40001000E-01 
   2.56789000E+01    5.94797000E-01 
   3.74004000E+00    2.80802000E-01 
SP   3    1.000000
   4.21175000E+01    1.13889000E-01   3.65114000E-02 
   9.62837000E+00    9.20811000E-01   2.37153000E-01 
   2.85332000E+00   -3.27447000E-03   8.19702000E-01 
SP   1    1.000000
   9.05661000E-01    1.00000000E+00   1.00000000E+00 
SP   1    1.000000
   2.55611000E-01    1.00000000E+00   1.00000000E+00 
SP   1    1.000000
   8.45000000E-02    1.00000000E+00   1.00000000E+00 
D    1    1.000000
   1.29200000E+00    1.00000000E+00 

12    0
S    6    1.000000
   8.58850000E+03    1.89515000E-03 
   1.29723000E+03    1.43859000E-02 
   2.99296000E+02    7.07320000E-02 
   8.73771000E+01    2.40001000E-01 
   2.56789000E+01    5.94797000E-01 
   3.74004000E+00    2.80802000E-01 
SP   3    1.000000
   4.21175000E+01    1.13889000E-01   3.65114000E-02 
   9.62837000E+00    9.20811000E-01   2.37153000E-01 
   2.85332000E+00   -3.27447000E-03   8.19702000E-01 
SP   1    1.000000
   9.05661000E-01    1.00000000E+00   1.00000000E+00 
SP   1    1.000000
   2.55611000E-01    1.00000000E+00   1.00000000E+00 
SP   1    1.000000
   8.45000000E-02    1.00000000E+00   1.00000000E+00 
D    1    1.000000
   1.29200000E+00    1.00000000E+00 

13    0
S    6    1.000000
   4.56324000E+03    1.96665000E-03 
   6.82024000E+02    1.52306000E-02 
   1.54973000E+02    7.61269000E-02 
   4.44553000E+01    2.60801000E-01 
   1.30290000E+01    6.16462000E-01 
   1.82773000E+00    2.21006000E-01 
SP   3    1.000000
   2.09642000E+01    1.14660000E-01   4.02487000E-02 
   4.80331000E+00    9.19999000E-01   2.37594000E-01 
   1.45933000E+00   -3.03068000E-03   8.15854000E-01 
SP   1    1.000000
   4.83456000E-01    1.00000000E+00   1.00000000E+00 
SP   1    1.000000
   1.45585000E-01    1.00000000E+00   1.00000000E+00 
SP   1    1.000000
   4.38000000E-02    1.00000000E+00   1.00000000E+00 
D    1    1.000000
   6.26000000E-01    1.00000000E+00 

14    0
S    6    1.000000
   4.39700000E+05    8.13000000E-04 
   6.60300000E+04    6.28500000E-03 
   1.51400000E+04    3.19200000E-02 
   4.31700000E+03    1.28800000E-01 
   1.41400000E+03    3.94600000E-01 
   5.23900000E+02    5.41300000E-01 
S    3    1.000000
   5.23900000E+02    1.83100000E-01 
   2.07700000E+02    6.17600000E-01 
   8.65400000E+01    2.53800000E-01 
S    1    1.000000
   3.05200000E+01    1.00000000E+00 
S    1    1.000000
   1.29800000E+01    1.00000000E+00 
S    1    1.000000
   4.41200000E+00    1.00000000E+00 
S    1    1.000000
   1.86200000E+00    1.00000000E+00 
S    1    1.000000
   3.93200000E-01    1.00000000E+00 
S    1    1.000000
   1.40000000E-01    1.00000000E+00 
P    3    1.000000
   2.95700000E+03    2.22600000E-02 
   7.00300000E+02    1.80200000E-01 
   2.24600000E+02    8.62400000E-01 
P    3    1.000000
   8.25900000E+01    3.44000000E-01 
   3.31900000E+01    5.07100000E-01 
   1.42000000E+01    2.59000000E-01 
P    3    1.000000
   1.42000000E+01    7.96500000E-02 
   7.43800000E+00    3.73400000E-01 
   3.52600000E+00    6.04900000E-01 
P    1    1.000000
   1.59500000E+00    1.00000000E+00 
P    1    1.000000
   8.46200000E-01    1.00000000E+00 
P    1    1.000000
   3.18600000E-01    1.00000000E+00 
P    1    1.000000
   1.09600000E-01    1.00000000E+00 
D    4    1.000000
   1.34800000E+02    1.83100000E-02 
   3.63900000E+01    1.35000000E-01 
   1.21600000E+01    4.26100000E-01 
   4.34100000E+00    6.04300000E-01 
D    1    1.000000
   1.53500000E+00    1.00000000E+00 
SP   1    1.000000
   3.90000000E-02    1.00000000E+00   1.00000000E+00 
D    1    1.000000
   4.15000000E-01    1.00000000E+00 

[MO]
Sym=X
Ene= -0.127224
Spin=Alpha
Occup=1
     1    1.374136832579e-02
     2    2.190963630281e-02
     3    1.406369549899e-02
     4   -6.769339825785e-02
     5    6.099424979835e-04
     6   -5.813825180522e-02
     7    2.294928783451e-02
     8   -1.041128946625e-01
     9    9.551469113136e-04
    10   -9.321066003387e-02
    11    4.187083721744e-02
    12   -6.185791868223e-02
    13    8.626921010020e-04
    14    5.960914296494e-01
    15    1.742999184495e-01
    16   -2.414964011619e-02
    17    2.066466988921e-03
    18    9.914039891973e-04
    19   -2.668376403154e-05
    20    3.659429843312e-04
    21    1.424260656572e-02
    22    2.397979689398e-02
    23   -9.439020360822e-03
    24   -1.521836764393e-02
    25   -7.465487180704e-04
    26    5.983800125970e-02
    27   -4.077178901996e-04
    28    3.968540258075e-02
    29    4.816203026638e-03
    30    8.936870013793e-02
    31   -5.428916805578e-04
    32    6.044665336769e-02
    33    1.589164458408e-02
    34    6.173396500254e-02
    35   -2.593343224201e-04
    36   -2.513173512973e-01
    37    2.379281855569e-01
    38   -4.218333846022e-02
    39    2.875515849211e-03
    40   -1.727686228302e-03
    41   -1.181625348029e-04
    42    1.435531948839e-04
    43   -3.331912663133e-03
    44    1.741680704910e-02
    45    1.731913603565e-02
    46    2.791937080641e-02
    47   -6.408293760966e-03
    48   -2.987034525892e-02
    49    1.788107034641e-04
    50   -8.073760407715e-02
    51   -1.495977630133e-02
    52   -4.250619497082e-02
    53    2.000122742259e-04
    54   -1.210910669891e-01
    55   -3.209268318554e-02
    56   -3.323789638304e-02
    57   -7.047446957100e-05
    58    2.613191983943e-01
    59   -3.637483091428e-02
    60   -2.554660862514e-01
    61    1.318786469499e-03
    62   -1.437244686189e-04
    63    5.446299089116e-06
    64    1.211864964402e-04
    65    5.979460767177e-03
    66    8.565191966162e-03
    67   -1.732813708529e-02
    68   -2.730792015854e-02
    69   -9.698866675952e-02
    70    4.588690198429e-02
    71   -1.279558141168e-03
    72    7.851065765409e-02
    73   -1.400383348204e-01
    74    7.254204737566e-02
    75   -1.874852054512e-03
    76    6.949180525498e-03
    77   -8.612950836358e-02
    78    5.856689063124e-02
    79   -1.209821752894e-03
    80   -2.463471241596e-01
    81   -1.904536307300e-01
    82   -1.552743444189e-01
    83   -1.079256316177e-03
    84    2.714620677313e-04
    85    5.068649453570e-05
    86    1.400899077671e-04
    87    9.338781003273e-03
    88    5.977076696931e-03
    89   -1.733099813792e-02
    90   -2.772991402787e-02
    91   -8.444186116374e-02
    92    8.975425465843e-02
    93   -1.463173402757e-03
    94    7.266434708184e-02
    95   -1.328792665787e-01
    96    1.259640409260e-01
    97   -2.196745858978e-03
    98    1.411813304413e-01
    99   -8.277099617767e-02
   100    7.724050602157e-02
   101   -1.352292021585e-03
   102   -7.016904989543e-01
   103   -1.139031006270e-01
   104    1.637033351562e-01
   105   -2.328267253138e-03
   106   -2.222392709602e-03
   107    3.384815114959e-04
   108    2.146463518455e-04
   109    2.950596324823e-02
   110    4.604460451319e-03
   111   -7.909586883044e-02
   112   -1.047738339458e-01
   113   -4.257823766655e-02
   114    5.814250973411e-02
   115    7.348516260001e-02
   116    1.940989566572e-02
   117   -6.002244533890e-02
   118   -7.810784337483e-02
   119   -1.933975128953e-02
   120    9.766576729725e-02
   121    1.274396718578e-01
   122    4.444778221780e-02
   123   -3.811513158358e-03
   124   -6.224380279440e-03
   125   -5.514256679251e-03
   126   -2.409892446280e-02
   127    8.060876422676e-05
   128    2.008107998379e-02
   129   -6.501076541755e-03
   130   -4.028876239708e-02
   131    1.673335423983e-04
   132    2.472870817447e-02
   133   -4.507907303700e-02
   134   -1.810528730374e-02
   135   -4.040219546343e-04
   136   -2.614823902267e-02
   137   -5.071492405256e-02
   138   -2.454253082399e-02
   139   -4.112568001905e-04
   140    7.881520719060e-06
   141   -1.118657765444e-04
   142   -1.576498794612e-04
   143   -1.297571547611e-02
   144   -5.510672757083e-03
   145   -3.729579098138e-03
   146   -6.042781892781e-03
   147   -5.295457902781e-02
   148    4.546675382382e-02
   149   -9.495513904829e-04
   150    1.673825296885e-02
   151   -7.776731983266e-02
   152    6.680776591824e-02
   153   -1.395824315934e-03
   154    3.383862579873e-02
   155   -7.996527995029e-02
   156    4.835407904985e-02
   157   -1.283791173520e-03
   158    7.099291159563e-02
   159   -3.242636583396e-03
   160   -1.639975229470e-02
   161    7.798436154903e-05
   162    5.564809310048e-04
   163    3.710735587926e-05
   164    5.426455240997e-05
   165    4.694459082687e-03
   166    9.464021214068e-04
   167    4.519516527100e-04
   168    6.891635064300e-04
   169   -2.976362389238e-02
   170    2.063468449676e-02
   171   -4.588407006797e-04
   172   -2.220053421762e-04
   173   -4.370371354803e-02
   174    2.982211241279e-02
   175   -6.712036798768e-04
   176   -5.133458972657e-03
   177   -3.023612465606e-02
   178    2.249884194641e-02
   179   -4.681526778447e-04
   180   -1.095214867794e-02
   181    6.956847349843e-03
   182   -3.840157444589e-04
   183    9.082273084708e-05
   184   -9.486174468340e-04
   185    3.964010966180e-05
   186   -5.362517029461e-05
   187   -2.422282694859e-04
   188   -3.633085245384e-03
   189    1.639727497486e-02
   190    2.630975724758e-02
   191    1.365450160042e-01
   192   -2.929082824513e-02
   193    1.772562486779e-03
   194   -7.359870671164e-02
   195    1.996068894930e-01
   196   -3.038500994863e-02
   197    2.521482794832e-03
   198   -1.017915539685e-01
   199    1.258757080901e-01
   200   -3.361618334425e-02
   201    1.699576805390e-03
   202    3.875367438394e-01
   203   -2.297401602461e-01
   204    1.917679199097e-01
   205   -3.771711272353e-03
   206    7.713407141706e-04
   207    1.363756903114e-04
   208    8.353225252076e-05
   209    1.164941064477e-02
   210   -1.248899829684e-03
   211   -1.259877712392e-03
   212   -4.073857375747e-03
   213    1.096726908713e-02
   214    1.387913447720e-02
   215   -2.815297214727e-02
   216   -3.290761139097e-02
   217    6.414286139948e-02
   218    5.817735323066e-02
   219    6.636236494641e-04
   220   -4.126716546423e-03
   221    3.017510324140e-05
   222    5.489702945941e-03
   223   -3.403612171463e-02
   224    2.490101724028e-04
   225   -1.450691072414e-02
   226    8.832033710579e-02
   227   -6.481531928390e-04
   228   -4.608654841892e-03
   229    3.389542973490e-02
   230   -2.396464141975e-04
   231    1.073291557981e-02
   232   -7.175069044343e-02
   233    5.135404624578e-04
   234    3.050764670485e-02
   235   -1.666165865650e-01
   236    1.246719825384e-03
   237    2.465163419945e-02
   238   -5.977030385910e-02
   239    5.279953121221e-04
   240   -4.969585643862e-03
   241   -5.227729611851e-05
   242   -8.478170891915e-05
   243   -1.034800633576e-02
   244    4.476023610676e-03
   245   -2.446793894713e-04
   246   -6.458919848725e-06
   247   -9.202405411550e-06
   248   -9.438127721358e-04
   249    4.109087753618e-05
   250   -3.872002588460e-02
   251    5.198030631851e-03
   252   -1.994211277104e-02
   253    1.850061642417e-04
   254    7.896952500490e-03
   255    9.651774811878e-05
   256    1.442102784547e-04
   257    1.776410489642e-02
   258   -6.943696472578e-03
Sym=X
Ene= -0.151843
Spin=Alpha
Occup=1
     1    6.268919023632e-06
     2    1.004522208892e-05
     3   -6.121731203870e-04
     4    3.221156916096e-04
     5    5.469538190532e-02
     6   -2.802789154482e-05
     7   -1.003317282133e-03
     8    5.348735209687e-04
     9    9.020468565367e-02
    10   -7.184728986627e-06
    11   -9.110111515169e-04
    12    5.387901386614e-04
    13    8.360948692702e-02
    14    5.938003456014e-04
    15    1.952996927438e-04
    16   -4.947319953872e-05
    17   -4.141221543453e-03
    18    1.651103712389e-04
    19    1.244692761550e-02
    20    6.223510442495e-03
    21   -1.698868843716e-04
    22    2.320054256092e-05
    23   -2.363879861950e-06
    24   -3.567461650124e-06
    25   -9.582485161230e-04
    26    5.706511153687e-04
    27    8.856252356597e-02
    28    8.040343441132e-06
    29   -1.563095946326e-03
    30    9.316831357997e-04
    31    1.443425575472e-01
    32    1.562171462480e-05
    33   -1.486124487677e-03
    34    9.003792592455e-04
    35    1.399903395188e-01
    36    6.373634853518e-04
    37   -5.567937090993e-05
    38    2.458833569223e-05
    39    3.263094463376e-02
    40   -9.774622621508e-05
    41   -4.824612429873e-03
    42    6.385887538955e-04
    43    4.432488770681e-05
    44   -3.433591213346e-05
    45    6.482678287159e-06
    46    1.125317864999e-05
    47   -5.277892098533e-05
    48    3.107111688970e-05
    49    1.234531017752e-03
    50   -3.593733204412e-05
    51   -1.011807561844e-04
    52    5.377327493234e-05
    53    3.019663587930e-03
    54   -1.814651088630e-04
    55   -1.947460367729e-04
    56    4.491017844015e-05
    57    8.429075266995e-03
    58   -3.349881528782e-04
    59    4.944995546513e-04
    60   -8.964809592794e-04
    61   -3.175805429953e-02
    62   -2.005908245690e-04
    63    2.979252974028e-03
    64    2.239925032351e-02
    65   -1.814397466161e-04
    66   -2.254566157696e-04
    67    1.618081680506e-06
    68    2.893238391174e-06
    69    1.173943681151e-03
    70   -7.177022489456e-04
    71   -1.117908154677e-01
    72   -8.982722556967e-06
    73    1.909369194339e-03
    74   -1.161268467076e-03
    75   -1.814560460518e-01
    76   -9.516498831965e-05
    77    1.866726117722e-03
    78   -1.070612813609e-03
    79   -1.687136459044e-01
    80   -4.215782222613e-04
    81   -5.236021738680e-04
    82   -1.047013844585e-04
    83    1.560443800359e-02
    84    2.566531148098e-04
    85    1.235974453447e-02
    86   -1.736567328669e-03
    87   -1.176640293663e-04
    88    1.078103928717e-04
    89   -9.451508613100e-06
    90   -1.468615091700e-05
    91    5.143890385515e-04
    92   -2.795733555321e-04
    93   -5.135183969549e-02
    94    3.405887252901e-05
    95    8.333639655238e-04
    96   -4.631733225197e-04
    97   -8.302931892299e-02
    98    1.481365430695e-04
    99    8.336052149667e-04
   100   -5.253631129105e-04
   101   -7.991468438912e-02
   102   -6.461371038723e-04
   103   -2.461221525170e-04
   104    2.109249162082e-04
   105    1.316319161961e-02
   106   -2.635319586707e-04
   107   -4.257649873756e-03
   108    1.579111469529e-02
   109   -4.497669781828e-05
   110   -1.976375536301e-04
   111   -3.350026349208e-05
   112   -4.730337394836e-05
   113   -3.474691645471e-05
   114    3.473599737360e-06
   115    8.412541546869e-06
   116   -8.550198515452e-07
   117   -4.564501409414e-05
   118   -4.893527065122e-05
   119   -1.793326077891e-05
   120    4.848402094810e-05
   121    5.414255747917e-05
   122    3.328290540627e-05
   123    2.478196530069e-06
   124    4.147362737271e-06
   125   -5.744824756185e-05
   126    5.080912523548e-05
   127    5.350203421890e-03
   128   -1.422613182355e-05
   129   -8.658668240695e-05
   130    7.803833742637e-05
   131    8.315445562778e-03
   132   -2.086180214300e-06
   133   -1.473028813535e-04
   134    7.777100014162e-05
   135    7.007401441707e-03
   136   -1.973659393550e-05
   137   -3.038939054878e-04
   138    2.146249450071e-04
   139    1.566424817000e-02
   140   -9.624483370944e-05
   141   -4.084669607496e-04
   142    7.331793526506e-03
   143   -7.420374112053e-05
   144   -8.217662546591e-05
   145   -2.935843659606e-06
   146   -4.869474506182e-06
   147   -3.578714157364e-04
   148    1.842252449608e-04
   149    2.322053804499e-02
   150    1.624017223160e-05
   151   -5.267584828855e-04
   152    2.712792078822e-04
   153    3.416912411456e-02
   154    2.092085725596e-05
   155   -4.847518928770e-04
   156    2.515655802995e-04
   157    3.215390794983e-02
   158   -1.471203677854e-05
   159    1.640875043673e-05
   160   -1.250196418379e-05
   161   -2.404483760583e-04
   162   -1.001599772529e-05
   163   -1.573820492170e-03
   164   -1.719572677768e-03
   165    3.455122118245e-05
   166    1.290589644933e-05
   167   -3.818629388314e-06
   168   -6.056209195167e-06
   169    1.794363396679e-04
   170   -2.118049073602e-04
   171   -2.525096238666e-02
   172    1.877685216954e-05
   173    2.635998721637e-04
   174   -3.117603177609e-04
   175   -3.710898315454e-02
   176    5.533767660553e-05
   177    2.661264431398e-04
   178   -2.864187482213e-04
   179   -3.695791796902e-02
   180    1.161288157497e-04
   181    1.142003028094e-04
   182   -5.168232006000e-05
   183   -1.066252074031e-02
   184    4.007302272980e-05
   185    1.243751945123e-03
   186   -1.326912440226e-03
   187    9.297606673452e-07
   188    1.930288591805e-05
   189    2.757361051781e-06
   190    4.524456062924e-06
   191    1.266519074145e-03
   192   -7.688939334357e-04
   193   -1.095571117169e-01
   194   -1.328105701026e-05
   195    2.032034324988e-03
   196   -1.231745185444e-03
   197   -1.773093227577e-01
   198   -8.297360932974e-06
   199    1.664293042400e-03
   200   -1.039675314232e-03
   201   -1.411134227012e-01
   202    1.120744399261e-04
   203    2.356072983974e-04
   204    1.280218520208e-05
   205   -3.528910129351e-02
   206   -1.364494463494e-04
   207   -1.674028057483e-02
   208   -1.554834350273e-02
   209    2.864808105926e-04
   210    5.926929247366e-05
   211   -7.738193066771e-09
   212   -2.501736207198e-08
   213    7.050915056249e-08
   214    1.764704109743e-07
   215   -5.444594799340e-07
   216   -6.767651573420e-07
   217    4.342837774616e-06
   218    8.479347481467e-06
   219   -1.050622743202e-04
   220    6.542896990555e-05
   221    1.004588376900e-02
   222   -8.673926905784e-04
   223    5.402137433959e-04
   224    8.293708035049e-02
   225    2.267631625707e-03
   226   -1.412625974500e-03
   227   -2.168030264015e-01
   228    8.463892957503e-04
   229   -5.255238311947e-04
   230   -8.107059729848e-02
   231   -1.877990089264e-03
   232    1.167850605128e-03
   233    1.798854582953e-01
   234   -4.460856849363e-03
   235    2.782893652822e-03
   236    4.255429201394e-01
   237   -2.981957316830e-03
   238    1.857789025302e-03
   239    2.836915056796e-01
   240    3.972743855043e-06
   241    3.714344209765e-03
   242    5.437381205435e-03
   243   -8.230953200761e-05
   244   -3.504684367302e-05
   245    1.772076542800e-06
   246    3.597653741063e-04
   247    3.740924783481e-04
   248   -6.679968735734e-06
   249   -1.021245243911e-06
   250    3.113227281548e-05
   251   -1.606663074473e-04
   252    1.084522308839e-04
   253    1.533450171459e-02
   254   -1.564449564128e-05
   255   -4.813812506456e-03
   256   -5.916922040520e-03
   257    1.007774782712e-04
   258    3.151895796964e-05
Sym=X
Ene= -0.216124
Spin=Alpha
Occup=1
     1    1.819259048270e-06
     2    2.874301342918e-06
     3    7.393545022763e-04
     4   -4.418250161374e-04
     5   -6.708038446687e-02
     6   -6.029203201854e-06
     7    1.194224837354e-03
     8   -7.172916597425e-04
     9   -1.087562602609e-01
    10    6.365428095992e-06
    11    9.878521726423e-04
    12   -6.134011682274e-04
    13   -9.125343935906e-02
    14   -3.503557171755e-04
    15    2.312439751568e-04
    16   -1.717941985143e-04
    17   -2.912400229549e-02
    18   -2.350403636381e-04
    19   -1.427674399714e-02
    20   -3.113982509102e-03
    21    1.759778654896e-04
    22   -6.062037520374e-05
    23   -2.319241229570e-06
    24   -3.926460824375e-06
    25    1.232634720752e-03
    26   -7.404523465556e-04
    27   -1.123822677019e-01
    28    9.785444764641e-06
    29    2.020749102656e-03
    30   -1.213760095483e-03
    31   -1.841538058891e-01
    32    6.774307177628e-05
    33    1.616956330782e-03
    34   -9.863579826856e-04
    35   -1.475872167400e-01
    36   -9.957395945143e-05
    37   -3.314467733912e-04
    38    1.790365632375e-04
    39    1.738102656163e-02
    40   -2.083388231876e-05
    41    3.427834792476e-03
    42    7.161472207254e-03
    43   -8.295264217207e-05
    44   -5.678106585382e-05
    45    3.191915402696e-06
    46    4.998993389038e-06
    47    8.243912015643e-04
    48   -4.986269097448e-04
    49   -7.428269422904e-02
    50   -1.386926102633e-05
    51    1.340001346800e-03
    52   -8.098136823873e-04
    53   -1.209302116349e-01
    54    4.007296752200e-05
    55    1.170380516634e-03
    56   -7.829356288993e-04
    57   -1.067416567935e-01
    58    7.705352783581e-05
    59    4.507790584525e-04
    60   -3.174868663716e-05
    61   -4.324717867706e-02
    62    2.159814298647e-04
    63    2.482751265321e-03
    64   -1.468389901309e-02
    65    7.118399986738e-05
    66    1.798747851009e-04
    67   -1.016742653656e-06
    68   -1.662154857165e-06
    69   -3.925152026895e-04
    70    2.340503048540e-04
    71    3.457667308731e-02
    72    1.014854031603e-05
    73   -6.486518132766e-04
    74    3.899875528716e-04
    75    5.767243893757e-02
    76   -1.671979316157e-04
    77   -4.331542261419e-04
    78    2.168379915621e-04
    79    4.059765213649e-02
    80   -5.313415073191e-05
    81   -2.196995705227e-04
    82    2.531998664595e-04
    83    3.354979041036e-02
    84   -2.150642442326e-04
    85   -1.615056020458e-02
    86   -7.926575623968e-03
    87    2.303300386846e-04
    88   -2.269865715333e-05
    89   -3.877422305509e-06
    90   -6.268925360361e-06
    91   -3.591462250762e-04
    92    2.077987743791e-04
    93    3.190240915991e-02
    94    1.903704019881e-05
    95   -5.933183946149e-04
    96    3.502038741807e-04
    97    5.270740426354e-02
    98   -2.521261337031e-05
    99   -4.174079640269e-04
   100    1.927458846767e-04
   101    3.337382592326e-02
   102    2.800437974099e-04
   103   -3.442043956065e-04
   104    1.482870046597e-04
   105    3.409547998005e-02
   106    2.127918162961e-04
   107    5.422239729521e-04
   108   -1.765499109009e-02
   109    1.152495999573e-04
   110    1.960062773228e-04
   111   -1.311729050353e-06
   112   -4.214669940098e-06
   113    1.030288437243e-05
   114    4.246665992240e-06
   115    2.278110160300e-06
   116    6.151663365001e-06
   117   -3.923821391243e-06
   118   -1.039212045260e-05
   119   -1.011190574018e-05
   120    1.601362750007e-05
   121    1.387862167381e-05
   122   -5.428044660770e-06
   123   -1.965725160975e-06
   124   -3.229440675000e-06
   125   -1.039241895301e-04
   126    6.048222374973e-05
   127    9.388613664893e-03
   128    1.065811783316e-05
   129   -1.588291255985e-04
   130    8.946693669698e-05
   131    1.428872815363e-02
   132    1.274577801424e-05
   133   -1.580793958762e-04
   134    1.205609188087e-04
   135    1.460070930027e-02
   136    4.184568544131e-06
   137   -3.535407300262e-04
   138    1.619490349024e-04
   139    3.258475749933e-02
   140    9.776401370531e-05
   141    9.820864343754e-03
   142    7.511709417161e-03
   143   -1.591005318449e-04
   144   -1.322168659787e-05
   145    6.421612939108e-07
   146    1.089179846867e-06
   147   -6.545928936835e-04
   148    4.143308385718e-04
   149    6.134334918759e-02
   150   -3.647909226794e-06
   151   -9.732550911948e-04
   152    6.168954863761e-04
   153    9.128900910614e-02
   154   -1.274349217836e-05
   155   -9.157917683118e-04
   156    5.818874799500e-04
   157    8.571770773154e-02
   158    3.418190026061e-05
   159   -6.690407961523e-06
   160    4.690536998144e-06
   161    7.080302794645e-04
   162    1.242665150473e-05
   163   -2.185793595340e-03
   164   -4.507016842495e-03
   165    5.400667413783e-05
   166    3.357842811848e-05
   167    1.054888384519e-06
   168    1.725743805039e-06
   169    7.696476668399e-05
   170   -6.119313058301e-05