[Molden Format]
[Atoms] (Angs)
  C      1    6      0.73800500      1.28081960     -0.05304325
  C      2    6      2.13107735      1.27623482     -0.03775458
  C      3    6      2.78774418      0.04994967     -0.02233513
  C      4    6      2.10787290     -1.16395883     -0.02177557
  C      5    6      0.02715627      0.07955847     -0.05285920
  H      6    1      0.20350732      2.22257168     -0.06513515
  H      7    1      2.70574282      2.19227310     -0.03751535
  H      8    1      2.65503181     -2.09648975     -0.00950659
  H      9    1     -1.05554128      0.07960796     -0.06461677
  N     10    7      4.25078279      0.02984995     -0.00604320
  O     11    8      4.85312968      1.12722449     -0.00700032
  O     12    8      4.82301363     -1.08336832      0.00783743
  C     13    6      0.72203597     -1.12622675     -0.03726783
 Br     14   35     -0.25419454     -2.77854143     -0.03668405
[GTO]
1    0
S    6    1.000000
   4.56324000E+03    1.96665000E-03 
   6.82024000E+02    1.52306000E-02 
   1.54973000E+02    7.61269000E-02 
   4.44553000E+01    2.60801000E-01 
   1.30290000E+01    6.16462000E-01 
   1.82773000E+00    2.21006000E-01 
SP   3    1.000000
   2.09642000E+01    1.14660000E-01   4.02487000E-02 
   4.80331000E+00    9.19999000E-01   2.37594000E-01 
   1.45933000E+00   -3.03068000E-03   8.15854000E-01 
SP   1    1.000000
   4.83456000E-01    1.00000000E+00   1.00000000E+00 
SP   1    1.000000
   1.45585000E-01    1.00000000E+00   1.00000000E+00 
SP   1    1.000000
   4.38000000E-02    1.00000000E+00   1.00000000E+00 
D    1    1.000000
   6.26000000E-01    1.00000000E+00 

2    0
S    6    1.000000
   4.56324000E+03    1.96665000E-03 
   6.82024000E+02    1.52306000E-02 
   1.54973000E+02    7.61269000E-02 
   4.44553000E+01    2.60801000E-01 
   1.30290000E+01    6.16462000E-01 
   1.82773000E+00    2.21006000E-01 
SP   3    1.000000
   2.09642000E+01    1.14660000E-01   4.02487000E-02 
   4.80331000E+00    9.19999000E-01   2.37594000E-01 
   1.45933000E+00   -3.03068000E-03   8.15854000E-01 
SP   1    1.000000
   4.83456000E-01    1.00000000E+00   1.00000000E+00 
SP   1    1.000000
   1.45585000E-01    1.00000000E+00   1.00000000E+00 
SP   1    1.000000
   4.38000000E-02    1.00000000E+00   1.00000000E+00 
D    1    1.000000
   6.26000000E-01    1.00000000E+00 

3    0
S    6    1.000000
   4.56324000E+03    1.96665000E-03 
   6.82024000E+02    1.52306000E-02 
   1.54973000E+02    7.61269000E-02 
   4.44553000E+01    2.60801000E-01 
   1.30290000E+01    6.16462000E-01 
   1.82773000E+00    2.21006000E-01 
SP   3    1.000000
   2.09642000E+01    1.14660000E-01   4.02487000E-02 
   4.80331000E+00    9.19999000E-01   2.37594000E-01 
   1.45933000E+00   -3.03068000E-03   8.15854000E-01 
SP   1    1.000000
   4.83456000E-01    1.00000000E+00   1.00000000E+00 
SP   1    1.000000
   1.45585000E-01    1.00000000E+00   1.00000000E+00 
SP   1    1.000000
   4.38000000E-02    1.00000000E+00   1.00000000E+00 
D    1    1.000000
   6.26000000E-01    1.00000000E+00 

4    0
S    6    1.000000
   4.56324000E+03    1.96665000E-03 
   6.82024000E+02    1.52306000E-02 
   1.54973000E+02    7.61269000E-02 
   4.44553000E+01    2.60801000E-01 
   1.30290000E+01    6.16462000E-01 
   1.82773000E+00    2.21006000E-01 
SP   3    1.000000
   2.09642000E+01    1.14660000E-01   4.02487000E-02 
   4.80331000E+00    9.19999000E-01   2.37594000E-01 
   1.45933000E+00   -3.03068000E-03   8.15854000E-01 
SP   1    1.000000
   4.83456000E-01    1.00000000E+00   1.00000000E+00 
SP   1    1.000000
   1.45585000E-01    1.00000000E+00   1.00000000E+00 
SP   1    1.000000
   4.38000000E-02    1.00000000E+00   1.00000000E+00 
D    1    1.000000
   6.26000000E-01    1.00000000E+00 

5    0
S    6    1.000000
   4.56324000E+03    1.96665000E-03 
   6.82024000E+02    1.52306000E-02 
   1.54973000E+02    7.61269000E-02 
   4.44553000E+01    2.60801000E-01 
   1.30290000E+01    6.16462000E-01 
   1.82773000E+00    2.21006000E-01 
SP   3    1.000000
   2.09642000E+01    1.14660000E-01   4.02487000E-02 
   4.80331000E+00    9.19999000E-01   2.37594000E-01 
   1.45933000E+00   -3.03068000E-03   8.15854000E-01 
SP   1    1.000000
   4.83456000E-01    1.00000000E+00   1.00000000E+00 
SP   1    1.000000
   1.45585000E-01    1.00000000E+00   1.00000000E+00 
SP   1    1.000000
   4.38000000E-02    1.00000000E+00   1.00000000E+00 
D    1    1.000000
   6.26000000E-01    1.00000000E+00 

6    0
S    3    1.000000
   3.38650000E+01    2.54938000E-02 
   5.09479000E+00    1.90373000E-01 
   1.15879000E+00    8.52161000E-01 
S    1    1.000000
   3.25840000E-01    1.00000000E+00 
S    1    1.000000
   1.02741000E-01    1.00000000E+00 

7    0
S    3    1.000000
   3.38650000E+01    2.54938000E-02 
   5.09479000E+00    1.90373000E-01 
   1.15879000E+00    8.52161000E-01 
S    1    1.000000
   3.25840000E-01    1.00000000E+00 
S    1    1.000000
   1.02741000E-01    1.00000000E+00 

8    0
S    3    1.000000
   3.38650000E+01    2.54938000E-02 
   5.09479000E+00    1.90373000E-01 
   1.15879000E+00    8.52161000E-01 
S    1    1.000000
   3.25840000E-01    1.00000000E+00 
S    1    1.000000
   1.02741000E-01    1.00000000E+00 

9    0
S    3    1.000000
   3.38650000E+01    2.54938000E-02 
   5.09479000E+00    1.90373000E-01 
   1.15879000E+00    8.52161000E-01 
S    1    1.000000
   3.25840000E-01    1.00000000E+00 
S    1    1.000000
   1.02741000E-01    1.00000000E+00 

10    0
S    6    1.000000
   6.29348000E+03    1.96979000E-03 
   9.49044000E+02    1.49613000E-02 
   2.18776000E+02    7.35006000E-02 
   6.36916000E+01    2.48937000E-01 
   1.88282000E+01    6.02460000E-01 
   2.72023000E+00    2.56202000E-01 
SP   3    1.000000
   3.06331000E+01    1.11906000E-01   3.83119000E-02 
   7.02614000E+00    9.21666000E-01   2.37403000E-01 
   2.11205000E+00   -2.56919000E-03   8.17592000E-01 
SP   1    1.000000
   6.84009000E-01    1.00000000E+00   1.00000000E+00 
SP   1    1.000000
   2.00878000E-01    1.00000000E+00   1.00000000E+00 
SP   1    1.000000
   6.39000000E-02    1.00000000E+00   1.00000000E+00 
D    1    1.000000
   9.13000000E-01    1.00000000E+00 

11    0
S    6    1.000000
   8.58850000E+03    1.89515000E-03 
   1.29723000E+03    1.43859000E-02 
   2.99296000E+02    7.07320000E-02 
   8.73771000E+01    2.40001000E-01 
   2.56789000E+01    5.94797000E-01 
   3.74004000E+00    2.80802000E-01 
SP   3    1.000000
   4.21175000E+01    1.13889000E-01   3.65114000E-02 
   9.62837000E+00    9.20811000E-01   2.37153000E-01 
   2.85332000E+00   -3.27447000E-03   8.19702000E-01 
SP   1    1.000000
   9.05661000E-01    1.00000000E+00   1.00000000E+00 
SP   1    1.000000
   2.55611000E-01    1.00000000E+00   1.00000000E+00 
SP   1    1.000000
   8.45000000E-02    1.00000000E+00   1.00000000E+00 
D    1    1.000000
   1.29200000E+00    1.00000000E+00 

12    0
S    6    1.000000
   8.58850000E+03    1.89515000E-03 
   1.29723000E+03    1.43859000E-02 
   2.99296000E+02    7.07320000E-02 
   8.73771000E+01    2.40001000E-01 
   2.56789000E+01    5.94797000E-01 
   3.74004000E+00    2.80802000E-01 
SP   3    1.000000
   4.21175000E+01    1.13889000E-01   3.65114000E-02 
   9.62837000E+00    9.20811000E-01   2.37153000E-01 
   2.85332000E+00   -3.27447000E-03   8.19702000E-01 
SP   1    1.000000
   9.05661000E-01    1.00000000E+00   1.00000000E+00 
SP   1    1.000000
   2.55611000E-01    1.00000000E+00   1.00000000E+00 
SP   1    1.000000
   8.45000000E-02    1.00000000E+00   1.00000000E+00 
D    1    1.000000
   1.29200000E+00    1.00000000E+00 

13    0
S    6    1.000000
   4.56324000E+03    1.96665000E-03 
   6.82024000E+02    1.52306000E-02 
   1.54973000E+02    7.61269000E-02 
   4.44553000E+01    2.60801000E-01 
   1.30290000E+01    6.16462000E-01 
   1.82773000E+00    2.21006000E-01 
SP   3    1.000000
   2.09642000E+01    1.14660000E-01   4.02487000E-02 
   4.80331000E+00    9.19999000E-01   2.37594000E-01 
   1.45933000E+00   -3.03068000E-03   8.15854000E-01 
SP   1    1.000000
   4.83456000E-01    1.00000000E+00   1.00000000E+00 
SP   1    1.000000
   1.45585000E-01    1.00000000E+00   1.00000000E+00 
SP   1    1.000000
   4.38000000E-02    1.00000000E+00   1.00000000E+00 
D    1    1.000000
   6.26000000E-01    1.00000000E+00 

14    0
S    6    1.000000
   4.39700000E+05    8.13000000E-04 
   6.60300000E+04    6.28500000E-03 
   1.51400000E+04    3.19200000E-02 
   4.31700000E+03    1.28800000E-01 
   1.41400000E+03    3.94600000E-01 
   5.23900000E+02    5.41300000E-01 
S    3    1.000000
   5.23900000E+02    1.83100000E-01 
   2.07700000E+02    6.17600000E-01 
   8.65400000E+01    2.53800000E-01 
S    1    1.000000
   3.05200000E+01    1.00000000E+00 
S    1    1.000000
   1.29800000E+01    1.00000000E+00 
S    1    1.000000
   4.41200000E+00    1.00000000E+00 
S    1    1.000000
   1.86200000E+00    1.00000000E+00 
S    1    1.000000
   3.93200000E-01    1.00000000E+00 
S    1    1.000000
   1.40000000E-01    1.00000000E+00 
P    3    1.000000
   2.95700000E+03    2.22600000E-02 
   7.00300000E+02    1.80200000E-01 
   2.24600000E+02    8.62400000E-01 
P    3    1.000000
   8.25900000E+01    3.44000000E-01 
   3.31900000E+01    5.07100000E-01 
   1.42000000E+01    2.59000000E-01 
P    3    1.000000
   1.42000000E+01    7.96500000E-02 
   7.43800000E+00    3.73400000E-01 
   3.52600000E+00    6.04900000E-01 
P    1    1.000000
   1.59500000E+00    1.00000000E+00 
P    1    1.000000
   8.46200000E-01    1.00000000E+00 
P    1    1.000000
   3.18600000E-01    1.00000000E+00 
P    1    1.000000
   1.09600000E-01    1.00000000E+00 
D    4    1.000000
   1.34800000E+02    1.83100000E-02 
   3.63900000E+01    1.35000000E-01 
   1.21600000E+01    4.26100000E-01 
   4.34100000E+00    6.04300000E-01 
D    1    1.000000
   1.53500000E+00    1.00000000E+00 
SP   1    1.000000
   3.90000000E-02    1.00000000E+00   1.00000000E+00 
D    1    1.000000
   4.15000000E-01    1.00000000E+00 

[MO]
Sym=X
Ene= -0.165294
Spin=Alpha
Occup=1
     1   -4.842999109653e-03
     2   -7.576566874954e-03
     3    4.746203248213e-03
     4    8.131382138537e-03
     5    2.774790820431e-04
     6    1.880233745189e-02
     7    5.443732898658e-03
     8    1.193434194663e-02
     9    4.386310030825e-04
    10    8.719641390978e-02
    11    5.396366104563e-02
    12    3.480457465009e-02
    13    7.444758985945e-04
    14    5.150957270668e-01
    15    5.350569676710e-01
    16    2.400431043338e-01
    17    4.284694388790e-03
    18   -3.578773912299e-04
    19   -1.249378746088e-05
    20   -1.006049815020e-04
    21   -3.976868755373e-03
    22   -4.640922370063e-03
    23    8.436300085425e-03
    24    1.380843148115e-02
    25   -1.470278842656e-02
    26   -1.481064508946e-02
    27    7.607045990344e-06
    28   -4.122049898317e-02
    29   -3.029122686478e-02
    30   -2.353083139119e-02
    31   -6.932080653446e-05
    32   -5.724364751157e-02
    33    8.567366139963e-02
    34   -5.609427856332e-02
    35    1.454094286262e-03
    36   -2.068768448150e-01
    37    6.608686542180e-01
    38   -3.093682876238e-01
    39    9.354075443654e-03
    40   -4.129629551526e-06
    41    1.045839418503e-05
    42    4.293368346747e-05
    43    4.246441345163e-03
    44   -8.727815064021e-04
    45    1.588286884703e-03
    46    2.752986466807e-03
    47   -3.254305048048e-02
    48   -1.860894073516e-02
    49   -4.891322499033e-04
    50   -9.260337133672e-03
    51   -5.468495938175e-02
    52   -3.396271821756e-02
    53   -7.931354018322e-04
    54   -6.515461788464e-02
    55   -6.242731456963e-02
    56   -7.882665085769e-02
    57   -5.348996238535e-04
    58    1.502640567509e-01
    59    4.070545722194e-02
    60   -6.377083596482e-01
    61    4.640594517912e-03
    62    6.742823115670e-04
    63   -1.060289488508e-04
    64    1.561169099692e-05
    65   -7.897007429549e-03
    66    1.095773545611e-03
    67   -4.590012938216e-03
    68   -7.518559923612e-03
    69    5.625320807060e-02
    70    1.255636415912e-03
    71    3.232556489749e-04
    72    2.102370559112e-02
    73    8.655232521550e-02
    74   -8.475992087301e-04
    75    4.975569140503e-04
    76    3.675779368792e-02
    77   -1.195091964493e-02
    78   -3.719740772097e-02
    79   -3.103961300867e-04
    80    3.700564126352e-01
    81   -8.193470095370e-01
    82   -4.019645760128e-01
    83   -6.441092009924e-03
    84   -6.404098727481e-04
    85   -9.538611321374e-05
    86   -1.164342235157e-04
    87   -9.714874164248e-03
    88   -1.856206798480e-03
    89   -5.105423113582e-06
    90   -1.319447153273e-05
    91    1.892167846539e-02
    92   -2.249148562731e-02
    93    5.779852633732e-04
    94    1.006090837169e-03
    95    2.773505689781e-02
    96   -3.523019121430e-02
    97    8.995306621866e-04
    98   -2.420529965057e-05
    99    2.885613339928e-02
   100    8.733437566454e-03
   101    5.691809709205e-04
   102   -4.449076116308e-01
   103   -2.951259492292e-02
   104    5.762921785402e-01
   105   -4.127713555927e-03
   106    1.846754600666e-04
   107   -6.462402509460e-05
   108   -6.702920333404e-06
   109   -6.483685048891e-03
   110    2.435203380973e-04
   111    1.183570167850e-02
   112    1.228944121400e-02
   113    2.985862335497e-03
   114   -1.697716041083e-02
   115   -1.963159959800e-02
   116    1.667920218815e-02
   117    2.502119393152e-02
   118    3.132885491056e-02
   119   -1.551243390512e-02
   120   -1.915429978752e-02
   121   -2.606800561160e-02
   122   -3.846726047545e-03
   123    2.765450171957e-03
   124    4.525778699232e-03
   125    2.450934599196e-02
   126   -1.447331829474e-02
   127    3.717003415343e-04
   128   -1.413681883474e-02
   129    3.874783147265e-02
   130   -2.804573212010e-02
   131    6.224658635314e-04
   132   -1.706294743161e-02
   133   -1.132913476445e-02
   134    9.326613945867e-02
   135   -7.510755176199e-04
   136   -5.748066137095e-02
   137   -5.639108568960e-02
   138   -1.222913510610e-01
   139    2.918686301104e-04
   140   -1.953993287715e-03
   141    1.405790046825e-04
   142   -4.346432322076e-04
   143   -1.664543776025e-02
   144   -3.678381739487e-02
   145    1.687800375089e-03
   146    2.707739158673e-03
   147   -2.068687821524e-01
   148    1.434062886622e-01
   149   -2.748750296787e-03
   150   -9.134725746267e-03
   151   -3.066630317930e-01
   152    2.108105380520e-01
   153   -4.062379068973e-03
   154   -5.010374148356e-02
   155   -2.772972246845e-01
   156    2.074102538188e-01
   157   -3.747529850064e-03
   158    1.362958802655e-01
   159   -2.555627503455e-02
   160   -2.803594895939e-02
   161   -1.340619408801e-05
   162   -6.157697397422e-04
   163    1.071110972695e-04
   164    1.285288241072e-04
   165    1.456582847995e-02
   166    6.213783111741e-03
   167   -2.118632761643e-03
   168   -3.371744258615e-03
   169    9.809516702144e-02
   170    1.270192738368e-01
   171   -1.366692650407e-04
   172    1.255257084453e-02
   173    1.474051094573e-01
   174    1.860966005894e-01
   175   -1.659115058565e-04
   176    6.480824641345e-02
   177    1.282680345502e-01
   178    1.887176931576e-01
   179   -3.680402435004e-04
   180   -6.523548127078e-02
   181    1.971907645963e-02
   182   -1.405974616348e-02
   183    2.202077898566e-04
   184   -6.592876379604e-04
   185   -1.073926971149e-04
   186   -7.936101750059e-05
   187   -1.104563670217e-02
   188    2.342359647317e-03
   189    2.163657529808e-03
   190    3.379947836959e-03
   191   -5.334413307656e-02
   192    5.003243385990e-03
   193   -6.648774008348e-04
   194   -9.210596374436e-03
   195   -7.673386990788e-02
   196    3.097119925581e-03
   197   -9.422595615370e-04
   198   -4.694986744162e-02
   199   -8.943373110619e-02
   200    9.108751057684e-03
   201   -1.086398401129e-03
   202   -3.922972866644e-01
   203   -6.986053504778e-01
   204    4.499794659962e-01
   205   -1.059430508690e-02
   206   -5.968668470792e-04
   207   -1.163089120296e-04
   208   -2.944973742693e-05
   209   -7.073843430741e-03
   210    2.353813292059e-04
   211    1.850222646221e-04
   212    5.963518508910e-04
   213   -1.587282803285e-03
   214   -2.128925694547e-03
   215    4.471074364284e-03
   216    4.308306466534e-03
   217   -8.045817123822e-03
   218   -1.464194439844e-02
   219    2.701662571005e-03
   220    5.111552935704e-05
   221    3.103245680143e-05
   222    2.229893230234e-02
   223    4.158918348287e-04
   224    2.561830980985e-04
   225   -5.817537267608e-02
   226   -9.404605525646e-04
   227   -6.694873220202e-04
   228   -2.190873961453e-02
   229   -5.462543840931e-04
   230   -2.509464132592e-04
   231    4.796347827618e-02
   232    3.980051719693e-04
   233    5.558690426451e-04
   234    1.138727068422e-01
   235    1.209423457448e-03
   236    1.314825714896e-03
   237    7.000814969678e-02
   238   -2.124258399783e-02
   239    9.617364952040e-04
   240    1.851465205637e-03
   241    1.113835303817e-05
   242    2.626442252537e-05
   243    2.908836797835e-03
   244   -1.562667877183e-03
   245    1.050570614202e-04
   246    1.298949064784e-06
   247    1.109544207455e-06
   248    1.604234931935e-04
   249   -1.495556874195e-04
   250    6.723851183362e-03
   251    3.344127123802e-03
   252    4.233436698643e-04
   253    3.277542656101e-05
   254   -2.436035514214e-03
   255   -2.346177464631e-05
   256   -1.038023724375e-05
   257   -3.031041624582e-03
   258    3.857195213656e-03
Sym=X
Ene= -0.206760
Spin=Alpha
Occup=1
     1   -2.644999573804e-06
     2   -3.964048158024e-06
     3    1.534345118399e-03
     4   -9.847974627793e-04
     5   -1.373437163877e-01
     6    1.556316959020e-05
     7    2.504615168079e-03
     8   -1.594987673382e-03
     9   -2.242554168758e-01
    10    5.770567526744e-05
    11    2.247355797470e-03
    12   -1.296264822815e-03
    13   -1.940886578944e-01
    14    7.050817617251e-04
    15    1.438536705451e-03
    16    4.635344248416e-04
    17   -1.734938014013e-02
    18   -3.305763964321e-05
    19    4.036786646861e-03
    20    9.674847950881e-03
    21   -1.053246631292e-04
    22   -7.064115047394e-05
    23    9.642967532424e-06
    24    1.624306423871e-05
    25    2.588508578299e-04
    26   -1.708438672891e-04
    27   -2.838021439300e-02
    28   -5.520833298606e-05
    29    4.068546060452e-04
    30   -2.820736157809e-04
    31   -4.582910991775e-02
    32   -7.240151900654e-05
    33    6.962751329903e-04
    34   -3.576325231080e-04
    35   -4.909820596741e-02
    36   -5.715006028398e-04
    37    1.458291537478e-03
    38   -6.988468498829e-04
    39   -6.129371761757e-03
    40    5.438581319460e-04
    41    2.159261441365e-02
    42   -1.169204428824e-02
    43   -1.573429890481e-04
    44    2.905589865153e-04
    45   -8.807869945984e-06
    46   -1.379143951155e-05
    47   -1.469238355597e-03
    48    6.814686778294e-04
    49    1.232501332890e-01
    50    3.689237240535e-05
    51   -2.408168685763e-03
    52    1.131528319447e-03
    53    2.026003594453e-01
    54   -7.013144924374e-05
    55   -2.224600198528e-03
    56    9.910509237346e-04
    57    1.818358413665e-01
    58    7.147025701522e-04
    59   -2.018982374048e-04
    60   -1.145078031946e-03
    61    2.750634473146e-02
    62    1.877962108721e-04
    63   -1.320963239594e-03
    64   -1.829971474172e-02
    65    1.153449622986e-04
    66    2.012550382702e-04
    67   -9.107390306911e-06
    68   -1.476297907507e-05
    69   -1.348833912614e-03
    70    9.980268768001e-04
    71    1.360615308157e-01
    72    4.514430026828e-05
    73   -2.220835272519e-03
    74    1.612464686406e-03
    75    2.220935427874e-01
    76   -7.096425206087e-05
    77   -2.045468321323e-03
    78    1.256769946381e-03
    79    1.897231324365e-01
    80    1.521354286314e-03
    81   -2.242757672070e-03
    82   -1.026591592958e-03
    83    9.551387753597e-03
    84   -3.895156741600e-05
    85    4.964690131631e-03
    86    1.134852820260e-02
    87   -1.537443064482e-04
    88   -7.167836232208e-05
    89   -6.578125513022e-07
    90   -1.201046170570e-06
    91    1.248296164580e-03
    92   -7.094037563177e-04
    93   -1.137787050903e-01
    94    1.995761375180e-06
    95    2.032060629616e-03
    96   -1.177550778727e-03
    97   -1.856822508342e-01
    98    1.384237634101e-04
    99    1.834144883088e-03
   100   -9.804691896160e-04
   101   -1.622337969242e-01
   102   -1.978723390188e-03
   103    1.274033664884e-05
   104    1.600111822742e-03
   105   -1.320927387943e-02
   106    6.700722663772e-05
   107   -5.613564688808e-03
   108   -1.513798415552e-02
   109    1.531287970571e-04
   110    1.430467139066e-04
   111   -6.542350586782e-05
   112   -1.005122360501e-04
   113   -2.740726274051e-05
   114    8.048659162302e-06
   115    1.421591478029e-05
   116    5.167580546518e-05
   117   -5.565742985466e-06
   118   -2.592110912551e-05
   119   -6.395021386227e-05
   120   -1.605763502064e-05
   121   -2.555055653985e-05
   122    2.269980461149e-05
   123   -1.577183347125e-06
   124   -2.340183183677e-06
   125    1.351207879791e-04
   126   -6.256536694923e-05
   127   -3.199458219182e-03
   128    7.216097345633e-06
   129    2.084244656192e-04
   130   -1.056447200019e-04
   131   -4.550716934344e-03
   132    2.383651068604e-05
   133    1.015999893405e-04
   134    8.824611963499e-05
   135   -8.112043718899e-03
   136   -3.665884844317e-05
   137    2.850468086252e-04
   138   -6.166474698003e-04
   139   -3.696536466864e-02
   140   -2.393140005876e-04
   141   -1.606669363122e-02
   142   -6.144389840971e-03
   143    1.861979018395e-04
   144   -1.125451832245e-04
   145    1.176026304488e-05
   146    1.906446451679e-05
   147    2.399901013644e-04
   148   -1.613372422368e-04
   149   -6.204980645514e-02
   150   -5.846125479402e-05
   151    3.555585040547e-04
   152   -2.412983357188e-04
   153   -9.190664835722e-02
   154   -1.388369767293e-04
   155    3.732867912308e-04
   156   -2.132503382267e-04
   157   -8.866039910742e-02
   158    3.428999695751e-04
   159   -6.229261746759e-05
   160   -7.052722802911e-05
   161   -7.310547671093e-04
   162   -1.372758111949e-05
   163    2.159354379859e-03
   164    4.346020061873e-03
   165   -2.719025471955e-05
   166   -1.935192453178e-05
   167    6.690177899411e-06
   168    1.110149062738e-05
   169    4.252213518021e-04
   170    1.783902869944e-04
   171   -1.885467417298e-02
   172   -2.656892092949e-05
   173    6.385877927193e-04
   174    2.561511248174e-04
   175   -2.832860278418e-02
   176    3.541433866730e-05
   177    6.037752827002e-04
   178    2.357067561064e-04
   179   -2.707761978241e-02
   180   -2.588607581527e-04
   181   -3.526215727098e-05
   182   -8.032001749367e-07
   183    7.924441953240e-03
   184    9.594091244300e-06
   185   -3.335693657793e-04
   186   -1.647826623075e-03
   187   -1.293264889824e-05
   188    2.019516406159e-05
   189    1.235655307570e-05
   190    1.942494822339e-05
   191   -3.585687989850e-04
   192    3.390408556689e-05
   193    2.149014300943e-02
   194   -5.728720004864e-05
   195   -5.739311714553e-04
   196    5.542089526718e-05
   197    3.536970561534e-02
   198   -4.477577002736e-05
   199   -4.528715602493e-04
   200    2.539349530792e-05
   201    2.858890610404e-02
   202   -5.815103997244e-04
   203   -2.114140440356e-03
   204    1.530352042361e-03
   205    2.255353221433e-03
   206    5.736636458755e-04
   207    2.293325028399e-02
   208   -1.219903009850e-02
   209   -2.021446454664e-04
   210    3.039901452944e-04
   211    4.544550715646e-06
   212    1.470107067969e-05
   213   -3.962495256745e-05
   214   -4.946030959099e-05
   215    9.918390829965e-05
   216    1.187741850209e-04
   217   -2.216970262567e-04
   218   -1.916077972422e-04
   219    2.085602062669e-05
   220    2.447309112323e-07
   221   -2.358343719976e-04
   222    1.721349253925e-04
   223    1.956720465334e-06
   224   -1.948657537585e-03
   225   -4.492943547688e-04
   226   -3.695262125219e-06
   227    5.136783219334e-03
   228   -1.711044720923e-04
   229   -3.126161367083e-06
   230    1.971188768247e-03
   231    3.770384320120e-04
   232    1.277343808141e-07
   233   -4.649696338016e-03
   234    8.732311116686e-04
   235   -4.285912746152e-06
   236   -1.052504818028e-02
   237    5.430968441685e-04
   238   -1.426134058753e-04
   239   -1.060050485073e-02
   240   -1.719673264387e-05
   241   -1.881506431134e-03
   242   -8.576076894839e-04
   243    3.431499568933e-05
   244   -2.196589267439e-05
   245   -6.013251461362e-06
   246   -3.015072547896e-04
   247   -4.309267497940e-05
   248    3.865397392283e-06
   249   -2.493891183910e-06
   250    9.462965785311e-05
   251    5.715741955627e-05
   252    1.332044524914e-06
   253   -1.101779928172e-03
   254    5.583434036059e-05
   255    4.701855987255e-03
   256    1.267499466253e-03
   257   -6.617362726219e-05
   258    5.493330536374e-05
Sym=X
Ene= -0.364678
Spin=Alpha
Occup=1
     1    7.717438294352e-06
     2    1.243362590828e-05
     3   -1.065999187763e-03
     4    6.348811464691e-04
     5    9.927830529537e-02
     6   -3.798212332049e-05
     7   -1.741394636011e-03
     8    1.035270531911e-03
     9    1.623553130768e-01
    10    7.566380362939e-05
    11   -1.216238663415e-03
    12    7.073867042035e-04
    13    1.156856784665e-01
    14    4.052312415421e-04
    15   -5.056348549035e-05
    16   -8.266820755884e-05
    17    2.478958222425e-03
    18    2.581797546604e-04
    19    8.473264195822e-03
    20   -8.435387339568e-03
    21   -3.121569051864e-05
    22    1.564628710516e-04
    23   -5.073632601425e-06
    24   -8.031466959913e-06
    25   -1.229045401794e-03
    26    7.496148385592e-04
    27    1.114944113798e-01
    28    2.620558917210e-05
    29   -2.008838338375e-03
    30    1.226004378808e-03
    31    1.825148101723e-01
    32   -1.068369488945e-04
    33   -1.345266446069e-03
    34    9.045868532678e-04
    35    1.261333499525e-01
    36   -2.218303148443e-04
    37   -6.121532547778e-06
    38    6.521706086107e-05
    39    4.216773693349e-04
    40    1.548373963306e-05
    41   -5.981647872585e-03
    42   -1.092649419580e-02
    43    1.376978081479e-04
    44    8.509537378342e-05
    45    8.163746969190e-06
    46    1.309769590512e-05
    47   -1.137617399904e-03
    48    7.264275045175e-04
    49    1.053338723627e-01
    50   -3.924259358679e-05
    51   -1.865692574050e-03
    52    1.180921521546e-03
    53    1.723773900668e-01
    54    5.941753519900e-06
    55   -1.518874253173e-03
    56    9.484033325371e-04
    57    1.328388228204e-01
    58    7.717320762092e-05
    59   -1.945054392816e-04
    60    1.968969035389e-04
    61    1.801840139017e-02
    62   -2.530410236383e-04
    63   -1.092222998058e-02
    64    3.700264558618e-03
    65    1.006219309020e-04
    66   -1.147773050031e-04
    67   -1.675060531712e-06
    68   -2.817549539392e-06
    69   -9.083409893737e-04
    70    4.988165075769e-04
    71    7.931119918536e-02
    72    1.179829207216e-05
    73   -1.480297759108e-03
    74    8.234832005670e-04
    75    1.303717985048e-01
    76   -4.082048302550e-05
    77   -7.516887518537e-04
    78    4.127222218196e-04
    79    7.015361937626e-02
    80   -3.883820962773e-04
    81    5.227367379313e-05
    82   -1.473171129630e-05
    83    3.826519977037e-03
    84   -2.029400800474e-04
    85   -4.121920869910e-03
    86    1.091302357900e-02
    87   -2.583481582410e-05
    88   -1.565756025183e-04
    89   -7.811155037692e-06
    90   -1.238816960491e-05
    91   -8.838006285582e-04
    92    5.330836091987e-04
    93    8.012237173017e-02
    94    3.620780271184e-05
    95   -1.450804834194e-03
    96    8.746830162303e-04
    97    1.313255696106e-01
    98   -5.066692567369e-05
    99   -9.064607790766e-04
   100    5.032110883689e-04
   101    7.794804499695e-02
   102   -3.537179742254e-04
   103   -1.761757150572e-04
   104   -3.230141851544e-05
   105    9.043744673113e-03
   106    1.866563269330e-04
   107    1.077216218619e-02
   108    1.554024650494e-03
   109   -1.177001459367e-04
   110    5.322372657087e-05
   111   -3.461582492556e-05
   112   -3.861187744592e-05
   113   -7.297048596595e-06
   114    1.021105713757e-05
   115    2.867006896387e-06
   116   -2.356499651494e-05
   117    1.365263551171e-05
   118    6.011322048977e-06
   119   -2.064191245982e-06
   120    2.271846504851e-05
   121    2.655757501740e-05
   122    5.099783173641e-06
   123    3.342724083462e-06
   124    5.414953944111e-06
   125    2.903216225415e-04
   126   -2.049995421884e-04
   127   -3.011508645851e-02
   128   -1.910890875176e-05
   129    4.465501554272e-04
   130   -3.142695886698e-04
   131   -4.637987027200e-02
   132   -9.275887236121e-07
   133    4.116178633379e-04
   134   -3.031118999216e-04
   135   -4.277294986197e-02
   136    6.527920681139e-05
   137    3.624312721029e-04
   138   -2.767725817064e-04
   139   -3.569556571693e-02
   140   -2.747972426912e-04
   141   -1.344117094158e-02
   142    1.656392353989e-03
   143    1.343718589844e-04
   144   -1.121311512466e-04
   145   -6.587370214921e-06
   146   -1.072843754321e-05
   147    3.776388410046e-04
   148   -2.143274298425e-04
   149   -3.558299532950e-02
   150    3.162560636882e-05
   151    5.662923501815e-04
   152   -3.229034866990e-04
   153   -5.345340742799e-02
   154    4.989480446139e-05
   155    4.738567085892e-04
   156   -2.836771362406e-04
   157   -4.476922177744e-02
   158    1.532649009414e-05
   159   -9.581912698964e-05
   160    5.835382764064e-05
   161    8.695816816091e-03
   162   -1.609736436699e-05
   163    1.586890342788e-03
   164    3.961430762386e-03
   165   -4.087141338276e-05
   166   -3.235940709950e-05
   167   -8.361600926045e-06
   168   -1.362607590974e-05
   169    5.000634585428e-04
   170   -3.352244764780e-04