 Entering Gaussian System, Link 0=g16
 Initial command:
 /software/gaussian/g16-c01/sse4/g16/l1.exe "/local_scratch/24665233/Gau-25296.inp" -scrdir="/local_scratch/24665233/"
 Entering Link 1 = /software/gaussian/g16-c01/sse4/g16/l1.exe PID=     25304.
  
 Copyright (c) 1988-2019, Gaussian, Inc.  All Rights Reserved.
  
 This is part of the Gaussian(R) 16 program.  It is based on
 the Gaussian(R) 09 system (copyright 2009, Gaussian, Inc.),
 the Gaussian(R) 03 system (copyright 2003, Gaussian, Inc.),
 the Gaussian(R) 98 system (copyright 1998, Gaussian, Inc.),
 the Gaussian(R) 94 system (copyright 1995, Gaussian, Inc.),
 the Gaussian 92(TM) system (copyright 1992, Gaussian, Inc.),
 the Gaussian 90(TM) system (copyright 1990, Gaussian, Inc.),
 the Gaussian 88(TM) system (copyright 1988, Gaussian, Inc.),
 the Gaussian 86(TM) system (copyright 1986, Carnegie Mellon
 University), and the Gaussian 82(TM) system (copyright 1983,
 Carnegie Mellon University). Gaussian is a federally registered
 trademark of Gaussian, Inc.
  
 This software contains proprietary and confidential information,
 including trade secrets, belonging to Gaussian, Inc.
  
 This software is provided under written license and may be
 used, copied, transmitted, or stored only in accord with that
 written license.
  
 The following legend is applicable only to US Government
 contracts under FAR:
  
                    RESTRICTED RIGHTS LEGEND
  
 Use, reproduction and disclosure by the US Government is
 subject to restrictions as set forth in subparagraphs (a)
 and (c) of the Commercial Computer Software - Restricted
 Rights clause in FAR 52.227-19.
  
 Gaussian, Inc.
 340 Quinnipiac St., Bldg. 40, Wallingford CT 06492
  
  
 ---------------------------------------------------------------
 Warning -- This program may not be used in any manner that
 competes with the business of Gaussian, Inc. or will provide
 assistance to any competitor of Gaussian, Inc.  The licensee
 of this program is prohibited from giving any competitor of
 Gaussian, Inc. access to this program.  By using this program,
 the user acknowledges that Gaussian, Inc. is engaged in the
 business of creating and licensing software in the field of
 computational chemistry and represents and warrants to the
 licensee that it is not a competitor of Gaussian, Inc. and that
 it will not use this program in any manner prohibited above.
 ---------------------------------------------------------------
  

 Cite this work as:
 Gaussian 16, Revision C.01,
 M. J. Frisch, G. W. Trucks, H. B. Schlegel, G. E. Scuseria, 
 M. A. Robb, J. R. Cheeseman, G. Scalmani, V. Barone, 
 G. A. Petersson, H. Nakatsuji, X. Li, M. Caricato, A. V. Marenich, 
 J. Bloino, B. G. Janesko, R. Gomperts, B. Mennucci, H. P. Hratchian, 
 J. V. Ortiz, A. F. Izmaylov, J. L. Sonnenberg, D. Williams-Young, 
 F. Ding, F. Lipparini, F. Egidi, J. Goings, B. Peng, A. Petrone, 
 T. Henderson, D. Ranasinghe, V. G. Zakrzewski, J. Gao, N. Rega, 
 G. Zheng, W. Liang, M. Hada, M. Ehara, K. Toyota, R. Fukuda, 
 J. Hasegawa, M. Ishida, T. Nakajima, Y. Honda, O. Kitao, H. Nakai, 
 T. Vreven, K. Throssell, J. A. Montgomery, Jr., J. E. Peralta, 
 F. Ogliaro, M. J. Bearpark, J. J. Heyd, E. N. Brothers, K. N. Kudin, 
 V. N. Staroverov, T. A. Keith, R. Kobayashi, J. Normand, 
 K. Raghavachari, A. P. Rendell, J. C. Burant, S. S. Iyengar, 
 J. Tomasi, M. Cossi, J. M. Millam, M. Klene, C. Adamo, R. Cammi, 
 J. W. Ochterski, R. L. Martin, K. Morokuma, O. Farkas, 
 J. B. Foresman, and D. J. Fox, Gaussian, Inc., Wallingford CT, 2019.
 
 ******************************************
 Gaussian 16:  ES64L-G16RevC.01  3-Jul-2019
                 2-May-2024 
 ******************************************
 %chk=geometry.chk
 %mem=1GB
 %nprocshared=12
 Will use up to   12 processors via shared memory.
 ----------------------------------------
 #P wB97XD/6-311+G* NoSymm #P Field=X-291
 ----------------------------------------
 1/38=1,172=1/1;
 2/12=2,15=1,17=6,18=5,40=1/2;
 3/5=4,6=6,7=11,11=2,14=1,15=-291,25=1,30=1,74=-58/1,2,3;
 4//1;
 5/5=2,38=5/2;
 6/7=2,8=2,9=2,10=2,28=1/1;
 99/5=1,9=1/99;
 Leave Link    1 at Thu May  2 13:57:28 2024, MaxMem=   134217728 cpu:               1.2 elap:               1.2
 (Enter /software/gaussian/g16-c01/sse4/g16/l101.exe)
 -------
 TitleMe
 -------
 Symbolic Z-matrix:
 Charge =  1 Multiplicity = 1
 C                     0.5193    1.233    -0.0319 
 C                     1.9445    1.2692   -0.0367 
 C                     2.6204    0.0928   -0.025 
 C                    -0.196     0.0301    0.001 
 H                    -0.0207    2.1742   -0.0434 
 H                     2.4828    2.2089   -0.0361 
 H                    -1.2777    0.0399    0.0117 
 N                     4.0921    0.0959    0.0366 
 O                     4.6393   -1.0217    0.1446 
 O                     4.6649    1.1984   -0.0233 
 C                     0.4943   -1.1671    0.021 
 H                    -0.0325   -2.1149    0.0545 
 C                     1.9629   -1.2165   -0.0211 
 H                     2.4436   -1.9631    0.6151 
 Br                    2.173    -1.9491   -1.9062 
 
 ITRead=  0  0  0  0  0  0  0  0  0  0  0  0  0  0  0
 MicOpt= -1 -1 -1 -1 -1 -1 -1 -1 -1 -1 -1 -1 -1 -1 -1
 NAtoms=     15 NQM=       15 NQMF=       0 NMMI=      0 NMMIF=      0
                NMic=       0 NMicF=      0.
                    Isotopes and Nuclear Properties:
 (Nuclear quadrupole moments (NQMom) in fm**2, nuclear magnetic moments (NMagM)
  in nuclear magnetons)

  Atom         1           2           3           4           5           6           7           8           9          10
 IAtWgt=          12          12          12          12           1           1           1          14          16          16
 AtmWgt=  12.0000000  12.0000000  12.0000000  12.0000000   1.0078250   1.0078250   1.0078250  14.0030740  15.9949146  15.9949146
 NucSpn=           0           0           0           0           1           1           1           2           0           0
 AtZEff=  -0.0000000  -0.0000000  -0.0000000  -0.0000000  -0.0000000  -0.0000000  -0.0000000  -0.0000000  -0.0000000  -0.0000000
 NQMom=    0.0000000   0.0000000   0.0000000   0.0000000   0.0000000   0.0000000   0.0000000   2.0440000   0.0000000   0.0000000
 NMagM=    0.0000000   0.0000000   0.0000000   0.0000000   2.7928460   2.7928460   2.7928460   0.4037610   0.0000000   0.0000000
 AtZNuc=   6.0000000   6.0000000   6.0000000   6.0000000   1.0000000   1.0000000   1.0000000   7.0000000   8.0000000   8.0000000

  Atom        11          12          13          14          15
 IAtWgt=          12           1          12           1          79
 AtmWgt=  12.0000000   1.0078250  12.0000000   1.0078250  78.9183361
 NucSpn=           0           1           0           1           3
 AtZEff=  -0.0000000  -0.0000000  -0.0000000  -0.0000000  -0.0000000
 NQMom=    0.0000000   0.0000000   0.0000000   0.0000000  31.3000000
 NMagM=    0.0000000   2.7928460   0.0000000   2.7928460   2.1063990
 AtZNuc=   6.0000000   1.0000000   6.0000000   1.0000000  35.0000000
 Leave Link  101 at Thu May  2 13:57:31 2024, MaxMem=   134217728 cpu:               1.6 elap:               1.6
 (Enter /software/gaussian/g16-c01/sse4/g16/l202.exe)
                          Input orientation:                          
 ---------------------------------------------------------------------
 Center     Atomic      Atomic             Coordinates (Angstroms)
 Number     Number       Type             X           Y           Z
 ---------------------------------------------------------------------
      1          6           0        0.519300    1.233000   -0.031900
      2          6           0        1.944500    1.269200   -0.036700
      3          6           0        2.620400    0.092800   -0.025000
      4          6           0       -0.196000    0.030100    0.001000
      5          1           0       -0.020700    2.174200   -0.043400
      6          1           0        2.482800    2.208900   -0.036100
      7          1           0       -1.277700    0.039900    0.011700
      8          7           0        4.092100    0.095900    0.036600
      9          8           0        4.639300   -1.021700    0.144600
     10          8           0        4.664900    1.198400   -0.023300
     11          6           0        0.494300   -1.167100    0.021000
     12          1           0       -0.032500   -2.114900    0.054500
     13          6           0        1.962900   -1.216500   -0.021100
     14          1           0        2.443600   -1.963100    0.615100
     15         35           0        2.173000   -1.949100   -1.906200
 ---------------------------------------------------------------------
                    Distance matrix (angstroms):
                    1          2          3          4          5
     1  C    0.000000
     2  C    1.425668   0.000000
     3  C    2.390549   1.356796   0.000000
     4  C    1.399895   2.473566   2.817218   0.000000
     5  H    1.085168   2.163581   3.362733   2.151712   0.000000
     6  H    2.192654   1.082960   2.120598   3.453189   2.503751
     7  H    2.157452   3.449071   3.898632   1.081797   2.477564
     8  N    3.750012   2.448304   1.472992   4.288753   4.608780
     9  O    4.699917   3.541615   2.312322   4.950458   5.653735
    10  O    4.145753   2.721354   2.324292   4.999386   4.786171
    11  C    2.400813   2.835836   2.471794   1.382101   3.381369
    12  H    3.394169   3.920329   3.452266   2.151887   4.290233
    13  C    2.843264   2.485817   1.465124   2.493060   3.928360
    14  H    3.786370   3.334922   2.160489   3.364142   4.860416
    15  Br   4.046416   3.728900   2.812194   3.628609   5.028314
                    6          7          8          9         10
     6  H    0.000000
     7  H    4.341452   0.000000
     8  N    2.657047   5.370150   0.000000
     9  O    3.888434   6.012948   1.249048   0.000000
    10  O    2.404752   6.054572   1.243863   2.226587   0.000000
    11  C    3.918516   2.144043   3.813080   4.149391   4.794941
    12  H    5.003018   2.489080   4.679774   4.798846   5.748876
    13  C    3.464662   3.475788   2.501842   2.688591   3.623886
    14  H    4.222698   4.268978   2.700314   2.434893   3.916224
    15  Br   4.569706   4.420610   3.411663   3.338935   4.434144
                   11         12         13         14         15
    11  C    0.000000
    12  H    1.084880   0.000000
    13  C    1.470034   2.189625   0.000000
    14  H    2.187771   2.543302   1.092353   0.000000
    15  Br   2.672762   2.955683   2.033334   2.535818   0.000000
 Symmetry turned off by external request.
 Stoichiometry    C6H5BrNO2(1+)
 Framework group  C1[X(C6H5BrNO2)]
 Deg. of freedom    39
 Full point group                 C1      NOp   1
 Rotational constants (GHZ):           1.1632986           0.9594224           0.5957624
 Leave Link  202 at Thu May  2 13:57:33 2024, MaxMem=   134217728 cpu:               1.2 elap:               1.3
 (Enter /software/gaussian/g16-c01/sse4/g16/l301.exe)
 Standard basis: 6-311+G(d) (5D, 7F)
 Ernie: Thresh=  0.10000D-02 Tol=  0.10000D-05 Strict=F.
 The following finite field(s) will be applied:
 An electric field of             -0.0291  0.0000  0.0000
   261 basis functions,   443 primitive gaussians,   273 cartesian basis functions
    49 alpha electrons       49 beta electrons
       nuclear repulsion energy       772.8945969580 Hartrees.
 IExCor= 4639 DFT=T Ex+Corr=wB97XD ExCW=0 ScaHFX=  1.000000
 ScaDFX=  1.000000  1.000000  1.000000  1.000000 ScalE2=  1.000000  1.000000
 IRadAn=      5 IRanWt=     -1 IRanGd=            0 ICorTp=0 IEmpDi=121
 HFx  wShort=  0.000000 wLong=  0.200000 cFull=  0.222036 cShort=  0.000000 cLong=  0.777964
 DFx  wShort=  0.000000 wLong=  0.200000 cFull=  0.000000 cShort=  0.000000 cLong=  1.000000
 NAtoms=   15 NActive=   15 NUniq=   15 SFac= 1.00D+00 NAtFMM=   60 NAOKFM=F Big=F
 Integral buffers will be    131072 words long.
 Raffenetti 2 integral format.
 Two-electron integral symmetry is turned off.
 R6Disp:  Grimme-D2 Dispersion energy=       -0.0080346408 Hartrees.
 Nuclear repulsion after empirical dispersion term =      772.8865623173 Hartrees.
 Leave Link  301 at Thu May  2 13:57:34 2024, MaxMem=   134217728 cpu:               1.0 elap:               1.0
 (Enter /software/gaussian/g16-c01/sse4/g16/l302.exe)
 NPDir=0 NMtPBC=     1 NCelOv=     1 NCel=       1 NClECP=     1 NCelD=      1
         NCelK=      1 NCelE2=     1 NClLst=     1 CellRange=     0.0.
 One-electron integrals computed using PRISM.
 NBasis=   261 RedAO= T EigKep=  2.52D-06  NBF=   261
 NBsUse=   261 1.00D-06 EigRej= -1.00D+00 NBFU=   261
 Precomputing XC quadrature grid using
 IXCGrd= 4 IRadAn=           5 IRanWt=          -1 IRanGd=           0 AccXCQ= 0.00D+00.
 Generated NRdTot=       0 NPtTot=           0 NUsed=           0 NTot=          32
 NSgBfM=   273   273   273   273   273 MxSgAt=    15 MxSgA2=    15.
 Leave Link  302 at Thu May  2 13:57:57 2024, MaxMem=   134217728 cpu:              21.7 elap:              22.2
 (Enter /software/gaussian/g16-c01/sse4/g16/l303.exe)
 DipDrv:  MaxL=1.
 The nuclear repulsion energy is now       760.4145306731 hartrees.
 Leave Link  303 at Thu May  2 13:58:00 2024, MaxMem=   134217728 cpu:               3.3 elap:               3.3
 (Enter /software/gaussian/g16-c01/sse4/g16/l401.exe)
 ExpMin= 3.50D-02 ExpMax= 4.40D+05 ExpMxC= 1.51D+04 IAcc=3 IRadAn=         5 AccDes= 0.00D+00
 Harris functional with IExCor= 4639 and IRadAn=       5 diagonalized for initial guess.
 HarFok:  IExCor= 4639 AccDes= 0.00D+00 IRadAn=         5 IDoV= 1 UseB2=F ITyADJ=14
 ICtDFT=  3500011 ScaDFX=  1.000000  1.000000  1.000000  1.000000
 FoFCou: FMM=F IPFlag=           0 FMFlag=      100000 FMFlg1=           0
         NFxFlg=           0 DoJE=T BraDBF=F KetDBF=T FulRan=T
         wScrn=  0.000000 ICntrl=       500 IOpCl=  0 I1Cent=   200000004 NGrid=           0
         NMat0=    1 NMatS0=      1 NMatT0=    0 NMatD0=    1 NMtDS0=    0 NMtDT0=    0
 Symmetry not used in FoFCou.
 Harris En= -2971.71973509111    
 JPrj=0 DoOrth=F DoCkMO=F.
 Leave Link  401 at Thu May  2 13:58:32 2024, MaxMem=   134217728 cpu:              31.5 elap:              31.5
 (Enter /software/gaussian/g16-c01/sse4/g16/l502.exe)
 Two-electron integral symmetry not used.
 Closed shell SCF:
 Using DIIS extrapolation, IDIIS=  1040.
 NGot=   134217728 LenX=   134063053 LenY=   133988083
 Requested convergence on RMS density matrix=1.00D-08 within 128 cycles.
 Requested convergence on MAX density matrix=1.00D-06.
 Requested convergence on             energy=1.00D-06.
 No special actions if energy rises.
 Fock matrices will be formed incrementally for  20 cycles.

 Cycle   1  Pass 1  IDiag  1:
 FoFJK:  IHMeth= 1 ICntrl=       0 DoSepK=T KAlg= 0 I1Cent=           0 FoldK=F
 IRaf=         1 NMat=       1 IRICut=       1 DoRegI=T DoRafI=F ISym2E= 0 IDoP0=0 IntGTp=1.
 FoFCou: FMM=F IPFlag=           0 FMFlag=      100000 FMFlg1=           0
         NFxFlg=           0 DoJE=T BraDBF=F KetDBF=F FulRan=T
         wScrn=  0.000000 ICntrl=       500 IOpCl=  0 I1Cent=           0 NGrid=           0
         NMat0=    1 NMatS0=      1 NMatT0=    0 NMatD0=    1 NMtDS0=    0 NMtDT0=    0
 Symmetry not used in FoFCou.
 E= -3000.96750686367    
 DIIS: error= 2.91D-01 at cycle   1 NSaved=   1.
 NSaved= 1 IEnMin= 1 EnMin= -3000.96750686367     IErMin= 1 ErrMin= 2.91D-01
 ErrMax= 2.91D-01  0.00D+00 EMaxC= 1.00D-01 BMatC= 1.51D+01 BMatP= 1.51D+01
 IDIUse=3 WtCom= 0.00D+00 WtEn= 1.00D+00
 Coeff-Com:  0.100D+01
 Coeff-En:   0.100D+01
 Coeff:      0.100D+01
 Gap=     0.949 Goal=   None    Shift=    0.000
 GapD=    0.949 DampG=2.000 DampE=0.250 DampFc=0.5000 IDamp=-1.
 Damping current iteration by 5.00D-01
 RMSDP=2.16D+01 MaxDP=1.82D+03              OVMax= 9.97D-01

 Cycle   2  Pass 1  IDiag  1:
 RMSU=  6.35D-01    CP:  5.19D-01
 E= -2987.24493984402     Delta-E=       13.722567019649 Rises=F Damp=T
 DIIS: error= 1.49D-01 at cycle   2 NSaved=   2.
 NSaved= 2 IEnMin= 1 EnMin= -3000.96750686367     IErMin= 2 ErrMin= 1.49D-01
 ErrMax= 1.49D-01  0.00D+00 EMaxC= 1.00D-01 BMatC= 8.65D+00 BMatP= 1.51D+01
 IDIUse=3 WtCom= 0.00D+00 WtEn= 1.00D+00
 Coeff-Com:  0.338D+00 0.662D+00
 Coeff-En:   0.704D+00 0.296D+00
 Coeff:      0.704D+00 0.296D+00
 Gap=    -0.237 Goal=   None    Shift=    0.000
 RMSDP=1.16D+01 MaxDP=1.07D+03 DE= 1.37D+01 OVMax= 9.77D-01

 Cycle   3  Pass 1  IDiag  1:
 RMSU=  9.22D-02    CP:  3.91D-03  7.95D-02
 E= -2998.66397891542     Delta-E=      -11.419039071405 Rises=F Damp=F
 DIIS: error= 1.27D-01 at cycle   3 NSaved=   3.
 NSaved= 3 IEnMin= 1 EnMin= -3000.96750686367     IErMin= 3 ErrMin= 1.27D-01
 ErrMax= 1.27D-01  0.00D+00 EMaxC= 1.00D-01 BMatC= 9.13D+00 BMatP= 8.65D+00
 IDIUse=3 WtCom= 0.00D+00 WtEn= 1.00D+00
 Coeff-Com:  0.387D+00 0.738D-01 0.539D+00
 Coeff-En:   0.537D+00 0.000D+00 0.463D+00
 Coeff:      0.537D+00 0.000D+00 0.463D+00
 Gap=     0.167 Goal=   None    Shift=    0.000
 RMSDP=4.20D-02 MaxDP=2.37D+00 DE=-1.14D+01 OVMax= 7.14D-01

 Cycle   4  Pass 1  IDiag  1:
 RMSU=  3.78D-02    CP:  4.53D-03  8.66D-02  8.80D-01
 E= -3010.23790556445     Delta-E=      -11.573926649030 Rises=F Damp=F
 DIIS: error= 3.13D-02 at cycle   4 NSaved=   4.
 NSaved= 4 IEnMin= 4 EnMin= -3010.23790556445     IErMin= 4 ErrMin= 3.13D-02
 ErrMax= 3.13D-02  0.00D+00 EMaxC= 1.00D-01 BMatC= 4.20D-01 BMatP= 8.65D+00
 IDIUse=3 WtCom= 6.87D-01 WtEn= 3.13D-01
 Coeff-Com:  0.794D-01 0.200D-01 0.216D-01 0.879D+00
 Coeff-En:   0.000D+00 0.000D+00 0.000D+00 0.100D+01
 Coeff:      0.546D-01 0.137D-01 0.149D-01 0.917D+00
 Gap=     0.293 Goal=   None    Shift=    0.000
 RMSDP=6.08D-02 MaxDP=5.87D+00 DE=-1.16D+01 OVMax= 2.99D-01

 Cycle   5  Pass 1  IDiag  1:
 RMSU=  4.09D-02    CP:  4.13D-03  1.03D-01  4.17D-01  8.97D-01
 E= -3010.40260352888     Delta-E=       -0.164697964422 Rises=F Damp=F
 DIIS: error= 2.40D-02 at cycle   5 NSaved=   5.
 NSaved= 5 IEnMin= 5 EnMin= -3010.40260352888     IErMin= 5 ErrMin= 2.40D-02
 ErrMax= 2.40D-02  0.00D+00 EMaxC= 1.00D-01 BMatC= 2.40D-01 BMatP= 4.20D-01
 IDIUse=3 WtCom= 7.60D-01 WtEn= 2.40D-01
 Coeff-Com:  0.164D-01 0.560D-02-0.648D-02 0.438D+00 0.546D+00
 Coeff-En:   0.000D+00 0.000D+00 0.000D+00 0.330D+00 0.670D+00
 Coeff:      0.125D-01 0.426D-02-0.493D-02 0.412D+00 0.576D+00
 Gap=     0.178 Goal=   None    Shift=    0.000
 RMSDP=1.69D-02 MaxDP=1.59D+00 DE=-1.65D-01 OVMax= 1.28D-01

 Cycle   6  Pass 1  IDiag  1:
 RMSU=  8.84D-03    CP:  3.78D-03  8.84D-02  4.08D-01  9.14D-01  8.10D-01
 E= -3010.59267755739     Delta-E=       -0.190074028519 Rises=F Damp=F
 DIIS: error= 1.90D-02 at cycle   6 NSaved=   6.
 NSaved= 6 IEnMin= 6 EnMin= -3010.59267755739     IErMin= 6 ErrMin= 1.90D-02
 ErrMax= 1.90D-02  0.00D+00 EMaxC= 1.00D-01 BMatC= 2.57D-02 BMatP= 2.40D-01
 IDIUse=3 WtCom= 8.10D-01 WtEn= 1.90D-01
 Coeff-Com:  0.405D-02 0.192D-02-0.331D-02 0.201D+00 0.312D+00 0.485D+00
 Coeff-En:   0.000D+00 0.000D+00 0.000D+00 0.000D+00 0.000D+00 0.100D+01
 Coeff:      0.328D-02 0.155D-02-0.269D-02 0.163D+00 0.252D+00 0.582D+00
 Gap=     0.176 Goal=   None    Shift=    0.000
 RMSDP=6.14D-03 MaxDP=6.86D-01 DE=-1.90D-01 OVMax= 1.16D-01

 Cycle   7  Pass 1  IDiag  1:
 RMSU=  3.42D-03    CP:  3.92D-03  9.30D-02  3.97D-01  9.40D-01  8.48D-01
                    CP:  7.84D-01
 E= -3010.59887833603     Delta-E=       -0.006200778636 Rises=F Damp=F
 DIIS: error= 1.76D-02 at cycle   7 NSaved=   7.
 NSaved= 7 IEnMin= 7 EnMin= -3010.59887833603     IErMin= 7 ErrMin= 1.76D-02
 ErrMax= 1.76D-02  0.00D+00 EMaxC= 1.00D-01 BMatC= 1.78D-02 BMatP= 2.57D-02
 IDIUse=3 WtCom= 8.24D-01 WtEn= 1.76D-01
 Coeff-Com: -0.123D-02 0.310D-04 0.871D-04 0.269D-01 0.610D-01 0.449D+00
 Coeff-Com:  0.464D+00
 Coeff-En:   0.000D+00 0.000D+00 0.000D+00 0.000D+00 0.000D+00 0.422D+00
 Coeff-En:   0.578D+00
 Coeff:     -0.102D-02 0.255D-04 0.718D-04 0.221D-01 0.502D-01 0.444D+00
 Coeff:      0.484D+00
 Gap=     0.167 Goal=   None    Shift=    0.000
 RMSDP=4.64D-03 MaxDP=6.08D-01 DE=-6.20D-03 OVMax= 5.86D-02

 Cycle   8  Pass 1  IDiag  1:
 RMSU=  1.77D-03    CP:  3.80D-03  8.97D-02  3.85D-01  9.14D-01  8.66D-01
                    CP:  9.26D-01  5.57D-01
 E= -3010.61138150308     Delta-E=       -0.012503167045 Rises=F Damp=F
 DIIS: error= 2.11D-03 at cycle   8 NSaved=   8.
 NSaved= 8 IEnMin= 8 EnMin= -3010.61138150308     IErMin= 8 ErrMin= 2.11D-03
 ErrMax= 2.11D-03  0.00D+00 EMaxC= 1.00D-01 BMatC= 6.71D-04 BMatP= 1.78D-02
 IDIUse=3 WtCom= 9.79D-01 WtEn= 2.11D-02
 Coeff-Com: -0.692D-03 0.822D-03 0.846D-03-0.871D-02-0.109D-01 0.168D+00
 Coeff-Com:  0.254D+00 0.596D+00
 Coeff-En:   0.000D+00 0.000D+00 0.000D+00 0.000D+00 0.000D+00 0.000D+00
 Coeff-En:   0.000D+00 0.100D+01
 Coeff:     -0.677D-03 0.805D-03 0.828D-03-0.852D-02-0.106D-01 0.164D+00
 Coeff:      0.249D+00 0.605D+00
 Gap=     0.164 Goal=   None    Shift=    0.000
 RMSDP=7.49D-04 MaxDP=7.11D-02 DE=-1.25D-02 OVMax= 8.21D-03

 Cycle   9  Pass 1  IDiag  1:
 RMSU=  4.19D-04    CP:  3.79D-03  8.92D-02  3.85D-01  9.11D-01  8.56D-01
                    CP:  9.34D-01  6.35D-01  1.04D+00
 E= -3010.61195717843     Delta-E=       -0.000575675353 Rises=F Damp=F
 DIIS: error= 5.75D-04 at cycle   9 NSaved=   9.
 NSaved= 9 IEnMin= 9 EnMin= -3010.61195717843     IErMin= 9 ErrMin= 5.75D-04
 ErrMax= 5.75D-04  0.00D+00 EMaxC= 1.00D-01 BMatC= 7.52D-05 BMatP= 6.71D-04
 IDIUse=3 WtCom= 9.94D-01 WtEn= 5.75D-03
 Coeff-Com: -0.605D-03 0.124D-02 0.415D-04-0.451D-02-0.831D-02 0.224D-01
 Coeff-Com:  0.405D-01 0.213D+00 0.736D+00
 Coeff-En:   0.000D+00 0.000D+00 0.000D+00 0.000D+00 0.000D+00 0.000D+00
 Coeff-En:   0.000D+00 0.000D+00 0.100D+01
 Coeff:     -0.601D-03 0.123D-02 0.412D-04-0.448D-02-0.826D-02 0.223D-01
 Coeff:      0.402D-01 0.212D+00 0.738D+00
 Gap=     0.165 Goal=   None    Shift=    0.000
 RMSDP=5.27D-04 MaxDP=5.79D-02 DE=-5.76D-04 OVMax= 5.33D-03

 Cycle  10  Pass 1  IDiag  1:
 RMSU=  1.86D-04    CP:  3.78D-03  8.89D-02  3.85D-01  9.10D-01  8.57D-01
                    CP:  9.32D-01  6.38D-01  1.23D+00  1.16D+00
 E= -3010.61207327075     Delta-E=       -0.000116092322 Rises=F Damp=F
 DIIS: error= 2.71D-04 at cycle  10 NSaved=  10.
 NSaved=10 IEnMin=10 EnMin= -3010.61207327075     IErMin=10 ErrMin= 2.71D-04
 ErrMax= 2.71D-04  0.00D+00 EMaxC= 1.00D-01 BMatC= 1.92D-05 BMatP= 7.52D-05
 IDIUse=3 WtCom= 9.97D-01 WtEn= 2.71D-03
 Coeff-Com: -0.193D-03 0.246D-03 0.447D-03 0.228D-02 0.339D-02-0.231D-01
 Coeff-Com: -0.491D-01-0.145D+00 0.797D-01 0.113D+01
 Coeff-En:   0.000D+00 0.000D+00 0.000D+00 0.000D+00 0.000D+00 0.000D+00
 Coeff-En:   0.000D+00 0.000D+00 0.000D+00 0.100D+01
 Coeff:     -0.192D-03 0.245D-03 0.446D-03 0.227D-02 0.338D-02-0.231D-01
 Coeff:     -0.490D-01-0.144D+00 0.795D-01 0.113D+01
 Gap=     0.168 Goal=   None    Shift=    0.000
 RMSDP=6.43D-04 MaxDP=6.81D-02 DE=-1.16D-04 OVMax= 6.35D-03

 Cycle  11  Pass 1  IDiag  1:
 RMSU=  1.11D-04    CP:  3.76D-03  8.83D-02  3.87D-01  9.09D-01  8.52D-01
                    CP:  9.29D-01  6.32D-01  1.37D+00  1.55D+00  1.73D+00
 E= -3010.61213118345     Delta-E=       -0.000057912703 Rises=F Damp=F
 DIIS: error= 1.29D-04 at cycle  11 NSaved=  11.
 NSaved=11 IEnMin=11 EnMin= -3010.61213118345     IErMin=11 ErrMin= 1.29D-04
 ErrMax= 1.29D-04  0.00D+00 EMaxC= 1.00D-01 BMatC= 4.20D-06 BMatP= 1.92D-05
 IDIUse=3 WtCom= 9.99D-01 WtEn= 1.29D-03
 Coeff-Com: -0.933D-04 0.749D-04 0.177D-03 0.146D-02 0.290D-02-0.474D-02
 Coeff-Com: -0.137D-01-0.783D-01-0.143D+00 0.310D+00 0.926D+00
 Coeff-En:   0.000D+00 0.000D+00 0.000D+00 0.000D+00 0.000D+00 0.000D+00
 Coeff-En:   0.000D+00 0.000D+00 0.000D+00 0.000D+00 0.100D+01
 Coeff:     -0.932D-04 0.748D-04 0.177D-03 0.145D-02 0.290D-02-0.473D-02
 Coeff:     -0.137D-01-0.782D-01-0.143D+00 0.309D+00 0.926D+00
 Gap=     0.168 Goal=   None    Shift=    0.000
 RMSDP=2.15D-04 MaxDP=1.87D-02 DE=-5.79D-05 OVMax= 3.13D-03

 Cycle  12  Pass 1  IDiag  1:
 RMSU=  7.35D-05    CP:  3.76D-03  8.82D-02  3.88D-01  9.08D-01  8.50D-01
                    CP:  9.22D-01  6.34D-01  1.42D+00  1.64D+00  2.10D+00
                    CP:  1.24D+00
 E= -3010.61214367721     Delta-E=       -0.000012493758 Rises=F Damp=F
 DIIS: error= 5.06D-05 at cycle  12 NSaved=  12.
 NSaved=12 IEnMin=12 EnMin= -3010.61214367721     IErMin=12 ErrMin= 5.06D-05
 ErrMax= 5.06D-05  0.00D+00 EMaxC= 1.00D-01 BMatC= 8.86D-07 BMatP= 4.20D-06
 IDIUse=1 WtCom= 1.00D+00 WtEn= 0.00D+00
 Coeff-Com:  0.115D-04 0.596D-05 0.624D-04 0.244D-03 0.862D-03 0.353D-02
 Coeff-Com:  0.460D-02-0.115D-01-0.853D-01-0.814D-01 0.357D+00 0.811D+00
 Coeff:      0.115D-04 0.596D-05 0.624D-04 0.244D-03 0.862D-03 0.353D-02
 Coeff:      0.460D-02-0.115D-01-0.853D-01-0.814D-01 0.357D+00 0.811D+00
 Gap=     0.168 Goal=   None    Shift=    0.000
 RMSDP=1.36D-04 MaxDP=1.32D-02 DE=-1.25D-05 OVMax= 1.62D-03

 Cycle  13  Pass 1  IDiag  1:
 RMSU=  2.55D-05    CP:  3.76D-03  8.82D-02  3.88D-01  9.08D-01  8.49D-01
                    CP:  9.19D-01  6.32D-01  1.43D+00  1.66D+00  2.26D+00
                    CP:  1.62D+00  1.41D+00
 E= -3010.61214707813     Delta-E=       -0.000003400920 Rises=F Damp=F
 DIIS: error= 2.74D-05 at cycle  13 NSaved=  13.
 NSaved=13 IEnMin=13 EnMin= -3010.61214707813     IErMin=13 ErrMin= 2.74D-05
 ErrMax= 2.74D-05  0.00D+00 EMaxC= 1.00D-01 BMatC= 1.62D-07 BMatP= 8.86D-07
 IDIUse=1 WtCom= 1.00D+00 WtEn= 0.00D+00
 Coeff-Com:  0.298D-05 0.773D-06-0.318D-04-0.244D-03-0.194D-03 0.228D-02
 Coeff-Com:  0.446D-02 0.813D-02-0.496D-03-0.593D-01-0.687D-01 0.254D+00
 Coeff-Com:  0.860D+00
 Coeff:      0.298D-05 0.773D-06-0.318D-04-0.244D-03-0.194D-03 0.228D-02
 Coeff:      0.446D-02 0.813D-02-0.496D-03-0.593D-01-0.687D-01 0.254D+00
 Coeff:      0.860D+00
 Gap=     0.168 Goal=   None    Shift=    0.000
 RMSDP=6.22D-05 MaxDP=5.21D-03 DE=-3.40D-06 OVMax= 1.07D-03

 Cycle  14  Pass 1  IDiag  1:
 RMSU=  1.77D-05    CP:  3.76D-03  8.82D-02  3.88D-01  9.08D-01  8.49D-01
                    CP:  9.18D-01  6.32D-01  1.43D+00  1.64D+00  2.26D+00
                    CP:  1.84D+00  1.79D+00  1.61D+00
 E= -3010.61214822227     Delta-E=       -0.000001144135 Rises=F Damp=F
 DIIS: error= 1.84D-05 at cycle  14 NSaved=  14.
 NSaved=14 IEnMin=14 EnMin= -3010.61214822227     IErMin=14 ErrMin= 1.84D-05
 ErrMax= 1.84D-05  0.00D+00 EMaxC= 1.00D-01 BMatC= 7.00D-08 BMatP= 1.62D-07
 IDIUse=1 WtCom= 1.00D+00 WtEn= 0.00D+00
 Coeff-Com:  0.574D-05-0.912D-05-0.256D-04-0.149D-03-0.365D-03-0.256D-03
 Coeff-Com:  0.995D-03 0.669D-02 0.168D-01-0.277D-02-0.907D-01-0.505D-02
 Coeff-Com:  0.214D+00 0.860D+00
 Coeff:      0.574D-05-0.912D-05-0.256D-04-0.149D-03-0.365D-03-0.256D-03
 Coeff:      0.995D-03 0.669D-02 0.168D-01-0.277D-02-0.907D-01-0.505D-02
 Coeff:      0.214D+00 0.860D+00
 Gap=     0.168 Goal=   None    Shift=    0.000
 RMSDP=3.24D-05 MaxDP=1.99D-03 DE=-1.14D-06 OVMax= 8.29D-04

 Cycle  15  Pass 1  IDiag  1:
 RMSU=  6.51D-06    CP:  3.76D-03  8.82D-02  3.89D-01  9.08D-01  8.49D-01
                    CP:  9.18D-01  6.30D-01  1.44D+00  1.62D+00  2.25D+00
                    CP:  1.98D+00  2.00D+00  2.08D+00  1.62D+00
 E= -3010.61214881361     Delta-E=       -0.000000591340 Rises=F Damp=F
 DIIS: error= 1.45D-05 at cycle  15 NSaved=  15.
 NSaved=15 IEnMin=15 EnMin= -3010.61214881361     IErMin=15 ErrMin= 1.45D-05
 ErrMax= 1.45D-05  0.00D+00 EMaxC= 1.00D-01 BMatC= 4.16D-08 BMatP= 7.00D-08
 IDIUse=1 WtCom= 1.00D+00 WtEn= 0.00D+00
 Coeff-Com:  0.704D-05-0.898D-05-0.120D-04 0.163D-04-0.186D-03-0.150D-02
 Coeff-Com: -0.150D-02-0.113D-02 0.149D-02 0.256D-01 0.418D-02-0.412D-01
 Coeff-Com: -0.415D+00 0.104D+00 0.133D+01
 Coeff:      0.704D-05-0.898D-05-0.120D-04 0.163D-04-0.186D-03-0.150D-02
 Coeff:     -0.150D-02-0.113D-02 0.149D-02 0.256D-01 0.418D-02-0.412D-01
 Coeff:     -0.415D+00 0.104D+00 0.133D+01
 Gap=     0.168 Goal=   None    Shift=    0.000
 RMSDP=4.67D-05 MaxDP=3.99D-03 DE=-5.91D-07 OVMax= 1.24D-03

 Cycle  16  Pass 1  IDiag  1:
 RMSU=  4.10D-06    CP:  3.76D-03  8.82D-02  3.89D-01  9.08D-01  8.49D-01
                    CP:  9.18D-01  6.29D-01  1.44D+00  1.60D+00  2.23D+00
                    CP:  2.17D+00  2.28D+00  2.66D+00  2.59D+00  2.36D+00
 E= -3010.61214944800     Delta-E=       -0.000000634390 Rises=F Damp=F
 DIIS: error= 9.27D-06 at cycle  16 NSaved=  16.
 NSaved=16 IEnMin=16 EnMin= -3010.61214944800     IErMin=16 ErrMin= 9.27D-06
 ErrMax= 9.27D-06  0.00D+00 EMaxC= 1.00D-01 BMatC= 1.52D-08 BMatP= 4.16D-08
 IDIUse=1 WtCom= 1.00D+00 WtEn= 0.00D+00
 Coeff-Com:  0.592D-06-0.145D-06-0.344D-05 0.471D-05 0.389D-04 0.217D-03
 Coeff-Com:  0.346D-04-0.264D-02-0.107D-01-0.459D-02 0.371D-01 0.557D-01
 Coeff-Com: -0.106D+00-0.509D+00-0.709D-01 0.161D+01
 Coeff:      0.592D-06-0.145D-06-0.344D-05 0.471D-05 0.389D-04 0.217D-03
 Coeff:      0.346D-04-0.264D-02-0.107D-01-0.459D-02 0.371D-01 0.557D-01
 Coeff:     -0.106D+00-0.509D+00-0.709D-01 0.161D+01
 Gap=     0.168 Goal=   None    Shift=    0.000
 RMSDP=4.74D-05 MaxDP=3.88D-03 DE=-6.34D-07 OVMax= 1.46D-03

 Cycle  17  Pass 1  IDiag  1:
 RMSU=  1.37D-05    CP:  3.76D-03  8.82D-02  3.89D-01  9.08D-01  8.49D-01
                    CP:  9.17D-01  6.27D-01  1.45D+00  1.58D+00  2.22D+00
                    CP:  2.38D+00  2.56D+00  3.00D+00  3.00D+00  3.00D+00
                    CP:  2.52D+00
 E= -3010.61214987666     Delta-E=       -0.000000428665 Rises=F Damp=F
 DIIS: error= 4.70D-06 at cycle  17 NSaved=  17.
 NSaved=17 IEnMin=17 EnMin= -3010.61214987666     IErMin=17 ErrMin= 4.70D-06
 ErrMax= 4.70D-06  0.00D+00 EMaxC= 1.00D-01 BMatC= 4.11D-09 BMatP= 1.52D-08
 IDIUse=1 WtCom= 1.00D+00 WtEn= 0.00D+00
 Coeff-Com: -0.177D-05 0.142D-05 0.180D-05-0.116D-04 0.379D-04 0.453D-03
 Coeff-Com:  0.443D-03-0.222D-03-0.374D-02-0.824D-02 0.876D-02 0.365D-01
 Coeff-Com:  0.719D-01-0.153D+00-0.360D+00 0.449D+00 0.958D+00
 Coeff:     -0.177D-05 0.142D-05 0.180D-05-0.116D-04 0.379D-04 0.453D-03
 Coeff:      0.443D-03-0.222D-03-0.374D-02-0.824D-02 0.876D-02 0.365D-01
 Coeff:      0.719D-01-0.153D+00-0.360D+00 0.449D+00 0.958D+00
 Gap=     0.168 Goal=   None    Shift=    0.000
 RMSDP=1.53D-05 MaxDP=8.92D-04 DE=-4.29D-07 OVMax= 5.60D-04

 Cycle  18  Pass 1  IDiag  1:
 RMSU=  2.83D-06    CP:  3.76D-03  8.82D-02  3.89D-01  9.08D-01  8.49D-01
                    CP:  9.17D-01  6.26D-01  1.45D+00  1.58D+00  2.22D+00
                    CP:  2.44D+00  2.65D+00  3.00D+00  3.00D+00  3.00D+00
                    CP:  3.00D+00  1.59D+00
 E= -3010.61214997104     Delta-E=       -0.000000094384 Rises=F Damp=F
 DIIS: error= 3.70D-06 at cycle  18 NSaved=  18.
 NSaved=18 IEnMin=18 EnMin= -3010.61214997104     IErMin=18 ErrMin= 3.70D-06
 ErrMax= 3.70D-06  0.00D+00 EMaxC= 1.00D-01 BMatC= 1.83D-09 BMatP= 4.11D-09
 IDIUse=1 WtCom= 1.00D+00 WtEn= 0.00D+00
 Coeff-Com:  0.905D-07-0.326D-06 0.241D-05-0.317D-05 0.528D-05-0.135D-04
 Coeff-Com: -0.659D-04 0.894D-03 0.416D-02 0.272D-02-0.178D-01-0.194D-01
 Coeff-Com:  0.603D-01 0.194D+00-0.580D-01-0.591D+00 0.563D-01 0.137D+01
 Coeff:      0.905D-07-0.326D-06 0.241D-05-0.317D-05 0.528D-05-0.135D-04
 Coeff:     -0.659D-04 0.894D-03 0.416D-02 0.272D-02-0.178D-01-0.194D-01
 Coeff:      0.603D-01 0.194D+00-0.580D-01-0.591D+00 0.563D-01 0.137D+01
 Gap=     0.168 Goal=   None    Shift=    0.000
 RMSDP=1.46D-05 MaxDP=9.94D-04 DE=-9.44D-08 OVMax= 5.50D-04

 Cycle  19  Pass 1  IDiag  1:
 RMSU=  2.26D-06    CP:  3.76D-03  8.82D-02  3.89D-01  9.08D-01  8.49D-01
                    CP:  9.17D-01  6.26D-01  1.45D+00  1.58D+00  2.22D+00
                    CP:  2.49D+00  2.73D+00  3.00D+00  3.00D+00  3.00D+00
                    CP:  3.00D+00  2.10D+00  2.69D+00
 E= -3010.61215003104     Delta-E=       -0.000000059997 Rises=F Damp=F
 DIIS: error= 2.35D-06 at cycle  19 NSaved=  19.
 NSaved=19 IEnMin=19 EnMin= -3010.61215003104     IErMin=19 ErrMin= 2.35D-06
 ErrMax= 2.35D-06  0.00D+00 EMaxC= 1.00D-01 BMatC= 8.08D-10 BMatP= 1.83D-09
 IDIUse=1 WtCom= 1.00D+00 WtEn= 0.00D+00
 Coeff-Com: -0.289D-06 0.250D-06-0.172D-06 0.848D-05-0.783D-06-0.186D-03
 Coeff-Com: -0.269D-03 0.350D-03 0.269D-02 0.536D-02-0.499D-02-0.153D-01
 Coeff-Com: -0.162D-01 0.104D+00 0.126D+00-0.355D+00-0.478D+00 0.424D+00
 Coeff-Com:  0.121D+01
 Coeff:     -0.289D-06 0.250D-06-0.172D-06 0.848D-05-0.783D-06-0.186D-03
 Coeff:     -0.269D-03 0.350D-03 0.269D-02 0.536D-02-0.499D-02-0.153D-01
 Coeff:     -0.162D-01 0.104D+00 0.126D+00-0.355D+00-0.478D+00 0.424D+00
 Coeff:      0.121D+01
 Gap=     0.168 Goal=   None    Shift=    0.000
 RMSDP=1.13D-05 MaxDP=6.03D-04 DE=-6.00D-08 OVMax= 4.40D-04

 Cycle  20  Pass 1  IDiag  1:
 RMSU=  3.40D-06    CP:  3.76D-03  8.82D-02  3.89D-01  9.08D-01  8.49D-01
                    CP:  9.17D-01  6.25D-01  1.45D+00  1.57D+00  2.21D+00
                    CP:  2.53D+00  2.78D+00  3.00D+00  3.00D+00  3.00D+00
                    CP:  3.00D+00  2.51D+00  3.00D+00  1.82D+00
 E= -3010.61215005471     Delta-E=       -0.000000023665 Rises=F Damp=F
 DIIS: error= 1.36D-06 at cycle  20 NSaved=  20.
 NSaved=20 IEnMin=20 EnMin= -3010.61215005471     IErMin=20 ErrMin= 1.36D-06
 ErrMax= 1.36D-06  0.00D+00 EMaxC= 1.00D-01 BMatC= 1.51D-10 BMatP= 8.08D-10
 IDIUse=1 WtCom= 1.00D+00 WtEn= 0.00D+00
 Coeff-Com: -0.267D-07-0.357D-08-0.839D-06-0.111D-05-0.216D-05 0.208D-05
 Coeff-Com: -0.337D-04-0.132D-04-0.461D-03-0.940D-05 0.264D-02 0.347D-02
 Coeff-Com: -0.242D-02-0.299D-01-0.377D-02 0.700D-01-0.546D-01-0.200D+00
 Coeff-Com:  0.153D+00 0.106D+01
 Coeff:     -0.267D-07-0.357D-08-0.839D-06-0.111D-05-0.216D-05 0.208D-05
 Coeff:     -0.337D-04-0.132D-04-0.461D-03-0.940D-05 0.264D-02 0.347D-02
 Coeff:     -0.242D-02-0.299D-01-0.377D-02 0.700D-01-0.546D-01-0.200D+00
 Coeff:      0.153D+00 0.106D+01
 Gap=     0.168 Goal=   None    Shift=    0.000
 RMSDP=4.49D-06 MaxDP=2.46D-04 DE=-2.37D-08 OVMax= 1.52D-04

 Cycle  21  Pass 1  IDiag  1:
 Restarting incremental Fock formation.
 E= -3010.61215005754     Delta-E=       -0.000000002834 Rises=F Damp=F
 DIIS: error= 7.40D-07 at cycle  21 NSaved=  20.
 NSaved=20 IEnMin=20 EnMin= -3010.61215005754     IErMin=20 ErrMin= 7.40D-07
 ErrMax= 7.40D-07  0.00D+00 EMaxC= 1.00D-01 BMatC= 5.28D-11 BMatP= 1.51D-10
 IDIUse=1 WtCom= 1.00D+00 WtEn= 0.00D+00
 Coeff-Com:  0.498D-07-0.167D-06-0.205D-05-0.240D-05 0.320D-04 0.153D-04
 Coeff-Com:  0.102D-04-0.460D-03-0.660D-03 0.140D-02 0.305D-02 0.403D-02
 Coeff-Com: -0.232D-01-0.243D-01 0.692D-01 0.706D-01-0.892D-01-0.171D+00
 Coeff-Com:  0.133D+00 0.103D+01
 Coeff:      0.498D-07-0.167D-06-0.205D-05-0.240D-05 0.320D-04 0.153D-04
 Coeff:      0.102D-04-0.460D-03-0.660D-03 0.140D-02 0.305D-02 0.403D-02
 Coeff:     -0.232D-01-0.243D-01 0.692D-01 0.706D-01-0.892D-01-0.171D+00
 Coeff:      0.133D+00 0.103D+01
 Gap=     0.168 Goal=   None    Shift=    0.000
 RMSDP=1.41D-06 MaxDP=1.11D-04 DE=-2.83D-09 OVMax= 2.85D-05

 Cycle  22  Pass 1  IDiag  1:
 RMSU=  1.32D-06    CP:  1.00D+00
 E= -3010.61215005808     Delta-E=       -0.000000000539 Rises=F Damp=F
 DIIS: error= 5.71D-07 at cycle  22 NSaved=  20.
 NSaved=20 IEnMin=20 EnMin= -3010.61215005808     IErMin=20 ErrMin= 5.71D-07
 ErrMax= 5.71D-07  0.00D+00 EMaxC= 1.00D-01 BMatC= 2.91D-11 BMatP= 5.28D-11
 IDIUse=1 WtCom= 1.00D+00 WtEn= 0.00D+00
 Coeff-Com:  0.146D-07-0.350D-06-0.216D-05 0.459D-05-0.339D-05 0.104D-03
 Coeff-Com:  0.130D-03-0.266D-03-0.142D-02-0.137D-02 0.219D-02 0.134D-01
 Coeff-Com:  0.172D-02-0.312D-01 0.212D-01 0.754D-01-0.754D-01-0.396D+00
 Coeff-Com:  0.307D+00 0.108D+01
 Coeff:      0.146D-07-0.350D-06-0.216D-05 0.459D-05-0.339D-05 0.104D-03
 Coeff:      0.130D-03-0.266D-03-0.142D-02-0.137D-02 0.219D-02 0.134D-01
 Coeff:      0.172D-02-0.312D-01 0.212D-01 0.754D-01-0.754D-01-0.396D+00
 Coeff:      0.307D+00 0.108D+01
 Gap=     0.168 Goal=   None    Shift=    0.000
 RMSDP=1.37D-06 MaxDP=9.80D-05 DE=-5.39D-10 OVMax= 2.78D-05

 Cycle  23  Pass 1  IDiag  1:
 RMSU=  5.08D-07    CP:  1.00D+00  1.93D+00
 E= -3010.61215005834     Delta-E=       -0.000000000266 Rises=F Damp=F
 DIIS: error= 3.55D-07 at cycle  23 NSaved=  20.
 NSaved=20 IEnMin=20 EnMin= -3010.61215005834     IErMin=20 ErrMin= 3.55D-07
 ErrMax= 3.55D-07  0.00D+00 EMaxC= 1.00D-01 BMatC= 1.11D-11 BMatP= 2.91D-11
 IDIUse=1 WtCom= 1.00D+00 WtEn= 0.00D+00
 Coeff-Com:  0.106D-05 0.694D-06-0.711D-05-0.221D-04 0.308D-05 0.176D-03
 Coeff-Com:  0.255D-03-0.800D-03-0.169D-02-0.279D-02 0.105D-01 0.119D-01
 Coeff-Com: -0.236D-01-0.235D-01 0.336D-01 0.554D-01-0.122D+00-0.383D+00
 Coeff-Com:  0.128D+00 0.132D+01
 Coeff:      0.106D-05 0.694D-06-0.711D-05-0.221D-04 0.308D-05 0.176D-03
 Coeff:      0.255D-03-0.800D-03-0.169D-02-0.279D-02 0.105D-01 0.119D-01
 Coeff:     -0.236D-01-0.235D-01 0.336D-01 0.554D-01-0.122D+00-0.383D+00
 Coeff:      0.128D+00 0.132D+01
 Gap=     0.168 Goal=   None    Shift=    0.000
 RMSDP=1.08D-06 MaxDP=8.77D-05 DE=-2.66D-10 OVMax= 2.71D-05

 Cycle  24  Pass 1  IDiag  1:
 RMSU=  2.89D-07    CP:  1.00D+00  2.60D+00  1.89D+00
 E= -3010.61215005856     Delta-E=       -0.000000000215 Rises=F Damp=F
 DIIS: error= 1.30D-07 at cycle  24 NSaved=  20.
 NSaved=20 IEnMin=20 EnMin= -3010.61215005856     IErMin=20 ErrMin= 1.30D-07
 ErrMax= 1.30D-07  0.00D+00 EMaxC= 1.00D-01 BMatC= 2.17D-12 BMatP= 1.11D-11
 IDIUse=1 WtCom= 1.00D+00 WtEn= 0.00D+00
 Coeff-Com:  0.354D-06 0.552D-05 0.397D-05-0.356D-04-0.104D-03-0.130D-03
 Coeff-Com:  0.782D-03 0.125D-02-0.902D-03-0.931D-02-0.362D-02 0.241D-01
 Coeff-Com:  0.127D-02-0.444D-01 0.661D-03 0.177D+00 0.117D-01-0.434D+00
 Coeff-Com: -0.362D+00 0.164D+01
 Coeff:      0.354D-06 0.552D-05 0.397D-05-0.356D-04-0.104D-03-0.130D-03
 Coeff:      0.782D-03 0.125D-02-0.902D-03-0.931D-02-0.362D-02 0.241D-01
 Coeff:      0.127D-02-0.444D-01 0.661D-03 0.177D+00 0.117D-01-0.434D+00
 Coeff:     -0.362D+00 0.164D+01
 Gap=     0.168 Goal=   None    Shift=    0.000
 RMSDP=6.49D-07 MaxDP=5.51D-05 DE=-2.15D-10 OVMax= 1.86D-05

 Cycle  25  Pass 1  IDiag  1:
 RMSU=  1.59D-07    CP:  1.00D+00  2.96D+00  2.44D+00  1.78D+00
 E= -3010.61215005860     Delta-E=       -0.000000000041 Rises=F Damp=F
 DIIS: error= 2.97D-08 at cycle  25 NSaved=  20.
 NSaved=20 IEnMin=20 EnMin= -3010.61215005860     IErMin=20 ErrMin= 2.97D-08
 ErrMax= 2.97D-08  0.00D+00 EMaxC= 1.00D-01 BMatC= 1.57D-13 BMatP= 2.17D-12
 IDIUse=1 WtCom= 1.00D+00 WtEn= 0.00D+00
 Coeff-Com:  0.214D-06 0.736D-06 0.861D-06-0.124D-04 0.145D-05-0.217D-04
 Coeff-Com:  0.583D-04 0.312D-03-0.212D-03-0.847D-03 0.154D-03 0.408D-02
 Coeff-Com:  0.166D-02-0.105D-01-0.139D-01 0.591D-01 0.635D-01-0.182D+00
 Coeff-Com: -0.207D+00 0.129D+01
 Coeff:      0.214D-06 0.736D-06 0.861D-06-0.124D-04 0.145D-05-0.217D-04
 Coeff:      0.583D-04 0.312D-03-0.212D-03-0.847D-03 0.154D-03 0.408D-02
 Coeff:      0.166D-02-0.105D-01-0.139D-01 0.591D-01 0.635D-01-0.182D+00
 Coeff:     -0.207D+00 0.129D+01
 Gap=     0.168 Goal=   None    Shift=    0.000
 RMSDP=1.56D-07 MaxDP=1.53D-05 DE=-4.09D-11 OVMax= 4.27D-06

 Cycle  26  Pass 1  IDiag  1:
 RMSU=  2.06D-08    CP:  1.00D+00  3.00D+00  2.54D+00  2.07D+00  1.48D+00
 E= -3010.61215005859     Delta-E=        0.000000000014 Rises=F Damp=F
 DIIS: error= 8.73D-09 at cycle  26 NSaved=  20.
 NSaved=20 IEnMin=19 EnMin= -3010.61215005860     IErMin=20 ErrMin= 8.73D-09
 ErrMax= 8.73D-09  0.00D+00 EMaxC= 1.00D-01 BMatC= 1.82D-14 BMatP= 1.57D-13
 IDIUse=1 WtCom= 1.00D+00 WtEn= 0.00D+00
 Coeff-Com:  0.930D-07 0.299D-05 0.280D-05-0.580D-06-0.565D-04-0.377D-04
 Coeff-Com:  0.173D-03 0.540D-03 0.501D-04-0.163D-02 0.587D-03 0.359D-02
 Coeff-Com: -0.122D-02-0.172D-01 0.741D-02 0.423D-01 0.196D-01-0.167D+00
 Coeff-Com:  0.545D-01 0.106D+01
 Coeff:      0.930D-07 0.299D-05 0.280D-05-0.580D-06-0.565D-04-0.377D-04
 Coeff:      0.173D-03 0.540D-03 0.501D-04-0.163D-02 0.587D-03 0.359D-02
 Coeff:     -0.122D-02-0.172D-01 0.741D-02 0.423D-01 0.196D-01-0.167D+00
 Coeff:      0.545D-01 0.106D+01
 Gap=     0.168 Goal=   None    Shift=    0.000
 RMSDP=2.43D-08 MaxDP=1.99D-06 DE= 1.36D-11 OVMax= 4.73D-07

 Cycle  27  Pass 1  IDiag  1:
 RMSU=  6.89D-09    CP:  1.00D+00  3.00D+00  2.55D+00  2.12D+00  1.57D+00
                    CP:  1.37D+00
 E= -3010.61215005857     Delta-E=        0.000000000015 Rises=F Damp=F
 DIIS: error= 4.94D-09 at cycle  27 NSaved=  20.
 NSaved=20 IEnMin=18 EnMin= -3010.61215005860     IErMin=20 ErrMin= 4.94D-09
 ErrMax= 4.94D-09  0.00D+00 EMaxC= 1.00D-01 BMatC= 4.62D-15 BMatP= 1.82D-14
 IDIUse=1 WtCom= 1.00D+00 WtEn= 0.00D+00
 Large coefficients: NSaved= 20 BigCof=    0.00 CofMax=   10.00 Det=-6.88D-15
 Inversion failed.  Reducing to 19 matrices.
 Large coefficients: NSaved= 19 BigCof=    0.00 CofMax=   10.00 Det=-7.28D-15
 Inversion failed.  Reducing to 18 matrices.
 Large coefficients: NSaved= 18 BigCof=    0.00 CofMax=   10.00 Det=-7.75D-15
 Inversion failed.  Reducing to 17 matrices.
 Large coefficients: NSaved= 17 BigCof=    0.00 CofMax=   10.00 Det=-7.80D-15
 Inversion failed.  Reducing to 16 matrices.
 Large coefficients: NSaved= 16 BigCof=    0.00 CofMax=   10.00 Det=-8.40D-15
 Inversion failed.  Reducing to 15 matrices.
 Coeff-Com: -0.328D-04-0.252D-04 0.193D-03 0.604D-04-0.503D-03-0.179D-03
 Coeff-Com:  0.108D-02 0.367D-03-0.480D-02-0.899D-02 0.246D-01 0.290D-01
 Coeff-Com: -0.190D+00 0.496D-01 0.110D+01
 Coeff:     -0.328D-04-0.252D-04 0.193D-03 0.604D-04-0.503D-03-0.179D-03
 Coeff:      0.108D-02 0.367D-03-0.480D-02-0.899D-02 0.246D-01 0.290D-01
 Coeff:     -0.190D+00 0.496D-01 0.110D+01
 Gap=     0.168 Goal=   None    Shift=    0.000
 RMSDP=7.10D-09 MaxDP=2.45D-07 DE= 1.50D-11 OVMax= 2.33D-07

 SCF Done:  E(RwB97XD) =  -3010.61215006     A.U. after   27 cycles
            NFock= 27  Conv=0.71D-08     -V/T= 2.0016
 KE= 3.005796362995D+03 PE=-8.685620523304D+03 EE= 1.908797479578D+03
 Leave Link  502 at Thu May  2 14:26:19 2024, MaxMem=   134217728 cpu:            1664.9 elap:            1666.9
 (Enter /software/gaussian/g16-c01/sse4/g16/l601.exe)
 Copying SCF densities to generalized density rwf, IOpCl= 0 IROHF=0.

 **********************************************************************

            Population analysis using the SCF Density.

 **********************************************************************

 Alpha  occ. eigenvalues -- -483.21419 -62.76400 -56.56114 -56.55530 -56.55501
 Alpha  occ. eigenvalues --  -19.28924 -19.28552 -14.68452 -10.49343 -10.49090
 Alpha  occ. eigenvalues --  -10.48893 -10.47900 -10.46563 -10.42909  -8.92175
 Alpha  occ. eigenvalues --   -6.74899  -6.72986  -6.72895  -2.84791  -2.84304
 Alpha  occ. eigenvalues --   -2.84231  -2.82701  -2.82699  -1.32478  -1.15226
 Alpha  occ. eigenvalues --   -1.13256  -1.03878  -1.02530  -0.94929  -0.89205
 Alpha  occ. eigenvalues --   -0.86423  -0.80935  -0.75667  -0.70950  -0.69389
 Alpha  occ. eigenvalues --   -0.66986  -0.65894  -0.64700  -0.61460  -0.59900
 Alpha  occ. eigenvalues --   -0.59419  -0.56974  -0.54848  -0.49788  -0.45947
 Alpha  occ. eigenvalues --   -0.45138  -0.39308  -0.37629  -0.37526
 Alpha virt. eigenvalues --   -0.20755  -0.15844  -0.09972  -0.09787  -0.06654
 Alpha virt. eigenvalues --   -0.05728  -0.03827  -0.00746  -0.00100   0.00099
 Alpha virt. eigenvalues --    0.01433   0.02915   0.04556   0.04988   0.06661
 Alpha virt. eigenvalues --    0.06825   0.08518   0.09315   0.09853   0.10732
 Alpha virt. eigenvalues --    0.11597   0.12205   0.13065   0.14624   0.15277
 Alpha virt. eigenvalues --    0.16414   0.16862   0.17534   0.17939   0.18649
 Alpha virt. eigenvalues --    0.20222   0.20650   0.21638   0.22036   0.23335
 Alpha virt. eigenvalues --    0.24554   0.25283   0.26394   0.27564   0.28666
 Alpha virt. eigenvalues --    0.29262   0.30352   0.31864   0.32792   0.34020
 Alpha virt. eigenvalues --    0.36442   0.37072   0.38097   0.39138   0.39948
 Alpha virt. eigenvalues --    0.41042   0.41355   0.43280   0.44001   0.44312
 Alpha virt. eigenvalues --    0.45462   0.45848   0.47077   0.47550   0.48689
 Alpha virt. eigenvalues --    0.49222   0.50693   0.51858   0.52825   0.53502
 Alpha virt. eigenvalues --    0.54711   0.55144   0.56917   0.57598   0.59945
 Alpha virt. eigenvalues --    0.60349   0.61518   0.62510   0.62891   0.63837
 Alpha virt. eigenvalues --    0.65105   0.66834   0.67524   0.70302   0.70890
 Alpha virt. eigenvalues --    0.71811   0.73268   0.73818   0.75752   0.77603
 Alpha virt. eigenvalues --    0.77969   0.79175   0.81197   0.82636   0.84560
 Alpha virt. eigenvalues --    0.87351   0.90282   0.92726   0.94446   0.95179
 Alpha virt. eigenvalues --    0.97546   1.00572   1.03146   1.08257   1.11533
 Alpha virt. eigenvalues --    1.13018   1.14077   1.15450   1.17501   1.21436
 Alpha virt. eigenvalues --    1.24321   1.27682   1.30308   1.31528   1.35451
 Alpha virt. eigenvalues --    1.35838   1.39329   1.41558   1.43727   1.45945
 Alpha virt. eigenvalues --    1.46452   1.49542   1.52838   1.65086   1.66248
 Alpha virt. eigenvalues --    1.69538   1.69722   1.73595   1.75096   1.76118
 Alpha virt. eigenvalues --    1.81532   1.82953   1.84020   1.88559   1.89525
 Alpha virt. eigenvalues --    1.90065   1.97458   1.99454   2.05626   2.06844
 Alpha virt. eigenvalues --    2.10387   2.13229   2.13984   2.18401   2.19435
 Alpha virt. eigenvalues --    2.22693   2.24139   2.31050   2.32607   2.38335
 Alpha virt. eigenvalues --    2.42208   2.51583   2.55195   2.56610   2.61544
 Alpha virt. eigenvalues --    2.67307   2.72810   2.74987   2.77945   2.84312
 Alpha virt. eigenvalues --    2.89343   2.91716   2.92730   2.93221   2.98689
 Alpha virt. eigenvalues --    3.02897   3.10071   3.15562   3.18031   3.19050
 Alpha virt. eigenvalues --    3.22484   3.23689   3.28441   3.36288   3.40310
 Alpha virt. eigenvalues --    3.44882   3.50426   3.54586   3.61308   3.69428
 Alpha virt. eigenvalues --    3.72537   3.86260   3.91141   3.93425   3.97191
 Alpha virt. eigenvalues --    4.20101   4.20952   4.29545   4.33634   4.53510
 Alpha virt. eigenvalues --    4.62974   4.64299   4.75512   5.11872   5.14910
 Alpha virt. eigenvalues --    5.23638   5.28190   5.79638   6.33325   6.78091
 Alpha virt. eigenvalues --    7.58999   7.61298   7.71341  23.30870  23.70377
 Alpha virt. eigenvalues --   23.81866  23.86460  24.03004  24.12229  35.48693
 Alpha virt. eigenvalues --   48.03987  50.02808  50.11472 289.91580 289.93910
 Alpha virt. eigenvalues --  290.065221021.05104
          Condensed to atoms (all electrons):
               1          2          3          4          5          6
     1  C   11.809278  -4.814819   2.046974  -1.254739   0.268701   0.092386
     2  C   -4.814819  23.124950  -7.641175   0.177680   0.074008   0.106211
     3  C    2.046974  -7.641175  29.549787  -2.245103   0.042356   0.124426
     4  C   -1.254739   0.177680  -2.245103   8.490915  -0.046394  -0.005865
     5  H    0.268701   0.074008   0.042356  -0.046394   0.415273  -0.001669
     6  H    0.092386   0.106211   0.124426  -0.005865  -0.001669   0.280250
     7  H    0.098046  -0.088524   0.057275   0.234714  -0.005740  -0.000003
     8  N   -0.363717   0.271269  -2.310850   0.090000  -0.000471  -0.034206
     9  O   -0.027109   0.204183   0.038967  -0.062259  -0.000047  -0.003025
    10  O    0.466626  -0.272645  -0.209088  -0.035054   0.000200   0.035220
    11  C    2.288128  -0.252297   3.787713  -2.164505  -0.040567   0.006712
    12  H   -0.021464  -0.013155   0.078594  -0.020704  -0.000005  -0.000012
    13  C   -4.456493  -4.802747 -17.200085   3.099222   0.028690   0.012487
    14  H   -0.006949  -0.017664  -0.052831   0.002707  -0.000028  -0.000017
    15  Br  -0.030389  -0.163625  -0.176543  -0.008687  -0.000099  -0.000227
               7          8          9         10         11         12
     1  C    0.098046  -0.363717  -0.027109   0.466626   2.288128  -0.021464
     2  C   -0.088524   0.271269   0.204183  -0.272645  -0.252297  -0.013155
     3  C    0.057275  -2.310850   0.038967  -0.209088   3.787713   0.078594
     4  C    0.234714   0.090000  -0.062259  -0.035054  -2.164505  -0.020704
     5  H   -0.005740  -0.000471  -0.000047   0.000200  -0.040567  -0.000005
     6  H   -0.000003  -0.034206  -0.003025   0.035220   0.006712  -0.000012
     7  H    0.513569  -0.000315   0.000034  -0.000006   0.100685  -0.004565
     8  N   -0.000315   8.524670  -0.282792  -0.070645  -0.905484   0.001880
     9  O    0.000034  -0.282792   7.952326   0.038200   0.556232   0.000043
    10  O   -0.000006  -0.070645   0.038200   7.843735  -0.012854  -0.000018
    11  C    0.100685  -0.905484   0.556232  -0.012854  14.095479   0.183131
    12  H   -0.004565   0.001880   0.000043  -0.000018   0.183131   0.423622
    13  C   -0.079434   2.182663  -0.583646   0.003021 -11.537161   0.106574
    14  H   -0.000041  -0.028694   0.023075  -0.002446   0.148436  -0.006127
    15  Br  -0.000002   0.166674  -0.056717   0.000829   0.144062  -0.010521
              13         14         15
     1  C   -4.456493  -0.006949  -0.030389
     2  C   -4.802747  -0.017664  -0.163625
     3  C  -17.200085  -0.052831  -0.176543
     4  C    3.099222   0.002707  -0.008687
     5  H    0.028690  -0.000028  -0.000099
     6  H    0.012487  -0.000017  -0.000227
     7  H   -0.079434  -0.000041  -0.000002
     8  N    2.182663  -0.028694   0.166674
     9  O   -0.583646   0.023075  -0.056717
    10  O    0.003021  -0.002446   0.000829
    11  C  -11.537161   0.148436   0.144062
    12  H    0.106574  -0.006127  -0.010521
    13  C   39.171403   0.237695   0.285154
    14  H    0.237695   0.284227  -0.028408
    15  Br   0.285154  -0.028408  34.619694
 Mulliken charges:
               1
     1  C   -0.094460
     2  C    0.108350
     3  C    0.109584
     4  C   -0.251929
     5  H    0.265792
     6  H    0.387331
     7  H    0.174306
     8  N   -0.239981
     9  O    0.202536
    10  O    0.214924
    11  C   -0.397708
    12  H    0.282728
    13  C   -0.467342
    14  H    0.447065
    15  Br   0.258805
 Sum of Mulliken charges =   1.00000
 Mulliken charges with hydrogens summed into heavy atoms:
               1
     1  C    0.171332
     2  C    0.495682
     3  C    0.109584
     4  C   -0.077623
     8  N   -0.239981
     9  O    0.202536
    10  O    0.214924
    11  C   -0.114980
    13  C   -0.020277
    15  Br   0.258805
 Electronic spatial extent (au):  <R**2>=           3921.2515
 Charge=              1.0000 electrons
 Dipole moment (field-independent basis, Debye):
    X=             11.4226    Y=             -1.3000    Z=             -1.1699  Tot=             11.5557
 Quadrupole moment (field-independent basis, Debye-Ang):
   XX=            -35.3019   YY=            -50.8639   ZZ=            -61.5354
   XY=             -4.6966   XZ=             -4.8628   YZ=              3.4563
 Traceless Quadrupole moment (field-independent basis, Debye-Ang):
   XX=             13.9318   YY=             -1.6302   ZZ=            -12.3016
   XY=             -4.6966   XZ=             -4.8628   YZ=              3.4563
 Octapole moment (field-independent basis, Debye-Ang**2):
  XXX=           -347.2025  YYY=             89.1557  ZZZ=             80.0950  XYY=           -116.6744
  XXY=             20.2088  XXZ=             17.8733  XZZ=           -121.7915  YZZ=             14.4750
  YYZ=             23.3377  XYZ=             12.9359
 Hexadecapole moment (field-independent basis, Debye-Ang**3):
 XXXX=          -2643.3808 YYYY=           -702.5552 ZZZZ=           -389.8309 XXXY=            173.5872
 XXXZ=            160.8326 YYYX=            172.0163 YYYZ=           -165.6407 ZZZX=            152.2102
 ZZZY=           -138.0219 XXYY=           -548.0289 XXZZ=           -488.5113 YYZZ=           -166.4703
 XXYZ=            -24.7122 YYXZ=             37.2369 ZZXY=             16.1088
 N-N= 7.604145306731D+02 E-N=-8.685620523263D+03  KE= 3.005796362995D+03
 No NMR shielding tensors so no spin-rotation constants.
 Leave Link  601 at Thu May  2 14:26:27 2024, MaxMem=   134217728 cpu:               7.4 elap:               7.4
 (Enter /software/gaussian/g16-c01/sse4/g16/l9999.exe)
 Unable to Open any file for archive entry.
 1\1\GINC-BHX0002\SP\RwB97XD\6-311+G(d)\C6H5Br1N1O2(1+)\BWEIGHT\02-May-
 2024\0\\#P wB97XD/6-311+G* NoSymm #P Field=X-291\\TitleMe\\1,1\C,0,0.5
 193,1.233,-0.0319\C,0,1.9445,1.2692,-0.0367\C,0,2.6204,0.0928,-0.025\C
 ,0,-0.196,0.0301,0.001\H,0,-0.0207,2.1742,-0.0434\H,0,2.4828,2.2089,-0
 .0361\H,0,-1.2777,0.0399,0.0117\N,0,4.0921,0.0959,0.0366\O,0,4.6393,-1
 .0217,0.1446\O,0,4.6649,1.1984,-0.0233\C,0,0.4943,-1.1671,0.021\H,0,-0
 .0325,-2.1149,0.0545\C,0,1.9629,-1.2165,-0.0211\H,0,2.4436,-1.9631,0.6
 151\Br,0,2.173,-1.9491,-1.9062\\Version=ES64L-G16RevC.01\HF=-3010.6121
 501\RMSD=7.102e-09\Dipole=0.164768,0.7166609,0.7889352\Quadrupole=10.3
 579849,-1.2120218,-9.1459631,-3.4917699,-3.6153979,2.5697085\PG=C01 [X
 (C6H5Br1N1O2)]\\@
 The archive entry for this job was punched.


 My opinions may have changed, but not the fact that I am right.
                       -- Ashleigh Brilliant
 Job cpu time:       0 days  0 hours 28 minutes 54.8 seconds.
 Elapsed time:       0 days  0 hours 28 minutes 57.4 seconds.
 File lengths (MBytes):  RWF=     40 Int=      0 D2E=      0 Chk=     32 Scr=      1
 Normal termination of Gaussian 16 at Thu May  2 14:26:27 2024.
