 Entering Gaussian System, Link 0=g16
 Initial command:
 /software/gaussian/g16-a03/l1.exe "/local_scratch/6484970/Gau-25171.inp" -scrdir="/local_scratch/6484970/"
 Entering Link 1 = /software/gaussian/g16-a03/l1.exe PID=     25212.
  
 Copyright (c) 1988,1990,1992,1993,1995,1998,2003,2009,2016,
            Gaussian, Inc.  All Rights Reserved.
  
 This is part of the Gaussian(R) 16 program.  It is based on
 the Gaussian(R) 09 system (copyright 2009, Gaussian, Inc.),
 the Gaussian(R) 03 system (copyright 2003, Gaussian, Inc.),
 the Gaussian(R) 98 system (copyright 1998, Gaussian, Inc.),
 the Gaussian(R) 94 system (copyright 1995, Gaussian, Inc.),
 the Gaussian 92(TM) system (copyright 1992, Gaussian, Inc.),
 the Gaussian 90(TM) system (copyright 1990, Gaussian, Inc.),
 the Gaussian 88(TM) system (copyright 1988, Gaussian, Inc.),
 the Gaussian 86(TM) system (copyright 1986, Carnegie Mellon
 University), and the Gaussian 82(TM) system (copyright 1983,
 Carnegie Mellon University). Gaussian is a federally registered
 trademark of Gaussian, Inc.
  
 This software contains proprietary and confidential information,
 including trade secrets, belonging to Gaussian, Inc.
  
 This software is provided under written license and may be
 used, copied, transmitted, or stored only in accord with that
 written license.
  
 The following legend is applicable only to US Government
 contracts under FAR:
  
                    RESTRICTED RIGHTS LEGEND
  
 Use, reproduction and disclosure by the US Government is
 subject to restrictions as set forth in subparagraphs (a)
 and (c) of the Commercial Computer Software - Restricted
 Rights clause in FAR 52.227-19.
  
 Gaussian, Inc.
 340 Quinnipiac St., Bldg. 40, Wallingford CT 06492
  
  
 ---------------------------------------------------------------
 Warning -- This program may not be used in any manner that
 competes with the business of Gaussian, Inc. or will provide
 assistance to any competitor of Gaussian, Inc.  The licensee
 of this program is prohibited from giving any competitor of
 Gaussian, Inc. access to this program.  By using this program,
 the user acknowledges that Gaussian, Inc. is engaged in the
 business of creating and licensing software in the field of
 computational chemistry and represents and warrants to the
 licensee that it is not a competitor of Gaussian, Inc. and that
 it will not use this program in any manner prohibited above.
 ---------------------------------------------------------------
  

 Cite this work as:
 Gaussian 16, Revision A.03,
 M. J. Frisch, G. W. Trucks, H. B. Schlegel, G. E. Scuseria, 
 M. A. Robb, J. R. Cheeseman, G. Scalmani, V. Barone, 
 G. A. Petersson, H. Nakatsuji, X. Li, M. Caricato, A. V. Marenich, 
 J. Bloino, B. G. Janesko, R. Gomperts, B. Mennucci, H. P. Hratchian, 
 J. V. Ortiz, A. F. Izmaylov, J. L. Sonnenberg, D. Williams-Young, 
 F. Ding, F. Lipparini, F. Egidi, J. Goings, B. Peng, A. Petrone, 
 T. Henderson, D. Ranasinghe, V. G. Zakrzewski, J. Gao, N. Rega, 
 G. Zheng, W. Liang, M. Hada, M. Ehara, K. Toyota, R. Fukuda, 
 J. Hasegawa, M. Ishida, T. Nakajima, Y. Honda, O. Kitao, H. Nakai, 
 T. Vreven, K. Throssell, J. A. Montgomery, Jr., J. E. Peralta, 
 F. Ogliaro, M. J. Bearpark, J. J. Heyd, E. N. Brothers, K. N. Kudin, 
 V. N. Staroverov, T. A. Keith, R. Kobayashi, J. Normand, 
 K. Raghavachari, A. P. Rendell, J. C. Burant, S. S. Iyengar, 
 J. Tomasi, M. Cossi, J. M. Millam, M. Klene, C. Adamo, R. Cammi, 
 J. W. Ochterski, R. L. Martin, K. Morokuma, O. Farkas, 
 J. B. Foresman, and D. J. Fox, Gaussian, Inc., Wallingford CT, 2016.
 
 ******************************************
 Gaussian 16:  ES64L-G16RevA.03 25-Dec-2016
                17-Sep-2021 
 ******************************************
 %chk=geometry.chk
 %mem=2GB
 %nprocshared=1
 Will use up to    1 processors via shared memory.
 --------------------------------------------------------------------
 #p B3LYP/6-311+G** #p TD=(singlets,nstates=30)IOp(6/8=3) IOp(9/40=4)
 --------------------------------------------------------------------
 1/38=1,172=1/1;
 2/12=2,17=6,18=5,40=1/2;
 3/5=4,6=6,7=111,11=9,25=1,30=1,74=-5/1,2,3,8;
 4//1;
 5/5=2,38=5/2;
 8/6=1,10=2,108=30/1;
 9/40=4,41=30,42=1,48=1,70=2/14;
 6/7=2,8=3,9=2,10=2/1;
 99/5=1,9=1/99;
 Leave Link    1 at Fri Sep 17 10:52:36 2021, MaxMem=   268435456 cpu:               0.0 elap:               0.2
 (Enter /software/gaussian/g16-a03/l101.exe)
 --------------------------------
 Scan Step 239, Bond Length 1.695
 --------------------------------
 Symbolic Z-matrix:
 Charge =  0 Multiplicity = 1
 C                     0.        0.       -0.52736 
 H                     0.        0.93726  -1.11871 
 H                     0.       -0.93726  -1.11871 
 O                     0.        0.        1.16764 
 
 ITRead=  0  0  0  0
 MicOpt= -1 -1 -1 -1
 NAtoms=      4 NQM=        4 NQMF=       0 NMMI=      0 NMMIF=      0
                NMic=       0 NMicF=      0.
                    Isotopes and Nuclear Properties:
 (Nuclear quadrupole moments (NQMom) in fm**2, nuclear magnetic moments (NMagM)
  in nuclear magnetons)

  Atom         1           2           3           4
 IAtWgt=          12           1           1          16
 AtmWgt=  12.0000000   1.0078250   1.0078250  15.9949146
 NucSpn=           0           1           1           0
 AtZEff=  -0.0000000  -0.0000000  -0.0000000  -0.0000000
 NQMom=    0.0000000   0.0000000   0.0000000   0.0000000
 NMagM=    0.0000000   2.7928460   2.7928460   0.0000000
 AtZNuc=   6.0000000   1.0000000   1.0000000   8.0000000
 Leave Link  101 at Fri Sep 17 10:52:37 2021, MaxMem=   268435456 cpu:               0.1 elap:               0.1
 (Enter /software/gaussian/g16-a03/l202.exe)
                          Input orientation:                          
 ---------------------------------------------------------------------
 Center     Atomic      Atomic             Coordinates (Angstroms)
 Number     Number       Type             X           Y           Z
 ---------------------------------------------------------------------
      1          6           0        0.000000    0.000000   -0.527360
      2          1           0        0.000000    0.937260   -1.118710
      3          1           0        0.000000   -0.937260   -1.118710
      4          8           0        0.000000    0.000000    1.167640
 ---------------------------------------------------------------------
                    Distance matrix (angstroms):
                    1          2          3          4
     1  C    0.000000
     2  H    1.108220   0.000000
     3  H    1.108220   1.874520   0.000000
     4  O    1.695000   2.471002   2.471002   0.000000
 Stoichiometry    CH2O
 Framework group  C2V[C2(CO),SGV(H2)]
 Deg. of freedom     3
 Full point group                 C2V     NOp   4
 Largest Abelian subgroup         C2V     NOp   4
 Largest concise Abelian subgroup C2      NOp   2
                         Standard orientation:                         
 ---------------------------------------------------------------------
 Center     Atomic      Atomic             Coordinates (Angstroms)
 Number     Number       Type             X           Y           Z
 ---------------------------------------------------------------------
      1          6           0        0.000000    0.000000   -0.773581
      2          1           0        0.000000    0.937260   -1.364931
      3          1           0       -0.000000   -0.937260   -1.364931
      4          8           0        0.000000   -0.000000    0.921419
 ---------------------------------------------------------------------
 Rotational constants (GHZ):         285.4183527          20.8209261          19.4053306
 Leave Link  202 at Fri Sep 17 10:52:37 2021, MaxMem=   268435456 cpu:               0.0 elap:               0.0
 (Enter /software/gaussian/g16-a03/l301.exe)
 Standard basis: 6-311+G(d,p) (5D, 7F)
 Ernie: Thresh=  0.10000D-02 Tol=  0.10000D-05 Strict=F.
 There are    29 symmetry adapted cartesian basis functions of A1  symmetry.
 There are     3 symmetry adapted cartesian basis functions of A2  symmetry.
 There are    11 symmetry adapted cartesian basis functions of B1  symmetry.
 There are    15 symmetry adapted cartesian basis functions of B2  symmetry.
 There are    27 symmetry adapted basis functions of A1  symmetry.
 There are     3 symmetry adapted basis functions of A2  symmetry.
 There are    11 symmetry adapted basis functions of B1  symmetry.
 There are    15 symmetry adapted basis functions of B2  symmetry.
    56 basis functions,    88 primitive gaussians,    58 cartesian basis functions
     8 alpha electrons        8 beta electrons
       nuclear repulsion energy        24.4243519418 Hartrees.
 IExCor=  402 DFT=T Ex+Corr=B3LYP ExCW=0 ScaHFX=  0.200000
 ScaDFX=  0.800000  0.720000  1.000000  0.810000 ScalE2=  1.000000  1.000000
 IRadAn=      5 IRanWt=     -1 IRanGd=            0 ICorTp=0 IEmpDi=  4
 NAtoms=    4 NActive=    4 NUniq=    3 SFac= 1.78D+00 NAtFMM=   60 NAOKFM=F Big=F
 Integral buffers will be    131072 words long.
 Regular integral format.
 Two-electron integral symmetry is turned on.
 Leave Link  301 at Fri Sep 17 10:52:37 2021, MaxMem=   268435456 cpu:               0.1 elap:               0.1
 (Enter /software/gaussian/g16-a03/l302.exe)
 NPDir=0 NMtPBC=     1 NCelOv=     1 NCel=       1 NClECP=     1 NCelD=      1
         NCelK=      1 NCelE2=     1 NClLst=     1 CellRange=     0.0.
 One-electron integrals computed using PRISM.
 One-electron integral symmetry used in STVInt
 NBasis=    56 RedAO= T EigKep=  1.11D-02  NBF=    27     3    11    15
 NBsUse=    56 1.00D-06 EigRej= -1.00D+00 NBFU=    27     3    11    15
 Precomputing XC quadrature grid using
 IXCGrd= 4 IRadAn=           5 IRanWt=          -1 IRanGd=           0 AccXCQ= 0.00D+00.
 Generated NRdTot=       0 NPtTot=           0 NUsed=           0 NTot=          32
 NSgBfM=    58    58    58    58    58 MxSgAt=     4 MxSgA2=     4.
 Leave Link  302 at Fri Sep 17 10:52:37 2021, MaxMem=   268435456 cpu:               0.1 elap:               0.1
 (Enter /software/gaussian/g16-a03/l303.exe)
 DipDrv:  MaxL=1.
 Leave Link  303 at Fri Sep 17 10:52:37 2021, MaxMem=   268435456 cpu:               0.0 elap:               0.0
 (Enter /software/gaussian/g16-a03/l308.exe)
 Leave Link  308 at Fri Sep 17 10:52:37 2021, MaxMem=   268435456 cpu:               0.0 elap:               0.0
 (Enter /software/gaussian/g16-a03/l401.exe)
 ExpMin= 4.38D-02 ExpMax= 8.59D+03 ExpMxC= 1.30D+03 IAcc=3 IRadAn=         5 AccDes= 0.00D+00
 Harris functional with IExCor=  402 and IRadAn=       5 diagonalized for initial guess.
 HarFok:  IExCor=  402 AccDes= 0.00D+00 IRadAn=         5 IDoV= 1 UseB2=F ITyADJ=14
 ICtDFT=  3500011 ScaDFX=  1.000000  1.000000  1.000000  1.000000
 FoFCou: FMM=F IPFlag=           0 FMFlag=      100000 FMFlg1=           0
         NFxFlg=           0 DoJE=T BraDBF=F KetDBF=T FulRan=T
         wScrn=  0.000000 ICntrl=       500 IOpCl=  0 I1Cent=   200000004 NGrid=           0
         NMat0=    1 NMatS0=      1 NMatT0=    0 NMatD0=    1 NMtDS0=    0 NMtDT0=    0
 Petite list used in FoFCou.
 Harris En= -114.421373744635    
 JPrj=0 DoOrth=F DoCkMO=F.
 Initial guess orbital symmetries:
       Occupied  (A1) (A1) (A1) (A1) (B2) (A1) (B1) (B2)
       Virtual   (B1) (A1) (A1) (B2) (A1) (B1) (A1) (B2) (A1) (B1)
                 (B2) (A1) (B2) (A1) (B1) (A1) (B2) (A1) (B1) (A2)
                 (B2) (A1) (B1) (A1) (B2) (A1) (A1) (B2) (B1) (A2)
                 (A1) (B2) (A1) (B2) (A1) (B1) (A1) (A2) (A1) (B1)
                 (B2) (A1) (B2) (B1) (B2) (A1) (A1) (A1)
 The electronic state of the initial guess is 1-A1.
 Leave Link  401 at Fri Sep 17 10:52:37 2021, MaxMem=   268435456 cpu:               0.3 elap:               0.3
 (Enter /software/gaussian/g16-a03/l502.exe)
 Keep R1 ints in memory in symmetry-blocked form, NReq=2159901.
 FoFCou: FMM=F IPFlag=           0 FMFlag=           0 FMFlg1=           0
         NFxFlg=           0 DoJE=F BraDBF=F KetDBF=F FulRan=T
         wScrn=  0.000000 ICntrl=       600 IOpCl=  0 I1Cent=           0 NGrid=           0
         NMat0=    1 NMatS0=   1596 NMatT0=    0 NMatD0=    1 NMtDS0=    0 NMtDT0=    0
 Petite list used in FoFCou.
 Closed shell SCF:
 Using DIIS extrapolation, IDIIS=  1040.
 NGot=   268435456 LenX=   268074392 LenY=   268070587
 Requested convergence on RMS density matrix=1.00D-08 within 128 cycles.
 Requested convergence on MAX density matrix=1.00D-06.
 Requested convergence on             energy=1.00D-06.
 No special actions if energy rises.

 Cycle   1  Pass 1  IDiag  1:
 E= -114.275382768085    
 DIIS: error= 6.92D-02 at cycle   1 NSaved=   1.
 NSaved= 1 IEnMin= 1 EnMin= -114.275382768085     IErMin= 1 ErrMin= 6.92D-02
 ErrMax= 6.92D-02  0.00D+00 EMaxC= 1.00D-01 BMatC= 1.28D-01 BMatP= 1.28D-01
 IDIUse=3 WtCom= 3.08D-01 WtEn= 6.92D-01
 Coeff-Com:  0.100D+01
 Coeff-En:   0.100D+01
 Coeff:      0.100D+01
 Gap=     0.143 Goal=   None    Shift=    0.000
 GapD=    0.143 DampG=1.000 DampE=0.500 DampFc=0.5000 IDamp=-1.
 Damping current iteration by 5.00D-01
 RMSDP=2.01D-02 MaxDP=1.74D-01              OVMax= 4.02D-01

 Cycle   2  Pass 1  IDiag  1:
 E= -113.982377034134     Delta-E=        0.293005733951 Rises=F Damp=T
 DIIS: error= 8.79D-02 at cycle   2 NSaved=   2.
 NSaved= 2 IEnMin= 1 EnMin= -114.275382768085     IErMin= 1 ErrMin= 6.92D-02
 ErrMax= 8.79D-02  0.00D+00 EMaxC= 1.00D-01 BMatC= 2.58D-01 BMatP= 1.28D-01
 IDIUse=2 WtCom= 0.00D+00 WtEn= 1.00D+00
 Coeff-En:   0.738D+00 0.262D+00
 Coeff:      0.738D+00 0.262D+00
 Gap=     0.046 Goal=   None    Shift=    0.000
 RMSDP=5.05D-03 MaxDP=6.38D-02 DE= 2.93D-01 OVMax= 3.87D-01

 Cycle   3  Pass 1  IDiag  1:
 E= -114.071788871342     Delta-E=       -0.089411837208 Rises=F Damp=F
 DIIS: error= 1.39D-01 at cycle   3 NSaved=   3.
 NSaved= 3 IEnMin= 1 EnMin= -114.275382768085     IErMin= 1 ErrMin= 6.92D-02
 ErrMax= 1.39D-01  0.00D+00 EMaxC= 1.00D-01 BMatC= 3.54D-01 BMatP= 1.28D-01
 IDIUse=2 WtCom= 0.00D+00 WtEn= 1.00D+00
 Coeff-En:   0.651D+00 0.000D+00 0.349D+00
 Coeff:      0.651D+00 0.000D+00 0.349D+00
 Gap=     0.109 Goal=   None    Shift=    0.000
 RMSDP=4.48D-03 MaxDP=5.58D-02 DE=-8.94D-02 OVMax= 2.67D-01

 Cycle   4  Pass 1  IDiag  1:
 E= -114.386433104156     Delta-E=       -0.314644232814 Rises=F Damp=F
 DIIS: error= 1.88D-02 at cycle   4 NSaved=   4.
 NSaved= 4 IEnMin= 4 EnMin= -114.386433104156     IErMin= 4 ErrMin= 1.88D-02
 ErrMax= 1.88D-02  0.00D+00 EMaxC= 1.00D-01 BMatC= 8.22D-03 BMatP= 1.28D-01
 IDIUse=3 WtCom= 8.12D-01 WtEn= 1.88D-01
 Coeff-Com:  0.142D+00 0.293D-01-0.760D-01 0.905D+00
 Coeff-En:   0.102D+00 0.000D+00 0.000D+00 0.898D+00
 Coeff:      0.135D+00 0.238D-01-0.617D-01 0.903D+00
 Gap=     0.131 Goal=   None    Shift=    0.000
 RMSDP=9.67D-04 MaxDP=1.18D-02 DE=-3.15D-01 OVMax= 4.51D-02

 Cycle   5  Pass 1  IDiag  1:
 E= -114.392657243133     Delta-E=       -0.006224138977 Rises=F Damp=F
 DIIS: error= 3.04D-03 at cycle   5 NSaved=   5.
 NSaved= 5 IEnMin= 5 EnMin= -114.392657243133     IErMin= 5 ErrMin= 3.04D-03
 ErrMax= 3.04D-03  0.00D+00 EMaxC= 1.00D-01 BMatC= 3.37D-04 BMatP= 8.22D-03
 IDIUse=3 WtCom= 9.70D-01 WtEn= 3.04D-02
 Coeff-Com:  0.165D-01-0.192D-02-0.188D-01 0.319D+00 0.686D+00
 Coeff-En:   0.000D+00 0.000D+00 0.000D+00 0.594D-01 0.941D+00
 Coeff:      0.160D-01-0.186D-02-0.182D-01 0.311D+00 0.693D+00
 Gap=     0.130 Goal=   None    Shift=    0.000
 RMSDP=2.01D-04 MaxDP=2.86D-03 DE=-6.22D-03 OVMax= 1.02D-02

 Cycle   6  Pass 1  IDiag  1:
 E= -114.392873944748     Delta-E=       -0.000216701615 Rises=F Damp=F
 DIIS: error= 1.46D-03 at cycle   6 NSaved=   6.
 NSaved= 6 IEnMin= 6 EnMin= -114.392873944748     IErMin= 6 ErrMin= 1.46D-03
 ErrMax= 1.46D-03  0.00D+00 EMaxC= 1.00D-01 BMatC= 4.33D-05 BMatP= 3.37D-04
 IDIUse=3 WtCom= 9.85D-01 WtEn= 1.46D-02
 Coeff-Com:  0.361D-02-0.104D-02-0.101D-01 0.830D-01 0.251D+00 0.674D+00
 Coeff-En:   0.000D+00 0.000D+00 0.000D+00 0.000D+00 0.173D+00 0.827D+00
 Coeff:      0.356D-02-0.102D-02-0.998D-02 0.818D-01 0.250D+00 0.676D+00
 Gap=     0.131 Goal=   None    Shift=    0.000
 RMSDP=4.40D-05 MaxDP=5.98D-04 DE=-2.17D-04 OVMax= 2.54D-03

 Cycle   7  Pass 1  IDiag  1:
 E= -114.392909612513     Delta-E=       -0.000035667764 Rises=F Damp=F
 DIIS: error= 2.66D-04 at cycle   7 NSaved=   7.
 NSaved= 7 IEnMin= 7 EnMin= -114.392909612513     IErMin= 7 ErrMin= 2.66D-04
 ErrMax= 2.66D-04  0.00D+00 EMaxC= 1.00D-01 BMatC= 1.48D-06 BMatP= 4.33D-05
 IDIUse=3 WtCom= 9.97D-01 WtEn= 2.66D-03
 Coeff-Com:  0.640D-03-0.466D-04-0.558D-03-0.739D-02-0.968D-02-0.310D-01
 Coeff-Com:  0.105D+01
 Coeff-En:   0.000D+00 0.000D+00 0.000D+00 0.000D+00 0.000D+00 0.000D+00
 Coeff-En:   0.100D+01
 Coeff:      0.638D-03-0.465D-04-0.556D-03-0.737D-02-0.965D-02-0.309D-01
 Coeff:      0.105D+01
 Gap=     0.131 Goal=   None    Shift=    0.000
 RMSDP=1.06D-05 MaxDP=1.05D-04 DE=-3.57D-05 OVMax= 4.70D-04

 Cycle   8  Pass 1  IDiag  1:
 E= -114.392910862155     Delta-E=       -0.000001249642 Rises=F Damp=F
 DIIS: error= 2.02D-05 at cycle   8 NSaved=   8.
 NSaved= 8 IEnMin= 8 EnMin= -114.392910862155     IErMin= 8 ErrMin= 2.02D-05
 ErrMax= 2.02D-05  0.00D+00 EMaxC= 1.00D-01 BMatC= 1.02D-08 BMatP= 1.48D-06
 IDIUse=1 WtCom= 1.00D+00 WtEn= 0.00D+00
 Coeff-Com:  0.485D-04-0.227D-04 0.191D-04 0.153D-03 0.395D-03-0.539D-02
 Coeff-Com: -0.518D-01 0.106D+01
 Coeff:      0.485D-04-0.227D-04 0.191D-04 0.153D-03 0.395D-03-0.539D-02
 Coeff:     -0.518D-01 0.106D+01
 Gap=     0.131 Goal=   None    Shift=    0.000
 RMSDP=7.36D-07 MaxDP=8.20D-06 DE=-1.25D-06 OVMax= 3.02D-05

 Cycle   9  Pass 1  IDiag  1:
 E= -114.392910869721     Delta-E=       -0.000000007566 Rises=F Damp=F
 DIIS: error= 7.30D-06 at cycle   9 NSaved=   9.
 NSaved= 9 IEnMin= 9 EnMin= -114.392910869721     IErMin= 9 ErrMin= 7.30D-06
 ErrMax= 7.30D-06  0.00D+00 EMaxC= 1.00D-01 BMatC= 1.07D-09 BMatP= 1.02D-08
 IDIUse=1 WtCom= 1.00D+00 WtEn= 0.00D+00
 Coeff-Com:  0.582D-05-0.201D-06 0.445D-05 0.106D-04-0.769D-03-0.188D-02
 Coeff-Com: -0.271D-01-0.263D-01 0.106D+01
 Coeff:      0.582D-05-0.201D-06 0.445D-05 0.106D-04-0.769D-03-0.188D-02
 Coeff:     -0.271D-01-0.263D-01 0.106D+01
 Gap=     0.131 Goal=   None    Shift=    0.000
 RMSDP=2.98D-07 MaxDP=2.93D-06 DE=-7.57D-09 OVMax= 1.19D-05

 Cycle  10  Pass 1  IDiag  1:
 E= -114.392910870691     Delta-E=       -0.000000000970 Rises=F Damp=F
 DIIS: error= 3.09D-07 at cycle  10 NSaved=  10.
 NSaved=10 IEnMin=10 EnMin= -114.392910870691     IErMin=10 ErrMin= 3.09D-07
 ErrMax= 3.09D-07  0.00D+00 EMaxC= 1.00D-01 BMatC= 2.13D-12 BMatP= 1.07D-09
 IDIUse=1 WtCom= 1.00D+00 WtEn= 0.00D+00
 Coeff-Com:  0.299D-06 0.555D-06-0.474D-06-0.464D-07 0.379D-04 0.551D-04
 Coeff-Com:  0.216D-02-0.109D-01-0.848D-01 0.109D+01
 Coeff:      0.299D-06 0.555D-06-0.474D-06-0.464D-07 0.379D-04 0.551D-04
 Coeff:      0.216D-02-0.109D-01-0.848D-01 0.109D+01
 Gap=     0.131 Goal=   None    Shift=    0.000
 RMSDP=1.91D-08 MaxDP=2.32D-07 DE=-9.70D-10 OVMax= 8.70D-07

 Cycle  11  Pass 1  IDiag  1:
 E= -114.392910870693     Delta-E=       -0.000000000002 Rises=F Damp=F
 DIIS: error= 8.54D-08 at cycle  11 NSaved=  11.
 NSaved=11 IEnMin=11 EnMin= -114.392910870693     IErMin=11 ErrMin= 8.54D-08
 ErrMax= 8.54D-08  0.00D+00 EMaxC= 1.00D-01 BMatC= 1.31D-13 BMatP= 2.13D-12
 IDIUse=1 WtCom= 1.00D+00 WtEn= 0.00D+00
 Coeff-Com: -0.835D-07-0.504D-07 0.401D-07 0.137D-05 0.528D-05 0.207D-04
 Coeff-Com:  0.178D-03-0.122D-02 0.293D-02-0.153D-01 0.101D+01
 Coeff:     -0.835D-07-0.504D-07 0.401D-07 0.137D-05 0.528D-05 0.207D-04
 Coeff:      0.178D-03-0.122D-02 0.293D-02-0.153D-01 0.101D+01
 Gap=     0.131 Goal=   None    Shift=    0.000
 RMSDP=3.53D-09 MaxDP=4.59D-08 DE=-1.73D-12 OVMax= 2.13D-07

 SCF Done:  E(RB3LYP) =  -114.392910871     A.U. after   11 cycles
            NFock= 11  Conv=0.35D-08     -V/T= 2.0093
 KE= 1.133431037208D+02 PE=-3.173101684793D+02 EE= 6.514980194607D+01
 Leave Link  502 at Fri Sep 17 10:52:40 2021, MaxMem=   268435456 cpu:               1.9 elap:               2.2
 (Enter /software/gaussian/g16-a03/l801.exe)
 DoSCS=F DFT=T ScalE2(SS,OS)=  1.000000  1.000000
 ExpMin= 4.38D-02 ExpMax= 8.59D+03 ExpMxC= 1.30D+03 IAcc=3 IRadAn=         5 AccDes= 0.00D+00
 HarFok:  IExCor=  205 AccDes= 0.00D+00 IRadAn=         5 IDoV=-2 UseB2=F ITyADJ=14
 ICtDFT= 12500011 ScaDFX=  1.000000  1.000000  1.000000  1.000000
 Largest valence mixing into a core orbital is  5.40D-05
 Largest core mixing into a valence orbital is  1.27D-05
 Range of M.O.s used for correlation:     3    56
 NBasis=    56 NAE=     8 NBE=     8 NFC=     2 NFV=     0
 NROrb=     54 NOA=     6 NOB=     6 NVA=    48 NVB=    48
 Leave Link  801 at Fri Sep 17 10:52:40 2021, MaxMem=   268435456 cpu:               0.2 elap:               0.2
 (Enter /software/gaussian/g16-a03/l914.exe)
 RHF ground state
 Keep R1, R2, and R3 ints in memory in symmetry-blocked form, NReq=6042840.
 FoFCou: FMM=F IPFlag=           0 FMFlag=           0 FMFlg1=           0
         NFxFlg=           0 DoJE=F BraDBF=F KetDBF=F FulRan=T
         wScrn=  0.000000 ICntrl=       600 IOpCl=  0 I1Cent=           0 NGrid=           0
         NMat0=    1 NMatS0=   1596 NMatT0=    0 NMatD0=    1 NMtDS0=    0 NMtDT0=    0
 Petite list used in FoFCou.
 MDV=   268435456 DFT=T DoStab=F Mixed=T DoRPA=T DoScal=F NonHer=T
 Making orbital integer symmetry assigments:
 Orbital symmetries:
       Occupied  (A1) (A1) (A1) (A1) (B2) (A1) (B1) (B2)
       Virtual   (B1) (A1) (A1) (B2) (B1) (A1) (A1) (B2) (A1) (B1)
                 (B2) (A1) (A1) (B2) (B1) (A1) (B2) (A1) (A2) (B1)
                 (B2) (A1) (B1) (A1) (B2) (A1) (A1) (B2) (B1) (A2)
                 (A1) (B2) (A1) (B2) (A1) (B1) (A1) (A2) (A1) (B1)
                 (B2) (B2) (A1) (B1) (B2) (A1) (A1) (A1)
   120 initial guesses have been made.
 Convergence on wavefunction:    0.001000000000000
 Davidson Disk Diagonalization:  ConvIn= 1.00D-03 SkipCon=T Conv= 1.00D-03.
 Max sub-space:  1728 roots to seek:   120 dimension of matrix:          576
 Iteration     1 Dimension   120 NMult     0 NNew    120
 CISAX will form   120 AO SS matrices at one time.
 NMat=   120 NSing=   120 JSym2X=-1.
 New state      7 was old state      9
 New state      8 was old state      7
 New state      9 was old state      8
 New state     11 was old state     12
 New state     12 was old state     11
 New state     13 was old state     14
 New state     14 was old state     15
 New state     15 was old state     13
 New state     16 was old state     17
 New state     17 was old state     16
 New state     18 was old state     19
 New state     19 was old state     21
 New state     20 was old state     22
 New state     21 was old state     20
 New state     22 was old state     18
 New state     23 was old state     24
 New state     24 was old state     23
 New state     25 was old state     27
 New state     27 was old state     28
 New state     28 was old state     25
 New state     29 was old state     30
 New state     30 was old state     29
 Excitation Energies [eV] at current iteration:
 Root      1 :     1.667886649048041
 Root      2 :     4.342453293268497
 Root      3 :     4.774882072058967
 Root      4 :     5.124133028748230
 Root      5 :     6.095610955105940
 Root      6 :     6.968729533821060
 Root      7 :     7.235692573704567
 Root      8 :     7.754373458910991
 Root      9 :     8.035248231088298
 Root     10 :     8.593588004123795
 Root     11 :     8.719031749370604
 Root     12 :     8.794448983094638
 Root     13 :     9.399961121676466
 Root     14 :     9.549780375030544
 Root     15 :     9.763431150642763
 Root     16 :    10.137555716676430
 Root     17 :    10.301320185148570
 Root     18 :    10.848503457706150
 Root     19 :    11.017994094959890
 Root     20 :    11.181943467740470
 Root     21 :    11.183907161194370
 Root     22 :    11.187542680524350
 Root     23 :    11.581067774424370
 Root     24 :    11.679848866633420
 Root     25 :    12.142356834876750
 Root     26 :    12.258246521612230
 Root     27 :    12.533597023246850
 Root     28 :    12.658824221753600
 Root     29 :    13.055802171967620
 Root     30 :    13.200955823615730
 Root     31 :    13.636224938029140
 Root     32 :    13.811980984920450
 Root     33 :    13.852374161540240
 Root     34 :    13.942911688926050
 Root     35 :    14.268394142460010
 Root     36 :    14.545237112215790
 Root     37 :    14.565452250321680
 Root     38 :    14.790102926057240
 Root     39 :    15.456213729445530
 Root     40 :    15.753029234561420
 Root     41 :    15.875379184552270
 Root     42 :    15.887351823626740
 Root     43 :    16.153592600840670
 Root     44 :    16.391690041516540
 Root     45 :    17.404651226183060
 Root     46 :    17.550093744190670
 Root     47 :    17.560725158374830
 Root     48 :    17.838348317375630
 Root     49 :    18.088111592537690
 Root     50 :    18.106647886793120
 Root     51 :    18.283508512186930
 Root     52 :    18.406615644429410
 Root     53 :    18.875265605689880
 Root     54 :    19.106451473194370
 Root     55 :    19.295547001094880
 Root     56 :    19.805101591359690
 Root     57 :    19.974051291851470
 Root     58 :    20.169220039601530
 Root     59 :    20.369406928364930
 Root     60 :    20.461114553978350
 Root     61 :    20.678236301699350
 Root     62 :    20.894102450278080
 Root     63 :    21.205303340484130
 Root     64 :    21.367904969136650
 Root     65 :    21.839793609201010
 Root     66 :    21.899427392723320
 Root     67 :    21.926940164358970
 Root     68 :    22.484139015553110
 Root     69 :    23.017706902965170
 Root     70 :    23.201832910656630
 Root     71 :    23.233909090125580
 Root     72 :    23.426031802119850
 Root     73 :    23.456229610000900
 Root     74 :    23.943924255080020
 Root     75 :    23.968190460102170
 Root     76 :    24.292428393301850
 Root     77 :    24.716519408601920
 Root     78 :    24.782673495595740
 Root     79 :    24.987145658446000
 Root     80 :    25.222858083047030
 Root     81 :    25.324586343289740
 Root     82 :    25.456710253637890
 Root     83 :    25.531804442975990
 Root     84 :    26.015137321602210
 Root     85 :    26.167423528620150
 Root     86 :    26.390975083808070
 Root     87 :    26.527261857555920
 Root     88 :    27.076669990361120
 Root     89 :    27.545215769615630
 Root     90 :    28.381776115772930
 Root     91 :    28.607839850747320
 Root     92 :    28.758642624339100
 Root     93 :    29.242122571490330
 Root     94 :    29.426627137822680
 Root     95 :    29.793581285613960
 Root     96 :    30.179054182567500
 Root     97 :    30.729245170880540
 Root     98 :    31.340263603077690
 Root     99 :    31.807333290868790
 Root    100 :    32.760298916361450
 Root    101 :    33.072694153293040
 Root    102 :    33.253800448352900
 Root    103 :    33.579961057236100
 Root    104 :    34.241354617531800
 Root    105 :    34.336850063479390
 Root    106 :    34.371396738509670
 Root    107 :    34.583168569504720
 Root    108 :    34.927538323918950
 Root    109 :    35.866553432129360
 Root    110 :    35.943527472701490
 Root    111 :    36.048084162198390
 Root    112 :    36.350399243442060
 Root    113 :    37.081941486886470
 Root    114 :    37.214382719546580
 Root    115 :    37.901610974626640
 Root    116 :    38.270691013494390
 Root    117 :    38.284332696836550
 Root    118 :    38.964913707207530
 Root    119 :    39.814547342196750
 Root    120 :    43.743252009478620
 Iteration     2 Dimension   180 NMult   120 NNew     60
 CISAX will form    60 AO SS matrices at one time.
 NMat=    60 NSing=    60 JSym2X=-1.
 Root      1 not converged, maximum delta is    0.006759580028521
 Root      2 not converged, maximum delta is    0.005277442212636
 Root      3 not converged, maximum delta is    0.009428521998162
 Root      4 not converged, maximum delta is    0.008066450531093
 Root      5 not converged, maximum delta is    0.007908764943612
 Root      6 not converged, maximum delta is    0.002764835239945
 Root      7 not converged, maximum delta is    0.011341834791590
 Root      8 not converged, maximum delta is    0.003354846204535
 Root      9 not converged, maximum delta is    0.001968644978183
 Root     10 not converged, maximum delta is    0.001909252597084
 Root     11 not converged, maximum delta is    0.003285736850576
 Root     12 not converged, maximum delta is    0.001551416582934
 Root     13 not converged, maximum delta is    0.003560479146259
 Root     14 not converged, maximum delta is    0.002424125398550
 Root     15 not converged, maximum delta is    0.005500038558620
 Root     16 not converged, maximum delta is    0.002435965054313
 Root     17 not converged, maximum delta is    0.005858304160359
 Root     18 not converged, maximum delta is    0.004956091493493
 Root     19 not converged, maximum delta is    0.048834575017158
 New state     20 was old state     21
 Root     20 not converged, maximum delta is    0.046763488202002
 New state     21 was old state     22
 Root     21 not converged, maximum delta is    0.009297935819422
 New state     22 was old state     20
 Root     22 not converged, maximum delta is    0.004061186642289
 Root     23 not converged, maximum delta is    0.004484652257622
 Root     24 not converged, maximum delta is    0.001587046950681
 Root     25 not converged, maximum delta is    0.007062858958864
 Root     26 not converged, maximum delta is    0.004659199333002
 Root     27 not converged, maximum delta is    0.002879038657093
 Root     28 not converged, maximum delta is    0.007636770046574
 Root     29 not converged, maximum delta is    0.005340083017081
 Root     30 not converged, maximum delta is    0.006568331609439
 Excitation Energies [eV] at current iteration:
 Root      1 :     1.659771666768428   Change is   -0.008114982279613
 Root      2 :     4.324503595483266   Change is   -0.017949697785232
 Root      3 :     4.746903167363434   Change is   -0.027978904695532
 Root      4 :     5.092939705640456   Change is   -0.031193323107774
 Root      5 :     6.077270913301447   Change is   -0.018340041804492
 Root      6 :     6.965557593654461   Change is   -0.003171940166599
 Root      7 :     7.220359939108809   Change is   -0.015332634595758
 Root      8 :     7.752491994087463   Change is   -0.001881464823528
 Root      9 :     8.034256415679868   Change is   -0.000991815408430
 Root     10 :     8.593216348589335   Change is   -0.000371655534459
 Root     11 :     8.713825853847144   Change is   -0.005205895523460
 Root     12 :     8.793931622074709   Change is   -0.000517361019929
 Root     13 :     9.397066275657544   Change is   -0.002894846018921
 Root     14 :     9.547427422801764   Change is   -0.002352952228780
 Root     15 :     9.754743067009327   Change is   -0.008688083633434
 Root     16 :    10.135825602504730   Change is   -0.001730114171695
 Root     17 :    10.292422609734080   Change is   -0.008897575414486
 Root     18 :    10.845773141520460   Change is   -0.002730316185693
 Root     19 :    11.002715107938030   Change is   -0.015278987021856
 Root     20 :    11.169506960515120   Change is   -0.014400200679249
 Root     21 :    11.174144016322070   Change is   -0.013398664202279
 Root     22 :    11.179654533863530   Change is   -0.002288933876940
 Root     23 :    11.574118327621570   Change is   -0.006949446802799
 Root     24 :    11.679036588192210   Change is   -0.000812278441213
 Root     25 :    12.138369636286050   Change is   -0.003987198590702
 Root     26 :    12.253599281836520   Change is   -0.004647239775718
 Root     27 :    12.531145100971640   Change is   -0.002451922275205
 Root     28 :    12.640775228233980   Change is   -0.018048993519621
 Root     29 :    13.051701435490590   Change is   -0.004100736477035
 Root     30 :    13.192670114915020   Change is   -0.008285708700702
 Iteration     3 Dimension   240 NMult   180 NNew     60
 CISAX will form    60 AO SS matrices at one time.
 NMat=    60 NSing=    60 JSym2X=-1.
 Root      1 has converged.
 Root      2 has converged.
 Root      3 has converged.
 Root      4 has converged.
 Root      5 has converged.
 Root      6 has converged.
 Root      7 has converged.
 Root      8 has converged.
 Root      9 has converged.
 Root     10 has converged.
 Root     11 has converged.
 Root     12 has converged.
 Root     13 has converged.
 Root     14 has converged.
 Root     15 has converged.
 Root     16 has converged.
 Root     17 has converged.
 Root     18 has converged.
 Root     19 has converged.
 Root     20 has converged.
 Root     21 has converged.
 Root     22 has converged.
 Root     23 has converged.
 Root     24 has converged.
 Root     25 has converged.
 Root     26 has converged.
 Root     27 has converged.
 Root     28 has converged.
 Root     29 has converged.
 Root     30 has converged.
 Excitation Energies [eV] at current iteration:
 Root      1 :     1.659770584457640   Change is   -0.000001082310789
 Root      2 :     4.324489025879283   Change is   -0.000014569603983
 Root      3 :     4.746888122318812   Change is   -0.000015045044622
 Root      4 :     5.092925538506329   Change is   -0.000014167134127
 Root      5 :     6.077264381886591   Change is   -0.000006531414856
 Root      6 :     6.965555919074632   Change is   -0.000001674579830
 Root      7 :     7.220354341865222   Change is   -0.000005597243587
 Root      8 :     7.752491183441192   Change is   -0.000000810646271
 Root      9 :     8.034255391810973   Change is   -0.000001023868894
 Root     10 :     8.593216286854661   Change is   -0.000000061734673
 Root     11 :     8.713821611356842   Change is   -0.000004242490303
 Root     12 :     8.793931336660412   Change is   -0.000000285414296
 Root     13 :     9.397061363936711   Change is   -0.000004911720834
 Root     14 :     9.547425875426059   Change is   -0.000001547375704
 Root     15 :     9.754725139820529   Change is   -0.000017927188800
 Root     16 :    10.135824270326340   Change is   -0.000001332178398
 Root     17 :    10.292408050615530   Change is   -0.000014559118554
 Root     18 :    10.845769965125320   Change is   -0.000003176395141
 Root     19 :    11.002694792824250   Change is   -0.000020315113780
 Root     20 :    11.169491705021930   Change is   -0.000015255493182
 Root     21 :    11.174111389626000   Change is   -0.000032626696065
 Root     22 :    11.179651161749200   Change is   -0.000003372114329
 Root     23 :    11.574111649966560   Change is   -0.000006677655006
 Root     24 :    11.679036157245410   Change is   -0.000000430946794
 Root     25 :    12.138368023405470   Change is   -0.000001612880574
 Root     26 :    12.253592183946370   Change is   -0.000007097890147
 Root     27 :    12.531140495874740   Change is   -0.000004605096901
 Root     28 :    12.640728793065920   Change is   -0.000046435168066
 Root     29 :    13.051695213897090   Change is   -0.000006221593497
 Root     30 :    13.192648140947940   Change is   -0.000021973967082
 Convergence achieved on expansion vectors.
 ***********************************************************************
 Excited states from <AA,BB:AA,BB> singles matrix:
 ***********************************************************************
 
 1PDM for each excited state written to RWF  633
 Ground to excited state transition densities written to RWF  633
 Ground to excited state transition electric dipole moments (Au):
       state          X           Y           Z        Dip. S.      Osc.
         1         0.0000      0.0000     -0.0000      0.0000      0.0000
         2         0.0000     -0.0000      0.7114      0.5061      0.0536
         3         0.0983      0.0000      0.0000      0.0097      0.0011
         4         0.0000     -0.2348     -0.0000      0.0551      0.0069
         5        -0.2310     -0.0000      0.0000      0.0534      0.0079
         6        -0.0000     -0.0920      0.0000      0.0085      0.0014
         7         0.0000      0.0000     -0.0000      0.0000      0.0000
         8        -0.6476      0.0000     -0.0000      0.4193      0.0796
         9        -0.0000      0.0000     -0.2894      0.0838      0.0165
        10         0.0000     -0.0000      0.0000      0.0000      0.0000
        11         0.0000     -0.3656      0.0000      0.1337      0.0285
        12         0.0000      0.0000     -0.0000      0.0000      0.0000
        13         0.0000      0.0000      0.3598      0.1295      0.0298
        14        -0.3140     -0.0000     -0.0000      0.0986      0.0231
        15        -0.0000      0.0000     -0.9659      0.9330      0.2230
        16         0.0000     -0.3003     -0.0000      0.0902      0.0224
        17        -0.0000      0.0000     -0.4592      0.2108      0.0532
        18        -0.4222      0.0000     -0.0000      0.1782      0.0474
        19         0.0000      0.2779     -0.0000      0.0773      0.0208
        20        -0.0000     -0.1363     -0.0000      0.0186      0.0051
        21         0.0000     -0.0000     -1.0051      1.0102      0.2766
        22        -0.0000      0.0000      0.0000      0.0000      0.0000
        23        -0.0000     -0.0705     -0.0000      0.0050      0.0014
        24        -0.1035      0.0000      0.0000      0.0107      0.0031
        25         0.0000     -0.0000     -0.0000      0.0000      0.0000
        26         0.0000     -0.6868     -0.0000      0.4717      0.1416
        27         0.1116     -0.0000     -0.0000      0.0125      0.0038
        28        -0.0000     -0.0000      1.0826      1.1721      0.3630
        29        -0.0000     -0.0000     -0.2522      0.0636      0.0203
        30        -0.0000      0.0000      0.6005      0.3606      0.1166
 Ground to excited state transition velocity dipole moments (Au):
       state          X           Y           Z        Dip. S.      Osc.
         1        -0.0000      0.0000      0.0000      0.0000      0.0000
         2        -0.0000      0.0000     -0.1009      0.0102      0.0427
         3        -0.0367      0.0000     -0.0000      0.0013      0.0051
         4        -0.0000      0.0418     -0.0000      0.0017      0.0062
         5         0.0427      0.0000     -0.0000      0.0018      0.0055
         6        -0.0000      0.0193     -0.0000      0.0004      0.0010
         7        -0.0000     -0.0000      0.0000      0.0000      0.0000
         8         0.1873      0.0000      0.0000      0.0351      0.0821
         9        -0.0000      0.0000      0.0832      0.0069      0.0156
        10        -0.0000      0.0000     -0.0000      0.0000      0.0000
        11         0.0000      0.1213     -0.0000      0.0147      0.0306
        12         0.0000     -0.0000      0.0000      0.0000      0.0000
        13        -0.0000      0.0000     -0.1220      0.0149      0.0287
        14         0.1241      0.0000      0.0000      0.0154      0.0293
        15         0.0000     -0.0000      0.3506      0.1229      0.2286
        16        -0.0000      0.1150      0.0000      0.0132      0.0237
        17         0.0000      0.0000      0.1840      0.0339      0.0597
        18         0.1518     -0.0000      0.0000      0.0230      0.0385
        19        -0.0000     -0.1171      0.0000      0.0137      0.0226
        20         0.0000      0.0527      0.0000      0.0028      0.0045
        21         0.0000      0.0000      0.4145      0.1718      0.2789
        22         0.0000     -0.0000     -0.0000      0.0000      0.0000
        23         0.0000      0.0221      0.0000      0.0005      0.0008
        24         0.0395     -0.0000     -0.0000      0.0016      0.0024
        25        -0.0000      0.0000      0.0000      0.0000      0.0000
        26        -0.0000      0.3047      0.0000      0.0928      0.1374
        27        -0.0421      0.0000      0.0000      0.0018      0.0026
        28         0.0000      0.0000     -0.4874      0.2375      0.3409
        29         0.0000      0.0000      0.1120      0.0125      0.0174
        30         0.0000     -0.0000     -0.2785      0.0776      0.1067
 Ground to excited state transition magnetic dipole moments (Au):
       state          X           Y           Z
         1         0.0000      0.0000      1.0019
         2        -0.0000     -0.0000     -0.0000
         3        -0.0000     -1.7889     -0.0000
         4         0.3462     -0.0000     -0.0000
         5        -0.0000     -0.5789     -0.0000
         6        -0.3613      0.0000     -0.0000
         7         0.0000      0.0000     -1.0226
         8         0.0000     -0.1807      0.0000
         9        -0.0000     -0.0000      0.0000
        10        -0.0000      0.0000      0.0048
        11        -0.5595      0.0000      0.0000
        12        -0.0000     -0.0000      0.0255
        13        -0.0000     -0.0000      0.0000
        14         0.0000      0.3291     -0.0000
        15         0.0000      0.0000      0.0000
        16         0.3903     -0.0000     -0.0000
        17        -0.0000      0.0000     -0.0000
        18         0.0000      0.2115     -0.0000
        19         0.6397     -0.0000     -0.0000
        20         0.3071      0.0000     -0.0000
        21         0.0000      0.0000      0.0000
        22        -0.0000      0.0000     -0.0635
        23         0.1094     -0.0000     -0.0000
        24        -0.0000      0.1010      0.0000
        25         0.0000      0.0000     -0.0326
        26         0.8472      0.0000     -0.0000
        27         0.0000      0.0353      0.0000
        28         0.0000      0.0000      0.0000
        29         0.0000      0.0000     -0.0000
        30         0.0000      0.0000     -0.0000
 Ground to excited state transition velocity quadrupole moments (Au):
       state          XX          YY          ZZ          XY          XZ          YZ
         1         0.0000      0.0000      0.0000     -0.0317      0.0000     -0.0000
         2         0.0676     -0.0060     -0.0364      0.0000     -0.0000      0.0000
         3         0.0000     -0.0000      0.0000      0.0000     -0.1119      0.0000
         4        -0.0000      0.0000     -0.0000      0.0000      0.0000      0.0030
         5         0.0000      0.0000      0.0000      0.0000      0.1801      0.0000
         6         0.0000      0.0000      0.0000      0.0000     -0.0000      0.2873
         7         0.0000      0.0000     -0.0000      0.1761     -0.0000     -0.0000
         8        -0.0000      0.0000      0.0000     -0.0000     -0.1314     -0.0000
         9         0.0370      0.0575     -0.2157      0.0000     -0.0000      0.0000
        10        -0.0000     -0.0000     -0.0000      0.0766      0.0000     -0.0000
        11         0.0000      0.0000     -0.0000     -0.0000      0.0000      0.2059
        12         0.0000      0.0000      0.0000      0.2807     -0.0000      0.0000
        13         0.7966      0.0521     -0.0666      0.0000     -0.0000      0.0000
        14        -0.0000     -0.0000     -0.0000      0.0000      0.3228      0.0000
        15         0.1634      0.0450     -0.3358      0.0000      0.0000     -0.0000
        16        -0.0000     -0.0000     -0.0000      0.0000     -0.0000     -0.0612
        17         0.2708      0.2954      0.5637      0.0000      0.0000      0.0000
        18        -0.0000     -0.0000     -0.0000      0.0000     -0.0516      0.0000
        19        -0.0000     -0.0000     -0.0000      0.0000     -0.0000      0.6374
        20         0.0000     -0.0000     -0.0000     -0.0000     -0.0000     -0.0041
        21        -0.0605     -0.4051     -0.1610      0.0000      0.0000     -0.0000
        22         0.0000      0.0000      0.0000     -0.2724     -0.0000     -0.0000
        23         0.0000     -0.0000      0.0000      0.0000     -0.0000      0.4403
        24         0.0000      0.0000     -0.0000      0.0000     -0.1458      0.0000
        25         0.0000     -0.0000     -0.0000      0.3776      0.0000     -0.0000
        26         0.0000     -0.0000     -0.0000      0.0000      0.0000     -0.6990
        27        -0.0000     -0.0000     -0.0000     -0.0000      0.3271     -0.0000
        28        -0.2878      0.5168     -0.2140     -0.0000      0.0000      0.0000
        29        -0.2761      0.3252      0.2336      0.0000      0.0000     -0.0000
        30        -0.0326      0.1840      0.1921      0.0000      0.0000     -0.0000
 <0|del|b> * <b|rxdel|0> + <0|del|b> * <b|delr+rdel|0>
 Rotatory Strengths (R) in cgs (10**-40 erg-esu-cm/Gauss)
       state          XX          YY          ZZ    R(velocity)    E-M Angle
         1         0.0000      0.0000     -0.0000      0.0000       90.00
         2        -0.0000      0.0000     -0.0000      0.0000       90.00
         3        -0.0000      0.0000     -0.0000     -0.0000       90.00
         4        -0.0000     -0.0000     -0.0000     -0.0000       90.00
         5        -0.0000     -0.0000     -0.0000     -0.0000       90.00
         6         0.0000      0.0000      0.0000      0.0000       90.00
         7        -0.0000     -0.0000     -0.0000     -0.0000       90.00
         8        -0.0000     -0.0000      0.0000      0.0000       90.00
         9         0.0000     -0.0000     -0.0000      0.0000       90.00
        10        -0.0000      0.0000      0.0000     -0.0000       90.00
        11         0.0000     -0.0000     -0.0000     -0.0000       90.00
        12         0.0000     -0.0000      0.0000      0.0000       90.00
        13        -0.0000      0.0000     -0.0000     -0.0000       90.00
        14         0.0000      0.0000      0.0000      0.0000       90.00
        15         0.0000     -0.0000     -0.0000      0.0000       90.00
        16        -0.0000     -0.0000     -0.0000     -0.0000       90.00
        17         0.0000     -0.0000     -0.0000     -0.0000       90.00
        18        -0.0000      0.0000      0.0000      0.0000       90.00
        19         0.0000     -0.0000      0.0000     -0.0000       90.00
        20         0.0000      0.0000      0.0000      0.0000       90.00
        21         0.0000     -0.0000      0.0000      0.0000       90.00
        22         0.0000     -0.0000     -0.0000      0.0000       90.00
        23        -0.0000      0.0000     -0.0000      0.0000       90.00
        24        -0.0000     -0.0000     -0.0000     -0.0000       90.00
        25         0.0000     -0.0000     -0.0000     -0.0000       90.00
        26        -0.0000     -0.0000     -0.0000     -0.0000       90.00
        27        -0.0000      0.0000      0.0000     -0.0000       90.00
        28         0.0000     -0.0000      0.0000     -0.0000       90.00
        29         0.0000     -0.0000      0.0000     -0.0000       90.00
        30        -0.0000      0.0000      0.0000      0.0000       90.00
 1/2[<0|r|b>*<b|rxdel|0> + (<0|rxdel|b>*<b|r|0>)*]
 Rotatory Strengths (R) in cgs (10**-40 erg-esu-cm/Gauss)
       state          XX          YY          ZZ     R(length)
         1        -0.0000     -0.0000      0.0000      0.0000
         2         0.0000     -0.0000      0.0000      0.0000
         3         0.0000      0.0000      0.0000      0.0000
         4        -0.0000     -0.0000     -0.0000     -0.0000
         5        -0.0000     -0.0000      0.0000     -0.0000
         6        -0.0000      0.0000      0.0000     -0.0000
         7        -0.0000     -0.0000     -0.0000     -0.0000
         8         0.0000      0.0000      0.0000      0.0000
         9        -0.0000      0.0000      0.0000      0.0000
        10         0.0000      0.0000     -0.0000     -0.0000
        11         0.0000      0.0000     -0.0000      0.0000
        12         0.0000      0.0000      0.0000      0.0000
        13         0.0000      0.0000     -0.0000     -0.0000
        14         0.0000      0.0000     -0.0000      0.0000
        15         0.0000     -0.0000      0.0000      0.0000
        16        -0.0000     -0.0000     -0.0000     -0.0000
        17        -0.0000     -0.0000     -0.0000     -0.0000
        18         0.0000     -0.0000     -0.0000      0.0000
        19        -0.0000      0.0000     -0.0000     -0.0000
        20         0.0000      0.0000     -0.0000      0.0000
        21        -0.0000      0.0000      0.0000      0.0000
        22        -0.0000     -0.0000      0.0000      0.0000
        23         0.0000     -0.0000     -0.0000      0.0000
        24        -0.0000     -0.0000     -0.0000     -0.0000
        25        -0.0000      0.0000     -0.0000     -0.0000
        26        -0.0000      0.0000     -0.0000      0.0000
        27        -0.0000      0.0000      0.0000     -0.0000
        28         0.0000      0.0000     -0.0000     -0.0000
        29         0.0000      0.0000     -0.0000     -0.0000
        30         0.0000     -0.0000      0.0000      0.0000
  1/2[<0|del|b>*<b|r|0> + (<0|r|b>*<b|del|0>)*] (Au)
       state          X           Y           Z        Dip. S.   Osc.(frdel)
         1        -0.0000      0.0000     -0.0000      0.0000      0.0000
         2        -0.0000     -0.0000     -0.0718      0.0718      0.0479
         3        -0.0036      0.0000     -0.0000      0.0036      0.0024
         4        -0.0000     -0.0098      0.0000      0.0098      0.0065
         5        -0.0099     -0.0000     -0.0000      0.0099      0.0066
         6         0.0000     -0.0018     -0.0000      0.0018      0.0012
         7        -0.0000     -0.0000     -0.0000      0.0000      0.0000
         8        -0.1213      0.0000     -0.0000      0.1213      0.0808
         9         0.0000      0.0000     -0.0241      0.0241      0.0160
        10        -0.0000     -0.0000     -0.0000      0.0000      0.0000
        11         0.0000     -0.0443     -0.0000      0.0443      0.0296
        12         0.0000     -0.0000     -0.0000      0.0000      0.0000
        13        -0.0000      0.0000     -0.0439      0.0439      0.0293
        14        -0.0390     -0.0000     -0.0000      0.0390      0.0260
        15        -0.0000     -0.0000     -0.3387      0.3387      0.2258
        16        -0.0000     -0.0345     -0.0000      0.0345      0.0230
        17        -0.0000      0.0000     -0.0845      0.0845      0.0563
        18        -0.0641     -0.0000     -0.0000      0.0641      0.0427
        19        -0.0000     -0.0326     -0.0000      0.0326      0.0217
        20        -0.0000     -0.0072     -0.0000      0.0072      0.0048
        21         0.0000     -0.0000     -0.4166      0.4166      0.2777
        22        -0.0000     -0.0000     -0.0000      0.0000      0.0000
        23        -0.0000     -0.0016     -0.0000      0.0016      0.0010
        24        -0.0041     -0.0000     -0.0000      0.0041      0.0027
        25        -0.0000     -0.0000     -0.0000      0.0000      0.0000
        26        -0.0000     -0.2093     -0.0000      0.2093      0.1395
        27        -0.0047     -0.0000     -0.0000      0.0047      0.0031
        28        -0.0000     -0.0000     -0.5276      0.5276      0.3518
        29        -0.0000     -0.0000     -0.0282      0.0282      0.0188
        30        -0.0000     -0.0000     -0.1673      0.1673      0.1115

 Excitation energies and oscillator strengths:
 
 Excited State   1:      Singlet-A2     1.6598 eV  747.00 nm  f=0.0000  <S**2>=0.000
       3 -> 27         0.00096
       3 -> 38         0.00067
       3 -> 46         0.00335
       4 -> 27         0.00055
       4 -> 46        -0.00117
       5 ->  9         0.00464
       5 -> 13         0.00108
       5 -> 18         0.00234
       5 -> 23         0.00156
       5 -> 28         0.00195
       5 -> 37         0.00107
       5 -> 44         0.00028
       5 -> 52         0.00026
       6 -> 27        -0.00062
       6 -> 38        -0.00069
       6 -> 46         0.00117
       7 -> 12        -0.00105
       7 -> 16         0.00502
       7 -> 19        -0.00431
       7 -> 22        -0.00097
       7 -> 25         0.00078
       7 -> 29        -0.00170
       7 -> 33         0.00032
       7 -> 49         0.00012
       7 -> 50         0.00012
       7 -> 53         0.00042
       8 ->  9         0.70937
       8 -> 13        -0.01010
       8 -> 18         0.02133
       8 -> 23        -0.00223
       8 -> 28         0.01082
       8 -> 31         0.00140
       8 -> 37         0.00057
       8 -> 48        -0.00031
       8 -> 52         0.00192
       3 <- 27         0.00038
       3 <- 38         0.00042
       3 <- 46         0.00339
       4 <- 27         0.00099
       4 <- 38         0.00022
       4 <- 46        -0.00093
       5 <- 13        -0.00044
       5 <- 18        -0.00055
       5 <- 23         0.00022
       5 <- 28        -0.00038
       5 <- 31         0.00029
       5 <- 37         0.00061
       6 <- 38        -0.00055
       6 <- 46         0.00089
       7 <- 12         0.00113
       7 <- 16        -0.01036
       7 <- 19         0.00453
       7 <- 22         0.00648
       7 <- 25         0.00059
       7 <- 29         0.00546
       7 <- 33        -0.00041
       7 <- 36         0.00049
       7 <- 40        -0.00032
       7 <- 42         0.00016
       7 <- 49        -0.00045
       7 <- 53         0.00146
       8 <-  9        -0.06100
       8 <- 18        -0.00711
       8 <- 28        -0.00257
       8 <- 31        -0.00071
       8 <- 37        -0.00033
       8 <- 48         0.00011
       8 <- 52         0.00049
 This state for optimization and/or second-order correction.
 Total Energy, E(TD-HF/TD-DFT) =  -114.331915424    
 Copying the excited state density for this state as the 1-particle RhoCI density.
 
 Excited State   2:      Singlet-A1     4.3245 eV  286.70 nm  f=0.0536  <S**2>=0.000
       3 -> 10        -0.01801
       3 -> 11        -0.00753
       3 -> 14         0.00610
       3 -> 15         0.00234
       3 -> 17        -0.00336
       3 -> 20        -0.00396
       3 -> 21        -0.00029
       3 -> 24         0.00154
       3 -> 26         0.00272
       3 -> 30        -0.00128
       3 -> 32         0.00276
       3 -> 34         0.00167
       3 -> 35        -0.00119
       3 -> 39         0.00065
       3 -> 43         0.00050
       3 -> 45         0.00050
       3 -> 47         0.00229
       3 -> 51         0.00128
       4 -> 10        -0.00595
       4 -> 11         0.01279
       4 -> 14         0.00352
       4 -> 15        -0.00923
       4 -> 17         0.00280
       4 -> 20         0.00379
       4 -> 21         0.00038
       4 -> 24        -0.00444
       4 -> 26         0.00437
       4 -> 30         0.00088
       4 -> 32        -0.00136
       4 -> 34        -0.00123
       4 -> 35         0.00038
       4 -> 41         0.00011
       4 -> 43        -0.00051
       4 -> 45        -0.00082
       4 -> 47        -0.00101
       4 -> 51        -0.00032
       4 -> 54         0.00013
       5 -> 12         0.01373
       5 -> 16         0.00682
       5 -> 19         0.00139
       5 -> 22         0.00749
       5 -> 25         0.00666
       5 -> 29         0.00013
       5 -> 33        -0.00279
       5 -> 36         0.00278
       5 -> 40        -0.00132
       5 -> 42         0.00077
       5 -> 49         0.00034
       5 -> 50        -0.00075
       6 -> 10         0.20602
       6 -> 11         0.07155
       6 -> 14        -0.07515
       6 -> 15        -0.04015
       6 -> 17        -0.01847
       6 -> 20        -0.00619
       6 -> 21         0.00978
       6 -> 24        -0.01124
       6 -> 26        -0.00515
       6 -> 30        -0.00676
       6 -> 32         0.00186
       6 -> 34         0.00141
       6 -> 35        -0.00015
       6 -> 39         0.00105
       6 -> 41        -0.00027
       6 -> 43         0.00086
       6 -> 45         0.00083
       6 -> 47         0.00103
       6 -> 51         0.00075
       6 -> 54        -0.00082
       7 ->  9         0.68104
       7 -> 13        -0.00327
       7 -> 18        -0.01488
       7 -> 23        -0.00131
       7 -> 28        -0.00015
       7 -> 31        -0.00318
       7 -> 37         0.00112
       7 -> 44        -0.00102
       7 -> 48         0.00026
       7 -> 52         0.00105
       8 -> 12        -0.00789
       8 -> 16         0.05402
       8 -> 19        -0.02201
       8 -> 22        -0.02010
       8 -> 25         0.00023
       8 -> 29        -0.01033
       8 -> 33         0.00158
       8 -> 36        -0.00168
       8 -> 40         0.00080
       8 -> 42        -0.00036
       8 -> 49         0.00041
       8 -> 50         0.00019
       8 -> 53        -0.00061
       3 <- 10        -0.01297
       3 <- 11        -0.00581
       3 <- 14         0.00477
       3 <- 15         0.00138
       3 <- 17        -0.00181
       3 <- 20        -0.00309
       3 <- 21        -0.00073
       3 <- 24         0.00082
       3 <- 26         0.00146
       3 <- 30        -0.00076
       3 <- 32         0.00249
       3 <- 34         0.00099
       3 <- 35        -0.00106
       3 <- 39         0.00060
       3 <- 43         0.00059
       3 <- 45         0.00068
       3 <- 47         0.00235
       3 <- 51         0.00127
       3 <- 54         0.00019
       4 <- 10        -0.00253
       4 <- 11         0.00851
       4 <- 14         0.00206
       4 <- 15        -0.00581
       4 <- 17         0.00153
       4 <- 20         0.00364
       4 <- 21         0.00024
       4 <- 24        -0.00318
       4 <- 26         0.00361
       4 <- 30         0.00017
       4 <- 32        -0.00160
       4 <- 34        -0.00106
       4 <- 35         0.00065
       4 <- 43        -0.00048
       4 <- 45        -0.00084
       4 <- 47        -0.00065
       4 <- 51        -0.00018
       4 <- 54         0.00010
       5 <- 12         0.00702
       5 <- 16         0.00388
       5 <- 19         0.00102
       5 <- 22         0.00496
       5 <- 25         0.00481
       5 <- 29         0.00022
       5 <- 33        -0.00224
       5 <- 36         0.00232
       5 <- 40        -0.00117
       5 <- 42         0.00065
       5 <- 49         0.00031
       5 <- 50        -0.00070
       6 <- 10         0.06593
       6 <- 11         0.02540
       6 <- 14        -0.03202
       6 <- 15        -0.01881
       6 <- 17        -0.00986
       6 <- 20        -0.00475
       6 <- 21         0.00610
       6 <- 24        -0.00711
       6 <- 26        -0.00293
       6 <- 30        -0.00473
       6 <- 32         0.00219
       6 <- 34         0.00166
       6 <- 35        -0.00056
       6 <- 39         0.00104
       6 <- 41        -0.00020
       6 <- 43         0.00072
       6 <- 45         0.00067
       6 <- 47         0.00061
       6 <- 51         0.00059
       6 <- 54        -0.00072
       7 <-  9        -0.12863
       7 <- 13         0.00570
       7 <- 18        -0.01293
       7 <- 23         0.00229
       7 <- 28        -0.00294
       7 <- 31        -0.00154
       7 <- 37         0.00048
       7 <- 44        -0.00069
       7 <- 48        -0.00029
       7 <- 52         0.00094
       8 <- 12        -0.00240
       8 <- 16         0.02232
       8 <- 19        -0.01079
       8 <- 22        -0.01189
       8 <- 29        -0.00781
       8 <- 33         0.00121
       8 <- 36        -0.00131
       8 <- 40         0.00065
       8 <- 42        -0.00029
       8 <- 49         0.00024
       8 <- 50         0.00016
       8 <- 53        -0.00057
 
 Excited State   3:      Singlet-B1     4.7469 eV  261.19 nm  f=0.0011  <S**2>=0.000
       3 ->  9        -0.02652
       3 -> 13         0.00131
       3 -> 18        -0.00416
       3 -> 23         0.00149
       3 -> 28        -0.00079
       3 -> 31        -0.00051
       3 -> 44         0.00025
       3 -> 48         0.00096
       3 -> 52         0.00088
       4 ->  9         0.01202
       4 -> 13        -0.00252
       4 -> 18         0.00016
       4 -> 23        -0.00226
       4 -> 28         0.00032
       4 -> 31        -0.00140
       4 -> 37        -0.00036
       4 -> 44         0.00012
       4 -> 48        -0.00090
       4 -> 52        -0.00047
       5 -> 27         0.00014
       5 -> 38         0.00197
       5 -> 46         0.00068
       6 ->  9         0.70082
       6 -> 13        -0.01858
       6 -> 18         0.01560
       6 -> 23        -0.01062
       6 -> 28         0.00381
       6 -> 31         0.00290
       6 -> 37        -0.00195
       6 -> 44        -0.00245
       6 -> 48         0.00383
       6 -> 52         0.00128
       7 -> 10         0.09120
       7 -> 11         0.02578
       7 -> 14        -0.02106
       7 -> 15        -0.00613
       7 -> 17        -0.00896
       7 -> 20         0.00331
       7 -> 21         0.00079
       7 -> 24        -0.00124
       7 -> 26        -0.00198
       7 -> 30        -0.00389
       7 -> 32        -0.00032
       7 -> 34         0.00092
       7 -> 35         0.00165
       7 -> 39         0.00017
       7 -> 41        -0.00035
       7 -> 43         0.00050
       7 -> 45         0.00014
       7 -> 47         0.00394
       7 -> 51         0.00120
       7 -> 54         0.00025
       8 -> 27         0.00027
       8 -> 46         0.00488
       3 <-  9        -0.00896
       3 <- 13        -0.00079
       3 <- 18        -0.00272
       3 <- 23        -0.00061
       3 <- 28        -0.00046
       3 <- 31        -0.00072
       3 <- 37         0.00013
       3 <- 44        -0.00018
       3 <- 48         0.00111
       3 <- 52         0.00073
       4 <-  9         0.00657
       4 <- 13        -0.00040
       4 <- 18         0.00171
       4 <- 23        -0.00074
       4 <- 28         0.00148
       4 <- 31        -0.00094
       4 <- 37        -0.00022
       4 <- 48        -0.00078
       4 <- 52        -0.00026
       5 <- 27        -0.00043
       5 <- 38         0.00165
       5 <- 46         0.00060
       6 <-  9        -0.02915
       6 <- 13         0.00179
       6 <- 18        -0.00368
       6 <- 23        -0.00018
       6 <- 28        -0.00361
       6 <- 31         0.00085
       6 <- 37        -0.00165
       6 <- 44        -0.00115
       6 <- 48         0.00343
       6 <- 52         0.00035
       7 <- 10        -0.02859
       7 <- 11        -0.01093
       7 <- 14         0.01481
       7 <- 15         0.01007
       7 <- 17         0.00212
       7 <- 20         0.00428
       7 <- 21        -0.00383
       7 <- 24         0.00434
       7 <- 26         0.00169
       7 <- 30         0.00148
       7 <- 32         0.00023
       7 <- 34         0.00108
       7 <- 35         0.00221
       7 <- 39         0.00051
       7 <- 43         0.00032
       7 <- 47         0.00364
       7 <- 51         0.00118
       7 <- 54         0.00100
       8 <- 27         0.00075
       8 <- 38         0.00019
       8 <- 46         0.00458
 
 Excited State   4:      Singlet-B2     5.0929 eV  243.44 nm  f=0.0069  <S**2>=0.000
       3 -> 12        -0.00145
       3 -> 16         0.00189
       3 -> 19        -0.00457
       3 -> 22         0.00079
       3 -> 25         0.00071
       3 -> 29        -0.00322
       3 -> 36         0.00200
       3 -> 40        -0.00174
       3 -> 42         0.00040
       3 -> 49        -0.00329
       3 -> 50         0.00021
       3 -> 53         0.00031
       4 -> 12         0.00046
       4 -> 16        -0.00223
       4 -> 19         0.00040
       4 -> 22         0.00254
       4 -> 25        -0.00127
       4 -> 29         0.00133
       4 -> 33        -0.00044
       4 -> 36         0.00051
       4 -> 40         0.00045
       4 -> 49         0.00060
       4 -> 50        -0.00012
       5 -> 10         0.01063
       5 -> 11         0.00354
       5 -> 14        -0.00778
       5 -> 15         0.00426
       5 -> 17        -0.00013
       5 -> 20         0.00216
       5 -> 21         0.00490
       5 -> 24         0.00175
       5 -> 26        -0.00124
       5 -> 30        -0.00197
       5 -> 32        -0.00195
       5 -> 34        -0.00081
       5 -> 35        -0.00020
       5 -> 39        -0.00095
       5 -> 41         0.00060
       5 -> 45         0.00011
       5 -> 47        -0.00069
       5 -> 51         0.00042
       5 -> 54        -0.00024
       6 -> 12         0.00287
       6 -> 16        -0.00223
       6 -> 19         0.00365
       6 -> 22        -0.00042
       6 -> 25        -0.00098
       6 -> 29        -0.00033
       6 -> 33         0.00012
       6 -> 36        -0.00183
       6 -> 40         0.00148
       6 -> 42        -0.00058
       6 -> 49         0.00159
       6 -> 53        -0.00042
       7 -> 27        -0.00066
       7 -> 38         0.00062
       7 -> 46         0.00367
       8 -> 10         0.68304
       8 -> 11         0.14767
       8 -> 14        -0.10112
       8 -> 15        -0.04037
       8 -> 17        -0.01587
       8 -> 20         0.00118
       8 -> 21         0.00752
       8 -> 24        -0.00686
       8 -> 26        -0.00542
       8 -> 30        -0.01128
       8 -> 32        -0.00371
       8 -> 34        -0.00185
       8 -> 35         0.00039
       8 -> 39        -0.00075
       8 -> 43        -0.00020
       8 -> 45         0.00126
       8 -> 47        -0.00451
       8 -> 51         0.00206
       8 -> 54        -0.00208
       3 <- 12        -0.00052
       3 <- 16         0.00057
       3 <- 19        -0.00217
       3 <- 22         0.00095
       3 <- 25         0.00063
       3 <- 29        -0.00128
       3 <- 36         0.00148
       3 <- 40        -0.00153
       3 <- 42         0.00032
       3 <- 49        -0.00337
       3 <- 50         0.00019
       3 <- 53         0.00085
       4 <- 16        -0.00211
       4 <- 22         0.00255
       4 <- 25        -0.00079
       4 <- 29         0.00133
       4 <- 33        -0.00049
       4 <- 36         0.00074
       4 <- 40         0.00017
       4 <- 49         0.00044
       5 <- 10        -0.00057
       5 <- 11        -0.00125
       5 <- 14        -0.00086
       5 <- 15         0.00342
       5 <- 17         0.00021
       5 <- 20         0.00071
       5 <- 21         0.00201
       5 <- 24         0.00219
       5 <- 26        -0.00033
       5 <- 30        -0.00045
       5 <- 32        -0.00024
       5 <- 34        -0.00015
       5 <- 39        -0.00036
       5 <- 41         0.00063
       5 <- 43         0.00010
       5 <- 45         0.00036
       5 <- 47        -0.00063
       5 <- 51         0.00023
       6 <- 12        -0.00024
       6 <- 16         0.00654
       6 <- 19        -0.00308
       6 <- 22        -0.00469
       6 <- 25        -0.00081
       6 <- 29        -0.00545
       6 <- 33         0.00044
       6 <- 36        -0.00178
       6 <- 40         0.00151
       6 <- 42        -0.00065
       6 <- 49         0.00188
       6 <- 53        -0.00125
       7 <- 27        -0.00065
       7 <- 38         0.00050
       7 <- 46         0.00308
       8 <- 10        -0.02588
       8 <- 11        -0.01018
       8 <- 14         0.01056
       8 <- 15         0.00308
       8 <- 17         0.00086
       8 <- 20        -0.00277
       8 <- 21        -0.00201
       8 <- 24         0.00159
       8 <- 26         0.00175
       8 <- 30        -0.00030
       8 <- 32         0.00292
       8 <- 34         0.00118
       8 <- 35        -0.00050
       8 <- 39         0.00147
       8 <- 41         0.00042
       8 <- 43         0.00047
       8 <- 45         0.00202
       8 <- 47        -0.00353
       8 <- 51         0.00137
       8 <- 54        -0.00055
 
 Excited State   5:      Singlet-B1     6.0773 eV  204.01 nm  f=0.0079  <S**2>=0.000
       3 ->  9        -0.01298
       3 -> 13         0.00075
       3 -> 18        -0.00304
       3 -> 23         0.00091
       3 -> 28        -0.00329
       3 -> 31        -0.00161
       3 -> 44         0.00047
       3 -> 48        -0.00240
       4 ->  9        -0.03378
       4 -> 13         0.00632
       4 -> 18         0.00137
       4 -> 23         0.00464
       4 -> 28         0.00184
       4 -> 31        -0.00012
       4 -> 37         0.00034
       4 -> 44        -0.00047
       4 -> 48         0.00061
       4 -> 52         0.00012
       5 -> 27        -0.00721
       5 -> 38        -0.00315
       5 -> 46         0.00048
       6 ->  9        -0.09465
       6 -> 13        -0.00258
       6 -> 18         0.00216
       6 -> 23        -0.00076
       6 -> 28         0.00334
       6 -> 31        -0.00365
       6 -> 37         0.00196
       6 -> 44         0.00014
       6 -> 48         0.00075
       6 -> 52        -0.00055
       7 -> 10         0.68135
       7 -> 11         0.12666
       7 -> 14        -0.09064
       7 -> 15        -0.04525
       7 -> 17        -0.00979
       7 -> 20        -0.00447
       7 -> 21         0.00379
       7 -> 24        -0.00992
       7 -> 26        -0.00734
       7 -> 30        -0.00679
       7 -> 32        -0.00186
       7 -> 34        -0.00399
       7 -> 35        -0.00181
       7 -> 39        -0.00066
       7 -> 43         0.00062
       7 -> 45         0.00090
       7 -> 47         0.00188
       7 -> 51         0.00095
       7 -> 54        -0.00141
       8 -> 27         0.00105
       8 -> 38         0.00029
       8 -> 46         0.00222
       3 <-  9        -0.00277
       3 <- 13         0.00065
       3 <- 18        -0.00123
       3 <- 23         0.00061
       3 <- 28        -0.00206
       3 <- 31        -0.00031
       3 <- 37        -0.00021
       3 <- 44         0.00020
       3 <- 48        -0.00258
       3 <- 52         0.00041
       4 <-  9        -0.01133
       4 <- 13         0.00248
       4 <- 18         0.00051
       4 <- 23         0.00236
       4 <- 28         0.00169
       4 <- 31        -0.00025
       4 <- 37         0.00041
       4 <- 44        -0.00069
       4 <- 48         0.00019
       4 <- 52         0.00010
       5 <- 27        -0.00483
       5 <- 38        -0.00242
       5 <- 46         0.00044
       6 <-  9        -0.02563
       6 <- 18        -0.00370
       6 <- 23         0.00032
       6 <- 28        -0.00063
       6 <- 31        -0.00420
       6 <- 37         0.00170
       6 <- 44         0.00034
       6 <- 48         0.00114
       6 <- 52        -0.00111
       7 <- 10        -0.01846
       7 <- 11        -0.00709
       7 <- 14         0.00753
       7 <- 15        -0.00121
       7 <- 17         0.00106
       7 <- 20        -0.00354
       7 <- 21        -0.00215
       7 <- 24        -0.00120
       7 <- 26         0.00056
       7 <- 32         0.00167
       7 <- 34        -0.00165
       7 <- 35        -0.00203
       7 <- 39         0.00043
       7 <- 41         0.00022
       7 <- 43         0.00067
       7 <- 45         0.00085
       7 <- 47         0.00146
       7 <- 51         0.00045
       7 <- 54        -0.00057
       8 <- 27         0.00066
       8 <- 38         0.00012
       8 <- 46         0.00160
 
 Excited State   6:      Singlet-B2     6.9656 eV  178.00 nm  f=0.0014  <S**2>=0.000
       3 -> 12         0.00160
       3 -> 16         0.00108
       3 -> 19        -0.00039
       3 -> 22        -0.00029
       3 -> 25         0.00078
       3 -> 29        -0.00179
       3 -> 33         0.00016
       3 -> 36         0.00019
       3 -> 40        -0.00021
       3 -> 49        -0.00037
       4 -> 12        -0.00091
       4 -> 16         0.00094
       4 -> 19         0.00087
       4 -> 22        -0.00120
       4 -> 25         0.00091
       4 -> 29         0.00085
       4 -> 36         0.00014
       5 -> 10         0.00214
       5 -> 11        -0.00707
       5 -> 14         0.00449
       5 -> 15         0.00383
       5 -> 17         0.00036
       5 -> 20         0.00093
       5 -> 21        -0.00053
       5 -> 24        -0.00050
       5 -> 26        -0.00013
       5 -> 30        -0.00025
       5 -> 32        -0.00117
       5 -> 34         0.00059
       5 -> 35        -0.00020
       5 -> 39        -0.00036
       5 -> 41        -0.00025
       5 -> 43        -0.00025
       5 -> 45         0.00021
       5 -> 47        -0.00019
       5 -> 51         0.00015
       6 -> 12        -0.00286
       6 -> 16        -0.00083
       6 -> 19        -0.00023
       6 -> 22        -0.00048
       6 -> 25         0.00012
       6 -> 29        -0.00047
       6 -> 36         0.00033
       6 -> 40         0.00016
       6 -> 42        -0.00011
       6 -> 49         0.00087
       7 -> 27        -0.00052
       7 -> 38        -0.00035
       7 -> 46         0.00109
       8 -> 10        -0.14647
       8 -> 11         0.69060
       8 -> 14         0.02794
       8 -> 15        -0.02333
       8 -> 17        -0.00356
       8 -> 20         0.01337
       8 -> 21         0.00307
       8 -> 24        -0.00263
       8 -> 26         0.00231
       8 -> 30        -0.00172
       8 -> 32        -0.00048
       8 -> 34        -0.00050
       8 -> 35        -0.00047
       8 -> 39         0.00012
       8 -> 41        -0.00018
       8 -> 43         0.00032
       8 -> 45         0.00068
       8 -> 47        -0.00135
       8 -> 51         0.00060
       8 -> 54        -0.00023
       3 <- 16         0.00059
       3 <- 19        -0.00041
       3 <- 22        -0.00036
       3 <- 25         0.00031
       3 <- 29        -0.00098
       3 <- 36         0.00013
       3 <- 40        -0.00017
       3 <- 49        -0.00036
       3 <- 53         0.00015
       4 <- 12         0.00051
       4 <- 16         0.00076
       4 <- 19         0.00085
       4 <- 22        -0.00069
       4 <- 25         0.00064
       4 <- 29         0.00059
       4 <- 42        -0.00013
       4 <- 50        -0.00013
       5 <- 10        -0.00176
       5 <- 11        -0.00019
       5 <- 14         0.00105
       5 <- 15        -0.00015
       5 <- 20         0.00018
       5 <- 21         0.00022
       5 <- 24        -0.00083
       5 <- 26         0.00043
       5 <- 30        -0.00013
       5 <- 32        -0.00042
       5 <- 34         0.00064
       5 <- 39        -0.00016
       5 <- 41        -0.00015
       5 <- 43        -0.00017
       5 <- 45         0.00020
       5 <- 47        -0.00023
       5 <- 51         0.00012
       6 <- 12        -0.00043
       6 <- 16         0.00054
       6 <- 19        -0.00045
       6 <- 22        -0.00053
       6 <- 29        -0.00077
       6 <- 36         0.00019
       6 <- 40         0.00019
       6 <- 42        -0.00014
       6 <- 49         0.00078
       6 <- 53        -0.00011
       7 <- 27        -0.00038
       7 <- 38        -0.00025
       7 <- 46         0.00094
       8 <- 10        -0.00379
       8 <- 11        -0.00201
       8 <- 14         0.00107
       8 <- 15         0.00087
       8 <- 17        -0.00101
       8 <- 20        -0.00217
       8 <- 21         0.00012
       8 <- 24         0.00059
       8 <- 26         0.00014
       8 <- 30        -0.00055
       8 <- 32         0.00141
       8 <- 34         0.00057
       8 <- 35        -0.00102
       8 <- 39         0.00041
       8 <- 41         0.00014
       8 <- 43         0.00019
       8 <- 45         0.00054
       8 <- 47        -0.00107
       8 <- 51         0.00051
 
 Excited State   7:      Singlet-A2     7.2204 eV  171.71 nm  f=0.0000  <S**2>=0.000
       3 -> 27        -0.00123
       3 -> 38        -0.00040
       3 -> 46         0.00023
       4 -> 27        -0.00593
       4 -> 38         0.00044
       4 -> 46        -0.00029
       5 ->  9         0.70618
       5 -> 13        -0.02621
       5 -> 18         0.00492
       5 -> 23        -0.01551
       5 -> 28         0.00108
       5 -> 31        -0.00167
       5 -> 37        -0.00577
       5 -> 44        -0.00216
       6 -> 27        -0.00093
       6 -> 38         0.00226
       6 -> 46         0.00023
       7 -> 12         0.01412
       7 -> 16         0.01347
       7 -> 19         0.00105
       7 -> 22        -0.00469
       7 -> 25         0.00024
       7 -> 29        -0.00063
       7 -> 33        -0.00048
       7 -> 36        -0.00024
       7 -> 42        -0.00029
       7 -> 49        -0.00012
       7 -> 50        -0.00080
       8 ->  9        -0.00466
       8 -> 13         0.01085
       8 -> 18         0.00405
       8 -> 23         0.00216
       8 -> 28         0.00083
       8 -> 31         0.00087
       8 -> 37         0.00146
       8 -> 44         0.00019
       8 -> 52         0.00027
       3 <- 27        -0.00138
       3 <- 38        -0.00052
       3 <- 46         0.00030
       4 <- 27        -0.00537
       5 <-  9        -0.01353
       5 <- 13         0.00203
       5 <- 28         0.00204
       5 <- 31        -0.00306
       5 <- 37        -0.00346
       5 <- 44        -0.00044
       5 <- 48        -0.00019
       6 <- 27        -0.00142
       6 <- 38         0.00166
       6 <- 46         0.00012
       7 <- 12        -0.00290
       7 <- 16        -0.00062
       7 <- 19        -0.00056
       7 <- 22        -0.00382
       7 <- 25        -0.00329
       7 <- 33         0.00037
       7 <- 36        -0.00081
       7 <- 40         0.00045
       7 <- 42        -0.00076
       7 <- 49        -0.00027
       7 <- 50        -0.00091
       7 <- 53         0.00015
       8 <-  9         0.00027
       8 <- 13        -0.00045
       8 <- 18        -0.00131
       8 <- 23        -0.00029
       8 <- 28        -0.00157
       8 <- 31         0.00096
       8 <- 37         0.00075
 
 Excited State   8:      Singlet-B1     7.7525 eV  159.93 nm  f=0.0796  <S**2>=0.000
       3 ->  9        -0.00247
       3 -> 13         0.00199
       3 -> 18        -0.00089
       3 -> 23        -0.00011
       3 -> 28        -0.00202
       3 -> 31        -0.00096
       3 -> 44        -0.00021
       3 -> 48        -0.00025
       3 -> 52        -0.00019
       4 ->  9        -0.00290
       4 -> 13         0.00232
       4 -> 18         0.00029
       4 -> 23        -0.00107
       4 -> 28         0.00046
       4 -> 31         0.00058
       4 -> 37        -0.00038
       4 -> 44        -0.00044
       4 -> 48        -0.00013
       5 -> 27        -0.00116
       6 ->  9        -0.00842
       6 -> 13        -0.00243
       6 -> 18        -0.00053
       6 -> 28         0.00046
       6 -> 31        -0.00080
       6 -> 37         0.00010
       6 -> 44         0.00034
       6 -> 48         0.00035
       6 -> 52        -0.00012
       7 -> 10        -0.13252
       7 -> 11         0.69323
       7 -> 14         0.00209
       7 -> 15        -0.04172
       7 -> 17        -0.00409
       7 -> 20         0.00412
       7 -> 21         0.00423
       7 -> 24        -0.00764
       7 -> 26         0.00119
       7 -> 30        -0.00073
       7 -> 34        -0.00067
       7 -> 35        -0.00109
       7 -> 41        -0.00027
       7 -> 43         0.00043
       7 -> 45         0.00052
       7 -> 47         0.00045
       7 -> 51         0.00018
       7 -> 54        -0.00026
       8 -> 38        -0.00024
       8 -> 46         0.00059
       3 <-  9         0.00010
       3 <- 18        -0.00058
       3 <- 23        -0.00042
       3 <- 28        -0.00132
       3 <- 31        -0.00039
       3 <- 37        -0.00010
       3 <- 48        -0.00026
       4 <-  9        -0.00459
       4 <- 13         0.00098
       4 <- 18         0.00021
       4 <- 23        -0.00025
       4 <- 28         0.00027
       4 <- 31         0.00056
       4 <- 37        -0.00029
       5 <- 27        -0.00062
       5 <- 46         0.00012
       6 <-  9        -0.00494
       6 <- 13         0.00074
       6 <- 18        -0.00073
       6 <- 23         0.00116
       6 <- 31        -0.00079
       6 <- 37         0.00019
       6 <- 44         0.00042
       6 <- 48         0.00041
       6 <- 52        -0.00018
       7 <- 10        -0.00356
       7 <- 11        -0.00281
       7 <- 15         0.00038
       7 <- 17        -0.00013
       7 <- 20        -0.00391
       7 <- 21        -0.00042
       7 <- 26        -0.00126
[...]
  47        4PZ        -0.00434   0.00000   0.01864   0.02735   0.01869
  48        5S         -0.00229   0.00000   0.00836   0.01237   0.00985
  49        5PX         0.00000   0.00000   0.00000   0.00000   0.00000
  50        5PY         0.00000   0.00000  -0.00886  -0.01774  -0.01834
  51        5PZ        -0.00001   0.00000   0.00171   0.00219  -0.00031
  52        6D 0        0.00024   0.00000  -0.00044  -0.00079  -0.00120
  53        6D+1        0.00000   0.00000   0.00000   0.00000   0.00000
  54        6D-1        0.00000   0.00000  -0.00090  -0.00087   0.00100
  55        6D+2        0.00002   0.00000  -0.00003  -0.00001   0.00000
  56        6D-2        0.00000   0.00000   0.00000   0.00000   0.00000
                          26        27        28        29        30
  26        4PX         0.00027
  27        4PY         0.00000   0.00105
  28        4PZ         0.00000  -0.00046   0.00064
  29 3   H  1S          0.00000  -0.00179  -0.00294   0.07749
  30        2S          0.00000  -0.00159  -0.00468   0.10952   0.15760
  31        3S          0.00000   0.00087  -0.00253   0.03189   0.05200
  32        4PX         0.00027   0.00000   0.00000   0.00000   0.00000
  33        4PY         0.00000  -0.00059  -0.00008   0.00812   0.01087
  34        4PZ         0.00000   0.00008   0.00003   0.00445   0.00622
  35 4   O  1S          0.00000   0.00006  -0.00035   0.00112   0.00020
  36        2S          0.00000   0.00014  -0.00046   0.00179   0.00033
  37        2PX         0.00572   0.00000   0.00000   0.00000   0.00000
  38        2PY         0.00000  -0.00105   0.00075   0.01163   0.03394
  39        2PZ         0.00000  -0.00164  -0.00471   0.01622   0.02399
  40        3S          0.00000  -0.00044   0.00087  -0.00585  -0.00159
  41        3PX         0.00827   0.00000   0.00000   0.00000   0.00000
  42        3PY         0.00000  -0.00152   0.00109   0.01637   0.04809
  43        3PZ         0.00000  -0.00237  -0.00706   0.02380   0.03526
  44        4S          0.00000  -0.00067  -0.00035  -0.00137   0.00371
  45        4PX         0.00744   0.00000   0.00000   0.00000   0.00000
  46        4PY         0.00000  -0.00123   0.00082   0.01688   0.04665
  47        4PZ         0.00000  -0.00193  -0.00512   0.01864   0.02735
  48        5S          0.00000  -0.00070  -0.00289   0.00836   0.01237
  49        5PX         0.00126   0.00000   0.00000   0.00000   0.00000
  50        5PY         0.00000   0.00012  -0.00026   0.00886   0.01774
  51        5PZ         0.00000  -0.00036   0.00029   0.00171   0.00219
  52        6D 0        0.00000  -0.00002   0.00040  -0.00044  -0.00079
  53        6D+1       -0.00028   0.00000   0.00000   0.00000   0.00000
  54        6D-1        0.00000   0.00012  -0.00012   0.00090   0.00087
  55        6D+2        0.00000  -0.00000   0.00001  -0.00003  -0.00001
  56        6D-2        0.00000   0.00000   0.00000   0.00000   0.00000
                          31        32        33        34        35
  31        3S          0.03232
  32        4PX         0.00000   0.00027
  33        4PY         0.00190   0.00000   0.00105
  34        4PZ         0.00096   0.00000   0.00046   0.00064
  35 4   O  1S         -0.00014   0.00000  -0.00006  -0.00035   0.64168
  36        2S         -0.00030   0.00000  -0.00014  -0.00046   0.57231
  37        2PX         0.00000   0.00572   0.00000   0.00000   0.00000
  38        2PY         0.05649   0.00000  -0.00105  -0.00075   0.00000
  39        2PZ         0.01700   0.00000   0.00164  -0.00471  -0.00941
  40        3S          0.00152   0.00000   0.00044   0.00087  -0.14788
  41        3PX         0.00000   0.00827   0.00000   0.00000   0.00000
  42        3PY         0.08049   0.00000  -0.00152  -0.00109   0.00000
  43        3PZ         0.02533   0.00000   0.00237  -0.00706  -0.01088
  44        4S          0.00497   0.00000   0.00067  -0.00035  -0.14020
  45        4PX         0.00000   0.00744   0.00000   0.00000   0.00000
  46        4PY         0.07404   0.00000  -0.00123  -0.00082   0.00000
  47        4PZ         0.01869   0.00000   0.00193  -0.00512  -0.00766
  48        5S          0.00985   0.00000   0.00070  -0.00289   0.00856
  49        5PX         0.00000   0.00126   0.00000   0.00000   0.00000
  50        5PY         0.01834   0.00000   0.00012   0.00026   0.00000
  51        5PZ        -0.00031   0.00000   0.00036   0.00029  -0.00540
  52        6D 0       -0.00120   0.00000   0.00002   0.00040  -0.00089
  53        6D+1        0.00000  -0.00028   0.00000   0.00000   0.00000
  54        6D-1       -0.00100   0.00000   0.00012   0.00012   0.00000
  55        6D+2        0.00000   0.00000   0.00000   0.00001  -0.00082
  56        6D-2        0.00000  -0.00000   0.00000   0.00000   0.00000
                          36        37        38        39        40
  36        2S          0.52860
  37        2PX         0.00000   0.12017
  38        2PY         0.00000   0.00000   0.19294
  39        2PZ        -0.01466   0.00000   0.00000   0.09617
  40        3S         -0.24803   0.00000   0.00000   0.04457   0.77653
  41        3PX         0.00000   0.17370   0.00000   0.00000   0.00000
  42        3PY         0.00000   0.00000   0.27529   0.00000   0.00000
  43        3PZ        -0.01803   0.00000   0.00000   0.14311   0.05923
  44        4S         -0.21897   0.00000   0.00000   0.05715   0.63337
  45        4PX         0.00000   0.15639   0.00000   0.00000   0.00000
  46        4PY         0.00000   0.00000   0.24956   0.00000   0.00000
  47        4PZ        -0.01325   0.00000   0.00000   0.10534   0.04530
  48        5S          0.00869   0.00000   0.00000   0.05448  -0.00728
  49        5PX         0.00000   0.02640   0.00000   0.00000   0.00000
  50        5PY         0.00000   0.00000   0.05242   0.00000   0.00000
  51        5PZ        -0.00772   0.00000   0.00000  -0.00141   0.01966
  52        6D 0       -0.00133  -0.00000  -0.00000  -0.00670   0.00343
  53        6D+1        0.00000  -0.00587   0.00000   0.00000  -0.00000
  54        6D-1        0.00000   0.00000  -0.00564   0.00000  -0.00000
  55        6D+2       -0.00132   0.00000   0.00000   0.00018   0.00391
  56        6D-2        0.00000   0.00000   0.00000   0.00000   0.00000
                          41        42        43        44        45
  41        3PX         0.25106
  42        3PY         0.00000   0.39278
  43        3PZ         0.00000   0.00000   0.21305
  44        4S          0.00000   0.00000   0.07931   0.52184
  45        4PX         0.22604   0.00000   0.00000   0.00000   0.20351
  46        4PY         0.00000   0.35606   0.00000   0.00000   0.00000
  47        4PZ         0.00000   0.00000   0.15679   0.05971   0.00000
  48        5S          0.00000   0.00000   0.08142   0.00603   0.00000
  49        5PX         0.03816   0.00000   0.00000   0.00000   0.03436
  50        5PY         0.00000   0.07477   0.00000   0.00000   0.00000
  51        5PZ         0.00000   0.00000  -0.00233   0.01550   0.00000
  52        6D 0       -0.00000  -0.00000  -0.01005   0.00126  -0.00000
  53        6D+1       -0.00849   0.00000   0.00000  -0.00000  -0.00764
  54        6D-1        0.00000  -0.00805   0.00000  -0.00000   0.00000
  55        6D+2        0.00000   0.00000   0.00024   0.00319   0.00000
  56        6D-2        0.00000   0.00000   0.00000   0.00000   0.00000
                          46        47        48        49        50
  46        4PY         0.32287
  47        4PZ         0.00000   0.11544
  48        5S          0.00000   0.05981   0.03244
  49        5PX         0.00000   0.00000   0.00000   0.00580
  50        5PY         0.06803   0.00000   0.00000   0.00000   0.01495
  51        5PZ         0.00000  -0.00158  -0.00182   0.00000   0.00000
  52        6D 0       -0.00000  -0.00735  -0.00412  -0.00000  -0.00000
  53        6D+1        0.00000   0.00000   0.00000  -0.00129   0.00000
  54        6D-1       -0.00724   0.00000   0.00000   0.00000  -0.00138
  55        6D+2        0.00000   0.00018  -0.00006   0.00000   0.00000
  56        6D-2        0.00000   0.00000   0.00000   0.00000   0.00000
                          51        52        53        54        55
  51        5PZ         0.00077
  52        6D 0        0.00034   0.00055
  53        6D+1       -0.00000   0.00000   0.00029
  54        6D-1       -0.00000   0.00000   0.00000   0.00020
  55        6D+2        0.00010   0.00002   0.00000   0.00000   0.00002
  56        6D-2        0.00000   0.00000   0.00000   0.00000   0.00000
                          56
  56        6D-2        0.00000
          Condensed to atoms (all electrons):
               1          2          3          4
     1  C    5.083686   0.356139   0.356139   0.281499
     2  H    0.356139   0.529981  -0.051791  -0.020379
     3  H    0.356139  -0.051791   0.529981  -0.020379
     4  O    0.281499  -0.020379  -0.020379   8.053899
 Mulliken charges:
               1
     1  C   -0.077462
     2  H    0.186051
     3  H    0.186051
     4  O   -0.294639
 Sum of Mulliken charges =  -0.00000
 Mulliken charges with hydrogens summed into heavy atoms:
               1
     1  C    0.294639
     4  O   -0.294639
 Electronic spatial extent (au):  <R**2>=             83.3234
 Charge=             -0.0000 electrons
 Dipole moment (field-independent basis, Debye):
    X=             -0.0000    Y=              0.0000    Z=             -3.9439  Tot=              3.9439
 Quadrupole moment (field-independent basis, Debye-Ang):
   XX=            -12.8821   YY=            -11.9521   ZZ=            -11.0326
   XY=              0.0000   XZ=              0.0000   YZ=              0.0000
 Traceless Quadrupole moment (field-independent basis, Debye-Ang):
   XX=             -0.9265   YY=              0.0035   ZZ=              0.9230
   XY=              0.0000   XZ=              0.0000   YZ=              0.0000
 Octapole moment (field-independent basis, Debye-Ang**2):
  XXX=              0.0000  YYY=              0.0000  ZZZ=             -2.5819  XYY=             -0.0000
  XXY=             -0.0000  XXZ=              0.5021  XZZ=             -0.0000  YZZ=             -0.0000
  YYZ=             -2.4334  XYZ=             -0.0000
 Hexadecapole moment (field-independent basis, Debye-Ang**3):
 XXXX=            -13.6965 YYYY=            -18.4441 ZZZZ=            -69.8915 XXXY=             -0.0000
 XXXZ=             -0.0000 YYYX=             -0.0000 YYYZ=             -0.0000 ZZZX=             -0.0000
 ZZZY=              0.0000 XXYY=             -5.8011 XXZZ=            -14.8141 YYZZ=            -13.2880
 XXYZ=              0.0000 YYXZ=              0.0000 ZZXY=              0.0000
 N-N= 2.442435194178D+01 E-N=-3.173101669632D+02  KE= 1.133431037208D+02
 Symmetry A1   KE= 1.028172094837D+02
 Symmetry A2   KE= 1.745578338969D-35
 Symmetry B1   KE= 3.664052049211D+00
 Symmetry B2   KE= 6.861842187893D+00
 Leave Link  601 at Fri Sep 17 10:53:03 2021, MaxMem=   268435456 cpu:               0.0 elap:               0.0
 (Enter /software/gaussian/g16-a03/l9999.exe)
 Electronic transition elements 
                 1             2             3             4             5 
      1  -0.114332D+03 -0.114234D+03 -0.114218D+03 -0.114206D+03 -0.114170D+03
      2   0.000000D+00  0.000000D+00  0.983231D-01  0.000000D+00 -0.230998D+00
      3   0.000000D+00  0.000000D+00  0.000000D+00 -0.234839D+00  0.000000D+00
      4   0.000000D+00  0.711440D+00  0.000000D+00  0.000000D+00  0.000000D+00
      5   0.000000D+00  0.000000D+00 -0.366873D-01  0.000000D+00  0.427376D-01
      6   0.000000D+00  0.000000D+00  0.000000D+00  0.418172D-01  0.000000D+00
      7   0.000000D+00 -0.100888D+00  0.000000D+00  0.000000D+00  0.000000D+00
      8   0.000000D+00  0.000000D+00  0.000000D+00  0.346222D+00  0.000000D+00
      9   0.000000D+00  0.000000D+00 -0.178893D+01  0.000000D+00 -0.578883D+00
     10   0.100187D+01  0.000000D+00  0.000000D+00  0.000000D+00  0.000000D+00
     11   0.000000D+00  0.676385D-01  0.000000D+00  0.000000D+00  0.000000D+00
     12   0.000000D+00 -0.602007D-02  0.000000D+00  0.000000D+00  0.000000D+00
     13   0.000000D+00 -0.363923D-01  0.000000D+00  0.000000D+00  0.000000D+00
     14  -0.317017D-01  0.000000D+00  0.000000D+00  0.000000D+00  0.000000D+00
     15   0.000000D+00  0.000000D+00 -0.111928D+00  0.000000D+00  0.180099D+00
     16   0.000000D+00  0.000000D+00  0.000000D+00  0.295186D-02  0.000000D+00
                 6             7             8             9            10 
      1  -0.114137D+03 -0.114128D+03 -0.114108D+03 -0.114098D+03 -0.114077D+03
      2   0.000000D+00  0.000000D+00 -0.647551D+00  0.000000D+00  0.000000D+00
      3  -0.919789D-01  0.000000D+00  0.000000D+00  0.000000D+00  0.000000D+00
      4   0.000000D+00  0.000000D+00  0.000000D+00 -0.289407D+00  0.000000D+00
      5   0.000000D+00  0.000000D+00  0.187269D+00  0.000000D+00  0.000000D+00
      6   0.193380D-01  0.000000D+00  0.000000D+00  0.000000D+00  0.000000D+00
      7   0.000000D+00  0.000000D+00  0.000000D+00  0.831681D-01  0.000000D+00
      8  -0.361278D+00  0.000000D+00  0.000000D+00  0.000000D+00  0.000000D+00
      9   0.000000D+00  0.000000D+00 -0.180722D+00  0.000000D+00  0.000000D+00
     10   0.000000D+00 -0.102258D+01  0.000000D+00  0.000000D+00  0.481546D-02
     11   0.000000D+00  0.000000D+00  0.000000D+00  0.369677D-01  0.000000D+00
     12   0.000000D+00  0.000000D+00  0.000000D+00  0.575485D-01  0.000000D+00
     13   0.000000D+00  0.000000D+00  0.000000D+00 -0.215714D+00  0.000000D+00
     14   0.000000D+00  0.176138D+00  0.000000D+00  0.000000D+00  0.766344D-01
     15   0.000000D+00  0.000000D+00 -0.131377D+00  0.000000D+00  0.000000D+00
     16   0.287317D+00  0.000000D+00  0.000000D+00  0.000000D+00  0.000000D+00
                11            12            13            14            15 
      1  -0.114073D+03 -0.114070D+03 -0.114048D+03 -0.114042D+03 -0.114034D+03
      2   0.000000D+00  0.000000D+00  0.000000D+00 -0.314035D+00  0.000000D+00
      3  -0.365589D+00  0.000000D+00  0.000000D+00  0.000000D+00  0.000000D+00
      4   0.000000D+00  0.000000D+00  0.359833D+00  0.000000D+00 -0.965939D+00
      5   0.000000D+00  0.000000D+00  0.000000D+00  0.124090D+00  0.000000D+00
      6   0.121300D+00  0.000000D+00  0.000000D+00  0.000000D+00  0.000000D+00
      7   0.000000D+00  0.000000D+00 -0.121994D+00  0.000000D+00  0.350602D+00
      8  -0.559461D+00  0.000000D+00  0.000000D+00  0.000000D+00  0.000000D+00
      9   0.000000D+00  0.000000D+00  0.000000D+00  0.329090D+00  0.000000D+00
     10   0.000000D+00  0.255241D-01  0.000000D+00  0.000000D+00  0.000000D+00
     11   0.000000D+00  0.000000D+00  0.796611D+00  0.000000D+00  0.163436D+00
     12   0.000000D+00  0.000000D+00  0.521074D-01  0.000000D+00  0.449875D-01
     13   0.000000D+00  0.000000D+00 -0.665826D-01  0.000000D+00 -0.335774D+00
     14   0.000000D+00  0.280746D+00  0.000000D+00  0.000000D+00  0.000000D+00
     15   0.000000D+00  0.000000D+00  0.000000D+00  0.322758D+00  0.000000D+00
     16   0.205889D+00  0.000000D+00  0.000000D+00  0.000000D+00  0.000000D+00
                16            17            18            19            20 
      1  -0.114020D+03 -0.114015D+03 -0.113994D+03 -0.113989D+03 -0.113982D+03
      2   0.000000D+00  0.000000D+00 -0.422154D+00  0.000000D+00  0.000000D+00
      3  -0.300262D+00  0.000000D+00  0.000000D+00  0.277950D+00 -0.136294D+00
      4   0.000000D+00 -0.459169D+00  0.000000D+00  0.000000D+00  0.000000D+00
      5   0.000000D+00  0.000000D+00  0.151776D+00  0.000000D+00  0.000000D+00
      6   0.115050D+00  0.000000D+00  0.000000D+00 -0.117124D+00  0.527497D-01
      7   0.000000D+00  0.184026D+00  0.000000D+00  0.000000D+00  0.000000D+00
      8   0.390301D+00  0.000000D+00  0.000000D+00  0.639718D+00  0.307061D+00
      9   0.000000D+00  0.000000D+00  0.211515D+00  0.000000D+00  0.000000D+00
     10   0.000000D+00  0.000000D+00  0.000000D+00  0.000000D+00  0.000000D+00
     11   0.000000D+00  0.270804D+00  0.000000D+00  0.000000D+00  0.000000D+00
     12   0.000000D+00  0.295398D+00  0.000000D+00  0.000000D+00  0.000000D+00
     13   0.000000D+00  0.563739D+00  0.000000D+00  0.000000D+00  0.000000D+00
     14   0.000000D+00  0.000000D+00  0.000000D+00  0.000000D+00  0.000000D+00
     15   0.000000D+00  0.000000D+00 -0.515891D-01  0.000000D+00  0.000000D+00
     16  -0.612266D-01  0.000000D+00  0.000000D+00  0.637386D+00 -0.412196D-02
                21            22            23            24            25 
      1  -0.113982D+03 -0.113982D+03 -0.113968D+03 -0.113964D+03 -0.113947D+03
      2   0.000000D+00  0.000000D+00  0.000000D+00 -0.103521D+00  0.000000D+00
      3   0.000000D+00  0.000000D+00 -0.704758D-01  0.000000D+00  0.000000D+00
      4  -0.100510D+01  0.000000D+00  0.000000D+00  0.000000D+00  0.000000D+00
      5   0.000000D+00  0.000000D+00  0.000000D+00  0.394692D-01  0.000000D+00
      6   0.000000D+00  0.000000D+00  0.221464D-01  0.000000D+00  0.000000D+00
      7   0.414501D+00  0.000000D+00  0.000000D+00  0.000000D+00  0.000000D+00
      8   0.000000D+00  0.000000D+00  0.109385D+00  0.000000D+00  0.000000D+00
      9   0.000000D+00  0.000000D+00  0.000000D+00  0.100966D+00  0.000000D+00
     10   0.000000D+00 -0.634666D-01  0.000000D+00  0.000000D+00 -0.326071D-01
     11  -0.604703D-01  0.000000D+00  0.000000D+00  0.000000D+00  0.000000D+00
     12  -0.405102D+00  0.000000D+00  0.000000D+00  0.000000D+00  0.000000D+00
     13  -0.160980D+00  0.000000D+00  0.000000D+00  0.000000D+00  0.000000D+00
     14   0.000000D+00 -0.272418D+00  0.000000D+00  0.000000D+00  0.377612D+00
     15   0.000000D+00  0.000000D+00  0.000000D+00 -0.145840D+00  0.000000D+00
     16   0.000000D+00  0.000000D+00  0.440280D+00  0.000000D+00  0.000000D+00
                26            27            28            29            30 
      1  -0.113943D+03 -0.113932D+03 -0.113928D+03 -0.113913D+03 -0.113908D+03
      2   0.000000D+00  0.111605D+00  0.000000D+00  0.000000D+00  0.000000D+00
      3  -0.686832D+00  0.000000D+00  0.000000D+00  0.000000D+00  0.000000D+00
      4   0.000000D+00  0.000000D+00  0.108263D+01 -0.252249D+00  0.600536D+00
      5   0.000000D+00 -0.420887D-01  0.000000D+00  0.000000D+00  0.000000D+00
      6   0.304697D+00  0.000000D+00  0.000000D+00  0.000000D+00  0.000000D+00
      7   0.000000D+00  0.000000D+00 -0.487367D+00  0.111986D+00 -0.278548D+00
      8   0.847208D+00  0.000000D+00  0.000000D+00  0.000000D+00  0.000000D+00
      9   0.000000D+00  0.353107D-01  0.000000D+00  0.000000D+00  0.000000D+00
     10   0.000000D+00  0.000000D+00  0.000000D+00  0.000000D+00  0.000000D+00
     11   0.000000D+00  0.000000D+00 -0.287841D+00 -0.276142D+00 -0.326089D-01
     12   0.000000D+00  0.000000D+00  0.516762D+00  0.325207D+00  0.183971D+00
     13   0.000000D+00  0.000000D+00 -0.213989D+00  0.233624D+00  0.192072D+00
     14   0.000000D+00  0.000000D+00  0.000000D+00  0.000000D+00  0.000000D+00
     15   0.000000D+00  0.327095D+00  0.000000D+00  0.000000D+00  0.000000D+00
     16  -0.698955D+00  0.000000D+00  0.000000D+00  0.000000D+00  0.000000D+00

 Test job not archived.
 1\1\GINC-BHD0004\SP\RB3LYP TD-FC\6-311+G(d,p)\C1H2O1\BWEIGHT\17-Sep-20
 21\0\\#p B3LYP/6-311+G** #p TD=(singlets,nstates=30)IOp(6/8=3) IOp(9/4
 0=4)\\Scan Step 239, Bond Length 1.695\\0,1\C,0,0.,0.,-0.52736\H,0,0.,
 0.93726,-1.11871\H,0,0.,-0.93726,-1.11871\O,0,0.,0.,1.16764\\Version=E
 S64L-G16RevA.03\State=1-A1\HF=-114.3929109\RMSD=3.535e-09\PG=C02V [C2(
 C1O1),SGV(H2)]\\@


 IF AT FIRST YOU DON'T SUCCEED, TRY, TRY AGAIN.
 THEN GIVE UP;
 THERE'S NO USE BEING A DAMN FOOL ABOUT IT.

                                 -- W. C. FIELDS
 Job cpu time:       0 days  0 hours  0 minutes 26.1 seconds.
 Elapsed time:       0 days  0 hours  0 minutes 26.4 seconds.
 File lengths (MBytes):  RWF=     79 Int=      0 D2E=      0 Chk=     32 Scr=      1
 Normal termination of Gaussian 16 at Fri Sep 17 10:53:03 2021.
