 Entering Gaussian System, Link 0=g16
 Initial command:
 /software/gaussian/g16-c01/sse4/g16/l1.exe "/local_scratch/24657484/Gau-28428.inp" -scrdir="/local_scratch/24657484/"
 Entering Link 1 = /software/gaussian/g16-c01/sse4/g16/l1.exe PID=     28441.
  
 Copyright (c) 1988-2019, Gaussian, Inc.  All Rights Reserved.
  
 This is part of the Gaussian(R) 16 program.  It is based on
 the Gaussian(R) 09 system (copyright 2009, Gaussian, Inc.),
 the Gaussian(R) 03 system (copyright 2003, Gaussian, Inc.),
 the Gaussian(R) 98 system (copyright 1998, Gaussian, Inc.),
 the Gaussian(R) 94 system (copyright 1995, Gaussian, Inc.),
 the Gaussian 92(TM) system (copyright 1992, Gaussian, Inc.),
 the Gaussian 90(TM) system (copyright 1990, Gaussian, Inc.),
 the Gaussian 88(TM) system (copyright 1988, Gaussian, Inc.),
 the Gaussian 86(TM) system (copyright 1986, Carnegie Mellon
 University), and the Gaussian 82(TM) system (copyright 1983,
 Carnegie Mellon University). Gaussian is a federally registered
 trademark of Gaussian, Inc.
  
 This software contains proprietary and confidential information,
 including trade secrets, belonging to Gaussian, Inc.
  
 This software is provided under written license and may be
 used, copied, transmitted, or stored only in accord with that
 written license.
  
 The following legend is applicable only to US Government
 contracts under FAR:
  
                    RESTRICTED RIGHTS LEGEND
  
 Use, reproduction and disclosure by the US Government is
 subject to restrictions as set forth in subparagraphs (a)
 and (c) of the Commercial Computer Software - Restricted
 Rights clause in FAR 52.227-19.
  
 Gaussian, Inc.
 340 Quinnipiac St., Bldg. 40, Wallingford CT 06492
  
  
 ---------------------------------------------------------------
 Warning -- This program may not be used in any manner that
 competes with the business of Gaussian, Inc. or will provide
 assistance to any competitor of Gaussian, Inc.  The licensee
 of this program is prohibited from giving any competitor of
 Gaussian, Inc. access to this program.  By using this program,
 the user acknowledges that Gaussian, Inc. is engaged in the
 business of creating and licensing software in the field of
 computational chemistry and represents and warrants to the
 licensee that it is not a competitor of Gaussian, Inc. and that
 it will not use this program in any manner prohibited above.
 ---------------------------------------------------------------
  

 Cite this work as:
 Gaussian 16, Revision C.01,
 M. J. Frisch, G. W. Trucks, H. B. Schlegel, G. E. Scuseria, 
 M. A. Robb, J. R. Cheeseman, G. Scalmani, V. Barone, 
 G. A. Petersson, H. Nakatsuji, X. Li, M. Caricato, A. V. Marenich, 
 J. Bloino, B. G. Janesko, R. Gomperts, B. Mennucci, H. P. Hratchian, 
 J. V. Ortiz, A. F. Izmaylov, J. L. Sonnenberg, D. Williams-Young, 
 F. Ding, F. Lipparini, F. Egidi, J. Goings, B. Peng, A. Petrone, 
 T. Henderson, D. Ranasinghe, V. G. Zakrzewski, J. Gao, N. Rega, 
 G. Zheng, W. Liang, M. Hada, M. Ehara, K. Toyota, R. Fukuda, 
 J. Hasegawa, M. Ishida, T. Nakajima, Y. Honda, O. Kitao, H. Nakai, 
 T. Vreven, K. Throssell, J. A. Montgomery, Jr., J. E. Peralta, 
 F. Ogliaro, M. J. Bearpark, J. J. Heyd, E. N. Brothers, K. N. Kudin, 
 V. N. Staroverov, T. A. Keith, R. Kobayashi, J. Normand, 
 K. Raghavachari, A. P. Rendell, J. C. Burant, S. S. Iyengar, 
 J. Tomasi, M. Cossi, J. M. Millam, M. Klene, C. Adamo, R. Cammi, 
 J. W. Ochterski, R. L. Martin, K. Morokuma, O. Farkas, 
 J. B. Foresman, and D. J. Fox, Gaussian, Inc., Wallingford CT, 2019.
 
 ******************************************
 Gaussian 16:  ES64L-G16RevC.01  3-Jul-2019
                 1-May-2024 
 ******************************************
 %chk=geometry.chk
 %mem=9GB
 %nprocshared=12
 Will use up to   12 processors via shared memory.
 ----------------------------------------
 #P wB97XD/6-311+G* NoSymm #P Field=Y-165
 ----------------------------------------
 1/38=1,172=1/1;
 2/12=2,15=1,17=6,18=5,40=1/2;
 3/5=4,6=6,7=11,11=2,14=2,15=-165,25=1,30=1,74=-58/1,2,3;
 4//1;
 5/5=2,38=5/2;
 6/7=2,8=2,9=2,10=2,28=1/1;
 99/5=1,9=1/99;
 Leave Link    1 at Wed May  1 14:45:54 2024, MaxMem=  1207959552 cpu:               1.3 elap:               1.3
 (Enter /software/gaussian/g16-c01/sse4/g16/l101.exe)
 -------
 TitleMe
 -------
 Symbolic Z-matrix:
 Charge =  1 Multiplicity = 1
 C                     0.0295    1.3397    0.0682 
 C                     1.4348    1.2867    0.0064 
 C                     2.1118    0.0511   -0.0054 
 C                     1.4451   -1.1372    0.0312 
 C                    -0.6879    0.1682    0.11 
 H                    -0.4713    2.2984    0.0781 
 H                     2.0273    2.1965   -0.0322 
 H                     1.9897   -2.0764    0.0232 
 H                    -1.7716    0.1804    0.1582 
 N                     3.5864    0.051    -0.0675 
 O                     4.1471   -1.0597   -0.0881 
 O                     4.145     1.1639   -0.0901 
 C                    -0.0236   -1.1458    0.0835 
 H                    -0.4367   -1.8725    0.7889 
 Br                   -0.5359   -1.8697   -1.7408 
 
 ITRead=  0  0  0  0  0  0  0  0  0  0  0  0  0  0  0
 MicOpt= -1 -1 -1 -1 -1 -1 -1 -1 -1 -1 -1 -1 -1 -1 -1
 NAtoms=     15 NQM=       15 NQMF=       0 NMMI=      0 NMMIF=      0
                NMic=       0 NMicF=      0.
                    Isotopes and Nuclear Properties:
 (Nuclear quadrupole moments (NQMom) in fm**2, nuclear magnetic moments (NMagM)
  in nuclear magnetons)

  Atom         1           2           3           4           5           6           7           8           9          10
 IAtWgt=          12          12          12          12          12           1           1           1           1          14
 AtmWgt=  12.0000000  12.0000000  12.0000000  12.0000000  12.0000000   1.0078250   1.0078250   1.0078250   1.0078250  14.0030740
 NucSpn=           0           0           0           0           0           1           1           1           1           2
 AtZEff=  -0.0000000  -0.0000000  -0.0000000  -0.0000000  -0.0000000  -0.0000000  -0.0000000  -0.0000000  -0.0000000  -0.0000000
 NQMom=    0.0000000   0.0000000   0.0000000   0.0000000   0.0000000   0.0000000   0.0000000   0.0000000   0.0000000   2.0440000
 NMagM=    0.0000000   0.0000000   0.0000000   0.0000000   0.0000000   2.7928460   2.7928460   2.7928460   2.7928460   0.4037610
 AtZNuc=   6.0000000   6.0000000   6.0000000   6.0000000   6.0000000   1.0000000   1.0000000   1.0000000   1.0000000   7.0000000

  Atom        11          12          13          14          15
 IAtWgt=          16          16          12           1          79
 AtmWgt=  15.9949146  15.9949146  12.0000000   1.0078250  78.9183361
 NucSpn=           0           0           0           1           3
 AtZEff=  -0.0000000  -0.0000000  -0.0000000  -0.0000000  -0.0000000
 NQMom=    0.0000000   0.0000000   0.0000000   0.0000000  31.3000000
 NMagM=    0.0000000   0.0000000   0.0000000   2.7928460   2.1063990
 AtZNuc=   8.0000000   8.0000000   6.0000000   1.0000000  35.0000000
 Leave Link  101 at Wed May  1 14:45:55 2024, MaxMem=  1207959552 cpu:               1.4 elap:               1.4
 (Enter /software/gaussian/g16-c01/sse4/g16/l202.exe)
                          Input orientation:                          
 ---------------------------------------------------------------------
 Center     Atomic      Atomic             Coordinates (Angstroms)
 Number     Number       Type             X           Y           Z
 ---------------------------------------------------------------------
      1          6           0        0.029500    1.339700    0.068200
      2          6           0        1.434800    1.286700    0.006400
      3          6           0        2.111800    0.051100   -0.005400
      4          6           0        1.445100   -1.137200    0.031200
      5          6           0       -0.687900    0.168200    0.110000
      6          1           0       -0.471300    2.298400    0.078100
      7          1           0        2.027300    2.196500   -0.032200
      8          1           0        1.989700   -2.076400    0.023200
      9          1           0       -1.771600    0.180400    0.158200
     10          7           0        3.586400    0.051000   -0.067500
     11          8           0        4.147100   -1.059700   -0.088100
     12          8           0        4.145000    1.163900   -0.090100
     13          6           0       -0.023600   -1.145800    0.083500
     14          1           0       -0.436700   -1.872500    0.788900
     15         35           0       -0.535900   -1.869700   -1.740800
 ---------------------------------------------------------------------
                    Distance matrix (angstroms):
                    1          2          3          4          5
     1  C    0.000000
     2  C    1.407656   0.000000
     3  C    2.449874   1.408963   0.000000
     4  C    2.853126   2.424049   1.363043   0.000000
     5  C    1.374344   2.401589   2.804523   2.501993   0.000000
     6  H    1.081667   2.159142   3.424870   3.934226   2.141421
     7  H    2.176095   1.086408   2.147231   3.384750   3.392128
     8  H    3.938800   3.408612   2.131193   1.085702   3.495040
     9  H    2.143837   3.395283   3.888995   3.478413   1.084840
    10  N    3.785591   2.482297   1.475907   2.450862   4.279589
    11  O    4.768247   3.587631   2.320164   2.705743   4.992415
    12  O    4.122294   2.714696   2.319353   3.549540   4.938459
    13  C    2.486114   2.837240   2.449573   1.469656   1.472614
    14  H    3.324903   3.754379   3.290289   2.157764   2.165286
    15  Br   3.727252   4.110867   3.702891   2.756973   2.757100
                    6          7          8          9         10
     6  H    0.000000
     7  H    2.503108   0.000000
     8  H    5.019802   4.273425   0.000000
     9  H    2.486588   4.304945   4.388479   0.000000
    10  N    4.640790   2.652397   2.661486   5.364313   0.000000
    11  O    5.712624   3.885809   2.387560   6.052233   1.244373
    12  O    4.756638   2.356750   3.893289   6.002923   1.245428
    13  C    3.473180   3.923079   2.218790   2.195425   3.806210
    14  H    4.231175   4.827242   2.552506   2.528663   4.540772
    15  Br   4.548146   5.101303   3.087568   3.055498   4.845862
                   11         12         13         14         15
    11  O    0.000000
    12  O    2.223602   0.000000
    13  C    4.175117   4.768865   0.000000
    14  H    4.737193   5.566358   1.093770   0.000000
    15  Br   5.031700   5.817075   2.028436   2.531646   0.000000
 Symmetry turned off by external request.
 Stoichiometry    C6H5BrNO2(1+)
 Framework group  C1[X(C6H5BrNO2)]
 Deg. of freedom    39
 Full point group                 C1      NOp   1
 Rotational constants (GHZ):           1.8252210           0.5518633           0.4576002
 Leave Link  202 at Wed May  1 14:45:57 2024, MaxMem=  1207959552 cpu:               1.2 elap:               1.2
 (Enter /software/gaussian/g16-c01/sse4/g16/l301.exe)
 Standard basis: 6-311+G(d) (5D, 7F)
 Ernie: Thresh=  0.10000D-02 Tol=  0.10000D-05 Strict=F.
 The following finite field(s) will be applied:
 An electric field of              0.0000 -0.0165  0.0000
   261 basis functions,   443 primitive gaussians,   273 cartesian basis functions
    49 alpha electrons       49 beta electrons
       nuclear repulsion energy       739.2122215416 Hartrees.
 IExCor= 4639 DFT=T Ex+Corr=wB97XD ExCW=0 ScaHFX=  1.000000
 ScaDFX=  1.000000  1.000000  1.000000  1.000000 ScalE2=  1.000000  1.000000
 IRadAn=      5 IRanWt=     -1 IRanGd=            0 ICorTp=0 IEmpDi=121
 HFx  wShort=  0.000000 wLong=  0.200000 cFull=  0.222036 cShort=  0.000000 cLong=  0.777964
 DFx  wShort=  0.000000 wLong=  0.200000 cFull=  0.000000 cShort=  0.000000 cLong=  1.000000
 NAtoms=   15 NActive=   15 NUniq=   15 SFac= 1.00D+00 NAtFMM=   60 NAOKFM=F Big=F
 Integral buffers will be    131072 words long.
 Raffenetti 2 integral format.
 Two-electron integral symmetry is turned off.
 R6Disp:  Grimme-D2 Dispersion energy=       -0.0077368520 Hartrees.
 Nuclear repulsion after empirical dispersion term =      739.2044846896 Hartrees.
 Leave Link  301 at Wed May  1 14:45:57 2024, MaxMem=  1207959552 cpu:               0.8 elap:               0.8
 (Enter /software/gaussian/g16-c01/sse4/g16/l302.exe)
 NPDir=0 NMtPBC=     1 NCelOv=     1 NCel=       1 NClECP=     1 NCelD=      1
         NCelK=      1 NCelE2=     1 NClLst=     1 CellRange=     0.0.
 One-electron integrals computed using PRISM.
 NBasis=   261 RedAO= T EigKep=  2.35D-06  NBF=   261
 NBsUse=   261 1.00D-06 EigRej= -1.00D+00 NBFU=   261
 Precomputing XC quadrature grid using
 IXCGrd= 4 IRadAn=           5 IRanWt=          -1 IRanGd=           0 AccXCQ= 0.00D+00.
 Generated NRdTot=       0 NPtTot=           0 NUsed=           0 NTot=          32
 NSgBfM=   273   273   273   273   273 MxSgAt=    15 MxSgA2=    15.
 Leave Link  302 at Wed May  1 14:46:19 2024, MaxMem=  1207959552 cpu:              21.4 elap:              21.4
 (Enter /software/gaussian/g16-c01/sse4/g16/l303.exe)
 DipDrv:  MaxL=1.
 The nuclear repulsion energy is now       741.0798752573 hartrees.
 Leave Link  303 at Wed May  1 14:46:22 2024, MaxMem=  1207959552 cpu:               3.3 elap:               3.3
 (Enter /software/gaussian/g16-c01/sse4/g16/l401.exe)
 ExpMin= 3.50D-02 ExpMax= 4.40D+05 ExpMxC= 1.51D+04 IAcc=3 IRadAn=         5 AccDes= 0.00D+00
 Harris functional with IExCor= 4639 and IRadAn=       5 diagonalized for initial guess.
 HarFok:  IExCor= 4639 AccDes= 0.00D+00 IRadAn=         5 IDoV= 1 UseB2=F ITyADJ=14
 ICtDFT=  3500011 ScaDFX=  1.000000  1.000000  1.000000  1.000000
 FoFCou: FMM=F IPFlag=           0 FMFlag=      100000 FMFlg1=           0
         NFxFlg=           0 DoJE=T BraDBF=F KetDBF=T FulRan=T
         wScrn=  0.000000 ICntrl=       500 IOpCl=  0 I1Cent=   200000004 NGrid=           0
         NMat0=    1 NMatS0=      1 NMatT0=    0 NMatD0=    1 NMtDS0=    0 NMtDT0=    0
 Symmetry not used in FoFCou.
 Harris En= -2970.64759907823    
 JPrj=0 DoOrth=F DoCkMO=F.
 Leave Link  401 at Wed May  1 14:46:52 2024, MaxMem=  1207959552 cpu:              30.1 elap:              30.1
 (Enter /software/gaussian/g16-c01/sse4/g16/l502.exe)
 Two-electron integral symmetry not used.
 Closed shell SCF:
 Using DIIS extrapolation, IDIIS=  1040.
 NGot=  1207959552 LenX=  1207804877 LenY=  1207729907
 Requested convergence on RMS density matrix=1.00D-08 within 128 cycles.
 Requested convergence on MAX density matrix=1.00D-06.
 Requested convergence on             energy=1.00D-06.
 No special actions if energy rises.
 Fock matrices will be formed incrementally for  20 cycles.

 Cycle   1  Pass 1  IDiag  1:
 FoFJK:  IHMeth= 1 ICntrl=       0 DoSepK=T KAlg= 0 I1Cent=           0 FoldK=F
 IRaf=         1 NMat=       1 IRICut=       1 DoRegI=T DoRafI=F ISym2E= 0 IDoP0=0 IntGTp=1.
 FoFCou: FMM=F IPFlag=           0 FMFlag=      100000 FMFlg1=           0
         NFxFlg=           0 DoJE=T BraDBF=F KetDBF=F FulRan=T
         wScrn=  0.000000 ICntrl=       500 IOpCl=  0 I1Cent=           0 NGrid=           0
         NMat0=    1 NMatS0=      1 NMatT0=    0 NMatD0=    1 NMtDS0=    0 NMtDT0=    0
 Symmetry not used in FoFCou.
 E= -3008.30089312887    
 DIIS: error= 3.23D-01 at cycle   1 NSaved=   1.
 NSaved= 1 IEnMin= 1 EnMin= -3008.30089312887     IErMin= 1 ErrMin= 3.23D-01
 ErrMax= 3.23D-01  0.00D+00 EMaxC= 1.00D-01 BMatC= 1.25D+01 BMatP= 1.25D+01
 IDIUse=3 WtCom= 0.00D+00 WtEn= 1.00D+00
 Coeff-Com:  0.100D+01
 Coeff-En:   0.100D+01
 Coeff:      0.100D+01
 Gap=    -0.845 Goal=   None    Shift=    0.000
 GapD=   -0.845 DampG=0.250 DampE=0.250 DampFc=0.2500 IDamp=-1.
 Damping current iteration by 2.50D-01
 RMSDP=1.38D-01 MaxDP=1.24D+01              OVMax= 8.01D-01

 Cycle   2  Pass 1  IDiag  1:
 RMSU=  1.98D-02    CP:  8.39D-01
 E= -3008.87311531946     Delta-E=       -0.572222190587 Rises=F Damp=T
 DIIS: error= 2.27D-01 at cycle   2 NSaved=   2.
 NSaved= 2 IEnMin= 2 EnMin= -3008.87311531946     IErMin= 2 ErrMin= 2.27D-01
 ErrMax= 2.27D-01  0.00D+00 EMaxC= 1.00D-01 BMatC= 5.62D+00 BMatP= 1.25D+01
 IDIUse=3 WtCom= 0.00D+00 WtEn= 1.00D+00
 Coeff-Com: -0.123D+01 0.223D+01
 Coeff-En:   0.239D+00 0.761D+00
 Coeff:      0.239D+00 0.761D+00
 Gap=    -0.073 Goal=   None    Shift=    0.000
 RMSDP=1.08D-01 MaxDP=9.64D+00 DE=-5.72D-01 OVMax= 8.31D-01

 Cycle   3  Pass 1  IDiag  1:
 RMSU=  2.07D-02    CP:  2.44D-01  2.05D+00
 E= -3009.53264097551     Delta-E=       -0.659525656054 Rises=F Damp=F
 DIIS: error= 8.44D-02 at cycle   3 NSaved=   3.
 NSaved= 3 IEnMin= 3 EnMin= -3009.53264097551     IErMin= 3 ErrMin= 8.44D-02
 ErrMax= 8.44D-02  0.00D+00 EMaxC= 1.00D-01 BMatC= 2.19D+00 BMatP= 5.62D+00
 IDIUse=3 WtCom= 1.56D-01 WtEn= 8.44D-01
 EnCoef did   100 forward-backward iterations
 Coeff-Com:  0.151D+00 0.140D+00 0.708D+00
 Coeff-En:   0.314D+00 0.519D-02 0.681D+00
 Coeff:      0.289D+00 0.263D-01 0.685D+00
 Gap=     0.261 Goal=   None    Shift=    0.000
 RMSDP=2.52D-02 MaxDP=1.61D+00 DE=-6.60D-01 OVMax= 5.33D-01

 Cycle   4  Pass 1  IDiag  1:
 RMSU=  2.15D-02    CP:  2.46D-01  1.39D+00  1.02D+00
 E= -3009.98653659219     Delta-E=       -0.453895616678 Rises=F Damp=F
 DIIS: error= 8.75D-02 at cycle   4 NSaved=   4.
 NSaved= 4 IEnMin= 4 EnMin= -3009.98653659219     IErMin= 3 ErrMin= 8.44D-02
 ErrMax= 8.75D-02  0.00D+00 EMaxC= 1.00D-01 BMatC= 7.90D-01 BMatP= 2.19D+00
 IDIUse=3 WtCom= 1.25D-01 WtEn= 8.75D-01
 Coeff-Com:  0.182D+00-0.153D+00 0.422D+00 0.549D+00
 Coeff-En:   0.000D+00 0.000D+00 0.369D+00 0.631D+00
 Coeff:      0.227D-01-0.191D-01 0.375D+00 0.621D+00
 Gap=     0.210 Goal=   None    Shift=    0.000
 RMSDP=1.18D-02 MaxDP=6.14D-01 DE=-4.54D-01 OVMax= 3.64D-01

 Cycle   5  Pass 1  IDiag  1:
 RMSU=  8.40D-03    CP:  2.43D-01  1.24D+00  1.10D+00  6.49D-01
 E= -3010.41428533726     Delta-E=       -0.427748745071 Rises=F Damp=F
 DIIS: error= 3.98D-02 at cycle   5 NSaved=   5.
 NSaved= 5 IEnMin= 5 EnMin= -3010.41428533726     IErMin= 5 ErrMin= 3.98D-02
 ErrMax= 3.98D-02  0.00D+00 EMaxC= 1.00D-01 BMatC= 2.00D-01 BMatP= 7.90D-01
 IDIUse=3 WtCom= 6.02D-01 WtEn= 3.98D-01
 Coeff-Com:  0.242D-01-0.279D-01 0.154D+00 0.358D+00 0.491D+00
 Coeff-En:   0.000D+00 0.000D+00 0.000D+00 0.213D+00 0.787D+00
 Coeff:      0.146D-01-0.168D-01 0.930D-01 0.300D+00 0.609D+00
 Gap=     0.296 Goal=   None    Shift=    0.000
 RMSDP=7.37D-03 MaxDP=6.04D-01 DE=-4.28D-01 OVMax= 1.49D-01

 Cycle   6  Pass 1  IDiag  1:
 RMSU=  3.44D-03    CP:  2.18D-01  1.19D+00  1.03D+00  7.34D-01  5.03D-01
 E= -3010.52956887439     Delta-E=       -0.115283537132 Rises=F Damp=F
 DIIS: error= 1.57D-02 at cycle   6 NSaved=   6.
 NSaved= 6 IEnMin= 6 EnMin= -3010.52956887439     IErMin= 6 ErrMin= 1.57D-02
 ErrMax= 1.57D-02  0.00D+00 EMaxC= 1.00D-01 BMatC= 2.92D-02 BMatP= 2.00D-01
 IDIUse=3 WtCom= 8.43D-01 WtEn= 1.57D-01
 Coeff-Com: -0.283D-01 0.372D-01-0.174D-01 0.200D-01 0.295D+00 0.693D+00
 Coeff-En:   0.000D+00 0.000D+00 0.000D+00 0.000D+00 0.105D+00 0.895D+00
 Coeff:     -0.239D-01 0.313D-01-0.146D-01 0.168D-01 0.265D+00 0.725D+00
 Gap=     0.247 Goal=   None    Shift=    0.000
 RMSDP=1.94D-03 MaxDP=1.03D-01 DE=-1.15D-01 OVMax= 5.56D-02

 Cycle   7  Pass 1  IDiag  1:
 RMSU=  1.11D-03    CP:  2.19D-01  1.15D+00  1.03D+00  7.04D-01  6.44D-01
                    CP:  9.01D-01
 E= -3010.54556563093     Delta-E=       -0.015996756532 Rises=F Damp=F
 DIIS: error= 2.67D-03 at cycle   7 NSaved=   7.
 NSaved= 7 IEnMin= 7 EnMin= -3010.54556563093     IErMin= 7 ErrMin= 2.67D-03
 ErrMax= 2.67D-03  0.00D+00 EMaxC= 1.00D-01 BMatC= 1.42D-03 BMatP= 2.92D-02
 IDIUse=3 WtCom= 9.73D-01 WtEn= 2.67D-02
 Coeff-Com: -0.172D-01 0.233D-01-0.158D-01-0.104D-01 0.609D-01 0.296D+00
 Coeff-Com:  0.663D+00
 Coeff-En:   0.000D+00 0.000D+00 0.000D+00 0.000D+00 0.000D+00 0.000D+00
 Coeff-En:   0.100D+01
 Coeff:     -0.167D-01 0.226D-01-0.153D-01-0.101D-01 0.592D-01 0.288D+00
 Coeff:      0.672D+00
 Gap=     0.251 Goal=   None    Shift=    0.000
 RMSDP=8.84D-04 MaxDP=6.99D-02 DE=-1.60D-02 OVMax= 1.02D-02

 Cycle   8  Pass 1  IDiag  1:
 RMSU=  4.30D-04    CP:  2.17D-01  1.17D+00  1.02D+00  7.01D-01  6.04D-01
                    CP:  9.72D-01  7.16D-01
 E= -3010.54670464854     Delta-E=       -0.001139017618 Rises=F Damp=F
 DIIS: error= 6.00D-04 at cycle   8 NSaved=   8.
 NSaved= 8 IEnMin= 8 EnMin= -3010.54670464854     IErMin= 8 ErrMin= 6.00D-04
 ErrMax= 6.00D-04  0.00D+00 EMaxC= 1.00D-01 BMatC= 1.33D-04 BMatP= 1.42D-03
 IDIUse=3 WtCom= 9.94D-01 WtEn= 6.00D-03
 Coeff-Com: -0.759D-02 0.104D-01-0.232D-02-0.152D-02-0.172D-01-0.112D-01
 Coeff-Com:  0.245D+00 0.784D+00
 Coeff-En:   0.000D+00 0.000D+00 0.000D+00 0.000D+00 0.000D+00 0.000D+00
 Coeff-En:   0.000D+00 0.100D+01
 Coeff:     -0.754D-02 0.103D-01-0.230D-02-0.151D-02-0.171D-01-0.111D-01
 Coeff:      0.244D+00 0.785D+00
 Gap=     0.252 Goal=   None    Shift=    0.000
 RMSDP=2.58D-04 MaxDP=1.97D-02 DE=-1.14D-03 OVMax= 6.63D-03

 Cycle   9  Pass 1  IDiag  1:
 RMSU=  1.67D-04    CP:  2.17D-01  1.17D+00  1.02D+00  7.02D-01  5.97D-01
                    CP:  9.72D-01  7.11D-01  1.29D+00
 E= -3010.54687820643     Delta-E=       -0.000173557886 Rises=F Damp=F
 DIIS: error= 3.45D-04 at cycle   9 NSaved=   9.
 NSaved= 9 IEnMin= 9 EnMin= -3010.54687820643     IErMin= 9 ErrMin= 3.45D-04
 ErrMax= 3.45D-04  0.00D+00 EMaxC= 1.00D-01 BMatC= 1.92D-05 BMatP= 1.33D-04
 IDIUse=3 WtCom= 9.97D-01 WtEn= 3.45D-03
 Coeff-Com: -0.216D-02 0.304D-02 0.173D-02 0.229D-02-0.168D-01-0.577D-01
 Coeff-Com: -0.187D-01 0.263D+00 0.825D+00
 Coeff-En:   0.000D+00 0.000D+00 0.000D+00 0.000D+00 0.000D+00 0.000D+00
 Coeff-En:   0.000D+00 0.000D+00 0.100D+01
 Coeff:     -0.215D-02 0.303D-02 0.172D-02 0.229D-02-0.167D-01-0.575D-01
 Coeff:     -0.186D-01 0.262D+00 0.826D+00
 Gap=     0.253 Goal=   None    Shift=    0.000
 RMSDP=2.00D-04 MaxDP=1.50D-02 DE=-1.74D-04 OVMax= 4.56D-03

 Cycle  10  Pass 1  IDiag  1:
 RMSU=  6.13D-05    CP:  2.16D-01  1.18D+00  1.02D+00  7.00D-01  5.87D-01
                    CP:  9.82D-01  6.93D-01  1.51D+00  1.30D+00
 E= -3010.54691624854     Delta-E=       -0.000038042105 Rises=F Damp=F
 DIIS: error= 1.65D-04 at cycle  10 NSaved=  10.
 NSaved=10 IEnMin=10 EnMin= -3010.54691624854     IErMin=10 ErrMin= 1.65D-04
 ErrMax= 1.65D-04  0.00D+00 EMaxC= 1.00D-01 BMatC= 4.18D-06 BMatP= 1.92D-05
 IDIUse=3 WtCom= 9.98D-01 WtEn= 1.65D-03
 Coeff-Com: -0.583D-03 0.794D-03 0.457D-03 0.970D-03-0.171D-02-0.157D-01
 Coeff-Com: -0.540D-01-0.667D-01 0.348D+00 0.789D+00
 Coeff-En:   0.000D+00 0.000D+00 0.000D+00 0.000D+00 0.000D+00 0.000D+00
 Coeff-En:   0.000D+00 0.000D+00 0.000D+00 0.100D+01
 Coeff:     -0.582D-03 0.793D-03 0.456D-03 0.969D-03-0.170D-02-0.157D-01
 Coeff:     -0.540D-01-0.666D-01 0.347D+00 0.789D+00
 Gap=     0.253 Goal=   None    Shift=    0.000
 RMSDP=4.57D-05 MaxDP=3.33D-03 DE=-3.80D-05 OVMax= 2.49D-03

 Cycle  11  Pass 1  IDiag  1:
 RMSU=  2.80D-05    CP:  2.16D-01  1.18D+00  1.02D+00  7.00D-01  5.87D-01
                    CP:  9.82D-01  6.82D-01  1.55D+00  1.41D+00  1.19D+00
 E= -3010.54692438688     Delta-E=       -0.000008138349 Rises=F Damp=F
 DIIS: error= 4.97D-05 at cycle  11 NSaved=  11.
 NSaved=11 IEnMin=11 EnMin= -3010.54692438688     IErMin=11 ErrMin= 4.97D-05
 ErrMax= 4.97D-05  0.00D+00 EMaxC= 1.00D-01 BMatC= 4.92D-07 BMatP= 4.18D-06
 IDIUse=1 WtCom= 1.00D+00 WtEn= 0.00D+00
 Coeff-Com: -0.204D-04 0.165D-04-0.165D-03 0.166D-03 0.195D-02 0.260D-02
 Coeff-Com: -0.145D-01-0.572D-01-0.143D-01 0.276D+00 0.805D+00
 Coeff:     -0.204D-04 0.165D-04-0.165D-03 0.166D-03 0.195D-02 0.260D-02
 Coeff:     -0.145D-01-0.572D-01-0.143D-01 0.276D+00 0.805D+00
 Gap=     0.253 Goal=   None    Shift=    0.000
 RMSDP=2.54D-05 MaxDP=1.25D-03 DE=-8.14D-06 OVMax= 1.17D-03

 Cycle  12  Pass 1  IDiag  1:
 RMSU=  1.55D-05    CP:  2.16D-01  1.18D+00  1.02D+00  7.01D-01  5.88D-01
                    CP:  9.81D-01  6.79D-01  1.57D+00  1.45D+00  1.26D+00
                    CP:  1.34D+00
 E= -3010.54692599818     Delta-E=       -0.000001611291 Rises=F Damp=F
 DIIS: error= 1.55D-05 at cycle  12 NSaved=  12.
 NSaved=12 IEnMin=12 EnMin= -3010.54692599818     IErMin=12 ErrMin= 1.55D-05
 ErrMax= 1.55D-05  0.00D+00 EMaxC= 1.00D-01 BMatC= 7.67D-08 BMatP= 4.92D-07
 IDIUse=1 WtCom= 1.00D+00 WtEn= 0.00D+00
 Coeff-Com:  0.435D-04-0.725D-04-0.161D-03-0.107D-03 0.849D-03 0.325D-02
 Coeff-Com:  0.404D-02-0.620D-02-0.571D-01-0.364D-01 0.239D+00 0.853D+00
 Coeff:      0.435D-04-0.725D-04-0.161D-03-0.107D-03 0.849D-03 0.325D-02
 Coeff:      0.404D-02-0.620D-02-0.571D-01-0.364D-01 0.239D+00 0.853D+00
 Gap=     0.253 Goal=   None    Shift=    0.000
 RMSDP=1.57D-05 MaxDP=6.92D-04 DE=-1.61D-06 OVMax= 5.92D-04

 Cycle  13  Pass 1  IDiag  1:
 RMSU=  3.93D-06    CP:  2.16D-01  1.18D+00  1.02D+00  7.01D-01  5.88D-01
                    CP:  9.80D-01  6.82D-01  1.56D+00  1.43D+00  1.31D+00
                    CP:  1.65D+00  1.25D+00
 E= -3010.54692635324     Delta-E=       -0.000000355068 Rises=F Damp=F
 DIIS: error= 9.18D-06 at cycle  13 NSaved=  13.
 NSaved=13 IEnMin=13 EnMin= -3010.54692635324     IErMin=13 ErrMin= 9.18D-06
 ErrMax= 9.18D-06  0.00D+00 EMaxC= 1.00D-01 BMatC= 1.97D-08 BMatP= 7.67D-08
 IDIUse=1 WtCom= 1.00D+00 WtEn= 0.00D+00
 Coeff-Com:  0.422D-04-0.565D-04-0.108D-04-0.101D-03-0.166D-03 0.888D-03
 Coeff-Com:  0.504D-02 0.105D-01-0.155D-01-0.713D-01-0.120D+00 0.236D+00
 Coeff-Com:  0.955D+00
 Coeff:      0.422D-04-0.565D-04-0.108D-04-0.101D-03-0.166D-03 0.888D-03
 Coeff:      0.504D-02 0.105D-01-0.155D-01-0.713D-01-0.120D+00 0.236D+00
 Coeff:      0.955D+00
 Gap=     0.253 Goal=   None    Shift=    0.000
 RMSDP=9.35D-06 MaxDP=4.05D-04 DE=-3.55D-07 OVMax= 3.58D-04

 Cycle  14  Pass 1  IDiag  1:
 RMSU=  2.48D-06    CP:  2.16D-01  1.18D+00  1.02D+00  7.01D-01  5.89D-01
                    CP:  9.80D-01  6.82D-01  1.56D+00  1.43D+00  1.32D+00
                    CP:  1.82D+00  1.52D+00  1.42D+00
 E= -3010.54692644357     Delta-E=       -0.000000090325 Rises=F Damp=F
 DIIS: error= 2.93D-06 at cycle  14 NSaved=  14.
 NSaved=14 IEnMin=14 EnMin= -3010.54692644357     IErMin=14 ErrMin= 2.93D-06
 ErrMax= 2.93D-06  0.00D+00 EMaxC= 1.00D-01 BMatC= 3.73D-09 BMatP= 1.97D-08
 IDIUse=1 WtCom= 1.00D+00 WtEn= 0.00D+00
 Coeff-Com:  0.128D-04-0.153D-04 0.819D-05-0.440D-04-0.188D-03-0.720D-04
 Coeff-Com:  0.115D-02 0.441D-02 0.236D-02-0.219D-01-0.775D-01-0.303D-01
 Coeff-Com:  0.390D+00 0.732D+00
 Coeff:      0.128D-04-0.153D-04 0.819D-05-0.440D-04-0.188D-03-0.720D-04
 Coeff:      0.115D-02 0.441D-02 0.236D-02-0.219D-01-0.775D-01-0.303D-01
 Coeff:      0.390D+00 0.732D+00
 Gap=     0.253 Goal=   None    Shift=    0.000
 RMSDP=2.62D-06 MaxDP=1.25D-04 DE=-9.03D-08 OVMax= 1.10D-04

 Cycle  15  Pass 1  IDiag  1:
 RMSU=  8.80D-07    CP:  2.16D-01  1.18D+00  1.02D+00  7.01D-01  5.89D-01
                    CP:  9.80D-01  6.83D-01  1.56D+00  1.42D+00  1.32D+00
                    CP:  1.87D+00  1.58D+00  1.62D+00  1.01D+00
 E= -3010.54692645501     Delta-E=       -0.000000011446 Rises=F Damp=F
 DIIS: error= 1.78D-06 at cycle  15 NSaved=  15.
 NSaved=15 IEnMin=15 EnMin= -3010.54692645501     IErMin=15 ErrMin= 1.78D-06
 ErrMax= 1.78D-06  0.00D+00 EMaxC= 1.00D-01 BMatC= 4.08D-10 BMatP= 3.73D-09
 IDIUse=1 WtCom= 1.00D+00 WtEn= 0.00D+00
 Coeff-Com:  0.219D-05-0.333D-05 0.364D-05 0.120D-04-0.106D-04-0.236D-03
 Coeff-Com: -0.852D-03-0.126D-02 0.275D-02 0.904D-02 0.791D-02-0.488D-01
 Coeff-Com: -0.923D-01 0.925D-01 0.103D+01
 Coeff:      0.219D-05-0.333D-05 0.364D-05 0.120D-04-0.106D-04-0.236D-03
 Coeff:     -0.852D-03-0.126D-02 0.275D-02 0.904D-02 0.791D-02-0.488D-01
 Coeff:     -0.923D-01 0.925D-01 0.103D+01
 Gap=     0.253 Goal=   None    Shift=    0.000
 RMSDP=9.63D-07 MaxDP=3.14D-05 DE=-1.14D-08 OVMax= 6.27D-05

 Cycle  16  Pass 1  IDiag  1:
 RMSU=  3.40D-07    CP:  2.16D-01  1.18D+00  1.02D+00  7.01D-01  5.89D-01
                    CP:  9.80D-01  6.83D-01  1.56D+00  1.42D+00  1.32D+00
                    CP:  1.88D+00  1.59D+00  1.71D+00  1.15D+00  1.44D+00
 E= -3010.54692645747     Delta-E=       -0.000000002455 Rises=F Damp=F
 DIIS: error= 9.39D-07 at cycle  16 NSaved=  16.
 NSaved=16 IEnMin=16 EnMin= -3010.54692645747     IErMin=16 ErrMin= 9.39D-07
 ErrMax= 9.39D-07  0.00D+00 EMaxC= 1.00D-01 BMatC= 1.07D-10 BMatP= 4.08D-10
 IDIUse=1 WtCom= 1.00D+00 WtEn= 0.00D+00
 Coeff-Com:  0.393D-06-0.817D-06 0.125D-05 0.764D-05 0.229D-04-0.590D-04
 Coeff-Com: -0.411D-03-0.958D-03 0.220D-03 0.529D-02 0.114D-01-0.108D-01
 Coeff-Com: -0.681D-01-0.773D-01 0.330D+00 0.810D+00
 Coeff:      0.393D-06-0.817D-06 0.125D-05 0.764D-05 0.229D-04-0.590D-04
 Coeff:     -0.411D-03-0.958D-03 0.220D-03 0.529D-02 0.114D-01-0.108D-01
 Coeff:     -0.681D-01-0.773D-01 0.330D+00 0.810D+00
 Gap=     0.253 Goal=   None    Shift=    0.000
 RMSDP=2.99D-07 MaxDP=1.60D-05 DE=-2.45D-09 OVMax= 1.89D-05

 Cycle  17  Pass 1  IDiag  1:
 RMSU=  1.83D-07    CP:  2.16D-01  1.18D+00  1.02D+00  7.01D-01  5.89D-01
                    CP:  9.80D-01  6.83D-01  1.56D+00  1.42D+00  1.32D+00
                    CP:  1.88D+00  1.59D+00  1.73D+00  1.16D+00  1.61D+00
                    CP:  1.14D+00
 E= -3010.54692645786     Delta-E=       -0.000000000389 Rises=F Damp=F
 DIIS: error= 4.85D-07 at cycle  17 NSaved=  17.
 NSaved=17 IEnMin=17 EnMin= -3010.54692645786     IErMin=17 ErrMin= 4.85D-07
 ErrMax= 4.85D-07  0.00D+00 EMaxC= 1.00D-01 BMatC= 2.41D-11 BMatP= 1.07D-10
 IDIUse=1 WtCom= 1.00D+00 WtEn= 0.00D+00
 Coeff-Com: -0.540D-06 0.906D-06 0.419D-06-0.100D-05 0.127D-04 0.505D-04
 Coeff-Com:  0.115D-03 0.478D-04-0.741D-03-0.661D-03 0.136D-02 0.103D-01
 Coeff-Com:  0.602D-02-0.537D-01-0.173D+00 0.208D+00 0.100D+01
 Coeff:     -0.540D-06 0.906D-06 0.419D-06-0.100D-05 0.127D-04 0.505D-04
 Coeff:      0.115D-03 0.478D-04-0.741D-03-0.661D-03 0.136D-02 0.103D-01
 Coeff:      0.602D-02-0.537D-01-0.173D+00 0.208D+00 0.100D+01
 Gap=     0.253 Goal=   None    Shift=    0.000
 RMSDP=1.94D-07 MaxDP=7.12D-06 DE=-3.89D-10 OVMax= 1.17D-05

 Cycle  18  Pass 1  IDiag  1:
 RMSU=  6.81D-08    CP:  2.16D-01  1.18D+00  1.02D+00  7.01D-01  5.89D-01
                    CP:  9.80D-01  6.83D-01  1.56D+00  1.42D+00  1.32D+00
                    CP:  1.88D+00  1.59D+00  1.73D+00  1.17D+00  1.70D+00
                    CP:  1.37D+00  1.27D+00
 E= -3010.54692645801     Delta-E=       -0.000000000149 Rises=F Damp=F
 DIIS: error= 1.60D-07 at cycle  18 NSaved=  18.
 NSaved=18 IEnMin=18 EnMin= -3010.54692645801     IErMin=18 ErrMin= 1.60D-07
 ErrMax= 1.60D-07  0.00D+00 EMaxC= 1.00D-01 BMatC= 3.26D-12 BMatP= 2.41D-11
 IDIUse=1 WtCom= 1.00D+00 WtEn= 0.00D+00
 Coeff-Com: -0.282D-06 0.470D-06 0.123D-06-0.978D-06-0.172D-05 0.178D-04
 Coeff-Com:  0.998D-04 0.185D-03-0.102D-03-0.984D-03-0.197D-02 0.324D-02
 Coeff-Com:  0.128D-01 0.572D-02-0.859D-01-0.121D+00 0.175D+00 0.101D+01
 Coeff:     -0.282D-06 0.470D-06 0.123D-06-0.978D-06-0.172D-05 0.178D-04
 Coeff:      0.998D-04 0.185D-03-0.102D-03-0.984D-03-0.197D-02 0.324D-02
 Coeff:      0.128D-01 0.572D-02-0.859D-01-0.121D+00 0.175D+00 0.101D+01
 Gap=     0.253 Goal=   None    Shift=    0.000
 RMSDP=8.66D-08 MaxDP=4.33D-06 DE=-1.49D-10 OVMax= 5.27D-06

 Cycle  19  Pass 1  IDiag  1:
 RMSU=  3.05D-08    CP:  2.16D-01  1.18D+00  1.02D+00  7.01D-01  5.89D-01
                    CP:  9.80D-01  6.83D-01  1.56D+00  1.42D+00  1.32D+00
                    CP:  1.88D+00  1.59D+00  1.72D+00  1.17D+00  1.71D+00
                    CP:  1.39D+00  1.54D+00  1.40D+00
 E= -3010.54692645802     Delta-E=       -0.000000000014 Rises=F Damp=F
 DIIS: error= 5.40D-08 at cycle  19 NSaved=  19.
 NSaved=19 IEnMin=19 EnMin= -3010.54692645802     IErMin=19 ErrMin= 5.40D-08
 ErrMax= 5.40D-08  0.00D+00 EMaxC= 1.00D-01 BMatC= 6.89D-13 BMatP= 3.26D-12
 IDIUse=1 WtCom= 1.00D+00 WtEn= 0.00D+00
 Coeff-Com:  0.235D-07-0.490D-07-0.900D-07-0.135D-07-0.313D-05-0.403D-05
 Coeff-Com:  0.119D-04 0.491D-04 0.126D-03-0.203D-03-0.896D-03-0.898D-03
 Coeff-Com:  0.240D-02 0.126D-01 0.611D-02-0.834D-01-0.109D+00 0.347D+00
 Coeff-Com:  0.827D+00
 Coeff:      0.235D-07-0.490D-07-0.900D-07-0.135D-07-0.313D-05-0.403D-05
 Coeff:      0.119D-04 0.491D-04 0.126D-03-0.203D-03-0.896D-03-0.898D-03
 Coeff:      0.240D-02 0.126D-01 0.611D-02-0.834D-01-0.109D+00 0.347D+00
 Coeff:      0.827D+00
 Gap=     0.253 Goal=   None    Shift=    0.000
 RMSDP=2.82D-08 MaxDP=1.27D-06 DE=-1.41D-11 OVMax= 1.67D-06

 Cycle  20  Pass 1  IDiag  1:
 RMSU=  1.05D-08    CP:  2.16D-01  1.18D+00  1.02D+00  7.01D-01  5.89D-01
                    CP:  9.80D-01  6.83D-01  1.56D+00  1.42D+00  1.32D+00
                    CP:  1.88D+00  1.59D+00  1.72D+00  1.16D+00  1.70D+00
                    CP:  1.39D+00  1.58D+00  1.58D+00  1.33D+00
 E= -3010.54692645797     Delta-E=        0.000000000054 Rises=F Damp=F
 DIIS: error= 2.28D-08 at cycle  20 NSaved=  20.
 NSaved=20 IEnMin=19 EnMin= -3010.54692645802     IErMin=20 ErrMin= 2.28D-08
 ErrMax= 2.28D-08  0.00D+00 EMaxC= 1.00D-01 BMatC= 9.74D-14 BMatP= 6.89D-13
 IDIUse=1 WtCom= 1.00D+00 WtEn= 0.00D+00
 Coeff-Com:  0.456D-07-0.776D-07-0.119D-06 0.943D-07-0.389D-06-0.246D-05
 Coeff-Com: -0.104D-04-0.163D-04 0.398D-04 0.913D-04 0.172D-03-0.473D-03
 Coeff-Com: -0.189D-02 0.142D-02 0.130D-01-0.419D-03-0.295D-01-0.101D+00
 Coeff-Com:  0.982D-01 0.102D+01
 Coeff:      0.456D-07-0.776D-07-0.119D-06 0.943D-07-0.389D-06-0.246D-05
 Coeff:     -0.104D-04-0.163D-04 0.398D-04 0.913D-04 0.172D-03-0.473D-03
 Coeff:     -0.189D-02 0.142D-02 0.130D-01-0.419D-03-0.295D-01-0.101D+00
 Coeff:      0.982D-01 0.102D+01
 Gap=     0.253 Goal=   None    Shift=    0.000
 RMSDP=1.53D-08 MaxDP=9.90D-07 DE= 5.41D-11 OVMax= 6.51D-07

 Cycle  21  Pass 1  IDiag  1:
 Restarting incremental Fock formation.
 E= -3010.54692645801     Delta-E=       -0.000000000044 Rises=F Damp=F
 DIIS: error= 5.99D-09 at cycle  21 NSaved=  20.
 NSaved=20 IEnMin=18 EnMin= -3010.54692645802     IErMin=20 ErrMin= 5.99D-09
 ErrMax= 5.99D-09  0.00D+00 EMaxC= 1.00D-01 BMatC= 1.07D-14 BMatP= 9.74D-14
 IDIUse=1 WtCom= 1.00D+00 WtEn= 0.00D+00
 Coeff-Com: -0.862D-09-0.230D-07-0.180D-07 0.120D-06 0.275D-06-0.124D-05
 Coeff-Com: -0.431D-05-0.328D-05 0.237D-04 0.837D-04 0.724D-04-0.384D-03
 Coeff-Com: -0.974D-03-0.194D-03 0.609D-02 0.141D-01-0.453D-01-0.884D-01
 Coeff-Com:  0.129D+00 0.986D+00
 Coeff:     -0.862D-09-0.230D-07-0.180D-07 0.120D-06 0.275D-06-0.124D-05
 Coeff:     -0.431D-05-0.328D-05 0.237D-04 0.837D-04 0.724D-04-0.384D-03
 Coeff:     -0.974D-03-0.194D-03 0.609D-02 0.141D-01-0.453D-01-0.884D-01
 Coeff:      0.129D+00 0.986D+00
 Gap=     0.253 Goal=   None    Shift=    0.000
 RMSDP=5.28D-09 MaxDP=3.42D-07 DE=-4.41D-11 OVMax= 1.71D-07

 SCF Done:  E(RwB97XD) =  -3010.54692646     A.U. after   21 cycles
            NFock= 21  Conv=0.53D-08     -V/T= 2.0016
 KE= 3.005870838972D+03 PE=-8.634547588840D+03 EE= 1.877049948153D+03
 Leave Link  502 at Wed May  1 15:06:39 2024, MaxMem=  1207959552 cpu:            1186.3 elap:            1186.5
 (Enter /software/gaussian/g16-c01/sse4/g16/l601.exe)
 Copying SCF densities to generalized density rwf, IOpCl= 0 IROHF=0.

 **********************************************************************

            Population analysis using the SCF Density.

 **********************************************************************

 Alpha  occ. eigenvalues -- -483.33875 -62.88929 -56.68581 -56.68066 -56.68064
 Alpha  occ. eigenvalues --  -19.46429 -19.46042 -14.85680 -10.60479 -10.57972
 Alpha  occ. eigenvalues --  -10.57898 -10.57241 -10.56694 -10.52148  -9.04756
 Alpha  occ. eigenvalues --   -6.87320  -6.85622  -6.85615  -2.97252  -2.96797
 Alpha  occ. eigenvalues --   -2.96789  -2.95430  -2.95430  -1.49978  -1.32946
 Alpha  occ. eigenvalues --   -1.23410  -1.15284  -1.11902  -1.06378  -1.01358
 Alpha  occ. eigenvalues --   -0.96158  -0.91374  -0.85634  -0.81243  -0.80950
 Alpha  occ. eigenvalues --   -0.80387  -0.79231  -0.76392  -0.75996  -0.73410
 Alpha  occ. eigenvalues --   -0.69443  -0.67390  -0.64226  -0.61694  -0.59587
 Alpha  occ. eigenvalues --   -0.57505  -0.56941  -0.56425  -0.55805
 Alpha virt. eigenvalues --   -0.30496  -0.21732  -0.17524  -0.15646  -0.13532
 Alpha virt. eigenvalues --   -0.11025  -0.10867  -0.07779  -0.06521  -0.06046
 Alpha virt. eigenvalues --   -0.05024  -0.04462  -0.02917  -0.02662  -0.01485
 Alpha virt. eigenvalues --   -0.00171  -0.00032   0.01509   0.02014   0.02170
 Alpha virt. eigenvalues --    0.03094   0.03692   0.04374   0.04800   0.06352
 Alpha virt. eigenvalues --    0.06878   0.07397   0.08723   0.09378   0.09616
 Alpha virt. eigenvalues --    0.09796   0.11054   0.11505   0.12215   0.12728
 Alpha virt. eigenvalues --    0.13321   0.13594   0.14062   0.14670   0.15919
 Alpha virt. eigenvalues --    0.16930   0.18535   0.19484   0.19687   0.20403
 Alpha virt. eigenvalues --    0.20616   0.21705   0.22181   0.24230   0.25761
 Alpha virt. eigenvalues --    0.25938   0.26873   0.27375   0.27981   0.28567
 Alpha virt. eigenvalues --    0.30177   0.31712   0.32991   0.34839   0.35902
 Alpha virt. eigenvalues --    0.36788   0.37490   0.39823   0.40175   0.41056
 Alpha virt. eigenvalues --    0.42967   0.43350   0.44531   0.46030   0.46984
 Alpha virt. eigenvalues --    0.48244   0.48881   0.50616   0.51094   0.52510
 Alpha virt. eigenvalues --    0.52991   0.53437   0.56067   0.56774   0.59819
 Alpha virt. eigenvalues --    0.61074   0.62103   0.62792   0.65021   0.68153
 Alpha virt. eigenvalues --    0.69258   0.71489   0.72622   0.73280   0.74867
 Alpha virt. eigenvalues --    0.75955   0.79618   0.80060   0.81443   0.84603
 Alpha virt. eigenvalues --    0.85598   0.87871   0.91147   0.92397   0.97525
 Alpha virt. eigenvalues --    0.99524   1.01171   1.03670   1.05150   1.06048
 Alpha virt. eigenvalues --    1.08144   1.10529   1.11862   1.12318   1.14294
 Alpha virt. eigenvalues --    1.22195   1.24157   1.26241   1.32929   1.36017
 Alpha virt. eigenvalues --    1.36414   1.36848   1.44260   1.53913   1.56712
 Alpha virt. eigenvalues --    1.57820   1.58246   1.60345   1.61635   1.65684
 Alpha virt. eigenvalues --    1.68583   1.68915   1.73515   1.75015   1.78752
 Alpha virt. eigenvalues --    1.80395   1.85094   1.87655   1.90760   1.92804
 Alpha virt. eigenvalues --    1.96918   2.02427   2.03143   2.05012   2.07153
 Alpha virt. eigenvalues --    2.08274   2.14365   2.20499   2.22664   2.30701
 Alpha virt. eigenvalues --    2.36944   2.40426   2.41320   2.43131   2.52174
 Alpha virt. eigenvalues --    2.56523   2.62847   2.65765   2.67863   2.71527
 Alpha virt. eigenvalues --    2.72744   2.75976   2.77095   2.80621   2.81108
 Alpha virt. eigenvalues --    2.92734   2.95375   3.00246   3.04046   3.08477
 Alpha virt. eigenvalues --    3.12694   3.15346   3.19343   3.23378   3.24090
 Alpha virt. eigenvalues --    3.27006   3.38777   3.48110   3.50958   3.53825
 Alpha virt. eigenvalues --    3.56344   3.69534   3.73776   3.81862   3.86630
 Alpha virt. eigenvalues --    4.05969   4.06223   4.13975   4.19098   4.40004
 Alpha virt. eigenvalues --    4.44018   4.56848   4.59538   4.92803   4.95569
 Alpha virt. eigenvalues --    5.04106   5.08405   5.62460   6.15425   6.61742
 Alpha virt. eigenvalues --    7.44656   7.46224   7.56141  23.20856  23.60905
 Alpha virt. eigenvalues --   23.67670  23.79467  23.95930  24.01095  35.32274
 Alpha virt. eigenvalues --   47.88478  49.85154  49.93974 289.77837 289.79507
 Alpha virt. eigenvalues --  289.919791020.88946
          Condensed to atoms (all electrons):
               1          2          3          4          5          6
     1  C    8.553667  -1.851455   0.192338  -1.476029  -0.884907   0.304328
     2  C   -1.851455  12.055929  -1.812668  -2.736833   1.096388  -0.009821
     3  C    0.192338  -1.812668  12.874504  -2.626177  -1.372762   0.022088
     4  C   -1.476029  -2.736833  -2.626177  15.600501   0.839332   0.004077
     5  C   -0.884907   1.096388  -1.372762   0.839332   7.631061   0.008503
     6  H    0.304328  -0.009821   0.022088   0.004077   0.008503   0.279380
     7  H    0.046525   0.251863   0.049422  -0.018770  -0.014662  -0.000985
     8  H    0.009829  -0.033978   0.122070   0.159692  -0.027734   0.000003
     9  H    0.059458  -0.026260   0.009022  -0.019187   0.294472  -0.001975
    10  N   -0.090956   0.285044  -0.911989   0.317479   0.034966  -0.000402
    11  O    0.040243  -0.109648  -0.243022  -0.069412  -0.068717  -0.000028
    12  O    0.274611   0.051991  -0.294266  -0.089863  -0.034330  -0.000008
    13  C    1.366358  -1.671766   0.704677  -4.154439  -1.541468  -0.003607
    14  H   -0.019459   0.025301  -0.017369   0.068902  -0.004849  -0.000014
    15  Br   0.015947   0.041168  -0.056095  -0.064829  -0.001148  -0.000293
               7          8          9         10         11         12
     1  C    0.046525   0.009829   0.059458  -0.090956   0.040243   0.274611
     2  C    0.251863  -0.033978  -0.026260   0.285044  -0.109648   0.051991
     3  C    0.049422   0.122070   0.009022  -0.911989  -0.243022  -0.294266
     4  C   -0.018770   0.159692  -0.019187   0.317479  -0.069412  -0.089863
     5  C   -0.014662  -0.027734   0.294472   0.034966  -0.068717  -0.034330
     6  H   -0.000985   0.000003  -0.001975  -0.000402  -0.000028  -0.000008
     7  H    0.255964   0.000020   0.000048  -0.019609  -0.000990   0.017292
     8  H    0.000020   0.346642   0.000093  -0.029642   0.027413  -0.001365
     9  H    0.000048   0.000093   0.316423   0.000275   0.000007   0.000004
    10  N   -0.019609  -0.029642   0.000275   7.374986   0.118002   0.215544
    11  O   -0.000990   0.027413   0.000007   0.118002   7.992563   0.000883
    12  O    0.017292  -0.001365   0.000004   0.215544   0.000883   7.711132
    13  C    0.010554   0.110576   0.010477  -0.199629   0.365580   0.022504
    14  H   -0.000026  -0.005970  -0.005093  -0.000217  -0.000109  -0.000087
    15  Br   0.000063   0.006144   0.006244   0.015656  -0.001469   0.002183
              13         14         15
     1  C    1.366358  -0.019459   0.015947
     2  C   -1.671766   0.025301   0.041168
     3  C    0.704677  -0.017369  -0.056095
     4  C   -4.154439   0.068902  -0.064829
     5  C   -1.541468  -0.004849  -0.001148
     6  H   -0.003607  -0.000014  -0.000293
     7  H    0.010554  -0.000026   0.000063
     8  H    0.110576  -0.005970   0.006144
     9  H    0.010477  -0.005093   0.006244
    10  N   -0.199629  -0.000217   0.015656
    11  O    0.365580  -0.000109  -0.001469
    12  O    0.022504  -0.000087   0.002183
    13  C   10.986012   0.263805   0.191260
    14  H    0.263805   0.394367  -0.060470
    15  Br   0.191260  -0.060470  34.839133
 Mulliken charges:
               1
     1  C   -0.540499
     2  C    0.444745
     3  C   -0.639773
     4  C    0.265557
     5  C    0.045854
     6  H    0.398755
     7  H    0.423291
     8  H    0.316206
     9  H    0.355993
    10  N   -0.109508
    11  O   -0.051296
    12  O    0.123775
    13  C   -0.460894
    14  H    0.361287
    15  Br   0.066507
 Sum of Mulliken charges =   1.00000
 Mulliken charges with hydrogens summed into heavy atoms:
               1
     1  C   -0.141744
     2  C    0.868036
     3  C   -0.639773
     4  C    0.581763
     5  C    0.401847
    10  N   -0.109508
    11  O   -0.051296
    12  O    0.123775
    13  C   -0.099607
    15  Br   0.066507
 Electronic spatial extent (au):  <R**2>=           2800.5814
 Charge=              1.0000 electrons
 Dipole moment (field-independent basis, Debye):
    X=             -0.2375    Y=              4.1600    Z=              0.5856  Tot=              4.2077
 Quadrupole moment (field-independent basis, Debye-Ang):
   XX=            -70.2735   YY=            -54.4961   ZZ=            -64.0549
   XY=              6.6066   XZ=              0.5841   YZ=             -0.5165
 Traceless Quadrupole moment (field-independent basis, Debye-Ang):
   XX=             -7.3320   YY=              8.4454   ZZ=             -1.1135
   XY=              6.6066   XZ=              0.5841   YZ=             -0.5165
 Octapole moment (field-independent basis, Debye-Ang**2):
  XXX=           -293.6459  YYY=            116.5612  ZZZ=             81.4264  XYY=            -72.9889
  XXY=             55.4922  XXZ=             32.8561  XZZ=            -76.7700  YZZ=             23.9727
  YYZ=             32.0414  XYZ=             -2.3330
 Hexadecapole moment (field-independent basis, Debye-Ang**3):
 XXXX=          -2257.8888 YYYY=           -708.3874 ZZZZ=           -359.0997 XXXY=             19.5006
 XXXZ=            -23.7379 YYYX=            -43.5591 YYYZ=           -175.8032 ZZZX=            -21.1603
 ZZZY=           -148.4618 XXYY=           -456.3899 XXZZ=           -371.7889 YYZZ=           -178.4474
 XXYZ=            -58.5896 YYXZ=             -6.2040 ZZXY=             -8.0741
 N-N= 7.410798752573D+02 E-N=-8.634547589205D+03  KE= 3.005870838972D+03
 No NMR shielding tensors so no spin-rotation constants.
 Leave Link  601 at Wed May  1 15:06:46 2024, MaxMem=  1207959552 cpu:               7.3 elap:               7.3
 (Enter /software/gaussian/g16-c01/sse4/g16/l9999.exe)
 Unable to Open any file for archive entry.
 1\1\GINC-BHX0018\SP\RwB97XD\6-311+G(d)\C6H5Br1N1O2(1+)\BWEIGHT\01-May-
 2024\0\\#P wB97XD/6-311+G* NoSymm #P Field=Y-165\\TitleMe\\1,1\C,0,0.0
 295,1.3397,0.0682\C,0,1.4348,1.2867,0.0064\C,0,2.1118,0.0511,-0.0054\C
 ,0,1.4451,-1.1372,0.0312\C,0,-0.6879,0.1682,0.11\H,0,-0.4713,2.2984,0.
 0781\H,0,2.0273,2.1965,-0.0322\H,0,1.9897,-2.0764,0.0232\H,0,-1.7716,0
 .1804,0.1582\N,0,3.5864,0.051,-0.0675\O,0,4.1471,-1.0597,-0.0881\O,0,4
 .145,1.1639,-0.0901\C,0,-0.0236,-1.1458,0.0835\H,0,-0.4367,-1.8725,0.7
 889\Br,0,-0.5359,-1.8697,-1.7408\\Version=ES64L-G16RevC.01\HF=-3010.54
 69265\RMSD=5.280e-09\Dipole=-1.9999752,2.7847398,1.3765513\Quadrupole=
 -5.4511302,6.2789544,-0.8278242,4.9118636,0.4342364,-0.3840311\PG=C01 
 [X(C6H5Br1N1O2)]\\@
 The archive entry for this job was punched.


 ONE OF THE BENEFITS OF A COLLEGE EDUCATION
 IS TO SHOW THE BOY ITS LITTLE AVAIL 
                                    EMERSON IN 'CULTURE'
 Job cpu time:       0 days  0 hours 20 minutes 53.9 seconds.
 Elapsed time:       0 days  0 hours 20 minutes 54.1 seconds.
 File lengths (MBytes):  RWF=     40 Int=      0 D2E=      0 Chk=     32 Scr=      1
 Normal termination of Gaussian 16 at Wed May  1 15:06:47 2024.
