 Entering Gaussian System, Link 0=g16
 Initial command:
 /software/gaussian/g16-c01/sse4/g16/l1.exe "/local_scratch/24665278/Gau-10409.inp" -scrdir="/local_scratch/24665278/"
 Entering Link 1 = /software/gaussian/g16-c01/sse4/g16/l1.exe PID=     10418.
  
 Copyright (c) 1988-2019, Gaussian, Inc.  All Rights Reserved.
  
 This is part of the Gaussian(R) 16 program.  It is based on
 the Gaussian(R) 09 system (copyright 2009, Gaussian, Inc.),
 the Gaussian(R) 03 system (copyright 2003, Gaussian, Inc.),
 the Gaussian(R) 98 system (copyright 1998, Gaussian, Inc.),
 the Gaussian(R) 94 system (copyright 1995, Gaussian, Inc.),
 the Gaussian 92(TM) system (copyright 1992, Gaussian, Inc.),
 the Gaussian 90(TM) system (copyright 1990, Gaussian, Inc.),
 the Gaussian 88(TM) system (copyright 1988, Gaussian, Inc.),
 the Gaussian 86(TM) system (copyright 1986, Carnegie Mellon
 University), and the Gaussian 82(TM) system (copyright 1983,
 Carnegie Mellon University). Gaussian is a federally registered
 trademark of Gaussian, Inc.
  
 This software contains proprietary and confidential information,
 including trade secrets, belonging to Gaussian, Inc.
  
 This software is provided under written license and may be
 used, copied, transmitted, or stored only in accord with that
 written license.
  
 The following legend is applicable only to US Government
 contracts under FAR:
  
                    RESTRICTED RIGHTS LEGEND
  
 Use, reproduction and disclosure by the US Government is
 subject to restrictions as set forth in subparagraphs (a)
 and (c) of the Commercial Computer Software - Restricted
 Rights clause in FAR 52.227-19.
  
 Gaussian, Inc.
 340 Quinnipiac St., Bldg. 40, Wallingford CT 06492
  
  
 ---------------------------------------------------------------
 Warning -- This program may not be used in any manner that
 competes with the business of Gaussian, Inc. or will provide
 assistance to any competitor of Gaussian, Inc.  The licensee
 of this program is prohibited from giving any competitor of
 Gaussian, Inc. access to this program.  By using this program,
 the user acknowledges that Gaussian, Inc. is engaged in the
 business of creating and licensing software in the field of
 computational chemistry and represents and warrants to the
 licensee that it is not a competitor of Gaussian, Inc. and that
 it will not use this program in any manner prohibited above.
 ---------------------------------------------------------------
  

 Cite this work as:
 Gaussian 16, Revision C.01,
 M. J. Frisch, G. W. Trucks, H. B. Schlegel, G. E. Scuseria, 
 M. A. Robb, J. R. Cheeseman, G. Scalmani, V. Barone, 
 G. A. Petersson, H. Nakatsuji, X. Li, M. Caricato, A. V. Marenich, 
 J. Bloino, B. G. Janesko, R. Gomperts, B. Mennucci, H. P. Hratchian, 
 J. V. Ortiz, A. F. Izmaylov, J. L. Sonnenberg, D. Williams-Young, 
 F. Ding, F. Lipparini, F. Egidi, J. Goings, B. Peng, A. Petrone, 
 T. Henderson, D. Ranasinghe, V. G. Zakrzewski, J. Gao, N. Rega, 
 G. Zheng, W. Liang, M. Hada, M. Ehara, K. Toyota, R. Fukuda, 
 J. Hasegawa, M. Ishida, T. Nakajima, Y. Honda, O. Kitao, H. Nakai, 
 T. Vreven, K. Throssell, J. A. Montgomery, Jr., J. E. Peralta, 
 F. Ogliaro, M. J. Bearpark, J. J. Heyd, E. N. Brothers, K. N. Kudin, 
 V. N. Staroverov, T. A. Keith, R. Kobayashi, J. Normand, 
 K. Raghavachari, A. P. Rendell, J. C. Burant, S. S. Iyengar, 
 J. Tomasi, M. Cossi, J. M. Millam, M. Klene, C. Adamo, R. Cammi, 
 J. W. Ochterski, R. L. Martin, K. Morokuma, O. Farkas, 
 J. B. Foresman, and D. J. Fox, Gaussian, Inc., Wallingford CT, 2019.
 
 ******************************************
 Gaussian 16:  ES64L-G16RevC.01  3-Jul-2019
                 2-May-2024 
 ******************************************
 %chk=geometry.chk
 %mem=1GB
 %nprocshared=12
 Will use up to   12 processors via shared memory.
 ----------------------------------------
 #P wB97XD/6-311+G* NoSymm #P Field=X+145
 ----------------------------------------
 1/38=1,172=1/1;
 2/12=2,15=1,17=6,18=5,40=1/2;
 3/5=4,6=6,7=11,11=2,14=1,15=145,25=1,30=1,74=-58/1,2,3;
 4//1;
 5/5=2,38=5/2;
 6/7=2,8=2,9=2,10=2,28=1/1;
 99/5=1,9=1/99;
 Leave Link    1 at Thu May  2 13:57:33 2024, MaxMem=   134217728 cpu:               1.3 elap:               1.3
 (Enter /software/gaussian/g16-c01/sse4/g16/l101.exe)
 -------
 TitleMe
 -------
 Symbolic Z-matrix:
 Charge =  1 Multiplicity = 1
 C                     0.5193    1.233    -0.0319 
 C                     1.9445    1.2692   -0.0367 
 C                     2.6204    0.0928   -0.025 
 C                    -0.196     0.0301    0.001 
 H                    -0.0207    2.1742   -0.0434 
 H                     2.4828    2.2089   -0.0361 
 H                    -1.2777    0.0399    0.0117 
 N                     4.0921    0.0959    0.0366 
 O                     4.6393   -1.0217    0.1446 
 O                     4.6649    1.1984   -0.0233 
 C                     0.4943   -1.1671    0.021 
 H                    -0.0325   -2.1149    0.0545 
 C                     1.9629   -1.2165   -0.0211 
 H                     2.4436   -1.9631    0.6151 
 Br                    2.173    -1.9491   -1.9062 
 
 ITRead=  0  0  0  0  0  0  0  0  0  0  0  0  0  0  0
 MicOpt= -1 -1 -1 -1 -1 -1 -1 -1 -1 -1 -1 -1 -1 -1 -1
 NAtoms=     15 NQM=       15 NQMF=       0 NMMI=      0 NMMIF=      0
                NMic=       0 NMicF=      0.
                    Isotopes and Nuclear Properties:
 (Nuclear quadrupole moments (NQMom) in fm**2, nuclear magnetic moments (NMagM)
  in nuclear magnetons)

  Atom         1           2           3           4           5           6           7           8           9          10
 IAtWgt=          12          12          12          12           1           1           1          14          16          16
 AtmWgt=  12.0000000  12.0000000  12.0000000  12.0000000   1.0078250   1.0078250   1.0078250  14.0030740  15.9949146  15.9949146
 NucSpn=           0           0           0           0           1           1           1           2           0           0
 AtZEff=  -0.0000000  -0.0000000  -0.0000000  -0.0000000  -0.0000000  -0.0000000  -0.0000000  -0.0000000  -0.0000000  -0.0000000
 NQMom=    0.0000000   0.0000000   0.0000000   0.0000000   0.0000000   0.0000000   0.0000000   2.0440000   0.0000000   0.0000000
 NMagM=    0.0000000   0.0000000   0.0000000   0.0000000   2.7928460   2.7928460   2.7928460   0.4037610   0.0000000   0.0000000
 AtZNuc=   6.0000000   6.0000000   6.0000000   6.0000000   1.0000000   1.0000000   1.0000000   7.0000000   8.0000000   8.0000000

  Atom        11          12          13          14          15
 IAtWgt=          12           1          12           1          79
 AtmWgt=  12.0000000   1.0078250  12.0000000   1.0078250  78.9183361
 NucSpn=           0           1           0           1           3
 AtZEff=  -0.0000000  -0.0000000  -0.0000000  -0.0000000  -0.0000000
 NQMom=    0.0000000   0.0000000   0.0000000   0.0000000  31.3000000
 NMagM=    0.0000000   2.7928460   0.0000000   2.7928460   2.1063990
 AtZNuc=   6.0000000   1.0000000   6.0000000   1.0000000  35.0000000
 Leave Link  101 at Thu May  2 13:57:35 2024, MaxMem=   134217728 cpu:               1.5 elap:               1.5
 (Enter /software/gaussian/g16-c01/sse4/g16/l202.exe)
                          Input orientation:                          
 ---------------------------------------------------------------------
 Center     Atomic      Atomic             Coordinates (Angstroms)
 Number     Number       Type             X           Y           Z
 ---------------------------------------------------------------------
      1          6           0        0.519300    1.233000   -0.031900
      2          6           0        1.944500    1.269200   -0.036700
      3          6           0        2.620400    0.092800   -0.025000
      4          6           0       -0.196000    0.030100    0.001000
      5          1           0       -0.020700    2.174200   -0.043400
      6          1           0        2.482800    2.208900   -0.036100
      7          1           0       -1.277700    0.039900    0.011700
      8          7           0        4.092100    0.095900    0.036600
      9          8           0        4.639300   -1.021700    0.144600
     10          8           0        4.664900    1.198400   -0.023300
     11          6           0        0.494300   -1.167100    0.021000
     12          1           0       -0.032500   -2.114900    0.054500
     13          6           0        1.962900   -1.216500   -0.021100
     14          1           0        2.443600   -1.963100    0.615100
     15         35           0        2.173000   -1.949100   -1.906200
 ---------------------------------------------------------------------
                    Distance matrix (angstroms):
                    1          2          3          4          5
     1  C    0.000000
     2  C    1.425668   0.000000
     3  C    2.390549   1.356796   0.000000
     4  C    1.399895   2.473566   2.817218   0.000000
     5  H    1.085168   2.163581   3.362733   2.151712   0.000000
     6  H    2.192654   1.082960   2.120598   3.453189   2.503751
     7  H    2.157452   3.449071   3.898632   1.081797   2.477564
     8  N    3.750012   2.448304   1.472992   4.288753   4.608780
     9  O    4.699917   3.541615   2.312322   4.950458   5.653735
    10  O    4.145753   2.721354   2.324292   4.999386   4.786171
    11  C    2.400813   2.835836   2.471794   1.382101   3.381369
    12  H    3.394169   3.920329   3.452266   2.151887   4.290233
    13  C    2.843264   2.485817   1.465124   2.493060   3.928360
    14  H    3.786370   3.334922   2.160489   3.364142   4.860416
    15  Br   4.046416   3.728900   2.812194   3.628609   5.028314
                    6          7          8          9         10
     6  H    0.000000
     7  H    4.341452   0.000000
     8  N    2.657047   5.370150   0.000000
     9  O    3.888434   6.012948   1.249048   0.000000
    10  O    2.404752   6.054572   1.243863   2.226587   0.000000
    11  C    3.918516   2.144043   3.813080   4.149391   4.794941
    12  H    5.003018   2.489080   4.679774   4.798846   5.748876
    13  C    3.464662   3.475788   2.501842   2.688591   3.623886
    14  H    4.222698   4.268978   2.700314   2.434893   3.916224
    15  Br   4.569706   4.420610   3.411663   3.338935   4.434144
                   11         12         13         14         15
    11  C    0.000000
    12  H    1.084880   0.000000
    13  C    1.470034   2.189625   0.000000
    14  H    2.187771   2.543302   1.092353   0.000000
    15  Br   2.672762   2.955683   2.033334   2.535818   0.000000
 Symmetry turned off by external request.
 Stoichiometry    C6H5BrNO2(1+)
 Framework group  C1[X(C6H5BrNO2)]
 Deg. of freedom    39
 Full point group                 C1      NOp   1
 Rotational constants (GHZ):           1.1632986           0.9594224           0.5957624
 Leave Link  202 at Thu May  2 13:57:37 2024, MaxMem=   134217728 cpu:               1.2 elap:               1.2
 (Enter /software/gaussian/g16-c01/sse4/g16/l301.exe)
 Standard basis: 6-311+G(d) (5D, 7F)
 Ernie: Thresh=  0.10000D-02 Tol=  0.10000D-05 Strict=F.
 The following finite field(s) will be applied:
 An electric field of              0.0145  0.0000  0.0000
   261 basis functions,   443 primitive gaussians,   273 cartesian basis functions
    49 alpha electrons       49 beta electrons
       nuclear repulsion energy       772.8945969580 Hartrees.
 IExCor= 4639 DFT=T Ex+Corr=wB97XD ExCW=0 ScaHFX=  1.000000
 ScaDFX=  1.000000  1.000000  1.000000  1.000000 ScalE2=  1.000000  1.000000
 IRadAn=      5 IRanWt=     -1 IRanGd=            0 ICorTp=0 IEmpDi=121
 HFx  wShort=  0.000000 wLong=  0.200000 cFull=  0.222036 cShort=  0.000000 cLong=  0.777964
 DFx  wShort=  0.000000 wLong=  0.200000 cFull=  0.000000 cShort=  0.000000 cLong=  1.000000
 NAtoms=   15 NActive=   15 NUniq=   15 SFac= 1.00D+00 NAtFMM=   60 NAOKFM=F Big=F
 Integral buffers will be    131072 words long.
 Raffenetti 2 integral format.
 Two-electron integral symmetry is turned off.
 R6Disp:  Grimme-D2 Dispersion energy=       -0.0080346408 Hartrees.
 Nuclear repulsion after empirical dispersion term =      772.8865623173 Hartrees.
 Leave Link  301 at Thu May  2 13:57:38 2024, MaxMem=   134217728 cpu:               1.1 elap:               1.1
 (Enter /software/gaussian/g16-c01/sse4/g16/l302.exe)
 NPDir=0 NMtPBC=     1 NCelOv=     1 NCel=       1 NClECP=     1 NCelD=      1
         NCelK=      1 NCelE2=     1 NClLst=     1 CellRange=     0.0.
 One-electron integrals computed using PRISM.
 NBasis=   261 RedAO= T EigKep=  2.52D-06  NBF=   261
 NBsUse=   261 1.00D-06 EigRej= -1.00D+00 NBFU=   261
 Precomputing XC quadrature grid using
 IXCGrd= 4 IRadAn=           5 IRanWt=          -1 IRanGd=           0 AccXCQ= 0.00D+00.
 Generated NRdTot=       0 NPtTot=           0 NUsed=           0 NTot=          32
 NSgBfM=   273   273   273   273   273 MxSgAt=    15 MxSgA2=    15.
 Leave Link  302 at Thu May  2 13:58:00 2024, MaxMem=   134217728 cpu:              21.9 elap:              21.9
 (Enter /software/gaussian/g16-c01/sse4/g16/l303.exe)
 DipDrv:  MaxL=1.
 The nuclear repulsion energy is now       779.1011485318 hartrees.
 Leave Link  303 at Thu May  2 13:58:04 2024, MaxMem=   134217728 cpu:               3.4 elap:               3.4
 (Enter /software/gaussian/g16-c01/sse4/g16/l401.exe)
 ExpMin= 3.50D-02 ExpMax= 4.40D+05 ExpMxC= 1.51D+04 IAcc=3 IRadAn=         5 AccDes= 0.00D+00
 Harris functional with IExCor= 4639 and IRadAn=       5 diagonalized for initial guess.
 HarFok:  IExCor= 4639 AccDes= 0.00D+00 IRadAn=         5 IDoV= 1 UseB2=F ITyADJ=14
 ICtDFT=  3500011 ScaDFX=  1.000000  1.000000  1.000000  1.000000
 FoFCou: FMM=F IPFlag=           0 FMFlag=      100000 FMFlg1=           0
         NFxFlg=           0 DoJE=T BraDBF=F KetDBF=T FulRan=T
         wScrn=  0.000000 ICntrl=       500 IOpCl=  0 I1Cent=   200000004 NGrid=           0
         NMat0=    1 NMatS0=      1 NMatT0=    0 NMatD0=    1 NMtDS0=    0 NMtDT0=    0
 Symmetry not used in FoFCou.
 Harris En= -2970.60407061601    
 JPrj=0 DoOrth=F DoCkMO=F.
 Leave Link  401 at Thu May  2 13:58:35 2024, MaxMem=   134217728 cpu:              31.4 elap:              31.4
 (Enter /software/gaussian/g16-c01/sse4/g16/l502.exe)
 Two-electron integral symmetry not used.
 Closed shell SCF:
 Using DIIS extrapolation, IDIIS=  1040.
 NGot=   134217728 LenX=   134063053 LenY=   133988083
 Requested convergence on RMS density matrix=1.00D-08 within 128 cycles.
 Requested convergence on MAX density matrix=1.00D-06.
 Requested convergence on             energy=1.00D-06.
 No special actions if energy rises.
 Fock matrices will be formed incrementally for  20 cycles.

 Cycle   1  Pass 1  IDiag  1:
 FoFJK:  IHMeth= 1 ICntrl=       0 DoSepK=T KAlg= 0 I1Cent=           0 FoldK=F
 IRaf=         1 NMat=       1 IRICut=       1 DoRegI=T DoRafI=F ISym2E= 0 IDoP0=0 IntGTp=1.
 FoFCou: FMM=F IPFlag=           0 FMFlag=      100000 FMFlg1=           0
         NFxFlg=           0 DoJE=T BraDBF=F KetDBF=F FulRan=T
         wScrn=  0.000000 ICntrl=       500 IOpCl=  0 I1Cent=           0 NGrid=           0
         NMat0=    1 NMatS0=      1 NMatT0=    0 NMatD0=    1 NMtDS0=    0 NMtDT0=    0
 Symmetry not used in FoFCou.
 E= -3009.71709293313    
 DIIS: error= 2.90D-01 at cycle   1 NSaved=   1.
 NSaved= 1 IEnMin= 1 EnMin= -3009.71709293313     IErMin= 1 ErrMin= 2.90D-01
 ErrMax= 2.90D-01  0.00D+00 EMaxC= 1.00D-01 BMatC= 1.19D+01 BMatP= 1.19D+01
 IDIUse=3 WtCom= 0.00D+00 WtEn= 1.00D+00
 Coeff-Com:  0.100D+01
 Coeff-En:   0.100D+01
 Coeff:      0.100D+01
 Gap=     0.246 Goal=   None    Shift=    0.000
 GapD=    0.246 DampG=1.000 DampE=0.250 DampFc=0.2500 IDamp=-1.
 Damping current iteration by 2.50D-01
 RMSDP=7.76D-02 MaxDP=8.10D+00              OVMax= 2.66D-01

 Cycle   2  Pass 1  IDiag  1:
 RMSU=  7.60D-03    CP:  8.67D-01
 E= -3009.99843412934     Delta-E=       -0.281341196210 Rises=F Damp=T
 DIIS: error= 2.19D-01 at cycle   2 NSaved=   2.
 NSaved= 2 IEnMin= 2 EnMin= -3009.99843412934     IErMin= 2 ErrMin= 2.19D-01
 ErrMax= 2.19D-01  0.00D+00 EMaxC= 1.00D-01 BMatC= 5.45D+00 BMatP= 1.19D+01
 IDIUse=3 WtCom= 0.00D+00 WtEn= 1.00D+00
 Coeff-Com: -0.184D+01 0.284D+01
 Coeff-En:   0.000D+00 0.100D+01
 Coeff:      0.000D+00 0.100D+01
 Gap=     0.252 Goal=   None    Shift=    0.000
 RMSDP=5.92D-02 MaxDP=6.40D+00 DE=-2.81D-01 OVMax= 6.77D-02

 Cycle   3  Pass 1  IDiag  1:
 RMSU=  5.08D-03    CP:  4.47D-01  3.00D+00
 E= -3010.38096709258     Delta-E=       -0.382532963237 Rises=F Damp=F
 DIIS: error= 6.57D-02 at cycle   3 NSaved=   3.
 NSaved= 3 IEnMin= 3 EnMin= -3010.38096709258     IErMin= 3 ErrMin= 6.57D-02
 ErrMax= 6.57D-02  0.00D+00 EMaxC= 1.00D-01 BMatC= 7.23D-01 BMatP= 5.45D+00
 IDIUse=3 WtCom= 3.43D-01 WtEn= 6.57D-01
 Coeff-Com:  0.270D+01-0.355D+01 0.185D+01
 Coeff-En:   0.168D-01 0.000D+00 0.983D+00
 Coeff:      0.938D+00-0.122D+01 0.128D+01
 Gap=     0.246 Goal=   None    Shift=    0.000
 RMSDP=1.24D-02 MaxDP=7.99D-01 DE=-3.83D-01 OVMax= 7.22D-02

 Cycle   4  Pass 1  IDiag  1:
 RMSU=  6.86D-03    CP:  4.71D-01  2.19D+00  2.27D+00
 E= -3010.47909000704     Delta-E=       -0.098122914466 Rises=F Damp=F
 DIIS: error= 3.95D-02 at cycle   4 NSaved=   4.
 NSaved= 4 IEnMin= 4 EnMin= -3010.47909000704     IErMin= 4 ErrMin= 3.95D-02
 ErrMax= 3.95D-02  0.00D+00 EMaxC= 1.00D-01 BMatC= 2.43D-01 BMatP= 7.23D-01
 IDIUse=3 WtCom= 6.05D-01 WtEn= 3.95D-01
 Coeff-Com: -0.121D+00 0.174D+00 0.311D+00 0.635D+00
 Coeff-En:   0.000D+00 0.000D+00 0.215D+00 0.785D+00
 Coeff:     -0.730D-01 0.106D+00 0.273D+00 0.694D+00
 Gap=     0.255 Goal=   None    Shift=    0.000
 RMSDP=5.09D-03 MaxDP=5.16D-01 DE=-9.81D-02 OVMax= 3.14D-02

 Cycle   5  Pass 1  IDiag  1:
 RMSU=  1.97D-03    CP:  4.42D-01  2.33D+00  2.09D+00  6.74D-01
 E= -3010.52552425422     Delta-E=       -0.046434247180 Rises=F Damp=F
 DIIS: error= 6.52D-03 at cycle   5 NSaved=   5.
 NSaved= 5 IEnMin= 5 EnMin= -3010.52552425422     IErMin= 5 ErrMin= 6.52D-03
 ErrMax= 6.52D-03  0.00D+00 EMaxC= 1.00D-01 BMatC= 7.81D-03 BMatP= 2.43D-01
 IDIUse=3 WtCom= 9.35D-01 WtEn= 6.52D-02
 Coeff-Com: -0.132D+00 0.181D+00 0.890D-01 0.366D+00 0.497D+00
 Coeff-En:   0.000D+00 0.000D+00 0.000D+00 0.000D+00 0.100D+01
 Coeff:     -0.124D+00 0.169D+00 0.832D-01 0.342D+00 0.529D+00
 Gap=     0.247 Goal=   None    Shift=    0.000
 RMSDP=1.29D-03 MaxDP=1.53D-01 DE=-4.64D-02 OVMax= 1.94D-02

 Cycle   6  Pass 1  IDiag  1:
 RMSU=  5.85D-04    CP:  4.46D-01  2.34D+00  2.16D+00  7.97D-01  7.74D-01
 E= -3010.52744203140     Delta-E=       -0.001917777176 Rises=F Damp=F
 DIIS: error= 2.33D-03 at cycle   6 NSaved=   6.
 NSaved= 6 IEnMin= 6 EnMin= -3010.52744203140     IErMin= 6 ErrMin= 2.33D-03
 ErrMax= 2.33D-03  0.00D+00 EMaxC= 1.00D-01 BMatC= 4.85D-04 BMatP= 7.81D-03
 IDIUse=3 WtCom= 9.77D-01 WtEn= 2.33D-02
 Coeff-Com: -0.989D-01 0.133D+00-0.947D-03 0.158D+00 0.356D+00 0.453D+00
 Coeff-En:   0.000D+00 0.000D+00 0.000D+00 0.000D+00 0.730D-01 0.927D+00
 Coeff:     -0.966D-01 0.130D+00-0.925D-03 0.154D+00 0.349D+00 0.464D+00
 Gap=     0.247 Goal=   None    Shift=    0.000
 RMSDP=4.04D-04 MaxDP=3.63D-02 DE=-1.92D-03 OVMax= 6.69D-03

 Cycle   7  Pass 1  IDiag  1:
 RMSU=  2.01D-04    CP:  4.45D-01  2.33D+00  2.16D+00  7.75D-01  8.69D-01
                    CP:  7.52D-01
 E= -3010.52777869166     Delta-E=       -0.000336660264 Rises=F Damp=F
 DIIS: error= 3.05D-04 at cycle   7 NSaved=   7.
 NSaved= 7 IEnMin= 7 EnMin= -3010.52777869166     IErMin= 7 ErrMin= 3.05D-04
 ErrMax= 3.05D-04  0.00D+00 EMaxC= 1.00D-01 BMatC= 1.35D-05 BMatP= 4.85D-04
 IDIUse=3 WtCom= 9.97D-01 WtEn= 3.05D-03
 Coeff-Com: -0.326D-01 0.434D-01-0.128D-01 0.277D-01 0.801D-01 0.172D+00
 Coeff-Com:  0.722D+00
 Coeff-En:   0.000D+00 0.000D+00 0.000D+00 0.000D+00 0.000D+00 0.000D+00
 Coeff-En:   0.100D+01
 Coeff:     -0.325D-01 0.433D-01-0.127D-01 0.276D-01 0.799D-01 0.172D+00
 Coeff:      0.723D+00
 Gap=     0.248 Goal=   None    Shift=    0.000
 RMSDP=1.85D-04 MaxDP=1.58D-02 DE=-3.37D-04 OVMax= 1.51D-03

 Cycle   8  Pass 1  IDiag  1:
 RMSU=  8.00D-05    CP:  4.44D-01  2.32D+00  2.18D+00  7.86D-01  9.04D-01
                    CP:  7.92D-01  1.08D+00
 E= -3010.52779327698     Delta-E=       -0.000014585320 Rises=F Damp=F
 DIIS: error= 1.41D-04 at cycle   8 NSaved=   8.
 NSaved= 8 IEnMin= 8 EnMin= -3010.52779327698     IErMin= 8 ErrMin= 1.41D-04
 ErrMax= 1.41D-04  0.00D+00 EMaxC= 1.00D-01 BMatC= 2.16D-06 BMatP= 1.35D-05
 IDIUse=3 WtCom= 9.99D-01 WtEn= 1.41D-03
 Coeff-Com:  0.575D-02-0.790D-02-0.324D-02-0.140D-01-0.313D-01-0.383D-01
 Coeff-Com:  0.201D+00 0.888D+00
 Coeff-En:   0.000D+00 0.000D+00 0.000D+00 0.000D+00 0.000D+00 0.000D+00
 Coeff-En:   0.000D+00 0.100D+01
 Coeff:      0.574D-02-0.789D-02-0.324D-02-0.140D-01-0.313D-01-0.383D-01
 Coeff:      0.201D+00 0.888D+00
 Gap=     0.248 Goal=   None    Shift=    0.000
 RMSDP=9.44D-05 MaxDP=7.68D-03 DE=-1.46D-05 OVMax= 8.82D-04

 Cycle   9  Pass 1  IDiag  1:
 RMSU=  2.58D-05    CP:  4.45D-01  2.32D+00  2.18D+00  7.92D-01  9.16D-01
                    CP:  8.26D-01  1.29D+00  1.21D+00
 E= -3010.52779655438     Delta-E=       -0.000003277394 Rises=F Damp=F
 DIIS: error= 2.61D-05 at cycle   9 NSaved=   9.
 NSaved= 9 IEnMin= 9 EnMin= -3010.52779655438     IErMin= 9 ErrMin= 2.61D-05
 ErrMax= 2.61D-05  0.00D+00 EMaxC= 1.00D-01 BMatC= 2.35D-07 BMatP= 2.16D-06
 IDIUse=1 WtCom= 1.00D+00 WtEn= 0.00D+00
 Coeff-Com:  0.604D-02-0.811D-02 0.536D-03-0.822D-02-0.188D-01-0.338D-01
 Coeff-Com: -0.360D-01 0.289D+00 0.809D+00
 Coeff:      0.604D-02-0.811D-02 0.536D-03-0.822D-02-0.188D-01-0.338D-01
 Coeff:     -0.360D-01 0.289D+00 0.809D+00
 Gap=     0.248 Goal=   None    Shift=    0.000
 RMSDP=3.37D-05 MaxDP=2.71D-03 DE=-3.28D-06 OVMax= 4.14D-04

 Cycle  10  Pass 1  IDiag  1:
 RMSU=  1.06D-05    CP:  4.45D-01  2.31D+00  2.19D+00  7.91D-01  9.23D-01
                    CP:  8.23D-01  1.34D+00  1.31D+00  1.08D+00
 E= -3010.52779701214     Delta-E=       -0.000000457761 Rises=F Damp=F
 DIIS: error= 1.57D-05 at cycle  10 NSaved=  10.
 NSaved=10 IEnMin=10 EnMin= -3010.52779701214     IErMin=10 ErrMin= 1.57D-05
 ErrMax= 1.57D-05  0.00D+00 EMaxC= 1.00D-01 BMatC= 4.52D-08 BMatP= 2.35D-07
 IDIUse=1 WtCom= 1.00D+00 WtEn= 0.00D+00
 Coeff-Com:  0.486D-03-0.632D-03 0.284D-03-0.500D-03 0.304D-03-0.123D-02
 Coeff-Com: -0.356D-01-0.318D-01 0.217D+00 0.852D+00
 Coeff:      0.486D-03-0.632D-03 0.284D-03-0.500D-03 0.304D-03-0.123D-02
 Coeff:     -0.356D-01-0.318D-01 0.217D+00 0.852D+00
 Gap=     0.248 Goal=   None    Shift=    0.000
 RMSDP=6.37D-06 MaxDP=4.83D-04 DE=-4.58D-07 OVMax= 2.02D-04

 Cycle  11  Pass 1  IDiag  1:
 RMSU=  4.50D-06    CP:  4.45D-01  2.31D+00  2.19D+00  7.91D-01  9.24D-01
                    CP:  8.25D-01  1.34D+00  1.31D+00  1.14D+00  1.22D+00
 E= -3010.52779708788     Delta-E=       -0.000000075741 Rises=F Damp=F
 DIIS: error= 5.01D-06 at cycle  11 NSaved=  11.
 NSaved=11 IEnMin=11 EnMin= -3010.52779708788     IErMin=11 ErrMin= 5.01D-06
 ErrMax= 5.01D-06  0.00D+00 EMaxC= 1.00D-01 BMatC= 2.74D-09 BMatP= 4.52D-08
 IDIUse=1 WtCom= 1.00D+00 WtEn= 0.00D+00
 Coeff-Com: -0.224D-03 0.299D-03 0.243D-04 0.554D-03 0.153D-02 0.302D-02
 Coeff-Com:  0.903D-02-0.198D-01-0.117D+00-0.870D-01 0.121D+01
 Coeff:     -0.224D-03 0.299D-03 0.243D-04 0.554D-03 0.153D-02 0.302D-02
 Coeff:      0.903D-02-0.198D-01-0.117D+00-0.870D-01 0.121D+01
 Gap=     0.248 Goal=   None    Shift=    0.000
 RMSDP=6.48D-06 MaxDP=8.30D-04 DE=-7.57D-08 OVMax= 1.61D-04

 Cycle  12  Pass 1  IDiag  1:
 RMSU=  1.21D-06    CP:  4.45D-01  2.31D+00  2.19D+00  7.90D-01  9.24D-01
                    CP:  8.24D-01  1.33D+00  1.29D+00  1.16D+00  1.44D+00
                    CP:  1.56D+00
 E= -3010.52779710693     Delta-E=       -0.000000019051 Rises=F Damp=F
 DIIS: error= 2.11D-06 at cycle  12 NSaved=  12.
 NSaved=12 IEnMin=12 EnMin= -3010.52779710693     IErMin=12 ErrMin= 2.11D-06
 ErrMax= 2.11D-06  0.00D+00 EMaxC= 1.00D-01 BMatC= 1.31D-09 BMatP= 2.74D-09
 IDIUse=1 WtCom= 1.00D+00 WtEn= 0.00D+00
 Coeff-Com: -0.196D-03 0.259D-03-0.233D-04 0.366D-03 0.570D-03 0.134D-02
 Coeff-Com:  0.100D-01-0.629D-02-0.919D-01-0.190D+00 0.575D+00 0.701D+00
 Coeff:     -0.196D-03 0.259D-03-0.233D-04 0.366D-03 0.570D-03 0.134D-02
 Coeff:      0.100D-01-0.629D-02-0.919D-01-0.190D+00 0.575D+00 0.701D+00
 Gap=     0.248 Goal=   None    Shift=    0.000
 RMSDP=2.06D-06 MaxDP=2.13D-04 DE=-1.91D-08 OVMax= 5.59D-05

 Cycle  13  Pass 1  IDiag  1:
 RMSU=  6.32D-07    CP:  4.45D-01  2.31D+00  2.19D+00  7.90D-01  9.24D-01
                    CP:  8.24D-01  1.33D+00  1.28D+00  1.17D+00  1.52D+00
                    CP:  1.74D+00  1.21D+00
 E= -3010.52779711078     Delta-E=       -0.000000003846 Rises=F Damp=F
 DIIS: error= 8.29D-07 at cycle  13 NSaved=  13.
 NSaved=13 IEnMin=13 EnMin= -3010.52779711078     IErMin=13 ErrMin= 8.29D-07
 ErrMax= 8.29D-07  0.00D+00 EMaxC= 1.00D-01 BMatC= 1.53D-10 BMatP= 1.31D-09
 IDIUse=1 WtCom= 1.00D+00 WtEn= 0.00D+00
 Coeff-Com: -0.107D-04 0.145D-04-0.170D-04-0.778D-04-0.423D-03-0.828D-03
 Coeff-Com: -0.122D-02 0.374D-02 0.245D-01 0.495D-02-0.183D+00-0.392D-01
 Coeff-Com:  0.119D+01
 Coeff:     -0.107D-04 0.145D-04-0.170D-04-0.778D-04-0.423D-03-0.828D-03
 Coeff:     -0.122D-02 0.374D-02 0.245D-01 0.495D-02-0.183D+00-0.392D-01
 Coeff:      0.119D+01
 Gap=     0.248 Goal=   None    Shift=    0.000
 RMSDP=1.02D-06 MaxDP=6.93D-05 DE=-3.85D-09 OVMax= 4.16D-05

 Cycle  14  Pass 1  IDiag  1:
 RMSU=  3.35D-07    CP:  4.45D-01  2.31D+00  2.19D+00  7.90D-01  9.24D-01
                    CP:  8.24D-01  1.33D+00  1.28D+00  1.18D+00  1.53D+00
                    CP:  1.75D+00  1.41D+00  1.74D+00
 E= -3010.52779711182     Delta-E=       -0.000000001047 Rises=F Damp=F
 DIIS: error= 3.37D-07 at cycle  14 NSaved=  14.
 NSaved=14 IEnMin=14 EnMin= -3010.52779711182     IErMin=14 ErrMin= 3.37D-07
 ErrMax= 3.37D-07  0.00D+00 EMaxC= 1.00D-01 BMatC= 4.03D-11 BMatP= 1.53D-10
 IDIUse=1 WtCom= 1.00D+00 WtEn= 0.00D+00
 Coeff-Com:  0.134D-04-0.175D-04-0.478D-05-0.642D-04-0.174D-03-0.363D-03
 Coeff-Com: -0.158D-02 0.173D-02 0.201D-01 0.251D-01-0.136D+00-0.171D+00
 Coeff-Com:  0.335D+00 0.927D+00
 Coeff:      0.134D-04-0.175D-04-0.478D-05-0.642D-04-0.174D-03-0.363D-03
 Coeff:     -0.158D-02 0.173D-02 0.201D-01 0.251D-01-0.136D+00-0.171D+00
 Coeff:      0.335D+00 0.927D+00
 Gap=     0.248 Goal=   None    Shift=    0.000
 RMSDP=5.84D-07 MaxDP=3.89D-05 DE=-1.05D-09 OVMax= 1.89D-05

 Cycle  15  Pass 1  IDiag  1:
 RMSU=  1.27D-07    CP:  4.45D-01  2.31D+00  2.19D+00  7.90D-01  9.25D-01
                    CP:  8.24D-01  1.33D+00  1.28D+00  1.19D+00  1.54D+00
                    CP:  1.75D+00  1.47D+00  2.21D+00  1.35D+00
 E= -3010.52779711201     Delta-E=       -0.000000000184 Rises=F Damp=F
 DIIS: error= 1.18D-07 at cycle  15 NSaved=  15.
 NSaved=15 IEnMin=15 EnMin= -3010.52779711201     IErMin=15 ErrMin= 1.18D-07
 ErrMax= 1.18D-07  0.00D+00 EMaxC= 1.00D-01 BMatC= 6.37D-12 BMatP= 4.03D-11
 IDIUse=1 WtCom= 1.00D+00 WtEn= 0.00D+00
 Coeff-Com:  0.620D-05-0.825D-05 0.204D-05-0.207D-05 0.458D-04 0.902D-04
 Coeff-Com: -0.174D-03-0.517D-03 0.867D-03 0.672D-02 0.371D-02-0.572D-01
 Coeff-Com: -0.129D+00 0.335D+00 0.840D+00
 Coeff:      0.620D-05-0.825D-05 0.204D-05-0.207D-05 0.458D-04 0.902D-04
 Coeff:     -0.174D-03-0.517D-03 0.867D-03 0.672D-02 0.371D-02-0.572D-01
 Coeff:     -0.129D+00 0.335D+00 0.840D+00
 Gap=     0.248 Goal=   None    Shift=    0.000
 RMSDP=2.71D-07 MaxDP=2.58D-05 DE=-1.84D-10 OVMax= 6.66D-06

 Cycle  16  Pass 1  IDiag  1:
 RMSU=  3.07D-08    CP:  4.45D-01  2.31D+00  2.19D+00  7.90D-01  9.25D-01
                    CP:  8.24D-01  1.33D+00  1.28D+00  1.19D+00  1.54D+00
                    CP:  1.73D+00  1.47D+00  2.37D+00  1.58D+00  1.37D+00
 E= -3010.52779711201     Delta-E=       -0.000000000005 Rises=F Damp=F
 DIIS: error= 4.74D-08 at cycle  16 NSaved=  16.
 NSaved=16 IEnMin=16 EnMin= -3010.52779711201     IErMin=16 ErrMin= 4.74D-08
 ErrMax= 4.74D-08  0.00D+00 EMaxC= 1.00D-01 BMatC= 9.57D-13 BMatP= 6.37D-12
 IDIUse=1 WtCom= 1.00D+00 WtEn= 0.00D+00
 Coeff-Com:  0.135D-05-0.182D-05 0.157D-05 0.651D-05 0.336D-04 0.694D-04
 Coeff-Com:  0.129D-03-0.378D-03-0.220D-02-0.335D-03 0.184D-01 0.751D-02
 Coeff-Com: -0.894D-01-0.650D-01 0.202D+00 0.929D+00
 Coeff:      0.135D-05-0.182D-05 0.157D-05 0.651D-05 0.336D-04 0.694D-04
 Coeff:      0.129D-03-0.378D-03-0.220D-02-0.335D-03 0.184D-01 0.751D-02
 Coeff:     -0.894D-01-0.650D-01 0.202D+00 0.929D+00
 Gap=     0.248 Goal=   None    Shift=    0.000
 RMSDP=1.26D-07 MaxDP=1.13D-05 DE=-5.46D-12 OVMax= 2.80D-06

 Cycle  17  Pass 1  IDiag  1:
 RMSU=  1.48D-08    CP:  4.45D-01  2.31D+00  2.19D+00  7.90D-01  9.25D-01
                    CP:  8.24D-01  1.33D+00  1.28D+00  1.19D+00  1.54D+00
                    CP:  1.72D+00  1.47D+00  2.44D+00  1.69D+00  1.63D+00
                    CP:  1.42D+00
 E= -3010.52779711205     Delta-E=       -0.000000000039 Rises=F Damp=F
 DIIS: error= 2.87D-08 at cycle  17 NSaved=  17.
 NSaved=17 IEnMin=17 EnMin= -3010.52779711205     IErMin=17 ErrMin= 2.87D-08
 ErrMax= 2.87D-08  0.00D+00 EMaxC= 1.00D-01 BMatC= 2.28D-13 BMatP= 9.57D-13
 IDIUse=1 WtCom= 1.00D+00 WtEn= 0.00D+00
 Coeff-Com: -0.980D-06 0.130D-05 0.902D-07 0.277D-05 0.464D-05 0.108D-04
 Coeff-Com:  0.676D-04-0.424D-04-0.922D-03-0.119D-02 0.448D-02 0.112D-01
 Coeff-Com: -0.100D-01-0.646D-01-0.673D-01 0.347D+00 0.782D+00
 Coeff:     -0.980D-06 0.130D-05 0.902D-07 0.277D-05 0.464D-05 0.108D-04
 Coeff:      0.676D-04-0.424D-04-0.922D-03-0.119D-02 0.448D-02 0.112D-01
 Coeff:     -0.100D-01-0.646D-01-0.673D-01 0.347D+00 0.782D+00
 Gap=     0.248 Goal=   None    Shift=    0.000
 RMSDP=2.29D-08 MaxDP=1.44D-06 DE=-3.91D-11 OVMax= 8.20D-07

 Cycle  18  Pass 1  IDiag  1:
 RMSU=  6.53D-09    CP:  4.45D-01  2.31D+00  2.19D+00  7.90D-01  9.25D-01
                    CP:  8.24D-01  1.33D+00  1.28D+00  1.19D+00  1.54D+00
                    CP:  1.72D+00  1.47D+00  2.45D+00  1.71D+00  1.71D+00
                    CP:  1.66D+00  1.13D+00
 E= -3010.52779711206     Delta-E=       -0.000000000006 Rises=F Damp=F
 DIIS: error= 9.47D-09 at cycle  18 NSaved=  18.
 NSaved=18 IEnMin=18 EnMin= -3010.52779711206     IErMin=18 ErrMin= 9.47D-09
 ErrMax= 9.47D-09  0.00D+00 EMaxC= 1.00D-01 BMatC= 4.92D-14 BMatP= 2.28D-13
 IDIUse=1 WtCom= 1.00D+00 WtEn= 0.00D+00
 Coeff-Com: -0.128D-06 0.173D-06-0.285D-06-0.148D-05-0.903D-05-0.182D-04
 Coeff-Com: -0.162D-04 0.120D-03 0.290D-03-0.231D-03-0.354D-02 0.350D-02
 Coeff-Com:  0.213D-01-0.710D-02-0.999D-01-0.973D-01 0.304D+00 0.879D+00
 Coeff:     -0.128D-06 0.173D-06-0.285D-06-0.148D-05-0.903D-05-0.182D-04
 Coeff:     -0.162D-04 0.120D-03 0.290D-03-0.231D-03-0.354D-02 0.350D-02
 Coeff:      0.213D-01-0.710D-02-0.999D-01-0.973D-01 0.304D+00 0.879D+00
 Gap=     0.248 Goal=   None    Shift=    0.000
 RMSDP=1.48D-08 MaxDP=1.66D-06 DE=-6.37D-12 OVMax= 3.44D-07

 Cycle  19  Pass 1  IDiag  1:
 RMSU=  2.26D-09    CP:  4.45D-01  2.31D+00  2.19D+00  7.90D-01  9.25D-01
                    CP:  8.24D-01  1.33D+00  1.28D+00  1.19D+00  1.54D+00
                    CP:  1.72D+00  1.47D+00  2.46D+00  1.71D+00  1.76D+00
                    CP:  1.83D+00  1.38D+00  1.16D+00
 E= -3010.52779711205     Delta-E=        0.000000000007 Rises=F Damp=F
 DIIS: error= 2.16D-09 at cycle  19 NSaved=  19.
 NSaved=19 IEnMin=18 EnMin= -3010.52779711206     IErMin=19 ErrMin= 2.16D-09
 ErrMax= 2.16D-09  0.00D+00 EMaxC= 1.00D-01 BMatC= 2.76D-15 BMatP= 4.92D-14
 IDIUse=1 WtCom= 1.00D+00 WtEn= 0.00D+00
 Large coefficients: NSaved= 19 BigCof=    0.00 CofMax=   10.00 Det=-6.81D-15
 Inversion failed.  Reducing to 18 matrices.
 Large coefficients: NSaved= 18 BigCof=    0.00 CofMax=   10.00 Det=-6.80D-15
 Inversion failed.  Reducing to 17 matrices.
 Large coefficients: NSaved= 17 BigCof=    0.00 CofMax=   10.00 Det=-9.53D-15
 Inversion failed.  Reducing to 16 matrices.
 Coeff-Com: -0.816D-08 0.299D-06-0.189D-06-0.496D-05-0.373D-05 0.512D-04
 Coeff-Com:  0.127D-03-0.503D-03-0.559D-03 0.140D-03 0.661D-02 0.891D-03
 Coeff-Com: -0.208D-01-0.715D-01 0.752D-02 0.108D+01
 Coeff:     -0.816D-08 0.299D-06-0.189D-06-0.496D-05-0.373D-05 0.512D-04
 Coeff:      0.127D-03-0.503D-03-0.559D-03 0.140D-03 0.661D-02 0.891D-03
 Coeff:     -0.208D-01-0.715D-01 0.752D-02 0.108D+01
 Gap=     0.248 Goal=   None    Shift=    0.000
 RMSDP=2.93D-09 MaxDP=2.53D-07 DE= 7.28D-12 OVMax= 1.00D-07

 SCF Done:  E(RwB97XD) =  -3010.52779711     A.U. after   19 cycles
            NFock= 19  Conv=0.29D-08     -V/T= 2.0016
 KE= 3.005867693496D+03 PE=-8.706228081990D+03 EE= 1.910731442850D+03
 Leave Link  502 at Thu May  2 14:17:50 2024, MaxMem=   134217728 cpu:            1154.7 elap:            1155.0
 (Enter /software/gaussian/g16-c01/sse4/g16/l601.exe)
 Copying SCF densities to generalized density rwf, IOpCl= 0 IROHF=0.

 **********************************************************************

            Population analysis using the SCF Density.

 **********************************************************************

 Alpha  occ. eigenvalues -- -483.36141 -62.91173 -56.70857 -56.70300 -56.70291
 Alpha  occ. eigenvalues --  -19.55300 -19.55210 -14.94455 -10.64407 -10.63159
 Alpha  occ. eigenvalues --  -10.61288 -10.60674 -10.59061 -10.55953  -9.06986
 Alpha  occ. eigenvalues --   -6.89641  -6.87809  -6.87784  -2.99551  -2.99067
 Alpha  occ. eigenvalues --   -2.99046  -2.97580  -2.97580  -1.58889  -1.41942
 Alpha  occ. eigenvalues --   -1.27417  -1.17950  -1.17350  -1.09859  -1.05942
 Alpha  occ. eigenvalues --   -0.99865  -0.95814  -0.92168  -0.88961  -0.87342
 Alpha  occ. eigenvalues --   -0.85681  -0.83194  -0.81922  -0.80532  -0.76634
 Alpha  occ. eigenvalues --   -0.72083  -0.71814  -0.67872  -0.66604  -0.66007
 Alpha  occ. eigenvalues --   -0.65162  -0.64431  -0.61427  -0.59788
 Alpha virt. eigenvalues --   -0.35026  -0.27512  -0.20746  -0.18310  -0.14556
 Alpha virt. eigenvalues --   -0.11698  -0.11154  -0.10516  -0.09188  -0.07465
 Alpha virt. eigenvalues --   -0.07082  -0.06272  -0.06198  -0.05463  -0.04612
 Alpha virt. eigenvalues --   -0.04249  -0.03218  -0.02730  -0.02206  -0.01590
 Alpha virt. eigenvalues --   -0.00925   0.00355   0.00456   0.01910   0.02115
 Alpha virt. eigenvalues --    0.02507   0.03077   0.03607   0.03847   0.04847
 Alpha virt. eigenvalues --    0.05099   0.05809   0.06692   0.07112   0.07722
 Alpha virt. eigenvalues --    0.07946   0.08868   0.09057   0.10061   0.11219
 Alpha virt. eigenvalues --    0.12085   0.13025   0.13209   0.13780   0.14741
 Alpha virt. eigenvalues --    0.15299   0.15569   0.16793   0.17274   0.17983
 Alpha virt. eigenvalues --    0.18921   0.19978   0.21246   0.22281   0.23438
 Alpha virt. eigenvalues --    0.25979   0.26340   0.26567   0.28884   0.29560
 Alpha virt. eigenvalues --    0.32465   0.32805   0.35498   0.35757   0.37749
 Alpha virt. eigenvalues --    0.39620   0.39739   0.40489   0.41495   0.42684
 Alpha virt. eigenvalues --    0.43902   0.44039   0.45797   0.47144   0.48466
 Alpha virt. eigenvalues --    0.50509   0.51607   0.52875   0.54064   0.55505
 Alpha virt. eigenvalues --    0.58085   0.58992   0.59217   0.62623   0.64915
 Alpha virt. eigenvalues --    0.66562   0.67304   0.68241   0.70129   0.71100
 Alpha virt. eigenvalues --    0.71817   0.72956   0.73331   0.77692   0.78327
 Alpha virt. eigenvalues --    0.81378   0.82488   0.85377   0.89214   0.90866
 Alpha virt. eigenvalues --    0.92206   0.95793   0.98295   1.00171   1.01107
 Alpha virt. eigenvalues --    1.01945   1.04541   1.05179   1.06320   1.10728
 Alpha virt. eigenvalues --    1.13192   1.14461   1.22984   1.28708   1.31869
 Alpha virt. eigenvalues --    1.32481   1.33972   1.38523   1.48874   1.49854
 Alpha virt. eigenvalues --    1.52146   1.52331   1.56432   1.58763   1.61221
 Alpha virt. eigenvalues --    1.62444   1.66012   1.66776   1.71265   1.74742
 Alpha virt. eigenvalues --    1.80162   1.80925   1.82134   1.89597   1.90894
 Alpha virt. eigenvalues --    1.91450   1.96462   1.97559   2.02056   2.04142
 Alpha virt. eigenvalues --    2.08105   2.10144   2.16646   2.18481   2.24106
 Alpha virt. eigenvalues --    2.29107   2.33952   2.35414   2.39216   2.48961
 Alpha virt. eigenvalues --    2.53725   2.57914   2.61490   2.62471   2.64241
 Alpha virt. eigenvalues --    2.66377   2.67864   2.71802   2.72152   2.77339
 Alpha virt. eigenvalues --    2.88125   2.91504   2.94751   3.00506   3.04054
 Alpha virt. eigenvalues --    3.09648   3.12203   3.14112   3.14496   3.17578
 Alpha virt. eigenvalues --    3.22725   3.31047   3.43189   3.44471   3.46265
 Alpha virt. eigenvalues --    3.51837   3.60134   3.65419   3.79221   3.82761
 Alpha virt. eigenvalues --    4.04998   4.05858   4.14386   4.18573   4.35601
 Alpha virt. eigenvalues --    4.38742   4.49128   4.52886   4.84191   4.86960
 Alpha virt. eigenvalues --    4.95831   5.00317   5.53024   6.05868   6.63046
 Alpha virt. eigenvalues --    7.43886   7.46205   7.56358  23.17890  23.56802
 Alpha virt. eigenvalues --   23.66977  23.74182  23.91954  23.97180  35.22726
 Alpha virt. eigenvalues --   47.89172  49.76167  49.84830 289.76823 289.79163
 Alpha virt. eigenvalues --  289.917921020.90368
          Condensed to atoms (all electrons):
               1          2          3          4          5          6
     1  C    6.997399  -1.828001   0.550373   0.036280   0.291617   0.058488
     2  C   -1.828001  16.258301  -3.616689   0.470595  -0.026843   0.230097
     3  C    0.550373  -3.616689  18.533058  -0.972428   0.023820   0.103539
     4  C    0.036280   0.470595  -0.972428   6.209909   0.033869  -0.018920
     5  H    0.291617  -0.026843   0.023820   0.033869   0.298639  -0.001574
     6  H    0.058488   0.230097   0.103539  -0.018920  -0.001574   0.330221
     7  H    0.021246  -0.016077   0.011027   0.301567  -0.001940   0.000007
     8  N   -0.035709  -0.146210  -1.775807  -0.000012  -0.000461  -0.031773
     9  O   -0.006339   0.293083  -0.033138  -0.008192  -0.000022  -0.002186
    10  O    0.192711  -0.201667  -0.249363  -0.022745  -0.000045   0.015876
    11  C    0.483251  -0.713052   1.191874  -0.083626  -0.022258   0.010517
    12  H   -0.012178   0.019577   0.000436   0.031869   0.000046  -0.000015
    13  C   -0.635716  -4.755296  -7.442402   0.345788   0.023574  -0.026331
    14  H   -0.000111   0.046743   0.172510  -0.002853  -0.000031   0.000088
    15  Br   0.015699  -0.195422  -0.348464  -0.003984   0.000024  -0.000861
               7          8          9         10         11         12
     1  C    0.021246  -0.035709  -0.006339   0.192711   0.483251  -0.012178
     2  C   -0.016077  -0.146210   0.293083  -0.201667  -0.713052   0.019577
     3  C    0.011027  -1.775807  -0.033138  -0.249363   1.191874   0.000436
     4  C    0.301567  -0.000012  -0.008192  -0.022745  -0.083626   0.031869
     5  H   -0.001940  -0.000461  -0.000022  -0.000045  -0.022258   0.000046
     6  H    0.000007  -0.031773  -0.002186   0.015876   0.010517  -0.000015
     7  H    0.280916   0.000131  -0.000005   0.000003   0.023465  -0.001730
     8  N    0.000131   7.394085   0.166290   0.280367  -0.075881  -0.000172
     9  O   -0.000005   0.166290   7.910999  -0.023322   0.153870   0.000148
    10  O    0.000003   0.280367  -0.023322   7.856112   0.013550  -0.000022
    11  C    0.023465  -0.075881   0.153870   0.013550   7.011056   0.315529
    12  H   -0.001730  -0.000172   0.000148  -0.000022   0.315529   0.285852
    13  C   -0.014324   1.336279  -0.436900   0.134288  -2.153298  -0.031634
    14  H   -0.000015  -0.045469   0.012610  -0.001828  -0.052319  -0.003684
    15  Br  -0.000436   0.170825  -0.058633   0.006345   0.054133   0.003795
              13         14         15
     1  C   -0.635716  -0.000111   0.015699
     2  C   -4.755296   0.046743  -0.195422
     3  C   -7.442402   0.172510  -0.348464
     4  C    0.345788  -0.002853  -0.003984
     5  H    0.023574  -0.000031   0.000024
     6  H   -0.026331   0.000088  -0.000861
     7  H   -0.014324  -0.000015  -0.000436
     8  N    1.336279  -0.045469   0.170825
     9  O   -0.436900   0.012610  -0.058633
    10  O    0.134288  -0.001828   0.006345
    11  C   -2.153298  -0.052319   0.054133
    12  H   -0.031634  -0.003684   0.003795
    13  C   19.236552   0.178058   0.517789
    14  H    0.178058   0.352543  -0.049872
    15  Br   0.517789  -0.049872  34.733608
 Mulliken charges:
               1
     1  C   -0.129009
     2  C    0.180861
     3  C   -0.148344
     4  C   -0.317116
     5  H    0.381587
     6  H    0.332828
     7  H    0.396165
     8  N   -0.236483
     9  O    0.031737
    10  O   -0.000261
    11  C   -0.156809
    12  H    0.392185
    13  C   -0.276424
    14  H    0.393630
    15  Br   0.155454
 Sum of Mulliken charges =   1.00000
 Mulliken charges with hydrogens summed into heavy atoms:
               1
     1  C    0.252578
     2  C    0.513689
     3  C   -0.148344
     4  C    0.079050
     8  N   -0.236483
     9  O    0.031737
    10  O   -0.000261
    11  C    0.235376
    13  C    0.117206
    15  Br   0.155454
 Electronic spatial extent (au):  <R**2>=           3958.9939
 Charge=              1.0000 electrons
 Dipole moment (field-independent basis, Debye):
    X=             -1.3517    Y=             -0.6981    Z=             -0.5530  Tot=              1.6187
 Quadrupole moment (field-independent basis, Debye-Ang):
   XX=            -84.3848   YY=            -51.4470   ZZ=            -62.6342
   XY=             -1.9203   XZ=             -1.4243   YZ=              1.9871
 Traceless Quadrupole moment (field-independent basis, Debye-Ang):
   XX=            -18.2294   YY=             14.7083   ZZ=              3.5211
   XY=             -1.9203   XZ=             -1.4243   YZ=              1.9871
 Octapole moment (field-independent basis, Debye-Ang**2):
  XXX=           -598.2214  YYY=             93.6697  ZZZ=             84.3328  XYY=           -146.2079
  XXY=             27.2992  XXZ=             29.4199  XZZ=           -137.9000  YZZ=             18.4154
  YYZ=             26.7916  XYZ=              5.5660
 Hexadecapole moment (field-independent basis, Debye-Ang**3):
 XXXX=          -3875.5196 YYYY=           -703.9843 ZZZZ=           -399.0851 XXXY=            185.2695
 XXXZ=            196.1341 YYYX=            192.5264 YYYZ=           -175.1905 ZZZX=            175.1224
 ZZZY=           -147.5047 XXYY=           -663.3944 XXZZ=           -546.7624 YYZZ=           -174.2742
 XXYZ=            -49.6308 YYXZ=             55.3824 ZZXY=             35.2723
 N-N= 7.791011485318D+02 E-N=-8.706228081613D+03  KE= 3.005867693496D+03
 No NMR shielding tensors so no spin-rotation constants.
 Leave Link  601 at Thu May  2 14:17:58 2024, MaxMem=   134217728 cpu:               7.3 elap:               7.3
 (Enter /software/gaussian/g16-c01/sse4/g16/l9999.exe)
 Unable to Open any file for archive entry.
 1\1\GINC-BHX0007\SP\RwB97XD\6-311+G(d)\C6H5Br1N1O2(1+)\BWEIGHT\02-May-
 2024\0\\#P wB97XD/6-311+G* NoSymm #P Field=X+145\\TitleMe\\1,1\C,0,0.5
 193,1.233,-0.0319\C,0,1.9445,1.2692,-0.0367\C,0,2.6204,0.0928,-0.025\C
 ,0,-0.196,0.0301,0.001\H,0,-0.0207,2.1742,-0.0434\H,0,2.4828,2.2089,-0
 .0361\H,0,-1.2777,0.0399,0.0117\N,0,4.0921,0.0959,0.0366\O,0,4.6393,-1
 .0217,0.1446\O,0,4.6649,1.1984,-0.0233\C,0,0.4943,-1.1671,0.021\H,0,-0
 .0325,-2.1149,0.0545\C,0,1.9629,-1.2165,-0.0211\H,0,2.4436,-1.9631,0.6
 151\Br,0,2.173,-1.9491,-1.9062\\Version=ES64L-G16RevC.01\HF=-3010.5277
 971\RMSD=2.929e-09\Dipole=-4.8610188,0.9534625,1.0316406\Quadrupole=-1
 3.5531459,10.9352861,2.6178598,-1.4276637,-1.058923,1.4773432\PG=C01 [
 X(C6H5Br1N1O2)]\\@
 The archive entry for this job was punched.


 NO SCIENCE HAS EVER MADE MORE RAPID PROGRESS IN A
 SHORTER TIME THAN CHEMISTRY.
   -- MARTIN HEINRICH KLOPROTH, 1791
 (FIRST PROFESSOR OF CHEMISTRY AT THE UNIVERSITY OF BERLIN)
 Job cpu time:       0 days  0 hours 20 minutes 24.7 seconds.
 Elapsed time:       0 days  0 hours 20 minutes 25.0 seconds.
 File lengths (MBytes):  RWF=     40 Int=      0 D2E=      0 Chk=     32 Scr=      1
 Normal termination of Gaussian 16 at Thu May  2 14:17:58 2024.
