 Entering Gaussian System, Link 0=g16
 Initial command:
 /software/gaussian/g16-c01/sse4/g16/l1.exe "/local_scratch/24657555/Gau-29337.inp" -scrdir="/local_scratch/24657555/"
 Entering Link 1 = /software/gaussian/g16-c01/sse4/g16/l1.exe PID=     29339.
  
 Copyright (c) 1988-2019, Gaussian, Inc.  All Rights Reserved.
  
 This is part of the Gaussian(R) 16 program.  It is based on
 the Gaussian(R) 09 system (copyright 2009, Gaussian, Inc.),
 the Gaussian(R) 03 system (copyright 2003, Gaussian, Inc.),
 the Gaussian(R) 98 system (copyright 1998, Gaussian, Inc.),
 the Gaussian(R) 94 system (copyright 1995, Gaussian, Inc.),
 the Gaussian 92(TM) system (copyright 1992, Gaussian, Inc.),
 the Gaussian 90(TM) system (copyright 1990, Gaussian, Inc.),
 the Gaussian 88(TM) system (copyright 1988, Gaussian, Inc.),
 the Gaussian 86(TM) system (copyright 1986, Carnegie Mellon
 University), and the Gaussian 82(TM) system (copyright 1983,
 Carnegie Mellon University). Gaussian is a federally registered
 trademark of Gaussian, Inc.
  
 This software contains proprietary and confidential information,
 including trade secrets, belonging to Gaussian, Inc.
  
 This software is provided under written license and may be
 used, copied, transmitted, or stored only in accord with that
 written license.
  
 The following legend is applicable only to US Government
 contracts under FAR:
  
                    RESTRICTED RIGHTS LEGEND
  
 Use, reproduction and disclosure by the US Government is
 subject to restrictions as set forth in subparagraphs (a)
 and (c) of the Commercial Computer Software - Restricted
 Rights clause in FAR 52.227-19.
  
 Gaussian, Inc.
 340 Quinnipiac St., Bldg. 40, Wallingford CT 06492
  
  
 ---------------------------------------------------------------
 Warning -- This program may not be used in any manner that
 competes with the business of Gaussian, Inc. or will provide
 assistance to any competitor of Gaussian, Inc.  The licensee
 of this program is prohibited from giving any competitor of
 Gaussian, Inc. access to this program.  By using this program,
 the user acknowledges that Gaussian, Inc. is engaged in the
 business of creating and licensing software in the field of
 computational chemistry and represents and warrants to the
 licensee that it is not a competitor of Gaussian, Inc. and that
 it will not use this program in any manner prohibited above.
 ---------------------------------------------------------------
  

 Cite this work as:
 Gaussian 16, Revision C.01,
 M. J. Frisch, G. W. Trucks, H. B. Schlegel, G. E. Scuseria, 
 M. A. Robb, J. R. Cheeseman, G. Scalmani, V. Barone, 
 G. A. Petersson, H. Nakatsuji, X. Li, M. Caricato, A. V. Marenich, 
 J. Bloino, B. G. Janesko, R. Gomperts, B. Mennucci, H. P. Hratchian, 
 J. V. Ortiz, A. F. Izmaylov, J. L. Sonnenberg, D. Williams-Young, 
 F. Ding, F. Lipparini, F. Egidi, J. Goings, B. Peng, A. Petrone, 
 T. Henderson, D. Ranasinghe, V. G. Zakrzewski, J. Gao, N. Rega, 
 G. Zheng, W. Liang, M. Hada, M. Ehara, K. Toyota, R. Fukuda, 
 J. Hasegawa, M. Ishida, T. Nakajima, Y. Honda, O. Kitao, H. Nakai, 
 T. Vreven, K. Throssell, J. A. Montgomery, Jr., J. E. Peralta, 
 F. Ogliaro, M. J. Bearpark, J. J. Heyd, E. N. Brothers, K. N. Kudin, 
 V. N. Staroverov, T. A. Keith, R. Kobayashi, J. Normand, 
 K. Raghavachari, A. P. Rendell, J. C. Burant, S. S. Iyengar, 
 J. Tomasi, M. Cossi, J. M. Millam, M. Klene, C. Adamo, R. Cammi, 
 J. W. Ochterski, R. L. Martin, K. Morokuma, O. Farkas, 
 J. B. Foresman, and D. J. Fox, Gaussian, Inc., Wallingford CT, 2019.
 
 ******************************************
 Gaussian 16:  ES64L-G16RevC.01  3-Jul-2019
                 1-May-2024 
 ******************************************
 %chk=geometry.chk
 %mem=9GB
 %nprocshared=12
 Will use up to   12 processors via shared memory.
 ---------------------------------------
 #P wB97XD/6-311+G* NoSymm #P Field=Z-58
 ---------------------------------------
 1/38=1,172=1/1;
 2/12=2,15=1,17=6,18=5,40=1/2;
 3/5=4,6=6,7=11,11=2,14=3,15=-58,25=1,30=1,74=-58/1,2,3;
 4//1;
 5/5=2,38=5/2;
 6/7=2,8=2,9=2,10=2,28=1/1;
 99/5=1,9=1/99;
 Leave Link    1 at Wed May  1 15:05:01 2024, MaxMem=  1207959552 cpu:               1.3 elap:               1.3
 (Enter /software/gaussian/g16-c01/sse4/g16/l101.exe)
 -------
 TitleMe
 -------
 Symbolic Z-matrix:
 Charge =  1 Multiplicity = 1
 C                     0.0295    1.3397    0.0682 
 C                     1.4348    1.2867    0.0064 
 C                     2.1118    0.0511   -0.0054 
 C                     1.4451   -1.1372    0.0312 
 C                    -0.6879    0.1682    0.11 
 H                    -0.4713    2.2984    0.0781 
 H                     2.0273    2.1965   -0.0322 
 H                     1.9897   -2.0764    0.0232 
 H                    -1.7716    0.1804    0.1582 
 N                     3.5864    0.051    -0.0675 
 O                     4.1471   -1.0597   -0.0881 
 O                     4.145     1.1639   -0.0901 
 C                    -0.0236   -1.1458    0.0835 
 H                    -0.4367   -1.8725    0.7889 
 Br                   -0.5359   -1.8697   -1.7408 
 
 ITRead=  0  0  0  0  0  0  0  0  0  0  0  0  0  0  0
 MicOpt= -1 -1 -1 -1 -1 -1 -1 -1 -1 -1 -1 -1 -1 -1 -1
 NAtoms=     15 NQM=       15 NQMF=       0 NMMI=      0 NMMIF=      0
                NMic=       0 NMicF=      0.
                    Isotopes and Nuclear Properties:
 (Nuclear quadrupole moments (NQMom) in fm**2, nuclear magnetic moments (NMagM)
  in nuclear magnetons)

  Atom         1           2           3           4           5           6           7           8           9          10
 IAtWgt=          12          12          12          12          12           1           1           1           1          14
 AtmWgt=  12.0000000  12.0000000  12.0000000  12.0000000  12.0000000   1.0078250   1.0078250   1.0078250   1.0078250  14.0030740
 NucSpn=           0           0           0           0           0           1           1           1           1           2
 AtZEff=  -0.0000000  -0.0000000  -0.0000000  -0.0000000  -0.0000000  -0.0000000  -0.0000000  -0.0000000  -0.0000000  -0.0000000
 NQMom=    0.0000000   0.0000000   0.0000000   0.0000000   0.0000000   0.0000000   0.0000000   0.0000000   0.0000000   2.0440000
 NMagM=    0.0000000   0.0000000   0.0000000   0.0000000   0.0000000   2.7928460   2.7928460   2.7928460   2.7928460   0.4037610
 AtZNuc=   6.0000000   6.0000000   6.0000000   6.0000000   6.0000000   1.0000000   1.0000000   1.0000000   1.0000000   7.0000000

  Atom        11          12          13          14          15
 IAtWgt=          16          16          12           1          79
 AtmWgt=  15.9949146  15.9949146  12.0000000   1.0078250  78.9183361
 NucSpn=           0           0           0           1           3
 AtZEff=  -0.0000000  -0.0000000  -0.0000000  -0.0000000  -0.0000000
 NQMom=    0.0000000   0.0000000   0.0000000   0.0000000  31.3000000
 NMagM=    0.0000000   0.0000000   0.0000000   2.7928460   2.1063990
 AtZNuc=   8.0000000   8.0000000   6.0000000   1.0000000  35.0000000
 Leave Link  101 at Wed May  1 15:05:02 2024, MaxMem=  1207959552 cpu:               1.3 elap:               1.3
 (Enter /software/gaussian/g16-c01/sse4/g16/l202.exe)
                          Input orientation:                          
 ---------------------------------------------------------------------
 Center     Atomic      Atomic             Coordinates (Angstroms)
 Number     Number       Type             X           Y           Z
 ---------------------------------------------------------------------
      1          6           0        0.029500    1.339700    0.068200
      2          6           0        1.434800    1.286700    0.006400
      3          6           0        2.111800    0.051100   -0.005400
      4          6           0        1.445100   -1.137200    0.031200
      5          6           0       -0.687900    0.168200    0.110000
      6          1           0       -0.471300    2.298400    0.078100
      7          1           0        2.027300    2.196500   -0.032200
      8          1           0        1.989700   -2.076400    0.023200
      9          1           0       -1.771600    0.180400    0.158200
     10          7           0        3.586400    0.051000   -0.067500
     11          8           0        4.147100   -1.059700   -0.088100
     12          8           0        4.145000    1.163900   -0.090100
     13          6           0       -0.023600   -1.145800    0.083500
     14          1           0       -0.436700   -1.872500    0.788900
     15         35           0       -0.535900   -1.869700   -1.740800
 ---------------------------------------------------------------------
                    Distance matrix (angstroms):
                    1          2          3          4          5
     1  C    0.000000
     2  C    1.407656   0.000000
     3  C    2.449874   1.408963   0.000000
     4  C    2.853126   2.424049   1.363043   0.000000
     5  C    1.374344   2.401589   2.804523   2.501993   0.000000
     6  H    1.081667   2.159142   3.424870   3.934226   2.141421
     7  H    2.176095   1.086408   2.147231   3.384750   3.392128
     8  H    3.938800   3.408612   2.131193   1.085702   3.495040
     9  H    2.143837   3.395283   3.888995   3.478413   1.084840
    10  N    3.785591   2.482297   1.475907   2.450862   4.279589
    11  O    4.768247   3.587631   2.320164   2.705743   4.992415
    12  O    4.122294   2.714696   2.319353   3.549540   4.938459
    13  C    2.486114   2.837240   2.449573   1.469656   1.472614
    14  H    3.324903   3.754379   3.290289   2.157764   2.165286
    15  Br   3.727252   4.110867   3.702891   2.756973   2.757100
                    6          7          8          9         10
     6  H    0.000000
     7  H    2.503108   0.000000
     8  H    5.019802   4.273425   0.000000
     9  H    2.486588   4.304945   4.388479   0.000000
    10  N    4.640790   2.652397   2.661486   5.364313   0.000000
    11  O    5.712624   3.885809   2.387560   6.052233   1.244373
    12  O    4.756638   2.356750   3.893289   6.002923   1.245428
    13  C    3.473180   3.923079   2.218790   2.195425   3.806210
    14  H    4.231175   4.827242   2.552506   2.528663   4.540772
    15  Br   4.548146   5.101303   3.087568   3.055498   4.845862
                   11         12         13         14         15
    11  O    0.000000
    12  O    2.223602   0.000000
    13  C    4.175117   4.768865   0.000000
    14  H    4.737193   5.566358   1.093770   0.000000
    15  Br   5.031700   5.817075   2.028436   2.531646   0.000000
 Symmetry turned off by external request.
 Stoichiometry    C6H5BrNO2(1+)
 Framework group  C1[X(C6H5BrNO2)]
 Deg. of freedom    39
 Full point group                 C1      NOp   1
 Rotational constants (GHZ):           1.8252210           0.5518633           0.4576002
 Leave Link  202 at Wed May  1 15:05:03 2024, MaxMem=  1207959552 cpu:               1.1 elap:               1.1
 (Enter /software/gaussian/g16-c01/sse4/g16/l301.exe)
 Standard basis: 6-311+G(d) (5D, 7F)
 Ernie: Thresh=  0.10000D-02 Tol=  0.10000D-05 Strict=F.
 The following finite field(s) will be applied:
 An electric field of              0.0000  0.0000 -0.0058
   261 basis functions,   443 primitive gaussians,   273 cartesian basis functions
    49 alpha electrons       49 beta electrons
       nuclear repulsion energy       739.2122215416 Hartrees.
 IExCor= 4639 DFT=T Ex+Corr=wB97XD ExCW=0 ScaHFX=  1.000000
 ScaDFX=  1.000000  1.000000  1.000000  1.000000 ScalE2=  1.000000  1.000000
 IRadAn=      5 IRanWt=     -1 IRanGd=            0 ICorTp=0 IEmpDi=121
 HFx  wShort=  0.000000 wLong=  0.200000 cFull=  0.222036 cShort=  0.000000 cLong=  0.777964
 DFx  wShort=  0.000000 wLong=  0.200000 cFull=  0.000000 cShort=  0.000000 cLong=  1.000000
 NAtoms=   15 NActive=   15 NUniq=   15 SFac= 1.00D+00 NAtFMM=   60 NAOKFM=F Big=F
 Integral buffers will be    131072 words long.
 Raffenetti 2 integral format.
 Two-electron integral symmetry is turned off.
 R6Disp:  Grimme-D2 Dispersion energy=       -0.0077368520 Hartrees.
 Nuclear repulsion after empirical dispersion term =      739.2044846896 Hartrees.
 Leave Link  301 at Wed May  1 15:05:04 2024, MaxMem=  1207959552 cpu:               1.0 elap:               1.0
 (Enter /software/gaussian/g16-c01/sse4/g16/l302.exe)
 NPDir=0 NMtPBC=     1 NCelOv=     1 NCel=       1 NClECP=     1 NCelD=      1
         NCelK=      1 NCelE2=     1 NClLst=     1 CellRange=     0.0.
 One-electron integrals computed using PRISM.
 NBasis=   261 RedAO= T EigKep=  2.35D-06  NBF=   261
 NBsUse=   261 1.00D-06 EigRej= -1.00D+00 NBFU=   261
 Precomputing XC quadrature grid using
 IXCGrd= 4 IRadAn=           5 IRanWt=          -1 IRanGd=           0 AccXCQ= 0.00D+00.
 Generated NRdTot=       0 NPtTot=           0 NUsed=           0 NTot=          32
 NSgBfM=   273   273   273   273   273 MxSgAt=    15 MxSgA2=    15.
 Leave Link  302 at Wed May  1 15:05:25 2024, MaxMem=  1207959552 cpu:              20.9 elap:              20.9
 (Enter /software/gaussian/g16-c01/sse4/g16/l303.exe)
 DipDrv:  MaxL=1.
 The nuclear repulsion energy is now       739.8626190400 hartrees.
 Leave Link  303 at Wed May  1 15:05:29 2024, MaxMem=  1207959552 cpu:               3.4 elap:               3.4
 (Enter /software/gaussian/g16-c01/sse4/g16/l401.exe)
 ExpMin= 3.50D-02 ExpMax= 4.40D+05 ExpMxC= 1.51D+04 IAcc=3 IRadAn=         5 AccDes= 0.00D+00
 Harris functional with IExCor= 4639 and IRadAn=       5 diagonalized for initial guess.
 HarFok:  IExCor= 4639 AccDes= 0.00D+00 IRadAn=         5 IDoV= 1 UseB2=F ITyADJ=14
 ICtDFT=  3500011 ScaDFX=  1.000000  1.000000  1.000000  1.000000
 FoFCou: FMM=F IPFlag=           0 FMFlag=      100000 FMFlg1=           0
         NFxFlg=           0 DoJE=T BraDBF=F KetDBF=T FulRan=T
         wScrn=  0.000000 ICntrl=       500 IOpCl=  0 I1Cent=   200000004 NGrid=           0
         NMat0=    1 NMatS0=      1 NMatT0=    0 NMatD0=    1 NMtDS0=    0 NMtDT0=    0
 Symmetry not used in FoFCou.
 Harris En= -2970.60114594730    
 JPrj=0 DoOrth=F DoCkMO=F.
 Leave Link  401 at Wed May  1 15:05:58 2024, MaxMem=  1207959552 cpu:              29.4 elap:              29.4
 (Enter /software/gaussian/g16-c01/sse4/g16/l502.exe)
 Two-electron integral symmetry not used.
 Closed shell SCF:
 Using DIIS extrapolation, IDIIS=  1040.
 NGot=  1207959552 LenX=  1207804877 LenY=  1207729907
 Requested convergence on RMS density matrix=1.00D-08 within 128 cycles.
 Requested convergence on MAX density matrix=1.00D-06.
 Requested convergence on             energy=1.00D-06.
 No special actions if energy rises.
 Fock matrices will be formed incrementally for  20 cycles.

 Cycle   1  Pass 1  IDiag  1:
 FoFJK:  IHMeth= 1 ICntrl=       0 DoSepK=T KAlg= 0 I1Cent=           0 FoldK=F
 IRaf=         1 NMat=       1 IRICut=       1 DoRegI=T DoRafI=F ISym2E= 0 IDoP0=0 IntGTp=1.
 FoFCou: FMM=F IPFlag=           0 FMFlag=      100000 FMFlg1=           0
         NFxFlg=           0 DoJE=T BraDBF=F KetDBF=F FulRan=T
         wScrn=  0.000000 ICntrl=       500 IOpCl=  0 I1Cent=           0 NGrid=           0
         NMat0=    1 NMatS0=      1 NMatT0=    0 NMatD0=    1 NMtDS0=    0 NMtDT0=    0
 Symmetry not used in FoFCou.
 E= -3009.72556386857    
 DIIS: error= 3.20D-01 at cycle   1 NSaved=   1.
 NSaved= 1 IEnMin= 1 EnMin= -3009.72556386857     IErMin= 1 ErrMin= 3.20D-01
 ErrMax= 3.20D-01  0.00D+00 EMaxC= 1.00D-01 BMatC= 1.19D+01 BMatP= 1.19D+01
 IDIUse=3 WtCom= 0.00D+00 WtEn= 1.00D+00
 Coeff-Com:  0.100D+01
 Coeff-En:   0.100D+01
 Coeff:      0.100D+01
 Gap=     0.323 Goal=   None    Shift=    0.000
 GapD=    0.323 DampG=1.000 DampE=0.250 DampFc=0.2500 IDamp=-1.
 Damping current iteration by 2.50D-01
 RMSDP=3.87D-02 MaxDP=3.53D+00              OVMax= 2.56D-01

 Cycle   2  Pass 1  IDiag  1:
 RMSU=  4.02D-03    CP:  9.00D-01
 E= -3010.00769903896     Delta-E=       -0.282135170391 Rises=F Damp=T
 DIIS: error= 2.25D-01 at cycle   2 NSaved=   2.
 NSaved= 2 IEnMin= 2 EnMin= -3010.00769903896     IErMin= 2 ErrMin= 2.25D-01
 ErrMax= 2.25D-01  0.00D+00 EMaxC= 1.00D-01 BMatC= 5.45D+00 BMatP= 1.19D+01
 IDIUse=3 WtCom= 0.00D+00 WtEn= 1.00D+00
 Coeff-Com: -0.185D+01 0.285D+01
 Coeff-En:   0.000D+00 0.100D+01
 Coeff:      0.000D+00 0.100D+01
 Gap=     0.294 Goal=   None    Shift=    0.000
 RMSDP=3.02D-02 MaxDP=2.76D+00 DE=-2.82D-01 OVMax= 7.60D-02

 Cycle   3  Pass 1  IDiag  1:
 RMSU=  4.17D-03    CP:  5.78D-01  3.00D+00
 E= -3010.38947050126     Delta-E=       -0.381771462304 Rises=F Damp=F
 DIIS: error= 6.53D-02 at cycle   3 NSaved=   3.
 NSaved= 3 IEnMin= 3 EnMin= -3010.38947050126     IErMin= 3 ErrMin= 6.53D-02
 ErrMax= 6.53D-02  0.00D+00 EMaxC= 1.00D-01 BMatC= 7.23D-01 BMatP= 5.45D+00
 IDIUse=3 WtCom= 3.47D-01 WtEn= 6.53D-01
 Coeff-Com:  0.278D+01-0.366D+01 0.188D+01
 Coeff-En:   0.171D-01 0.000D+00 0.983D+00
 Coeff:      0.977D+00-0.127D+01 0.129D+01
 Gap=     0.261 Goal=   None    Shift=    0.000
 RMSDP=8.20D-03 MaxDP=4.34D-01 DE=-3.82D-01 OVMax= 6.52D-02

 Cycle   4  Pass 1  IDiag  1:
 RMSU=  4.65D-03    CP:  5.97D-01  2.17D+00  2.08D+00
 E= -3010.48999714281     Delta-E=       -0.100526641550 Rises=F Damp=F
 DIIS: error= 3.87D-02 at cycle   4 NSaved=   4.
 NSaved= 4 IEnMin= 4 EnMin= -3010.48999714281     IErMin= 4 ErrMin= 3.87D-02
 ErrMax= 3.87D-02  0.00D+00 EMaxC= 1.00D-01 BMatC= 2.34D-01 BMatP= 7.23D-01
 IDIUse=3 WtCom= 6.13D-01 WtEn= 3.87D-01
 Coeff-Com: -0.169D+00 0.238D+00 0.283D+00 0.648D+00
 Coeff-En:   0.000D+00 0.000D+00 0.199D+00 0.801D+00
 Coeff:     -0.103D+00 0.146D+00 0.250D+00 0.707D+00
 Gap=     0.261 Goal=   None    Shift=    0.000
 RMSDP=3.32D-03 MaxDP=2.25D-01 DE=-1.01D-01 OVMax= 2.63D-02

 Cycle   5  Pass 1  IDiag  1:
 RMSU=  1.25D-03    CP:  5.68D-01  2.55D+00  1.92D+00  8.92D-01
 E= -3010.53476801808     Delta-E=       -0.044770875266 Rises=F Damp=F
 DIIS: error= 6.86D-03 at cycle   5 NSaved=   5.
 NSaved= 5 IEnMin= 5 EnMin= -3010.53476801808     IErMin= 5 ErrMin= 6.86D-03
 ErrMax= 6.86D-03  0.00D+00 EMaxC= 1.00D-01 BMatC= 7.41D-03 BMatP= 2.34D-01
 IDIUse=3 WtCom= 9.31D-01 WtEn= 6.86D-02
 Coeff-Com: -0.134D+00 0.181D+00 0.494D-01 0.323D+00 0.579D+00
 Coeff-En:   0.000D+00 0.000D+00 0.000D+00 0.000D+00 0.100D+01
 Coeff:     -0.124D+00 0.169D+00 0.460D-01 0.301D+00 0.608D+00
 Gap=     0.260 Goal=   None    Shift=    0.000
 RMSDP=5.76D-04 MaxDP=3.58D-02 DE=-4.48D-02 OVMax= 1.12D-02

 Cycle   6  Pass 1  IDiag  1:
 RMSU=  4.36D-04    CP:  5.67D-01  2.54D+00  1.93D+00  8.84D-01  7.06D-01
 E= -3010.53624979798     Delta-E=       -0.001481779905 Rises=F Damp=F
 DIIS: error= 1.56D-03 at cycle   6 NSaved=   6.
 NSaved= 6 IEnMin= 6 EnMin= -3010.53624979798     IErMin= 6 ErrMin= 1.56D-03
 ErrMax= 1.56D-03  0.00D+00 EMaxC= 1.00D-01 BMatC= 2.31D-04 BMatP= 7.41D-03
 IDIUse=3 WtCom= 9.84D-01 WtEn= 1.56D-02
 Coeff-Com: -0.901D-01 0.121D+00-0.178D-02 0.154D+00 0.376D+00 0.441D+00
 Coeff-En:   0.000D+00 0.000D+00 0.000D+00 0.000D+00 0.000D+00 0.100D+01
 Coeff:     -0.887D-01 0.119D+00-0.176D-02 0.152D+00 0.370D+00 0.450D+00
 Gap=     0.259 Goal=   None    Shift=    0.000
 RMSDP=1.93D-04 MaxDP=1.25D-02 DE=-1.48D-03 OVMax= 6.50D-03

 Cycle   7  Pass 1  IDiag  1:
 RMSU=  1.24D-04    CP:  5.67D-01  2.53D+00  1.94D+00  8.91D-01  7.96D-01
                    CP:  8.48D-01
 E= -3010.53641275918     Delta-E=       -0.000162961200 Rises=F Damp=F
 DIIS: error= 4.88D-04 at cycle   7 NSaved=   7.
 NSaved= 7 IEnMin= 7 EnMin= -3010.53641275918     IErMin= 7 ErrMin= 4.88D-04
 ErrMax= 4.88D-04  0.00D+00 EMaxC= 1.00D-01 BMatC= 2.24D-05 BMatP= 2.31D-04
 IDIUse=3 WtCom= 9.95D-01 WtEn= 4.88D-03
 Coeff-Com: -0.352D-01 0.468D-01-0.134D-01 0.330D-01 0.102D+00 0.250D+00
 Coeff-Com:  0.616D+00
 Coeff-En:   0.000D+00 0.000D+00 0.000D+00 0.000D+00 0.000D+00 0.000D+00
 Coeff-En:   0.100D+01
 Coeff:     -0.350D-01 0.466D-01-0.133D-01 0.329D-01 0.102D+00 0.249D+00
 Coeff:      0.618D+00
 Gap=     0.258 Goal=   None    Shift=    0.000
 RMSDP=1.02D-04 MaxDP=8.01D-03 DE=-1.63D-04 OVMax= 2.58D-03

 Cycle   8  Pass 1  IDiag  1:
 RMSU=  5.35D-05    CP:  5.67D-01  2.52D+00  1.95D+00  8.98D-01  8.33D-01
                    CP:  8.88D-01  9.19D-01
 E= -3010.53643567923     Delta-E=       -0.000022920050 Rises=F Damp=F
 DIIS: error= 1.09D-04 at cycle   8 NSaved=   8.
 NSaved= 8 IEnMin= 8 EnMin= -3010.53643567923     IErMin= 8 ErrMin= 1.09D-04
 ErrMax= 1.09D-04  0.00D+00 EMaxC= 1.00D-01 BMatC= 2.23D-06 BMatP= 2.24D-05
 IDIUse=3 WtCom= 9.99D-01 WtEn= 1.09D-03
 Coeff-Com:  0.682D-02-0.932D-02-0.291D-02-0.166D-01-0.415D-01-0.320D-01
 Coeff-Com:  0.154D+00 0.941D+00
 Coeff-En:   0.000D+00 0.000D+00 0.000D+00 0.000D+00 0.000D+00 0.000D+00
 Coeff-En:   0.000D+00 0.100D+01
 Coeff:      0.681D-02-0.931D-02-0.291D-02-0.166D-01-0.414D-01-0.320D-01
 Coeff:      0.154D+00 0.941D+00
 Gap=     0.258 Goal=   None    Shift=    0.000
 RMSDP=5.64D-05 MaxDP=4.26D-03 DE=-2.29D-05 OVMax= 2.13D-03

 Cycle   9  Pass 1  IDiag  1:
 RMSU=  2.25D-05    CP:  5.67D-01  2.51D+00  1.95D+00  8.99D-01  8.38D-01
                    CP:  9.60D-01  1.11D+00  1.23D+00
 E= -3010.53644117286     Delta-E=       -0.000005493625 Rises=F Damp=F
 DIIS: error= 4.67D-05 at cycle   9 NSaved=   9.
 NSaved= 9 IEnMin= 9 EnMin= -3010.53644117286     IErMin= 9 ErrMin= 4.67D-05
 ErrMax= 4.67D-05  0.00D+00 EMaxC= 1.00D-01 BMatC= 2.58D-07 BMatP= 2.23D-06
 IDIUse=1 WtCom= 1.00D+00 WtEn= 0.00D+00
 Coeff-Com:  0.673D-02-0.902D-02 0.826D-03-0.957D-02-0.243D-01-0.450D-01
 Coeff-Com: -0.449D-01 0.286D+00 0.839D+00
 Coeff:      0.673D-02-0.902D-02 0.826D-03-0.957D-02-0.243D-01-0.450D-01
 Coeff:     -0.449D-01 0.286D+00 0.839D+00
 Gap=     0.258 Goal=   None    Shift=    0.000
 RMSDP=1.65D-05 MaxDP=9.43D-04 DE=-5.49D-06 OVMax= 9.83D-04

 Cycle  10  Pass 1  IDiag  1:
 RMSU=  7.58D-06    CP:  5.67D-01  2.51D+00  1.95D+00  8.99D-01  8.42D-01
                    CP:  9.72D-01  1.16D+00  1.35D+00  1.12D+00
 E= -3010.53644206884     Delta-E=       -0.000000895980 Rises=F Damp=F
 DIIS: error= 1.64D-05 at cycle  10 NSaved=  10.
 NSaved=10 IEnMin=10 EnMin= -3010.53644206884     IErMin=10 ErrMin= 1.64D-05
 ErrMax= 1.64D-05  0.00D+00 EMaxC= 1.00D-01 BMatC= 5.81D-08 BMatP= 2.58D-07
 IDIUse=1 WtCom= 1.00D+00 WtEn= 0.00D+00
 Coeff-Com:  0.376D-03-0.479D-03 0.377D-03-0.103D-03 0.154D-02-0.489D-02
 Coeff-Com: -0.349D-01-0.617D-01 0.241D+00 0.859D+00
 Coeff:      0.376D-03-0.479D-03 0.377D-03-0.103D-03 0.154D-02-0.489D-02
 Coeff:     -0.349D-01-0.617D-01 0.241D+00 0.859D+00
 Gap=     0.258 Goal=   None    Shift=    0.000
 RMSDP=8.94D-06 MaxDP=5.57D-04 DE=-8.96D-07 OVMax= 3.81D-04

 Cycle  11  Pass 1  IDiag  1:
 RMSU=  4.53D-06    CP:  5.67D-01  2.51D+00  1.95D+00  8.98D-01  8.42D-01
                    CP:  9.79D-01  1.16D+00  1.36D+00  1.31D+00  1.15D+00
 E= -3010.53644221058     Delta-E=       -0.000000141737 Rises=F Damp=F
 DIIS: error= 6.78D-06 at cycle  11 NSaved=  11.
 NSaved=11 IEnMin=11 EnMin= -3010.53644221058     IErMin=11 ErrMin= 6.78D-06
 ErrMax= 6.78D-06  0.00D+00 EMaxC= 1.00D-01 BMatC= 4.00D-09 BMatP= 5.81D-08
 IDIUse=1 WtCom= 1.00D+00 WtEn= 0.00D+00
 Coeff-Com: -0.312D-03 0.421D-03 0.575D-04 0.816D-03 0.269D-02 0.442D-02
 Coeff-Com:  0.323D-02-0.347D-01-0.888D-01 0.545D-01 0.106D+01
 Coeff:     -0.312D-03 0.421D-03 0.575D-04 0.816D-03 0.269D-02 0.442D-02
 Coeff:      0.323D-02-0.347D-01-0.888D-01 0.545D-01 0.106D+01
 Gap=     0.258 Goal=   None    Shift=    0.000
 RMSDP=3.22D-06 MaxDP=1.64D-04 DE=-1.42D-07 OVMax= 1.81D-04

 Cycle  12  Pass 1  IDiag  1:
 RMSU=  1.10D-06    CP:  5.67D-01  2.51D+00  1.95D+00  8.98D-01  8.41D-01
                    CP:  9.81D-01  1.16D+00  1.35D+00  1.37D+00  1.35D+00
                    CP:  1.28D+00
 E= -3010.53644223228     Delta-E=       -0.000000021705 Rises=F Damp=F
 DIIS: error= 2.41D-06 at cycle  12 NSaved=  12.
 NSaved=12 IEnMin=12 EnMin= -3010.53644223228     IErMin=12 ErrMin= 2.41D-06
 ErrMax= 2.41D-06  0.00D+00 EMaxC= 1.00D-01 BMatC= 1.41D-09 BMatP= 4.00D-09
 IDIUse=1 WtCom= 1.00D+00 WtEn= 0.00D+00
 Coeff-Com: -0.186D-03 0.246D-03-0.140D-04 0.396D-03 0.852D-03 0.253D-02
 Coeff-Com:  0.703D-02-0.605D-02-0.804D-01-0.117D+00 0.507D+00 0.686D+00
 Coeff:     -0.186D-03 0.246D-03-0.140D-04 0.396D-03 0.852D-03 0.253D-02
 Coeff:      0.703D-02-0.605D-02-0.804D-01-0.117D+00 0.507D+00 0.686D+00
 Gap=     0.258 Goal=   None    Shift=    0.000
 RMSDP=1.44D-06 MaxDP=1.35D-04 DE=-2.17D-08 OVMax= 5.18D-05

 Cycle  13  Pass 1  IDiag  1:
 RMSU=  4.03D-07    CP:  5.67D-01  2.51D+00  1.95D+00  8.98D-01  8.41D-01
                    CP:  9.82D-01  1.16D+00  1.35D+00  1.39D+00  1.38D+00
                    CP:  1.46D+00  9.06D-01
 E= -3010.53644223534     Delta-E=       -0.000000003058 Rises=F Damp=F
 DIIS: error= 7.30D-07 at cycle  13 NSaved=  13.
 NSaved=13 IEnMin=13 EnMin= -3010.53644223534     IErMin=13 ErrMin= 7.30D-07
 ErrMax= 7.30D-07  0.00D+00 EMaxC= 1.00D-01 BMatC= 1.21D-10 BMatP= 1.41D-09
 IDIUse=1 WtCom= 1.00D+00 WtEn= 0.00D+00
 Coeff-Com: -0.330D-04 0.440D-04-0.917D-05-0.201D-05-0.272D-03-0.421D-03
 Coeff-Com:  0.247D-03 0.265D-02-0.395D-03-0.208D-01-0.357D-01 0.151D+00
 Coeff-Com:  0.904D+00
 Coeff:     -0.330D-04 0.440D-04-0.917D-05-0.201D-05-0.272D-03-0.421D-03
 Coeff:      0.247D-03 0.265D-02-0.395D-03-0.208D-01-0.357D-01 0.151D+00
 Coeff:      0.904D+00
 Gap=     0.258 Goal=   None    Shift=    0.000
 RMSDP=4.12D-07 MaxDP=2.82D-05 DE=-3.06D-09 OVMax= 9.99D-06

 Cycle  14  Pass 1  IDiag  1:
 RMSU=  2.13D-07    CP:  5.67D-01  2.51D+00  1.95D+00  8.98D-01  8.41D-01
                    CP:  9.82D-01  1.16D+00  1.35D+00  1.39D+00  1.38D+00
                    CP:  1.49D+00  1.05D+00  1.14D+00
 E= -3010.53644223564     Delta-E=       -0.000000000301 Rises=F Damp=F
 DIIS: error= 2.50D-07 at cycle  14 NSaved=  14.
 NSaved=14 IEnMin=14 EnMin= -3010.53644223564     IErMin=14 ErrMin= 2.50D-07
 ErrMax= 2.50D-07  0.00D+00 EMaxC= 1.00D-01 BMatC= 1.74D-11 BMatP= 1.21D-10
 IDIUse=1 WtCom= 1.00D+00 WtEn= 0.00D+00
 Coeff-Com: -0.409D-06 0.803D-06-0.448D-05-0.431D-04-0.210D-03-0.507D-03
 Coeff-Com: -0.806D-03 0.206D-02 0.106D-01 0.657D-02-0.894D-01-0.222D-01
 Coeff-Com:  0.344D+00 0.750D+00
 Coeff:     -0.409D-06 0.803D-06-0.448D-05-0.431D-04-0.210D-03-0.507D-03
 Coeff:     -0.806D-03 0.206D-02 0.106D-01 0.657D-02-0.894D-01-0.222D-01
 Coeff:      0.344D+00 0.750D+00
 Gap=     0.258 Goal=   None    Shift=    0.000
 RMSDP=1.39D-07 MaxDP=8.64D-06 DE=-3.01D-10 OVMax= 3.26D-06

 Cycle  15  Pass 1  IDiag  1:
 RMSU=  5.07D-08    CP:  5.67D-01  2.51D+00  1.95D+00  8.98D-01  8.41D-01
                    CP:  9.82D-01  1.16D+00  1.35D+00  1.39D+00  1.38D+00
                    CP:  1.50D+00  1.11D+00  1.23D+00  1.13D+00
 E= -3010.53644223565     Delta-E=       -0.000000000004 Rises=F Damp=F
 DIIS: error= 9.62D-08 at cycle  15 NSaved=  15.
 NSaved=15 IEnMin=15 EnMin= -3010.53644223565     IErMin=15 ErrMin= 9.62D-08
 ErrMax= 9.62D-08  0.00D+00 EMaxC= 1.00D-01 BMatC= 2.05D-12 BMatP= 1.74D-11
 IDIUse=1 WtCom= 1.00D+00 WtEn= 0.00D+00
 Coeff-Com:  0.462D-05-0.615D-05 0.164D-06-0.628D-05 0.136D-04-0.281D-04
 Coeff-Com: -0.187D-03-0.236D-05 0.194D-02 0.489D-02-0.140D-01-0.208D-01
 Coeff-Com: -0.817D-01 0.141D+00 0.969D+00
 Coeff:      0.462D-05-0.615D-05 0.164D-06-0.628D-05 0.136D-04-0.281D-04
 Coeff:     -0.187D-03-0.236D-05 0.194D-02 0.489D-02-0.140D-01-0.208D-01
 Coeff:     -0.817D-01 0.141D+00 0.969D+00
 Gap=     0.258 Goal=   None    Shift=    0.000
 RMSDP=5.84D-08 MaxDP=3.09D-06 DE=-4.09D-12 OVMax= 2.23D-06

 Cycle  16  Pass 1  IDiag  1:
 RMSU=  2.51D-08    CP:  5.67D-01  2.51D+00  1.95D+00  8.98D-01  8.41D-01
                    CP:  9.82D-01  1.16D+00  1.35D+00  1.39D+00  1.38D+00
                    CP:  1.50D+00  1.12D+00  1.27D+00  1.27D+00  1.19D+00
 E= -3010.53644223569     Delta-E=       -0.000000000047 Rises=F Damp=F
 DIIS: error= 2.64D-08 at cycle  16 NSaved=  16.
 NSaved=16 IEnMin=16 EnMin= -3010.53644223569     IErMin=16 ErrMin= 2.64D-08
 ErrMax= 2.64D-08  0.00D+00 EMaxC= 1.00D-01 BMatC= 5.17D-13 BMatP= 2.05D-12
 IDIUse=1 WtCom= 1.00D+00 WtEn= 0.00D+00
 Coeff-Com:  0.130D-05-0.176D-05 0.823D-06 0.497D-05 0.360D-04 0.658D-04
 Coeff-Com:  0.488D-04-0.336D-03-0.103D-02 0.904D-03 0.822D-02 0.466D-03
 Coeff-Com: -0.733D-01-0.893D-01 0.284D+00 0.871D+00
 Coeff:      0.130D-05-0.176D-05 0.823D-06 0.497D-05 0.360D-04 0.658D-04
 Coeff:      0.488D-04-0.336D-03-0.103D-02 0.904D-03 0.822D-02 0.466D-03
 Coeff:     -0.733D-01-0.893D-01 0.284D+00 0.871D+00
 Gap=     0.258 Goal=   None    Shift=    0.000
 RMSDP=2.85D-08 MaxDP=1.28D-06 DE=-4.68D-11 OVMax= 1.20D-06

 Cycle  17  Pass 1  IDiag  1:
 RMSU=  8.18D-09    CP:  5.67D-01  2.51D+00  1.95D+00  8.98D-01  8.41D-01
                    CP:  9.82D-01  1.16D+00  1.35D+00  1.39D+00  1.38D+00
                    CP:  1.50D+00  1.13D+00  1.27D+00  1.32D+00  1.48D+00
                    CP:  1.22D+00
 E= -3010.53644223565     Delta-E=        0.000000000040 Rises=F Damp=F
 DIIS: error= 1.79D-08 at cycle  17 NSaved=  17.
 NSaved=17 IEnMin=16 EnMin= -3010.53644223569     IErMin=17 ErrMin= 1.79D-08
 ErrMax= 1.79D-08  0.00D+00 EMaxC= 1.00D-01 BMatC= 8.80D-14 BMatP= 5.17D-13
 IDIUse=1 WtCom= 1.00D+00 WtEn= 0.00D+00
 Coeff-Com: -0.164D-06 0.215D-06 0.219D-06 0.139D-05 0.272D-05 0.129D-04
 Coeff-Com:  0.324D-04-0.330D-04-0.482D-03-0.454D-03 0.310D-02 0.452D-02
 Coeff-Com:  0.119D-02-0.543D-01-0.133D+00 0.173D+00 0.101D+01
 Coeff:     -0.164D-06 0.215D-06 0.219D-06 0.139D-05 0.272D-05 0.129D-04
 Coeff:      0.324D-04-0.330D-04-0.482D-03-0.454D-03 0.310D-02 0.452D-02
 Coeff:      0.119D-02-0.543D-01-0.133D+00 0.173D+00 0.101D+01
 Gap=     0.258 Goal=   None    Shift=    0.000
 RMSDP=1.37D-08 MaxDP=4.77D-07 DE= 4.05D-11 OVMax= 7.02D-07

 Cycle  18  Pass 1  IDiag  1:
 RMSU=  4.24D-09    CP:  5.67D-01  2.51D+00  1.95D+00  8.98D-01  8.41D-01
                    CP:  9.81D-01  1.16D+00  1.35D+00  1.39D+00  1.38D+00
                    CP:  1.50D+00  1.14D+00  1.28D+00  1.35D+00  1.56D+00
                    CP:  1.49D+00  1.36D+00
 E= -3010.53644223566     Delta-E=       -0.000000000007 Rises=F Damp=F
 DIIS: error= 5.75D-09 at cycle  18 NSaved=  18.
 NSaved=18 IEnMin=16 EnMin= -3010.53644223569     IErMin=18 ErrMin= 5.75D-09
 ErrMax= 5.75D-09  0.00D+00 EMaxC= 1.00D-01 BMatC= 2.19D-14 BMatP= 8.80D-14
 IDIUse=1 WtCom= 1.00D+00 WtEn= 0.00D+00
 Coeff-Com: -0.444D-07 0.612D-07-0.103D-06-0.123D-05-0.859D-05-0.133D-04
 Coeff-Com: -0.518D-05 0.902D-04 0.114D-03-0.357D-03-0.152D-02 0.144D-02
 Coeff-Com:  0.201D-01 0.766D-02-0.985D-01-0.185D+00 0.275D+00 0.981D+00
 Coeff:     -0.444D-07 0.612D-07-0.103D-06-0.123D-05-0.859D-05-0.133D-04
 Coeff:     -0.518D-05 0.902D-04 0.114D-03-0.357D-03-0.152D-02 0.144D-02
 Coeff:      0.201D-01 0.766D-02-0.985D-01-0.185D+00 0.275D+00 0.981D+00
 Gap=     0.258 Goal=   None    Shift=    0.000
 RMSDP=6.50D-09 MaxDP=2.58D-07 DE=-7.28D-12 OVMax= 3.00D-07

 SCF Done:  E(RwB97XD) =  -3010.53644224     A.U. after   18 cycles
            NFock= 18  Conv=0.65D-08     -V/T= 2.0016
 KE= 3.005858379152D+03 PE=-8.632953235616D+03 EE= 1.876695795188D+03
 Leave Link  502 at Wed May  1 15:22:34 2024, MaxMem=  1207959552 cpu:             995.9 elap:             995.9
 (Enter /software/gaussian/g16-c01/sse4/g16/l601.exe)
 Copying SCF densities to generalized density rwf, IOpCl= 0 IROHF=0.

 **********************************************************************

            Population analysis using the SCF Density.

 **********************************************************************

 Alpha  occ. eigenvalues -- -483.31994 -62.87034 -56.66707 -56.66163 -56.66160
 Alpha  occ. eigenvalues --  -19.45905 -19.45827 -14.85407 -10.58565 -10.57629
 Alpha  occ. eigenvalues --  -10.57254 -10.57067 -10.56795 -10.52978  -9.02851
 Alpha  occ. eigenvalues --   -6.85475  -6.83687  -6.83672  -2.95392  -2.94916
 Alpha  occ. eigenvalues --   -2.94903  -2.93472  -2.93472  -1.49665  -1.32639
 Alpha  occ. eigenvalues --   -1.22750  -1.14293  -1.11840  -1.04949  -1.01079
 Alpha  occ. eigenvalues --   -0.95568  -0.91005  -0.85296  -0.80786  -0.80684
 Alpha  occ. eigenvalues --   -0.80018  -0.78316  -0.76125  -0.75960  -0.72552
 Alpha  occ. eigenvalues --   -0.69409  -0.67607  -0.63940  -0.60487  -0.57501
 Alpha  occ. eigenvalues --   -0.56985  -0.56209  -0.55815  -0.55609
 Alpha virt. eigenvalues --   -0.29822  -0.21333  -0.16054  -0.13526  -0.09180
 Alpha virt. eigenvalues --   -0.06464  -0.06241  -0.05625  -0.04316  -0.03347
 Alpha virt. eigenvalues --   -0.03121  -0.02673  -0.01905  -0.01638  -0.01228
 Alpha virt. eigenvalues --    0.00631   0.01096   0.01582   0.02574   0.02731
 Alpha virt. eigenvalues --    0.04447   0.05054   0.05373   0.05855   0.06859
 Alpha virt. eigenvalues --    0.07042   0.07476   0.07913   0.08617   0.09278
 Alpha virt. eigenvalues --    0.10586   0.11057   0.11438   0.11834   0.12434
 Alpha virt. eigenvalues --    0.12713   0.13159   0.13759   0.15111   0.16171
 Alpha virt. eigenvalues --    0.16517   0.17303   0.17878   0.18641   0.19200
 Alpha virt. eigenvalues --    0.19311   0.20806   0.21527   0.21605   0.24429
 Alpha virt. eigenvalues --    0.25332   0.27681   0.27846   0.28684   0.29911
 Alpha virt. eigenvalues --    0.32119   0.33324   0.33775   0.34695   0.36099
 Alpha virt. eigenvalues --    0.37137   0.37896   0.38816   0.40515   0.41251
 Alpha virt. eigenvalues --    0.42502   0.43676   0.44319   0.46457   0.47276
 Alpha virt. eigenvalues --    0.47794   0.49745   0.50483   0.51993   0.53503
 Alpha virt. eigenvalues --    0.54040   0.54994   0.56496   0.56920   0.59371
 Alpha virt. eigenvalues --    0.61069   0.62136   0.63841   0.66458   0.68476
 Alpha virt. eigenvalues --    0.70150   0.71843   0.72608   0.73111   0.74143
 Alpha virt. eigenvalues --    0.74317   0.79284   0.79778   0.82508   0.84927
 Alpha virt. eigenvalues --    0.86095   0.87861   0.91751   0.92838   0.98411
 Alpha virt. eigenvalues --    0.99525   1.00931   1.04485   1.05279   1.06425
 Alpha virt. eigenvalues --    1.08891   1.10956   1.11900   1.12370   1.14169
 Alpha virt. eigenvalues --    1.21981   1.24443   1.26668   1.32842   1.36385
 Alpha virt. eigenvalues --    1.36770   1.37844   1.44918   1.54262   1.57003
 Alpha virt. eigenvalues --    1.58380   1.58645   1.60511   1.62273   1.66153
 Alpha virt. eigenvalues --    1.69032   1.69531   1.73423   1.75212   1.78913
 Alpha virt. eigenvalues --    1.81000   1.85366   1.87204   1.92552   1.94697
 Alpha virt. eigenvalues --    1.97526   2.02803   2.03639   2.06388   2.07812
 Alpha virt. eigenvalues --    2.09379   2.14577   2.20295   2.22581   2.29295
 Alpha virt. eigenvalues --    2.37538   2.41065   2.42523   2.43414   2.52363
 Alpha virt. eigenvalues --    2.56599   2.62934   2.65970   2.68095   2.71649
 Alpha virt. eigenvalues --    2.73305   2.76425   2.77261   2.80935   2.81593
 Alpha virt. eigenvalues --    2.93303   2.96172   3.00595   3.05411   3.08788
 Alpha virt. eigenvalues --    3.12899   3.14818   3.18965   3.23597   3.24202
 Alpha virt. eigenvalues --    3.27298   3.39037   3.47533   3.51128   3.54375
 Alpha virt. eigenvalues --    3.56753   3.69872   3.74054   3.82029   3.87008
 Alpha virt. eigenvalues --    4.08005   4.08244   4.15833   4.21033   4.41883
 Alpha virt. eigenvalues --    4.44299   4.57270   4.59809   4.93147   4.95815
 Alpha virt. eigenvalues --    5.04462   5.08629   5.62773   6.15717   6.63766
 Alpha virt. eigenvalues --    7.46668   7.48251   7.58089  23.21137  23.61152
 Alpha virt. eigenvalues --   23.69284  23.79294  23.95912  24.01260  35.32551
 Alpha virt. eigenvalues --   47.90389  49.85522  49.94333 289.79731 289.81400
 Alpha virt. eigenvalues --  289.938551020.90831
          Condensed to atoms (all electrons):
               1          2          3          4          5          6
     1  C    8.872183  -2.460666   0.359778  -1.676139  -0.651707   0.313226
     2  C   -2.460666  13.052523  -2.013144  -2.376505   0.864953  -0.015967
     3  C    0.359778  -2.013144  13.061663  -3.031913  -1.377231   0.023076
     4  C   -1.676139  -2.376505  -3.031913  14.449100   1.346854   0.012511
     5  C   -0.651707   0.864953  -1.377231   1.346854   7.422554   0.012397
     6  H    0.313226  -0.015967   0.023076   0.012511   0.012397   0.333938
     7  H    0.067943   0.229434   0.078821  -0.032001  -0.019054  -0.001795
     8  H    0.003812  -0.011188   0.072741   0.250574  -0.018550   0.000000
     9  H    0.029335  -0.013112   0.004679  -0.007230   0.312255  -0.002264
    10  N   -0.154595   0.348783  -0.945539   0.354102   0.026133  -0.000621
    11  O    0.012553  -0.060244  -0.254864  -0.019159  -0.054282  -0.000027
    12  O    0.328574  -0.036403  -0.271416  -0.099537  -0.043480   0.000010
    13  C    1.502064  -2.026281   0.962489  -3.462967  -1.877456  -0.009980
    14  H   -0.008145  -0.001495   0.003354  -0.073758  -0.027295  -0.000046
    15  Br   0.050486  -0.016936   0.050067   0.071378   0.061669  -0.000472
               7          8          9         10         11         12
     1  C    0.067943   0.003812   0.029335  -0.154595   0.012553   0.328574
     2  C    0.229434  -0.011188  -0.013112   0.348783  -0.060244  -0.036403
     3  C    0.078821   0.072741   0.004679  -0.945539  -0.254864  -0.271416
     4  C   -0.032001   0.250574  -0.007230   0.354102  -0.019159  -0.099537
     5  C   -0.019054  -0.018550   0.312255   0.026133  -0.054282  -0.043480
     6  H   -0.001795   0.000000  -0.002264  -0.000621  -0.000027   0.000010
     7  H    0.300950  -0.000007   0.000008  -0.026168  -0.001493   0.022489
     8  H   -0.000007   0.292029   0.000084  -0.024022   0.022241  -0.000796
     9  H    0.000008   0.000084   0.322101   0.000338   0.000011   0.000006
    10  N   -0.026168  -0.024022   0.000338   7.368602   0.179799   0.150920
    11  O   -0.001493   0.022241   0.000011   0.179799   7.843329   0.000996
    12  O    0.022489  -0.000796   0.000006   0.150920   0.000996   7.875591
    13  C    0.014155   0.039807   0.005767  -0.175866   0.300386   0.043128
    14  H   -0.000012  -0.003283  -0.004701   0.000197  -0.000326  -0.000093
    15  Br  -0.000146   0.001068  -0.000472   0.004377  -0.000374   0.001993
              13         14         15
     1  C    1.502064  -0.008145   0.050486
     2  C   -2.026281  -0.001495  -0.016936
     3  C    0.962489   0.003354   0.050067
     4  C   -3.462967  -0.073758   0.071378
     5  C   -1.877456  -0.027295   0.061669
     6  H   -0.009980  -0.000046  -0.000472
     7  H    0.014155  -0.000012  -0.000146
     8  H    0.039807  -0.003283   0.001068
     9  H    0.005767  -0.004701  -0.000472
    10  N   -0.175866   0.000197   0.004377
    11  O    0.300386  -0.000326  -0.000374
    12  O    0.043128  -0.000093   0.001993
    13  C   10.809554   0.412182  -0.064917
    14  H    0.412182   0.314671  -0.035364
    15  Br  -0.064917  -0.035364  34.756219
 Mulliken charges:
               1
     1  C   -0.588702
     2  C    0.536250
     3  C   -0.722561
     4  C    0.294690
     5  C    0.022237
     6  H    0.336014
     7  H    0.366877
     8  H    0.375490
     9  H    0.353194
    10  N   -0.106440
    11  O    0.031456
    12  O    0.028018
    13  C   -0.472063
    14  H    0.424115
    15  Br   0.121424
 Sum of Mulliken charges =   1.00000
 Mulliken charges with hydrogens summed into heavy atoms:
               1
     1  C   -0.252688
     2  C    0.903127
     3  C   -0.722561
     4  C    0.670180
     5  C    0.375431
    10  N   -0.106440
    11  O    0.031456
    12  O    0.028018
    13  C   -0.047948
    15  Br   0.121424
 Electronic spatial extent (au):  <R**2>=           2799.2794
 Charge=              1.0000 electrons
 Dipole moment (field-independent basis, Debye):
    X=             -0.6878    Y=             -0.3695    Z=              0.9831  Tot=              1.2555
 Quadrupole moment (field-independent basis, Debye-Ang):
   XX=            -71.0534   YY=            -52.2917   ZZ=            -63.7281
   XY=              1.1416   XZ=              1.5726   YZ=              0.8045
 Traceless Quadrupole moment (field-independent basis, Debye-Ang):
   XX=             -8.6957   YY=             10.0660   ZZ=             -1.3703
   XY=              1.1416   XZ=              1.5726   YZ=              0.8045
 Octapole moment (field-independent basis, Debye-Ang**2):
  XXX=           -298.4089  YYY=             89.1350  ZZZ=             81.9463  XYY=            -75.5571
  XXY=             30.3153  XXZ=             35.5895  XZZ=            -77.5049  YZZ=             18.5035
  YYZ=             28.4123  XYZ=             -2.8031
 Hexadecapole moment (field-independent basis, Debye-Ang**3):
 XXXX=          -2275.5046 YYYY=           -679.7897 ZZZZ=           -357.8111 XXXY=            -69.0136
 XXXZ=            -12.3359 YYYX=            -60.6288 YYYZ=           -160.4941 ZZZX=            -18.9079
 ZZZY=           -142.0248 XXYY=           -456.1201 XXZZ=           -371.7156 YYZZ=           -168.2222
 XXYZ=            -55.3362 YYXZ=             -2.1085 ZZXY=             -9.8234
 N-N= 7.398626190400D+02 E-N=-8.632953237228D+03  KE= 3.005858379152D+03
 No NMR shielding tensors so no spin-rotation constants.
 Leave Link  601 at Wed May  1 15:22:41 2024, MaxMem=  1207959552 cpu:               7.5 elap:               7.4
 (Enter /software/gaussian/g16-c01/sse4/g16/l9999.exe)
 Unable to Open any file for archive entry.
 1\1\GINC-BHX0021\SP\RwB97XD\6-311+G(d)\C6H5Br1N1O2(1+)\BWEIGHT\01-May-
 2024\0\\#P wB97XD/6-311+G* NoSymm #P Field=Z-58\\TitleMe\\1,1\C,0,0.02
 95,1.3397,0.0682\C,0,1.4348,1.2867,0.0064\C,0,2.1118,0.0511,-0.0054\C,
 0,1.4451,-1.1372,0.0312\C,0,-0.6879,0.1682,0.11\H,0,-0.4713,2.2984,0.0
 781\H,0,2.0273,2.1965,-0.0322\H,0,1.9897,-2.0764,0.0232\H,0,-1.7716,0.
 1804,0.1582\N,0,3.5864,0.051,-0.0675\O,0,4.1471,-1.0597,-0.0881\O,0,4.
 145,1.1639,-0.0901\C,0,-0.0236,-1.1458,0.0835\H,0,-0.4367,-1.8725,0.78
 89\Br,0,-0.5359,-1.8697,-1.7408\\Version=ES64L-G16RevC.01\HF=-3010.536
 4422\RMSD=6.503e-09\Dipole=-2.1771442,1.0027006,1.5329652\Quadrupole=-
 6.4650418,7.4838432,-1.0188013,0.8487336,1.1692193,0.5981355\PG=C01 [X
 (C6H5Br1N1O2)]\\@
 The archive entry for this job was punched.


 THE ONLY EXISTING THINGS ARE ATOMS AND EMPTY SPACE;
 ALL ELSE IS MERE OPINION. -- DEMOCRITUS OF ABDERA D. 370 B.C.
 EXPERIMENTS ARE THE ONLY MEANS OF KNOWLEDGE AT OUR DISPOSAL
 THE REST IS POETRY, IMAGINATION. -- MAX PLANCK
 Job cpu time:       0 days  0 hours 17 minutes 42.7 seconds.
 Elapsed time:       0 days  0 hours 17 minutes 42.7 seconds.
 File lengths (MBytes):  RWF=     40 Int=      0 D2E=      0 Chk=     32 Scr=      1
 Normal termination of Gaussian 16 at Wed May  1 15:22:42 2024.
