 Entering Gaussian System, Link 0=g16
 Initial command:
 /software/gaussian/g16-c01/sse4/g16/l1.exe "/local_scratch/24665271/Gau-10413.inp" -scrdir="/local_scratch/24665271/"
 Entering Link 1 = /software/gaussian/g16-c01/sse4/g16/l1.exe PID=     10415.
  
 Copyright (c) 1988-2019, Gaussian, Inc.  All Rights Reserved.
  
 This is part of the Gaussian(R) 16 program.  It is based on
 the Gaussian(R) 09 system (copyright 2009, Gaussian, Inc.),
 the Gaussian(R) 03 system (copyright 2003, Gaussian, Inc.),
 the Gaussian(R) 98 system (copyright 1998, Gaussian, Inc.),
 the Gaussian(R) 94 system (copyright 1995, Gaussian, Inc.),
 the Gaussian 92(TM) system (copyright 1992, Gaussian, Inc.),
 the Gaussian 90(TM) system (copyright 1990, Gaussian, Inc.),
 the Gaussian 88(TM) system (copyright 1988, Gaussian, Inc.),
 the Gaussian 86(TM) system (copyright 1986, Carnegie Mellon
 University), and the Gaussian 82(TM) system (copyright 1983,
 Carnegie Mellon University). Gaussian is a federally registered
 trademark of Gaussian, Inc.
  
 This software contains proprietary and confidential information,
 including trade secrets, belonging to Gaussian, Inc.
  
 This software is provided under written license and may be
 used, copied, transmitted, or stored only in accord with that
 written license.
  
 The following legend is applicable only to US Government
 contracts under FAR:
  
                    RESTRICTED RIGHTS LEGEND
  
 Use, reproduction and disclosure by the US Government is
 subject to restrictions as set forth in subparagraphs (a)
 and (c) of the Commercial Computer Software - Restricted
 Rights clause in FAR 52.227-19.
  
 Gaussian, Inc.
 340 Quinnipiac St., Bldg. 40, Wallingford CT 06492
  
  
 ---------------------------------------------------------------
 Warning -- This program may not be used in any manner that
 competes with the business of Gaussian, Inc. or will provide
 assistance to any competitor of Gaussian, Inc.  The licensee
 of this program is prohibited from giving any competitor of
 Gaussian, Inc. access to this program.  By using this program,
 the user acknowledges that Gaussian, Inc. is engaged in the
 business of creating and licensing software in the field of
 computational chemistry and represents and warrants to the
 licensee that it is not a competitor of Gaussian, Inc. and that
 it will not use this program in any manner prohibited above.
 ---------------------------------------------------------------
  

 Cite this work as:
 Gaussian 16, Revision C.01,
 M. J. Frisch, G. W. Trucks, H. B. Schlegel, G. E. Scuseria, 
 M. A. Robb, J. R. Cheeseman, G. Scalmani, V. Barone, 
 G. A. Petersson, H. Nakatsuji, X. Li, M. Caricato, A. V. Marenich, 
 J. Bloino, B. G. Janesko, R. Gomperts, B. Mennucci, H. P. Hratchian, 
 J. V. Ortiz, A. F. Izmaylov, J. L. Sonnenberg, D. Williams-Young, 
 F. Ding, F. Lipparini, F. Egidi, J. Goings, B. Peng, A. Petrone, 
 T. Henderson, D. Ranasinghe, V. G. Zakrzewski, J. Gao, N. Rega, 
 G. Zheng, W. Liang, M. Hada, M. Ehara, K. Toyota, R. Fukuda, 
 J. Hasegawa, M. Ishida, T. Nakajima, Y. Honda, O. Kitao, H. Nakai, 
 T. Vreven, K. Throssell, J. A. Montgomery, Jr., J. E. Peralta, 
 F. Ogliaro, M. J. Bearpark, J. J. Heyd, E. N. Brothers, K. N. Kudin, 
 V. N. Staroverov, T. A. Keith, R. Kobayashi, J. Normand, 
 K. Raghavachari, A. P. Rendell, J. C. Burant, S. S. Iyengar, 
 J. Tomasi, M. Cossi, J. M. Millam, M. Klene, C. Adamo, R. Cammi, 
 J. W. Ochterski, R. L. Martin, K. Morokuma, O. Farkas, 
 J. B. Foresman, and D. J. Fox, Gaussian, Inc., Wallingford CT, 2019.
 
 ******************************************
 Gaussian 16:  ES64L-G16RevC.01  3-Jul-2019
                 2-May-2024 
 ******************************************
 %chk=geometry.chk
 %mem=1GB
 %nprocshared=12
 Will use up to   12 processors via shared memory.
 ---------------------------------------
 #P wB97XD/6-311+G* NoSymm #P Field=X+77
 ---------------------------------------
 1/38=1,172=1/1;
 2/12=2,15=1,17=6,18=5,40=1/2;
 3/5=4,6=6,7=11,11=2,14=1,15=77,25=1,30=1,74=-58/1,2,3;
 4//1;
 5/5=2,38=5/2;
 6/7=2,8=2,9=2,10=2,28=1/1;
 99/5=1,9=1/99;
 Leave Link    1 at Thu May  2 13:57:34 2024, MaxMem=   134217728 cpu:               2.1 elap:               2.1
 (Enter /software/gaussian/g16-c01/sse4/g16/l101.exe)
 -------
 TitleMe
 -------
 Symbolic Z-matrix:
 Charge =  1 Multiplicity = 1
 C                     0.5193    1.233    -0.0319 
 C                     1.9445    1.2692   -0.0367 
 C                     2.6204    0.0928   -0.025 
 C                    -0.196     0.0301    0.001 
 H                    -0.0207    2.1742   -0.0434 
 H                     2.4828    2.2089   -0.0361 
 H                    -1.2777    0.0399    0.0117 
 N                     4.0921    0.0959    0.0366 
 O                     4.6393   -1.0217    0.1446 
 O                     4.6649    1.1984   -0.0233 
 C                     0.4943   -1.1671    0.021 
 H                    -0.0325   -2.1149    0.0545 
 C                     1.9629   -1.2165   -0.0211 
 H                     2.4436   -1.9631    0.6151 
 Br                    2.173    -1.9491   -1.9062 
 
 ITRead=  0  0  0  0  0  0  0  0  0  0  0  0  0  0  0
 MicOpt= -1 -1 -1 -1 -1 -1 -1 -1 -1 -1 -1 -1 -1 -1 -1
 NAtoms=     15 NQM=       15 NQMF=       0 NMMI=      0 NMMIF=      0
                NMic=       0 NMicF=      0.
                    Isotopes and Nuclear Properties:
 (Nuclear quadrupole moments (NQMom) in fm**2, nuclear magnetic moments (NMagM)
  in nuclear magnetons)

  Atom         1           2           3           4           5           6           7           8           9          10
 IAtWgt=          12          12          12          12           1           1           1          14          16          16
 AtmWgt=  12.0000000  12.0000000  12.0000000  12.0000000   1.0078250   1.0078250   1.0078250  14.0030740  15.9949146  15.9949146
 NucSpn=           0           0           0           0           1           1           1           2           0           0
 AtZEff=  -0.0000000  -0.0000000  -0.0000000  -0.0000000  -0.0000000  -0.0000000  -0.0000000  -0.0000000  -0.0000000  -0.0000000
 NQMom=    0.0000000   0.0000000   0.0000000   0.0000000   0.0000000   0.0000000   0.0000000   2.0440000   0.0000000   0.0000000
 NMagM=    0.0000000   0.0000000   0.0000000   0.0000000   2.7928460   2.7928460   2.7928460   0.4037610   0.0000000   0.0000000
 AtZNuc=   6.0000000   6.0000000   6.0000000   6.0000000   1.0000000   1.0000000   1.0000000   7.0000000   8.0000000   8.0000000

  Atom        11          12          13          14          15
 IAtWgt=          12           1          12           1          79
 AtmWgt=  12.0000000   1.0078250  12.0000000   1.0078250  78.9183361
 NucSpn=           0           1           0           1           3
 AtZEff=  -0.0000000  -0.0000000  -0.0000000  -0.0000000  -0.0000000
 NQMom=    0.0000000   0.0000000   0.0000000   0.0000000  31.3000000
 NMagM=    0.0000000   2.7928460   0.0000000   2.7928460   2.1063990
 AtZNuc=   6.0000000   1.0000000   6.0000000   1.0000000  35.0000000
 Leave Link  101 at Thu May  2 13:57:35 2024, MaxMem=   134217728 cpu:               1.7 elap:               1.7
 (Enter /software/gaussian/g16-c01/sse4/g16/l202.exe)
                          Input orientation:                          
 ---------------------------------------------------------------------
 Center     Atomic      Atomic             Coordinates (Angstroms)
 Number     Number       Type             X           Y           Z
 ---------------------------------------------------------------------
      1          6           0        0.519300    1.233000   -0.031900
      2          6           0        1.944500    1.269200   -0.036700
      3          6           0        2.620400    0.092800   -0.025000
      4          6           0       -0.196000    0.030100    0.001000
      5          1           0       -0.020700    2.174200   -0.043400
      6          1           0        2.482800    2.208900   -0.036100
      7          1           0       -1.277700    0.039900    0.011700
      8          7           0        4.092100    0.095900    0.036600
      9          8           0        4.639300   -1.021700    0.144600
     10          8           0        4.664900    1.198400   -0.023300
     11          6           0        0.494300   -1.167100    0.021000
     12          1           0       -0.032500   -2.114900    0.054500
     13          6           0        1.962900   -1.216500   -0.021100
     14          1           0        2.443600   -1.963100    0.615100
     15         35           0        2.173000   -1.949100   -1.906200
 ---------------------------------------------------------------------
                    Distance matrix (angstroms):
                    1          2          3          4          5
     1  C    0.000000
     2  C    1.425668   0.000000
     3  C    2.390549   1.356796   0.000000
     4  C    1.399895   2.473566   2.817218   0.000000
     5  H    1.085168   2.163581   3.362733   2.151712   0.000000
     6  H    2.192654   1.082960   2.120598   3.453189   2.503751
     7  H    2.157452   3.449071   3.898632   1.081797   2.477564
     8  N    3.750012   2.448304   1.472992   4.288753   4.608780
     9  O    4.699917   3.541615   2.312322   4.950458   5.653735
    10  O    4.145753   2.721354   2.324292   4.999386   4.786171
    11  C    2.400813   2.835836   2.471794   1.382101   3.381369
    12  H    3.394169   3.920329   3.452266   2.151887   4.290233
    13  C    2.843264   2.485817   1.465124   2.493060   3.928360
    14  H    3.786370   3.334922   2.160489   3.364142   4.860416
    15  Br   4.046416   3.728900   2.812194   3.628609   5.028314
                    6          7          8          9         10
     6  H    0.000000
     7  H    4.341452   0.000000
     8  N    2.657047   5.370150   0.000000
     9  O    3.888434   6.012948   1.249048   0.000000
    10  O    2.404752   6.054572   1.243863   2.226587   0.000000
    11  C    3.918516   2.144043   3.813080   4.149391   4.794941
    12  H    5.003018   2.489080   4.679774   4.798846   5.748876
    13  C    3.464662   3.475788   2.501842   2.688591   3.623886
    14  H    4.222698   4.268978   2.700314   2.434893   3.916224
    15  Br   4.569706   4.420610   3.411663   3.338935   4.434144
                   11         12         13         14         15
    11  C    0.000000
    12  H    1.084880   0.000000
    13  C    1.470034   2.189625   0.000000
    14  H    2.187771   2.543302   1.092353   0.000000
    15  Br   2.672762   2.955683   2.033334   2.535818   0.000000
 Symmetry turned off by external request.
 Stoichiometry    C6H5BrNO2(1+)
 Framework group  C1[X(C6H5BrNO2)]
 Deg. of freedom    39
 Full point group                 C1      NOp   1
 Rotational constants (GHZ):           1.1632986           0.9594224           0.5957624
 Leave Link  202 at Thu May  2 13:57:37 2024, MaxMem=   134217728 cpu:               1.2 elap:               1.2
 (Enter /software/gaussian/g16-c01/sse4/g16/l301.exe)
 Standard basis: 6-311+G(d) (5D, 7F)
 Ernie: Thresh=  0.10000D-02 Tol=  0.10000D-05 Strict=F.
 The following finite field(s) will be applied:
 An electric field of              0.0077  0.0000  0.0000
   261 basis functions,   443 primitive gaussians,   273 cartesian basis functions
    49 alpha electrons       49 beta electrons
       nuclear repulsion energy       772.8945969580 Hartrees.
 IExCor= 4639 DFT=T Ex+Corr=wB97XD ExCW=0 ScaHFX=  1.000000
 ScaDFX=  1.000000  1.000000  1.000000  1.000000 ScalE2=  1.000000  1.000000
 IRadAn=      5 IRanWt=     -1 IRanGd=            0 ICorTp=0 IEmpDi=121
 HFx  wShort=  0.000000 wLong=  0.200000 cFull=  0.222036 cShort=  0.000000 cLong=  0.777964
 DFx  wShort=  0.000000 wLong=  0.200000 cFull=  0.000000 cShort=  0.000000 cLong=  1.000000
 NAtoms=   15 NActive=   15 NUniq=   15 SFac= 1.00D+00 NAtFMM=   60 NAOKFM=F Big=F
 Integral buffers will be    131072 words long.
 Raffenetti 2 integral format.
 Two-electron integral symmetry is turned off.
 R6Disp:  Grimme-D2 Dispersion energy=       -0.0080346408 Hartrees.
 Nuclear repulsion after empirical dispersion term =      772.8865623173 Hartrees.
 Leave Link  301 at Thu May  2 13:57:38 2024, MaxMem=   134217728 cpu:               1.0 elap:               1.2
 (Enter /software/gaussian/g16-c01/sse4/g16/l302.exe)
 NPDir=0 NMtPBC=     1 NCelOv=     1 NCel=       1 NClECP=     1 NCelD=      1
         NCelK=      1 NCelE2=     1 NClLst=     1 CellRange=     0.0.
 One-electron integrals computed using PRISM.
 NBasis=   261 RedAO= T EigKep=  2.52D-06  NBF=   261
 NBsUse=   261 1.00D-06 EigRej= -1.00D+00 NBFU=   261
 Precomputing XC quadrature grid using
 IXCGrd= 4 IRadAn=           5 IRanWt=          -1 IRanGd=           0 AccXCQ= 0.00D+00.
 Generated NRdTot=       0 NPtTot=           0 NUsed=           0 NTot=          32
 NSgBfM=   273   273   273   273   273 MxSgAt=    15 MxSgA2=    15.
 Leave Link  302 at Thu May  2 13:58:00 2024, MaxMem=   134217728 cpu:              21.8 elap:              21.8
 (Enter /software/gaussian/g16-c01/sse4/g16/l303.exe)
 DipDrv:  MaxL=1.
 The nuclear repulsion energy is now       776.1867218933 hartrees.
 Leave Link  303 at Thu May  2 13:58:04 2024, MaxMem=   134217728 cpu:               3.4 elap:               3.4
 (Enter /software/gaussian/g16-c01/sse4/g16/l401.exe)
 ExpMin= 3.50D-02 ExpMax= 4.40D+05 ExpMxC= 1.51D+04 IAcc=3 IRadAn=         5 AccDes= 0.00D+00
 Harris functional with IExCor= 4639 and IRadAn=       5 diagonalized for initial guess.
 HarFok:  IExCor= 4639 AccDes= 0.00D+00 IRadAn=         5 IDoV= 1 UseB2=F ITyADJ=14
 ICtDFT=  3500011 ScaDFX=  1.000000  1.000000  1.000000  1.000000
 FoFCou: FMM=F IPFlag=           0 FMFlag=      100000 FMFlg1=           0
         NFxFlg=           0 DoJE=T BraDBF=F KetDBF=T FulRan=T
         wScrn=  0.000000 ICntrl=       500 IOpCl=  0 I1Cent=   200000004 NGrid=           0
         NMat0=    1 NMatS0=      1 NMatT0=    0 NMatD0=    1 NMtDS0=    0 NMtDT0=    0
 Symmetry not used in FoFCou.
 Harris En= -2970.59522938384    
 JPrj=0 DoOrth=F DoCkMO=F.
 Leave Link  401 at Thu May  2 13:58:35 2024, MaxMem=   134217728 cpu:              31.7 elap:              31.7
 (Enter /software/gaussian/g16-c01/sse4/g16/l502.exe)
 Two-electron integral symmetry not used.
 Closed shell SCF:
 Using DIIS extrapolation, IDIIS=  1040.
 NGot=   134217728 LenX=   134063053 LenY=   133988083
 Requested convergence on RMS density matrix=1.00D-08 within 128 cycles.
 Requested convergence on MAX density matrix=1.00D-06.
 Requested convergence on             energy=1.00D-06.
 No special actions if energy rises.
 Fock matrices will be formed incrementally for  20 cycles.

 Cycle   1  Pass 1  IDiag  1:
 FoFJK:  IHMeth= 1 ICntrl=       0 DoSepK=T KAlg= 0 I1Cent=           0 FoldK=F
 IRaf=         1 NMat=       1 IRICut=       1 DoRegI=T DoRafI=F ISym2E= 0 IDoP0=0 IntGTp=1.
 FoFCou: FMM=F IPFlag=           0 FMFlag=      100000 FMFlg1=           0
         NFxFlg=           0 DoJE=T BraDBF=F KetDBF=F FulRan=T
         wScrn=  0.000000 ICntrl=       500 IOpCl=  0 I1Cent=           0 NGrid=           0
         NMat0=    1 NMatS0=      1 NMatT0=    0 NMatD0=    1 NMtDS0=    0 NMtDT0=    0
 Symmetry not used in FoFCou.
 E= -3009.71408755686    
 DIIS: error= 2.90D-01 at cycle   1 NSaved=   1.
 NSaved= 1 IEnMin= 1 EnMin= -3009.71408755686     IErMin= 1 ErrMin= 2.90D-01
 ErrMax= 2.90D-01  0.00D+00 EMaxC= 1.00D-01 BMatC= 1.19D+01 BMatP= 1.19D+01
 IDIUse=3 WtCom= 0.00D+00 WtEn= 1.00D+00
 Coeff-Com:  0.100D+01
 Coeff-En:   0.100D+01
 Coeff:      0.100D+01
 Gap=     0.286 Goal=   None    Shift=    0.000
 GapD=    0.286 DampG=1.000 DampE=0.250 DampFc=0.2500 IDamp=-1.
 Damping current iteration by 2.50D-01
 RMSDP=4.92D-02 MaxDP=5.14D+00              OVMax= 2.65D-01

 Cycle   2  Pass 1  IDiag  1:
 RMSU=  6.41D-03    CP:  9.04D-01
 E= -3009.99745771442     Delta-E=       -0.283370157562 Rises=F Damp=T
 DIIS: error= 2.19D-01 at cycle   2 NSaved=   2.
 NSaved= 2 IEnMin= 2 EnMin= -3009.99745771442     IErMin= 2 ErrMin= 2.19D-01
 ErrMax= 2.19D-01  0.00D+00 EMaxC= 1.00D-01 BMatC= 5.45D+00 BMatP= 1.19D+01
 IDIUse=3 WtCom= 0.00D+00 WtEn= 1.00D+00
 Coeff-Com: -0.184D+01 0.284D+01
 Coeff-En:   0.000D+00 0.100D+01
 Coeff:      0.000D+00 0.100D+01
 Gap=     0.262 Goal=   None    Shift=    0.000
 RMSDP=3.81D-02 MaxDP=4.17D+00 DE=-2.83D-01 OVMax= 7.09D-02

 Cycle   3  Pass 1  IDiag  1:
 RMSU=  4.75D-03    CP:  5.79D-01  3.00D+00
 E= -3010.37715669085     Delta-E=       -0.379698976423 Rises=F Damp=F
 DIIS: error= 6.58D-02 at cycle   3 NSaved=   3.
 NSaved= 3 IEnMin= 3 EnMin= -3010.37715669085     IErMin= 3 ErrMin= 6.58D-02
 ErrMax= 6.58D-02  0.00D+00 EMaxC= 1.00D-01 BMatC= 7.28D-01 BMatP= 5.45D+00
 IDIUse=3 WtCom= 3.42D-01 WtEn= 6.58D-01
 Coeff-Com:  0.266D+01-0.349D+01 0.183D+01
 Coeff-En:   0.277D-01 0.000D+00 0.972D+00
 Coeff:      0.928D+00-0.119D+01 0.127D+01
 Gap=     0.253 Goal=   None    Shift=    0.000
 RMSDP=1.14D-02 MaxDP=7.39D-01 DE=-3.80D-01 OVMax= 6.72D-02

 Cycle   4  Pass 1  IDiag  1:
 RMSU=  5.69D-03    CP:  6.07D-01  1.93D+00  2.23D+00
 E= -3010.47999238348     Delta-E=       -0.102835692637 Rises=F Damp=F
 DIIS: error= 3.84D-02 at cycle   4 NSaved=   4.
 NSaved= 4 IEnMin= 4 EnMin= -3010.47999238348     IErMin= 4 ErrMin= 3.84D-02
 ErrMax= 3.84D-02  0.00D+00 EMaxC= 1.00D-01 BMatC= 2.30D-01 BMatP= 7.28D-01
 IDIUse=3 WtCom= 6.16D-01 WtEn= 3.84D-01
 Coeff-Com: -0.593D-01 0.927D-01 0.337D+00 0.630D+00
 Coeff-En:   0.000D+00 0.000D+00 0.202D+00 0.798D+00
 Coeff:     -0.365D-01 0.571D-01 0.285D+00 0.694D+00
 Gap=     0.256 Goal=   None    Shift=    0.000
 RMSDP=4.90D-03 MaxDP=5.54D-01 DE=-1.03D-01 OVMax= 2.96D-02

 Cycle   5  Pass 1  IDiag  1:
 RMSU=  1.54D-03    CP:  5.73D-01  2.12D+00  2.08D+00  5.74D-01
 E= -3010.52402006420     Delta-E=       -0.044027680718 Rises=F Damp=F
 DIIS: error= 6.51D-03 at cycle   5 NSaved=   5.
 NSaved= 5 IEnMin= 5 EnMin= -3010.52402006420     IErMin= 5 ErrMin= 6.51D-03
 ErrMax= 6.51D-03  0.00D+00 EMaxC= 1.00D-01 BMatC= 8.50D-03 BMatP= 2.30D-01
 IDIUse=3 WtCom= 9.35D-01 WtEn= 6.51D-02
 Coeff-Com: -0.118D+00 0.163D+00 0.104D+00 0.383D+00 0.469D+00
 Coeff-En:   0.000D+00 0.000D+00 0.000D+00 0.000D+00 0.100D+01
 Coeff:     -0.111D+00 0.152D+00 0.972D-01 0.358D+00 0.503D+00
 Gap=     0.247 Goal=   None    Shift=    0.000
 RMSDP=1.39D-03 MaxDP=1.68D-01 DE=-4.40D-02 OVMax= 2.25D-02

 Cycle   6  Pass 1  IDiag  1:
 RMSU=  5.69D-04    CP:  5.78D-01  2.12D+00  2.15D+00  7.42D-01  7.29D-01
 E= -3010.52637213682     Delta-E=       -0.002352072615 Rises=F Damp=F
 DIIS: error= 2.57D-03 at cycle   6 NSaved=   6.
 NSaved= 6 IEnMin= 6 EnMin= -3010.52637213682     IErMin= 6 ErrMin= 2.57D-03
 ErrMax= 2.57D-03  0.00D+00 EMaxC= 1.00D-01 BMatC= 5.80D-04 BMatP= 8.50D-03
 IDIUse=3 WtCom= 9.74D-01 WtEn= 2.57D-02
 Coeff-Com: -0.988D-01 0.133D+00 0.873D-03 0.163D+00 0.342D+00 0.460D+00
 Coeff-En:   0.000D+00 0.000D+00 0.000D+00 0.000D+00 0.889D-01 0.911D+00
 Coeff:     -0.963D-01 0.130D+00 0.851D-03 0.159D+00 0.335D+00 0.472D+00
 Gap=     0.247 Goal=   None    Shift=    0.000
 RMSDP=3.90D-04 MaxDP=3.52D-02 DE=-2.35D-03 OVMax= 7.95D-03

 Cycle   7  Pass 1  IDiag  1:
 RMSU=  2.00D-04    CP:  5.77D-01  2.12D+00  2.15D+00  7.09D-01  8.24D-01
                    CP:  7.00D-01
 E= -3010.52677451699     Delta-E=       -0.000402380173 Rises=F Damp=F
 DIIS: error= 2.99D-04 at cycle   7 NSaved=   7.
 NSaved= 7 IEnMin= 7 EnMin= -3010.52677451699     IErMin= 7 ErrMin= 2.99D-04
 ErrMax= 2.99D-04  0.00D+00 EMaxC= 1.00D-01 BMatC= 1.31D-05 BMatP= 5.80D-04
 IDIUse=3 WtCom= 9.97D-01 WtEn= 2.99D-03
 Coeff-Com: -0.354D-01 0.472D-01-0.117D-01 0.339D-01 0.847D-01 0.176D+00
 Coeff-Com:  0.705D+00
 Coeff-En:   0.000D+00 0.000D+00 0.000D+00 0.000D+00 0.000D+00 0.000D+00
 Coeff-En:   0.100D+01
 Coeff:     -0.353D-01 0.471D-01-0.117D-01 0.338D-01 0.845D-01 0.175D+00
 Coeff:      0.706D+00
 Gap=     0.248 Goal=   None    Shift=    0.000
 RMSDP=1.35D-04 MaxDP=8.18D-03 DE=-4.02D-04 OVMax= 1.07D-03

 Cycle   8  Pass 1  IDiag  1:
 RMSU=  5.41D-05    CP:  5.76D-01  2.11D+00  2.16D+00  7.20D-01  8.57D-01
                    CP:  7.26D-01  9.56D-01
 E= -3010.52678728669     Delta-E=       -0.000012769703 Rises=F Damp=F
 DIIS: error= 1.16D-04 at cycle   8 NSaved=   8.
 NSaved= 8 IEnMin= 8 EnMin= -3010.52678728669     IErMin= 8 ErrMin= 1.16D-04
 ErrMax= 1.16D-04  0.00D+00 EMaxC= 1.00D-01 BMatC= 1.93D-06 BMatP= 1.31D-05
 IDIUse=3 WtCom= 9.99D-01 WtEn= 1.16D-03
 Coeff-Com:  0.307D-02-0.430D-02-0.337D-02-0.104D-01-0.230D-01-0.294D-01
 Coeff-Com:  0.184D+00 0.883D+00
 Coeff-En:   0.000D+00 0.000D+00 0.000D+00 0.000D+00 0.000D+00 0.000D+00
 Coeff-En:   0.000D+00 0.100D+01
 Coeff:      0.307D-02-0.430D-02-0.337D-02-0.104D-01-0.230D-01-0.294D-01
 Coeff:      0.184D+00 0.883D+00
 Gap=     0.248 Goal=   None    Shift=    0.000
 RMSDP=7.26D-05 MaxDP=6.92D-03 DE=-1.28D-05 OVMax= 7.78D-04

 Cycle   9  Pass 1  IDiag  1:
 RMSU=  2.12D-05    CP:  5.77D-01  2.11D+00  2.17D+00  7.25D-01  8.66D-01
                    CP:  7.37D-01  1.12D+00  1.16D+00
 E= -3010.52678969980     Delta-E=       -0.000002413105 Rises=F Damp=F
 DIIS: error= 2.16D-05 at cycle   9 NSaved=   9.
 NSaved= 9 IEnMin= 9 EnMin= -3010.52678969980     IErMin= 9 ErrMin= 2.16D-05
 ErrMax= 2.16D-05  0.00D+00 EMaxC= 1.00D-01 BMatC= 1.77D-07 BMatP= 1.93D-06
 IDIUse=1 WtCom= 1.00D+00 WtEn= 0.00D+00
 Coeff-Com:  0.529D-02-0.712D-02 0.331D-03-0.744D-02-0.159D-01-0.300D-01
 Coeff-Com: -0.402D-01 0.282D+00 0.813D+00
 Coeff:      0.529D-02-0.712D-02 0.331D-03-0.744D-02-0.159D-01-0.300D-01
 Coeff:     -0.402D-01 0.282D+00 0.813D+00
 Gap=     0.248 Goal=   None    Shift=    0.000
 RMSDP=2.73D-05 MaxDP=2.57D-03 DE=-2.41D-06 OVMax= 2.16D-04

 Cycle  10  Pass 1  IDiag  1:
 RMSU=  7.77D-06    CP:  5.77D-01  2.11D+00  2.17D+00  7.24D-01  8.70D-01
                    CP:  7.28D-01  1.16D+00  1.33D+00  1.00D+00
 E= -3010.52679000710     Delta-E=       -0.000000307307 Rises=F Damp=F
 DIIS: error= 1.15D-05 at cycle  10 NSaved=  10.
 NSaved=10 IEnMin=10 EnMin= -3010.52679000710     IErMin=10 ErrMin= 1.15D-05
 ErrMax= 1.15D-05  0.00D+00 EMaxC= 1.00D-01 BMatC= 3.32D-08 BMatP= 1.77D-07
 IDIUse=1 WtCom= 1.00D+00 WtEn= 0.00D+00
 Coeff-Com:  0.591D-03-0.778D-03 0.222D-03-0.653D-03 0.279D-03-0.668D-03
 Coeff-Com: -0.334D-01-0.256D-01 0.212D+00 0.848D+00
 Coeff:      0.591D-03-0.778D-03 0.222D-03-0.653D-03 0.279D-03-0.668D-03
 Coeff:     -0.334D-01-0.256D-01 0.212D+00 0.848D+00
 Gap=     0.248 Goal=   None    Shift=    0.000
 RMSDP=6.76D-06 MaxDP=6.31D-04 DE=-3.07D-07 OVMax= 1.06D-04

 Cycle  11  Pass 1  IDiag  1:
 RMSU=  4.54D-06    CP:  5.77D-01  2.11D+00  2.17D+00  7.24D-01  8.70D-01
                    CP:  7.26D-01  1.16D+00  1.37D+00  1.04D+00  1.13D+00
 E= -3010.52679004755     Delta-E=       -0.000000040443 Rises=F Damp=F
 DIIS: error= 1.92D-06 at cycle  11 NSaved=  11.
 NSaved=11 IEnMin=11 EnMin= -3010.52679004755     IErMin=11 ErrMin= 1.92D-06
 ErrMax= 1.92D-06  0.00D+00 EMaxC= 1.00D-01 BMatC= 2.11D-09 BMatP= 3.32D-08
 IDIUse=1 WtCom= 1.00D+00 WtEn= 0.00D+00
 Coeff-Com: -0.570D-04 0.776D-04 0.518D-04 0.306D-03 0.116D-02 0.224D-02
 Coeff-Com:  0.253D-02-0.137D-01-0.749D-01-0.623D-03 0.108D+01
 Coeff:     -0.570D-04 0.776D-04 0.518D-04 0.306D-03 0.116D-02 0.224D-02
 Coeff:      0.253D-02-0.137D-01-0.749D-01-0.623D-03 0.108D+01
 Gap=     0.248 Goal=   None    Shift=    0.000
 RMSDP=7.15D-06 MaxDP=6.89D-04 DE=-4.04D-08 OVMax= 5.58D-05

 Cycle  12  Pass 1  IDiag  1:
 RMSU=  9.70D-07    CP:  5.77D-01  2.11D+00  2.17D+00  7.24D-01  8.70D-01
                    CP:  7.22D-01  1.15D+00  1.39D+00  1.03D+00  1.30D+00
                    CP:  1.56D+00
 E= -3010.52679005501     Delta-E=       -0.000000007460 Rises=F Damp=F
 DIIS: error= 1.48D-06 at cycle  12 NSaved=  12.
 NSaved=12 IEnMin=12 EnMin= -3010.52679005501     IErMin=12 ErrMin= 1.48D-06
 ErrMax= 1.48D-06  0.00D+00 EMaxC= 1.00D-01 BMatC= 4.96D-10 BMatP= 2.11D-09
 IDIUse=1 WtCom= 1.00D+00 WtEn= 0.00D+00
 Coeff-Com: -0.917D-04 0.121D-03-0.254D-05 0.229D-03 0.408D-03 0.938D-03
 Coeff-Com:  0.660D-02-0.104D-02-0.705D-01-0.148D+00 0.445D+00 0.767D+00
 Coeff:     -0.917D-04 0.121D-03-0.254D-05 0.229D-03 0.408D-03 0.938D-03
 Coeff:      0.660D-02-0.104D-02-0.705D-01-0.148D+00 0.445D+00 0.767D+00
 Gap=     0.248 Goal=   None    Shift=    0.000
 RMSDP=2.13D-06 MaxDP=2.22D-04 DE=-7.46D-09 OVMax= 3.20D-05

 Cycle  13  Pass 1  IDiag  1:
 RMSU=  3.63D-07    CP:  5.77D-01  2.11D+00  2.17D+00  7.23D-01  8.70D-01
                    CP:  7.21D-01  1.15D+00  1.40D+00  1.02D+00  1.34D+00
                    CP:  1.78D+00  1.23D+00
 E= -3010.52679005674     Delta-E=       -0.000000001736 Rises=F Damp=F
 DIIS: error= 6.43D-07 at cycle  13 NSaved=  13.
 NSaved=13 IEnMin=13 EnMin= -3010.52679005674     IErMin=13 ErrMin= 6.43D-07
 ErrMax= 6.43D-07  0.00D+00 EMaxC= 1.00D-01 BMatC= 8.31D-11 BMatP= 4.96D-10
 IDIUse=1 WtCom= 1.00D+00 WtEn= 0.00D+00
 Coeff-Com:  0.727D-06-0.110D-05-0.810D-05-0.382D-04-0.211D-03-0.440D-03
 Coeff-Com: -0.529D-03 0.213D-02 0.114D-01-0.423D-02-0.167D+00 0.143D+00
 Coeff-Com:  0.102D+01
 Coeff:      0.727D-06-0.110D-05-0.810D-05-0.382D-04-0.211D-03-0.440D-03
 Coeff:     -0.529D-03 0.213D-02 0.114D-01-0.423D-02-0.167D+00 0.143D+00
 Coeff:      0.102D+01
 Gap=     0.248 Goal=   None    Shift=    0.000
 RMSDP=7.63D-07 MaxDP=7.17D-05 DE=-1.74D-09 OVMax= 1.80D-05

 Cycle  14  Pass 1  IDiag  1:
 RMSU=  1.93D-07    CP:  5.77D-01  2.11D+00  2.17D+00  7.23D-01  8.70D-01
                    CP:  7.20D-01  1.15D+00  1.40D+00  1.02D+00  1.34D+00
                    CP:  1.83D+00  1.45D+00  1.41D+00
 E= -3010.52679005714     Delta-E=       -0.000000000396 Rises=F Damp=F
 DIIS: error= 2.96D-07 at cycle  14 NSaved=  14.
 NSaved=14 IEnMin=14 EnMin= -3010.52679005714     IErMin=14 ErrMin= 2.96D-07
 ErrMax= 2.96D-07  0.00D+00 EMaxC= 1.00D-01 BMatC= 1.75D-11 BMatP= 8.31D-11
 IDIUse=1 WtCom= 1.00D+00 WtEn= 0.00D+00
 Coeff-Com:  0.618D-05-0.807D-05-0.518D-05-0.440D-04-0.124D-03-0.265D-03
 Coeff-Com: -0.122D-02 0.747D-03 0.162D-01 0.216D-01-0.150D+00-0.706D-01
 Coeff-Com:  0.286D+00 0.898D+00
 Coeff:      0.618D-05-0.807D-05-0.518D-05-0.440D-04-0.124D-03-0.265D-03
 Coeff:     -0.122D-02 0.747D-03 0.162D-01 0.216D-01-0.150D+00-0.706D-01
 Coeff:      0.286D+00 0.898D+00
 Gap=     0.248 Goal=   None    Shift=    0.000
 RMSDP=3.16D-07 MaxDP=2.64D-05 DE=-3.96D-10 OVMax= 1.04D-05

 Cycle  15  Pass 1  IDiag  1:
 RMSU=  7.13D-08    CP:  5.77D-01  2.11D+00  2.17D+00  7.23D-01  8.70D-01
                    CP:  7.20D-01  1.15D+00  1.40D+00  1.02D+00  1.34D+00
                    CP:  1.86D+00  1.54D+00  1.65D+00  1.47D+00
 E= -3010.52679005728     Delta-E=       -0.000000000146 Rises=F Damp=F
 DIIS: error= 1.36D-07 at cycle  15 NSaved=  15.
 NSaved=15 IEnMin=15 EnMin= -3010.52679005728     IErMin=15 ErrMin= 1.36D-07
 ErrMax= 1.36D-07  0.00D+00 EMaxC= 1.00D-01 BMatC= 5.46D-12 BMatP= 1.75D-11
 IDIUse=1 WtCom= 1.00D+00 WtEn= 0.00D+00
 Coeff-Com:  0.706D-05-0.940D-05 0.169D-05-0.712D-05 0.200D-04 0.522D-04
 Coeff-Com: -0.203D-03-0.335D-03 0.208D-02 0.733D-02-0.448D-03-0.469D-01
 Coeff-Com: -0.238D+00 0.338D+00 0.938D+00
 Coeff:      0.706D-05-0.940D-05 0.169D-05-0.712D-05 0.200D-04 0.522D-04
 Coeff:     -0.203D-03-0.335D-03 0.208D-02 0.733D-02-0.448D-03-0.469D-01
 Coeff:     -0.238D+00 0.338D+00 0.938D+00
 Gap=     0.248 Goal=   None    Shift=    0.000
 RMSDP=1.23D-07 MaxDP=6.34D-06 DE=-1.46D-10 OVMax= 6.12D-06

 Cycle  16  Pass 1  IDiag  1:
 RMSU=  3.73D-08    CP:  5.77D-01  2.11D+00  2.17D+00  7.23D-01  8.70D-01
                    CP:  7.20D-01  1.15D+00  1.40D+00  1.02D+00  1.34D+00
                    CP:  1.87D+00  1.57D+00  1.75D+00  1.82D+00  1.38D+00
 E= -3010.52679005735     Delta-E=       -0.000000000070 Rises=F Damp=F
 DIIS: error= 3.89D-08 at cycle  16 NSaved=  16.
 NSaved=16 IEnMin=16 EnMin= -3010.52679005735     IErMin=16 ErrMin= 3.89D-08
 ErrMax= 3.89D-08  0.00D+00 EMaxC= 1.00D-01 BMatC= 5.39D-13 BMatP= 5.46D-12
 IDIUse=1 WtCom= 1.00D+00 WtEn= 0.00D+00
 Coeff-Com:  0.167D-05-0.225D-05 0.138D-05 0.385D-05 0.227D-04 0.562D-04
 Coeff-Com:  0.108D-03-0.284D-03-0.167D-02-0.794D-03 0.198D-01-0.156D-02
 Coeff-Com: -0.114D+00-0.347D-01 0.225D+00 0.908D+00
 Coeff:      0.167D-05-0.225D-05 0.138D-05 0.385D-05 0.227D-04 0.562D-04
 Coeff:      0.108D-03-0.284D-03-0.167D-02-0.794D-03 0.198D-01-0.156D-02
 Coeff:     -0.114D+00-0.347D-01 0.225D+00 0.908D+00
 Gap=     0.248 Goal=   None    Shift=    0.000
 RMSDP=6.66D-08 MaxDP=7.71D-06 DE=-7.00D-11 OVMax= 2.00D-06

 Cycle  17  Pass 1  IDiag  1:
 RMSU=  1.33D-08    CP:  5.77D-01  2.11D+00  2.17D+00  7.23D-01  8.70D-01
                    CP:  7.20D-01  1.15D+00  1.40D+00  1.02D+00  1.34D+00
                    CP:  1.86D+00  1.57D+00  1.78D+00  2.00D+00  1.67D+00
                    CP:  1.09D+00
 E= -3010.52679005735     Delta-E=        0.000000000005 Rises=F Damp=F
 DIIS: error= 2.05D-08 at cycle  17 NSaved=  17.
 NSaved=17 IEnMin=16 EnMin= -3010.52679005735     IErMin=17 ErrMin= 2.05D-08
 ErrMax= 2.05D-08  0.00D+00 EMaxC= 1.00D-01 BMatC= 9.68D-14 BMatP= 5.39D-13
 IDIUse=1 WtCom= 1.00D+00 WtEn= 0.00D+00
 Coeff-Com: -0.337D-06 0.445D-06 0.281D-06 0.224D-05 0.588D-05 0.154D-04
 Coeff-Com:  0.586D-04-0.459D-04-0.782D-03-0.102D-02 0.713D-02 0.647D-02
 Coeff-Com: -0.818D-02-0.494D-01-0.418D-01 0.309D+00 0.778D+00
 Coeff:     -0.337D-06 0.445D-06 0.281D-06 0.224D-05 0.588D-05 0.154D-04
 Coeff:      0.586D-04-0.459D-04-0.782D-03-0.102D-02 0.713D-02 0.647D-02
 Coeff:     -0.818D-02-0.494D-01-0.418D-01 0.309D+00 0.778D+00
 Gap=     0.248 Goal=   None    Shift=    0.000
 RMSDP=1.56D-08 MaxDP=1.41D-06 DE= 5.00D-12 OVMax= 4.37D-07

 Cycle  18  Pass 1  IDiag  1:
 RMSU=  3.64D-09    CP:  5.77D-01  2.11D+00  2.17D+00  7.23D-01  8.70D-01
                    CP:  7.20D-01  1.15D+00  1.40D+00  1.02D+00  1.34D+00
                    CP:  1.86D+00  1.57D+00  1.78D+00  2.01D+00  1.75D+00
                    CP:  1.26D+00  1.21D+00
 E= -3010.52679005735     Delta-E=       -0.000000000001 Rises=F Damp=F
 DIIS: error= 6.90D-09 at cycle  18 NSaved=  18.
 NSaved=18 IEnMin=16 EnMin= -3010.52679005735     IErMin=18 ErrMin= 6.90D-09
 ErrMax= 6.90D-09  0.00D+00 EMaxC= 1.00D-01 BMatC= 2.30D-14 BMatP= 9.68D-14
 IDIUse=1 WtCom= 1.00D+00 WtEn= 0.00D+00
 Coeff-Com: -0.155D-06 0.208D-06-0.178D-06-0.734D-06-0.486D-05-0.993D-05
 Coeff-Com: -0.133D-04 0.673D-04 0.182D-03-0.168D-03-0.313D-02 0.187D-02
 Coeff-Com:  0.251D-01-0.713D-02-0.697D-01-0.136D+00 0.271D+00 0.918D+00
 Coeff:     -0.155D-06 0.208D-06-0.178D-06-0.734D-06-0.486D-05-0.993D-05
 Coeff:     -0.133D-04 0.673D-04 0.182D-03-0.168D-03-0.313D-02 0.187D-02
 Coeff:      0.251D-01-0.713D-02-0.697D-01-0.136D+00 0.271D+00 0.918D+00
 Gap=     0.248 Goal=   None    Shift=    0.000
 RMSDP=1.42D-08 MaxDP=1.20D-06 DE=-1.36D-12 OVMax= 3.08D-07

 Cycle  19  Pass 1  IDiag  1:
 RMSU=  1.81D-09    CP:  5.77D-01  2.11D+00  2.17D+00  7.23D-01  8.70D-01
                    CP:  7.20D-01  1.15D+00  1.40D+00  1.02D+00  1.34D+00
                    CP:  1.87D+00  1.57D+00  1.78D+00  2.02D+00  1.81D+00
                    CP:  1.33D+00  1.49D+00  1.40D+00
 E= -3010.52679005736     Delta-E=       -0.000000000010 Rises=F Damp=F
 DIIS: error= 2.34D-09 at cycle  19 NSaved=  19.
 NSaved=19 IEnMin=19 EnMin= -3010.52679005736     IErMin=19 ErrMin= 2.34D-09
 ErrMax= 2.34D-09  0.00D+00 EMaxC= 1.00D-01 BMatC= 1.17D-15 BMatP= 2.30D-14
 IDIUse=1 WtCom= 1.00D+00 WtEn= 0.00D+00
 Large coefficients: NSaved= 19 BigCof=    0.00 CofMax=   10.00 Det=-3.19D-15
 Inversion failed.  Reducing to 18 matrices.
 Large coefficients: NSaved= 18 BigCof=    0.00 CofMax=   10.00 Det=-3.26D-15
 Inversion failed.  Reducing to 17 matrices.
 Large coefficients: NSaved= 17 BigCof=    0.00 CofMax=   10.00 Det=-3.97D-15
 Inversion failed.  Reducing to 16 matrices.
 Large coefficients: NSaved= 16 BigCof=    0.00 CofMax=   10.00 Det=-4.22D-15
 Inversion failed.  Reducing to 15 matrices.
 Coeff-Com: -0.553D-07-0.268D-06-0.163D-05 0.269D-05 0.172D-04 0.145D-04
 Coeff-Com: -0.271D-03-0.130D-03 0.119D-02 0.243D-02 0.150D-02-0.285D-01
 Coeff-Com: -0.210D-01 0.153D-02 0.104D+01
 Coeff:     -0.553D-07-0.268D-06-0.163D-05 0.269D-05 0.172D-04 0.145D-04
 Coeff:     -0.271D-03-0.130D-03 0.119D-02 0.243D-02 0.150D-02-0.285D-01
 Coeff:     -0.210D-01 0.153D-02 0.104D+01
 Gap=     0.248 Goal=   None    Shift=    0.000
 RMSDP=3.38D-09 MaxDP=2.26D-07 DE=-1.00D-11 OVMax= 6.82D-08

 SCF Done:  E(RwB97XD) =  -3010.52679006     A.U. after   19 cycles
            NFock= 19  Conv=0.34D-08     -V/T= 2.0016
 KE= 3.005860988240D+03 PE=-8.703099530078D+03 EE= 1.910525029887D+03
 Leave Link  502 at Thu May  2 14:18:24 2024, MaxMem=   134217728 cpu:            1188.0 elap:            1188.5
 (Enter /software/gaussian/g16-c01/sse4/g16/l601.exe)
 Copying SCF densities to generalized density rwf, IOpCl= 0 IROHF=0.

 **********************************************************************

            Population analysis using the SCF Density.

 **********************************************************************

 Alpha  occ. eigenvalues -- -483.33706 -62.88733 -56.68423 -56.67858 -56.67849
 Alpha  occ. eigenvalues --  -19.51014 -19.50959 -14.90299 -10.61896 -10.60672
 Alpha  occ. eigenvalues --  -10.59342 -10.58887 -10.56297 -10.54366  -9.04543
 Alpha  occ. eigenvalues --   -6.87213  -6.85358  -6.85331  -2.97119  -2.96630
 Alpha  occ. eigenvalues --   -2.96608  -2.95124  -2.95123  -1.54646  -1.37657
 Alpha  occ. eigenvalues --   -1.24969  -1.15367  -1.15055  -1.07386  -1.03242
 Alpha  occ. eigenvalues --   -0.97669  -0.93202  -0.88631  -0.84954  -0.83614
 Alpha  occ. eigenvalues --   -0.83141  -0.80470  -0.79831  -0.78134  -0.74368
 Alpha  occ. eigenvalues --   -0.70376  -0.69815  -0.65604  -0.62643  -0.61936
 Alpha  occ. eigenvalues --   -0.61484  -0.60800  -0.58896  -0.57348
 Alpha virt. eigenvalues --   -0.32585  -0.24036  -0.18292  -0.15842  -0.10841
 Alpha virt. eigenvalues --   -0.08226  -0.07552  -0.07133  -0.06190  -0.05041
 Alpha virt. eigenvalues --   -0.04343  -0.04235  -0.03793  -0.02867  -0.02250
 Alpha virt. eigenvalues --   -0.01865  -0.00829  -0.00252   0.00271   0.01094
 Alpha virt. eigenvalues --    0.01944   0.02531   0.03121   0.04097   0.04584
 Alpha virt. eigenvalues --    0.05091   0.05211   0.05908   0.06785   0.06958
 Alpha virt. eigenvalues --    0.07705   0.08306   0.08971   0.09363   0.09709
 Alpha virt. eigenvalues --    0.10017   0.10596   0.10793   0.12273   0.13669
 Alpha virt. eigenvalues --    0.14448   0.14871   0.15724   0.15995   0.17002
 Alpha virt. eigenvalues --    0.17400   0.18017   0.19035   0.19314   0.19492
 Alpha virt. eigenvalues --    0.20840   0.21826   0.24331   0.25851   0.28030
 Alpha virt. eigenvalues --    0.29108   0.29327   0.29929   0.31288   0.32346
 Alpha virt. eigenvalues --    0.34806   0.35224   0.37463   0.38385   0.39775
 Alpha virt. eigenvalues --    0.41521   0.41617   0.42960   0.44482   0.44812
 Alpha virt. eigenvalues --    0.45974   0.46733   0.48219   0.49714   0.50667
 Alpha virt. eigenvalues --    0.52778   0.53676   0.55334   0.56140   0.57974
 Alpha virt. eigenvalues --    0.59804   0.60047   0.61766   0.65032   0.66604
 Alpha virt. eigenvalues --    0.69259   0.69810   0.70621   0.71914   0.72720
 Alpha virt. eigenvalues --    0.72963   0.74935   0.76196   0.80549   0.82245
 Alpha virt. eigenvalues --    0.83687   0.84870   0.88294   0.91788   0.94643
 Alpha virt. eigenvalues --    0.96088   0.99083   1.01140   1.02993   1.04096
 Alpha virt. eigenvalues --    1.04847   1.08273   1.09190   1.09836   1.14032
 Alpha virt. eigenvalues --    1.16873   1.18350   1.25492   1.31029   1.34029
 Alpha virt. eigenvalues --    1.34676   1.36424   1.40815   1.52040   1.53335
 Alpha virt. eigenvalues --    1.54513   1.55985   1.58693   1.61271   1.63487
 Alpha virt. eigenvalues --    1.65084   1.69056   1.69868   1.73195   1.77059
 Alpha virt. eigenvalues --    1.82360   1.82952   1.84448   1.92241   1.93531
 Alpha virt. eigenvalues --    1.94559   1.99416   2.00252   2.04552   2.06530
 Alpha virt. eigenvalues --    2.10454   2.12370   2.19705   2.20711   2.25814
 Alpha virt. eigenvalues --    2.31307   2.36871   2.38224   2.41668   2.51136
 Alpha virt. eigenvalues --    2.55869   2.60547   2.63779   2.66250   2.67088
 Alpha virt. eigenvalues --    2.69851   2.71910   2.74581   2.76072   2.79594
 Alpha virt. eigenvalues --    2.90743   2.94755   2.97786   3.03116   3.06516
 Alpha virt. eigenvalues --    3.12460   3.14150   3.15776   3.18229   3.21877
 Alpha virt. eigenvalues --    3.25171   3.34369   3.44928   3.47239   3.50276
 Alpha virt. eigenvalues --    3.54576   3.64257   3.69583   3.81416   3.85031
 Alpha virt. eigenvalues --    4.07481   4.08340   4.16880   4.21039   4.39743
 Alpha virt. eigenvalues --    4.41396   4.52007   4.56041   4.88615   4.91409
 Alpha virt. eigenvalues --    5.00283   5.04760   5.57270   6.10255   6.65514
 Alpha virt. eigenvalues --    7.46363   7.48683   7.58811  23.20029  23.59044
 Alpha virt. eigenvalues --   23.69412  23.76090  23.93864  23.99610  35.26874
 Alpha virt. eigenvalues --   47.91616  49.80453  49.89115 289.79262 289.81602
 Alpha virt. eigenvalues --  289.942261020.92805
          Condensed to atoms (all electrons):
               1          2          3          4          5          6
     1  C    7.308473  -2.136839   0.646722   0.015771   0.295273   0.056431
     2  C   -2.136839  16.464749  -3.653182   0.469473  -0.022470   0.212030
     3  C    0.646722  -3.653182  18.159079  -1.126331   0.023211   0.111522
     4  C    0.015771   0.469473  -1.126331   6.261253   0.029493  -0.017489
     5  H    0.295273  -0.022470   0.023211   0.029493   0.313389  -0.001627
     6  H    0.056431   0.212030   0.111522  -0.017489  -0.001627   0.321625
     7  H    0.023173  -0.020749   0.015976   0.305023  -0.002302   0.000002
     8  N   -0.058382  -0.079845  -1.722156   0.007652  -0.000450  -0.030592
     9  O   -0.011936   0.278441  -0.064197  -0.011052  -0.000027  -0.002309
    10  O    0.227800  -0.194555  -0.247663  -0.022047  -0.000023   0.018304
    11  C    0.585312  -0.688328   1.792070  -0.153214  -0.023211   0.009698
    12  H   -0.011484   0.019923   0.002118   0.025794   0.000032  -0.000017
    13  C   -0.831611  -4.660274  -7.636238   0.544125   0.023891  -0.017753
    14  H   -0.002031   0.028513   0.093894   0.000966  -0.000031   0.000066
    15  Br   0.012229  -0.202188  -0.279323  -0.000836  -0.000003  -0.000702
               7          8          9         10         11         12
     1  C    0.023173  -0.058382  -0.011936   0.227800   0.585312  -0.011484
     2  C   -0.020749  -0.079845   0.278441  -0.194555  -0.688328   0.019923
     3  C    0.015976  -1.722156  -0.064197  -0.247663   1.792070   0.002118
     4  C    0.305023   0.007652  -0.011052  -0.022047  -0.153214   0.025794
     5  H   -0.002302  -0.000450  -0.000027  -0.000023  -0.023211   0.000032
     6  H    0.000002  -0.030592  -0.002309   0.018304   0.009698  -0.000017
     7  H    0.305872   0.000071  -0.000002   0.000002   0.026171  -0.001986
     8  N    0.000071   7.487237   0.121237   0.245990  -0.184413   0.000132
     9  O   -0.000002   0.121237   7.895642  -0.009560   0.203942   0.000127
    10  O    0.000002   0.245990  -0.009560   7.831972   0.009277  -0.000022
    11  C    0.026171  -0.184413   0.203942   0.009277   7.335328   0.317306
    12  H   -0.001986   0.000132   0.000127  -0.000022   0.317306   0.301873
    13  C   -0.017163   1.321151  -0.413110   0.104281  -3.087198  -0.026896
    14  H   -0.000023  -0.037100   0.012110  -0.001743  -0.019386  -0.004173
    15  Br  -0.000447   0.167239  -0.057727   0.005248   0.051450   0.001624
              13         14         15
     1  C   -0.831611  -0.002031   0.012229
     2  C   -4.660274   0.028513  -0.202188
     3  C   -7.636238   0.093894  -0.279323
     4  C    0.544125   0.000966  -0.000836
     5  H    0.023891  -0.000031  -0.000003
     6  H   -0.017753   0.000066  -0.000702
     7  H   -0.017163  -0.000023  -0.000447
     8  N    1.321151  -0.037100   0.167239
     9  O   -0.413110   0.012110  -0.057727
    10  O    0.104281  -0.001743   0.005248
    11  C   -3.087198  -0.019386   0.051450
    12  H   -0.026896  -0.004173   0.001624
    13  C   20.318382   0.234132   0.462161
    14  H    0.234132   0.338313  -0.045246
    15  Br   0.462161  -0.045246  34.718986
 Mulliken charges:
               1
     1  C   -0.118902
     2  C    0.185300
     3  C   -0.115501
     4  C   -0.328580
     5  H    0.364858
     6  H    0.340810
     7  H    0.366381
     8  N   -0.237771
     9  O    0.058420
    10  O    0.032739
    11  C   -0.174802
    12  H    0.375648
    13  C   -0.317879
    14  H    0.401742
    15  Br   0.167536
 Sum of Mulliken charges =   1.00000
 Mulliken charges with hydrogens summed into heavy atoms:
               1
     1  C    0.245956
     2  C    0.526110
     3  C   -0.115501
     4  C    0.037801
     8  N   -0.237771
     9  O    0.058420
    10  O    0.032739
    11  C    0.200846
    13  C    0.083863
    15  Br   0.167536
 Electronic spatial extent (au):  <R**2>=           3952.8484
 Charge=              1.0000 electrons
 Dipole moment (field-independent basis, Debye):
    X=              0.5945    Y=             -0.7928    Z=             -0.6429  Tot=              1.1812
 Quadrupole moment (field-independent basis, Debye-Ang):
   XX=            -76.4974   YY=            -51.2945   ZZ=            -62.4082
   XY=             -2.4192   XZ=             -1.9534   YZ=              2.2011
 Traceless Quadrupole moment (field-independent basis, Debye-Ang):
   XX=            -13.0974   YY=             12.1056   ZZ=              0.9918
   XY=             -2.4192   XZ=             -1.9534   YZ=              2.2011
 Octapole moment (field-independent basis, Debye-Ang**2):
  XXX=           -557.5054  YYY=             92.9178  ZZZ=             83.6537  XYY=           -141.6401
  XXY=             25.8903  XXZ=             27.5367  XZZ=           -135.3347  YZZ=             17.8085
  YYZ=             26.2636  XYZ=              6.6940
 Hexadecapole moment (field-independent basis, Debye-Ang**3):
 XXXX=          -3670.4605 YYYY=           -702.8747 ZZZZ=           -397.1734 XXXY=            182.2359
 XXXZ=            190.0363 YYYX=            188.9938 YYYZ=           -173.6597 ZZZX=            171.4760
 ZZZY=           -146.0009 XXYY=           -644.5432 XXZZ=           -536.7712 YYZZ=           -172.8787
 XXYZ=            -45.6080 YYXZ=             52.5567 ZZXY=             32.2360
 N-N= 7.761867218933D+02 E-N=-8.703099529828D+03  KE= 3.005860988240D+03
 No NMR shielding tensors so no spin-rotation constants.
 Leave Link  601 at Thu May  2 14:18:31 2024, MaxMem=   134217728 cpu:               7.4 elap:               7.4
 (Enter /software/gaussian/g16-c01/sse4/g16/l9999.exe)
 Unable to Open any file for archive entry.
 1\1\GINC-BHX0007\SP\RwB97XD\6-311+G(d)\C6H5Br1N1O2(1+)\BWEIGHT\02-May-
 2024\0\\#P wB97XD/6-311+G* NoSymm #P Field=X+77\\TitleMe\\1,1\C,0,0.51
 93,1.233,-0.0319\C,0,1.9445,1.2692,-0.0367\C,0,2.6204,0.0928,-0.025\C,
 0,-0.196,0.0301,0.001\H,0,-0.0207,2.1742,-0.0434\H,0,2.4828,2.2089,-0.
 0361\H,0,-1.2777,0.0399,0.0117\N,0,4.0921,0.0959,0.0366\O,0,4.6393,-1.
 0217,0.1446\O,0,4.6649,1.1984,-0.0233\C,0,0.4943,-1.1671,0.021\H,0,-0.
 0325,-2.1149,0.0545\C,0,1.9629,-1.2165,-0.0211\H,0,2.4436,-1.9631,0.61
 51\Br,0,2.173,-1.9491,-1.9062\\Version=ES64L-G16RevC.01\HF=-3010.52679
 01\RMSD=3.375e-09\Dipole=-4.0953325,0.9162169,0.9962928\Quadrupole=-9.
 7375666,9.0001841,0.7373824,-1.7986159,-1.4523153,1.6364925\PG=C01 [X(
 C6H5Br1N1O2)]\\@
 The archive entry for this job was punched.


 A COMPLEXITY IS MERELY A DISARRANGEMENT OF SIMPLICITIES.

                                    -- G. O. ABELL IN "EXPLORATION OF THE UNIVERSE"
 Job cpu time:       0 days  0 hours 20 minutes 59.2 seconds.
 Elapsed time:       0 days  0 hours 20 minutes 59.8 seconds.
 File lengths (MBytes):  RWF=     40 Int=      0 D2E=      0 Chk=     32 Scr=      1
 Normal termination of Gaussian 16 at Thu May  2 14:18:32 2024.
