 Entering Gaussian System, Link 0=g16
 Initial command:
 /software/gaussian/g16-c01/sse4/g16/l1.exe "/local_scratch/24657436/Gau-22820.inp" -scrdir="/local_scratch/24657436/"
 Entering Link 1 = /software/gaussian/g16-c01/sse4/g16/l1.exe PID=     22823.
  
 Copyright (c) 1988-2019, Gaussian, Inc.  All Rights Reserved.
  
 This is part of the Gaussian(R) 16 program.  It is based on
 the Gaussian(R) 09 system (copyright 2009, Gaussian, Inc.),
 the Gaussian(R) 03 system (copyright 2003, Gaussian, Inc.),
 the Gaussian(R) 98 system (copyright 1998, Gaussian, Inc.),
 the Gaussian(R) 94 system (copyright 1995, Gaussian, Inc.),
 the Gaussian 92(TM) system (copyright 1992, Gaussian, Inc.),
 the Gaussian 90(TM) system (copyright 1990, Gaussian, Inc.),
 the Gaussian 88(TM) system (copyright 1988, Gaussian, Inc.),
 the Gaussian 86(TM) system (copyright 1986, Carnegie Mellon
 University), and the Gaussian 82(TM) system (copyright 1983,
 Carnegie Mellon University). Gaussian is a federally registered
 trademark of Gaussian, Inc.
  
 This software contains proprietary and confidential information,
 including trade secrets, belonging to Gaussian, Inc.
  
 This software is provided under written license and may be
 used, copied, transmitted, or stored only in accord with that
 written license.
  
 The following legend is applicable only to US Government
 contracts under FAR:
  
                    RESTRICTED RIGHTS LEGEND
  
 Use, reproduction and disclosure by the US Government is
 subject to restrictions as set forth in subparagraphs (a)
 and (c) of the Commercial Computer Software - Restricted
 Rights clause in FAR 52.227-19.
  
 Gaussian, Inc.
 340 Quinnipiac St., Bldg. 40, Wallingford CT 06492
  
  
 ---------------------------------------------------------------
 Warning -- This program may not be used in any manner that
 competes with the business of Gaussian, Inc. or will provide
 assistance to any competitor of Gaussian, Inc.  The licensee
 of this program is prohibited from giving any competitor of
 Gaussian, Inc. access to this program.  By using this program,
 the user acknowledges that Gaussian, Inc. is engaged in the
 business of creating and licensing software in the field of
 computational chemistry and represents and warrants to the
 licensee that it is not a competitor of Gaussian, Inc. and that
 it will not use this program in any manner prohibited above.
 ---------------------------------------------------------------
  

 Cite this work as:
 Gaussian 16, Revision C.01,
 M. J. Frisch, G. W. Trucks, H. B. Schlegel, G. E. Scuseria, 
 M. A. Robb, J. R. Cheeseman, G. Scalmani, V. Barone, 
 G. A. Petersson, H. Nakatsuji, X. Li, M. Caricato, A. V. Marenich, 
 J. Bloino, B. G. Janesko, R. Gomperts, B. Mennucci, H. P. Hratchian, 
 J. V. Ortiz, A. F. Izmaylov, J. L. Sonnenberg, D. Williams-Young, 
 F. Ding, F. Lipparini, F. Egidi, J. Goings, B. Peng, A. Petrone, 
 T. Henderson, D. Ranasinghe, V. G. Zakrzewski, J. Gao, N. Rega, 
 G. Zheng, W. Liang, M. Hada, M. Ehara, K. Toyota, R. Fukuda, 
 J. Hasegawa, M. Ishida, T. Nakajima, Y. Honda, O. Kitao, H. Nakai, 
 T. Vreven, K. Throssell, J. A. Montgomery, Jr., J. E. Peralta, 
 F. Ogliaro, M. J. Bearpark, J. J. Heyd, E. N. Brothers, K. N. Kudin, 
 V. N. Staroverov, T. A. Keith, R. Kobayashi, J. Normand, 
 K. Raghavachari, A. P. Rendell, J. C. Burant, S. S. Iyengar, 
 J. Tomasi, M. Cossi, J. M. Millam, M. Klene, C. Adamo, R. Cammi, 
 J. W. Ochterski, R. L. Martin, K. Morokuma, O. Farkas, 
 J. B. Foresman, and D. J. Fox, Gaussian, Inc., Wallingford CT, 2019.
 
 ******************************************
 Gaussian 16:  ES64L-G16RevC.01  3-Jul-2019
                 1-May-2024 
 ******************************************
 %chk=geometry.chk
 %mem=9GB
 %nprocshared=12
 Will use up to   12 processors via shared memory.
 ---------------------------------------
 #P wB97XD/6-311+G* NoSymm #P Field=X-48
 ---------------------------------------
 1/38=1,172=1/1;
 2/12=2,15=1,17=6,18=5,40=1/2;
 3/5=4,6=6,7=11,11=2,14=1,15=-48,25=1,30=1,74=-58/1,2,3;
 4//1;
 5/5=2,38=5/2;
 6/7=2,8=2,9=2,10=2,28=1/1;
 99/5=1,9=1/99;
 Leave Link    1 at Wed May  1 14:27:44 2024, MaxMem=  1207959552 cpu:               1.5 elap:               1.5
 (Enter /software/gaussian/g16-c01/sse4/g16/l101.exe)
 -------
 TitleMe
 -------
 Symbolic Z-matrix:
 Charge =  1 Multiplicity = 1
 C                     0.0295    1.3397    0.0682 
 C                     1.4348    1.2867    0.0064 
 C                     2.1118    0.0511   -0.0054 
 C                     1.4451   -1.1372    0.0312 
 C                    -0.6879    0.1682    0.11 
 H                    -0.4713    2.2984    0.0781 
 H                     2.0273    2.1965   -0.0322 
 H                     1.9897   -2.0764    0.0232 
 H                    -1.7716    0.1804    0.1582 
 N                     3.5864    0.051    -0.0675 
 O                     4.1471   -1.0597   -0.0881 
 O                     4.145     1.1639   -0.0901 
 C                    -0.0236   -1.1458    0.0835 
 H                    -0.4367   -1.8725    0.7889 
 Br                   -0.5359   -1.8697   -1.7408 
 
 ITRead=  0  0  0  0  0  0  0  0  0  0  0  0  0  0  0
 MicOpt= -1 -1 -1 -1 -1 -1 -1 -1 -1 -1 -1 -1 -1 -1 -1
 NAtoms=     15 NQM=       15 NQMF=       0 NMMI=      0 NMMIF=      0
                NMic=       0 NMicF=      0.
                    Isotopes and Nuclear Properties:
 (Nuclear quadrupole moments (NQMom) in fm**2, nuclear magnetic moments (NMagM)
  in nuclear magnetons)

  Atom         1           2           3           4           5           6           7           8           9          10
 IAtWgt=          12          12          12          12          12           1           1           1           1          14
 AtmWgt=  12.0000000  12.0000000  12.0000000  12.0000000  12.0000000   1.0078250   1.0078250   1.0078250   1.0078250  14.0030740
 NucSpn=           0           0           0           0           0           1           1           1           1           2
 AtZEff=  -0.0000000  -0.0000000  -0.0000000  -0.0000000  -0.0000000  -0.0000000  -0.0000000  -0.0000000  -0.0000000  -0.0000000
 NQMom=    0.0000000   0.0000000   0.0000000   0.0000000   0.0000000   0.0000000   0.0000000   0.0000000   0.0000000   2.0440000
 NMagM=    0.0000000   0.0000000   0.0000000   0.0000000   0.0000000   2.7928460   2.7928460   2.7928460   2.7928460   0.4037610
 AtZNuc=   6.0000000   6.0000000   6.0000000   6.0000000   6.0000000   1.0000000   1.0000000   1.0000000   1.0000000   7.0000000

  Atom        11          12          13          14          15
 IAtWgt=          16          16          12           1          79
 AtmWgt=  15.9949146  15.9949146  12.0000000   1.0078250  78.9183361
 NucSpn=           0           0           0           1           3
 AtZEff=  -0.0000000  -0.0000000  -0.0000000  -0.0000000  -0.0000000
 NQMom=    0.0000000   0.0000000   0.0000000   0.0000000  31.3000000
 NMagM=    0.0000000   0.0000000   0.0000000   2.7928460   2.1063990
 AtZNuc=   8.0000000   8.0000000   6.0000000   1.0000000  35.0000000
 Leave Link  101 at Wed May  1 14:27:45 2024, MaxMem=  1207959552 cpu:               1.3 elap:               1.3
 (Enter /software/gaussian/g16-c01/sse4/g16/l202.exe)
                          Input orientation:                          
 ---------------------------------------------------------------------
 Center     Atomic      Atomic             Coordinates (Angstroms)
 Number     Number       Type             X           Y           Z
 ---------------------------------------------------------------------
      1          6           0        0.029500    1.339700    0.068200
      2          6           0        1.434800    1.286700    0.006400
      3          6           0        2.111800    0.051100   -0.005400
      4          6           0        1.445100   -1.137200    0.031200
      5          6           0       -0.687900    0.168200    0.110000
      6          1           0       -0.471300    2.298400    0.078100
      7          1           0        2.027300    2.196500   -0.032200
      8          1           0        1.989700   -2.076400    0.023200
      9          1           0       -1.771600    0.180400    0.158200
     10          7           0        3.586400    0.051000   -0.067500
     11          8           0        4.147100   -1.059700   -0.088100
     12          8           0        4.145000    1.163900   -0.090100
     13          6           0       -0.023600   -1.145800    0.083500
     14          1           0       -0.436700   -1.872500    0.788900
     15         35           0       -0.535900   -1.869700   -1.740800
 ---------------------------------------------------------------------
                    Distance matrix (angstroms):
                    1          2          3          4          5
     1  C    0.000000
     2  C    1.407656   0.000000
     3  C    2.449874   1.408963   0.000000
     4  C    2.853126   2.424049   1.363043   0.000000
     5  C    1.374344   2.401589   2.804523   2.501993   0.000000
     6  H    1.081667   2.159142   3.424870   3.934226   2.141421
     7  H    2.176095   1.086408   2.147231   3.384750   3.392128
     8  H    3.938800   3.408612   2.131193   1.085702   3.495040
     9  H    2.143837   3.395283   3.888995   3.478413   1.084840
    10  N    3.785591   2.482297   1.475907   2.450862   4.279589
    11  O    4.768247   3.587631   2.320164   2.705743   4.992415
    12  O    4.122294   2.714696   2.319353   3.549540   4.938459
    13  C    2.486114   2.837240   2.449573   1.469656   1.472614
    14  H    3.324903   3.754379   3.290289   2.157764   2.165286
    15  Br   3.727252   4.110867   3.702891   2.756973   2.757100
                    6          7          8          9         10
     6  H    0.000000
     7  H    2.503108   0.000000
     8  H    5.019802   4.273425   0.000000
     9  H    2.486588   4.304945   4.388479   0.000000
    10  N    4.640790   2.652397   2.661486   5.364313   0.000000
    11  O    5.712624   3.885809   2.387560   6.052233   1.244373
    12  O    4.756638   2.356750   3.893289   6.002923   1.245428
    13  C    3.473180   3.923079   2.218790   2.195425   3.806210
    14  H    4.231175   4.827242   2.552506   2.528663   4.540772
    15  Br   4.548146   5.101303   3.087568   3.055498   4.845862
                   11         12         13         14         15
    11  O    0.000000
    12  O    2.223602   0.000000
    13  C    4.175117   4.768865   0.000000
    14  H    4.737193   5.566358   1.093770   0.000000
    15  Br   5.031700   5.817075   2.028436   2.531646   0.000000
 Symmetry turned off by external request.
 Stoichiometry    C6H5BrNO2(1+)
 Framework group  C1[X(C6H5BrNO2)]
 Deg. of freedom    39
 Full point group                 C1      NOp   1
 Rotational constants (GHZ):           1.8252210           0.5518633           0.4576002
 Leave Link  202 at Wed May  1 14:27:47 2024, MaxMem=  1207959552 cpu:               1.2 elap:               1.2
 (Enter /software/gaussian/g16-c01/sse4/g16/l301.exe)
 Standard basis: 6-311+G(d) (5D, 7F)
 Ernie: Thresh=  0.10000D-02 Tol=  0.10000D-05 Strict=F.
 The following finite field(s) will be applied:
 An electric field of             -0.0048  0.0000  0.0000
   261 basis functions,   443 primitive gaussians,   273 cartesian basis functions
    49 alpha electrons       49 beta electrons
       nuclear repulsion energy       739.2122215416 Hartrees.
 IExCor= 4639 DFT=T Ex+Corr=wB97XD ExCW=0 ScaHFX=  1.000000
 ScaDFX=  1.000000  1.000000  1.000000  1.000000 ScalE2=  1.000000  1.000000
 IRadAn=      5 IRanWt=     -1 IRanGd=            0 ICorTp=0 IEmpDi=121
 HFx  wShort=  0.000000 wLong=  0.200000 cFull=  0.222036 cShort=  0.000000 cLong=  0.777964
 DFx  wShort=  0.000000 wLong=  0.200000 cFull=  0.000000 cShort=  0.000000 cLong=  1.000000
 NAtoms=   15 NActive=   15 NUniq=   15 SFac= 1.00D+00 NAtFMM=   60 NAOKFM=F Big=F
 Integral buffers will be    131072 words long.
 Raffenetti 2 integral format.
 Two-electron integral symmetry is turned off.
 R6Disp:  Grimme-D2 Dispersion energy=       -0.0077368520 Hartrees.
 Nuclear repulsion after empirical dispersion term =      739.2044846896 Hartrees.
 Leave Link  301 at Wed May  1 14:27:48 2024, MaxMem=  1207959552 cpu:               0.9 elap:               1.0
 (Enter /software/gaussian/g16-c01/sse4/g16/l302.exe)
 NPDir=0 NMtPBC=     1 NCelOv=     1 NCel=       1 NClECP=     1 NCelD=      1
         NCelK=      1 NCelE2=     1 NClLst=     1 CellRange=     0.0.
 One-electron integrals computed using PRISM.
 NBasis=   261 RedAO= T EigKep=  2.35D-06  NBF=   261
 NBsUse=   261 1.00D-06 EigRej= -1.00D+00 NBFU=   261
 Precomputing XC quadrature grid using
 IXCGrd= 4 IRadAn=           5 IRanWt=          -1 IRanGd=           0 AccXCQ= 0.00D+00.
 Generated NRdTot=       0 NPtTot=           0 NUsed=           0 NTot=          32
 NSgBfM=   273   273   273   273   273 MxSgAt=    15 MxSgA2=    15.
 Leave Link  302 at Wed May  1 14:28:10 2024, MaxMem=  1207959552 cpu:              21.5 elap:              21.5
 (Enter /software/gaussian/g16-c01/sse4/g16/l303.exe)
 DipDrv:  MaxL=1.
 The nuclear repulsion energy is now       738.2984982825 hartrees.
 Leave Link  303 at Wed May  1 14:28:13 2024, MaxMem=  1207959552 cpu:               3.3 elap:               3.3
 (Enter /software/gaussian/g16-c01/sse4/g16/l401.exe)
 ExpMin= 3.50D-02 ExpMax= 4.40D+05 ExpMxC= 1.51D+04 IAcc=3 IRadAn=         5 AccDes= 0.00D+00
 Harris functional with IExCor= 4639 and IRadAn=       5 diagonalized for initial guess.
 HarFok:  IExCor= 4639 AccDes= 0.00D+00 IRadAn=         5 IDoV= 1 UseB2=F ITyADJ=14
 ICtDFT=  3500011 ScaDFX=  1.000000  1.000000  1.000000  1.000000
 FoFCou: FMM=F IPFlag=           0 FMFlag=      100000 FMFlg1=           0
         NFxFlg=           0 DoJE=T BraDBF=F KetDBF=T FulRan=T
         wScrn=  0.000000 ICntrl=       500 IOpCl=  0 I1Cent=   200000004 NGrid=           0
         NMat0=    1 NMatS0=      1 NMatT0=    0 NMatD0=    1 NMtDS0=    0 NMtDT0=    0
 Symmetry not used in FoFCou.
 Harris En= -2970.60239587614    
 JPrj=0 DoOrth=F DoCkMO=F.
 Leave Link  401 at Wed May  1 14:28:43 2024, MaxMem=  1207959552 cpu:              29.7 elap:              29.7
 (Enter /software/gaussian/g16-c01/sse4/g16/l502.exe)
 Two-electron integral symmetry not used.
 Closed shell SCF:
 Using DIIS extrapolation, IDIIS=  1040.
 NGot=  1207959552 LenX=  1207804877 LenY=  1207729907
 Requested convergence on RMS density matrix=1.00D-08 within 128 cycles.
 Requested convergence on MAX density matrix=1.00D-06.
 Requested convergence on             energy=1.00D-06.
 No special actions if energy rises.
 Fock matrices will be formed incrementally for  20 cycles.

 Cycle   1  Pass 1  IDiag  1:
 FoFJK:  IHMeth= 1 ICntrl=       0 DoSepK=T KAlg= 0 I1Cent=           0 FoldK=F
 IRaf=         1 NMat=       1 IRICut=       1 DoRegI=T DoRafI=F ISym2E= 0 IDoP0=0 IntGTp=1.
 FoFCou: FMM=F IPFlag=           0 FMFlag=      100000 FMFlg1=           0
         NFxFlg=           0 DoJE=T BraDBF=F KetDBF=F FulRan=T
         wScrn=  0.000000 ICntrl=       500 IOpCl=  0 I1Cent=           0 NGrid=           0
         NMat0=    1 NMatS0=      1 NMatT0=    0 NMatD0=    1 NMtDS0=    0 NMtDT0=    0
 Symmetry not used in FoFCou.
 E= -3009.04337030384    
 DIIS: error= 3.20D-01 at cycle   1 NSaved=   1.
 NSaved= 1 IEnMin= 1 EnMin= -3009.04337030384     IErMin= 1 ErrMin= 3.20D-01
 ErrMax= 3.20D-01  0.00D+00 EMaxC= 1.00D-01 BMatC= 1.22D+01 BMatP= 1.22D+01
 IDIUse=3 WtCom= 0.00D+00 WtEn= 1.00D+00
 Coeff-Com:  0.100D+01
 Coeff-En:   0.100D+01
 Coeff:      0.100D+01
 Gap=    -0.141 Goal=   None    Shift=    0.000
 GapD=   -0.141 DampG=0.250 DampE=0.250 DampFc=0.2500 IDamp=-1.
 Damping current iteration by 2.50D-01
 RMSDP=4.39D-02 MaxDP=3.21D+00              OVMax= 9.78D-01

 Cycle   2  Pass 1  IDiag  1:
 RMSU=  9.79D-03    CP:  9.45D-01
 E= -3009.23074719840     Delta-E=       -0.187376894559 Rises=F Damp=T
 DIIS: error= 2.25D-01 at cycle   2 NSaved=   2.
 NSaved= 2 IEnMin= 2 EnMin= -3009.23074719840     IErMin= 2 ErrMin= 2.25D-01
 ErrMax= 2.25D-01  0.00D+00 EMaxC= 1.00D-01 BMatC= 5.47D+00 BMatP= 1.22D+01
 IDIUse=3 WtCom= 0.00D+00 WtEn= 1.00D+00
 Coeff-Com: -0.129D+01 0.229D+01
 Coeff-En:   0.372D+00 0.628D+00
 Coeff:      0.372D+00 0.628D+00
 Gap=     0.024 Goal=   None    Shift=    0.000
 RMSDP=3.33D-02 MaxDP=3.00D+00 DE=-1.87D-01 OVMax= 9.52D-01

 Cycle   3  Pass 1  IDiag  1:
 RMSU=  1.34D-02    CP:  6.06D-01  1.38D+00
 E= -3010.15051638362     Delta-E=       -0.919769185221 Rises=F Damp=F
 DIIS: error= 8.56D-02 at cycle   3 NSaved=   3.
 NSaved= 3 IEnMin= 3 EnMin= -3010.15051638362     IErMin= 3 ErrMin= 8.56D-02
 ErrMax= 8.56D-02  0.00D+00 EMaxC= 1.00D-01 BMatC= 1.37D+00 BMatP= 5.47D+00
 IDIUse=3 WtCom= 1.44D-01 WtEn= 8.56D-01
 Coeff-Com:  0.357D+00-0.201D+00 0.843D+00
 Coeff-En:   0.150D+00 0.000D+00 0.850D+00
 Coeff:      0.180D+00-0.289D-01 0.849D+00
 Gap=     0.420 Goal=   None    Shift=    0.000
 RMSDP=1.28D-02 MaxDP=5.70D-01 DE=-9.20D-01 OVMax= 2.03D-01

 Cycle   4  Pass 1  IDiag  1:
 RMSU=  9.78D-03    CP:  6.28D-01  5.64D-01  9.57D-01
 E= -3010.38197744524     Delta-E=       -0.231461061614 Rises=F Damp=F
 DIIS: error= 4.63D-02 at cycle   4 NSaved=   4.
 NSaved= 4 IEnMin= 4 EnMin= -3010.38197744524     IErMin= 4 ErrMin= 4.63D-02
 ErrMax= 4.63D-02  0.00D+00 EMaxC= 1.00D-01 BMatC= 4.31D-01 BMatP= 1.37D+00
 IDIUse=3 WtCom= 5.37D-01 WtEn= 4.63D-01
 Coeff-Com:  0.679D-01-0.620D-01 0.396D+00 0.598D+00
 Coeff-En:   0.000D+00 0.000D+00 0.246D+00 0.754D+00
 Coeff:      0.365D-01-0.333D-01 0.327D+00 0.670D+00
 Gap=     0.244 Goal=   None    Shift=    0.000
 RMSDP=1.01D-02 MaxDP=7.43D-01 DE=-2.31D-01 OVMax= 1.30D-01

 Cycle   5  Pass 1  IDiag  1:
 RMSU=  4.63D-03    CP:  5.52D-01  9.15D-01  1.02D+00  5.12D-01
 E= -3010.50554543877     Delta-E=       -0.123567993529 Rises=F Damp=F
 DIIS: error= 1.64D-02 at cycle   5 NSaved=   5.
 NSaved= 5 IEnMin= 5 EnMin= -3010.50554543877     IErMin= 5 ErrMin= 1.64D-02
 ErrMax= 1.64D-02  0.00D+00 EMaxC= 1.00D-01 BMatC= 3.82D-02 BMatP= 4.31D-01
 IDIUse=3 WtCom= 8.36D-01 WtEn= 1.64D-01
 Coeff-Com:  0.135D-01-0.128D-01 0.161D+00 0.365D+00 0.473D+00
 Coeff-En:   0.000D+00 0.000D+00 0.000D+00 0.702D-01 0.930D+00
 Coeff:      0.113D-01-0.107D-01 0.135D+00 0.317D+00 0.548D+00
 Gap=     0.225 Goal=   None    Shift=    0.000
 RMSDP=3.95D-03 MaxDP=1.92D-01 DE=-1.24D-01 OVMax= 3.60D-02

 Cycle   6  Pass 1  IDiag  1:
 RMSU=  1.77D-03    CP:  5.68D-01  7.62D-01  1.01D+00  7.44D-01  6.25D-01
 E= -3010.53018628971     Delta-E=       -0.024640850947 Rises=F Damp=F
 DIIS: error= 5.06D-03 at cycle   6 NSaved=   6.
 NSaved= 6 IEnMin= 6 EnMin= -3010.53018628971     IErMin= 6 ErrMin= 5.06D-03
 ErrMax= 5.06D-03  0.00D+00 EMaxC= 1.00D-01 BMatC= 3.41D-03 BMatP= 3.82D-02
 IDIUse=3 WtCom= 9.49D-01 WtEn= 5.06D-02
 Coeff-Com: -0.982D-02 0.111D-01-0.267D-01 0.799D-02 0.277D+00 0.740D+00
 Coeff-En:   0.000D+00 0.000D+00 0.000D+00 0.000D+00 0.000D+00 0.100D+01
 Coeff:     -0.932D-02 0.105D-01-0.253D-01 0.758D-02 0.263D+00 0.753D+00
 Gap=     0.233 Goal=   None    Shift=    0.000
 RMSDP=1.50D-03 MaxDP=9.96D-02 DE=-2.46D-02 OVMax= 4.42D-02

 Cycle   7  Pass 1  IDiag  1:
 RMSU=  4.95D-04    CP:  5.57D-01  7.67D-01  1.00D+00  7.22D-01  8.08D-01
                    CP:  1.32D+00
 E= -3010.53400206610     Delta-E=       -0.003815776389 Rises=F Damp=F
 DIIS: error= 1.07D-03 at cycle   7 NSaved=   7.
 NSaved= 7 IEnMin= 7 EnMin= -3010.53400206610     IErMin= 7 ErrMin= 1.07D-03
 ErrMax= 1.07D-03  0.00D+00 EMaxC= 1.00D-01 BMatC= 2.61D-04 BMatP= 3.41D-03
 IDIUse=3 WtCom= 9.89D-01 WtEn= 1.07D-02
 Coeff-Com: -0.126D-01 0.156D-01-0.308D-01-0.394D-01 0.461D-01 0.300D+00
 Coeff-Com:  0.721D+00
 Coeff-En:   0.000D+00 0.000D+00 0.000D+00 0.000D+00 0.000D+00 0.000D+00
 Coeff-En:   0.100D+01
 Coeff:     -0.125D-01 0.155D-01-0.305D-01-0.390D-01 0.456D-01 0.297D+00
 Coeff:      0.724D+00
 Gap=     0.236 Goal=   None    Shift=    0.000
 RMSDP=4.98D-04 MaxDP=3.08D-02 DE=-3.82D-03 OVMax= 2.43D-02

 Cycle   8  Pass 1  IDiag  1:
 RMSU=  2.98D-04    CP:  5.57D-01  7.86D-01  1.01D+00  7.19D-01  8.64D-01
                    CP:  1.45D+00  1.04D+00
 E= -3010.53473048055     Delta-E=       -0.000728414449 Rises=F Damp=F
 DIIS: error= 6.01D-04 at cycle   8 NSaved=   8.
 NSaved= 8 IEnMin= 8 EnMin= -3010.53473048055     IErMin= 8 ErrMin= 6.01D-04
 ErrMax= 6.01D-04  0.00D+00 EMaxC= 1.00D-01 BMatC= 7.27D-05 BMatP= 2.61D-04
 IDIUse=3 WtCom= 9.94D-01 WtEn= 6.01D-03
 Coeff-Com: -0.925D-02 0.123D-01-0.770D-02-0.110D-01-0.218D-01-0.186D-01
 Coeff-Com:  0.285D+00 0.771D+00
 Coeff-En:   0.000D+00 0.000D+00 0.000D+00 0.000D+00 0.000D+00 0.000D+00
 Coeff-En:   0.000D+00 0.100D+01
 Coeff:     -0.920D-02 0.123D-01-0.765D-02-0.110D-01-0.217D-01-0.185D-01
 Coeff:      0.283D+00 0.772D+00
 Gap=     0.238 Goal=   None    Shift=    0.000
 RMSDP=3.47D-04 MaxDP=2.22D-02 DE=-7.28D-04 OVMax= 1.64D-02

 Cycle   9  Pass 1  IDiag  1:
 RMSU=  1.30D-04    CP:  5.56D-01  7.99D-01  1.01D+00  7.11D-01  8.99D-01
                    CP:  1.52D+00  1.26D+00  1.50D+00
 E= -3010.53497902405     Delta-E=       -0.000248543499 Rises=F Damp=F
 DIIS: error= 5.59D-04 at cycle   9 NSaved=   9.
 NSaved= 9 IEnMin= 9 EnMin= -3010.53497902405     IErMin= 9 ErrMin= 5.59D-04
 ErrMax= 5.59D-04  0.00D+00 EMaxC= 1.00D-01 BMatC= 4.27D-05 BMatP= 7.27D-05
 IDIUse=3 WtCom= 9.94D-01 WtEn= 5.59D-03
 Coeff-Com: -0.635D-02 0.885D-02 0.261D-02 0.525D-02-0.264D-01-0.990D-01
 Coeff-Com: -0.798D-04 0.538D+00 0.578D+00
 Coeff-En:   0.000D+00 0.000D+00 0.000D+00 0.000D+00 0.000D+00 0.000D+00
 Coeff-En:   0.000D+00 0.000D+00 0.100D+01
 Coeff:     -0.631D-02 0.880D-02 0.260D-02 0.522D-02-0.263D-01-0.984D-01
 Coeff:     -0.793D-04 0.535D+00 0.580D+00
 Gap=     0.239 Goal=   None    Shift=    0.000
 RMSDP=2.11D-04 MaxDP=1.11D-02 DE=-2.49D-04 OVMax= 9.94D-03

 Cycle  10  Pass 1  IDiag  1:
 RMSU=  8.32D-05    CP:  5.56D-01  8.05D-01  1.01D+00  7.04D-01  9.16D-01
                    CP:  1.57D+00  1.37D+00  1.87D+00  1.28D+00
 E= -3010.53507992082     Delta-E=       -0.000100896767 Rises=F Damp=F
 DIIS: error= 2.28D-04 at cycle  10 NSaved=  10.
 NSaved=10 IEnMin=10 EnMin= -3010.53507992082     IErMin=10 ErrMin= 2.28D-04
 ErrMax= 2.28D-04  0.00D+00 EMaxC= 1.00D-01 BMatC= 1.26D-05 BMatP= 4.27D-05
 IDIUse=3 WtCom= 9.98D-01 WtEn= 2.28D-03
 Coeff-Com: -0.321D-02 0.446D-02 0.252D-02 0.756D-02 0.119D-02-0.246D-01
 Coeff-Com: -0.995D-01-0.701D-01 0.256D+00 0.925D+00
 Coeff-En:   0.000D+00 0.000D+00 0.000D+00 0.000D+00 0.000D+00 0.000D+00
 Coeff-En:   0.000D+00 0.000D+00 0.000D+00 0.100D+01
 Coeff:     -0.320D-02 0.445D-02 0.252D-02 0.754D-02 0.118D-02-0.245D-01
 Coeff:     -0.993D-01-0.699D-01 0.256D+00 0.925D+00
 Gap=     0.240 Goal=   None    Shift=    0.000
 RMSDP=1.71D-04 MaxDP=8.87D-03 DE=-1.01D-04 OVMax= 7.91D-03

 Cycle  11  Pass 1  IDiag  1:
 RMSU=  2.63D-05    CP:  5.55D-01  8.12D-01  1.01D+00  6.99D-01  9.31D-01
                    CP:  1.59D+00  1.45D+00  2.18D+00  1.71D+00  1.36D+00
 E= -3010.53512060069     Delta-E=       -0.000040679875 Rises=F Damp=F
 DIIS: error= 9.05D-05 at cycle  11 NSaved=  11.
 NSaved=11 IEnMin=11 EnMin= -3010.53512060069     IErMin=11 ErrMin= 9.05D-05
 ErrMax= 9.05D-05  0.00D+00 EMaxC= 1.00D-01 BMatC= 2.49D-06 BMatP= 1.26D-05
 IDIUse=1 WtCom= 1.00D+00 WtEn= 0.00D+00
 Coeff-Com: -0.926D-03 0.121D-02-0.314D-03 0.199D-02 0.101D-01 0.258D-01
 Coeff-Com: -0.327D-01-0.185D+00-0.820D-01 0.318D+00 0.944D+00
 Coeff:     -0.926D-03 0.121D-02-0.314D-03 0.199D-02 0.101D-01 0.258D-01
 Coeff:     -0.327D-01-0.185D+00-0.820D-01 0.318D+00 0.944D+00
 Gap=     0.240 Goal=   None    Shift=    0.000
 RMSDP=9.01D-05 MaxDP=5.00D-03 DE=-4.07D-05 OVMax= 3.85D-03

 Cycle  12  Pass 1  IDiag  1:
 RMSU=  1.75D-05    CP:  5.55D-01  8.16D-01  1.01D+00  6.96D-01  9.39D-01
                    CP:  1.60D+00  1.48D+00  2.34D+00  1.94D+00  1.58D+00
                    CP:  1.13D+00
 E= -3010.53512888835     Delta-E=       -0.000008287658 Rises=F Damp=F
 DIIS: error= 4.15D-05 at cycle  12 NSaved=  12.
 NSaved=12 IEnMin=12 EnMin= -3010.53512888835     IErMin=12 ErrMin= 4.15D-05
 ErrMax= 4.15D-05  0.00D+00 EMaxC= 1.00D-01 BMatC= 1.73D-07 BMatP= 2.49D-06
 IDIUse=1 WtCom= 1.00D+00 WtEn= 0.00D+00
 Coeff-Com: -0.596D-04 0.563D-04-0.416D-03-0.437D-03 0.146D-02 0.825D-02
 Coeff-Com:  0.654D-02-0.241D-01-0.553D-01-0.764D-01 0.242D+00 0.899D+00
 Coeff:     -0.596D-04 0.563D-04-0.416D-03-0.437D-03 0.146D-02 0.825D-02
 Coeff:      0.654D-02-0.241D-01-0.553D-01-0.764D-01 0.242D+00 0.899D+00
 Gap=     0.241 Goal=   None    Shift=    0.000
 RMSDP=2.23D-05 MaxDP=1.47D-03 DE=-8.29D-06 OVMax= 9.93D-04

 Cycle  13  Pass 1  IDiag  1:
 RMSU=  4.95D-06    CP:  5.55D-01  8.16D-01  1.01D+00  6.96D-01  9.41D-01
                    CP:  1.60D+00  1.49D+00  2.37D+00  1.97D+00  1.66D+00
                    CP:  1.30D+00  1.06D+00
 E= -3010.53512952901     Delta-E=       -0.000000640663 Rises=F Damp=F
 DIIS: error= 1.10D-05 at cycle  13 NSaved=  13.
 NSaved=13 IEnMin=13 EnMin= -3010.53512952901     IErMin=13 ErrMin= 1.10D-05
 ErrMax= 1.10D-05  0.00D+00 EMaxC= 1.00D-01 BMatC= 3.40D-08 BMatP= 1.73D-07
 IDIUse=1 WtCom= 1.00D+00 WtEn= 0.00D+00
 Coeff-Com:  0.658D-04-0.948D-04-0.153D-03-0.517D-03-0.102D-02-0.351D-03
 Coeff-Com:  0.723D-02 0.185D-01-0.942D-02-0.785D-01-0.157D-01 0.391D+00
 Coeff-Com:  0.689D+00
 Coeff:      0.658D-04-0.948D-04-0.153D-03-0.517D-03-0.102D-02-0.351D-03
 Coeff:      0.723D-02 0.185D-01-0.942D-02-0.785D-01-0.157D-01 0.391D+00
 Coeff:      0.689D+00
 Gap=     0.240 Goal=   None    Shift=    0.000
 RMSDP=4.68D-06 MaxDP=3.08D-04 DE=-6.41D-07 OVMax= 1.30D-04

 Cycle  14  Pass 1  IDiag  1:
 RMSU=  2.35D-06    CP:  5.55D-01  8.16D-01  1.01D+00  6.96D-01  9.41D-01
                    CP:  1.60D+00  1.49D+00  2.37D+00  1.96D+00  1.64D+00
                    CP:  1.31D+00  1.18D+00  9.26D-01
 E= -3010.53512959659     Delta-E=       -0.000000067575 Rises=F Damp=F
 DIIS: error= 3.78D-06 at cycle  14 NSaved=  14.
 NSaved=14 IEnMin=14 EnMin= -3010.53512959659     IErMin=14 ErrMin= 3.78D-06
 ErrMax= 3.78D-06  0.00D+00 EMaxC= 1.00D-01 BMatC= 3.82D-09 BMatP= 3.40D-08
 IDIUse=1 WtCom= 1.00D+00 WtEn= 0.00D+00
 Coeff-Com:  0.376D-04-0.477D-04 0.411D-04-0.510D-04-0.500D-03-0.175D-02
 Coeff-Com: -0.146D-02 0.816D-02 0.985D-02 0.219D-02-0.380D-01-0.115D+00
 Coeff-Com:  0.699D-01 0.107D+01
 Coeff:      0.376D-04-0.477D-04 0.411D-04-0.510D-04-0.500D-03-0.175D-02
 Coeff:     -0.146D-02 0.816D-02 0.985D-02 0.219D-02-0.380D-01-0.115D+00
 Coeff:      0.699D-01 0.107D+01
 Gap=     0.240 Goal=   None    Shift=    0.000
 RMSDP=4.88D-06 MaxDP=2.23D-04 DE=-6.76D-08 OVMax= 9.76D-05

 Cycle  15  Pass 1  IDiag  1:
 RMSU=  1.46D-06    CP:  5.55D-01  8.16D-01  1.01D+00  6.96D-01  9.41D-01
                    CP:  1.61D+00  1.49D+00  2.37D+00  1.95D+00  1.62D+00
                    CP:  1.32D+00  1.21D+00  1.08D+00  1.29D+00
 E= -3010.53512961521     Delta-E=       -0.000000018621 Rises=F Damp=F
 DIIS: error= 1.93D-06 at cycle  15 NSaved=  15.
 NSaved=15 IEnMin=15 EnMin= -3010.53512961521     IErMin=15 ErrMin= 1.93D-06
 ErrMax= 1.93D-06  0.00D+00 EMaxC= 1.00D-01 BMatC= 9.18D-10 BMatP= 3.82D-09
 IDIUse=1 WtCom= 1.00D+00 WtEn= 0.00D+00
 Coeff-Com:  0.967D-05-0.119D-04 0.252D-04 0.562D-04 0.927D-04-0.251D-03
 Coeff-Com: -0.147D-02-0.462D-03 0.297D-02 0.981D-02-0.198D-02-0.809D-01
 Coeff-Com: -0.922D-01 0.245D+00 0.919D+00
 Coeff:      0.967D-05-0.119D-04 0.252D-04 0.562D-04 0.927D-04-0.251D-03
 Coeff:     -0.147D-02-0.462D-03 0.297D-02 0.981D-02-0.198D-02-0.809D-01
 Coeff:     -0.922D-01 0.245D+00 0.919D+00
 Gap=     0.240 Goal=   None    Shift=    0.000
 RMSDP=1.51D-06 MaxDP=9.86D-05 DE=-1.86D-08 OVMax= 3.59D-05

 Cycle  16  Pass 1  IDiag  1:
 RMSU=  7.32D-07    CP:  5.55D-01  8.16D-01  1.01D+00  6.96D-01  9.41D-01
                    CP:  1.61D+00  1.49D+00  2.37D+00  1.95D+00  1.62D+00
                    CP:  1.33D+00  1.20D+00  1.13D+00  1.60D+00  1.18D+00
 E= -3010.53512961846     Delta-E=       -0.000000003247 Rises=F Damp=F
 DIIS: error= 8.51D-07 at cycle  16 NSaved=  16.
 NSaved=16 IEnMin=16 EnMin= -3010.53512961846     IErMin=16 ErrMin= 8.51D-07
 ErrMax= 8.51D-07  0.00D+00 EMaxC= 1.00D-01 BMatC= 1.60D-10 BMatP= 9.18D-10
 IDIUse=1 WtCom= 1.00D+00 WtEn= 0.00D+00
 Coeff-Com:  0.181D-05-0.261D-05 0.361D-05 0.272D-04 0.118D-03 0.217D-03
 Coeff-Com: -0.267D-03-0.151D-02-0.106D-02 0.222D-02 0.810D-02-0.779D-02
 Coeff-Com: -0.403D-01-0.107D+00 0.321D+00 0.827D+00
 Coeff:      0.181D-05-0.261D-05 0.361D-05 0.272D-04 0.118D-03 0.217D-03
 Coeff:     -0.267D-03-0.151D-02-0.106D-02 0.222D-02 0.810D-02-0.779D-02
 Coeff:     -0.403D-01-0.107D+00 0.321D+00 0.827D+00
 Gap=     0.240 Goal=   None    Shift=    0.000
 RMSDP=4.53D-07 MaxDP=2.28D-05 DE=-3.25D-09 OVMax= 2.31D-05

 Cycle  17  Pass 1  IDiag  1:
 RMSU=  1.89D-07    CP:  5.55D-01  8.16D-01  1.01D+00  6.96D-01  9.41D-01
                    CP:  1.61D+00  1.49D+00  2.37D+00  1.95D+00  1.62D+00
                    CP:  1.33D+00  1.20D+00  1.13D+00  1.67D+00  1.27D+00
                    CP:  1.26D+00
 E= -3010.53512961912     Delta-E=       -0.000000000661 Rises=F Damp=F
 DIIS: error= 2.84D-07 at cycle  17 NSaved=  17.
 NSaved=17 IEnMin=17 EnMin= -3010.53512961912     IErMin=17 ErrMin= 2.84D-07
 ErrMax= 2.84D-07  0.00D+00 EMaxC= 1.00D-01 BMatC= 4.14D-11 BMatP= 1.60D-10
 IDIUse=1 WtCom= 1.00D+00 WtEn= 0.00D+00
 Coeff-Com:  0.295D-06-0.485D-06-0.222D-05-0.968D-05-0.231D-04 0.354D-04
 Coeff-Com:  0.243D-03 0.101D-03-0.644D-03-0.158D-02 0.177D-02 0.119D-01
 Coeff-Com:  0.201D-01-0.548D-01-0.207D+00 0.119D+00 0.111D+01
 Coeff:      0.295D-06-0.485D-06-0.222D-05-0.968D-05-0.231D-04 0.354D-04
 Coeff:      0.243D-03 0.101D-03-0.644D-03-0.158D-02 0.177D-02 0.119D-01
 Coeff:      0.201D-01-0.548D-01-0.207D+00 0.119D+00 0.111D+01
 Gap=     0.240 Goal=   None    Shift=    0.000
 RMSDP=3.48D-07 MaxDP=1.99D-05 DE=-6.61D-10 OVMax= 1.39D-05

 Cycle  18  Pass 1  IDiag  1:
 RMSU=  1.12D-07    CP:  5.55D-01  8.16D-01  1.01D+00  6.96D-01  9.41D-01
                    CP:  1.61D+00  1.49D+00  2.37D+00  1.95D+00  1.62D+00
                    CP:  1.33D+00  1.20D+00  1.14D+00  1.71D+00  1.32D+00
                    CP:  1.54D+00  1.24D+00
 E= -3010.53512961934     Delta-E=       -0.000000000221 Rises=F Damp=F
 DIIS: error= 1.01D-07 at cycle  18 NSaved=  18.
 NSaved=18 IEnMin=18 EnMin= -3010.53512961934     IErMin=18 ErrMin= 1.01D-07
 ErrMax= 1.01D-07  0.00D+00 EMaxC= 1.00D-01 BMatC= 4.61D-12 BMatP= 4.14D-11
 IDIUse=1 WtCom= 1.00D+00 WtEn= 0.00D+00
 Coeff-Com:  0.353D-06-0.487D-06-0.122D-05-0.627D-05-0.171D-04-0.107D-04
 Coeff-Com:  0.877D-04 0.212D-03-0.698D-04-0.742D-03-0.306D-03 0.408D-02
 Coeff-Com:  0.128D-01 0.637D-03-0.110D+00-0.501D-01 0.266D+00 0.876D+00
 Coeff:      0.353D-06-0.487D-06-0.122D-05-0.627D-05-0.171D-04-0.107D-04
 Coeff:      0.877D-04 0.212D-03-0.698D-04-0.742D-03-0.306D-03 0.408D-02
 Coeff:      0.128D-01 0.637D-03-0.110D+00-0.501D-01 0.266D+00 0.876D+00
 Gap=     0.240 Goal=   None    Shift=    0.000
 RMSDP=9.70D-08 MaxDP=7.64D-06 DE=-2.21D-10 OVMax= 4.70D-06

 Cycle  19  Pass 1  IDiag  1:
 RMSU=  3.05D-08    CP:  5.55D-01  8.16D-01  1.01D+00  6.96D-01  9.41D-01
                    CP:  1.61D+00  1.49D+00  2.37D+00  1.95D+00  1.62D+00
                    CP:  1.33D+00  1.20D+00  1.14D+00  1.73D+00  1.31D+00
                    CP:  1.59D+00  1.35D+00  1.36D+00
 E= -3010.53512961934     Delta-E=        0.000000000001 Rises=F Damp=F
 DIIS: error= 4.36D-08 at cycle  19 NSaved=  19.
 NSaved=19 IEnMin=18 EnMin= -3010.53512961934     IErMin=19 ErrMin= 4.36D-08
 ErrMax= 4.36D-08  0.00D+00 EMaxC= 1.00D-01 BMatC= 1.08D-12 BMatP= 4.61D-12
 IDIUse=1 WtCom= 1.00D+00 WtEn= 0.00D+00
 Coeff-Com:  0.202D-07-0.492D-07-0.366D-06-0.369D-06 0.100D-05-0.921D-05
 Coeff-Com: -0.253D-04 0.466D-04 0.116D-03 0.114D-03-0.470D-03-0.137D-02
 Coeff-Com: -0.720D-04 0.105D-01 0.317D-02-0.331D-01-0.171D+00 0.233D+00
 Coeff-Com:  0.959D+00
 Coeff:      0.202D-07-0.492D-07-0.366D-06-0.369D-06 0.100D-05-0.921D-05
 Coeff:     -0.253D-04 0.466D-04 0.116D-03 0.114D-03-0.470D-03-0.137D-02
 Coeff:     -0.720D-04 0.105D-01 0.317D-02-0.331D-01-0.171D+00 0.233D+00
 Coeff:      0.959D+00
 Gap=     0.240 Goal=   None    Shift=    0.000
 RMSDP=5.68D-08 MaxDP=3.91D-06 DE= 9.09D-13 OVMax= 2.83D-06

 Cycle  20  Pass 1  IDiag  1:
 RMSU=  1.08D-08    CP:  5.55D-01  8.16D-01  1.01D+00  6.96D-01  9.41D-01
                    CP:  1.61D+00  1.49D+00  2.37D+00  1.95D+00  1.62D+00
                    CP:  1.33D+00  1.20D+00  1.14D+00  1.74D+00  1.31D+00
                    CP:  1.62D+00  1.39D+00  1.62D+00  1.43D+00
 E= -3010.53512961935     Delta-E=       -0.000000000014 Rises=F Damp=F
 DIIS: error= 1.40D-08 at cycle  20 NSaved=  20.
 NSaved=20 IEnMin=20 EnMin= -3010.53512961935     IErMin=20 ErrMin= 1.40D-08
 ErrMax= 1.40D-08  0.00D+00 EMaxC= 1.00D-01 BMatC= 7.09D-14 BMatP= 1.08D-12
 IDIUse=1 WtCom= 1.00D+00 WtEn= 0.00D+00
 Coeff-Com: -0.716D-08 0.682D-08 0.382D-07 0.496D-06 0.177D-05 0.826D-06
 Coeff-Com: -0.981D-05-0.172D-04 0.147D-04 0.751D-04-0.102D-04-0.437D-03
 Coeff-Com: -0.142D-02 0.421D-03 0.110D-01 0.562D-02-0.266D-01-0.112D+00
 Coeff-Com:  0.337D-01 0.109D+01
 Coeff:     -0.716D-08 0.682D-08 0.382D-07 0.496D-06 0.177D-05 0.826D-06
 Coeff:     -0.981D-05-0.172D-04 0.147D-04 0.751D-04-0.102D-04-0.437D-03
 Coeff:     -0.142D-02 0.421D-03 0.110D-01 0.562D-02-0.266D-01-0.112D+00
 Coeff:      0.337D-01 0.109D+01
 Gap=     0.240 Goal=   None    Shift=    0.000
 RMSDP=1.83D-08 MaxDP=1.82D-06 DE=-1.36D-11 OVMax= 7.74D-07

 Cycle  21  Pass 1  IDiag  1:
 Restarting incremental Fock formation.
 E= -3010.53512961937     Delta-E=       -0.000000000019 Rises=F Damp=F
 DIIS: error= 5.07D-09 at cycle  21 NSaved=  20.
 NSaved=20 IEnMin=20 EnMin= -3010.53512961937     IErMin=20 ErrMin= 5.07D-09
 ErrMax= 5.07D-09  0.00D+00 EMaxC= 1.00D-01 BMatC= 1.10D-14 BMatP= 7.09D-14
 IDIUse=1 WtCom= 1.00D+00 WtEn= 0.00D+00
 Coeff-Com:  0.448D-08 0.792D-07 0.103D-06-0.352D-07 0.758D-06 0.527D-06
 Coeff-Com: -0.644D-05-0.868D-05-0.170D-05 0.403D-04 0.115D-03-0.256D-03
 Coeff-Com: -0.817D-03 0.124D-02 0.362D-02 0.166D-01-0.503D-01-0.975D-01
 Coeff-Com:  0.174D+00 0.954D+00
 Coeff:      0.448D-08 0.792D-07 0.103D-06-0.352D-07 0.758D-06 0.527D-06
 Coeff:     -0.644D-05-0.868D-05-0.170D-05 0.403D-04 0.115D-03-0.256D-03
 Coeff:     -0.817D-03 0.124D-02 0.362D-02 0.166D-01-0.503D-01-0.975D-01
 Coeff:      0.174D+00 0.954D+00
 Gap=     0.240 Goal=   None    Shift=    0.000
 RMSDP=4.97D-09 MaxDP=3.13D-07 DE=-1.91D-11 OVMax= 2.00D-07

 SCF Done:  E(RwB97XD) =  -3010.53512962     A.U. after   21 cycles
            NFock= 21  Conv=0.50D-08     -V/T= 2.0016
 KE= 3.005856940233D+03 PE=-8.631277428276D+03 EE= 1.876586860141D+03
 Leave Link  502 at Wed May  1 14:48:36 2024, MaxMem=  1207959552 cpu:            1193.2 elap:            1193.4
 (Enter /software/gaussian/g16-c01/sse4/g16/l601.exe)
 Copying SCF densities to generalized density rwf, IOpCl= 0 IROHF=0.

 **********************************************************************

            Population analysis using the SCF Density.

 **********************************************************************

 Alpha  occ. eigenvalues -- -483.30789 -62.85822 -56.65504 -56.64947 -56.64945
 Alpha  occ. eigenvalues --  -19.43208 -19.43137 -14.82769 -10.57723 -10.56480
 Alpha  occ. eigenvalues --  -10.56035 -10.55842 -10.55764 -10.52297  -9.01635
 Alpha  occ. eigenvalues --   -6.84282  -6.82456  -6.82443  -2.94194  -2.93708
 Alpha  occ. eigenvalues --   -2.93696  -2.92236  -2.92235  -1.46980  -1.29925
 Alpha  occ. eigenvalues --   -1.21660  -1.13029  -1.10800  -1.03737  -0.99506
 Alpha  occ. eigenvalues --   -0.94541  -0.89801  -0.83850  -0.79511  -0.78810
 Alpha  occ. eigenvalues --   -0.77898  -0.77057  -0.75034  -0.73508  -0.71370
 Alpha  occ. eigenvalues --   -0.68539  -0.66618  -0.62737  -0.59347  -0.56141
 Alpha  occ. eigenvalues --   -0.54776  -0.54225  -0.53260  -0.52848
 Alpha virt. eigenvalues --   -0.28804  -0.19414  -0.14987  -0.11978  -0.09060
 Alpha virt. eigenvalues --   -0.06351  -0.05450  -0.04770  -0.03855  -0.02372
 Alpha virt. eigenvalues --   -0.01898  -0.01455  -0.01265  -0.00657   0.00409
 Alpha virt. eigenvalues --    0.01517   0.02127   0.02510   0.03307   0.03362
 Alpha virt. eigenvalues --    0.05045   0.05838   0.06389   0.06787   0.07618
 Alpha virt. eigenvalues --    0.07715   0.08495   0.08678   0.09831   0.10091
 Alpha virt. eigenvalues --    0.11198   0.12269   0.12613   0.12890   0.13545
 Alpha virt. eigenvalues --    0.13752   0.15156   0.15818   0.16648   0.17323
 Alpha virt. eigenvalues --    0.17590   0.18246   0.19458   0.19902   0.20306
 Alpha virt. eigenvalues --    0.20647   0.22762   0.23718   0.24277   0.26365
 Alpha virt. eigenvalues --    0.28354   0.29270   0.30041   0.30850   0.31575
 Alpha virt. eigenvalues --    0.33722   0.34599   0.36383   0.37243   0.37661
 Alpha virt. eigenvalues --    0.37754   0.39864   0.40356   0.41293   0.42389
 Alpha virt. eigenvalues --    0.43474   0.44835   0.45776   0.47314   0.48498
 Alpha virt. eigenvalues --    0.49493   0.50827   0.52075   0.52542   0.54735
 Alpha virt. eigenvalues --    0.56045   0.56125   0.57431   0.57984   0.60507
 Alpha virt. eigenvalues --    0.61671   0.63342   0.64653   0.67294   0.69300
 Alpha virt. eigenvalues --    0.70952   0.72764   0.73550   0.74195   0.75143
 Alpha virt. eigenvalues --    0.75663   0.81109   0.81213   0.83988   0.86217
 Alpha virt. eigenvalues --    0.87281   0.89998   0.93189   0.94283   1.00456
 Alpha virt. eigenvalues --    1.02038   1.02669   1.05855   1.06714   1.07719
 Alpha virt. eigenvalues --    1.10653   1.12827   1.14456   1.15004   1.17056
 Alpha virt. eigenvalues --    1.24713   1.26120   1.28418   1.33861   1.37472
 Alpha virt. eigenvalues --    1.37824   1.38896   1.45986   1.55547   1.58282
 Alpha virt. eigenvalues --    1.60018   1.60164   1.62071   1.64074   1.67152
 Alpha virt. eigenvalues --    1.70634   1.70731   1.74342   1.77479   1.80053
 Alpha virt. eigenvalues --    1.81766   1.86626   1.88670   1.93855   1.96059
 Alpha virt. eigenvalues --    1.99121   2.04265   2.05363   2.07535   2.08907
 Alpha virt. eigenvalues --    2.10570   2.15634   2.21375   2.24278   2.30111
 Alpha virt. eigenvalues --    2.38986   2.42730   2.43695   2.44803   2.53400
 Alpha virt. eigenvalues --    2.57519   2.64074   2.67114   2.69301   2.74057
 Alpha virt. eigenvalues --    2.75482   2.78724   2.79134   2.82417   2.83887
 Alpha virt. eigenvalues --    2.94299   2.97272   3.03188   3.06395   3.10154
 Alpha virt. eigenvalues --    3.14074   3.16035   3.20038   3.25165   3.26162
 Alpha virt. eigenvalues --    3.30073   3.40818   3.48434   3.52799   3.56174
 Alpha virt. eigenvalues --    3.58892   3.72454   3.76726   3.83105   3.88145
 Alpha virt. eigenvalues --    4.09261   4.09496   4.17054   4.22245   4.43088
 Alpha virt. eigenvalues --    4.47085   4.58357   4.62164   4.95965   4.98656
 Alpha virt. eigenvalues --    5.07292   5.11459   5.65463   6.18509   6.64983
 Alpha virt. eigenvalues --    7.47932   7.49509   7.59320  23.22155  23.62178
 Alpha virt. eigenvalues --   23.70171  23.80388  23.96853  24.02429  35.35183
 Alpha virt. eigenvalues --   47.91604  49.88229  49.97040 289.80942 289.82610
 Alpha virt. eigenvalues --  289.950591020.92038
          Condensed to atoms (all electrons):
               1          2          3          4          5          6
     1  C    9.149120  -2.469821   0.172663  -1.715465  -0.630040   0.310113
     2  C   -2.469821  12.925685  -1.771774  -2.385025   0.605881  -0.009460
     3  C    0.172663  -1.771774  13.307320  -3.474536  -1.240308   0.025330
     4  C   -1.715465  -2.385025  -3.474536  15.430895   1.241150   0.010606
     5  C   -0.630040   0.605881  -1.240308   1.241150   7.528714   0.007422
     6  H    0.310113  -0.009460   0.025330   0.010606   0.007422   0.345495
     7  H    0.076972   0.219437   0.075667  -0.033799  -0.018883  -0.001793
     8  H    0.005802  -0.012594   0.079980   0.229039  -0.024188   0.000000
     9  H    0.039337  -0.021196   0.006765  -0.008979   0.296993  -0.002617
    10  N   -0.173609   0.364054  -0.925552   0.352063   0.007944  -0.000661
    11  O    0.009200  -0.092226  -0.263123   0.001448  -0.060010  -0.000026
    12  O    0.358455  -0.035440  -0.277356  -0.116877  -0.043178   0.000037
    13  C    1.414161  -1.831472   0.952236  -3.799184  -1.705934  -0.007893
    14  H   -0.016718   0.003818   0.000101  -0.072192   0.004675  -0.000047
    15  Br   0.033768   0.013142   0.032493   0.035314   0.039027  -0.000375
               7          8          9         10         11         12
     1  C    0.076972   0.005802   0.039337  -0.173609   0.009200   0.358455
     2  C    0.219437  -0.012594  -0.021196   0.364054  -0.092226  -0.035440
     3  C    0.075667   0.079980   0.006765  -0.925552  -0.263123  -0.277356
     4  C   -0.033799   0.229039  -0.008979   0.352063   0.001448  -0.116877
     5  C   -0.018883  -0.024188   0.296993   0.007944  -0.060010  -0.043178
     6  H   -0.001793   0.000000  -0.002617  -0.000661  -0.000026   0.000037
     7  H    0.293655  -0.000004   0.000016  -0.025841  -0.001506   0.025084
     8  H   -0.000004   0.286824   0.000098  -0.024047   0.025119  -0.000843
     9  H    0.000016   0.000098   0.347814   0.000354   0.000008   0.000007
    10  N   -0.025841  -0.024047   0.000354   7.443623   0.152638   0.117266
    11  O   -0.001506   0.025119   0.000008   0.152638   7.836262   0.006836
    12  O    0.025084  -0.000843   0.000007   0.117266   0.006836   7.873557
    13  C    0.016234   0.053677   0.017480  -0.184847   0.332852   0.040694
    14  H   -0.000020  -0.003703  -0.006051   0.000281  -0.000322  -0.000074
    15  Br  -0.000022   0.004072   0.001098   0.005746   0.000068   0.002063
              13         14         15
     1  C    1.414161  -0.016718   0.033768
     2  C   -1.831472   0.003818   0.013142
     3  C    0.952236   0.000101   0.032493
     4  C   -3.799184  -0.072192   0.035314
     5  C   -1.705934   0.004675   0.039027
     6  H   -0.007893  -0.000047  -0.000375
     7  H    0.016234  -0.000020  -0.000022
     8  H    0.053677  -0.003703   0.004072
     9  H    0.017480  -0.006051   0.001098
    10  N   -0.184847   0.000281   0.005746
    11  O    0.332852  -0.000322   0.000068
    12  O    0.040694  -0.000074   0.002063
    13  C   10.784368   0.387114   0.006965
    14  H    0.387114   0.350379  -0.043347
    15  Br   0.006965  -0.043347  34.720512
 Mulliken charges:
               1
     1  C   -0.563938
     2  C    0.496990
     3  C   -0.699905
     4  C    0.305541
     5  C   -0.009267
     6  H    0.323868
     7  H    0.374804
     8  H    0.380768
     9  H    0.328872
    10  N   -0.109412
    11  O    0.052780
    12  O    0.049769
    13  C   -0.476451
    14  H    0.396107
    15  Br   0.149475
 Sum of Mulliken charges =   1.00000
 Mulliken charges with hydrogens summed into heavy atoms:
               1
     1  C   -0.240070
     2  C    0.871794
     3  C   -0.699905
     4  C    0.686308
     5  C    0.319605
    10  N   -0.109412
    11  O    0.052780
    12  O    0.049769
    13  C   -0.080344
    15  Br   0.149475
 Electronic spatial extent (au):  <R**2>=           2796.2954
 Charge=              1.0000 electrons
 Dipole moment (field-independent basis, Debye):
    X=              0.6029    Y=             -0.4262    Z=              0.0959  Tot=              0.7446
 Quadrupole moment (field-independent basis, Debye-Ang):
   XX=            -67.9368   YY=            -52.1480   ZZ=            -62.9749
   XY=              1.0638   XZ=              0.7430   YZ=              1.3331
 Traceless Quadrupole moment (field-independent basis, Debye-Ang):
   XX=             -6.9169   YY=              8.8719   ZZ=             -1.9550
   XY=              1.0638   XZ=              0.7430   YZ=              1.3331
 Octapole moment (field-independent basis, Debye-Ang**2):
  XXX=           -279.9693  YYY=             88.7643  ZZZ=             78.2010  XYY=            -72.7606
  XXY=             30.7036  XXZ=             32.3538  XZZ=            -76.5718  YZZ=             17.0286
  YYZ=             26.0930  XYZ=             -2.7050
 Hexadecapole moment (field-independent basis, Debye-Ang**3):
 XXXX=          -2196.2981 YYYY=           -679.2741 ZZZZ=           -350.2123 XXXY=            -68.6002
 XXXZ=            -23.9720 YYYX=            -61.2463 YYYZ=           -157.4257 ZZZX=            -20.0927
 ZZZY=           -137.3650 XXYY=           -449.9430 XXZZ=           -369.2584 YYZZ=           -164.9866
 XXYZ=            -55.4490 YYXZ=             -3.6665 ZZXY=             -9.9039
 N-N= 7.382984982825D+02 E-N=-8.631277429529D+03  KE= 3.005856940233D+03
 No NMR shielding tensors so no spin-rotation constants.
 Leave Link  601 at Wed May  1 14:48:43 2024, MaxMem=  1207959552 cpu:               7.0 elap:               7.0
 (Enter /software/gaussian/g16-c01/sse4/g16/l9999.exe)
 Unable to Open any file for archive entry.
 1\1\GINC-BHX0013\SP\RwB97XD\6-311+G(d)\C6H5Br1N1O2(1+)\BWEIGHT\01-May-
 2024\0\\#P wB97XD/6-311+G* NoSymm #P Field=X-48\\TitleMe\\1,1\C,0,0.02
 95,1.3397,0.0682\C,0,1.4348,1.2867,0.0064\C,0,2.1118,0.0511,-0.0054\C,
 0,1.4451,-1.1372,0.0312\C,0,-0.6879,0.1682,0.11\H,0,-0.4713,2.2984,0.0
 781\H,0,2.0273,2.1965,-0.0322\H,0,1.9897,-2.0764,0.0232\H,0,-1.7716,0.
 1804,0.1582\N,0,3.5864,0.051,-0.0675\O,0,4.1471,-1.0597,-0.0881\O,0,4.
 145,1.1639,-0.0901\C,0,-0.0236,-1.1458,0.0835\H,0,-0.4367,-1.8725,0.78
 89\Br,0,-0.5359,-1.8697,-1.7408\\Version=ES64L-G16RevC.01\HF=-3010.535
 1296\RMSD=4.969e-09\Dipole=-1.6693203,0.9804015,1.1838899\Quadrupole=-
 5.1425337,6.5960114,-1.4534777,0.7909257,0.5523711,0.9911014\PG=C01 [X
 (C6H5Br1N1O2)]\\@
 The archive entry for this job was punched.


 Ideas are like rabbits. You get a couple and learn
 how to handle them, and pretty soon you have a dozen.
                                    -- John Steinbeck
 Job cpu time:       0 days  0 hours 21 minutes  0.5 seconds.
 Elapsed time:       0 days  0 hours 21 minutes  0.8 seconds.
 File lengths (MBytes):  RWF=     40 Int=      0 D2E=      0 Chk=     32 Scr=      1
 Normal termination of Gaussian 16 at Wed May  1 14:48:44 2024.
