 Entering Gaussian System, Link 0=g16
 Initial command:
 /software/gaussian/g16-c01/sse4/g16/l1.exe "/local_scratch/24657531/Gau-29662.inp" -scrdir="/local_scratch/24657531/"
 Entering Link 1 = /software/gaussian/g16-c01/sse4/g16/l1.exe PID=     29663.
  
 Copyright (c) 1988-2019, Gaussian, Inc.  All Rights Reserved.
  
 This is part of the Gaussian(R) 16 program.  It is based on
 the Gaussian(R) 09 system (copyright 2009, Gaussian, Inc.),
 the Gaussian(R) 03 system (copyright 2003, Gaussian, Inc.),
 the Gaussian(R) 98 system (copyright 1998, Gaussian, Inc.),
 the Gaussian(R) 94 system (copyright 1995, Gaussian, Inc.),
 the Gaussian 92(TM) system (copyright 1992, Gaussian, Inc.),
 the Gaussian 90(TM) system (copyright 1990, Gaussian, Inc.),
 the Gaussian 88(TM) system (copyright 1988, Gaussian, Inc.),
 the Gaussian 86(TM) system (copyright 1986, Carnegie Mellon
 University), and the Gaussian 82(TM) system (copyright 1983,
 Carnegie Mellon University). Gaussian is a federally registered
 trademark of Gaussian, Inc.
  
 This software contains proprietary and confidential information,
 including trade secrets, belonging to Gaussian, Inc.
  
 This software is provided under written license and may be
 used, copied, transmitted, or stored only in accord with that
 written license.
  
 The following legend is applicable only to US Government
 contracts under FAR:
  
                    RESTRICTED RIGHTS LEGEND
  
 Use, reproduction and disclosure by the US Government is
 subject to restrictions as set forth in subparagraphs (a)
 and (c) of the Commercial Computer Software - Restricted
 Rights clause in FAR 52.227-19.
  
 Gaussian, Inc.
 340 Quinnipiac St., Bldg. 40, Wallingford CT 06492
  
  
 ---------------------------------------------------------------
 Warning -- This program may not be used in any manner that
 competes with the business of Gaussian, Inc. or will provide
 assistance to any competitor of Gaussian, Inc.  The licensee
 of this program is prohibited from giving any competitor of
 Gaussian, Inc. access to this program.  By using this program,
 the user acknowledges that Gaussian, Inc. is engaged in the
 business of creating and licensing software in the field of
 computational chemistry and represents and warrants to the
 licensee that it is not a competitor of Gaussian, Inc. and that
 it will not use this program in any manner prohibited above.
 ---------------------------------------------------------------
  

 Cite this work as:
 Gaussian 16, Revision C.01,
 M. J. Frisch, G. W. Trucks, H. B. Schlegel, G. E. Scuseria, 
 M. A. Robb, J. R. Cheeseman, G. Scalmani, V. Barone, 
 G. A. Petersson, H. Nakatsuji, X. Li, M. Caricato, A. V. Marenich, 
 J. Bloino, B. G. Janesko, R. Gomperts, B. Mennucci, H. P. Hratchian, 
 J. V. Ortiz, A. F. Izmaylov, J. L. Sonnenberg, D. Williams-Young, 
 F. Ding, F. Lipparini, F. Egidi, J. Goings, B. Peng, A. Petrone, 
 T. Henderson, D. Ranasinghe, V. G. Zakrzewski, J. Gao, N. Rega, 
 G. Zheng, W. Liang, M. Hada, M. Ehara, K. Toyota, R. Fukuda, 
 J. Hasegawa, M. Ishida, T. Nakajima, Y. Honda, O. Kitao, H. Nakai, 
 T. Vreven, K. Throssell, J. A. Montgomery, Jr., J. E. Peralta, 
 F. Ogliaro, M. J. Bearpark, J. J. Heyd, E. N. Brothers, K. N. Kudin, 
 V. N. Staroverov, T. A. Keith, R. Kobayashi, J. Normand, 
 K. Raghavachari, A. P. Rendell, J. C. Burant, S. S. Iyengar, 
 J. Tomasi, M. Cossi, J. M. Millam, M. Klene, C. Adamo, R. Cammi, 
 J. W. Ochterski, R. L. Martin, K. Morokuma, O. Farkas, 
 J. B. Foresman, and D. J. Fox, Gaussian, Inc., Wallingford CT, 2019.
 
 ******************************************
 Gaussian 16:  ES64L-G16RevC.01  3-Jul-2019
                 1-May-2024 
 ******************************************
 %chk=geometry.chk
 %mem=9GB
 %nprocshared=12
 Will use up to   12 processors via shared memory.
 ----------------------------------------
 #P wB97XD/6-311+G* NoSymm #P Field=Z-291
 ----------------------------------------
 1/38=1,172=1/1;
 2/12=2,15=1,17=6,18=5,40=1/2;
 3/5=4,6=6,7=11,11=2,14=3,15=-291,25=1,30=1,74=-58/1,2,3;
 4//1;
 5/5=2,38=5/2;
 6/7=2,8=2,9=2,10=2,28=1/1;
 99/5=1,9=1/99;
 Leave Link    1 at Wed May  1 14:52:55 2024, MaxMem=  1207959552 cpu:               1.0 elap:               1.0
 (Enter /software/gaussian/g16-c01/sse4/g16/l101.exe)
 -------
 TitleMe
 -------
 Symbolic Z-matrix:
 Charge =  1 Multiplicity = 1
 C                     0.0295    1.3397    0.0682 
 C                     1.4348    1.2867    0.0064 
 C                     2.1118    0.0511   -0.0054 
 C                     1.4451   -1.1372    0.0312 
 C                    -0.6879    0.1682    0.11 
 H                    -0.4713    2.2984    0.0781 
 H                     2.0273    2.1965   -0.0322 
 H                     1.9897   -2.0764    0.0232 
 H                    -1.7716    0.1804    0.1582 
 N                     3.5864    0.051    -0.0675 
 O                     4.1471   -1.0597   -0.0881 
 O                     4.145     1.1639   -0.0901 
 C                    -0.0236   -1.1458    0.0835 
 H                    -0.4367   -1.8725    0.7889 
 Br                   -0.5359   -1.8697   -1.7408 
 
 ITRead=  0  0  0  0  0  0  0  0  0  0  0  0  0  0  0
 MicOpt= -1 -1 -1 -1 -1 -1 -1 -1 -1 -1 -1 -1 -1 -1 -1
 NAtoms=     15 NQM=       15 NQMF=       0 NMMI=      0 NMMIF=      0
                NMic=       0 NMicF=      0.
                    Isotopes and Nuclear Properties:
 (Nuclear quadrupole moments (NQMom) in fm**2, nuclear magnetic moments (NMagM)
  in nuclear magnetons)

  Atom         1           2           3           4           5           6           7           8           9          10
 IAtWgt=          12          12          12          12          12           1           1           1           1          14
 AtmWgt=  12.0000000  12.0000000  12.0000000  12.0000000  12.0000000   1.0078250   1.0078250   1.0078250   1.0078250  14.0030740
 NucSpn=           0           0           0           0           0           1           1           1           1           2
 AtZEff=  -0.0000000  -0.0000000  -0.0000000  -0.0000000  -0.0000000  -0.0000000  -0.0000000  -0.0000000  -0.0000000  -0.0000000
 NQMom=    0.0000000   0.0000000   0.0000000   0.0000000   0.0000000   0.0000000   0.0000000   0.0000000   0.0000000   2.0440000
 NMagM=    0.0000000   0.0000000   0.0000000   0.0000000   0.0000000   2.7928460   2.7928460   2.7928460   2.7928460   0.4037610
 AtZNuc=   6.0000000   6.0000000   6.0000000   6.0000000   6.0000000   1.0000000   1.0000000   1.0000000   1.0000000   7.0000000

  Atom        11          12          13          14          15
 IAtWgt=          16          16          12           1          79
 AtmWgt=  15.9949146  15.9949146  12.0000000   1.0078250  78.9183361
 NucSpn=           0           0           0           1           3
 AtZEff=  -0.0000000  -0.0000000  -0.0000000  -0.0000000  -0.0000000
 NQMom=    0.0000000   0.0000000   0.0000000   0.0000000  31.3000000
 NMagM=    0.0000000   0.0000000   0.0000000   2.7928460   2.1063990
 AtZNuc=   8.0000000   8.0000000   6.0000000   1.0000000  35.0000000
 Leave Link  101 at Wed May  1 14:52:57 2024, MaxMem=  1207959552 cpu:               1.3 elap:               1.4
 (Enter /software/gaussian/g16-c01/sse4/g16/l202.exe)
                          Input orientation:                          
 ---------------------------------------------------------------------
 Center     Atomic      Atomic             Coordinates (Angstroms)
 Number     Number       Type             X           Y           Z
 ---------------------------------------------------------------------
      1          6           0        0.029500    1.339700    0.068200
      2          6           0        1.434800    1.286700    0.006400
      3          6           0        2.111800    0.051100   -0.005400
      4          6           0        1.445100   -1.137200    0.031200
      5          6           0       -0.687900    0.168200    0.110000
      6          1           0       -0.471300    2.298400    0.078100
      7          1           0        2.027300    2.196500   -0.032200
      8          1           0        1.989700   -2.076400    0.023200
      9          1           0       -1.771600    0.180400    0.158200
     10          7           0        3.586400    0.051000   -0.067500
     11          8           0        4.147100   -1.059700   -0.088100
     12          8           0        4.145000    1.163900   -0.090100
     13          6           0       -0.023600   -1.145800    0.083500
     14          1           0       -0.436700   -1.872500    0.788900
     15         35           0       -0.535900   -1.869700   -1.740800
 ---------------------------------------------------------------------
                    Distance matrix (angstroms):
                    1          2          3          4          5
     1  C    0.000000
     2  C    1.407656   0.000000
     3  C    2.449874   1.408963   0.000000
     4  C    2.853126   2.424049   1.363043   0.000000
     5  C    1.374344   2.401589   2.804523   2.501993   0.000000
     6  H    1.081667   2.159142   3.424870   3.934226   2.141421
     7  H    2.176095   1.086408   2.147231   3.384750   3.392128
     8  H    3.938800   3.408612   2.131193   1.085702   3.495040
     9  H    2.143837   3.395283   3.888995   3.478413   1.084840
    10  N    3.785591   2.482297   1.475907   2.450862   4.279589
    11  O    4.768247   3.587631   2.320164   2.705743   4.992415
    12  O    4.122294   2.714696   2.319353   3.549540   4.938459
    13  C    2.486114   2.837240   2.449573   1.469656   1.472614
    14  H    3.324903   3.754379   3.290289   2.157764   2.165286
    15  Br   3.727252   4.110867   3.702891   2.756973   2.757100
                    6          7          8          9         10
     6  H    0.000000
     7  H    2.503108   0.000000
     8  H    5.019802   4.273425   0.000000
     9  H    2.486588   4.304945   4.388479   0.000000
    10  N    4.640790   2.652397   2.661486   5.364313   0.000000
    11  O    5.712624   3.885809   2.387560   6.052233   1.244373
    12  O    4.756638   2.356750   3.893289   6.002923   1.245428
    13  C    3.473180   3.923079   2.218790   2.195425   3.806210
    14  H    4.231175   4.827242   2.552506   2.528663   4.540772
    15  Br   4.548146   5.101303   3.087568   3.055498   4.845862
                   11         12         13         14         15
    11  O    0.000000
    12  O    2.223602   0.000000
    13  C    4.175117   4.768865   0.000000
    14  H    4.737193   5.566358   1.093770   0.000000
    15  Br   5.031700   5.817075   2.028436   2.531646   0.000000
 Symmetry turned off by external request.
 Stoichiometry    C6H5BrNO2(1+)
 Framework group  C1[X(C6H5BrNO2)]
 Deg. of freedom    39
 Full point group                 C1      NOp   1
 Rotational constants (GHZ):           1.8252210           0.5518633           0.4576002
 Leave Link  202 at Wed May  1 14:52:58 2024, MaxMem=  1207959552 cpu:               1.2 elap:               1.2
 (Enter /software/gaussian/g16-c01/sse4/g16/l301.exe)
 Standard basis: 6-311+G(d) (5D, 7F)
 Ernie: Thresh=  0.10000D-02 Tol=  0.10000D-05 Strict=F.
 The following finite field(s) will be applied:
 An electric field of              0.0000  0.0000 -0.0291
   261 basis functions,   443 primitive gaussians,   273 cartesian basis functions
    49 alpha electrons       49 beta electrons
       nuclear repulsion energy       739.2122215416 Hartrees.
 IExCor= 4639 DFT=T Ex+Corr=wB97XD ExCW=0 ScaHFX=  1.000000
 ScaDFX=  1.000000  1.000000  1.000000  1.000000 ScalE2=  1.000000  1.000000
 IRadAn=      5 IRanWt=     -1 IRanGd=            0 ICorTp=0 IEmpDi=121
 HFx  wShort=  0.000000 wLong=  0.200000 cFull=  0.222036 cShort=  0.000000 cLong=  0.777964
 DFx  wShort=  0.000000 wLong=  0.200000 cFull=  0.000000 cShort=  0.000000 cLong=  1.000000
 NAtoms=   15 NActive=   15 NUniq=   15 SFac= 1.00D+00 NAtFMM=   60 NAOKFM=F Big=F
 Integral buffers will be    131072 words long.
 Raffenetti 2 integral format.
 Two-electron integral symmetry is turned off.
 R6Disp:  Grimme-D2 Dispersion energy=       -0.0077368520 Hartrees.
 Nuclear repulsion after empirical dispersion term =      739.2044846896 Hartrees.
 Leave Link  301 at Wed May  1 14:52:59 2024, MaxMem=  1207959552 cpu:               0.9 elap:               0.9
 (Enter /software/gaussian/g16-c01/sse4/g16/l302.exe)
 NPDir=0 NMtPBC=     1 NCelOv=     1 NCel=       1 NClECP=     1 NCelD=      1
         NCelK=      1 NCelE2=     1 NClLst=     1 CellRange=     0.0.
 One-electron integrals computed using PRISM.
 NBasis=   261 RedAO= T EigKep=  2.35D-06  NBF=   261
 NBsUse=   261 1.00D-06 EigRej= -1.00D+00 NBFU=   261
 Precomputing XC quadrature grid using
 IXCGrd= 4 IRadAn=           5 IRanWt=          -1 IRanGd=           0 AccXCQ= 0.00D+00.
 Generated NRdTot=       0 NPtTot=           0 NUsed=           0 NTot=          32
 NSgBfM=   273   273   273   273   273 MxSgAt=    15 MxSgA2=    15.
 Leave Link  302 at Wed May  1 14:53:20 2024, MaxMem=  1207959552 cpu:              21.4 elap:              21.4
 (Enter /software/gaussian/g16-c01/sse4/g16/l303.exe)
 DipDrv:  MaxL=1.
 The nuclear repulsion energy is now       742.5065035860 hartrees.
 Leave Link  303 at Wed May  1 14:53:23 2024, MaxMem=  1207959552 cpu:               3.2 elap:               3.2
 (Enter /software/gaussian/g16-c01/sse4/g16/l401.exe)
 ExpMin= 3.50D-02 ExpMax= 4.40D+05 ExpMxC= 1.51D+04 IAcc=3 IRadAn=         5 AccDes= 0.00D+00
 Harris functional with IExCor= 4639 and IRadAn=       5 diagonalized for initial guess.
 HarFok:  IExCor= 4639 AccDes= 0.00D+00 IRadAn=         5 IDoV= 1 UseB2=F ITyADJ=14
 ICtDFT=  3500011 ScaDFX=  1.000000  1.000000  1.000000  1.000000
 FoFCou: FMM=F IPFlag=           0 FMFlag=      100000 FMFlg1=           0
         NFxFlg=           0 DoJE=T BraDBF=F KetDBF=T FulRan=T
         wScrn=  0.000000 ICntrl=       500 IOpCl=  0 I1Cent=   200000004 NGrid=           0
         NMat0=    1 NMatS0=      1 NMatT0=    0 NMatD0=    1 NMtDS0=    0 NMtDT0=    0
 Symmetry not used in FoFCou.
 Harris En= -2970.78888679417    
 JPrj=0 DoOrth=F DoCkMO=F.
 Leave Link  401 at Wed May  1 14:53:53 2024, MaxMem=  1207959552 cpu:              29.3 elap:              29.4
 (Enter /software/gaussian/g16-c01/sse4/g16/l502.exe)
 Two-electron integral symmetry not used.
 Closed shell SCF:
 Using DIIS extrapolation, IDIIS=  1040.
 NGot=  1207959552 LenX=  1207804877 LenY=  1207729907
 Requested convergence on RMS density matrix=1.00D-08 within 128 cycles.
 Requested convergence on MAX density matrix=1.00D-06.
 Requested convergence on             energy=1.00D-06.
 No special actions if energy rises.
 Fock matrices will be formed incrementally for  20 cycles.

 Cycle   1  Pass 1  IDiag  1:
 FoFJK:  IHMeth= 1 ICntrl=       0 DoSepK=T KAlg= 0 I1Cent=           0 FoldK=F
 IRaf=         1 NMat=       1 IRICut=       1 DoRegI=T DoRafI=F ISym2E= 0 IDoP0=0 IntGTp=1.
 FoFCou: FMM=F IPFlag=           0 FMFlag=      100000 FMFlg1=           0
         NFxFlg=           0 DoJE=T BraDBF=F KetDBF=F FulRan=T
         wScrn=  0.000000 ICntrl=       500 IOpCl=  0 I1Cent=           0 NGrid=           0
         NMat0=    1 NMatS0=      1 NMatT0=    0 NMatD0=    1 NMtDS0=    0 NMtDT0=    0
 Symmetry not used in FoFCou.
 E= -3008.14893242733    
 DIIS: error= 3.21D-01 at cycle   1 NSaved=   1.
 NSaved= 1 IEnMin= 1 EnMin= -3008.14893242733     IErMin= 1 ErrMin= 3.21D-01
 ErrMax= 3.21D-01  0.00D+00 EMaxC= 1.00D-01 BMatC= 1.25D+01 BMatP= 1.25D+01
 IDIUse=3 WtCom= 0.00D+00 WtEn= 1.00D+00
 Coeff-Com:  0.100D+01
 Coeff-En:   0.100D+01
 Coeff:      0.100D+01
 Gap=     0.143 Goal=   None    Shift=    0.000
 GapD=    0.143 DampG=1.000 DampE=0.250 DampFc=0.2500 IDamp=-1.
 Damping current iteration by 2.50D-01
 RMSDP=5.99D-01 MaxDP=4.41D+01              OVMax= 9.81D-01

 Cycle   2  Pass 1  IDiag  1:
 RMSU=  2.00D-02    CP:  7.63D-01
 E= -3008.41957453810     Delta-E=       -0.270642110774 Rises=F Damp=T
 DIIS: error= 2.25D-01 at cycle   2 NSaved=   2.
 NSaved= 2 IEnMin= 2 EnMin= -3008.41957453810     IErMin= 2 ErrMin= 2.25D-01
 ErrMax= 2.25D-01  0.00D+00 EMaxC= 1.00D-01 BMatC= 5.72D+00 BMatP= 1.25D+01
 IDIUse=3 WtCom= 0.00D+00 WtEn= 1.00D+00
 Coeff-Com: -0.116D+01 0.216D+01
 Coeff-En:   0.397D+00 0.603D+00
 Coeff:      0.397D+00 0.603D+00
 Gap=    -0.081 Goal=   None    Shift=    0.000
 RMSDP=4.54D-01 MaxDP=3.53D+01 DE=-2.71D-01 OVMax= 9.83D-01

 Cycle   3  Pass 1  IDiag  1:
 RMSU=  2.26D-02    CP:  4.11D-02  2.63D+00
 E= -3009.99698540483     Delta-E=       -1.577410866727 Rises=F Damp=F
 DIIS: error= 9.36D-02 at cycle   3 NSaved=   3.
 NSaved= 3 IEnMin= 3 EnMin= -3009.99698540483     IErMin= 3 ErrMin= 9.36D-02
 ErrMax= 9.36D-02  0.00D+00 EMaxC= 1.00D-01 BMatC= 1.82D+00 BMatP= 5.72D+00
 IDIUse=3 WtCom= 6.41D-02 WtEn= 9.36D-01
 Coeff-Com:  0.151D+00 0.123D+00 0.726D+00
 Coeff-En:   0.126D+00 0.000D+00 0.874D+00
 Coeff:      0.128D+00 0.791D-02 0.864D+00
 Gap=     0.419 Goal=   None    Shift=    0.000
 RMSDP=2.71D-02 MaxDP=1.84D+00 DE=-1.58D+00 OVMax= 1.96D-01

 Cycle   4  Pass 1  IDiag  1:
 RMSU=  2.34D-02    CP:  4.26D-02  2.96D+00  1.53D+00
 E= -3010.30818363131     Delta-E=       -0.311198226480 Rises=F Damp=F
 DIIS: error= 6.16D-02 at cycle   4 NSaved=   4.
 NSaved= 4 IEnMin= 4 EnMin= -3010.30818363131     IErMin= 4 ErrMin= 6.16D-02
 ErrMax= 6.16D-02  0.00D+00 EMaxC= 1.00D-01 BMatC= 8.05D-01 BMatP= 1.82D+00
 IDIUse=3 WtCom= 3.84D-01 WtEn= 6.16D-01
 Coeff-Com:  0.106D+00-0.110D+00 0.439D+00 0.565D+00
 Coeff-En:   0.000D+00 0.000D+00 0.279D+00 0.721D+00
 Coeff:      0.407D-01-0.422D-01 0.340D+00 0.661D+00
 Gap=     0.272 Goal=   None    Shift=    0.000
 RMSDP=2.04D-02 MaxDP=2.05D+00 DE=-3.11D-01 OVMax= 1.07D-01

 Cycle   5  Pass 1  IDiag  1:
 RMSU=  6.56D-03    CP:  3.37D-02  2.40D+00  1.18D+00  4.78D-01
 E= -3010.52124845749     Delta-E=       -0.213064826177 Rises=F Damp=F
 DIIS: error= 2.16D-02 at cycle   5 NSaved=   5.
 NSaved= 5 IEnMin= 5 EnMin= -3010.52124845749     IErMin= 5 ErrMin= 2.16D-02
 ErrMax= 2.16D-02  0.00D+00 EMaxC= 1.00D-01 BMatC= 7.03D-02 BMatP= 8.05D-01
 IDIUse=3 WtCom= 7.84D-01 WtEn= 2.16D-01
 Coeff-Com:  0.291D-01-0.338D-01 0.189D+00 0.362D+00 0.454D+00
 Coeff-En:   0.000D+00 0.000D+00 0.000D+00 0.871D-01 0.913D+00
 Coeff:      0.228D-01-0.265D-01 0.148D+00 0.303D+00 0.553D+00
 Gap=     0.267 Goal=   None    Shift=    0.000
 RMSDP=6.10D-03 MaxDP=3.85D-01 DE=-2.13D-01 OVMax= 6.78D-02

 Cycle   6  Pass 1  IDiag  1:
 RMSU=  3.02D-03    CP:  3.47D-02  2.47D+00  1.30D+00  6.35D-01  6.47D-01
 E= -3010.55792362784     Delta-E=       -0.036675170350 Rises=F Damp=F
 DIIS: error= 8.41D-03 at cycle   6 NSaved=   6.
 NSaved= 6 IEnMin= 6 EnMin= -3010.55792362784     IErMin= 6 ErrMin= 8.41D-03
 ErrMax= 8.41D-03  0.00D+00 EMaxC= 1.00D-01 BMatC= 8.62D-03 BMatP= 7.03D-02
 IDIUse=3 WtCom= 9.16D-01 WtEn= 8.41D-02
 Coeff-Com:  0.365D-02-0.477D-02 0.746D-02 0.544D-01 0.320D+00 0.620D+00
 Coeff-En:   0.000D+00 0.000D+00 0.000D+00 0.000D+00 0.996D-01 0.900D+00
 Coeff:      0.334D-02-0.437D-02 0.683D-02 0.498D-01 0.301D+00 0.643D+00
 Gap=     0.244 Goal=   None    Shift=    0.000
 RMSDP=1.61D-03 MaxDP=1.71D-01 DE=-3.67D-02 OVMax= 1.85D-02

 Cycle   7  Pass 1  IDiag  1:
 RMSU=  6.38D-04    CP:  3.40D-02  2.43D+00  1.28D+00  6.12D-01  7.61D-01
                    CP:  1.09D+00
 E= -3010.56381769301     Delta-E=       -0.005894065178 Rises=F Damp=F
 DIIS: error= 1.15D-03 at cycle   7 NSaved=   7.
 NSaved= 7 IEnMin= 7 EnMin= -3010.56381769301     IErMin= 7 ErrMin= 1.15D-03
 ErrMax= 1.15D-03  0.00D+00 EMaxC= 1.00D-01 BMatC= 1.42D-04 BMatP= 8.62D-03
 IDIUse=3 WtCom= 9.89D-01 WtEn= 1.15D-02
 Coeff-Com: -0.966D-03 0.816D-03-0.104D-01-0.859D-02 0.555D-01 0.203D+00
 Coeff-Com:  0.760D+00
 Coeff-En:   0.000D+00 0.000D+00 0.000D+00 0.000D+00 0.000D+00 0.000D+00
 Coeff-En:   0.100D+01
 Coeff:     -0.955D-03 0.807D-03-0.103D-01-0.849D-02 0.549D-01 0.201D+00
 Coeff:      0.763D+00
 Gap=     0.247 Goal=   None    Shift=    0.000
 RMSDP=4.41D-04 MaxDP=4.30D-02 DE=-5.89D-03 OVMax= 5.84D-03

 Cycle   8  Pass 1  IDiag  1:
 RMSU=  2.61D-04    CP:  3.40D-02  2.44D+00  1.28D+00  6.18D-01  7.67D-01
                    CP:  1.14D+00  1.24D+00
 E= -3010.56395798315     Delta-E=       -0.000140290137 Rises=F Damp=F
 DIIS: error= 8.52D-04 at cycle   8 NSaved=   8.
 NSaved= 8 IEnMin= 8 EnMin= -3010.56395798315     IErMin= 8 ErrMin= 8.52D-04
 ErrMax= 8.52D-04  0.00D+00 EMaxC= 1.00D-01 BMatC= 5.79D-05 BMatP= 1.42D-04
 IDIUse=3 WtCom= 9.91D-01 WtEn= 8.52D-03
 Coeff-Com: -0.138D-02 0.156D-02-0.669D-02-0.933D-02 0.259D-02 0.530D-01
 Coeff-Com:  0.457D+00 0.503D+00
 Coeff-En:   0.000D+00 0.000D+00 0.000D+00 0.000D+00 0.000D+00 0.000D+00
 Coeff-En:   0.000D+00 0.100D+01
 Coeff:     -0.137D-02 0.155D-02-0.664D-02-0.925D-02 0.256D-02 0.525D-01
 Coeff:      0.453D+00 0.507D+00
 Gap=     0.247 Goal=   None    Shift=    0.000
 RMSDP=2.15D-04 MaxDP=1.67D-02 DE=-1.40D-04 OVMax= 4.02D-03

 Cycle   9  Pass 1  IDiag  1:
 RMSU=  1.12D-04    CP:  3.41D-02  2.44D+00  1.29D+00  6.22D-01  7.67D-01
                    CP:  1.16D+00  1.36D+00  9.22D-01
 E= -3010.56400781095     Delta-E=       -0.000049827802 Rises=F Damp=F
 DIIS: error= 2.94D-04 at cycle   9 NSaved=   9.
 NSaved= 9 IEnMin= 9 EnMin= -3010.56400781095     IErMin= 9 ErrMin= 2.94D-04
 ErrMax= 2.94D-04  0.00D+00 EMaxC= 1.00D-01 BMatC= 1.02D-05 BMatP= 5.79D-05
 IDIUse=3 WtCom= 9.97D-01 WtEn= 2.94D-03
 Coeff-Com: -0.103D-02 0.139D-02-0.699D-03-0.268D-02-0.159D-01-0.338D-01
 Coeff-Com:  0.413D-01 0.298D+00 0.714D+00
 Coeff-En:   0.000D+00 0.000D+00 0.000D+00 0.000D+00 0.000D+00 0.000D+00
 Coeff-En:   0.000D+00 0.000D+00 0.100D+01
 Coeff:     -0.103D-02 0.139D-02-0.697D-03-0.268D-02-0.158D-01-0.337D-01
 Coeff:      0.411D-01 0.297D+00 0.715D+00
 Gap=     0.248 Goal=   None    Shift=    0.000
 RMSDP=1.40D-04 MaxDP=9.88D-03 DE=-4.98D-05 OVMax= 1.77D-03

 Cycle  10  Pass 1  IDiag  1:
 RMSU=  7.05D-05    CP:  3.41D-02  2.44D+00  1.29D+00  6.24D-01  7.65D-01
                    CP:  1.17D+00  1.45D+00  9.79D-01  1.37D+00
 E= -3010.56402108732     Delta-E=       -0.000013276369 Rises=F Damp=F
 DIIS: error= 5.78D-05 at cycle  10 NSaved=  10.
 NSaved=10 IEnMin=10 EnMin= -3010.56402108732     IErMin=10 ErrMin= 5.78D-05
 ErrMax= 5.78D-05  0.00D+00 EMaxC= 1.00D-01 BMatC= 1.44D-06 BMatP= 1.02D-05
 IDIUse=1 WtCom= 1.00D+00 WtEn= 0.00D+00
 Coeff-Com: -0.709D-03 0.101D-02 0.692D-03 0.617D-03-0.458D-02-0.175D-01
 Coeff-Com: -0.668D-01 0.118D-01 0.272D+00 0.803D+00
 Coeff:     -0.709D-03 0.101D-02 0.692D-03 0.617D-03-0.458D-02-0.175D-01
 Coeff:     -0.668D-01 0.118D-01 0.272D+00 0.803D+00
 Gap=     0.248 Goal=   None    Shift=    0.000
 RMSDP=3.97D-05 MaxDP=1.90D-03 DE=-1.33D-05 OVMax= 8.71D-04

 Cycle  11  Pass 1  IDiag  1:
 RMSU=  1.76D-05    CP:  3.41D-02  2.44D+00  1.29D+00  6.24D-01  7.65D-01
                    CP:  1.16D+00  1.45D+00  1.02D+00  1.54D+00  1.16D+00
 E= -3010.56402342585     Delta-E=       -0.000002338527 Rises=F Damp=F
 DIIS: error= 2.11D-05 at cycle  11 NSaved=  11.
 NSaved=11 IEnMin=11 EnMin= -3010.56402342585     IErMin=11 ErrMin= 2.11D-05
 ErrMax= 2.11D-05  0.00D+00 EMaxC= 1.00D-01 BMatC= 2.93D-07 BMatP= 1.44D-06
 IDIUse=1 WtCom= 1.00D+00 WtEn= 0.00D+00
 Coeff-Com: -0.408D-03 0.557D-03 0.996D-04 0.625D-03 0.106D-02 0.760D-03
 Coeff-Com: -0.157D-01-0.336D-01-0.410D-01 0.156D+00 0.932D+00
 Coeff:     -0.408D-03 0.557D-03 0.996D-04 0.625D-03 0.106D-02 0.760D-03
 Coeff:     -0.157D-01-0.336D-01-0.410D-01 0.156D+00 0.932D+00
 Gap=     0.248 Goal=   None    Shift=    0.000
 RMSDP=2.76D-05 MaxDP=2.82D-03 DE=-2.34D-06 OVMax= 4.32D-04

 Cycle  12  Pass 1  IDiag  1:
 RMSU=  9.53D-06    CP:  3.41D-02  2.44D+00  1.29D+00  6.24D-01  7.64D-01
                    CP:  1.16D+00  1.45D+00  1.01D+00  1.67D+00  1.33D+00
                    CP:  1.29D+00
 E= -3010.56402391099     Delta-E=       -0.000000485137 Rises=F Damp=F
 DIIS: error= 1.41D-05 at cycle  12 NSaved=  12.
 NSaved=12 IEnMin=12 EnMin= -3010.56402391099     IErMin=12 ErrMin= 1.41D-05
 ErrMax= 1.41D-05  0.00D+00 EMaxC= 1.00D-01 BMatC= 7.60D-08 BMatP= 2.93D-07
 IDIUse=1 WtCom= 1.00D+00 WtEn= 0.00D+00
 Coeff-Com: -0.183D-03 0.237D-03-0.944D-04 0.236D-03 0.132D-02 0.379D-02
 Coeff-Com:  0.995D-02-0.103D-01-0.622D-01-0.934D-01 0.246D+00 0.905D+00
 Coeff:     -0.183D-03 0.237D-03-0.944D-04 0.236D-03 0.132D-02 0.379D-02
 Coeff:      0.995D-02-0.103D-01-0.622D-01-0.934D-01 0.246D+00 0.905D+00
 Gap=     0.248 Goal=   None    Shift=    0.000
 RMSDP=1.17D-05 MaxDP=1.00D-03 DE=-4.85D-07 OVMax= 1.97D-04

 Cycle  13  Pass 1  IDiag  1:
 RMSU=  3.30D-06    CP:  3.41D-02  2.44D+00  1.29D+00  6.24D-01  7.64D-01
                    CP:  1.16D+00  1.45D+00  1.00D+00  1.72D+00  1.40D+00
                    CP:  1.41D+00  1.33D+00
 E= -3010.56402404175     Delta-E=       -0.000000130764 Rises=F Damp=F
 DIIS: error= 5.68D-06 at cycle  13 NSaved=  13.
 NSaved=13 IEnMin=13 EnMin= -3010.56402404175     IErMin=13 ErrMin= 5.68D-06
 ErrMax= 5.68D-06  0.00D+00 EMaxC= 1.00D-01 BMatC= 1.36D-08 BMatP= 7.60D-08
 IDIUse=1 WtCom= 1.00D+00 WtEn= 0.00D+00
 Coeff-Com: -0.336D-04 0.455D-04-0.229D-04-0.535D-04-0.850D-04 0.355D-03
 Coeff-Com:  0.578D-02 0.771D-02 0.141D-02-0.459D-01-0.187D+00 0.143D+00
 Coeff-Com:  0.108D+01
 Coeff:     -0.336D-04 0.455D-04-0.229D-04-0.535D-04-0.850D-04 0.355D-03
 Coeff:      0.578D-02 0.771D-02 0.141D-02-0.459D-01-0.187D+00 0.143D+00
 Coeff:      0.108D+01
 Gap=     0.248 Goal=   None    Shift=    0.000
 RMSDP=5.15D-06 MaxDP=3.51D-04 DE=-1.31D-07 OVMax= 1.18D-04

 Cycle  14  Pass 1  IDiag  1:
 RMSU=  1.92D-06    CP:  3.41D-02  2.44D+00  1.29D+00  6.24D-01  7.64D-01
                    CP:  1.16D+00  1.45D+00  1.00D+00  1.73D+00  1.41D+00
                    CP:  1.50D+00  1.64D+00  1.18D+00
 E= -3010.56402407067     Delta-E=       -0.000000028920 Rises=F Damp=F
 DIIS: error= 2.70D-06 at cycle  14 NSaved=  14.
 NSaved=14 IEnMin=14 EnMin= -3010.56402407067     IErMin=14 ErrMin= 2.70D-06
 ErrMax= 2.70D-06  0.00D+00 EMaxC= 1.00D-01 BMatC= 8.77D-10 BMatP= 1.36D-08
 IDIUse=1 WtCom= 1.00D+00 WtEn= 0.00D+00
 Coeff-Com: -0.540D-05 0.831D-05 0.164D-05-0.356D-04-0.169D-03-0.285D-03
 Coeff-Com:  0.554D-03 0.312D-02 0.680D-02-0.379D-02-0.771D-01-0.543D-01
 Coeff-Com:  0.324D+00 0.801D+00
 Coeff:     -0.540D-05 0.831D-05 0.164D-05-0.356D-04-0.169D-03-0.285D-03
 Coeff:      0.554D-03 0.312D-02 0.680D-02-0.379D-02-0.771D-01-0.543D-01
 Coeff:      0.324D+00 0.801D+00
 Gap=     0.248 Goal=   None    Shift=    0.000
 RMSDP=1.33D-06 MaxDP=1.19D-04 DE=-2.89D-08 OVMax= 2.66D-05

 Cycle  15  Pass 1  IDiag  1:
 RMSU=  5.76D-07    CP:  3.41D-02  2.44D+00  1.29D+00  6.24D-01  7.64D-01
                    CP:  1.16D+00  1.45D+00  1.00D+00  1.73D+00  1.41D+00
                    CP:  1.51D+00  1.70D+00  1.26D+00  1.16D+00
 E= -3010.56402407281     Delta-E=       -0.000000002141 Rises=F Damp=F
 DIIS: error= 5.25D-07 at cycle  15 NSaved=  15.
 NSaved=15 IEnMin=15 EnMin= -3010.56402407281     IErMin=15 ErrMin= 5.25D-07
 ErrMax= 5.25D-07  0.00D+00 EMaxC= 1.00D-01 BMatC= 1.72D-10 BMatP= 8.77D-10
 IDIUse=1 WtCom= 1.00D+00 WtEn= 0.00D+00
 Coeff-Com:  0.175D-05-0.241D-05 0.103D-05-0.562D-05-0.439D-04-0.132D-03
 Coeff-Com: -0.642D-03 0.621D-04 0.240D-02 0.616D-02 0.412D-02-0.440D-01
 Coeff-Com: -0.612D-01 0.322D+00 0.772D+00
 Coeff:      0.175D-05-0.241D-05 0.103D-05-0.562D-05-0.439D-04-0.132D-03
 Coeff:     -0.642D-03 0.621D-04 0.240D-02 0.616D-02 0.412D-02-0.440D-01
 Coeff:     -0.612D-01 0.322D+00 0.772D+00
 Gap=     0.248 Goal=   None    Shift=    0.000
 RMSDP=7.66D-07 MaxDP=7.47D-05 DE=-2.14D-09 OVMax= 8.79D-06

 Cycle  16  Pass 1  IDiag  1:
 RMSU=  1.98D-07    CP:  3.41D-02  2.45D+00  1.29D+00  6.24D-01  7.64D-01
                    CP:  1.16D+00  1.45D+00  1.01D+00  1.73D+00  1.41D+00
                    CP:  1.51D+00  1.71D+00  1.28D+00  1.32D+00  1.09D+00
 E= -3010.56402407311     Delta-E=       -0.000000000293 Rises=F Damp=F
 DIIS: error= 1.75D-07 at cycle  16 NSaved=  16.
 NSaved=16 IEnMin=16 EnMin= -3010.56402407311     IErMin=16 ErrMin= 1.75D-07
 ErrMax= 1.75D-07  0.00D+00 EMaxC= 1.00D-01 BMatC= 1.46D-11 BMatP= 1.72D-10
 IDIUse=1 WtCom= 1.00D+00 WtEn= 0.00D+00
 Coeff-Com:  0.174D-05-0.259D-05-0.174D-05 0.236D-06 0.796D-05 0.575D-05
 Coeff-Com: -0.218D-03-0.356D-03-0.409D-03 0.150D-02 0.117D-01-0.348D-02
 Coeff-Com: -0.576D-01-0.224D-02 0.176D+00 0.875D+00
 Coeff:      0.174D-05-0.259D-05-0.174D-05 0.236D-06 0.796D-05 0.575D-05
 Coeff:     -0.218D-03-0.356D-03-0.409D-03 0.150D-02 0.117D-01-0.348D-02
 Coeff:     -0.576D-01-0.224D-02 0.176D+00 0.875D+00
 Gap=     0.248 Goal=   None    Shift=    0.000
 RMSDP=3.02D-07 MaxDP=3.03D-05 DE=-2.93D-10 OVMax= 4.18D-06

 Cycle  17  Pass 1  IDiag  1:
 RMSU=  7.15D-08    CP:  3.41D-02  2.45D+00  1.29D+00  6.24D-01  7.64D-01
                    CP:  1.16D+00  1.45D+00  1.01D+00  1.73D+00  1.41D+00
                    CP:  1.51D+00  1.72D+00  1.29D+00  1.37D+00  1.24D+00
                    CP:  1.30D+00
 E= -3010.56402407316     Delta-E=       -0.000000000050 Rises=F Damp=F
 DIIS: error= 1.34D-07 at cycle  17 NSaved=  17.
 NSaved=17 IEnMin=17 EnMin= -3010.56402407316     IErMin=17 ErrMin= 1.34D-07
 ErrMax= 1.34D-07  0.00D+00 EMaxC= 1.00D-01 BMatC= 4.78D-12 BMatP= 1.46D-11
 IDIUse=1 WtCom= 1.00D+00 WtEn= 0.00D+00
 Coeff-Com:  0.928D-06-0.132D-05-0.923D-06-0.201D-06 0.756D-05 0.191D-04
 Coeff-Com:  0.306D-04-0.840D-04-0.449D-03-0.435D-03 0.321D-02 0.545D-02
 Coeff-Com: -0.843D-02-0.449D-01-0.795D-01 0.293D+00 0.832D+00
 Coeff:      0.928D-06-0.132D-05-0.923D-06-0.201D-06 0.756D-05 0.191D-04
 Coeff:      0.306D-04-0.840D-04-0.449D-03-0.435D-03 0.321D-02 0.545D-02
 Coeff:     -0.843D-02-0.449D-01-0.795D-01 0.293D+00 0.832D+00
 Gap=     0.248 Goal=   None    Shift=    0.000
 RMSDP=1.06D-07 MaxDP=6.25D-06 DE=-5.00D-11 OVMax= 1.59D-06

 Cycle  18  Pass 1  IDiag  1:
 RMSU=  3.89D-08    CP:  3.41D-02  2.45D+00  1.29D+00  6.24D-01  7.64D-01
                    CP:  1.16D+00  1.45D+00  1.01D+00  1.73D+00  1.41D+00
                    CP:  1.52D+00  1.72D+00  1.29D+00  1.39D+00  1.29D+00
                    CP:  1.43D+00  1.36D+00
 E= -3010.56402407316     Delta-E=       -0.000000000008 Rises=F Damp=F
 DIIS: error= 4.19D-08 at cycle  18 NSaved=  18.
 NSaved=18 IEnMin=18 EnMin= -3010.56402407316     IErMin=18 ErrMin= 4.19D-08
 ErrMax= 4.19D-08  0.00D+00 EMaxC= 1.00D-01 BMatC= 8.41D-13 BMatP= 4.78D-12
 IDIUse=1 WtCom= 1.00D+00 WtEn= 0.00D+00
 Coeff-Com:  0.320D-06-0.393D-06 0.220D-06-0.633D-06-0.104D-05 0.149D-05
 Coeff-Com:  0.452D-04 0.507D-04-0.144D-04-0.441D-03-0.213D-02 0.164D-02
 Coeff-Com:  0.119D-01-0.507D-02-0.545D-01-0.132D+00 0.194D+00 0.986D+00
 Coeff:      0.320D-06-0.393D-06 0.220D-06-0.633D-06-0.104D-05 0.149D-05
 Coeff:      0.452D-04 0.507D-04-0.144D-04-0.441D-03-0.213D-02 0.164D-02
 Coeff:      0.119D-01-0.507D-02-0.545D-01-0.132D+00 0.194D+00 0.986D+00
 Gap=     0.248 Goal=   None    Shift=    0.000
 RMSDP=7.25D-08 MaxDP=4.98D-06 DE=-7.73D-12 OVMax= 1.13D-06

 Cycle  19  Pass 1  IDiag  1:
 RMSU=  1.67D-08    CP:  3.41D-02  2.45D+00  1.29D+00  6.24D-01  7.64D-01
                    CP:  1.16D+00  1.45D+00  1.01D+00  1.73D+00  1.41D+00
                    CP:  1.52D+00  1.72D+00  1.29D+00  1.40D+00  1.30D+00
                    CP:  1.48D+00  1.65D+00  1.28D+00
 E= -3010.56402407318     Delta-E=       -0.000000000021 Rises=F Damp=F
 DIIS: error= 2.37D-08 at cycle  19 NSaved=  19.
 NSaved=19 IEnMin=19 EnMin= -3010.56402407318     IErMin=19 ErrMin= 2.37D-08
 ErrMax= 2.37D-08  0.00D+00 EMaxC= 1.00D-01 BMatC= 1.06D-13 BMatP= 8.41D-13
 IDIUse=1 WtCom= 1.00D+00 WtEn= 0.00D+00
 Coeff-Com:  0.798D-07-0.863D-07 0.218D-06-0.216D-06-0.161D-05-0.254D-05
 Coeff-Com:  0.789D-05 0.255D-04 0.656D-04-0.613D-04-0.114D-02-0.223D-03
 Coeff-Com:  0.488D-02 0.486D-02-0.417D-02-0.877D-01-0.497D-01 0.293D+00
 Coeff-Com:  0.840D+00
 Coeff:      0.798D-07-0.863D-07 0.218D-06-0.216D-06-0.161D-05-0.254D-05
 Coeff:      0.789D-05 0.255D-04 0.656D-04-0.613D-04-0.114D-02-0.223D-03
 Coeff:      0.488D-02 0.486D-02-0.417D-02-0.877D-01-0.497D-01 0.293D+00
 Coeff:      0.840D+00
 Gap=     0.248 Goal=   None    Shift=    0.000
 RMSDP=2.64D-08 MaxDP=1.95D-06 DE=-2.14D-11 OVMax= 3.66D-07

 Cycle  20  Pass 1  IDiag  1:
 RMSU=  5.26D-09    CP:  3.41D-02  2.45D+00  1.29D+00  6.24D-01  7.64D-01
                    CP:  1.16D+00  1.45D+00  1.01D+00  1.73D+00  1.41D+00
                    CP:  1.52D+00  1.72D+00  1.29D+00  1.40D+00  1.30D+00
                    CP:  1.48D+00  1.74D+00  1.46D+00  1.31D+00
 E= -3010.56402407315     Delta-E=        0.000000000039 Rises=F Damp=F
 DIIS: error= 6.40D-09 at cycle  20 NSaved=  20.
 NSaved=20 IEnMin=19 EnMin= -3010.56402407318     IErMin=20 ErrMin= 6.40D-09
 ErrMax= 6.40D-09  0.00D+00 EMaxC= 1.00D-01 BMatC= 2.02D-14 BMatP= 1.06D-13
 IDIUse=1 WtCom= 1.00D+00 WtEn= 0.00D+00
 Coeff-Com:  0.244D-07-0.355D-07 0.194D-07 0.487D-07-0.191D-06-0.643D-06
 Coeff-Com: -0.599D-05-0.274D-05 0.182D-04 0.619D-04 0.784D-04-0.338D-03
 Coeff-Com: -0.111D-02 0.199D-02 0.982D-02 0.166D-02-0.421D-01-0.127D+00
 Coeff-Com:  0.267D+00 0.890D+00
 Coeff:      0.244D-07-0.355D-07 0.194D-07 0.487D-07-0.191D-06-0.643D-06
 Coeff:     -0.599D-05-0.274D-05 0.182D-04 0.619D-04 0.784D-04-0.338D-03
 Coeff:     -0.111D-02 0.199D-02 0.982D-02 0.166D-02-0.421D-01-0.127D+00
 Coeff:      0.267D+00 0.890D+00
 Gap=     0.248 Goal=   None    Shift=    0.000
 RMSDP=9.26D-09 MaxDP=4.70D-07 DE= 3.91D-11 OVMax= 1.36D-07

 SCF Done:  E(RwB97XD) =  -3010.56402407     A.U. after   20 cycles
            NFock= 20  Conv=0.93D-08     -V/T= 2.0016
 KE= 3.005849739179D+03 PE=-8.635977195051D+03 EE= 1.877056928213D+03
 Leave Link  502 at Wed May  1 15:12:33 2024, MaxMem=  1207959552 cpu:            1119.8 elap:            1120.1
 (Enter /software/gaussian/g16-c01/sse4/g16/l601.exe)
 Copying SCF densities to generalized density rwf, IOpCl= 0 IROHF=0.

 **********************************************************************

            Population analysis using the SCF Density.

 **********************************************************************

 Alpha  occ. eigenvalues -- -483.36168 -62.91249 -56.70855 -56.70406 -56.70404
 Alpha  occ. eigenvalues --  -19.47068 -19.46966 -14.86541 -10.60768 -10.59146
 Alpha  occ. eigenvalues --  -10.58615 -10.58433 -10.58096 -10.54203  -9.07093
 Alpha  occ. eigenvalues --   -6.89532  -6.88030  -6.88026  -2.99493  -2.99086
 Alpha  occ. eigenvalues --   -2.99082  -2.97878  -2.97878  -1.50776  -1.33746
 Alpha  occ. eigenvalues --   -1.24342  -1.16565  -1.13262  -1.08059  -1.02317
 Alpha  occ. eigenvalues --   -0.97084  -0.92333  -0.86435  -0.82122  -0.81825
 Alpha  occ. eigenvalues --   -0.81172  -0.79517  -0.77347  -0.77235  -0.74903
 Alpha  occ. eigenvalues --   -0.70761  -0.68992  -0.65948  -0.63855  -0.62010
 Alpha  occ. eigenvalues --   -0.58546  -0.58138  -0.57189  -0.56709
 Alpha virt. eigenvalues --   -0.31893  -0.23740  -0.22391  -0.19188  -0.16786
 Alpha virt. eigenvalues --   -0.15573  -0.14402  -0.11469  -0.09969  -0.09748
 Alpha virt. eigenvalues --   -0.06657  -0.05587  -0.04297  -0.03310  -0.03058
 Alpha virt. eigenvalues --   -0.01601  -0.00396   0.00188   0.01186   0.01651
 Alpha virt. eigenvalues --    0.03642   0.04425   0.05218   0.05561   0.06250
 Alpha virt. eigenvalues --    0.07085   0.07581   0.08109   0.08782   0.09618
 Alpha virt. eigenvalues --    0.10261   0.10745   0.11289   0.12272   0.12518
 Alpha virt. eigenvalues --    0.12883   0.14160   0.14949   0.15528   0.16110
 Alpha virt. eigenvalues --    0.16558   0.16862   0.18000   0.18545   0.19017
 Alpha virt. eigenvalues --    0.20474   0.20615   0.22116   0.22265   0.23393
 Alpha virt. eigenvalues --    0.24087   0.25000   0.26768   0.27880   0.27969
 Alpha virt. eigenvalues --    0.28621   0.31018   0.33500   0.33996   0.35528
 Alpha virt. eigenvalues --    0.36723   0.37119   0.37793   0.39254   0.40006
 Alpha virt. eigenvalues --    0.42176   0.42633   0.44227   0.46041   0.46650
 Alpha virt. eigenvalues --    0.46916   0.48082   0.48495   0.50891   0.52542
 Alpha virt. eigenvalues --    0.53079   0.54004   0.54976   0.56608   0.58396
 Alpha virt. eigenvalues --    0.59831   0.61109   0.62063   0.64324   0.67569
 Alpha virt. eigenvalues --    0.69378   0.70135   0.71647   0.72245   0.72977
 Alpha virt. eigenvalues --    0.73574   0.78070   0.78669   0.80292   0.83300
 Alpha virt. eigenvalues --    0.84517   0.86768   0.90866   0.91349   0.97091
 Alpha virt. eigenvalues --    0.98635   0.99745   1.03010   1.04277   1.05272
 Alpha virt. eigenvalues --    1.07326   1.10184   1.10747   1.11379   1.13206
 Alpha virt. eigenvalues --    1.21012   1.23481   1.25705   1.31578   1.35199
 Alpha virt. eigenvalues --    1.35631   1.36463   1.43293   1.53059   1.55841
 Alpha virt. eigenvalues --    1.57202   1.57402   1.59395   1.61088   1.64757
 Alpha virt. eigenvalues --    1.67813   1.68101   1.72183   1.74149   1.77676
 Alpha virt. eigenvalues --    1.79757   1.84245   1.85574   1.88268   1.90562
 Alpha virt. eigenvalues --    1.95935   2.01489   2.02000   2.03854   2.06332
 Alpha virt. eigenvalues --    2.07946   2.13211   2.19173   2.21505   2.28361
 Alpha virt. eigenvalues --    2.36570   2.39935   2.41714   2.42395   2.51178
 Alpha virt. eigenvalues --    2.55577   2.61791   2.64773   2.66941   2.70543
 Alpha virt. eigenvalues --    2.72176   2.75292   2.76130   2.79622   2.80258
 Alpha virt. eigenvalues --    2.91754   2.94771   2.99513   3.03994   3.07471
 Alpha virt. eigenvalues --    3.11776   3.13608   3.17849   3.22459   3.23093
 Alpha virt. eigenvalues --    3.26215   3.37901   3.46401   3.49949   3.53156
 Alpha virt. eigenvalues --    3.55574   3.68755   3.72985   3.80732   3.85628
 Alpha virt. eigenvalues --    4.03456   4.03719   4.11687   4.16816   4.37784
 Alpha virt. eigenvalues --    4.43219   4.55845   4.58651   4.92071   4.94742
 Alpha virt. eigenvalues --    5.03376   5.07542   5.61667   6.14629   6.59423
 Alpha virt. eigenvalues --    7.42074   7.43697   7.53768  23.19685  23.59832
 Alpha virt. eigenvalues --   23.67253  23.77851  23.94623  23.99927  35.31419
 Alpha virt. eigenvalues --   47.86149  49.84376  49.93188 289.75519 289.77191
 Alpha virt. eigenvalues --  289.896981020.86645
          Condensed to atoms (all electrons):
               1          2          3          4          5          6
     1  C    9.313199  -3.285427   0.832884  -2.102961  -1.122592   0.343782
     2  C   -3.285427  15.964514  -3.606264  -2.347578   2.005682  -0.040422
     3  C    0.832884  -3.606264  13.926373  -2.887544  -1.962627   0.032333
     4  C   -2.102961  -2.347578  -2.887544  15.675440   1.665108   0.021903
     5  C   -1.122592   2.005682  -1.962627   1.665108   8.733460  -0.011148
     6  H    0.343782  -0.040422   0.032333   0.021903  -0.011148   0.322545
     7  H    0.060949   0.211007   0.094679  -0.022477  -0.019696  -0.001439
     8  H    0.008882  -0.021160   0.077922   0.234778  -0.028084  -0.000005
     9  H    0.025350  -0.026447   0.014654  -0.017463   0.299470  -0.001720
    10  N   -0.180375   0.384967  -1.234549   0.538310   0.049983  -0.000813
    11  O    0.011676   0.082997  -0.178910  -0.163646  -0.040482  -0.000062
    12  O    0.324021  -0.152221  -0.165938  -0.065927  -0.051218   0.000069
    13  C    2.284891  -3.519592   1.689225  -4.899179  -3.515069  -0.013963
    14  H   -0.010676   0.010741  -0.008595  -0.055368  -0.013866   0.000006
    15  Br   0.136018  -0.262453   0.112788   0.117422  -0.074861  -0.000558
               7          8          9         10         11         12
     1  C    0.060949   0.008882   0.025350  -0.180375   0.011676   0.324021
     2  C    0.211007  -0.021160  -0.026447   0.384967   0.082997  -0.152221
     3  C    0.094679   0.077922   0.014654  -1.234549  -0.178910  -0.165938
     4  C   -0.022477   0.234778  -0.017463   0.538310  -0.163646  -0.065927
     5  C   -0.019696  -0.028084   0.299470   0.049983  -0.040482  -0.051218
     6  H   -0.001439  -0.000005  -0.001720  -0.000813  -0.000062   0.000069
     7  H    0.297266  -0.000012   0.000039  -0.030436  -0.001500   0.022920
     8  H   -0.000012   0.281935   0.000058  -0.026328   0.019229  -0.000043
     9  H    0.000039   0.000058   0.305738   0.000189   0.000018   0.000016
    10  N   -0.030436  -0.026328   0.000189   7.603941   0.089115   0.093641
    11  O   -0.001500   0.019229   0.000018   0.089115   7.902542  -0.005341
    12  O    0.022920  -0.000043   0.000016   0.093641  -0.005341   7.913025
    13  C    0.014745   0.071015   0.039337  -0.183822   0.250788   0.049262
    14  H   -0.000013  -0.001653  -0.003098   0.001354  -0.000507  -0.000137
    15  Br   0.000239  -0.002856  -0.002840   0.006264  -0.004779   0.004129
              13         14         15
     1  C    2.284891  -0.010676   0.136018
     2  C   -3.519592   0.010741  -0.262453
     3  C    1.689225  -0.008595   0.112788
     4  C   -4.899179  -0.055368   0.117422
     5  C   -3.515069  -0.013866  -0.074861
     6  H   -0.013963   0.000006  -0.000558
     7  H    0.014745  -0.000013   0.000239
     8  H    0.071015  -0.001653  -0.002856
     9  H    0.039337  -0.003098  -0.002840
    10  N   -0.183822   0.001354   0.006264
    11  O    0.250788  -0.000507  -0.004779
    12  O    0.049262  -0.000137   0.004129
    13  C   13.863625   0.360021  -0.029954
    14  H    0.360021   0.230257  -0.011594
    15  Br  -0.029954  -0.011594  35.112959
 Mulliken charges:
               1
     1  C   -0.639623
     2  C    0.601656
     3  C   -0.736432
     4  C    0.309180
     5  C    0.085940
     6  H    0.349493
     7  H    0.373731
     8  H    0.386324
     9  H    0.366696
    10  N   -0.111443
    11  O    0.038862
    12  O    0.033743
    13  C   -0.461331
    14  H    0.503127
    15  Br  -0.099922
 Sum of Mulliken charges =   1.00000
 Mulliken charges with hydrogens summed into heavy atoms:
               1
     1  C   -0.290130
     2  C    0.975387
     3  C   -0.736432
     4  C    0.695504
     5  C    0.452636
    10  N   -0.111443
    11  O    0.038862
    12  O    0.033743
    13  C    0.041795
    15  Br  -0.099922
 Electronic spatial extent (au):  <R**2>=           2803.5194
 Charge=              1.0000 electrons
 Dipole moment (field-independent basis, Debye):
    X=             -0.1187    Y=              0.4758    Z=              5.0574  Tot=              5.0811
 Quadrupole moment (field-independent basis, Debye-Ang):
   XX=            -70.3144   YY=            -53.5692   ZZ=            -68.8925
   XY=              0.5426   XZ=              3.4244   YZ=             -2.6836
 Traceless Quadrupole moment (field-independent basis, Debye-Ang):
   XX=             -6.0557   YY=             10.6895   ZZ=             -4.6338
   XY=              0.5426   XZ=              3.4244   YZ=             -2.6836
 Octapole moment (field-independent basis, Debye-Ang**2):
  XXX=           -293.6555  YYY=             95.5861  ZZZ=            102.5040  XYY=            -73.3731
  XXY=             31.5728  XXZ=             49.3652  XZZ=            -75.1048  YZZ=             28.2998
  YYZ=             40.9839  XYZ=             -0.4542
 Hexadecapole moment (field-independent basis, Debye-Ang**3):
 XXXX=          -2260.9204 YYYY=           -695.1456 ZZZZ=           -409.4046 XXXY=            -71.6098
 XXXZ=             24.5390 YYYX=            -64.7709 YYYZ=           -182.7396 ZZZX=            -22.4222
 ZZZY=           -171.8082 XXYY=           -456.7604 XXZZ=           -379.8806 YYZZ=           -191.4827
 XXYZ=            -58.9181 YYXZ=             -2.5108 ZZXY=            -15.4546
 N-N= 7.425065035860D+02 E-N=-8.635977194743D+03  KE= 3.005849739179D+03
 No NMR shielding tensors so no spin-rotation constants.
 Leave Link  601 at Wed May  1 15:12:40 2024, MaxMem=  1207959552 cpu:               7.3 elap:               7.3
 (Enter /software/gaussian/g16-c01/sse4/g16/l9999.exe)
 Unable to Open any file for archive entry.
 1\1\GINC-BHX0007\SP\RwB97XD\6-311+G(d)\C6H5Br1N1O2(1+)\BWEIGHT\01-May-
 2024\0\\#P wB97XD/6-311+G* NoSymm #P Field=Z-291\\TitleMe\\1,1\C,0,0.0
 295,1.3397,0.0682\C,0,1.4348,1.2867,0.0064\C,0,2.1118,0.0511,-0.0054\C
 ,0,1.4451,-1.1372,0.0312\C,0,-0.6879,0.1682,0.11\H,0,-0.4713,2.2984,0.
 0781\H,0,2.0273,2.1965,-0.0322\H,0,1.9897,-2.0764,0.0232\H,0,-1.7716,0
 .1804,0.1582\N,0,3.5864,0.051,-0.0675\O,0,4.1471,-1.0597,-0.0881\O,0,4
 .145,1.1639,-0.0901\C,0,-0.0236,-1.1458,0.0835\H,0,-0.4367,-1.8725,0.7
 889\Br,0,-0.5359,-1.8697,-1.7408\\Version=ES64L-G16RevC.01\HF=-3010.56
 40241\RMSD=9.261e-09\Dipole=-1.9532199,1.3352628,3.1359072\Quadrupole=
 -4.5022785,7.9473894,-3.4451108,0.4034207,2.5459793,-1.9952087\PG=C01 
 [X(C6H5Br1N1O2)]\\@
 The archive entry for this job was punched.


 NOTHING WILL BE ATTEMPTED IF ALL POSSIBLE OBJECTIONS
 MUST FIRST BE OVERCOME.

                               -- THE GOLDEN PRINCIPLE,
                    PAUL DICKSON'S "THE OFFICIAL RULES"
 Job cpu time:       0 days  0 hours 19 minutes 46.3 seconds.
 Elapsed time:       0 days  0 hours 19 minutes 46.6 seconds.
 File lengths (MBytes):  RWF=     40 Int=      0 D2E=      0 Chk=     32 Scr=      1
 Normal termination of Gaussian 16 at Wed May  1 15:12:41 2024.
