 Entering Gaussian System, Link 0=g16
 Initial command:
 /software/gaussian/g16-c01/sse4/g16/l1.exe "/local_scratch/24657565/Gau-1643.inp" -scrdir="/local_scratch/24657565/"
 Entering Link 1 = /software/gaussian/g16-c01/sse4/g16/l1.exe PID=      1655.
  
 Copyright (c) 1988-2019, Gaussian, Inc.  All Rights Reserved.
  
 This is part of the Gaussian(R) 16 program.  It is based on
 the Gaussian(R) 09 system (copyright 2009, Gaussian, Inc.),
 the Gaussian(R) 03 system (copyright 2003, Gaussian, Inc.),
 the Gaussian(R) 98 system (copyright 1998, Gaussian, Inc.),
 the Gaussian(R) 94 system (copyright 1995, Gaussian, Inc.),
 the Gaussian 92(TM) system (copyright 1992, Gaussian, Inc.),
 the Gaussian 90(TM) system (copyright 1990, Gaussian, Inc.),
 the Gaussian 88(TM) system (copyright 1988, Gaussian, Inc.),
 the Gaussian 86(TM) system (copyright 1986, Carnegie Mellon
 University), and the Gaussian 82(TM) system (copyright 1983,
 Carnegie Mellon University). Gaussian is a federally registered
 trademark of Gaussian, Inc.
  
 This software contains proprietary and confidential information,
 including trade secrets, belonging to Gaussian, Inc.
  
 This software is provided under written license and may be
 used, copied, transmitted, or stored only in accord with that
 written license.
  
 The following legend is applicable only to US Government
 contracts under FAR:
  
                    RESTRICTED RIGHTS LEGEND
  
 Use, reproduction and disclosure by the US Government is
 subject to restrictions as set forth in subparagraphs (a)
 and (c) of the Commercial Computer Software - Restricted
 Rights clause in FAR 52.227-19.
  
 Gaussian, Inc.
 340 Quinnipiac St., Bldg. 40, Wallingford CT 06492
  
  
 ---------------------------------------------------------------
 Warning -- This program may not be used in any manner that
 competes with the business of Gaussian, Inc. or will provide
 assistance to any competitor of Gaussian, Inc.  The licensee
 of this program is prohibited from giving any competitor of
 Gaussian, Inc. access to this program.  By using this program,
 the user acknowledges that Gaussian, Inc. is engaged in the
 business of creating and licensing software in the field of
 computational chemistry and represents and warrants to the
 licensee that it is not a competitor of Gaussian, Inc. and that
 it will not use this program in any manner prohibited above.
 ---------------------------------------------------------------
  

 Cite this work as:
 Gaussian 16, Revision C.01,
 M. J. Frisch, G. W. Trucks, H. B. Schlegel, G. E. Scuseria, 
 M. A. Robb, J. R. Cheeseman, G. Scalmani, V. Barone, 
 G. A. Petersson, H. Nakatsuji, X. Li, M. Caricato, A. V. Marenich, 
 J. Bloino, B. G. Janesko, R. Gomperts, B. Mennucci, H. P. Hratchian, 
 J. V. Ortiz, A. F. Izmaylov, J. L. Sonnenberg, D. Williams-Young, 
 F. Ding, F. Lipparini, F. Egidi, J. Goings, B. Peng, A. Petrone, 
 T. Henderson, D. Ranasinghe, V. G. Zakrzewski, J. Gao, N. Rega, 
 G. Zheng, W. Liang, M. Hada, M. Ehara, K. Toyota, R. Fukuda, 
 J. Hasegawa, M. Ishida, T. Nakajima, Y. Honda, O. Kitao, H. Nakai, 
 T. Vreven, K. Throssell, J. A. Montgomery, Jr., J. E. Peralta, 
 F. Ogliaro, M. J. Bearpark, J. J. Heyd, E. N. Brothers, K. N. Kudin, 
 V. N. Staroverov, T. A. Keith, R. Kobayashi, J. Normand, 
 K. Raghavachari, A. P. Rendell, J. C. Burant, S. S. Iyengar, 
 J. Tomasi, M. Cossi, J. M. Millam, M. Klene, C. Adamo, R. Cammi, 
 J. W. Ochterski, R. L. Martin, K. Morokuma, O. Farkas, 
 J. B. Foresman, and D. J. Fox, Gaussian, Inc., Wallingford CT, 2019.
 
 ******************************************
 Gaussian 16:  ES64L-G16RevC.01  3-Jul-2019
                 1-May-2024 
 ******************************************
 %chk=geometry.chk
 %mem=9GB
 %nprocshared=12
 Will use up to   12 processors via shared memory.
 ---------------------------------------
 #P wB97XD/6-311+G* NoSymm #P Field=Z+38
 ---------------------------------------
 1/38=1,172=1/1;
 2/12=2,15=1,17=6,18=5,40=1/2;
 3/5=4,6=6,7=11,11=2,14=3,15=38,25=1,30=1,74=-58/1,2,3;
 4//1;
 5/5=2,38=5/2;
 6/7=2,8=2,9=2,10=2,28=1/1;
 99/5=1,9=1/99;
 Leave Link    1 at Wed May  1 15:07:01 2024, MaxMem=  1207959552 cpu:               0.7 elap:               0.7
 (Enter /software/gaussian/g16-c01/sse4/g16/l101.exe)
 -------
 TitleMe
 -------
 Symbolic Z-matrix:
 Charge =  1 Multiplicity = 1
 C                     0.0295    1.3397    0.0682 
 C                     1.4348    1.2867    0.0064 
 C                     2.1118    0.0511   -0.0054 
 C                     1.4451   -1.1372    0.0312 
 C                    -0.6879    0.1682    0.11 
 H                    -0.4713    2.2984    0.0781 
 H                     2.0273    2.1965   -0.0322 
 H                     1.9897   -2.0764    0.0232 
 H                    -1.7716    0.1804    0.1582 
 N                     3.5864    0.051    -0.0675 
 O                     4.1471   -1.0597   -0.0881 
 O                     4.145     1.1639   -0.0901 
 C                    -0.0236   -1.1458    0.0835 
 H                    -0.4367   -1.8725    0.7889 
 Br                   -0.5359   -1.8697   -1.7408 
 
 ITRead=  0  0  0  0  0  0  0  0  0  0  0  0  0  0  0
 MicOpt= -1 -1 -1 -1 -1 -1 -1 -1 -1 -1 -1 -1 -1 -1 -1
 NAtoms=     15 NQM=       15 NQMF=       0 NMMI=      0 NMMIF=      0
                NMic=       0 NMicF=      0.
                    Isotopes and Nuclear Properties:
 (Nuclear quadrupole moments (NQMom) in fm**2, nuclear magnetic moments (NMagM)
  in nuclear magnetons)

  Atom         1           2           3           4           5           6           7           8           9          10
 IAtWgt=          12          12          12          12          12           1           1           1           1          14
 AtmWgt=  12.0000000  12.0000000  12.0000000  12.0000000  12.0000000   1.0078250   1.0078250   1.0078250   1.0078250  14.0030740
 NucSpn=           0           0           0           0           0           1           1           1           1           2
 AtZEff=  -0.0000000  -0.0000000  -0.0000000  -0.0000000  -0.0000000  -0.0000000  -0.0000000  -0.0000000  -0.0000000  -0.0000000
 NQMom=    0.0000000   0.0000000   0.0000000   0.0000000   0.0000000   0.0000000   0.0000000   0.0000000   0.0000000   2.0440000
 NMagM=    0.0000000   0.0000000   0.0000000   0.0000000   0.0000000   2.7928460   2.7928460   2.7928460   2.7928460   0.4037610
 AtZNuc=   6.0000000   6.0000000   6.0000000   6.0000000   6.0000000   1.0000000   1.0000000   1.0000000   1.0000000   7.0000000

  Atom        11          12          13          14          15
 IAtWgt=          16          16          12           1          79
 AtmWgt=  15.9949146  15.9949146  12.0000000   1.0078250  78.9183361
 NucSpn=           0           0           0           1           3
 AtZEff=  -0.0000000  -0.0000000  -0.0000000  -0.0000000  -0.0000000
 NQMom=    0.0000000   0.0000000   0.0000000   0.0000000  31.3000000
 NMagM=    0.0000000   0.0000000   0.0000000   2.7928460   2.1063990
 AtZNuc=   8.0000000   8.0000000   6.0000000   1.0000000  35.0000000
 Leave Link  101 at Wed May  1 15:07:02 2024, MaxMem=  1207959552 cpu:               1.4 elap:               1.4
 (Enter /software/gaussian/g16-c01/sse4/g16/l202.exe)
                          Input orientation:                          
 ---------------------------------------------------------------------
 Center     Atomic      Atomic             Coordinates (Angstroms)
 Number     Number       Type             X           Y           Z
 ---------------------------------------------------------------------
      1          6           0        0.029500    1.339700    0.068200
      2          6           0        1.434800    1.286700    0.006400
      3          6           0        2.111800    0.051100   -0.005400
      4          6           0        1.445100   -1.137200    0.031200
      5          6           0       -0.687900    0.168200    0.110000
      6          1           0       -0.471300    2.298400    0.078100
      7          1           0        2.027300    2.196500   -0.032200
      8          1           0        1.989700   -2.076400    0.023200
      9          1           0       -1.771600    0.180400    0.158200
     10          7           0        3.586400    0.051000   -0.067500
     11          8           0        4.147100   -1.059700   -0.088100
     12          8           0        4.145000    1.163900   -0.090100
     13          6           0       -0.023600   -1.145800    0.083500
     14          1           0       -0.436700   -1.872500    0.788900
     15         35           0       -0.535900   -1.869700   -1.740800
 ---------------------------------------------------------------------
                    Distance matrix (angstroms):
                    1          2          3          4          5
     1  C    0.000000
     2  C    1.407656   0.000000
     3  C    2.449874   1.408963   0.000000
     4  C    2.853126   2.424049   1.363043   0.000000
     5  C    1.374344   2.401589   2.804523   2.501993   0.000000
     6  H    1.081667   2.159142   3.424870   3.934226   2.141421
     7  H    2.176095   1.086408   2.147231   3.384750   3.392128
     8  H    3.938800   3.408612   2.131193   1.085702   3.495040
     9  H    2.143837   3.395283   3.888995   3.478413   1.084840
    10  N    3.785591   2.482297   1.475907   2.450862   4.279589
    11  O    4.768247   3.587631   2.320164   2.705743   4.992415
    12  O    4.122294   2.714696   2.319353   3.549540   4.938459
    13  C    2.486114   2.837240   2.449573   1.469656   1.472614
    14  H    3.324903   3.754379   3.290289   2.157764   2.165286
    15  Br   3.727252   4.110867   3.702891   2.756973   2.757100
                    6          7          8          9         10
     6  H    0.000000
     7  H    2.503108   0.000000
     8  H    5.019802   4.273425   0.000000
     9  H    2.486588   4.304945   4.388479   0.000000
    10  N    4.640790   2.652397   2.661486   5.364313   0.000000
    11  O    5.712624   3.885809   2.387560   6.052233   1.244373
    12  O    4.756638   2.356750   3.893289   6.002923   1.245428
    13  C    3.473180   3.923079   2.218790   2.195425   3.806210
    14  H    4.231175   4.827242   2.552506   2.528663   4.540772
    15  Br   4.548146   5.101303   3.087568   3.055498   4.845862
                   11         12         13         14         15
    11  O    0.000000
    12  O    2.223602   0.000000
    13  C    4.175117   4.768865   0.000000
    14  H    4.737193   5.566358   1.093770   0.000000
    15  Br   5.031700   5.817075   2.028436   2.531646   0.000000
 Symmetry turned off by external request.
 Stoichiometry    C6H5BrNO2(1+)
 Framework group  C1[X(C6H5BrNO2)]
 Deg. of freedom    39
 Full point group                 C1      NOp   1
 Rotational constants (GHZ):           1.8252210           0.5518633           0.4576002
 Leave Link  202 at Wed May  1 15:07:03 2024, MaxMem=  1207959552 cpu:               1.1 elap:               1.1
 (Enter /software/gaussian/g16-c01/sse4/g16/l301.exe)
 Standard basis: 6-311+G(d) (5D, 7F)
 Ernie: Thresh=  0.10000D-02 Tol=  0.10000D-05 Strict=F.
 The following finite field(s) will be applied:
 An electric field of              0.0000  0.0000  0.0038
   261 basis functions,   443 primitive gaussians,   273 cartesian basis functions
    49 alpha electrons       49 beta electrons
       nuclear repulsion energy       739.2122215416 Hartrees.
 IExCor= 4639 DFT=T Ex+Corr=wB97XD ExCW=0 ScaHFX=  1.000000
 ScaDFX=  1.000000  1.000000  1.000000  1.000000 ScalE2=  1.000000  1.000000
 IRadAn=      5 IRanWt=     -1 IRanGd=            0 ICorTp=0 IEmpDi=121
 HFx  wShort=  0.000000 wLong=  0.200000 cFull=  0.222036 cShort=  0.000000 cLong=  0.777964
 DFx  wShort=  0.000000 wLong=  0.200000 cFull=  0.000000 cShort=  0.000000 cLong=  1.000000
 NAtoms=   15 NActive=   15 NUniq=   15 SFac= 1.00D+00 NAtFMM=   60 NAOKFM=F Big=F
 Integral buffers will be    131072 words long.
 Raffenetti 2 integral format.
 Two-electron integral symmetry is turned off.
 R6Disp:  Grimme-D2 Dispersion energy=       -0.0077368520 Hartrees.
 Nuclear repulsion after empirical dispersion term =      739.2044846896 Hartrees.
 Leave Link  301 at Wed May  1 15:07:04 2024, MaxMem=  1207959552 cpu:               0.9 elap:               0.9
 (Enter /software/gaussian/g16-c01/sse4/g16/l302.exe)
 NPDir=0 NMtPBC=     1 NCelOv=     1 NCel=       1 NClECP=     1 NCelD=      1
         NCelK=      1 NCelE2=     1 NClLst=     1 CellRange=     0.0.
 One-electron integrals computed using PRISM.
 NBasis=   261 RedAO= T EigKep=  2.35D-06  NBF=   261
 NBsUse=   261 1.00D-06 EigRej= -1.00D+00 NBFU=   261
 Precomputing XC quadrature grid using
 IXCGrd= 4 IRadAn=           5 IRanWt=          -1 IRanGd=           0 AccXCQ= 0.00D+00.
 Generated NRdTot=       0 NPtTot=           0 NUsed=           0 NTot=          32
 NSgBfM=   273   273   273   273   273 MxSgAt=    15 MxSgA2=    15.
 Leave Link  302 at Wed May  1 15:07:25 2024, MaxMem=  1207959552 cpu:              20.8 elap:              20.8
 (Enter /software/gaussian/g16-c01/sse4/g16/l303.exe)
 DipDrv:  MaxL=1.
 The nuclear repulsion energy is now       738.7732932186 hartrees.
 Leave Link  303 at Wed May  1 15:07:28 2024, MaxMem=  1207959552 cpu:               3.3 elap:               3.3
 (Enter /software/gaussian/g16-c01/sse4/g16/l401.exe)
 ExpMin= 3.50D-02 ExpMax= 4.40D+05 ExpMxC= 1.51D+04 IAcc=3 IRadAn=         5 AccDes= 0.00D+00
 Harris functional with IExCor= 4639 and IRadAn=       5 diagonalized for initial guess.
 HarFok:  IExCor= 4639 AccDes= 0.00D+00 IRadAn=         5 IDoV= 1 UseB2=F ITyADJ=14
 ICtDFT=  3500011 ScaDFX=  1.000000  1.000000  1.000000  1.000000
 FoFCou: FMM=F IPFlag=           0 FMFlag=      100000 FMFlg1=           0
         NFxFlg=           0 DoJE=T BraDBF=F KetDBF=T FulRan=T
         wScrn=  0.000000 ICntrl=       500 IOpCl=  0 I1Cent=   200000004 NGrid=           0
         NMat0=    1 NMatS0=      1 NMatT0=    0 NMatD0=    1 NMtDS0=    0 NMtDT0=    0
 Symmetry not used in FoFCou.
 Harris En= -2970.59558551164    
 JPrj=0 DoOrth=F DoCkMO=F.
 Leave Link  401 at Wed May  1 15:07:58 2024, MaxMem=  1207959552 cpu:              29.5 elap:              29.5
 (Enter /software/gaussian/g16-c01/sse4/g16/l502.exe)
 Two-electron integral symmetry not used.
 Closed shell SCF:
 Using DIIS extrapolation, IDIIS=  1040.
 NGot=  1207959552 LenX=  1207804877 LenY=  1207729907
 Requested convergence on RMS density matrix=1.00D-08 within 128 cycles.
 Requested convergence on MAX density matrix=1.00D-06.
 Requested convergence on             energy=1.00D-06.
 No special actions if energy rises.
 Fock matrices will be formed incrementally for  20 cycles.

 Cycle   1  Pass 1  IDiag  1:
 FoFJK:  IHMeth= 1 ICntrl=       0 DoSepK=T KAlg= 0 I1Cent=           0 FoldK=F
 IRaf=         1 NMat=       1 IRICut=       1 DoRegI=T DoRafI=F ISym2E= 0 IDoP0=0 IntGTp=1.
 FoFCou: FMM=F IPFlag=           0 FMFlag=      100000 FMFlg1=           0
         NFxFlg=           0 DoJE=T BraDBF=F KetDBF=F FulRan=T
         wScrn=  0.000000 ICntrl=       500 IOpCl=  0 I1Cent=           0 NGrid=           0
         NMat0=    1 NMatS0=      1 NMatT0=    0 NMatD0=    1 NMtDS0=    0 NMtDT0=    0
 Symmetry not used in FoFCou.
 E= -3009.72436209589    
 DIIS: error= 3.20D-01 at cycle   1 NSaved=   1.
 NSaved= 1 IEnMin= 1 EnMin= -3009.72436209589     IErMin= 1 ErrMin= 3.20D-01
 ErrMax= 3.20D-01  0.00D+00 EMaxC= 1.00D-01 BMatC= 1.19D+01 BMatP= 1.19D+01
 IDIUse=3 WtCom= 0.00D+00 WtEn= 1.00D+00
 Coeff-Com:  0.100D+01
 Coeff-En:   0.100D+01
 Coeff:      0.100D+01
 Gap=     0.325 Goal=   None    Shift=    0.000
 GapD=    0.325 DampG=1.000 DampE=0.250 DampFc=0.2500 IDamp=-1.
 Damping current iteration by 2.50D-01
 RMSDP=4.49D-02 MaxDP=5.14D+00              OVMax= 2.55D-01

 Cycle   2  Pass 1  IDiag  1:
 RMSU=  4.20D-03    CP:  8.90D-01
 E= -3010.00791238315     Delta-E=       -0.283550287262 Rises=F Damp=T
 DIIS: error= 2.25D-01 at cycle   2 NSaved=   2.
 NSaved= 2 IEnMin= 2 EnMin= -3010.00791238315     IErMin= 2 ErrMin= 2.25D-01
 ErrMax= 2.25D-01  0.00D+00 EMaxC= 1.00D-01 BMatC= 5.45D+00 BMatP= 1.19D+01
 IDIUse=3 WtCom= 0.00D+00 WtEn= 1.00D+00
 Coeff-Com: -0.184D+01 0.284D+01
 Coeff-En:   0.000D+00 0.100D+01
 Coeff:      0.000D+00 0.100D+01
 Gap=     0.295 Goal=   None    Shift=    0.000
 RMSDP=3.49D-02 MaxDP=3.96D+00 DE=-2.84D-01 OVMax= 7.37D-02

 Cycle   3  Pass 1  IDiag  1:
 RMSU=  4.26D-03    CP:  5.37D-01  3.00D+00
 E= -3010.38537661642     Delta-E=       -0.377464233264 Rises=F Damp=F
 DIIS: error= 6.57D-02 at cycle   3 NSaved=   3.
 NSaved= 3 IEnMin= 3 EnMin= -3010.38537661642     IErMin= 3 ErrMin= 6.57D-02
 ErrMax= 6.57D-02  0.00D+00 EMaxC= 1.00D-01 BMatC= 7.35D-01 BMatP= 5.45D+00
 IDIUse=3 WtCom= 3.43D-01 WtEn= 6.57D-01
 Coeff-Com:  0.276D+01-0.363D+01 0.187D+01
 Coeff-En:   0.289D-01 0.000D+00 0.971D+00
 Coeff:      0.965D+00-0.124D+01 0.128D+01
 Gap=     0.262 Goal=   None    Shift=    0.000
 RMSDP=8.24D-03 MaxDP=4.44D-01 DE=-3.77D-01 OVMax= 6.59D-02

 Cycle   4  Pass 1  IDiag  1:
 RMSU=  4.54D-03    CP:  5.55D-01  2.17D+00  2.04D+00
 E= -3010.49007065252     Delta-E=       -0.104694036099 Rises=F Damp=F
 DIIS: error= 3.80D-02 at cycle   4 NSaved=   4.
 NSaved= 4 IEnMin= 4 EnMin= -3010.49007065252     IErMin= 4 ErrMin= 3.80D-02
 ErrMax= 3.80D-02  0.00D+00 EMaxC= 1.00D-01 BMatC= 2.28D-01 BMatP= 7.35D-01
 IDIUse=3 WtCom= 6.20D-01 WtEn= 3.80D-01
 Coeff-Com: -0.198D+00 0.277D+00 0.261D+00 0.660D+00
 Coeff-En:   0.000D+00 0.000D+00 0.193D+00 0.807D+00
 Coeff:     -0.123D+00 0.172D+00 0.235D+00 0.716D+00
 Gap=     0.263 Goal=   None    Shift=    0.000
 RMSDP=3.52D-03 MaxDP=3.26D-01 DE=-1.05D-01 OVMax= 2.91D-02

 Cycle   5  Pass 1  IDiag  1:
 RMSU=  1.21D-03    CP:  5.26D-01  2.54D+00  1.89D+00  8.85D-01
 E= -3010.53427448713     Delta-E=       -0.044203834616 Rises=F Damp=F
 DIIS: error= 6.85D-03 at cycle   5 NSaved=   5.
 NSaved= 5 IEnMin= 5 EnMin= -3010.53427448713     IErMin= 5 ErrMin= 6.85D-03
 ErrMax= 6.85D-03  0.00D+00 EMaxC= 1.00D-01 BMatC= 7.29D-03 BMatP= 2.28D-01
 IDIUse=3 WtCom= 9.31D-01 WtEn= 6.85D-02
 Coeff-Com: -0.138D+00 0.188D+00 0.337D-01 0.314D+00 0.604D+00
 Coeff-En:   0.000D+00 0.000D+00 0.000D+00 0.000D+00 0.100D+01
 Coeff:     -0.129D+00 0.175D+00 0.313D-01 0.292D+00 0.631D+00
 Gap=     0.253 Goal=   None    Shift=    0.000
 RMSDP=5.19D-04 MaxDP=3.34D-02 DE=-4.42D-02 OVMax= 1.07D-02

 Cycle   6  Pass 1  IDiag  1:
 RMSU=  4.02D-04    CP:  5.24D-01  2.53D+00  1.91D+00  8.85D-01  7.56D-01
 E= -3010.53575671414     Delta-E=       -0.001482227008 Rises=F Damp=F
 DIIS: error= 9.23D-04 at cycle   6 NSaved=   6.
 NSaved= 6 IEnMin= 6 EnMin= -3010.53575671414     IErMin= 6 ErrMin= 9.23D-04
 ErrMax= 9.23D-04  0.00D+00 EMaxC= 1.00D-01 BMatC= 1.13D-04 BMatP= 7.29D-03
 IDIUse=3 WtCom= 9.91D-01 WtEn= 9.23D-03
 Coeff-Com: -0.825D-01 0.111D+00-0.787D-02 0.131D+00 0.333D+00 0.515D+00
 Coeff-En:   0.000D+00 0.000D+00 0.000D+00 0.000D+00 0.000D+00 0.100D+01
 Coeff:     -0.817D-01 0.110D+00-0.779D-02 0.130D+00 0.330D+00 0.520D+00
 Gap=     0.253 Goal=   None    Shift=    0.000
 RMSDP=1.71D-04 MaxDP=1.13D-02 DE=-1.48D-03 OVMax= 4.89D-03

 Cycle   7  Pass 1  IDiag  1:
 RMSU=  9.55D-05    CP:  5.24D-01  2.52D+00  1.92D+00  8.91D-01  8.42D-01
                    CP:  9.03D-01
 E= -3010.53583850839     Delta-E=       -0.000081794251 Rises=F Damp=F
 DIIS: error= 5.35D-04 at cycle   7 NSaved=   7.
 NSaved= 7 IEnMin= 7 EnMin= -3010.53583850839     IErMin= 7 ErrMin= 5.35D-04
 ErrMax= 5.35D-04  0.00D+00 EMaxC= 1.00D-01 BMatC= 2.37D-05 BMatP= 1.13D-04
 IDIUse=3 WtCom= 9.95D-01 WtEn= 5.35D-03
 Coeff-Com: -0.352D-01 0.469D-01-0.130D-01 0.347D-01 0.108D+00 0.328D+00
 Coeff-Com:  0.531D+00
 Coeff-En:   0.000D+00 0.000D+00 0.000D+00 0.000D+00 0.000D+00 0.361D-01
 Coeff-En:   0.964D+00
 Coeff:     -0.350D-01 0.466D-01-0.129D-01 0.345D-01 0.107D+00 0.326D+00
 Coeff:      0.533D+00
 Gap=     0.254 Goal=   None    Shift=    0.000
 RMSDP=7.58D-05 MaxDP=4.48D-03 DE=-8.18D-05 OVMax= 2.55D-03

 Cycle   8  Pass 1  IDiag  1:
 RMSU=  4.93D-05    CP:  5.24D-01  2.51D+00  1.92D+00  8.96D-01  8.61D-01
                    CP:  9.73D-01  8.47D-01
 E= -3010.53585893398     Delta-E=       -0.000020425588 Rises=F Damp=F
 DIIS: error= 1.14D-04 at cycle   8 NSaved=   8.
 NSaved= 8 IEnMin= 8 EnMin= -3010.53585893398     IErMin= 8 ErrMin= 1.14D-04
 ErrMax= 1.14D-04  0.00D+00 EMaxC= 1.00D-01 BMatC= 2.55D-06 BMatP= 2.37D-05
 IDIUse=3 WtCom= 9.99D-01 WtEn= 1.14D-03
 Coeff-Com:  0.601D-02-0.825D-02-0.291D-02-0.160D-01-0.408D-01-0.192D-01
 Coeff-Com:  0.194D+00 0.887D+00
 Coeff-En:   0.000D+00 0.000D+00 0.000D+00 0.000D+00 0.000D+00 0.000D+00
 Coeff-En:   0.000D+00 0.100D+01
 Coeff:      0.601D-02-0.824D-02-0.291D-02-0.160D-01-0.408D-01-0.192D-01
 Coeff:      0.194D+00 0.887D+00
 Gap=     0.254 Goal=   None    Shift=    0.000
 RMSDP=5.77D-05 MaxDP=4.88D-03 DE=-2.04D-05 OVMax= 1.95D-03

 Cycle   9  Pass 1  IDiag  1:
 RMSU=  2.24D-05    CP:  5.24D-01  2.51D+00  1.93D+00  8.97D-01  8.66D-01
                    CP:  1.07D+00  1.07D+00  1.34D+00
 E= -3010.53586398324     Delta-E=       -0.000005049256 Rises=F Damp=F
 DIIS: error= 4.52D-05 at cycle   9 NSaved=   9.
 NSaved= 9 IEnMin= 9 EnMin= -3010.53586398324     IErMin= 9 ErrMin= 4.52D-05
 ErrMax= 4.52D-05  0.00D+00 EMaxC= 1.00D-01 BMatC= 2.35D-07 BMatP= 2.55D-06
 IDIUse=1 WtCom= 1.00D+00 WtEn= 0.00D+00
 Coeff-Com:  0.665D-02-0.893D-02 0.812D-03-0.982D-02-0.257D-01-0.530D-01
 Coeff-Com: -0.199D-01 0.269D+00 0.841D+00
 Coeff:      0.665D-02-0.893D-02 0.812D-03-0.982D-02-0.257D-01-0.530D-01
 Coeff:     -0.199D-01 0.269D+00 0.841D+00
 Gap=     0.254 Goal=   None    Shift=    0.000
 RMSDP=1.73D-05 MaxDP=1.27D-03 DE=-5.05D-06 OVMax= 9.55D-04

 Cycle  10  Pass 1  IDiag  1:
 RMSU=  7.01D-06    CP:  5.24D-01  2.51D+00  1.93D+00  8.96D-01  8.69D-01
                    CP:  1.10D+00  1.12D+00  1.47D+00  1.11D+00
 E= -3010.53586477234     Delta-E=       -0.000000789106 Rises=F Damp=F
 DIIS: error= 1.55D-05 at cycle  10 NSaved=  10.
 NSaved=10 IEnMin=10 EnMin= -3010.53586477234     IErMin=10 ErrMin= 1.55D-05
 ErrMax= 1.55D-05  0.00D+00 EMaxC= 1.00D-01 BMatC= 5.26D-08 BMatP= 2.35D-07
 IDIUse=1 WtCom= 1.00D+00 WtEn= 0.00D+00
 Coeff-Com:  0.428D-03-0.550D-03 0.346D-03-0.234D-03 0.107D-02-0.814D-02
 Coeff-Com: -0.312D-01-0.561D-01 0.234D+00 0.860D+00
 Coeff:      0.428D-03-0.550D-03 0.346D-03-0.234D-03 0.107D-02-0.814D-02
 Coeff:     -0.312D-01-0.561D-01 0.234D+00 0.860D+00
 Gap=     0.254 Goal=   None    Shift=    0.000
 RMSDP=8.37D-06 MaxDP=6.88D-04 DE=-7.89D-07 OVMax= 3.71D-04

 Cycle  11  Pass 1  IDiag  1:
 RMSU=  3.83D-06    CP:  5.25D-01  2.51D+00  1.93D+00  8.96D-01  8.69D-01
                    CP:  1.10D+00  1.14D+00  1.49D+00  1.23D+00  1.12D+00
 E= -3010.53586489401     Delta-E=       -0.000000121672 Rises=F Damp=F
 DIIS: error= 6.85D-06 at cycle  11 NSaved=  11.
 NSaved=11 IEnMin=11 EnMin= -3010.53586489401     IErMin=11 ErrMin= 6.85D-06
 ErrMax= 6.85D-06  0.00D+00 EMaxC= 1.00D-01 BMatC= 3.24D-09 BMatP= 5.26D-08
 IDIUse=1 WtCom= 1.00D+00 WtEn= 0.00D+00
 Coeff-Com: -0.323D-03 0.433D-03 0.161D-04 0.819D-03 0.271D-02 0.639D-02
 Coeff-Com:  0.488D-02-0.265D-01-0.118D+00-0.376D-01 0.117D+01
 Coeff:     -0.323D-03 0.433D-03 0.161D-04 0.819D-03 0.271D-02 0.639D-02
 Coeff:      0.488D-02-0.265D-01-0.118D+00-0.376D-01 0.117D+01
 Gap=     0.254 Goal=   None    Shift=    0.000
 RMSDP=3.33D-06 MaxDP=1.82D-04 DE=-1.22D-07 OVMax= 1.95D-04

 Cycle  12  Pass 1  IDiag  1:
 RMSU=  1.13D-06    CP:  5.25D-01  2.51D+00  1.93D+00  8.96D-01  8.69D-01
                    CP:  1.11D+00  1.13D+00  1.50D+00  1.27D+00  1.32D+00
                    CP:  1.32D+00
 E= -3010.53586491477     Delta-E=       -0.000000020756 Rises=F Damp=F
 DIIS: error= 1.64D-06 at cycle  12 NSaved=  12.
 NSaved=12 IEnMin=12 EnMin= -3010.53586491477     IErMin=12 ErrMin= 1.64D-06
 ErrMax= 1.64D-06  0.00D+00 EMaxC= 1.00D-01 BMatC= 9.02D-10 BMatP= 3.24D-09
 IDIUse=1 WtCom= 1.00D+00 WtEn= 0.00D+00
 Coeff-Com: -0.167D-03 0.222D-03-0.204D-04 0.340D-03 0.724D-03 0.300D-02
 Coeff-Com:  0.545D-02-0.377D-02-0.735D-01-0.117D+00 0.492D+00 0.692D+00
 Coeff:     -0.167D-03 0.222D-03-0.204D-04 0.340D-03 0.724D-03 0.300D-02
 Coeff:      0.545D-02-0.377D-02-0.735D-01-0.117D+00 0.492D+00 0.692D+00
 Gap=     0.254 Goal=   None    Shift=    0.000
 RMSDP=8.95D-07 MaxDP=4.42D-05 DE=-2.08D-08 OVMax= 4.43D-05

 Cycle  13  Pass 1  IDiag  1:
 RMSU=  3.48D-07    CP:  5.25D-01  2.51D+00  1.93D+00  8.96D-01  8.69D-01
                    CP:  1.11D+00  1.14D+00  1.50D+00  1.27D+00  1.34D+00
                    CP:  1.45D+00  8.30D-01
 E= -3010.53586491696     Delta-E=       -0.000000002191 Rises=F Damp=F
 DIIS: error= 5.52D-07 at cycle  13 NSaved=  13.
 NSaved=13 IEnMin=13 EnMin= -3010.53586491696     IErMin=13 ErrMin= 5.52D-07
 ErrMax= 5.52D-07  0.00D+00 EMaxC= 1.00D-01 BMatC= 1.12D-10 BMatP= 9.02D-10
 IDIUse=1 WtCom= 1.00D+00 WtEn= 0.00D+00
 Coeff-Com: -0.145D-04 0.196D-04-0.879D-05-0.570D-04-0.449D-03-0.935D-03
 Coeff-Com: -0.372D-03 0.358D-02 0.106D-01-0.844D-02-0.120D+00 0.127D+00
 Coeff-Com:  0.989D+00
 Coeff:     -0.145D-04 0.196D-04-0.879D-05-0.570D-04-0.449D-03-0.935D-03
 Coeff:     -0.372D-03 0.358D-02 0.106D-01-0.844D-02-0.120D+00 0.127D+00
 Coeff:      0.989D+00
 Gap=     0.254 Goal=   None    Shift=    0.000
 RMSDP=3.18D-07 MaxDP=1.52D-05 DE=-2.19D-09 OVMax= 1.55D-05

 Cycle  14  Pass 1  IDiag  1:
 RMSU=  1.55D-07    CP:  5.25D-01  2.51D+00  1.93D+00  8.96D-01  8.69D-01
                    CP:  1.11D+00  1.14D+00  1.50D+00  1.27D+00  1.34D+00
                    CP:  1.48D+00  1.03D+00  1.21D+00
 E= -3010.53586491735     Delta-E=       -0.000000000386 Rises=F Damp=F
 DIIS: error= 1.71D-07 at cycle  14 NSaved=  14.
 NSaved=14 IEnMin=14 EnMin= -3010.53586491735     IErMin=14 ErrMin= 1.71D-07
 ErrMax= 1.71D-07  0.00D+00 EMaxC= 1.00D-01 BMatC= 1.09D-11 BMatP= 1.12D-10
 IDIUse=1 WtCom= 1.00D+00 WtEn= 0.00D+00
 Coeff-Com:  0.989D-05-0.131D-04-0.204D-05-0.427D-04-0.138D-03-0.467D-03
 Coeff-Com: -0.591D-03 0.126D-02 0.103D-01 0.117D-01-0.840D-01-0.477D-01
 Coeff-Com:  0.135D+00 0.975D+00
 Coeff:      0.989D-05-0.131D-04-0.204D-05-0.427D-04-0.138D-03-0.467D-03
 Coeff:     -0.591D-03 0.126D-02 0.103D-01 0.117D-01-0.840D-01-0.477D-01
 Coeff:      0.135D+00 0.975D+00
 Gap=     0.254 Goal=   None    Shift=    0.000
 RMSDP=1.08D-07 MaxDP=4.63D-06 DE=-3.86D-10 OVMax= 7.90D-06

 Cycle  15  Pass 1  IDiag  1:
 RMSU=  6.15D-08    CP:  5.25D-01  2.51D+00  1.93D+00  8.96D-01  8.69D-01
                    CP:  1.11D+00  1.14D+00  1.50D+00  1.27D+00  1.35D+00
                    CP:  1.48D+00  1.07D+00  1.34D+00  1.32D+00
 E= -3010.53586491744     Delta-E=       -0.000000000097 Rises=F Damp=F
 DIIS: error= 8.83D-08 at cycle  15 NSaved=  15.
 NSaved=15 IEnMin=15 EnMin= -3010.53586491744     IErMin=15 ErrMin= 8.83D-08
 ErrMax= 8.83D-08  0.00D+00 EMaxC= 1.00D-01 BMatC= 4.03D-12 BMatP= 1.09D-11
 IDIUse=1 WtCom= 1.00D+00 WtEn= 0.00D+00
 Coeff-Com:  0.789D-05-0.106D-04 0.139D-05 0.134D-05 0.750D-04 0.124D-03
 Coeff-Com: -0.314D-04-0.560D-03-0.428D-03 0.477D-02 0.669D-02-0.317D-01
 Coeff-Com: -0.209D+00 0.334D+00 0.896D+00
 Coeff:      0.789D-05-0.106D-04 0.139D-05 0.134D-05 0.750D-04 0.124D-03
 Coeff:     -0.314D-04-0.560D-03-0.428D-03 0.477D-02 0.669D-02-0.317D-01
 Coeff:     -0.209D+00 0.334D+00 0.896D+00
 Gap=     0.254 Goal=   None    Shift=    0.000
 RMSDP=8.12D-08 MaxDP=5.58D-06 DE=-9.73D-11 OVMax= 4.50D-06

 Cycle  16  Pass 1  IDiag  1:
 RMSU=  1.91D-08    CP:  5.25D-01  2.51D+00  1.93D+00  8.96D-01  8.69D-01
                    CP:  1.11D+00  1.14D+00  1.50D+00  1.27D+00  1.35D+00
                    CP:  1.48D+00  1.10D+00  1.37D+00  1.56D+00  1.59D+00
 E= -3010.53586491747     Delta-E=       -0.000000000025 Rises=F Damp=F
 DIIS: error= 3.98D-08 at cycle  16 NSaved=  16.
 NSaved=16 IEnMin=16 EnMin= -3010.53586491747     IErMin=16 ErrMin= 3.98D-08
 ErrMax= 3.98D-08  0.00D+00 EMaxC= 1.00D-01 BMatC= 5.30D-13 BMatP= 4.03D-12
 IDIUse=1 WtCom= 1.00D+00 WtEn= 0.00D+00
 Coeff-Com: -0.247D-06 0.302D-06 0.657D-06 0.790D-05 0.418D-04 0.116D-03
 Coeff-Com:  0.877D-04-0.382D-03-0.191D-02-0.306D-03 0.155D-01 0.240D-02
 Coeff-Com: -0.803D-01-0.862D-01 0.103D+00 0.105D+01
 Coeff:     -0.247D-06 0.302D-06 0.657D-06 0.790D-05 0.418D-04 0.116D-03
 Coeff:      0.877D-04-0.382D-03-0.191D-02-0.306D-03 0.155D-01 0.240D-02
 Coeff:     -0.803D-01-0.862D-01 0.103D+00 0.105D+01
 Gap=     0.254 Goal=   None    Shift=    0.000
 RMSDP=4.83D-08 MaxDP=3.78D-06 DE=-2.46D-11 OVMax= 2.39D-06

 Cycle  17  Pass 1  IDiag  1:
 RMSU=  8.65D-09    CP:  5.25D-01  2.51D+00  1.93D+00  8.96D-01  8.69D-01
                    CP:  1.11D+00  1.14D+00  1.50D+00  1.27D+00  1.35D+00
                    CP:  1.48D+00  1.11D+00  1.37D+00  1.69D+00  1.99D+00
                    CP:  1.49D+00
 E= -3010.53586491750     Delta-E=       -0.000000000032 Rises=F Damp=F
 DIIS: error= 2.21D-08 at cycle  17 NSaved=  17.
 NSaved=17 IEnMin=17 EnMin= -3010.53586491750     IErMin=17 ErrMin= 2.21D-08
 ErrMax= 2.21D-08  0.00D+00 EMaxC= 1.00D-01 BMatC= 1.35D-13 BMatP= 5.30D-13
 IDIUse=1 WtCom= 1.00D+00 WtEn= 0.00D+00
 Coeff-Com: -0.438D-06 0.585D-06 0.567D-07 0.322D-06-0.564D-05 0.355D-05
 Coeff-Com:  0.287D-04 0.450D-04-0.369D-03-0.809D-03 0.210D-02 0.656D-02
 Coeff-Com:  0.155D-01-0.728D-01-0.170D+00 0.330D+00 0.890D+00
 Coeff:     -0.438D-06 0.585D-06 0.567D-07 0.322D-06-0.564D-05 0.355D-05
 Coeff:      0.287D-04 0.450D-04-0.369D-03-0.809D-03 0.210D-02 0.656D-02
 Coeff:      0.155D-01-0.728D-01-0.170D+00 0.330D+00 0.890D+00
 Gap=     0.254 Goal=   None    Shift=    0.000
 RMSDP=1.88D-08 MaxDP=1.47D-06 DE=-3.18D-11 OVMax= 8.72D-07

 Cycle  18  Pass 1  IDiag  1:
 RMSU=  5.98D-09    CP:  5.25D-01  2.51D+00  1.93D+00  8.96D-01  8.69D-01
                    CP:  1.11D+00  1.14D+00  1.50D+00  1.27D+00  1.35D+00
                    CP:  1.48D+00  1.11D+00  1.36D+00  1.73D+00  2.14D+00
                    CP:  1.73D+00  1.31D+00
 E= -3010.53586491742     Delta-E=        0.000000000083 Rises=F Damp=F
 DIIS: error= 8.66D-09 at cycle  18 NSaved=  18.
 NSaved=18 IEnMin=17 EnMin= -3010.53586491750     IErMin=18 ErrMin= 8.66D-09
 ErrMax= 8.66D-09  0.00D+00 EMaxC= 1.00D-01 BMatC= 3.41D-14 BMatP= 1.35D-13
 IDIUse=1 WtCom= 1.00D+00 WtEn= 0.00D+00
 Coeff-Com: -0.110D-06 0.149D-06-0.110D-06-0.141D-05-0.105D-04-0.188D-04
 Coeff-Com: -0.255D-05 0.981D-04 0.166D-03-0.376D-03-0.212D-02 0.302D-02
 Coeff-Com:  0.239D-01-0.106D-01-0.107D+00-0.588D-01 0.410D+00 0.742D+00
 Coeff:     -0.110D-06 0.149D-06-0.110D-06-0.141D-05-0.105D-04-0.188D-04
 Coeff:     -0.255D-05 0.981D-04 0.166D-03-0.376D-03-0.212D-02 0.302D-02
 Coeff:      0.239D-01-0.106D-01-0.107D+00-0.588D-01 0.410D+00 0.742D+00
 Gap=     0.254 Goal=   None    Shift=    0.000
 RMSDP=6.47D-09 MaxDP=3.53D-07 DE= 8.28D-11 OVMax= 2.21D-07

 SCF Done:  E(RwB97XD) =  -3010.53586492     A.U. after   18 cycles
            NFock= 18  Conv=0.65D-08     -V/T= 2.0016
 KE= 3.005849906448D+03 PE=-8.631593146405D+03 EE= 1.876434081821D+03
 Leave Link  502 at Wed May  1 15:24:46 2024, MaxMem=  1207959552 cpu:            1008.6 elap:            1008.7
 (Enter /software/gaussian/g16-c01/sse4/g16/l601.exe)
 Copying SCF densities to generalized density rwf, IOpCl= 0 IROHF=0.

 **********************************************************************

            Population analysis using the SCF Density.

 **********************************************************************

 Alpha  occ. eigenvalues -- -483.30501 -62.85518 -56.65219 -56.64635 -56.64633
 Alpha  occ. eigenvalues --  -19.45512 -19.45443 -14.85016 -10.57804 -10.57083
 Alpha  occ. eigenvalues --  -10.56787 -10.56589 -10.56349 -10.52570  -9.01319
 Alpha  occ. eigenvalues --   -6.84018  -6.82110  -6.82096  -2.93917  -2.93411
 Alpha  occ. eigenvalues --   -2.93398  -2.91873  -2.91872  -1.49278  -1.32255
 Alpha  occ. eigenvalues --   -1.22210  -1.13576  -1.11328  -1.03736  -1.00648
 Alpha  occ. eigenvalues --   -0.95019  -0.90544  -0.84902  -0.80378  -0.80241
 Alpha  occ. eigenvalues --   -0.79610  -0.77920  -0.75720  -0.75518  -0.71774
 Alpha  occ. eigenvalues --   -0.68931  -0.67145  -0.63143  -0.59600  -0.56749
 Alpha  occ. eigenvalues --   -0.55817  -0.55554  -0.55224  -0.54508
 Alpha virt. eigenvalues --   -0.29138  -0.20938  -0.15087  -0.12919  -0.08785
 Alpha virt. eigenvalues --   -0.06141  -0.05758  -0.04929  -0.03527  -0.02973
 Alpha virt. eigenvalues --   -0.02164  -0.01981  -0.00560  -0.00374   0.01064
 Alpha virt. eigenvalues --    0.01596   0.02090   0.02500   0.03227   0.03725
 Alpha virt. eigenvalues --    0.04755   0.04811   0.05253   0.06243   0.06930
 Alpha virt. eigenvalues --    0.07334   0.07715   0.07916   0.09206   0.09567
 Alpha virt. eigenvalues --    0.10818   0.11234   0.11466   0.12138   0.12920
 Alpha virt. eigenvalues --    0.13052   0.13347   0.13830   0.15277   0.16371
 Alpha virt. eigenvalues --    0.16777   0.17447   0.17939   0.18739   0.19033
 Alpha virt. eigenvalues --    0.19589   0.21345   0.21651   0.22050   0.24705
 Alpha virt. eigenvalues --    0.25512   0.28009   0.28535   0.29968   0.32521
 Alpha virt. eigenvalues --    0.33646   0.33970   0.34629   0.35174   0.36278
 Alpha virt. eigenvalues --    0.37531   0.38289   0.39517   0.40875   0.42272
 Alpha virt. eigenvalues --    0.42882   0.44010   0.44504   0.46565   0.47754
 Alpha virt. eigenvalues --    0.48000   0.50586   0.51313   0.52546   0.53811
 Alpha virt. eigenvalues --    0.54536   0.55516   0.56907   0.57281   0.59759
 Alpha virt. eigenvalues --    0.61565   0.62608   0.64488   0.67247   0.68951
 Alpha virt. eigenvalues --    0.70482   0.72473   0.72834   0.73579   0.74541
 Alpha virt. eigenvalues --    0.74890   0.79593   0.80248   0.83628   0.85476
 Alpha virt. eigenvalues --    0.86784   0.88298   0.92099   0.93442   0.98910
 Alpha virt. eigenvalues --    0.99915   1.01385   1.05006   1.05646   1.06879
 Alpha virt. eigenvalues --    1.09516   1.11226   1.12349   1.12783   1.14536
 Alpha virt. eigenvalues --    1.22340   1.24795   1.27025   1.33286   1.36803
 Alpha virt. eigenvalues --    1.37174   1.38348   1.45521   1.54690   1.57420
 Alpha virt. eigenvalues --    1.58803   1.59087   1.60919   1.62694   1.66646
 Alpha virt. eigenvalues --    1.69445   1.70064   1.73856   1.75592   1.79351
 Alpha virt. eigenvalues --    1.81423   1.85757   1.87712   1.94141   1.96228
 Alpha virt. eigenvalues --    1.98287   2.03232   2.04161   2.07317   2.08429
 Alpha virt. eigenvalues --    2.09984   2.15071   2.20685   2.22960   2.29624
 Alpha virt. eigenvalues --    2.37870   2.41460   2.42790   2.43786   2.52785
 Alpha virt. eigenvalues --    2.56955   2.63339   2.66394   2.68504   2.72039
 Alpha virt. eigenvalues --    2.73702   2.76823   2.77659   2.81358   2.82103
 Alpha virt. eigenvalues --    2.93858   2.96658   3.00976   3.05903   3.09255
 Alpha virt. eigenvalues --    3.13288   3.15245   3.19355   3.23999   3.24591
 Alpha virt. eigenvalues --    3.27680   3.39436   3.47932   3.51545   3.54802
 Alpha virt. eigenvalues --    3.57169   3.70262   3.74440   3.82486   3.87494
 Alpha virt. eigenvalues --    4.09683   4.09912   4.17352   4.22578   4.43383
 Alpha virt. eigenvalues --    4.44679   4.57774   4.60218   4.93526   4.96192
 Alpha virt. eigenvalues --    5.04842   5.09009   5.63160   6.16097   6.65364
 Alpha virt. eigenvalues --    7.48368   7.49937   7.59681  23.21640  23.61607
 Alpha virt. eigenvalues --   23.69989  23.79808  23.96351  24.01720  35.32942
 Alpha virt. eigenvalues --   47.91921  49.85910  49.94721 289.81243 289.82910
 Alpha virt. eigenvalues --  289.953441020.92331
          Condensed to atoms (all electrons):
               1          2          3          4          5          6
     1  C    8.814851  -2.196826   0.119472  -1.505228  -0.611821   0.307389
     2  C   -2.196826  12.629785  -1.634574  -2.757814   0.663294  -0.013667
     3  C    0.119472  -1.634574  13.082379  -3.236973  -1.179336   0.024231
     4  C   -1.505228  -2.757814  -3.236973  15.003116   1.185353   0.008615
     5  C   -0.611821   0.663294  -1.179336   1.185353   7.359738   0.015457
     6  H    0.307389  -0.013667   0.024231   0.008615   0.015457   0.336975
     7  H    0.067979   0.231770   0.076772  -0.033165  -0.020331  -0.001807
     8  H    0.004030  -0.010100   0.073137   0.243225  -0.019410   0.000002
     9  H    0.033056  -0.014819   0.003207  -0.006423   0.306498  -0.002357
    10  N   -0.138205   0.341116  -0.914066   0.306077   0.011870  -0.000631
    11  O    0.014820  -0.070355  -0.262775  -0.016323  -0.057159  -0.000021
    12  O    0.321661  -0.044974  -0.282247  -0.074887  -0.042896   0.000022
    13  C    1.312234  -1.639186   0.794681  -3.372137  -1.632545  -0.006612
    14  H   -0.012859  -0.002510   0.004031  -0.055308  -0.015364  -0.000053
    15  Br   0.039713   0.015027   0.044157   0.030441   0.045042  -0.000334
               7          8          9         10         11         12
     1  C    0.067979   0.004030   0.033056  -0.138205   0.014820   0.321661
     2  C    0.231770  -0.010100  -0.014819   0.341116  -0.070355  -0.044974
     3  C    0.076772   0.073137   0.003207  -0.914066  -0.262775  -0.282247
     4  C   -0.033165   0.243225  -0.006423   0.306077  -0.016323  -0.074887
     5  C   -0.020331  -0.019410   0.306498   0.011870  -0.057159  -0.042896
     6  H   -0.001807   0.000002  -0.002357  -0.000631  -0.000021   0.000022
     7  H    0.301580   0.000002   0.000019  -0.025583  -0.001491   0.022197
     8  H    0.000002   0.296401   0.000116  -0.023599   0.022950  -0.000918
     9  H    0.000019   0.000116   0.329072   0.000423   0.000002   0.000007
    10  N   -0.025583  -0.023599   0.000423   7.348070   0.193392   0.154520
    11  O   -0.001491   0.022950   0.000002   0.193392   7.835597   0.000252
    12  O    0.022197  -0.000918   0.000007   0.154520   0.000252   7.875342
    13  C    0.015965   0.042644   0.005951  -0.149419   0.309590   0.041729
    14  H   -0.000023  -0.004737  -0.006114  -0.000407  -0.000230  -0.000056
    15  Br  -0.000018   0.003475   0.001915   0.004236   0.000643   0.002134
              13         14         15
     1  C    1.312234  -0.012859   0.039713
     2  C   -1.639186  -0.002510   0.015027
     3  C    0.794681   0.004031   0.044157
     4  C   -3.372137  -0.055308   0.030441
     5  C   -1.632545  -0.015364   0.045042
     6  H   -0.006612  -0.000053  -0.000334
     7  H    0.015965  -0.000023  -0.000018
     8  H    0.042644  -0.004737   0.003475
     9  H    0.005951  -0.006114   0.001915
    10  N   -0.149419  -0.000407   0.004236
    11  O    0.309590  -0.000230   0.000643
    12  O    0.041729  -0.000056   0.002134
    13  C   10.355690   0.385194   0.004160
    14  H    0.385194   0.362387  -0.044604
    15  Br   0.004160  -0.044604  34.643825
 Mulliken charges:
               1
     1  C   -0.570265
     2  C    0.503834
     3  C   -0.712097
     4  C    0.281431
     5  C   -0.008391
     6  H    0.332791
     7  H    0.366135
     8  H    0.372782
     9  H    0.349447
    10  N   -0.107794
    11  O    0.031110
    12  O    0.028114
    13  C   -0.467939
    14  H    0.390655
    15  Br   0.210189
 Sum of Mulliken charges =   1.00000
 Mulliken charges with hydrogens summed into heavy atoms:
               1
     1  C   -0.237474
     2  C    0.869968
     3  C   -0.712097
     4  C    0.654213
     5  C    0.341056
    10  N   -0.107794
    11  O    0.031110
    12  O    0.028114
    13  C   -0.077284
    15  Br   0.210189
 Electronic spatial extent (au):  <R**2>=           2797.8111
 Charge=              1.0000 electrons
 Dipole moment (field-independent basis, Debye):
    X=             -0.9214    Y=             -0.7307    Z=             -0.6784  Tot=              1.3576
 Quadrupole moment (field-independent basis, Debye-Ang):
   XX=            -71.3802   YY=            -51.7944   ZZ=            -61.9238
   XY=              1.4053   XZ=              0.8073   YZ=              2.2228
 Traceless Quadrupole moment (field-independent basis, Debye-Ang):
   XX=             -9.6807   YY=              9.9051   ZZ=             -0.2244
   XY=              1.4053   XZ=              0.8073   YZ=              2.2228
 Octapole moment (field-independent basis, Debye-Ang**2):
  XXX=           -300.2357  YYY=             86.5692  ZZZ=             74.2996  XYY=            -76.4926
  XXY=             29.8559  XXZ=             30.0151  XZZ=            -78.5913  YZZ=             14.7070
  YYZ=             23.3412  XYZ=             -3.7697
 Hexadecapole moment (field-independent basis, Debye-Ang**3):
 XXXX=          -2281.6974 YYYY=           -674.4194 ZZZZ=           -340.9974 XXXY=            -67.9659
 XXXZ=            -27.6265 YYYX=            -58.9253 YYYZ=           -151.8117 ZZZX=            -17.7084
 ZZZY=           -131.0125 XXYY=           -456.1448 XXZZ=           -369.4637 YYZZ=           -159.8088
 XXYZ=            -54.0095 YYXZ=             -1.9731 ZZXY=             -7.6198
 N-N= 7.387732932186D+02 E-N=-8.631593147517D+03  KE= 3.005849906448D+03
 No NMR shielding tensors so no spin-rotation constants.
 Leave Link  601 at Wed May  1 15:24:54 2024, MaxMem=  1207959552 cpu:               7.4 elap:               7.4
 (Enter /software/gaussian/g16-c01/sse4/g16/l9999.exe)
 Unable to Open any file for archive entry.
 1\1\GINC-BHX0017\SP\RwB97XD\6-311+G(d)\C6H5Br1N1O2(1+)\BWEIGHT\01-May-
 2024\0\\#P wB97XD/6-311+G* NoSymm #P Field=Z+38\\TitleMe\\1,1\C,0,0.02
 95,1.3397,0.0682\C,0,1.4348,1.2867,0.0064\C,0,2.1118,0.0511,-0.0054\C,
 0,1.4451,-1.1372,0.0312\C,0,-0.6879,0.1682,0.11\H,0,-0.4713,2.2984,0.0
 781\H,0,2.0273,2.1965,-0.0322\H,0,1.9897,-2.0764,0.0232\H,0,-1.7716,0.
 1804,0.1582\N,0,3.5864,0.051,-0.0675\O,0,4.1471,-1.0597,-0.0881\O,0,4.
 145,1.1639,-0.0901\C,0,-0.0236,-1.1458,0.0835\H,0,-0.4367,-1.8725,0.78
 89\Br,0,-0.5359,-1.8697,-1.7408\\Version=ES64L-G16RevC.01\HF=-3010.535
 8649\RMSD=6.466e-09\Dipole=-2.2690436,0.8605927,0.8792762\Quadrupole=-
 7.1973746,7.3641868,-0.1668121,1.0448186,0.6002352,1.6525656\PG=C01 [X
 (C6H5Br1N1O2)]\\@
 The archive entry for this job was punched.


 TIME GOES, YOU SAY?  AH NO!
 ALAS, TIME STAYS, WE GO.
    -- A. DOBSON (1840-1921)
 Job cpu time:       0 days  0 hours 17 minutes 54.5 seconds.
 Elapsed time:       0 days  0 hours 17 minutes 54.5 seconds.
 File lengths (MBytes):  RWF=     40 Int=      0 D2E=      0 Chk=     32 Scr=      1
 Normal termination of Gaussian 16 at Wed May  1 15:24:55 2024.
