 Entering Gaussian System, Link 0=g16
 Initial command:
 /software/gaussian/g16-c01/sse4/g16/l1.exe "/local_scratch/24657427/Gau-12705.inp" -scrdir="/local_scratch/24657427/"
 Entering Link 1 = /software/gaussian/g16-c01/sse4/g16/l1.exe PID=     12717.
  
 Copyright (c) 1988-2019, Gaussian, Inc.  All Rights Reserved.
  
 This is part of the Gaussian(R) 16 program.  It is based on
 the Gaussian(R) 09 system (copyright 2009, Gaussian, Inc.),
 the Gaussian(R) 03 system (copyright 2003, Gaussian, Inc.),
 the Gaussian(R) 98 system (copyright 1998, Gaussian, Inc.),
 the Gaussian(R) 94 system (copyright 1995, Gaussian, Inc.),
 the Gaussian 92(TM) system (copyright 1992, Gaussian, Inc.),
 the Gaussian 90(TM) system (copyright 1990, Gaussian, Inc.),
 the Gaussian 88(TM) system (copyright 1988, Gaussian, Inc.),
 the Gaussian 86(TM) system (copyright 1986, Carnegie Mellon
 University), and the Gaussian 82(TM) system (copyright 1983,
 Carnegie Mellon University). Gaussian is a federally registered
 trademark of Gaussian, Inc.
  
 This software contains proprietary and confidential information,
 including trade secrets, belonging to Gaussian, Inc.
  
 This software is provided under written license and may be
 used, copied, transmitted, or stored only in accord with that
 written license.
  
 The following legend is applicable only to US Government
 contracts under FAR:
  
                    RESTRICTED RIGHTS LEGEND
  
 Use, reproduction and disclosure by the US Government is
 subject to restrictions as set forth in subparagraphs (a)
 and (c) of the Commercial Computer Software - Restricted
 Rights clause in FAR 52.227-19.
  
 Gaussian, Inc.
 340 Quinnipiac St., Bldg. 40, Wallingford CT 06492
  
  
 ---------------------------------------------------------------
 Warning -- This program may not be used in any manner that
 competes with the business of Gaussian, Inc. or will provide
 assistance to any competitor of Gaussian, Inc.  The licensee
 of this program is prohibited from giving any competitor of
 Gaussian, Inc. access to this program.  By using this program,
 the user acknowledges that Gaussian, Inc. is engaged in the
 business of creating and licensing software in the field of
 computational chemistry and represents and warrants to the
 licensee that it is not a competitor of Gaussian, Inc. and that
 it will not use this program in any manner prohibited above.
 ---------------------------------------------------------------
  

 Cite this work as:
 Gaussian 16, Revision C.01,
 M. J. Frisch, G. W. Trucks, H. B. Schlegel, G. E. Scuseria, 
 M. A. Robb, J. R. Cheeseman, G. Scalmani, V. Barone, 
 G. A. Petersson, H. Nakatsuji, X. Li, M. Caricato, A. V. Marenich, 
 J. Bloino, B. G. Janesko, R. Gomperts, B. Mennucci, H. P. Hratchian, 
 J. V. Ortiz, A. F. Izmaylov, J. L. Sonnenberg, D. Williams-Young, 
 F. Ding, F. Lipparini, F. Egidi, J. Goings, B. Peng, A. Petrone, 
 T. Henderson, D. Ranasinghe, V. G. Zakrzewski, J. Gao, N. Rega, 
 G. Zheng, W. Liang, M. Hada, M. Ehara, K. Toyota, R. Fukuda, 
 J. Hasegawa, M. Ishida, T. Nakajima, Y. Honda, O. Kitao, H. Nakai, 
 T. Vreven, K. Throssell, J. A. Montgomery, Jr., J. E. Peralta, 
 F. Ogliaro, M. J. Bearpark, J. J. Heyd, E. N. Brothers, K. N. Kudin, 
 V. N. Staroverov, T. A. Keith, R. Kobayashi, J. Normand, 
 K. Raghavachari, A. P. Rendell, J. C. Burant, S. S. Iyengar, 
 J. Tomasi, M. Cossi, J. M. Millam, M. Klene, C. Adamo, R. Cammi, 
 J. W. Ochterski, R. L. Martin, K. Morokuma, O. Farkas, 
 J. B. Foresman, and D. J. Fox, Gaussian, Inc., Wallingford CT, 2019.
 
 ******************************************
 Gaussian 16:  ES64L-G16RevC.01  3-Jul-2019
                 1-May-2024 
 ******************************************
 %chk=geometry.chk
 %mem=9GB
 %nprocshared=12
 Will use up to   12 processors via shared memory.
 ----------------------------------------
 #P wB97XD/6-311+G* NoSymm #P Field=X-136
 ----------------------------------------
 1/38=1,172=1/1;
 2/12=2,15=1,17=6,18=5,40=1/2;
 3/5=4,6=6,7=11,11=2,14=1,15=-136,25=1,30=1,74=-58/1,2,3;
 4//1;
 5/5=2,38=5/2;
 6/7=2,8=2,9=2,10=2,28=1/1;
 99/5=1,9=1/99;
 Leave Link    1 at Wed May  1 14:27:44 2024, MaxMem=  1207959552 cpu:               1.6 elap:               1.6
 (Enter /software/gaussian/g16-c01/sse4/g16/l101.exe)
 -------
 TitleMe
 -------
 Symbolic Z-matrix:
 Charge =  1 Multiplicity = 1
 C                     0.0295    1.3397    0.0682 
 C                     1.4348    1.2867    0.0064 
 C                     2.1118    0.0511   -0.0054 
 C                     1.4451   -1.1372    0.0312 
 C                    -0.6879    0.1682    0.11 
 H                    -0.4713    2.2984    0.0781 
 H                     2.0273    2.1965   -0.0322 
 H                     1.9897   -2.0764    0.0232 
 H                    -1.7716    0.1804    0.1582 
 N                     3.5864    0.051    -0.0675 
 O                     4.1471   -1.0597   -0.0881 
 O                     4.145     1.1639   -0.0901 
 C                    -0.0236   -1.1458    0.0835 
 H                    -0.4367   -1.8725    0.7889 
 Br                   -0.5359   -1.8697   -1.7408 
 
 ITRead=  0  0  0  0  0  0  0  0  0  0  0  0  0  0  0
 MicOpt= -1 -1 -1 -1 -1 -1 -1 -1 -1 -1 -1 -1 -1 -1 -1
 NAtoms=     15 NQM=       15 NQMF=       0 NMMI=      0 NMMIF=      0
                NMic=       0 NMicF=      0.
                    Isotopes and Nuclear Properties:
 (Nuclear quadrupole moments (NQMom) in fm**2, nuclear magnetic moments (NMagM)
  in nuclear magnetons)

  Atom         1           2           3           4           5           6           7           8           9          10
 IAtWgt=          12          12          12          12          12           1           1           1           1          14
 AtmWgt=  12.0000000  12.0000000  12.0000000  12.0000000  12.0000000   1.0078250   1.0078250   1.0078250   1.0078250  14.0030740
 NucSpn=           0           0           0           0           0           1           1           1           1           2
 AtZEff=  -0.0000000  -0.0000000  -0.0000000  -0.0000000  -0.0000000  -0.0000000  -0.0000000  -0.0000000  -0.0000000  -0.0000000
 NQMom=    0.0000000   0.0000000   0.0000000   0.0000000   0.0000000   0.0000000   0.0000000   0.0000000   0.0000000   2.0440000
 NMagM=    0.0000000   0.0000000   0.0000000   0.0000000   0.0000000   2.7928460   2.7928460   2.7928460   2.7928460   0.4037610
 AtZNuc=   6.0000000   6.0000000   6.0000000   6.0000000   6.0000000   1.0000000   1.0000000   1.0000000   1.0000000   7.0000000

  Atom        11          12          13          14          15
 IAtWgt=          16          16          12           1          79
 AtmWgt=  15.9949146  15.9949146  12.0000000   1.0078250  78.9183361
 NucSpn=           0           0           0           1           3
 AtZEff=  -0.0000000  -0.0000000  -0.0000000  -0.0000000  -0.0000000
 NQMom=    0.0000000   0.0000000   0.0000000   0.0000000  31.3000000
 NMagM=    0.0000000   0.0000000   0.0000000   2.7928460   2.1063990
 AtZNuc=   8.0000000   8.0000000   6.0000000   1.0000000  35.0000000
 Leave Link  101 at Wed May  1 14:27:45 2024, MaxMem=  1207959552 cpu:               1.4 elap:               1.4
 (Enter /software/gaussian/g16-c01/sse4/g16/l202.exe)
                          Input orientation:                          
 ---------------------------------------------------------------------
 Center     Atomic      Atomic             Coordinates (Angstroms)
 Number     Number       Type             X           Y           Z
 ---------------------------------------------------------------------
      1          6           0        0.029500    1.339700    0.068200
      2          6           0        1.434800    1.286700    0.006400
      3          6           0        2.111800    0.051100   -0.005400
      4          6           0        1.445100   -1.137200    0.031200
      5          6           0       -0.687900    0.168200    0.110000
      6          1           0       -0.471300    2.298400    0.078100
      7          1           0        2.027300    2.196500   -0.032200
      8          1           0        1.989700   -2.076400    0.023200
      9          1           0       -1.771600    0.180400    0.158200
     10          7           0        3.586400    0.051000   -0.067500
     11          8           0        4.147100   -1.059700   -0.088100
     12          8           0        4.145000    1.163900   -0.090100
     13          6           0       -0.023600   -1.145800    0.083500
     14          1           0       -0.436700   -1.872500    0.788900
     15         35           0       -0.535900   -1.869700   -1.740800
 ---------------------------------------------------------------------
                    Distance matrix (angstroms):
                    1          2          3          4          5
     1  C    0.000000
     2  C    1.407656   0.000000
     3  C    2.449874   1.408963   0.000000
     4  C    2.853126   2.424049   1.363043   0.000000
     5  C    1.374344   2.401589   2.804523   2.501993   0.000000
     6  H    1.081667   2.159142   3.424870   3.934226   2.141421
     7  H    2.176095   1.086408   2.147231   3.384750   3.392128
     8  H    3.938800   3.408612   2.131193   1.085702   3.495040
     9  H    2.143837   3.395283   3.888995   3.478413   1.084840
    10  N    3.785591   2.482297   1.475907   2.450862   4.279589
    11  O    4.768247   3.587631   2.320164   2.705743   4.992415
    12  O    4.122294   2.714696   2.319353   3.549540   4.938459
    13  C    2.486114   2.837240   2.449573   1.469656   1.472614
    14  H    3.324903   3.754379   3.290289   2.157764   2.165286
    15  Br   3.727252   4.110867   3.702891   2.756973   2.757100
                    6          7          8          9         10
     6  H    0.000000
     7  H    2.503108   0.000000
     8  H    5.019802   4.273425   0.000000
     9  H    2.486588   4.304945   4.388479   0.000000
    10  N    4.640790   2.652397   2.661486   5.364313   0.000000
    11  O    5.712624   3.885809   2.387560   6.052233   1.244373
    12  O    4.756638   2.356750   3.893289   6.002923   1.245428
    13  C    3.473180   3.923079   2.218790   2.195425   3.806210
    14  H    4.231175   4.827242   2.552506   2.528663   4.540772
    15  Br   4.548146   5.101303   3.087568   3.055498   4.845862
                   11         12         13         14         15
    11  O    0.000000
    12  O    2.223602   0.000000
    13  C    4.175117   4.768865   0.000000
    14  H    4.737193   5.566358   1.093770   0.000000
    15  Br   5.031700   5.817075   2.028436   2.531646   0.000000
 Symmetry turned off by external request.
 Stoichiometry    C6H5BrNO2(1+)
 Framework group  C1[X(C6H5BrNO2)]
 Deg. of freedom    39
 Full point group                 C1      NOp   1
 Rotational constants (GHZ):           1.8252210           0.5518633           0.4576002
 Leave Link  202 at Wed May  1 14:27:47 2024, MaxMem=  1207959552 cpu:               1.3 elap:               1.3
 (Enter /software/gaussian/g16-c01/sse4/g16/l301.exe)
 Standard basis: 6-311+G(d) (5D, 7F)
 Ernie: Thresh=  0.10000D-02 Tol=  0.10000D-05 Strict=F.
 The following finite field(s) will be applied:
 An electric field of             -0.0136  0.0000  0.0000
   261 basis functions,   443 primitive gaussians,   273 cartesian basis functions
    49 alpha electrons       49 beta electrons
       nuclear repulsion energy       739.2122215416 Hartrees.
 IExCor= 4639 DFT=T Ex+Corr=wB97XD ExCW=0 ScaHFX=  1.000000
 ScaDFX=  1.000000  1.000000  1.000000  1.000000 ScalE2=  1.000000  1.000000
 IRadAn=      5 IRanWt=     -1 IRanGd=            0 ICorTp=0 IEmpDi=121
 HFx  wShort=  0.000000 wLong=  0.200000 cFull=  0.222036 cShort=  0.000000 cLong=  0.777964
 DFx  wShort=  0.000000 wLong=  0.200000 cFull=  0.000000 cShort=  0.000000 cLong=  1.000000
 NAtoms=   15 NActive=   15 NUniq=   15 SFac= 1.00D+00 NAtFMM=   60 NAOKFM=F Big=F
 Integral buffers will be    131072 words long.
 Raffenetti 2 integral format.
 Two-electron integral symmetry is turned off.
 R6Disp:  Grimme-D2 Dispersion energy=       -0.0077368520 Hartrees.
 Nuclear repulsion after empirical dispersion term =      739.2044846896 Hartrees.
 Leave Link  301 at Wed May  1 14:27:48 2024, MaxMem=  1207959552 cpu:               1.0 elap:               1.0
 (Enter /software/gaussian/g16-c01/sse4/g16/l302.exe)
 NPDir=0 NMtPBC=     1 NCelOv=     1 NCel=       1 NClECP=     1 NCelD=      1
         NCelK=      1 NCelE2=     1 NClLst=     1 CellRange=     0.0.
 One-electron integrals computed using PRISM.
 NBasis=   261 RedAO= T EigKep=  2.35D-06  NBF=   261
 NBsUse=   261 1.00D-06 EigRej= -1.00D+00 NBFU=   261
 Precomputing XC quadrature grid using
 IXCGrd= 4 IRadAn=           5 IRanWt=          -1 IRanGd=           0 AccXCQ= 0.00D+00.
 Generated NRdTot=       0 NPtTot=           0 NUsed=           0 NTot=          32
 NSgBfM=   273   273   273   273   273 MxSgAt=    15 MxSgA2=    15.
 Leave Link  302 at Wed May  1 14:28:09 2024, MaxMem=  1207959552 cpu:              21.2 elap:              21.2
 (Enter /software/gaussian/g16-c01/sse4/g16/l303.exe)
 DipDrv:  MaxL=1.
 The nuclear repulsion energy is now       736.6375232030 hartrees.
 Leave Link  303 at Wed May  1 14:28:13 2024, MaxMem=  1207959552 cpu:               3.2 elap:               3.2
 (Enter /software/gaussian/g16-c01/sse4/g16/l401.exe)
 ExpMin= 3.50D-02 ExpMax= 4.40D+05 ExpMxC= 1.51D+04 IAcc=3 IRadAn=         5 AccDes= 0.00D+00
 Harris functional with IExCor= 4639 and IRadAn=       5 diagonalized for initial guess.
 HarFok:  IExCor= 4639 AccDes= 0.00D+00 IRadAn=         5 IDoV= 1 UseB2=F ITyADJ=14
 ICtDFT=  3500011 ScaDFX=  1.000000  1.000000  1.000000  1.000000
 FoFCou: FMM=F IPFlag=           0 FMFlag=      100000 FMFlg1=           0
         NFxFlg=           0 DoJE=T BraDBF=F KetDBF=T FulRan=T
         wScrn=  0.000000 ICntrl=       500 IOpCl=  0 I1Cent=   200000004 NGrid=           0
         NMat0=    1 NMatS0=      1 NMatT0=    0 NMatD0=    1 NMtDS0=    0 NMtDT0=    0
 Symmetry not used in FoFCou.
 Harris En= -2970.74600512343    
 JPrj=0 DoOrth=F DoCkMO=F.
 Leave Link  401 at Wed May  1 14:28:43 2024, MaxMem=  1207959552 cpu:              29.7 elap:              29.7
 (Enter /software/gaussian/g16-c01/sse4/g16/l502.exe)
 Two-electron integral symmetry not used.
 Closed shell SCF:
 Using DIIS extrapolation, IDIIS=  1040.
 NGot=  1207959552 LenX=  1207804877 LenY=  1207729907
 Requested convergence on RMS density matrix=1.00D-08 within 128 cycles.
 Requested convergence on MAX density matrix=1.00D-06.
 Requested convergence on             energy=1.00D-06.
 No special actions if energy rises.
 Fock matrices will be formed incrementally for  20 cycles.

 Cycle   1  Pass 1  IDiag  1:
 FoFJK:  IHMeth= 1 ICntrl=       0 DoSepK=T KAlg= 0 I1Cent=           0 FoldK=F
 IRaf=         1 NMat=       1 IRICut=       1 DoRegI=T DoRafI=F ISym2E= 0 IDoP0=0 IntGTp=1.
 FoFCou: FMM=F IPFlag=           0 FMFlag=      100000 FMFlg1=           0
         NFxFlg=           0 DoJE=T BraDBF=F KetDBF=F FulRan=T
         wScrn=  0.000000 ICntrl=       500 IOpCl=  0 I1Cent=           0 NGrid=           0
         NMat0=    1 NMatS0=      1 NMatT0=    0 NMatD0=    1 NMtDS0=    0 NMtDT0=    0
 Symmetry not used in FoFCou.
 E= -3008.33354712096    
 DIIS: error= 3.21D-01 at cycle   1 NSaved=   1.
 NSaved= 1 IEnMin= 1 EnMin= -3008.33354712096     IErMin= 1 ErrMin= 3.21D-01
 ErrMax= 3.21D-01  0.00D+00 EMaxC= 1.00D-01 BMatC= 1.26D+01 BMatP= 1.26D+01
 IDIUse=3 WtCom= 0.00D+00 WtEn= 1.00D+00
 Coeff-Com:  0.100D+01
 Coeff-En:   0.100D+01
 Coeff:      0.100D+01
 Gap=     1.179 Goal=   None    Shift=    0.000
 GapD=    1.179 DampG=2.000 DampE=0.250 DampFc=0.5000 IDamp=-1.
 Damping current iteration by 5.00D-01
 RMSDP=5.40D-01 MaxDP=3.20D+01              OVMax= 9.76D-01

 Cycle   2  Pass 1  IDiag  1:
 RMSU=  5.13D-02    CP:  5.50D-01
 E= -3005.19613097031     Delta-E=        3.137416150647 Rises=F Damp=T
 DIIS: error= 1.40D-01 at cycle   2 NSaved=   2.
 NSaved= 2 IEnMin= 1 EnMin= -3008.33354712096     IErMin= 2 ErrMin= 1.40D-01
 ErrMax= 1.40D-01  0.00D+00 EMaxC= 1.00D-01 BMatC= 3.44D+00 BMatP= 1.26D+01
 IDIUse=3 WtCom= 0.00D+00 WtEn= 1.00D+00
 Coeff-Com:  0.200D-01 0.980D+00
 Coeff-En:   0.735D+00 0.265D+00
 Coeff:      0.735D+00 0.265D+00
 Gap=    -0.015 Goal=   None    Shift=    0.000
 RMSDP=2.82D-01 MaxDP=1.68D+01 DE= 3.14D+00 OVMax= 9.26D-01

 Cycle   3  Pass 1  IDiag  1:
 RMSU=  2.17D-02    CP:  7.33D-02  9.58D-01
 E= -3009.13768489844     Delta-E=       -3.941553928134 Rises=F Damp=F
 DIIS: error= 1.37D-01 at cycle   3 NSaved=   3.
 NSaved= 3 IEnMin= 3 EnMin= -3009.13768489844     IErMin= 3 ErrMin= 1.37D-01
 ErrMax= 1.37D-01  0.00D+00 EMaxC= 1.00D-01 BMatC= 2.36D+00 BMatP= 3.44D+00
 IDIUse=3 WtCom= 0.00D+00 WtEn= 1.00D+00
 Coeff-Com:  0.309D+00-0.121D+00 0.812D+00
 Coeff-En:   0.403D+00 0.000D+00 0.597D+00
 Coeff:      0.403D+00 0.000D+00 0.597D+00
 Gap=     0.139 Goal=   None    Shift=    0.000
 RMSDP=2.89D-02 MaxDP=1.70D+00 DE=-3.94D+00 OVMax= 9.60D-01

 Cycle   4  Pass 1  IDiag  1:
 RMSU=  1.83D-02    CP:  9.93D-02  6.47D-01  8.26D-01
 E= -3009.62275689367     Delta-E=       -0.485071995221 Rises=F Damp=F
 DIIS: error= 6.78D-02 at cycle   4 NSaved=   4.
 NSaved= 4 IEnMin= 4 EnMin= -3009.62275689367     IErMin= 4 ErrMin= 6.78D-02
 ErrMax= 6.78D-02  0.00D+00 EMaxC= 1.00D-01 BMatC= 5.85D-01 BMatP= 2.36D+00
 IDIUse=3 WtCom= 3.22D-01 WtEn= 6.78D-01
 Coeff-Com:  0.464D-01 0.833D-01 0.266D+00 0.605D+00
 Coeff-En:   0.000D+00 0.000D+00 0.412D+00 0.588D+00
 Coeff:      0.149D-01 0.268D-01 0.365D+00 0.593D+00
 Gap=    -0.132 Goal=   None    Shift=    0.000
 RMSDP=3.05D-02 MaxDP=1.48D+00 DE=-4.85D-01 OVMax= 9.16D-01

 Cycle   5  Pass 1  IDiag  1:
 RMSU=  9.79D-03    CP:  6.23D-02  8.45D-01  1.10D+00  1.83D-01
 E= -3010.29180237780     Delta-E=       -0.669045484134 Rises=F Damp=F
 DIIS: error= 5.85D-02 at cycle   5 NSaved=   5.
 NSaved= 5 IEnMin= 5 EnMin= -3010.29180237780     IErMin= 5 ErrMin= 5.85D-02
 ErrMax= 5.85D-02  0.00D+00 EMaxC= 1.00D-01 BMatC= 3.72D-01 BMatP= 5.85D-01
 IDIUse=3 WtCom= 4.15D-01 WtEn= 5.85D-01
 Coeff-Com: -0.193D-01 0.453D-01 0.783D-01 0.440D+00 0.456D+00
 Coeff-En:   0.000D+00 0.000D+00 0.000D+00 0.232D+00 0.768D+00
 Coeff:     -0.799D-02 0.188D-01 0.325D-01 0.318D+00 0.638D+00
 Gap=     0.203 Goal=   None    Shift=    0.000
 RMSDP=1.07D-02 MaxDP=5.65D-01 DE=-6.69D-01 OVMax= 1.45D-01

 Cycle   6  Pass 1  IDiag  1:
 RMSU=  8.24D-03    CP:  6.54D-02  7.26D-01  1.11D+00  3.14D-01  9.52D-01
 E= -3010.51020283685     Delta-E=       -0.218400459050 Rises=F Damp=F
 DIIS: error= 1.20D-02 at cycle   6 NSaved=   6.
 NSaved= 6 IEnMin= 6 EnMin= -3010.51020283685     IErMin= 6 ErrMin= 1.20D-02
 ErrMax= 1.20D-02  0.00D+00 EMaxC= 1.00D-01 BMatC= 4.40D-02 BMatP= 3.72D-01
 IDIUse=3 WtCom= 8.80D-01 WtEn= 1.20D-01
 Coeff-Com:  0.632D-02-0.178D-01-0.176D-01 0.113D+00 0.253D+00 0.664D+00
 Coeff-En:   0.000D+00 0.000D+00 0.000D+00 0.000D+00 0.000D+00 0.100D+01
 Coeff:      0.556D-02-0.157D-01-0.155D-01 0.990D-01 0.222D+00 0.704D+00
 Gap=     0.191 Goal=   None    Shift=    0.000
 RMSDP=4.27D-03 MaxDP=3.18D-01 DE=-2.18D-01 OVMax= 4.42D-02

 Cycle   7  Pass 1  IDiag  1:
 RMSU=  2.78D-03    CP:  6.39D-02  6.73D-01  1.07D+00  3.66D-01  1.02D+00
                    CP:  9.28D-01
 E= -3010.53101087979     Delta-E=       -0.020808042939 Rises=F Damp=F
 DIIS: error= 9.70D-03 at cycle   7 NSaved=   7.
 NSaved= 7 IEnMin= 7 EnMin= -3010.53101087979     IErMin= 7 ErrMin= 9.70D-03
 ErrMax= 9.70D-03  0.00D+00 EMaxC= 1.00D-01 BMatC= 8.74D-03 BMatP= 4.40D-02
 IDIUse=3 WtCom= 9.03D-01 WtEn= 9.70D-02
 Coeff-Com:  0.523D-02-0.113D-01-0.258D-01 0.289D-01 0.171D-01 0.314D+00
 Coeff-Com:  0.672D+00
 Coeff-En:   0.000D+00 0.000D+00 0.000D+00 0.000D+00 0.000D+00 0.000D+00
 Coeff-En:   0.100D+01
 Coeff:      0.472D-02-0.102D-01-0.233D-01 0.261D-01 0.155D-01 0.284D+00
 Coeff:      0.704D+00
 Gap=     0.203 Goal=   None    Shift=    0.000
 RMSDP=1.68D-03 MaxDP=1.15D-01 DE=-2.08D-02 OVMax= 3.50D-02

 Cycle   8  Pass 1  IDiag  1:
 RMSU=  1.06D-03    CP:  6.45D-02  6.67D-01  1.06D+00  3.84D-01  1.06D+00
                    CP:  1.04D+00  1.18D+00
 E= -3010.53824495455     Delta-E=       -0.007234074758 Rises=F Damp=F
 DIIS: error= 5.17D-03 at cycle   8 NSaved=   8.
 NSaved= 8 IEnMin= 8 EnMin= -3010.53824495455     IErMin= 8 ErrMin= 5.17D-03
 ErrMax= 5.17D-03  0.00D+00 EMaxC= 1.00D-01 BMatC= 2.41D-03 BMatP= 8.74D-03
 IDIUse=3 WtCom= 9.48D-01 WtEn= 5.17D-02
 Coeff-Com:  0.299D-02-0.555D-02-0.975D-02 0.320D-02-0.566D-01-0.576D-02
 Coeff-Com:  0.488D+00 0.583D+00
 Coeff-En:   0.000D+00 0.000D+00 0.000D+00 0.000D+00 0.000D+00 0.000D+00
 Coeff-En:   0.000D+00 0.100D+01
 Coeff:      0.284D-02-0.526D-02-0.925D-02 0.304D-02-0.537D-01-0.547D-02
 Coeff:      0.463D+00 0.605D+00
 Gap=     0.206 Goal=   None    Shift=    0.000
 RMSDP=8.81D-04 MaxDP=5.87D-02 DE=-7.23D-03 OVMax= 2.37D-02

 Cycle   9  Pass 1  IDiag  1:
 RMSU=  4.78D-04    CP:  6.47D-02  6.59D-01  1.06D+00  3.91D-01  1.07D+00
                    CP:  1.07D+00  1.38D+00  8.40D-01
 E= -3010.54070188066     Delta-E=       -0.002456926116 Rises=F Damp=F
 DIIS: error= 1.86D-03 at cycle   9 NSaved=   9.
 NSaved= 9 IEnMin= 9 EnMin= -3010.54070188066     IErMin= 9 ErrMin= 1.86D-03
 ErrMax= 1.86D-03  0.00D+00 EMaxC= 1.00D-01 BMatC= 4.81D-04 BMatP= 2.41D-03
 IDIUse=3 WtCom= 9.81D-01 WtEn= 1.86D-02
 Coeff-Com:  0.166D-02-0.296D-02 0.334D-02-0.395D-02-0.412D-01-0.107D+00
 Coeff-Com:  0.985D-01 0.400D+00 0.652D+00
 Coeff-En:   0.000D+00 0.000D+00 0.000D+00 0.000D+00 0.000D+00 0.000D+00
 Coeff-En:   0.000D+00 0.000D+00 0.100D+01
 Coeff:      0.163D-02-0.291D-02 0.327D-02-0.388D-02-0.404D-01-0.105D+00
 Coeff:      0.967D-01 0.392D+00 0.658D+00
 Gap=     0.205 Goal=   None    Shift=    0.000
 RMSDP=6.10D-04 MaxDP=3.60D-02 DE=-2.46D-03 OVMax= 1.94D-02

 Cycle  10  Pass 1  IDiag  1:
 RMSU=  2.56D-04    CP:  6.48D-02  6.54D-01  1.06D+00  3.92D-01  1.07D+00
                    CP:  1.08D+00  1.50D+00  1.10D+00  1.06D+00
 E= -3010.54149249002     Delta-E=       -0.000790609360 Rises=F Damp=F
 DIIS: error= 4.96D-04 at cycle  10 NSaved=  10.
 NSaved=10 IEnMin=10 EnMin= -3010.54149249002     IErMin=10 ErrMin= 4.96D-04
 ErrMax= 4.96D-04  0.00D+00 EMaxC= 1.00D-01 BMatC= 2.84D-05 BMatP= 4.81D-04
 IDIUse=3 WtCom= 9.95D-01 WtEn= 4.96D-03
 Coeff-Com:  0.530D-03-0.108D-02 0.268D-02-0.463D-02-0.186D-02-0.188D-01
 Coeff-Com: -0.409D-01-0.255D-01 0.123D+00 0.967D+00
 Coeff-En:   0.000D+00 0.000D+00 0.000D+00 0.000D+00 0.000D+00 0.000D+00
 Coeff-En:   0.000D+00 0.000D+00 0.000D+00 0.100D+01
 Coeff:      0.527D-03-0.108D-02 0.267D-02-0.460D-02-0.185D-02-0.187D-01
 Coeff:     -0.407D-01-0.253D-01 0.122D+00 0.967D+00
 Gap=     0.205 Goal=   None    Shift=    0.000
 RMSDP=3.23D-04 MaxDP=1.30D-02 DE=-7.91D-04 OVMax= 1.59D-02

 Cycle  11  Pass 1  IDiag  1:
 RMSU=  1.01D-04    CP:  6.48D-02  6.54D-01  1.06D+00  3.86D-01  1.07D+00
                    CP:  1.07D+00  1.56D+00  1.20D+00  1.37D+00  1.52D+00
 E= -3010.54168958945     Delta-E=       -0.000197099432 Rises=F Damp=F
 DIIS: error= 2.66D-04 at cycle  11 NSaved=  11.
 NSaved=11 IEnMin=11 EnMin= -3010.54168958945     IErMin=11 ErrMin= 2.66D-04
 ErrMax= 2.66D-04  0.00D+00 EMaxC= 1.00D-01 BMatC= 1.73D-05 BMatP= 2.84D-05
 IDIUse=3 WtCom= 9.97D-01 WtEn= 2.66D-03
 Coeff-Com: -0.115D-03 0.129D-03-0.237D-03-0.292D-02 0.877D-02 0.213D-01
 Coeff-Com: -0.195D-01-0.868D-01-0.102D+00 0.347D+00 0.835D+00
 Coeff-En:   0.000D+00 0.000D+00 0.000D+00 0.000D+00 0.000D+00 0.000D+00
 Coeff-En:   0.000D+00 0.000D+00 0.000D+00 0.000D+00 0.100D+01
 Coeff:     -0.115D-03 0.128D-03-0.236D-03-0.291D-02 0.874D-02 0.213D-01
 Coeff:     -0.195D-01-0.865D-01-0.102D+00 0.346D+00 0.836D+00
 Gap=     0.205 Goal=   None    Shift=    0.000
 RMSDP=2.02D-04 MaxDP=1.02D-02 DE=-1.97D-04 OVMax= 9.36D-03

 Cycle  12  Pass 1  IDiag  1:
 RMSU=  5.32D-05    CP:  6.47D-02  6.54D-01  1.06D+00  3.81D-01  1.07D+00
                    CP:  1.06D+00  1.58D+00  1.25D+00  1.49D+00  1.93D+00
                    CP:  1.47D+00
 E= -3010.54175875912     Delta-E=       -0.000069169669 Rises=F Damp=F
 DIIS: error= 1.86D-04 at cycle  12 NSaved=  12.
 NSaved=12 IEnMin=12 EnMin= -3010.54175875912     IErMin=12 ErrMin= 1.86D-04
 ErrMax= 1.86D-04  0.00D+00 EMaxC= 1.00D-01 BMatC= 7.02D-06 BMatP= 1.73D-05
 IDIUse=3 WtCom= 9.98D-01 WtEn= 1.86D-03
 Coeff-Com: -0.262D-03 0.497D-03-0.963D-03-0.732D-03 0.215D-02 0.902D-02
 Coeff-Com:  0.193D-01 0.657D-02-0.367D-01-0.215D+00-0.269D-01 0.124D+01
 Coeff-En:   0.000D+00 0.000D+00 0.000D+00 0.000D+00 0.000D+00 0.000D+00
 Coeff-En:   0.000D+00 0.000D+00 0.000D+00 0.000D+00 0.000D+00 0.100D+01
 Coeff:     -0.261D-03 0.496D-03-0.961D-03-0.731D-03 0.214D-02 0.900D-02
 Coeff:      0.193D-01 0.656D-02-0.367D-01-0.215D+00-0.269D-01 0.124D+01
 Gap=     0.205 Goal=   None    Shift=    0.000
 RMSDP=1.90D-04 MaxDP=9.39D-03 DE=-6.92D-05 OVMax= 7.96D-03

 Cycle  13  Pass 1  IDiag  1:
 RMSU=  2.39D-05    CP:  6.46D-02  6.54D-01  1.06D+00  3.77D-01  1.07D+00
                    CP:  1.05D+00  1.59D+00  1.28D+00  1.58D+00  2.25D+00
                    CP:  2.06D+00  1.48D+00
 E= -3010.54179231004     Delta-E=       -0.000033550921 Rises=F Damp=F
 DIIS: error= 6.59D-05 at cycle  13 NSaved=  13.
 NSaved=13 IEnMin=13 EnMin= -3010.54179231004     IErMin=13 ErrMin= 6.59D-05
 ErrMax= 6.59D-05  0.00D+00 EMaxC= 1.00D-01 BMatC= 1.06D-06 BMatP= 7.02D-06
 IDIUse=1 WtCom= 1.00D+00 WtEn= 0.00D+00
 Coeff-Com: -0.657D-04 0.139D-03-0.175D-03-0.247D-03-0.177D-02-0.169D-02
 Coeff-Com:  0.865D-02 0.182D-01 0.116D-01-0.105D+00-0.242D+00 0.132D+00
 Coeff-Com:  0.118D+01
 Coeff:     -0.657D-04 0.139D-03-0.175D-03-0.247D-03-0.177D-02-0.169D-02
 Coeff:      0.865D-02 0.182D-01 0.116D-01-0.105D+00-0.242D+00 0.132D+00
 Coeff:      0.118D+01
 Gap=     0.205 Goal=   None    Shift=    0.000
 RMSDP=1.06D-04 MaxDP=6.10D-03 DE=-3.36D-05 OVMax= 5.43D-03

 Cycle  14  Pass 1  IDiag  1:
 RMSU=  1.51D-05    CP:  6.45D-02  6.55D-01  1.06D+00  3.75D-01  1.06D+00
                    CP:  1.05D+00  1.60D+00  1.31D+00  1.62D+00  2.45D+00
                    CP:  2.34D+00  2.04D+00  1.42D+00
 E= -3010.54180065313     Delta-E=       -0.000008343086 Rises=F Damp=F
 DIIS: error= 1.92D-05 at cycle  14 NSaved=  14.
 NSaved=14 IEnMin=14 EnMin= -3010.54180065313     IErMin=14 ErrMin= 1.92D-05
 ErrMax= 1.92D-05  0.00D+00 EMaxC= 1.00D-01 BMatC= 1.42D-07 BMatP= 1.06D-06
 IDIUse=1 WtCom= 1.00D+00 WtEn= 0.00D+00
 Coeff-Com:  0.105D-04-0.172D-04 0.458D-04-0.219D-03-0.105D-02-0.172D-02
 Coeff-Com:  0.261D-03 0.506D-02 0.931D-02-0.388D-02-0.841D-01-0.177D+00
 Coeff-Com:  0.512D+00 0.741D+00
 Coeff:      0.105D-04-0.172D-04 0.458D-04-0.219D-03-0.105D-02-0.172D-02
 Coeff:      0.261D-03 0.506D-02 0.931D-02-0.388D-02-0.841D-01-0.177D+00
 Coeff:      0.512D+00 0.741D+00
 Gap=     0.205 Goal=   None    Shift=    0.000
 RMSDP=2.76D-05 MaxDP=1.52D-03 DE=-8.34D-06 OVMax= 1.40D-03

 Cycle  15  Pass 1  IDiag  1:
 RMSU=  6.73D-06    CP:  6.45D-02  6.55D-01  1.06D+00  3.74D-01  1.06D+00
                    CP:  1.05D+00  1.60D+00  1.32D+00  1.64D+00  2.50D+00
                    CP:  2.42D+00  2.11D+00  1.59D+00  1.27D+00
 E= -3010.54180129022     Delta-E=       -0.000000637092 Rises=F Damp=F
 DIIS: error= 1.24D-05 at cycle  15 NSaved=  15.
 NSaved=15 IEnMin=15 EnMin= -3010.54180129022     IErMin=15 ErrMin= 1.24D-05
 ErrMax= 1.24D-05  0.00D+00 EMaxC= 1.00D-01 BMatC= 2.07D-08 BMatP= 1.42D-07
 IDIUse=1 WtCom= 1.00D+00 WtEn= 0.00D+00
 Coeff-Com:  0.109D-04-0.280D-04 0.104D-04-0.976D-04 0.111D-03 0.690D-04
 Coeff-Com: -0.529D-03-0.111D-02-0.375D-03 0.939D-02 0.318D-01-0.514D-01
 Coeff-Com: -0.821D-01 0.785D-01 0.102D+01
 Coeff:      0.109D-04-0.280D-04 0.104D-04-0.976D-04 0.111D-03 0.690D-04
 Coeff:     -0.529D-03-0.111D-02-0.375D-03 0.939D-02 0.318D-01-0.514D-01
 Coeff:     -0.821D-01 0.785D-01 0.102D+01
 Gap=     0.205 Goal=   None    Shift=    0.000
 RMSDP=7.89D-06 MaxDP=4.57D-04 DE=-6.37D-07 OVMax= 3.50D-04

 Cycle  16  Pass 1  IDiag  1:
 RMSU=  2.10D-06    CP:  6.45D-02  6.55D-01  1.06D+00  3.74D-01  1.06D+00
                    CP:  1.05D+00  1.61D+00  1.32D+00  1.65D+00  2.51D+00
                    CP:  2.43D+00  2.11D+00  1.67D+00  1.41D+00  1.24D+00
 E= -3010.54180137914     Delta-E=       -0.000000088920 Rises=F Damp=F
 DIIS: error= 5.95D-06 at cycle  16 NSaved=  16.
 NSaved=16 IEnMin=16 EnMin= -3010.54180137914     IErMin=16 ErrMin= 5.95D-06
 ErrMax= 5.95D-06  0.00D+00 EMaxC= 1.00D-01 BMatC= 2.67D-09 BMatP= 2.07D-08
 IDIUse=1 WtCom= 1.00D+00 WtEn= 0.00D+00
 Coeff-Com:  0.214D-05-0.618D-05-0.923D-05-0.101D-04 0.108D-03 0.203D-03
 Coeff-Com:  0.297D-03-0.289D-03-0.151D-02-0.287D-02 0.149D-01 0.193D-01
 Coeff-Com: -0.539D-01-0.116D+00 0.149D-01 0.112D+01
 Coeff:      0.214D-05-0.618D-05-0.923D-05-0.101D-04 0.108D-03 0.203D-03
 Coeff:      0.297D-03-0.289D-03-0.151D-02-0.287D-02 0.149D-01 0.193D-01
 Coeff:     -0.539D-01-0.116D+00 0.149D-01 0.112D+01
 Gap=     0.205 Goal=   None    Shift=    0.000
 RMSDP=3.46D-06 MaxDP=1.99D-04 DE=-8.89D-08 OVMax= 1.47D-04

 Cycle  17  Pass 1  IDiag  1:
 RMSU=  1.21D-06    CP:  6.45D-02  6.55D-01  1.06D+00  3.74D-01  1.06D+00
                    CP:  1.05D+00  1.61D+00  1.33D+00  1.65D+00  2.51D+00
                    CP:  2.43D+00  2.11D+00  1.68D+00  1.49D+00  1.45D+00
                    CP:  1.27D+00
 E= -3010.54180139859     Delta-E=       -0.000000019448 Rises=F Damp=F
 DIIS: error= 2.62D-06 at cycle  17 NSaved=  17.
 NSaved=17 IEnMin=17 EnMin= -3010.54180139859     IErMin=17 ErrMin= 2.62D-06
 ErrMax= 2.62D-06  0.00D+00 EMaxC= 1.00D-01 BMatC= 8.35D-10 BMatP= 2.67D-09
 IDIUse=1 WtCom= 1.00D+00 WtEn= 0.00D+00
 Coeff-Com:  0.741D-06-0.122D-05-0.511D-05-0.179D-06 0.617D-05 0.602D-04
 Coeff-Com:  0.230D-03 0.779D-04-0.600D-03-0.355D-02 0.130D-02 0.145D-01
 Coeff-Com: -0.153D-02-0.641D-01-0.159D+00 0.510D+00 0.703D+00
 Coeff:      0.741D-06-0.122D-05-0.511D-05-0.179D-06 0.617D-05 0.602D-04
 Coeff:      0.230D-03 0.779D-04-0.600D-03-0.355D-02 0.130D-02 0.145D-01
 Coeff:     -0.153D-02-0.641D-01-0.159D+00 0.510D+00 0.703D+00
 Gap=     0.205 Goal=   None    Shift=    0.000
 RMSDP=1.66D-06 MaxDP=1.21D-04 DE=-1.94D-08 OVMax= 5.57D-05

 Cycle  18  Pass 1  IDiag  1:
 RMSU=  5.04D-07    CP:  6.45D-02  6.55D-01  1.06D+00  3.74D-01  1.06D+00
                    CP:  1.05D+00  1.61D+00  1.33D+00  1.65D+00  2.51D+00
                    CP:  2.44D+00  2.11D+00  1.69D+00  1.51D+00  1.56D+00
                    CP:  1.43D+00  1.17D+00
 E= -3010.54180140255     Delta-E=       -0.000000003963 Rises=F Damp=F
 DIIS: error= 1.53D-06 at cycle  18 NSaved=  18.
 NSaved=18 IEnMin=18 EnMin= -3010.54180140255     IErMin=18 ErrMin= 1.53D-06
 ErrMax= 1.53D-06  0.00D+00 EMaxC= 1.00D-01 BMatC= 1.81D-10 BMatP= 8.35D-10
 IDIUse=1 WtCom= 1.00D+00 WtEn= 0.00D+00
 Coeff-Com:  0.552D-06-0.841D-06 0.170D-06 0.781D-06-0.255D-04-0.905D-05
 Coeff-Com: -0.209D-04 0.636D-04 0.133D-03-0.827D-03-0.337D-02-0.659D-03
 Coeff-Com:  0.165D-01 0.122D-01-0.407D-01-0.246D+00 0.140D+00 0.112D+01
 Coeff:      0.552D-06-0.841D-06 0.170D-06 0.781D-06-0.255D-04-0.905D-05
 Coeff:     -0.209D-04 0.636D-04 0.133D-03-0.827D-03-0.337D-02-0.659D-03
 Coeff:      0.165D-01 0.122D-01-0.407D-01-0.246D+00 0.140D+00 0.112D+01
 Gap=     0.205 Goal=   None    Shift=    0.000
 RMSDP=1.10D-06 MaxDP=6.37D-05 DE=-3.96D-09 OVMax= 5.30D-05

 Cycle  19  Pass 1  IDiag  1:
 RMSU=  2.08D-07    CP:  6.45D-02  6.55D-01  1.06D+00  3.74D-01  1.06D+00
                    CP:  1.05D+00  1.61D+00  1.33D+00  1.65D+00  2.51D+00
                    CP:  2.44D+00  2.10D+00  1.70D+00  1.53D+00  1.62D+00
                    CP:  1.54D+00  1.45D+00  1.54D+00
 E= -3010.54180140427     Delta-E=       -0.000000001715 Rises=F Damp=F
 DIIS: error= 5.03D-07 at cycle  19 NSaved=  19.
 NSaved=19 IEnMin=19 EnMin= -3010.54180140427     IErMin=19 ErrMin= 5.03D-07
 ErrMax= 5.03D-07  0.00D+00 EMaxC= 1.00D-01 BMatC= 2.05D-11 BMatP= 1.81D-10
 IDIUse=1 WtCom= 1.00D+00 WtEn= 0.00D+00
 Coeff-Com:  0.714D-07-0.287D-06 0.269D-06-0.328D-06-0.104D-05-0.360D-05
 Coeff-Com: -0.399D-04 0.610D-05 0.119D-03 0.190D-03-0.534D-03-0.154D-02
 Coeff-Com:  0.226D-02 0.107D-01 0.250D-01-0.125D+00-0.128D+00 0.109D+00
 Coeff-Com:  0.111D+01
 Coeff:      0.714D-07-0.287D-06 0.269D-06-0.328D-06-0.104D-05-0.360D-05
 Coeff:     -0.399D-04 0.610D-05 0.119D-03 0.190D-03-0.534D-03-0.154D-02
 Coeff:      0.226D-02 0.107D-01 0.250D-01-0.125D+00-0.128D+00 0.109D+00
 Coeff:      0.111D+01
 Gap=     0.205 Goal=   None    Shift=    0.000
 RMSDP=4.30D-07 MaxDP=2.53D-05 DE=-1.71D-09 OVMax= 2.49D-05

 Cycle  20  Pass 1  IDiag  1:
 RMSU=  6.78D-08    CP:  6.45D-02  6.55D-01  1.06D+00  3.74D-01  1.06D+00
                    CP:  1.05D+00  1.61D+00  1.33D+00  1.65D+00  2.51D+00
                    CP:  2.44D+00  2.10D+00  1.70D+00  1.54D+00  1.65D+00
                    CP:  1.56D+00  1.59D+00  1.81D+00  1.31D+00
 E= -3010.54180140445     Delta-E=       -0.000000000180 Rises=F Damp=F
 DIIS: error= 1.05D-07 at cycle  20 NSaved=  20.
 NSaved=20 IEnMin=20 EnMin= -3010.54180140445     IErMin=20 ErrMin= 1.05D-07
 ErrMax= 1.05D-07  0.00D+00 EMaxC= 1.00D-01 BMatC= 1.80D-12 BMatP= 2.05D-11
 IDIUse=1 WtCom= 1.00D+00 WtEn= 0.00D+00
 Coeff-Com:  0.122D-07-0.849D-07-0.189D-06-0.139D-06 0.323D-06-0.159D-05
 Coeff-Com: -0.324D-05 0.869D-05 0.349D-04 0.875D-04 0.582D-04-0.143D-03
 Coeff-Com: -0.784D-03 0.186D-02 0.725D-02-0.903D-02-0.337D-01-0.597D-01
 Coeff-Com:  0.244D+00 0.850D+00
 Coeff:      0.122D-07-0.849D-07-0.189D-06-0.139D-06 0.323D-06-0.159D-05
 Coeff:     -0.324D-05 0.869D-05 0.349D-04 0.875D-04 0.582D-04-0.143D-03
 Coeff:     -0.784D-03 0.186D-02 0.725D-02-0.903D-02-0.337D-01-0.597D-01
 Coeff:      0.244D+00 0.850D+00
 Gap=     0.205 Goal=   None    Shift=    0.000
 RMSDP=5.67D-08 MaxDP=3.27D-06 DE=-1.80D-10 OVMax= 3.79D-06

 Cycle  21  Pass 1  IDiag  1:
 Restarting incremental Fock formation.
 E= -3010.54180140445     Delta-E=        0.000000000002 Rises=F Damp=F
 DIIS: error= 3.80D-08 at cycle  21 NSaved=  20.
 NSaved=20 IEnMin=19 EnMin= -3010.54180140445     IErMin=20 ErrMin= 3.80D-08
 ErrMax= 3.80D-08  0.00D+00 EMaxC= 1.00D-01 BMatC= 5.65D-13 BMatP= 1.80D-12
 IDIUse=1 WtCom= 1.00D+00 WtEn= 0.00D+00
 Coeff-Com: -0.709D-08-0.116D-06 0.104D-06 0.277D-06-0.111D-06 0.264D-05
 Coeff-Com: -0.183D-06-0.493D-05 0.142D-04 0.641D-04 0.173D-03-0.687D-03
 Coeff-Com: -0.395D-03-0.612D-03 0.148D-01 0.780D-02-0.418D-01-0.811D-01
 Coeff-Com:  0.306D+00 0.796D+00
 Coeff:     -0.709D-08-0.116D-06 0.104D-06 0.277D-06-0.111D-06 0.264D-05
 Coeff:     -0.183D-06-0.493D-05 0.142D-04 0.641D-04 0.173D-03-0.687D-03
 Coeff:     -0.395D-03-0.612D-03 0.148D-01 0.780D-02-0.418D-01-0.811D-01
 Coeff:      0.306D+00 0.796D+00
 Gap=     0.205 Goal=   None    Shift=    0.000
 RMSDP=2.82D-08 MaxDP=1.12D-06 DE= 1.82D-12 OVMax= 1.01D-06

 Cycle  22  Pass 1  IDiag  1:
 RMSU=  2.79D-08    CP:  1.00D+00
 E= -3010.54180140447     Delta-E=       -0.000000000022 Rises=F Damp=F
 DIIS: error= 2.36D-08 at cycle  22 NSaved=  20.
 NSaved=20 IEnMin=20 EnMin= -3010.54180140447     IErMin=20 ErrMin= 2.36D-08
 ErrMax= 2.36D-08  0.00D+00 EMaxC= 1.00D-01 BMatC= 8.15D-14 BMatP= 5.65D-13
 IDIUse=1 WtCom= 1.00D+00 WtEn= 0.00D+00
 Coeff-Com: -0.648D-08-0.559D-09-0.666D-07 0.358D-06 0.825D-07-0.293D-05
 Coeff-Com: -0.773D-05-0.118D-04-0.282D-04 0.994D-04 0.399D-04-0.826D-04
 Coeff-Com: -0.127D-02 0.163D-02 0.680D-02 0.274D-02-0.362D-01-0.118D+00
 Coeff-Com:  0.150D-01 0.113D+01
 Coeff:     -0.648D-08-0.559D-09-0.666D-07 0.358D-06 0.825D-07-0.293D-05
 Coeff:     -0.773D-05-0.118D-04-0.282D-04 0.994D-04 0.399D-04-0.826D-04
 Coeff:     -0.127D-02 0.163D-02 0.680D-02 0.274D-02-0.362D-01-0.118D+00
 Coeff:      0.150D-01 0.113D+01
 Gap=     0.205 Goal=   None    Shift=    0.000
 RMSDP=1.28D-08 MaxDP=5.41D-07 DE=-2.18D-11 OVMax= 5.96D-07

 Cycle  23  Pass 1  IDiag  1:
 RMSU=  7.70D-09    CP:  1.00D+00  1.36D+00
 E= -3010.54180140443     Delta-E=        0.000000000041 Rises=F Damp=F
 DIIS: error= 3.76D-09 at cycle  23 NSaved=  20.
 NSaved=20 IEnMin=19 EnMin= -3010.54180140447     IErMin=20 ErrMin= 3.76D-09
 ErrMax= 3.76D-09  0.00D+00 EMaxC= 1.00D-01 BMatC= 7.01D-15 BMatP= 8.15D-14
 IDIUse=1 WtCom= 1.00D+00 WtEn= 0.00D+00
 Coeff-Com: -0.273D-07-0.526D-07 0.477D-07 0.268D-06 0.612D-06 0.896D-06
 Coeff-Com: -0.411D-05-0.125D-04 0.122D-04 0.317D-04 0.650D-04-0.162D-03
 Coeff-Com: -0.121D-02 0.558D-03 0.199D-02 0.897D-02-0.273D-01-0.867D-01
 Coeff-Com: -0.208D-02 0.111D+01
 Coeff:     -0.273D-07-0.526D-07 0.477D-07 0.268D-06 0.612D-06 0.896D-06
 Coeff:     -0.411D-05-0.125D-04 0.122D-04 0.317D-04 0.650D-04-0.162D-03
 Coeff:     -0.121D-02 0.558D-03 0.199D-02 0.897D-02-0.273D-01-0.867D-01
 Coeff:     -0.208D-02 0.111D+01
 Gap=     0.205 Goal=   None    Shift=    0.000
 RMSDP=4.24D-09 MaxDP=1.70D-07 DE= 4.09D-11 OVMax= 1.66D-07

 SCF Done:  E(RwB97XD) =  -3010.54180140     A.U. after   23 cycles
            NFock= 23  Conv=0.42D-08     -V/T= 2.0016
 KE= 3.005858885570D+03 PE=-8.629656891303D+03 EE= 1.876618681126D+03
 Leave Link  502 at Wed May  1 14:50:29 2024, MaxMem=  1207959552 cpu:            1305.6 elap:            1305.9
 (Enter /software/gaussian/g16-c01/sse4/g16/l601.exe)
 Copying SCF densities to generalized density rwf, IOpCl= 0 IROHF=0.

 **********************************************************************

            Population analysis using the SCF Density.

 **********************************************************************

 Alpha  occ. eigenvalues -- -483.30330 -62.85374 -56.65039 -56.64505 -56.64503
 Alpha  occ. eigenvalues --  -19.38837 -19.38768 -14.78449 -10.57081 -10.55176
 Alpha  occ. eigenvalues --  -10.54932 -10.54082 -10.53653 -10.51584  -9.01194
 Alpha  occ. eigenvalues --   -6.83796  -6.82041  -6.82027  -2.93719  -2.93251
 Alpha  occ. eigenvalues --   -2.93238  -2.91834  -2.91833  -1.42591  -1.25483
 Alpha  occ. eigenvalues --   -1.20383  -1.11706  -1.09430  -1.02946  -0.97201
 Alpha  occ. eigenvalues --   -0.93284  -0.88121  -0.82218  -0.78037  -0.76769
 Alpha  occ. eigenvalues --   -0.75006  -0.74302  -0.73039  -0.70244  -0.68998
 Alpha  occ. eigenvalues --   -0.67336  -0.65144  -0.61502  -0.58345  -0.55848
 Alpha  occ. eigenvalues --   -0.53840  -0.49791  -0.48478  -0.48266
 Alpha virt. eigenvalues --   -0.27735  -0.16903  -0.14416  -0.11919  -0.09444
 Alpha virt. eigenvalues --   -0.08376  -0.06838  -0.06099  -0.03384  -0.02541
 Alpha virt. eigenvalues --   -0.01942  -0.00726  -0.00590  -0.00203   0.00452
 Alpha virt. eigenvalues --    0.02164   0.02609   0.03221   0.03813   0.04269
 Alpha virt. eigenvalues --    0.04997   0.06724   0.07373   0.07993   0.08624
 Alpha virt. eigenvalues --    0.09055   0.09735   0.10330   0.11282   0.11683
 Alpha virt. eigenvalues --    0.12359   0.13575   0.14481   0.14879   0.15209
 Alpha virt. eigenvalues --    0.16405   0.17083   0.18179   0.19444   0.20210
 Alpha virt. eigenvalues --    0.20526   0.21685   0.21956   0.22989   0.24120
 Alpha virt. eigenvalues --    0.24328   0.27301   0.27811   0.29099   0.29412
 Alpha virt. eigenvalues --    0.29841   0.31406   0.32541   0.33790   0.35005
 Alpha virt. eigenvalues --    0.35612   0.36407   0.38326   0.38404   0.40530
 Alpha virt. eigenvalues --    0.41175   0.42094   0.43195   0.43517   0.44344
 Alpha virt. eigenvalues --    0.45394   0.47375   0.47977   0.49056   0.50568
 Alpha virt. eigenvalues --    0.51502   0.52145   0.52962   0.54601   0.56014
 Alpha virt. eigenvalues --    0.57676   0.58326   0.59537   0.60782   0.61964
 Alpha virt. eigenvalues --    0.62801   0.65172   0.65588   0.68018   0.69785
 Alpha virt. eigenvalues --    0.72374   0.72957   0.74836   0.75513   0.76677
 Alpha virt. eigenvalues --    0.78717   0.82863   0.84081   0.86054   0.87697
 Alpha virt. eigenvalues --    0.88682   0.92614   0.95649   0.96929   1.03403
 Alpha virt. eigenvalues --    1.04155   1.06527   1.07631   1.09383   1.09648
 Alpha virt. eigenvalues --    1.13137   1.15947   1.18836   1.19659   1.22112
 Alpha virt. eigenvalues --    1.28506   1.29304   1.31520   1.35322   1.38976
 Alpha virt. eigenvalues --    1.39426   1.40214   1.47283   1.57325   1.60047
 Alpha virt. eigenvalues --    1.61668   1.61844   1.64950   1.67098   1.68492
 Alpha virt. eigenvalues --    1.72211   1.73809   1.75530   1.80485   1.81708
 Alpha virt. eigenvalues --    1.82933   1.88926   1.90704   1.94329   1.96734
 Alpha virt. eigenvalues --    2.01302   2.05947   2.07490   2.09197   2.10359
 Alpha virt. eigenvalues --    2.12171   2.17023   2.22788   2.26823   2.31389
 Alpha virt. eigenvalues --    2.40627   2.45157   2.45986   2.47389   2.54735
 Alpha virt. eigenvalues --    2.58836   2.65657   2.68647   2.70934   2.77010
 Alpha virt. eigenvalues --    2.79293   2.81833   2.82851   2.84310   2.88275
 Alpha virt. eigenvalues --    2.95486   2.98767   3.06988   3.08124   3.12015
 Alpha virt. eigenvalues --    3.15483   3.17818   3.21705   3.26711   3.30239
 Alpha virt. eigenvalues --    3.34641   3.43379   3.49677   3.55204   3.58736
 Alpha virt. eigenvalues --    3.62809   3.76692   3.81122   3.84570   3.89711
 Alpha virt. eigenvalues --    4.09618   4.09859   4.17528   4.22678   4.43557
 Alpha virt. eigenvalues --    4.51677   4.59690   4.66056   5.00603   5.03338
 Alpha virt. eigenvalues --    5.11957   5.16120   5.69874   6.23103   6.65363
 Alpha virt. eigenvalues --    7.48286   7.49865   7.59737  23.23420  23.63505
 Alpha virt. eigenvalues --   23.70980  23.81844  23.97969  24.04104  35.39495
 Alpha virt. eigenvalues --   47.92042  49.92626  50.01438 289.81391 289.83060
 Alpha virt. eigenvalues --  289.955221020.92494
          Condensed to atoms (all electrons):
               1          2          3          4          5          6
     1  C    9.997028  -3.069253   0.204220  -2.066926  -0.808315   0.306838
     2  C   -3.069253  13.879176  -2.098992  -1.873517   0.482297   0.006802
     3  C    0.204220  -2.098992  14.019050  -4.172260  -1.279407   0.027910
     4  C   -2.066926  -1.873517  -4.172260  17.085554   1.164078   0.012280
     5  C   -0.808315   0.482297  -1.279407   1.164078   8.295867  -0.008812
     6  H    0.306838   0.006802   0.027910   0.012280  -0.008812   0.364118
     7  H    0.098188   0.192354   0.074089  -0.037160  -0.017321  -0.001745
     8  H    0.010131  -0.020545   0.094349   0.187180  -0.032861  -0.000002
     9  H    0.060032  -0.040871   0.015015  -0.016421   0.260664  -0.003245
    10  N   -0.238668   0.422021  -0.961224   0.416575  -0.005064  -0.000702
    11  O    0.000259  -0.134780  -0.260709   0.027699  -0.070288  -0.000029
    12  O    0.424211  -0.035300  -0.264838  -0.178031  -0.044409   0.000080
    13  C    1.627735  -2.209985   1.275406  -4.824553  -1.956858  -0.008462
    14  H   -0.029618   0.016223  -0.009203  -0.085722   0.059767  -0.000035
    15  Br   0.021157   0.033686  -0.003625   0.034511  -0.011331  -0.000301
               7          8          9         10         11         12
     1  C    0.098188   0.010131   0.060032  -0.238668   0.000259   0.424211
     2  C    0.192354  -0.020545  -0.040871   0.422021  -0.134780  -0.035300
     3  C    0.074089   0.094349   0.015015  -0.961224  -0.260709  -0.264838
     4  C   -0.037160   0.187180  -0.016421   0.416575   0.027699  -0.178031
     5  C   -0.017321  -0.032861   0.260664  -0.005064  -0.070288  -0.044409
     6  H   -0.001745  -0.000002  -0.003245  -0.000702  -0.000029   0.000080
     7  H    0.280959   0.000003   0.000030  -0.027346  -0.001569   0.030596
     8  H    0.000003   0.274387   0.000099  -0.025208   0.029687  -0.000728
     9  H    0.000030   0.000099   0.392576   0.000270   0.000014   0.000011
    10  N   -0.027346  -0.025208   0.000270   7.645946   0.075126   0.041294
    11  O   -0.001569   0.029687   0.000014   0.075126   7.841763   0.015962
    12  O    0.030596  -0.000728   0.000011   0.041294   0.015962   7.878292
    13  C    0.019073   0.086112   0.050589  -0.237751   0.383147   0.038981
    14  H   -0.000025  -0.002998  -0.007223   0.001092  -0.000423  -0.000082
    15  Br   0.000077   0.006921   0.001721   0.008706  -0.000193   0.002151
              13         14         15
     1  C    1.627735  -0.029618   0.021157
     2  C   -2.209985   0.016223   0.033686
     3  C    1.275406  -0.009203  -0.003625
     4  C   -4.824553  -0.085722   0.034511
     5  C   -1.956858   0.059767  -0.011331
     6  H   -0.008462  -0.000035  -0.000301
     7  H    0.019073  -0.000025   0.000077
     8  H    0.086112  -0.002998   0.006921
     9  H    0.050589  -0.007223   0.001721
    10  N   -0.237751   0.001092   0.008706
    11  O    0.383147  -0.000423  -0.000193
    12  O    0.038981  -0.000082   0.002151
    13  C   11.815745   0.358926   0.065984
    14  H    0.358926   0.366001  -0.048502
    15  Br   0.065984  -0.048502  34.785739
 Mulliken charges:
               1
     1  C   -0.537018
     2  C    0.450682
     3  C   -0.659782
     4  C    0.326713
     5  C   -0.028008
     6  H    0.305301
     7  H    0.389797
     8  H    0.393473
     9  H    0.286738
    10  N   -0.115068
    11  O    0.094332
    12  O    0.091810
    13  C   -0.484089
    14  H    0.381822
    15  Br   0.103298
 Sum of Mulliken charges =   1.00000
 Mulliken charges with hydrogens summed into heavy atoms:
               1
     1  C   -0.231718
     2  C    0.840479
     3  C   -0.659782
     4  C    0.720186
     5  C    0.258730
    10  N   -0.115068
    11  O    0.094332
    12  O    0.091810
    13  C   -0.102267
    15  Br   0.103298
 Electronic spatial extent (au):  <R**2>=           2792.5338
 Charge=              1.0000 electrons
 Dipole moment (field-independent basis, Debye):
    X=              3.2676    Y=             -0.1355    Z=              0.3053  Tot=              3.2846
 Quadrupole moment (field-independent basis, Debye-Ang):
   XX=            -61.8561   YY=            -52.4781   ZZ=            -63.6660
   XY=              0.5944   XZ=              0.0525   YZ=              0.7335
 Traceless Quadrupole moment (field-independent basis, Debye-Ang):
   XX=             -2.5227   YY=              6.8553   ZZ=             -4.3326
   XY=              0.5944   XZ=              0.0525   YZ=              0.7335
 Octapole moment (field-independent basis, Debye-Ang**2):
  XXX=           -243.5583  YYY=             90.9850  ZZZ=             79.9117  XYY=            -66.5640
  XXY=             31.9927  XXZ=             32.6402  XZZ=            -73.6511  YZZ=             18.5606
  YYZ=             27.4718  XYZ=             -1.4276
 Hexadecapole moment (field-independent basis, Debye-Ang**3):
 XXXX=          -2044.5128 YYYY=           -684.9761 ZZZZ=           -355.7015 XXXY=            -69.1793
 XXXZ=            -28.5925 YYYX=            -64.5305 YYYZ=           -161.5427 ZZZX=            -23.7503
 ZZZY=           -141.2354 XXYY=           -438.9740 XXZZ=           -367.7469 YYZZ=           -168.6605
 XXYZ=            -57.2631 YYXZ=             -6.7626 ZZXY=            -12.6052
 N-N= 7.366375232030D+02 E-N=-8.629656891752D+03  KE= 3.005858885570D+03
 No NMR shielding tensors so no spin-rotation constants.
 Leave Link  601 at Wed May  1 14:50:36 2024, MaxMem=  1207959552 cpu:               7.6 elap:               7.6
 (Enter /software/gaussian/g16-c01/sse4/g16/l9999.exe)
 Unable to Open any file for archive entry.
 1\1\GINC-BHX0009\SP\RwB97XD\6-311+G(d)\C6H5Br1N1O2(1+)\BWEIGHT\01-May-
 2024\0\\#P wB97XD/6-311+G* NoSymm #P Field=X-136\\TitleMe\\1,1\C,0,0.0
 295,1.3397,0.0682\C,0,1.4348,1.2867,0.0064\C,0,2.1118,0.0511,-0.0054\C
 ,0,1.4451,-1.1372,0.0312\C,0,-0.6879,0.1682,0.11\H,0,-0.4713,2.2984,0.
 0781\H,0,2.0273,2.1965,-0.0322\H,0,1.9897,-2.0764,0.0232\H,0,-1.7716,0
 .1804,0.1582\N,0,3.5864,0.051,-0.0675\O,0,4.1471,-1.0597,-0.0881\O,0,4
 .145,1.1639,-0.0901\C,0,-0.0236,-1.1458,0.0835\H,0,-0.4367,-1.8725,0.7
 889\Br,0,-0.5359,-1.8697,-1.7408\\Version=ES64L-G16RevC.01\HF=-3010.54
 18014\RMSD=4.239e-09\Dipole=-0.6209584,1.094754,1.2662932\Quadrupole=-
 1.8755308,5.0967401,-3.2212093,0.4419008,0.0390124,0.5453522\PG=C01 [X
 (C6H5Br1N1O2)]\\@
 The archive entry for this job was punched.


 IF NO USE IS MADE OF THE LABOR OF PAST AGES,
 THE WORLD MUST REMAIN ALWAYS IN THE INFANCY OF KNOWLEDGE.

                          -- CICERO
 Job cpu time:       0 days  0 hours 22 minutes 53.4 seconds.
 Elapsed time:       0 days  0 hours 22 minutes 53.8 seconds.
 File lengths (MBytes):  RWF=     40 Int=      0 D2E=      0 Chk=     32 Scr=      1
 Normal termination of Gaussian 16 at Wed May  1 14:50:37 2024.
