 Entering Gaussian System, Link 0=g16
 Initial command:
 /software/gaussian/g16-c01/sse4/g16/l1.exe "/local_scratch/24657538/Gau-8869.inp" -scrdir="/local_scratch/24657538/"
 Entering Link 1 = /software/gaussian/g16-c01/sse4/g16/l1.exe PID=      8870.
  
 Copyright (c) 1988-2019, Gaussian, Inc.  All Rights Reserved.
  
 This is part of the Gaussian(R) 16 program.  It is based on
 the Gaussian(R) 09 system (copyright 2009, Gaussian, Inc.),
 the Gaussian(R) 03 system (copyright 2003, Gaussian, Inc.),
 the Gaussian(R) 98 system (copyright 1998, Gaussian, Inc.),
 the Gaussian(R) 94 system (copyright 1995, Gaussian, Inc.),
 the Gaussian 92(TM) system (copyright 1992, Gaussian, Inc.),
 the Gaussian 90(TM) system (copyright 1990, Gaussian, Inc.),
 the Gaussian 88(TM) system (copyright 1988, Gaussian, Inc.),
 the Gaussian 86(TM) system (copyright 1986, Carnegie Mellon
 University), and the Gaussian 82(TM) system (copyright 1983,
 Carnegie Mellon University). Gaussian is a federally registered
 trademark of Gaussian, Inc.
  
 This software contains proprietary and confidential information,
 including trade secrets, belonging to Gaussian, Inc.
  
 This software is provided under written license and may be
 used, copied, transmitted, or stored only in accord with that
 written license.
  
 The following legend is applicable only to US Government
 contracts under FAR:
  
                    RESTRICTED RIGHTS LEGEND
  
 Use, reproduction and disclosure by the US Government is
 subject to restrictions as set forth in subparagraphs (a)
 and (c) of the Commercial Computer Software - Restricted
 Rights clause in FAR 52.227-19.
  
 Gaussian, Inc.
 340 Quinnipiac St., Bldg. 40, Wallingford CT 06492
  
  
 ---------------------------------------------------------------
 Warning -- This program may not be used in any manner that
 competes with the business of Gaussian, Inc. or will provide
 assistance to any competitor of Gaussian, Inc.  The licensee
 of this program is prohibited from giving any competitor of
 Gaussian, Inc. access to this program.  By using this program,
 the user acknowledges that Gaussian, Inc. is engaged in the
 business of creating and licensing software in the field of
 computational chemistry and represents and warrants to the
 licensee that it is not a competitor of Gaussian, Inc. and that
 it will not use this program in any manner prohibited above.
 ---------------------------------------------------------------
  

 Cite this work as:
 Gaussian 16, Revision C.01,
 M. J. Frisch, G. W. Trucks, H. B. Schlegel, G. E. Scuseria, 
 M. A. Robb, J. R. Cheeseman, G. Scalmani, V. Barone, 
 G. A. Petersson, H. Nakatsuji, X. Li, M. Caricato, A. V. Marenich, 
 J. Bloino, B. G. Janesko, R. Gomperts, B. Mennucci, H. P. Hratchian, 
 J. V. Ortiz, A. F. Izmaylov, J. L. Sonnenberg, D. Williams-Young, 
 F. Ding, F. Lipparini, F. Egidi, J. Goings, B. Peng, A. Petrone, 
 T. Henderson, D. Ranasinghe, V. G. Zakrzewski, J. Gao, N. Rega, 
 G. Zheng, W. Liang, M. Hada, M. Ehara, K. Toyota, R. Fukuda, 
 J. Hasegawa, M. Ishida, T. Nakajima, Y. Honda, O. Kitao, H. Nakai, 
 T. Vreven, K. Throssell, J. A. Montgomery, Jr., J. E. Peralta, 
 F. Ogliaro, M. J. Bearpark, J. J. Heyd, E. N. Brothers, K. N. Kudin, 
 V. N. Staroverov, T. A. Keith, R. Kobayashi, J. Normand, 
 K. Raghavachari, A. P. Rendell, J. C. Burant, S. S. Iyengar, 
 J. Tomasi, M. Cossi, J. M. Millam, M. Klene, C. Adamo, R. Cammi, 
 J. W. Ochterski, R. L. Martin, K. Morokuma, O. Farkas, 
 J. B. Foresman, and D. J. Fox, Gaussian, Inc., Wallingford CT, 2019.
 
 ******************************************
 Gaussian 16:  ES64L-G16RevC.01  3-Jul-2019
                 1-May-2024 
 ******************************************
 %chk=geometry.chk
 %mem=9GB
 %nprocshared=12
 Will use up to   12 processors via shared memory.
 ----------------------------------------
 #P wB97XD/6-311+G* NoSymm #P Field=Z-223
 ----------------------------------------
 1/38=1,172=1/1;
 2/12=2,15=1,17=6,18=5,40=1/2;
 3/5=4,6=6,7=11,11=2,14=3,15=-223,25=1,30=1,74=-58/1,2,3;
 4//1;
 5/5=2,38=5/2;
 6/7=2,8=2,9=2,10=2,28=1/1;
 99/5=1,9=1/99;
 Leave Link    1 at Wed May  1 14:56:59 2024, MaxMem=  1207959552 cpu:               1.3 elap:               1.3
 (Enter /software/gaussian/g16-c01/sse4/g16/l101.exe)
 -------
 TitleMe
 -------
 Symbolic Z-matrix:
 Charge =  1 Multiplicity = 1
 C                     0.0295    1.3397    0.0682 
 C                     1.4348    1.2867    0.0064 
 C                     2.1118    0.0511   -0.0054 
 C                     1.4451   -1.1372    0.0312 
 C                    -0.6879    0.1682    0.11 
 H                    -0.4713    2.2984    0.0781 
 H                     2.0273    2.1965   -0.0322 
 H                     1.9897   -2.0764    0.0232 
 H                    -1.7716    0.1804    0.1582 
 N                     3.5864    0.051    -0.0675 
 O                     4.1471   -1.0597   -0.0881 
 O                     4.145     1.1639   -0.0901 
 C                    -0.0236   -1.1458    0.0835 
 H                    -0.4367   -1.8725    0.7889 
 Br                   -0.5359   -1.8697   -1.7408 
 
 ITRead=  0  0  0  0  0  0  0  0  0  0  0  0  0  0  0
 MicOpt= -1 -1 -1 -1 -1 -1 -1 -1 -1 -1 -1 -1 -1 -1 -1
 NAtoms=     15 NQM=       15 NQMF=       0 NMMI=      0 NMMIF=      0
                NMic=       0 NMicF=      0.
                    Isotopes and Nuclear Properties:
 (Nuclear quadrupole moments (NQMom) in fm**2, nuclear magnetic moments (NMagM)
  in nuclear magnetons)

  Atom         1           2           3           4           5           6           7           8           9          10
 IAtWgt=          12          12          12          12          12           1           1           1           1          14
 AtmWgt=  12.0000000  12.0000000  12.0000000  12.0000000  12.0000000   1.0078250   1.0078250   1.0078250   1.0078250  14.0030740
 NucSpn=           0           0           0           0           0           1           1           1           1           2
 AtZEff=  -0.0000000  -0.0000000  -0.0000000  -0.0000000  -0.0000000  -0.0000000  -0.0000000  -0.0000000  -0.0000000  -0.0000000
 NQMom=    0.0000000   0.0000000   0.0000000   0.0000000   0.0000000   0.0000000   0.0000000   0.0000000   0.0000000   2.0440000
 NMagM=    0.0000000   0.0000000   0.0000000   0.0000000   0.0000000   2.7928460   2.7928460   2.7928460   2.7928460   0.4037610
 AtZNuc=   6.0000000   6.0000000   6.0000000   6.0000000   6.0000000   1.0000000   1.0000000   1.0000000   1.0000000   7.0000000

  Atom        11          12          13          14          15
 IAtWgt=          16          16          12           1          79
 AtmWgt=  15.9949146  15.9949146  12.0000000   1.0078250  78.9183361
 NucSpn=           0           0           0           1           3
 AtZEff=  -0.0000000  -0.0000000  -0.0000000  -0.0000000  -0.0000000
 NQMom=    0.0000000   0.0000000   0.0000000   0.0000000  31.3000000
 NMagM=    0.0000000   0.0000000   0.0000000   2.7928460   2.1063990
 AtZNuc=   8.0000000   8.0000000   6.0000000   1.0000000  35.0000000
 Leave Link  101 at Wed May  1 14:57:00 2024, MaxMem=  1207959552 cpu:               1.5 elap:               1.5
 (Enter /software/gaussian/g16-c01/sse4/g16/l202.exe)
                          Input orientation:                          
 ---------------------------------------------------------------------
 Center     Atomic      Atomic             Coordinates (Angstroms)
 Number     Number       Type             X           Y           Z
 ---------------------------------------------------------------------
      1          6           0        0.029500    1.339700    0.068200
      2          6           0        1.434800    1.286700    0.006400
      3          6           0        2.111800    0.051100   -0.005400
      4          6           0        1.445100   -1.137200    0.031200
      5          6           0       -0.687900    0.168200    0.110000
      6          1           0       -0.471300    2.298400    0.078100
      7          1           0        2.027300    2.196500   -0.032200
      8          1           0        1.989700   -2.076400    0.023200
      9          1           0       -1.771600    0.180400    0.158200
     10          7           0        3.586400    0.051000   -0.067500
     11          8           0        4.147100   -1.059700   -0.088100
     12          8           0        4.145000    1.163900   -0.090100
     13          6           0       -0.023600   -1.145800    0.083500
     14          1           0       -0.436700   -1.872500    0.788900
     15         35           0       -0.535900   -1.869700   -1.740800
 ---------------------------------------------------------------------
                    Distance matrix (angstroms):
                    1          2          3          4          5
     1  C    0.000000
     2  C    1.407656   0.000000
     3  C    2.449874   1.408963   0.000000
     4  C    2.853126   2.424049   1.363043   0.000000
     5  C    1.374344   2.401589   2.804523   2.501993   0.000000
     6  H    1.081667   2.159142   3.424870   3.934226   2.141421
     7  H    2.176095   1.086408   2.147231   3.384750   3.392128
     8  H    3.938800   3.408612   2.131193   1.085702   3.495040
     9  H    2.143837   3.395283   3.888995   3.478413   1.084840
    10  N    3.785591   2.482297   1.475907   2.450862   4.279589
    11  O    4.768247   3.587631   2.320164   2.705743   4.992415
    12  O    4.122294   2.714696   2.319353   3.549540   4.938459
    13  C    2.486114   2.837240   2.449573   1.469656   1.472614
    14  H    3.324903   3.754379   3.290289   2.157764   2.165286
    15  Br   3.727252   4.110867   3.702891   2.756973   2.757100
                    6          7          8          9         10
     6  H    0.000000
     7  H    2.503108   0.000000
     8  H    5.019802   4.273425   0.000000
     9  H    2.486588   4.304945   4.388479   0.000000
    10  N    4.640790   2.652397   2.661486   5.364313   0.000000
    11  O    5.712624   3.885809   2.387560   6.052233   1.244373
    12  O    4.756638   2.356750   3.893289   6.002923   1.245428
    13  C    3.473180   3.923079   2.218790   2.195425   3.806210
    14  H    4.231175   4.827242   2.552506   2.528663   4.540772
    15  Br   4.548146   5.101303   3.087568   3.055498   4.845862
                   11         12         13         14         15
    11  O    0.000000
    12  O    2.223602   0.000000
    13  C    4.175117   4.768865   0.000000
    14  H    4.737193   5.566358   1.093770   0.000000
    15  Br   5.031700   5.817075   2.028436   2.531646   0.000000
 Symmetry turned off by external request.
 Stoichiometry    C6H5BrNO2(1+)
 Framework group  C1[X(C6H5BrNO2)]
 Deg. of freedom    39
 Full point group                 C1      NOp   1
 Rotational constants (GHZ):           1.8252210           0.5518633           0.4576002
 Leave Link  202 at Wed May  1 14:57:01 2024, MaxMem=  1207959552 cpu:               1.3 elap:               1.3
 (Enter /software/gaussian/g16-c01/sse4/g16/l301.exe)
 Standard basis: 6-311+G(d) (5D, 7F)
 Ernie: Thresh=  0.10000D-02 Tol=  0.10000D-05 Strict=F.
 The following finite field(s) will be applied:
 An electric field of              0.0000  0.0000 -0.0223
   261 basis functions,   443 primitive gaussians,   273 cartesian basis functions
    49 alpha electrons       49 beta electrons
       nuclear repulsion energy       739.2122215416 Hartrees.
 IExCor= 4639 DFT=T Ex+Corr=wB97XD ExCW=0 ScaHFX=  1.000000
 ScaDFX=  1.000000  1.000000  1.000000  1.000000 ScalE2=  1.000000  1.000000
 IRadAn=      5 IRanWt=     -1 IRanGd=            0 ICorTp=0 IEmpDi=121
 HFx  wShort=  0.000000 wLong=  0.200000 cFull=  0.222036 cShort=  0.000000 cLong=  0.777964
 DFx  wShort=  0.000000 wLong=  0.200000 cFull=  0.000000 cShort=  0.000000 cLong=  1.000000
 NAtoms=   15 NActive=   15 NUniq=   15 SFac= 1.00D+00 NAtFMM=   60 NAOKFM=F Big=F
 Integral buffers will be    131072 words long.
 Raffenetti 2 integral format.
 Two-electron integral symmetry is turned off.
 R6Disp:  Grimme-D2 Dispersion energy=       -0.0077368520 Hartrees.
 Nuclear repulsion after empirical dispersion term =      739.2044846896 Hartrees.
 Leave Link  301 at Wed May  1 14:57:02 2024, MaxMem=  1207959552 cpu:               0.9 elap:               0.9
 (Enter /software/gaussian/g16-c01/sse4/g16/l302.exe)
 NPDir=0 NMtPBC=     1 NCelOv=     1 NCel=       1 NClECP=     1 NCelD=      1
         NCelK=      1 NCelE2=     1 NClLst=     1 CellRange=     0.0.
 One-electron integrals computed using PRISM.
 NBasis=   261 RedAO= T EigKep=  2.35D-06  NBF=   261
 NBsUse=   261 1.00D-06 EigRej= -1.00D+00 NBFU=   261
 Precomputing XC quadrature grid using
 IXCGrd= 4 IRadAn=           5 IRanWt=          -1 IRanGd=           0 AccXCQ= 0.00D+00.
 Generated NRdTot=       0 NPtTot=           0 NUsed=           0 NTot=          32
 NSgBfM=   273   273   273   273   273 MxSgAt=    15 MxSgA2=    15.
 Leave Link  302 at Wed May  1 14:57:24 2024, MaxMem=  1207959552 cpu:              22.1 elap:              22.1
 (Enter /software/gaussian/g16-c01/sse4/g16/l303.exe)
 DipDrv:  MaxL=1.
 The nuclear repulsion energy is now       741.7348977957 hartrees.
 Leave Link  303 at Wed May  1 14:57:28 2024, MaxMem=  1207959552 cpu:               3.3 elap:               3.3
 (Enter /software/gaussian/g16-c01/sse4/g16/l401.exe)
 ExpMin= 3.50D-02 ExpMax= 4.40D+05 ExpMxC= 1.51D+04 IAcc=3 IRadAn=         5 AccDes= 0.00D+00
 Harris functional with IExCor= 4639 and IRadAn=       5 diagonalized for initial guess.
 HarFok:  IExCor= 4639 AccDes= 0.00D+00 IRadAn=         5 IDoV= 1 UseB2=F ITyADJ=14
 ICtDFT=  3500011 ScaDFX=  1.000000  1.000000  1.000000  1.000000
 FoFCou: FMM=F IPFlag=           0 FMFlag=      100000 FMFlg1=           0
         NFxFlg=           0 DoJE=T BraDBF=F KetDBF=T FulRan=T
         wScrn=  0.000000 ICntrl=       500 IOpCl=  0 I1Cent=   200000004 NGrid=           0
         NMat0=    1 NMatS0=      1 NMatT0=    0 NMatD0=    1 NMtDS0=    0 NMtDT0=    0
 Symmetry not used in FoFCou.
 Harris En= -2970.66175716168    
 JPrj=0 DoOrth=F DoCkMO=F.
 Leave Link  401 at Wed May  1 14:57:58 2024, MaxMem=  1207959552 cpu:              30.7 elap:              30.7
 (Enter /software/gaussian/g16-c01/sse4/g16/l502.exe)
 Two-electron integral symmetry not used.
 Closed shell SCF:
 Using DIIS extrapolation, IDIIS=  1040.
 NGot=  1207959552 LenX=  1207804877 LenY=  1207729907
 Requested convergence on RMS density matrix=1.00D-08 within 128 cycles.
 Requested convergence on MAX density matrix=1.00D-06.
 Requested convergence on             energy=1.00D-06.
 No special actions if energy rises.
 Fock matrices will be formed incrementally for  20 cycles.

 Cycle   1  Pass 1  IDiag  1:
 FoFJK:  IHMeth= 1 ICntrl=       0 DoSepK=T KAlg= 0 I1Cent=           0 FoldK=F
 IRaf=         1 NMat=       1 IRICut=       1 DoRegI=T DoRafI=F ISym2E= 0 IDoP0=0 IntGTp=1.
 FoFCou: FMM=F IPFlag=           0 FMFlag=      100000 FMFlg1=           0
         NFxFlg=           0 DoJE=T BraDBF=F KetDBF=F FulRan=T
         wScrn=  0.000000 ICntrl=       500 IOpCl=  0 I1Cent=           0 NGrid=           0
         NMat0=    1 NMatS0=      1 NMatT0=    0 NMatD0=    1 NMtDS0=    0 NMtDT0=    0
 Symmetry not used in FoFCou.
 E= -3008.28268252690    
 DIIS: error= 3.23D-01 at cycle   1 NSaved=   1.
 NSaved= 1 IEnMin= 1 EnMin= -3008.28268252690     IErMin= 1 ErrMin= 3.23D-01
 ErrMax= 3.23D-01  0.00D+00 EMaxC= 1.00D-01 BMatC= 1.24D+01 BMatP= 1.24D+01
 IDIUse=3 WtCom= 0.00D+00 WtEn= 1.00D+00
 Coeff-Com:  0.100D+01
 Coeff-En:   0.100D+01
 Coeff:      0.100D+01
 Gap=    -0.880 Goal=   None    Shift=    0.000
 GapD=   -0.880 DampG=0.250 DampE=0.250 DampFc=0.2500 IDamp=-1.
 Damping current iteration by 2.50D-01
 RMSDP=4.04D-01 MaxDP=3.06D+01              OVMax= 8.97D-01

 Cycle   2  Pass 1  IDiag  1:
 RMSU=  2.09D-02    CP:  7.70D-01
 E= -3008.38633873052     Delta-E=       -0.103656203621 Rises=F Damp=T
 DIIS: error= 2.26D-01 at cycle   2 NSaved=   2.
 NSaved= 2 IEnMin= 2 EnMin= -3008.38633873052     IErMin= 2 ErrMin= 2.26D-01
 ErrMax= 2.26D-01  0.00D+00 EMaxC= 1.00D-01 BMatC= 5.67D+00 BMatP= 1.24D+01
 IDIUse=3 WtCom= 0.00D+00 WtEn= 1.00D+00
 Coeff-Com: -0.111D+01 0.211D+01
 Coeff-En:   0.463D+00 0.537D+00
 Coeff:      0.463D+00 0.537D+00
 Gap=    -0.108 Goal=   None    Shift=    0.000
 RMSDP=3.08D-01 MaxDP=2.52D+01 DE=-1.04D-01 OVMax= 9.93D-01

 Cycle   3  Pass 1  IDiag  1:
 RMSU=  2.22D-02    CP:  5.97D-02  2.52D+00
 E= -3009.98289005026     Delta-E=       -1.596551319735 Rises=F Damp=F
 DIIS: error= 9.39D-02 at cycle   3 NSaved=   3.
 NSaved= 3 IEnMin= 3 EnMin= -3009.98289005026     IErMin= 3 ErrMin= 9.39D-02
 ErrMax= 9.39D-02  0.00D+00 EMaxC= 1.00D-01 BMatC= 1.81D+00 BMatP= 5.67D+00
 IDIUse=3 WtCom= 6.11D-02 WtEn= 9.39D-01
 Coeff-Com:  0.224D+00 0.230D-01 0.753D+00
 Coeff-En:   0.143D+00 0.000D+00 0.857D+00
 Coeff:      0.148D+00 0.140D-02 0.850D+00
 Gap=     0.390 Goal=   None    Shift=    0.000
 RMSDP=2.00D-02 MaxDP=9.45D-01 DE=-1.60D+00 OVMax= 2.21D-01

 Cycle   4  Pass 1  IDiag  1:
 RMSU=  1.83D-02    CP:  5.75D-02  2.57D+00  1.36D+00
 E= -3010.32358931925     Delta-E=       -0.340699268993 Rises=F Damp=F
 DIIS: error= 5.58D-02 at cycle   4 NSaved=   4.
 NSaved= 4 IEnMin= 4 EnMin= -3010.32358931925     IErMin= 4 ErrMin= 5.58D-02
 ErrMax= 5.58D-02  0.00D+00 EMaxC= 1.00D-01 BMatC= 6.95D-01 BMatP= 1.81D+00
 IDIUse=3 WtCom= 4.42D-01 WtEn= 5.58D-01
 Coeff-Com:  0.105D+00-0.106D+00 0.425D+00 0.576D+00
 Coeff-En:   0.000D+00 0.000D+00 0.245D+00 0.755D+00
 Coeff:      0.464D-01-0.468D-01 0.324D+00 0.676D+00
 Gap=     0.281 Goal=   None    Shift=    0.000
 RMSDP=1.63D-02 MaxDP=1.48D+00 DE=-3.41D-01 OVMax= 1.18D-01

 Cycle   5  Pass 1  IDiag  1:
 RMSU=  6.70D-03    CP:  4.72D-02  2.14D+00  1.10D+00  4.77D-01
 E= -3010.50136473024     Delta-E=       -0.177775410989 Rises=F Damp=F
 DIIS: error= 2.24D-02 at cycle   5 NSaved=   5.
 NSaved= 5 IEnMin= 5 EnMin= -3010.50136473024     IErMin= 5 ErrMin= 2.24D-02
 ErrMax= 2.24D-02  0.00D+00 EMaxC= 1.00D-01 BMatC= 8.10D-02 BMatP= 6.95D-01
 IDIUse=3 WtCom= 7.76D-01 WtEn= 2.24D-01
 Coeff-Com:  0.302D-01-0.349D-01 0.184D+00 0.381D+00 0.440D+00
 Coeff-En:   0.000D+00 0.000D+00 0.000D+00 0.153D+00 0.847D+00
 Coeff:      0.234D-01-0.271D-01 0.143D+00 0.330D+00 0.531D+00
 Gap=     0.268 Goal=   None    Shift=    0.000
 RMSDP=5.25D-03 MaxDP=2.80D-01 DE=-1.78D-01 OVMax= 6.39D-02

 Cycle   6  Pass 1  IDiag  1:
 RMSU=  2.67D-03    CP:  4.85D-02  2.21D+00  1.19D+00  6.45D-01  6.74D-01
 E= -3010.54648616546     Delta-E=       -0.045121435219 Rises=F Damp=F
 DIIS: error= 7.62D-03 at cycle   6 NSaved=   6.
 NSaved= 6 IEnMin= 6 EnMin= -3010.54648616546     IErMin= 6 ErrMin= 7.62D-03
 ErrMax= 7.62D-03  0.00D+00 EMaxC= 1.00D-01 BMatC= 7.67D-03 BMatP= 8.10D-02
 IDIUse=3 WtCom= 9.24D-01 WtEn= 7.62D-02
 Coeff-Com:  0.315D-02-0.471D-02 0.142D-02 0.576D-01 0.298D+00 0.644D+00
 Coeff-En:   0.000D+00 0.000D+00 0.000D+00 0.000D+00 0.466D-01 0.953D+00
 Coeff:      0.291D-02-0.435D-02 0.131D-02 0.532D-01 0.279D+00 0.668D+00
 Gap=     0.251 Goal=   None    Shift=    0.000
 RMSDP=1.22D-03 MaxDP=7.74D-02 DE=-4.51D-02 OVMax= 2.90D-02

 Cycle   7  Pass 1  IDiag  1:
 RMSU=  6.75D-04    CP:  4.80D-02  2.18D+00  1.18D+00  6.27D-01  7.69D-01
                    CP:  1.09D+00
 E= -3010.55142583104     Delta-E=       -0.004939665583 Rises=F Damp=F
 DIIS: error= 3.00D-03 at cycle   7 NSaved=   7.
 NSaved= 7 IEnMin= 7 EnMin= -3010.55142583104     IErMin= 7 ErrMin= 3.00D-03
 ErrMax= 3.00D-03  0.00D+00 EMaxC= 1.00D-01 BMatC= 7.42D-04 BMatP= 7.67D-03
 IDIUse=3 WtCom= 9.70D-01 WtEn= 3.00D-02
 Coeff-Com: -0.720D-03 0.356D-03-0.160D-01-0.335D-02 0.127D+00 0.403D+00
 Coeff-Com:  0.489D+00
 Coeff-En:   0.000D+00 0.000D+00 0.000D+00 0.000D+00 0.000D+00 0.000D+00
 Coeff-En:   0.100D+01
 Coeff:     -0.698D-03 0.345D-03-0.155D-01-0.325D-02 0.123D+00 0.391D+00
 Coeff:      0.505D+00
 Gap=     0.252 Goal=   None    Shift=    0.000
 RMSDP=3.65D-04 MaxDP=2.59D-02 DE=-4.94D-03 OVMax= 1.22D-02

 Cycle   8  Pass 1  IDiag  1:
 RMSU=  3.16D-04    CP:  4.79D-02  2.19D+00  1.18D+00  6.24D-01  7.73D-01
                    CP:  1.11D+00  8.30D-01
 E= -3010.55197473050     Delta-E=       -0.000548899461 Rises=F Damp=F
 DIIS: error= 1.22D-03 at cycle   8 NSaved=   8.
 NSaved= 8 IEnMin= 8 EnMin= -3010.55197473050     IErMin= 8 ErrMin= 1.22D-03
 ErrMax= 1.22D-03  0.00D+00 EMaxC= 1.00D-01 BMatC= 1.18D-04 BMatP= 7.42D-04
 IDIUse=3 WtCom= 9.88D-01 WtEn= 1.22D-02
 Coeff-Com: -0.212D-02 0.240D-02-0.100D-01-0.135D-01 0.114D-01 0.826D-01
 Coeff-Com:  0.307D+00 0.622D+00
 Coeff-En:   0.000D+00 0.000D+00 0.000D+00 0.000D+00 0.000D+00 0.000D+00
 Coeff-En:   0.486D-01 0.951D+00
 Coeff:     -0.210D-02 0.237D-02-0.988D-02-0.134D-01 0.113D-01 0.816D-01
 Coeff:      0.304D+00 0.626D+00
 Gap=     0.251 Goal=   None    Shift=    0.000
 RMSDP=2.11D-04 MaxDP=1.77D-02 DE=-5.49D-04 OVMax= 5.42D-03

 Cycle   9  Pass 1  IDiag  1:
 RMSU=  1.12D-04    CP:  4.81D-02  2.19D+00  1.18D+00  6.26D-01  7.78D-01
                    CP:  1.10D+00  9.74D-01  1.05D+00
 E= -3010.55209100357     Delta-E=       -0.000116273064 Rises=F Damp=F
 DIIS: error= 2.82D-04 at cycle   9 NSaved=   9.
 NSaved= 9 IEnMin= 9 EnMin= -3010.55209100357     IErMin= 9 ErrMin= 2.82D-04
 ErrMax= 2.82D-04  0.00D+00 EMaxC= 1.00D-01 BMatC= 8.53D-06 BMatP= 1.18D-04
 IDIUse=3 WtCom= 9.97D-01 WtEn= 2.82D-03
 Coeff-Com: -0.145D-02 0.198D-02-0.451D-03-0.304D-02-0.176D-01-0.467D-01
 Coeff-Com:  0.358D-02 0.198D+00 0.865D+00
 Coeff-En:   0.000D+00 0.000D+00 0.000D+00 0.000D+00 0.000D+00 0.000D+00
 Coeff-En:   0.000D+00 0.000D+00 0.100D+01
 Coeff:     -0.144D-02 0.197D-02-0.450D-03-0.303D-02-0.175D-01-0.466D-01
 Coeff:      0.357D-02 0.198D+00 0.866D+00
 Gap=     0.251 Goal=   None    Shift=    0.000
 RMSDP=1.43D-04 MaxDP=9.95D-03 DE=-1.16D-04 OVMax= 1.91D-03

 Cycle  10  Pass 1  IDiag  1:
 RMSU=  8.72D-05    CP:  4.81D-02  2.20D+00  1.18D+00  6.26D-01  7.78D-01
                    CP:  1.11D+00  1.04D+00  1.16D+00  1.30D+00
 E= -3010.55210732953     Delta-E=       -0.000016325964 Rises=F Damp=F
 DIIS: error= 7.36D-05 at cycle  10 NSaved=  10.
 NSaved=10 IEnMin=10 EnMin= -3010.55210732953     IErMin=10 ErrMin= 7.36D-05
 ErrMax= 7.36D-05  0.00D+00 EMaxC= 1.00D-01 BMatC= 2.05D-06 BMatP= 8.53D-06
 IDIUse=1 WtCom= 1.00D+00 WtEn= 0.00D+00
 Coeff-Com: -0.102D-02 0.145D-02 0.941D-03 0.853D-03-0.619D-02-0.230D-01
 Coeff-Com: -0.427D-01-0.304D-01 0.286D+00 0.814D+00
 Coeff:     -0.102D-02 0.145D-02 0.941D-03 0.853D-03-0.619D-02-0.230D-01
 Coeff:     -0.427D-01-0.304D-01 0.286D+00 0.814D+00
 Gap=     0.251 Goal=   None    Shift=    0.000
 RMSDP=4.15D-05 MaxDP=2.61D-03 DE=-1.63D-05 OVMax= 8.43D-04

 Cycle  11  Pass 1  IDiag  1:
 RMSU=  1.57D-05    CP:  4.82D-02  2.20D+00  1.18D+00  6.25D-01  7.77D-01
                    CP:  1.11D+00  1.05D+00  1.18D+00  1.47D+00  1.17D+00
 E= -3010.55210995402     Delta-E=       -0.000002624488 Rises=F Damp=F
 DIIS: error= 4.16D-05 at cycle  11 NSaved=  11.
 NSaved=11 IEnMin=11 EnMin= -3010.55210995402     IErMin=11 ErrMin= 4.16D-05
 ErrMax= 4.16D-05  0.00D+00 EMaxC= 1.00D-01 BMatC= 6.41D-07 BMatP= 2.05D-06
 IDIUse=1 WtCom= 1.00D+00 WtEn= 0.00D+00
 Coeff-Com: -0.697D-03 0.963D-03 0.218D-03 0.897D-03 0.652D-03-0.459D-03
 Coeff-Com: -0.124D-01-0.280D-01-0.231D-01 0.241D+00 0.821D+00
 Coeff:     -0.697D-03 0.963D-03 0.218D-03 0.897D-03 0.652D-03-0.459D-03
 Coeff:     -0.124D-01-0.280D-01-0.231D-01 0.241D+00 0.821D+00
 Gap=     0.251 Goal=   None    Shift=    0.000
 RMSDP=2.26D-05 MaxDP=1.70D-03 DE=-2.62D-06 OVMax= 3.81D-04

 Cycle  12  Pass 1  IDiag  1:
 RMSU=  8.07D-06    CP:  4.82D-02  2.20D+00  1.18D+00  6.25D-01  7.77D-01
                    CP:  1.10D+00  1.04D+00  1.17D+00  1.53D+00  1.29D+00
                    CP:  1.29D+00
 E= -3010.55211055721     Delta-E=       -0.000000603194 Rises=F Damp=F
 DIIS: error= 3.15D-05 at cycle  12 NSaved=  12.
 NSaved=12 IEnMin=12 EnMin= -3010.55211055721     IErMin=12 ErrMin= 3.15D-05
 ErrMax= 3.15D-05  0.00D+00 EMaxC= 1.00D-01 BMatC= 2.50D-07 BMatP= 6.41D-07
 IDIUse=1 WtCom= 1.00D+00 WtEn= 0.00D+00
 Coeff-Com: -0.350D-03 0.467D-03-0.136D-03 0.377D-03 0.166D-02 0.484D-02
 Coeff-Com:  0.750D-02 0.368D-02-0.789D-01-0.141D+00 0.171D+00 0.103D+01
 Coeff:     -0.350D-03 0.467D-03-0.136D-03 0.377D-03 0.166D-02 0.484D-02
 Coeff:      0.750D-02 0.368D-02-0.789D-01-0.141D+00 0.171D+00 0.103D+01
 Gap=     0.252 Goal=   None    Shift=    0.000
 RMSDP=1.39D-05 MaxDP=1.23D-03 DE=-6.03D-07 OVMax= 2.85D-04

 Cycle  13  Pass 1  IDiag  1:
 RMSU=  6.15D-06    CP:  4.82D-02  2.20D+00  1.18D+00  6.25D-01  7.77D-01
                    CP:  1.10D+00  1.04D+00  1.17D+00  1.58D+00  1.39D+00
                    CP:  1.42D+00  1.25D+00
 E= -3010.55211086765     Delta-E=       -0.000000310441 Rises=F Damp=F
 DIIS: error= 1.36D-05 at cycle  13 NSaved=  13.
 NSaved=13 IEnMin=13 EnMin= -3010.55211086765     IErMin=13 ErrMin= 1.36D-05
 ErrMax= 1.36D-05  0.00D+00 EMaxC= 1.00D-01 BMatC= 5.80D-08 BMatP= 2.50D-07
 IDIUse=1 WtCom= 1.00D+00 WtEn= 0.00D+00
 Coeff-Com: -0.114D-03 0.152D-03-0.660D-04-0.179D-04 0.176D-03 0.109D-02
 Coeff-Com:  0.595D-02 0.115D-01-0.663D-02-0.847D-01-0.209D+00 0.280D+00
 Coeff-Com:  0.100D+01
 Coeff:     -0.114D-03 0.152D-03-0.660D-04-0.179D-04 0.176D-03 0.109D-02
 Coeff:      0.595D-02 0.115D-01-0.663D-02-0.847D-01-0.209D+00 0.280D+00
 Coeff:      0.100D+01
 Gap=     0.252 Goal=   None    Shift=    0.000
 RMSDP=5.66D-06 MaxDP=3.43D-04 DE=-3.10D-07 OVMax= 1.29D-04

 Cycle  14  Pass 1  IDiag  1:
 RMSU=  2.19D-06    CP:  4.82D-02  2.20D+00  1.18D+00  6.25D-01  7.77D-01
                    CP:  1.10D+00  1.04D+00  1.17D+00  1.59D+00  1.40D+00
                    CP:  1.45D+00  1.54D+00  1.19D+00
 E= -3010.55211094113     Delta-E=       -0.000000073482 Rises=F Damp=F
 DIIS: error= 7.19D-06 at cycle  14 NSaved=  14.
 NSaved=14 IEnMin=14 EnMin= -3010.55211094113     IErMin=14 ErrMin= 7.19D-06
 ErrMax= 7.19D-06  0.00D+00 EMaxC= 1.00D-01 BMatC= 7.25D-09 BMatP= 5.80D-08
 IDIUse=1 WtCom= 1.00D+00 WtEn= 0.00D+00
 Coeff-Com: -0.213D-04 0.305D-04 0.341D-05-0.689D-04-0.325D-03-0.681D-03
 Coeff-Com:  0.662D-03 0.290D-02 0.131D-01-0.380D-02-0.121D+00-0.947D-01
 Coeff-Com:  0.360D+00 0.844D+00
 Coeff:     -0.213D-04 0.305D-04 0.341D-05-0.689D-04-0.325D-03-0.681D-03
 Coeff:      0.662D-03 0.290D-02 0.131D-01-0.380D-02-0.121D+00-0.947D-01
 Coeff:      0.360D+00 0.844D+00
 Gap=     0.252 Goal=   None    Shift=    0.000
 RMSDP=2.48D-06 MaxDP=2.55D-04 DE=-7.35D-08 OVMax= 5.82D-05

 Cycle  15  Pass 1  IDiag  1:
 RMSU=  1.12D-06    CP:  4.82D-02  2.20D+00  1.18D+00  6.25D-01  7.77D-01
                    CP:  1.10D+00  1.04D+00  1.18D+00  1.60D+00  1.40D+00
                    CP:  1.47D+00  1.68D+00  1.31D+00  1.15D+00
 E= -3010.55211095229     Delta-E=       -0.000000011160 Rises=F Damp=F
 DIIS: error= 1.09D-06 at cycle  15 NSaved=  15.
 NSaved=15 IEnMin=15 EnMin= -3010.55211095229     IErMin=15 ErrMin= 1.09D-06
 ErrMax= 1.09D-06  0.00D+00 EMaxC= 1.00D-01 BMatC= 5.14D-10 BMatP= 7.25D-09
 IDIUse=1 WtCom= 1.00D+00 WtEn= 0.00D+00
 Coeff-Com: -0.402D-05 0.555D-05 0.350D-05-0.512D-05-0.774D-04-0.241D-03
 Coeff-Com: -0.567D-03-0.932D-03 0.398D-02 0.111D-01 0.603D-02-0.480D-01
 Coeff-Com: -0.854D-01 0.221D+00 0.893D+00
 Coeff:     -0.402D-05 0.555D-05 0.350D-05-0.512D-05-0.774D-04-0.241D-03
 Coeff:     -0.567D-03-0.932D-03 0.398D-02 0.111D-01 0.603D-02-0.480D-01
 Coeff:     -0.854D-01 0.221D+00 0.893D+00
 Gap=     0.252 Goal=   None    Shift=    0.000
 RMSDP=1.17D-06 MaxDP=1.10D-04 DE=-1.12D-08 OVMax= 1.05D-05

 Cycle  16  Pass 1  IDiag  1:
 RMSU=  2.93D-07    CP:  4.82D-02  2.20D+00  1.18D+00  6.25D-01  7.77D-01
                    CP:  1.10D+00  1.04D+00  1.18D+00  1.60D+00  1.40D+00
                    CP:  1.45D+00  1.66D+00  1.32D+00  1.29D+00  1.13D+00
 E= -3010.55211095313     Delta-E=       -0.000000000837 Rises=F Damp=F
 DIIS: error= 6.30D-07 at cycle  16 NSaved=  16.
 NSaved=16 IEnMin=16 EnMin= -3010.55211095313     IErMin=16 ErrMin= 6.30D-07
 ErrMax= 6.30D-07  0.00D+00 EMaxC= 1.00D-01 BMatC= 3.63D-11 BMatP= 5.14D-10
 IDIUse=1 WtCom= 1.00D+00 WtEn= 0.00D+00
 Coeff-Com: -0.336D-06 0.156D-06-0.169D-05 0.493D-05 0.166D-04 0.184D-04
 Coeff-Com: -0.206D-03-0.517D-03-0.385D-03 0.281D-02 0.152D-01-0.131D-02
 Coeff-Com: -0.681D-01-0.168D-01 0.209D+00 0.861D+00
 Coeff:     -0.336D-06 0.156D-06-0.169D-05 0.493D-05 0.166D-04 0.184D-04
 Coeff:     -0.206D-03-0.517D-03-0.385D-03 0.281D-02 0.152D-01-0.131D-02
 Coeff:     -0.681D-01-0.168D-01 0.209D+00 0.861D+00
 Gap=     0.252 Goal=   None    Shift=    0.000
 RMSDP=2.94D-07 MaxDP=2.54D-05 DE=-8.37D-10 OVMax= 7.45D-06

 Cycle  17  Pass 1  IDiag  1:
 RMSU=  1.02D-07    CP:  4.82D-02  2.20D+00  1.18D+00  6.25D-01  7.77D-01
                    CP:  1.10D+00  1.04D+00  1.18D+00  1.60D+00  1.40D+00
                    CP:  1.45D+00  1.66D+00  1.32D+00  1.32D+00  1.21D+00
                    CP:  1.24D+00
 E= -3010.55211095331     Delta-E=       -0.000000000176 Rises=F Damp=F
 DIIS: error= 1.55D-07 at cycle  17 NSaved=  17.
 NSaved=17 IEnMin=17 EnMin= -3010.55211095331     IErMin=17 ErrMin= 1.55D-07
 ErrMax= 1.55D-07  0.00D+00 EMaxC= 1.00D-01 BMatC= 1.15D-11 BMatP= 3.63D-11
 IDIUse=1 WtCom= 1.00D+00 WtEn= 0.00D+00
 Coeff-Com: -0.785D-08-0.583D-07-0.126D-05 0.137D-05 0.141D-04 0.334D-04
 Coeff-Com:  0.212D-04 0.129D-04-0.604D-03-0.912D-03 0.394D-02 0.682D-02
 Coeff-Com: -0.793D-02-0.312D-01-0.971D-01 0.318D+00 0.809D+00
 Coeff:     -0.785D-08-0.583D-07-0.126D-05 0.137D-05 0.141D-04 0.334D-04
 Coeff:      0.212D-04 0.129D-04-0.604D-03-0.912D-03 0.394D-02 0.682D-02
 Coeff:     -0.793D-02-0.312D-01-0.971D-01 0.318D+00 0.809D+00
 Gap=     0.252 Goal=   None    Shift=    0.000
 RMSDP=1.48D-07 MaxDP=6.50D-06 DE=-1.76D-10 OVMax= 2.81D-06

 Cycle  18  Pass 1  IDiag  1:
 RMSU=  7.75D-08    CP:  4.82D-02  2.20D+00  1.18D+00  6.25D-01  7.77D-01
                    CP:  1.10D+00  1.04D+00  1.18D+00  1.60D+00  1.40D+00
                    CP:  1.45D+00  1.66D+00  1.31D+00  1.32D+00  1.23D+00
                    CP:  1.42D+00  1.19D+00
 E= -3010.55211095321     Delta-E=        0.000000000094 Rises=F Damp=F
 DIIS: error= 9.93D-08 at cycle  18 NSaved=  18.
 NSaved=18 IEnMin=17 EnMin= -3010.55211095331     IErMin=18 ErrMin= 9.93D-08
 ErrMax= 9.93D-08  0.00D+00 EMaxC= 1.00D-01 BMatC= 1.06D-12 BMatP= 1.15D-11
 IDIUse=1 WtCom= 1.00D+00 WtEn= 0.00D+00
 Coeff-Com:  0.223D-08 0.458D-07 0.283D-06-0.570D-06-0.733D-06 0.131D-06
 Coeff-Com:  0.338D-04 0.690D-04 0.741D-05-0.614D-03-0.166D-02 0.337D-03
 Coeff-Com:  0.103D-01 0.264D-02-0.539D-01-0.562D-01-0.146D-01 0.111D+01
 Coeff:      0.223D-08 0.458D-07 0.283D-06-0.570D-06-0.733D-06 0.131D-06
 Coeff:      0.338D-04 0.690D-04 0.741D-05-0.614D-03-0.166D-02 0.337D-03
 Coeff:      0.103D-01 0.264D-02-0.539D-01-0.562D-01-0.146D-01 0.111D+01
 Gap=     0.252 Goal=   None    Shift=    0.000
 RMSDP=6.20D-08 MaxDP=2.87D-06 DE= 9.37D-11 OVMax= 2.28D-06

 Cycle  19  Pass 1  IDiag  1:
 RMSU=  2.19D-08    CP:  4.82D-02  2.20D+00  1.18D+00  6.25D-01  7.77D-01
                    CP:  1.10D+00  1.04D+00  1.18D+00  1.60D+00  1.40D+00
                    CP:  1.45D+00  1.65D+00  1.31D+00  1.32D+00  1.24D+00
                    CP:  1.48D+00  1.41D+00  1.47D+00
 E= -3010.55211095330     Delta-E=       -0.000000000085 Rises=F Damp=F
 DIIS: error= 3.29D-08 at cycle  19 NSaved=  19.
 NSaved=19 IEnMin=17 EnMin= -3010.55211095331     IErMin=19 ErrMin= 3.29D-08
 ErrMax= 3.29D-08  0.00D+00 EMaxC= 1.00D-01 BMatC= 5.13D-13 BMatP= 1.06D-12
 IDIUse=1 WtCom= 1.00D+00 WtEn= 0.00D+00
 Coeff-Com:  0.661D-08 0.203D-07 0.337D-06-0.382D-06-0.273D-05-0.647D-05
 Coeff-Com:  0.848D-05 0.208D-04 0.111D-03-0.122D-03-0.121D-02-0.114D-02
 Coeff-Com:  0.558D-02 0.594D-02-0.746D-02-0.695D-01-0.208D+00 0.468D+00
 Coeff-Com:  0.808D+00
 Coeff:      0.661D-08 0.203D-07 0.337D-06-0.382D-06-0.273D-05-0.647D-05
 Coeff:      0.848D-05 0.208D-04 0.111D-03-0.122D-03-0.121D-02-0.114D-02
 Coeff:      0.558D-02 0.594D-02-0.746D-02-0.695D-01-0.208D+00 0.468D+00
 Coeff:      0.808D+00
 Gap=     0.252 Goal=   None    Shift=    0.000
 RMSDP=3.44D-08 MaxDP=1.75D-06 DE=-8.46D-11 OVMax= 9.06D-07

 Cycle  20  Pass 1  IDiag  1:
 RMSU=  7.40D-09    CP:  4.82D-02  2.20D+00  1.18D+00  6.25D-01  7.77D-01
                    CP:  1.10D+00  1.04D+00  1.18D+00  1.60D+00  1.40D+00
                    CP:  1.45D+00  1.65D+00  1.31D+00  1.32D+00  1.25D+00
                    CP:  1.52D+00  1.47D+00  1.80D+00  1.33D+00
 E= -3010.55211095326     Delta-E=        0.000000000038 Rises=F Damp=F
 DIIS: error= 1.02D-08 at cycle  20 NSaved=  20.
 NSaved=20 IEnMin=17 EnMin= -3010.55211095331     IErMin=20 ErrMin= 1.02D-08
 ErrMax= 1.02D-08  0.00D+00 EMaxC= 1.00D-01 BMatC= 3.24D-14 BMatP= 5.13D-13
 IDIUse=1 WtCom= 1.00D+00 WtEn= 0.00D+00
 Coeff-Com:  0.200D-07-0.357D-07-0.295D-07 0.626D-07-0.202D-06-0.908D-06
 Coeff-Com: -0.613D-05-0.930D-05 0.271D-04 0.938D-04 0.188D-03-0.403D-03
 Coeff-Com: -0.129D-02 0.589D-03 0.103D-01 0.975D-02-0.514D-01-0.107D+00
 Coeff-Com:  0.913D-01 0.105D+01
 Coeff:      0.200D-07-0.357D-07-0.295D-07 0.626D-07-0.202D-06-0.908D-06
 Coeff:     -0.613D-05-0.930D-05 0.271D-04 0.938D-04 0.188D-03-0.403D-03
 Coeff:     -0.129D-02 0.589D-03 0.103D-01 0.975D-02-0.514D-01-0.107D+00
 Coeff:      0.913D-01 0.105D+01
 Gap=     0.252 Goal=   None    Shift=    0.000
 RMSDP=1.45D-08 MaxDP=6.89D-07 DE= 3.82D-11 OVMax= 3.87D-07

 Cycle  21  Pass 1  IDiag  1:
 Restarting incremental Fock formation.
 E= -3010.55211095327     Delta-E=       -0.000000000009 Rises=F Damp=F
 DIIS: error= 2.78D-09 at cycle  21 NSaved=  20.
 NSaved=20 IEnMin=16 EnMin= -3010.55211095331     IErMin=20 ErrMin= 2.78D-09
 ErrMax= 2.78D-09  0.00D+00 EMaxC= 1.00D-01 BMatC= 3.96D-15 BMatP= 3.24D-14
 IDIUse=1 WtCom= 1.00D+00 WtEn= 0.00D+00
 Large coefficients: NSaved= 20 BigCof=    0.00 CofMax=   10.00 Det=-8.07D-15
 Inversion failed.  Reducing to 19 matrices.
 Large coefficients: NSaved= 19 BigCof=    0.00 CofMax=   10.00 Det=-8.28D-15
 Inversion failed.  Reducing to 18 matrices.
 Large coefficients: NSaved= 18 BigCof=    0.00 CofMax=   10.00 Det=-8.29D-15
 Inversion failed.  Reducing to 17 matrices.
 Large coefficients: NSaved= 17 BigCof=    0.00 CofMax=   10.00 Det=-8.44D-15
 Inversion failed.  Reducing to 16 matrices.
 Coeff-Com:  0.126D-06-0.101D-05 0.315D-07-0.383D-05 0.927D-05 0.511D-04
 Coeff-Com:  0.612D-04-0.188D-03-0.214D-03 0.457D-04 0.480D-02 0.117D-01
 Coeff-Com: -0.263D-01-0.753D-01-0.250D-01 0.111D+01
 Coeff:      0.126D-06-0.101D-05 0.315D-07-0.383D-05 0.927D-05 0.511D-04
 Coeff:      0.612D-04-0.188D-03-0.214D-03 0.457D-04 0.480D-02 0.117D-01
 Coeff:     -0.263D-01-0.753D-01-0.250D-01 0.111D+01
 Gap=     0.252 Goal=   None    Shift=    0.000
 RMSDP=3.73D-09 MaxDP=2.18D-07 DE=-9.09D-12 OVMax= 1.13D-07

 SCF Done:  E(RwB97XD) =  -3010.55211095     A.U. after   21 cycles
            NFock= 21  Conv=0.37D-08     -V/T= 2.0016
 KE= 3.005856647892D+03 PE=-8.635138937773D+03 EE= 1.876995281132D+03
 Leave Link  502 at Wed May  1 15:18:21 2024, MaxMem=  1207959552 cpu:            1222.1 elap:            1222.2
 (Enter /software/gaussian/g16-c01/sse4/g16/l601.exe)
 Copying SCF densities to generalized density rwf, IOpCl= 0 IROHF=0.

 **********************************************************************

            Population analysis using the SCF Density.

 **********************************************************************

 Alpha  occ. eigenvalues -- -483.34864 -62.89935 -56.69560 -56.69083 -56.69082
 Alpha  occ. eigenvalues --  -19.46695 -19.46601 -14.86181 -10.60071 -10.58671
 Alpha  occ. eigenvalues --  -10.58181 -10.58001 -10.57681 -10.53808  -9.05773
 Alpha  occ. eigenvalues --   -6.88265  -6.86681  -6.86673  -2.98214  -2.97787
 Alpha  occ. eigenvalues --   -2.97779  -2.96511  -2.96511  -1.50424  -1.33395
 Alpha  occ. eigenvalues --   -1.23830  -1.15815  -1.12818  -1.07132  -1.01924
 Alpha  occ. eigenvalues --   -0.96610  -0.91912  -0.86073  -0.81689  -0.81468
 Alpha  occ. eigenvalues --   -0.80807  -0.79127  -0.76941  -0.76836  -0.74148
 Alpha  occ. eigenvalues --   -0.70334  -0.68545  -0.65350  -0.62693  -0.60622
 Alpha  occ. eigenvalues --   -0.57978  -0.57694  -0.56847  -0.56370
 Alpha virt. eigenvalues --   -0.31204  -0.22191  -0.19483  -0.17113  -0.14826
 Alpha virt. eigenvalues --   -0.13192  -0.11869  -0.09277  -0.07900  -0.07640
 Alpha virt. eigenvalues --   -0.05376  -0.04533  -0.03555  -0.02546  -0.02234
 Alpha virt. eigenvalues --   -0.01103   0.00084   0.00773   0.01383   0.02369
 Alpha virt. eigenvalues --    0.03949   0.04788   0.05417   0.05677   0.06351
 Alpha virt. eigenvalues --    0.07457   0.07848   0.07959   0.08184   0.09305
 Alpha virt. eigenvalues --    0.10250   0.10903   0.11401   0.12072   0.12686
 Alpha virt. eigenvalues --    0.12860   0.13727   0.14586   0.15165   0.15734
 Alpha virt. eigenvalues --    0.16386   0.17000   0.17993   0.18764   0.19005
 Alpha virt. eigenvalues --    0.20573   0.20866   0.20955   0.22124   0.24171
 Alpha virt. eigenvalues --    0.24864   0.25498   0.26698   0.27745   0.27845
 Alpha virt. eigenvalues --    0.29302   0.31641   0.33530   0.34201   0.35724
 Alpha virt. eigenvalues --    0.37108   0.37369   0.37722   0.39515   0.40187
 Alpha virt. eigenvalues --    0.42312   0.42993   0.44229   0.46231   0.46764
 Alpha virt. eigenvalues --    0.47513   0.48180   0.48986   0.51183   0.52843
 Alpha virt. eigenvalues --    0.53318   0.54265   0.55414   0.56720   0.58687
 Alpha virt. eigenvalues --    0.60198   0.61383   0.62617   0.64959   0.67814
 Alpha virt. eigenvalues --    0.69617   0.70654   0.72074   0.72387   0.73283
 Alpha virt. eigenvalues --    0.73764   0.78645   0.78862   0.80825   0.83816
 Alpha virt. eigenvalues --    0.84969   0.87096   0.91134   0.91788   0.97493
 Alpha virt. eigenvalues --    0.98891   1.00104   1.03472   1.04596   1.05615
 Alpha virt. eigenvalues --    1.07791   1.10435   1.11088   1.11670   1.13500
 Alpha virt. eigenvalues --    1.21311   1.23780   1.26003   1.31977   1.35573
 Alpha virt. eigenvalues --    1.35989   1.36893   1.43795   1.53437   1.56205
 Alpha virt. eigenvalues --    1.57571   1.57793   1.59741   1.61461   1.65197
 Alpha virt. eigenvalues --    1.68216   1.68529   1.72577   1.74483   1.78067
 Alpha virt. eigenvalues --    1.80155   1.84602   1.86136   1.89552   1.91804
 Alpha virt. eigenvalues --    1.96395   2.01942   2.02542   2.04578   2.06778
 Alpha virt. eigenvalues --    2.08376   2.13637   2.19529   2.21845   2.28656
 Alpha virt. eigenvalues --    2.36879   2.40293   2.41979   2.42710   2.51551
 Alpha virt. eigenvalues --    2.55902   2.62151   2.65150   2.67305   2.70892
 Alpha virt. eigenvalues --    2.72532   2.75650   2.76487   2.80056   2.80659
 Alpha virt. eigenvalues --    2.92238   2.95214   2.99854   3.04443   3.07885
 Alpha virt. eigenvalues --    3.12133   3.13989   3.18203   3.22818   3.23443
 Alpha virt. eigenvalues --    3.26557   3.38260   3.46758   3.50321   3.53542
 Alpha virt. eigenvalues --    3.55946   3.69108   3.73319   3.81141   3.86063
 Alpha virt. eigenvalues --    4.04858   4.05114   4.12969   4.18121   4.39052
 Alpha virt. eigenvalues --    4.43560   4.56293   4.59016   4.92410   4.95081
 Alpha virt. eigenvalues --    5.03719   5.07886   5.62017   6.14973   6.60764
 Alpha virt. eigenvalues --    7.43489   7.45098   7.55102  23.20146  23.60252
 Alpha virt. eigenvalues --   23.67895  23.78305  23.95035  24.00351  35.31779
 Alpha virt. eigenvalues --   47.87469  49.84743  49.93555 289.76834 289.78504
 Alpha virt. eigenvalues --  289.909971020.87953
          Condensed to atoms (all electrons):
               1          2          3          4          5          6
     1  C    9.135138  -3.013316   0.706781  -1.982307  -0.926652   0.332692
     2  C   -3.013316  14.849828  -3.033966  -2.247489   1.575910  -0.030499
     3  C    0.706781  -3.033966  13.557586  -2.898087  -1.773225   0.027751
     4  C   -1.982307  -2.247489  -2.898087  15.009612   1.588942   0.019273
     5  C   -0.926652   1.575910  -1.773225   1.588942   8.178742  -0.001846
     6  H    0.332692  -0.030499   0.027751   0.019273  -0.001846   0.326424
     7  H    0.064029   0.217973   0.088521  -0.026014  -0.018918  -0.001595
     8  H    0.006469  -0.016496   0.076096   0.243730  -0.023140  -0.000004
     9  H    0.025348  -0.019796   0.010514  -0.012729   0.308446  -0.001936
    10  N   -0.176385   0.378084  -1.130935   0.483158   0.046925  -0.000723
    11  O    0.011638   0.023544  -0.206337  -0.104779  -0.045830  -0.000049
    12  O    0.328654  -0.101252  -0.205748  -0.089052  -0.048374   0.000038
    13  C    2.019590  -3.011359   1.432646  -4.338873  -2.906187  -0.013636
    14  H   -0.008351   0.006402  -0.003933  -0.069151  -0.023435  -0.000011
    15  Br   0.100503  -0.160998   0.085539   0.115449  -0.000397  -0.000601
               7          8          9         10         11         12
     1  C    0.064029   0.006469   0.025348  -0.176385   0.011638   0.328654
     2  C    0.217973  -0.016496  -0.019796   0.378084   0.023544  -0.101252
     3  C    0.088521   0.076096   0.010514  -1.130935  -0.206337  -0.205748
     4  C   -0.026014   0.243730  -0.012729   0.483158  -0.104779  -0.089052
     5  C   -0.018918  -0.023140   0.308446   0.046925  -0.045830  -0.048374
     6  H   -0.001595  -0.000004  -0.001936  -0.000723  -0.000049   0.000038
     7  H    0.298655  -0.000014   0.000021  -0.028846  -0.001500   0.022867
     8  H   -0.000014   0.284719   0.000055  -0.025756   0.020389  -0.000333
     9  H    0.000021   0.000055   0.310274   0.000217   0.000019   0.000012
    10  N   -0.028846  -0.025756   0.000217   7.511609   0.123245   0.116404
    11  O   -0.001500   0.020389   0.000019   0.123245   7.879748  -0.002310
    12  O    0.022867  -0.000333   0.000012   0.116404  -0.002310   7.897363
    13  C    0.013870   0.055925   0.023756  -0.194274   0.270094   0.047590
    14  H   -0.000009  -0.001862  -0.003304   0.001107  -0.000467  -0.000134
    15  Br  -0.000011  -0.002323  -0.003028   0.004986  -0.003095   0.003092
              13         14         15
     1  C    2.019590  -0.008351   0.100503
     2  C   -3.011359   0.006402  -0.160998
     3  C    1.432646  -0.003933   0.085539
     4  C   -4.338873  -0.069151   0.115449
     5  C   -2.906187  -0.023435  -0.000397
     6  H   -0.013636  -0.000011  -0.000601
     7  H    0.013870  -0.000009  -0.000011
     8  H    0.055925  -0.001862  -0.002323
     9  H    0.023756  -0.003304  -0.003028
    10  N   -0.194274   0.001107   0.004986
    11  O    0.270094  -0.000467  -0.003095
    12  O    0.047590  -0.000134   0.003092
    13  C   12.755470   0.390531  -0.076499
    14  H    0.390531   0.250668  -0.018449
    15  Br  -0.076499  -0.018449  34.989766
 Mulliken charges:
               1
     1  C   -0.623832
     2  C    0.583430
     3  C   -0.733204
     4  C    0.308317
     5  C    0.069038
     6  H    0.344722
     7  H    0.370971
     8  H    0.382542
     9  H    0.362132
    10  N   -0.108815
    11  O    0.035690
    12  O    0.031184
    13  C   -0.468641
    14  H    0.480398
    15  Br  -0.033934
 Sum of Mulliken charges =   1.00000
 Mulliken charges with hydrogens summed into heavy atoms:
               1
     1  C   -0.279109
     2  C    0.954402
     3  C   -0.733204
     4  C    0.690860
     5  C    0.431170
    10  N   -0.108815
    11  O    0.035690
    12  O    0.031184
    13  C    0.011758
    15  Br  -0.033934
 Electronic spatial extent (au):  <R**2>=           2802.1617
 Charge=              1.0000 electrons
 Dipole moment (field-independent basis, Debye):
    X=             -0.2865    Y=              0.2325    Z=              3.8521  Tot=              3.8697
 Quadrupole moment (field-independent basis, Debye-Ang):
   XX=            -70.5239   YY=            -53.1828   ZZ=            -67.2433
   XY=              0.7113   XZ=              2.8823   YZ=             -1.6525
 Traceless Quadrupole moment (field-independent basis, Debye-Ang):
   XX=             -6.8739   YY=             10.4672   ZZ=             -3.5933
   XY=              0.7113   XZ=              2.8823   YZ=             -1.6525
 Octapole moment (field-independent basis, Debye-Ang**2):
  XXX=           -295.1155  YYY=             93.6475  ZZZ=             96.0613  XYY=            -74.0024
  XXY=             31.1784  XXZ=             45.2735  XZZ=            -75.7766  YZZ=             25.3185
  YYZ=             37.2361  XYZ=             -1.1431
 Hexadecapole moment (field-independent basis, Debye-Ang**3):
 XXXX=          -2265.1696 YYYY=           -690.2225 ZZZZ=           -392.1983 XXXY=            -70.8320
 XXXZ=             13.7735 YYYX=            -63.5505 YYYZ=           -175.9864 ZZZX=            -21.2974
 ZZZY=           -162.5025 XXYY=           -456.4578 XXZZ=           -377.0360 YYZZ=           -184.1583
 XXYZ=            -57.7974 YYXZ=             -2.3838 ZZXY=            -13.7570
 N-N= 7.417348977957D+02 E-N=-8.635138938043D+03  KE= 3.005856647892D+03
 No NMR shielding tensors so no spin-rotation constants.
 Leave Link  601 at Wed May  1 15:18:28 2024, MaxMem=  1207959552 cpu:               7.5 elap:               7.5
 (Enter /software/gaussian/g16-c01/sse4/g16/l9999.exe)
 Unable to Open any file for archive entry.
 1\1\GINC-BHX0006\SP\RwB97XD\6-311+G(d)\C6H5Br1N1O2(1+)\BWEIGHT\01-May-
 2024\0\\#P wB97XD/6-311+G* NoSymm #P Field=Z-223\\TitleMe\\1,1\C,0,0.0
 295,1.3397,0.0682\C,0,1.4348,1.2867,0.0064\C,0,2.1118,0.0511,-0.0054\C
 ,0,1.4451,-1.1372,0.0312\C,0,-0.6879,0.1682,0.11\H,0,-0.4713,2.2984,0.
 0781\H,0,2.0273,2.1965,-0.0322\H,0,1.9897,-2.0764,0.0232\H,0,-1.7716,0
 .1804,0.1582\N,0,3.5864,0.051,-0.0675\O,0,4.1471,-1.0597,-0.0881\O,0,4
 .145,1.1639,-0.0901\C,0,-0.0236,-1.1458,0.0835\H,0,-0.4367,-1.8725,0.7
 889\Br,0,-0.5359,-1.8697,-1.7408\\Version=ES64L-G16RevC.01\HF=-3010.55
 2111\RMSD=3.728e-09\Dipole=-2.0192392,1.2395518,2.6617105\Quadrupole=-
 5.1105697,7.7821083,-2.6715386,0.5288655,2.1428861,-1.2285647\PG=C01 [
 X(C6H5Br1N1O2)]\\@
 The archive entry for this job was punched.


 TRUTH, IN SCIENCE, CAN BE DEFINED AS THE WORKING HYPOTHESIS 
 BEST FITTED TO OPEN THE WAY TO THE NEXT BETTER ONE.

                              -- KONRAD LORENZ
 Job cpu time:       0 days  0 hours 21 minutes 31.4 seconds.
 Elapsed time:       0 days  0 hours 21 minutes 31.6 seconds.
 File lengths (MBytes):  RWF=     40 Int=      0 D2E=      0 Chk=     32 Scr=      1
 Normal termination of Gaussian 16 at Wed May  1 15:18:29 2024.
